<event>
 7    1  0.2420569E-009  0.3028196E+03  0.7561462E-02  0.1083840E+00
          2   -1    0    0  501    0  0.00000000000E+00  0.00000000000E+00  0.14196126090E+03  0.14196126090E+03  0.00000000000E+00 0. -1.
         -2   -1    0    0    0  501 -0.00000000000E+00 -0.00000000000E+00 -0.65123910085E+03  0.65123910085E+03  0.00000000000E+00 0.  1.
         25    2    1    2    0    0  0.14601321698E+03 -0.24297855314E+03 -0.23128091651E+03  0.38664765443E+03  0.12508840678E+03 0.  0.
          5    1    3    3  502    0 -0.16284026502E+02 -0.72245166344E+02 -0.51868572991E+02  0.90511628222E+02  0.41800000000E+01 0. -1.
         -5    1    3    3    0  502  0.16229724348E+03 -0.17073338680E+03 -0.17941234352E+03  0.29613602621E+03  0.41800000000E+01 0. -1.
        -11    1    1    2    0    0 -0.56307061239E+02  0.17346766828E+03 -0.18561023577E+03  0.26021659575E+03  0.00000000000E+00 0.  1.
         11    1    1    2    0    0 -0.89706155738E+02  0.69510884867E+02 -0.92386687664E+02  0.14633611157E+03  0.00000000000E+00 0. -1.
</event>
<event>
 7    1  0.2420569E-009  0.1102993E+03  0.7561462E-02  0.1260017E+00
         -2   -1    0    0    0  501 -0.00000000000E+00  0.00000000000E+00  0.24494177716E+03  0.24494177716E+03  0.00000000000E+00 0.  1.
          2   -1    0    0  501    0  0.00000000000E+00 -0.00000000000E+00 -0.81495319011E+02  0.81495319011E+02  0.00000000000E+00 0. -1.
         25    2    1    2    0    0  0.25870078390E+02 -0.80568730109E+02  0.80842032683E+02  0.17130008966E+03  0.12509078799E+03 0.  0.
          5    1    3    3  502    0 -0.32288286608E+02 -0.30790316676E+02 -0.16180280617E+02  0.47642952615E+02  0.41800000000E+01 0.  1.
         -5    1    3    3    0  502  0.58158364998E+02 -0.49778413433E+02  0.97022313300E+02  0.12365713704E+03  0.41800000000E+01 0.  1.
        -11    1    1    2    0    0 -0.29430001999E+02  0.14235567950E+02  0.82464388481E+02  0.88708239640E+02  0.00000000000E+00 0.  1.
         11    1    1    2    0    0  0.35599236091E+01  0.66333162159E+02  0.14003698543E+00  0.66428766874E+02  0.00000000000E+00 0. -1.
</event>
<event>
 7    1  0.2420569E-009  0.3717186E+03  0.7561462E-02  0.1054038E+00
         -1   -1    0    0    0  501 -0.00000000000E+00  0.00000000000E+00  0.63730938936E+03  0.63730938936E+03  0.00000000000E+00 0. -1.
          1   -1    0    0  501    0  0.00000000000E+00 -0.00000000000E+00 -0.25062133071E+03  0.25062133071E+03  0.00000000000E+00 0.  1.
         25    2    1    2    0    0 -0.15501040942E+03 -0.32529811770E+03  0.46842243174E+02  0.38430277699E+03  0.12508931311E+03 0.  0.
          5    1    3    3  502    0 -0.14191294705E+03 -0.15673713823E+03  0.38665977433E+02  0.21498452329E+03  0.41800000000E+01 0.  1.
         -5    1    3    3    0  502 -0.13097462376E+02 -0.16856097946E+03  0.81762657413E+01  0.16931825371E+03  0.41800000000E+01 0.  1.
        -11    1    1    2    0    0  0.31604149451E+02  0.11240259415E+03  0.16339860191E+03  0.20082895344E+03  0.00000000000E+00 0. -1.
         11    1    1    2    0    0  0.12340625997E+03  0.21289552354E+03  0.17644721356E+03  0.30279898963E+03  0.00000000000E+00 0.  1.
</event>
<event>
 7    1  0.2420569E-009  0.8386164E+02  0.7561462E-02  0.1318437E+00
          2   -1    0    0  501    0  0.00000000000E+00  0.00000000000E+00  0.47385308126E+03  0.47385308126E+03  0.00000000000E+00 0. -1.
         -2   -1    0    0    0  501 -0.00000000000E+00 -0.00000000000E+00 -0.32133039254E+02  0.32133039254E+02  0.00000000000E+00 0.  1.
         25    2    1    2    0    0  0.11478175295E+02  0.52899391575E+02  0.29477285869E+03  0.32475713480E+03  0.12508422861E+03 0.  0.
          5    1    3    3  502    0 -0.79432653465E+01 -0.54586447730E+01  0.24580299298E+03  0.24602738877E+03  0.41800000000E+01 0. -1.
         -5    1    3    3    0  502  0.19421440642E+02  0.58358036348E+02  0.48969865715E+02  0.78729746037E+02  0.41800000000E+01 0. -1.
        -11    1    1    2    0    0  0.18991695811E+02  0.12968427640E+02  0.77276708369E+02  0.80626014918E+02  0.00000000000E+00 0. -1.
         11    1    1    2    0    0 -0.30469871106E+02 -0.65867819215E+02  0.69670474949E+02  0.10060297080E+03  0.00000000000E+00 0.  1.
</event>
<event>
 7    1  0.2420569E-009  0.9207403E+02  0.7561462E-02  0.1297905E+00
          1   -1    0    0  501    0  0.00000000000E+00  0.00000000000E+00  0.29593062589E+03  0.29593062589E+03  0.00000000000E+00 0.  1.
         -1   -1    0    0    0  501 -0.00000000000E+00 -0.00000000000E+00 -0.52706035385E+02  0.52706035385E+02  0.00000000000E+00 0. -1.
         25    2    1    2    0    0  0.52051318513E+02 -0.25427962254E+02  0.16407476589E+03  0.21429581896E+03  0.12508496391E+03 0.  0.
          5    1    3    3  502    0  0.22667416542E+02 -0.37155123572E+02  0.17514302679E+03  0.18051832930E+03  0.41800000000E+01 0. -1.
         -5    1    3    3    0  502  0.29383901972E+02  0.11727161318E+02 -0.11068260904E+02  0.33777489651E+02  0.41800000000E+01 0. -1.
        -11    1    1    2    0    0  0.60840452815E+01  0.46333737295E+02  0.32354759841E+02  0.56838906596E+02  0.00000000000E+00 0.  1.
         11    1    1    2    0    0 -0.58135363795E+02 -0.20905775041E+02  0.46795064775E+02  0.77501935724E+02  0.00000000000E+00 0. -1.
</event>
<event>
 7    1  0.2420569E-009  0.9570659E+02  0.7561462E-02  0.1289593E+00
          2   -1    0    0  501    0  0.00000000000E+00  0.00000000000E+00  0.54185557997E+02  0.54185557997E+02  0.00000000000E+00 0.  1.
         -2   -1    0    0    0  501 -0.00000000000E+00 -0.00000000000E+00 -0.29217343836E+03  0.29217343836E+03  0.00000000000E+00 0. -1.
         25    2    1    2    0    0 -0.37967845495E+02  0.12609410783E+02 -0.73818664270E+02  0.15065715260E+03  0.12509127829E+03 0.  0.
          5    1    3    3  502    0 -0.49878372583E+02  0.33796534003E+02 -0.98643943005E+02  0.11566398598E+03  0.41800000000E+01 0.  1.
         -5    1    3    3    0  502  0.11910527087E+02 -0.21187123220E+02  0.24825278735E+02  0.34993166620E+02  0.41800000000E+01 0.  1.
        -11    1    1    2    0    0 -0.20484310001E+02 -0.37574817503E+02 -0.71519186981E+02  0.83345473621E+02  0.00000000000E+00 0. -1.
         11    1    1    2    0    0  0.58452155496E+02  0.24965406721E+02 -0.92650029115E+02  0.11235637013E+03  0.00000000000E+00 0.  1.
</event>
<event>
 7    1  0.2420569E-009  0.2869303E+03  0.7561462E-02  0.1091963E+00
          2   -1    0    0  501    0  0.00000000000E+00  0.00000000000E+00  0.10288430050E+04  0.10288430050E+04  0.00000000000E+00 0. -1.
         -2   -1    0    0    0  501 -0.00000000000E+00 -0.00000000000E+00 -0.88091346300E+02  0.88091346300E+02  0.00000000000E+00 0.  1.
         25    2    1    2    0    0 -0.20070553838E+03 -0.19606425054E+03  0.48161328741E+03  0.57124710318E+03  0.12509192942E+03 0.  0.
          5    1    3    3  502    0 -0.13522058593E+03 -0.13500071858E+03  0.20408733483E+03  0.27960492398E+03  0.41800000000E+01 0. -1.
         -5    1    3    3    0  502 -0.65484952457E+02 -0.61063531961E+02  0.27752595258E+03  0.29164217920E+03  0.41800000000E+01 0. -1.
        -11    1    1    2    0    0  0.84467143404E+02  0.14127465067E+03  0.28734396113E+03  0.33114917671E+03  0.00000000000E+00 0.  1.
         11    1    1    2    0    0  0.11623839498E+03  0.54789599879E+02  0.17179441015E+03  0.21453807140E+03  0.00000000000E+00 0. -1.
</event>
<event>
 7    1  0.2420569E-009  0.1384071E+03  0.7561462E-02  0.1215489E+00
         -1   -1    0    0    0  501 -0.00000000000E+00  0.00000000000E+00  0.11167669300E+03  0.11167669300E+03  0.00000000000E+00 0.  1.
          1   -1    0    0  501    0  0.00000000000E+00 -0.00000000000E+00 -0.19858448956E+03  0.19858448956E+03  0.00000000000E+00 0. -1.
         25    2    1    2    0    0  0.10341012790E+02 -0.10631457248E+03  0.56978102721E+01  0.16459179807E+03  0.12509304571E+03 0.  0.
          5    1    3    3  502    0  0.60030974173E+02 -0.96232548552E+02  0.10235414885E+01  0.11350304533E+03  0.41800000000E+01 0.  1.
         -5    1    3    3    0  502 -0.49689961382E+02 -0.10082023928E+02  0.46742687836E+01  0.51088752748E+02  0.41800000000E+01 0.  1.
        -11    1    1    2    0    0  0.13040296123E+02  0.32759865852E+02 -0.29549058112E+02  0.46004401625E+02  0.00000000000E+00 0.  1.
         11    1    1    2    0    0 -0.23381308913E+02  0.73554706629E+02 -0.63056548716E+02  0.99664982866E+02  0.00000000000E+00 0. -1.
</event>
<event>
 7    1  0.2420569E-009  0.1188995E+03  0.7561462E-02  0.1244924E+00
         -3   -1    0    0    0  501 -0.00000000000E+00  0.00000000000E+00  0.40354609530E+02  0.40354609530E+02  0.00000000000E+00 0.  1.
          3   -1    0    0  501    0  0.00000000000E+00 -0.00000000000E+00 -0.51934968189E+03  0.51934968189E+03  0.00000000000E+00 0. -1.
         25    2    1    2    0    0 -0.42702260677E+02  0.25072104880E+02 -0.10315880057E+03  0.16953722686E+03  0.12509612163E+03 0.  0.
          5    1    3    3  502    0 -0.67781673049E+01 -0.49958422901E+02 -0.47232431668E+02  0.69211000369E+02  0.41800000000E+01 0. -1.
         -5    1    3    3    0  502 -0.35924093373E+02  0.75030527781E+02 -0.55926368899E+02  0.10032622649E+03  0.41800000000E+01 0. -1.
        -11    1    1    2    0    0  0.63024480234E+02 -0.43423702597E+02 -0.25338588137E+03  0.26469247804E+03  0.00000000000E+00 0. -1.
         11    1    1    2    0    0 -0.20322219557E+02  0.18351597717E+02 -0.12245039043E+03  0.12547458652E+03  0.00000000000E+00 0.  1.
</event>
<event>
 7    1  0.2420569E-009  0.1040120E+03  0.7561462E-02  0.1272079E+00
          2   -1    0    0  501    0  0.00000000000E+00  0.00000000000E+00  0.90562649672E+03  0.90562649672E+03  0.00000000000E+00 0. -1.
         -2   -1    0    0    0  501 -0.00000000000E+00 -0.00000000000E+00 -0.25126221320E+02  0.25126221320E+02  0.00000000000E+00 0.  1.
         25    2    1    2    0    0  0.38130824153E+02 -0.64676960827E+01  0.76779170590E+03  0.77887633522E+03  0.12509376914E+03 0.  0.
          5    1    3    3  502    0 -0.13938666298E+02 -0.50798238037E+02  0.48650289432E+03  0.48936416500E+03  0.41800000000E+01 0.  1.
         -5    1    3    3    0  502  0.52069490450E+02  0.44330541954E+02  0.28128881158E+03  0.28951217022E+03  0.41800000000E+01 0.  1.
        -11    1    1    2    0    0 -0.58746677770E+02 -0.10857268856E+02  0.34111820822E+02  0.68794394799E+02  0.00000000000E+00 0.  1.
         11    1    1    2    0    0  0.20615853617E+02  0.17324964939E+02  0.78596748680E+02  0.83081988021E+02  0.00000000000E+00 0. -1.
</event>
<event>
 7    1  0.2420569E-009  0.7908203E+02  0.7561462E-02  0.1331677E+00
          2   -1    0    0  501    0  0.00000000000E+00  0.00000000000E+00  0.42365799268E+03  0.42365799268E+03  0.00000000000E+00 0.  1.
         -2   -1    0    0    0  501 -0.00000000000E+00 -0.00000000000E+00 -0.30638303158E+02  0.30638303158E+02  0.00000000000E+00 0. -1.
         25    2    1    2    0    0  0.48132398519E+01  0.41780757609E+02  0.19789542244E+03  0.23786632861E+03  0.12509593550E+03 0.  0.
          5    1    3    3  502    0  0.73654175708E+01 -0.10207620089E+02  0.18311715244E+03  0.18359686490E+03  0.41800000000E+01 0.  1.
         -5    1    3    3    0  502 -0.25521777189E+01  0.51988377697E+02  0.14778270001E+02  0.54269463706E+02  0.41800000000E+01 0.  1.
        -11    1    1    2    0    0 -0.23247253931E+02  0.18459297356E+02  0.77637963597E+02  0.83119395244E+02  0.00000000000E+00 0.  1.
         11    1    1    2    0    0  0.18434014079E+02 -0.60240054964E+02  0.11748630349E+03  0.13331057199E+03  0.00000000000E+00 0. -1.
</event>
<event>
 7    1  0.2420569E-009  0.1284439E+03  0.7561462E-02  0.1229783E+00
          2   -1    0    0  501    0  0.00000000000E+00  0.00000000000E+00  0.21292658743E+03  0.21292658743E+03  0.00000000000E+00 0. -1.
         -2   -1    0    0    0  501 -0.00000000000E+00 -0.00000000000E+00 -0.10209834477E+03  0.10209834477E+03  0.00000000000E+00 0.  1.
         25    2    1    2    0    0 -0.71045498298E+02 -0.73439818760E+02  0.80016220856E+02  0.18025321213E+03  0.12509098719E+03 0.  0.
          5    1    3    3  502    0 -0.10528851532E+02 -0.74489528748E+02  0.91475363406E+02  0.11851059496E+03  0.41800000000E+01 0.  1.
         -5    1    3    3    0  502 -0.60516646767E+02  0.10497099888E+01 -0.11459142550E+02  0.61742617169E+02  0.41800000000E+01 0.  1.
        -11    1    1    2    0    0 -0.94031073229E+01  0.25603313834E+02 -0.14382304633E+02  0.30835025429E+02  0.00000000000E+00 0.  1.
         11    1    1    2    0    0  0.80448605621E+02  0.47836504925E+02  0.45194326439E+02  0.10393669464E+03  0.00000000000E+00 0. -1.
</event>
<event>
 7    1  0.2420569E-009  0.7598566E+02  0.7561462E-02  0.1340846E+00
         -3   -1    0    0    0  501 -0.00000000000E+00  0.00000000000E+00  0.35495055745E+02  0.35495055745E+02  0.00000000000E+00 0.  1.
          3   -1    0    0  501    0  0.00000000000E+00 -0.00000000000E+00 -0.35246498021E+03  0.35246498021E+03  0.00000000000E+00 0. -1.
         25    2    1    2    0    0 -0.13389752184E-01 -0.24355946365E+02 -0.16125218911E+03  0.20552363211E+03  0.12507790596E+03 0.  0.
          5    1    3    3  502    0  0.22051327109E+02  0.47033005207E+01  0.13730884749E+02  0.26728106163E+02  0.41800000000E+01 0. -1.
         -5    1    3    3    0  502 -0.22064716862E+02 -0.29059246885E+02 -0.17498307386E+03  0.17879552594E+03  0.41800000000E+01 0. -1.
        -11    1    1    2    0    0 -0.34903330147E+02  0.40822483634E+02 -0.68413265920E+02  0.86977540659E+02  0.00000000000E+00 0. -1.
         11    1    1    2    0    0  0.34916719899E+02 -0.16466537269E+02 -0.87304469433E+02  0.95458863188E+02  0.00000000000E+00 0.  1.
</event>
<event>
 7    1  0.2420569E-009  0.8812535E+02  0.7561462E-02  0.1307456E+00
         -2   -1    0    0    0  501 -0.00000000000E+00  0.00000000000E+00  0.99060493227E+02  0.99060493227E+02  0.00000000000E+00 0.  1.
          2   -1    0    0  501    0  0.00000000000E+00 -0.00000000000E+00 -0.13074947086E+03  0.13074947086E+03  0.00000000000E+00 0. -1.
         25    2    1    2    0    0 -0.39723512782E+02  0.18847993725E+02 -0.21441877239E+02  0.13432042653E+03  0.12509603731E+03 0.  0.
          5    1    3    3  502    0 -0.83590147879E+02  0.17781245493E+02 -0.27396756107E+02  0.89841750645E+02  0.41800000000E+01 0.  1.
         -5    1    3    3    0  502  0.43866635097E+02  0.10667482321E+01  0.59548788684E+01  0.44478675889E+02  0.41800000000E+01 0.  1.
        -11    1    1    2    0    0  0.27726831822E+02 -0.20524157656E+02  0.34705474586E+02  0.48933508117E+02  0.00000000000E+00 0.  1.
         11    1    1    2    0    0  0.11996680960E+02  0.16761639314E+01 -0.44952574977E+02  0.46556029434E+02  0.00000000000E+00 0. -1.
</event>
<event>
 7    1  0.2420569E-009  0.8910604E+02  0.7561462E-02  0.1305031E+00
          2   -1    0    0  501    0  0.00000000000E+00  0.00000000000E+00  0.16228436531E+03  0.16228436531E+03  0.00000000000E+00 0. -1.
         -2   -1    0    0    0  501 -0.00000000000E+00 -0.00000000000E+00 -0.79530032486E+02  0.79530032486E+02  0.00000000000E+00 0.  1.
         25    2    1    2    0    0  0.19487852934E+01 -0.28458850814E+02  0.64584752831E+02  0.14363894361E+03  0.12508897581E+03 0.  0.
          5    1    3    3  502    0  0.54949448934E+01  0.42273472703E+02 -0.63658584164E+01  0.43304012136E+02  0.41800000000E+01 0.  1.
         -5    1    3    3    0  502 -0.35461596000E+01 -0.70732323517E+02  0.70950611247E+02  0.10033493148E+03  0.41800000000E+01 0.  1.
        -11    1    1    2    0    0 -0.22365570562E+02 -0.70702899869E+01 -0.27945182234E+02  0.36484804469E+02  0.00000000000E+00 0.  1.
         11    1    1    2    0    0  0.20416785268E+02  0.35529140801E+02  0.46114762223E+02  0.61690649710E+02  0.00000000000E+00 0. -1.
</event>
<event>
 7    1  0.2420569E-009  0.4316380E+03  0.7561462E-02  0.1033344E+00
          2   -1    0    0  501    0  0.00000000000E+00  0.00000000000E+00  0.15099080519E+03  0.15099080519E+03  0.00000000000E+00 0. -1.
         -2   -1    0    0    0  501 -0.00000000000E+00 -0.00000000000E+00 -0.12782745700E+04  0.12782745700E+04  0.00000000000E+00 0.  1.
         25    2    1    2    0    0 -0.32219097592E+03  0.27434699872E+03 -0.50166163060E+03  0.66812070884E+03  0.12509032450E+03 0.  0.
          5    1    3    3  502    0 -0.17732113127E+03  0.20138721013E+03 -0.38050623041E+03  0.46562007665E+03  0.41800000000E+01 0.  1.
         -5    1    3    3    0  502 -0.14486984465E+03  0.72959788599E+02 -0.12115540020E+03  0.20250063219E+03  0.41800000000E+01 0.  1.
        -11    1    1    2    0    0  0.56320258914E+02 -0.99847899838E+02 -0.14517741009E+03  0.18498122896E+03  0.00000000000E+00 0.  1.
         11    1    1    2    0    0  0.26587071700E+03 -0.17449909889E+03 -0.48044472412E+03  0.57616343741E+03  0.00000000000E+00 0. -1.
</event>
<event>
 7    1  0.2420569E-009  0.7238755E+02  0.7561462E-02  0.1352157E+00
         -1   -1    0    0    0  501 -0.00000000000E+00  0.00000000000E+00  0.14924131461E+02  0.14924131461E+02  0.00000000000E+00 0.  1.
          1   -1    0    0  501    0  0.00000000000E+00 -0.00000000000E+00 -0.10155317409E+04  0.10155317409E+04  0.00000000000E+00 0. -1.
         25    2    1    2    0    0  0.12512437492E+02 -0.37686186149E+02 -0.73980479699E+03  0.75135576553E+03  0.12509012362E+03 0.  0.
          5    1    3    3  502    0  0.14080979460E+02 -0.10392404809E+02 -0.91649846539E+01  0.20192706703E+02  0.41800000000E+01 0.  1.
         -5    1    3    3    0  502 -0.15685419687E+01 -0.27293781340E+02 -0.73063981233E+03  0.73116305883E+03  0.41800000000E+01 0.  1.
        -11    1    1    2    0    0 -0.48752904128E+02  0.39637027320E+02 -0.15528826032E+03  0.16751830763E+03  0.00000000000E+00 0.  1.
         11    1    1    2    0    0  0.36240466636E+02 -0.19508411702E+01 -0.10551455210E+03  0.11158179918E+03  0.00000000000E+00 0. -1.
</event>
<event>
 7    1  0.2420569E-009  0.1243860E+03  0.7561462E-02  0.1236032E+00
         -1   -1    0    0    0  501 -0.00000000000E+00  0.00000000000E+00  0.73479524458E+02  0.73479524458E+02  0.00000000000E+00 0. -1.
          1   -1    0    0  501    0  0.00000000000E+00 -0.00000000000E+00 -0.24398470551E+03  0.24398470551E+03  0.00000000000E+00 0.  1.
         25    2    1    2    0    0 -0.65088718827E+02  0.42791729163E+02 -0.13788730474E+03  0.20181686793E+03  0.12509782560E+03 0.  0.
          5    1    3    3  502    0  0.28884758642E+02  0.31758275061E+02 -0.79802815370E+02  0.90713169152E+02  0.41800000000E+01 0.  1.
         -5    1    3    3    0  502 -0.93973477468E+02  0.11033454102E+02 -0.58084489374E+02  0.11110369878E+03  0.41800000000E+01 0.  1.
        -11    1    1    2    0    0  0.79668224879E+02 -0.17243441339E+02 -0.25018778315E+02  0.85266063548E+02  0.00000000000E+00 0.  1.
         11    1    1    2    0    0 -0.14579506052E+02 -0.25548287823E+02 -0.75990979919E+01  0.30381298486E+02  0.00000000000E+00 0. -1.
</event>
<event>
 7    1  0.2420569E-009  0.8207013E+02  0.7561462E-02  0.1323277E+00
          2   -1    0    0  501    0  0.00000000000E+00  0.00000000000E+00  0.21051193954E+02  0.21051193954E+02  0.00000000000E+00 0. -1.
         -2   -1    0    0    0  501 -0.00000000000E+00 -0.00000000000E+00 -0.59958133411E+03  0.59958133411E+03  0.00000000000E+00 0.  1.
         25    2    1    2    0    0 -0.16004236499E+02  0.24039431032E+02 -0.33900803396E+03  0.36250318455E+03  0.12509229348E+03 0.  0.
          5    1    3    3  502    0  0.23149130830E+02 -0.17339913702E+02 -0.27566335352E+03  0.27720806579E+03  0.41800000000E+01 0. -1.
         -5    1    3    3    0  502 -0.39153367328E+02  0.41379344734E+02 -0.63344680442E+02  0.85295118758E+02  0.41800000000E+01 0. -1.
        -11    1    1    2    0    0  0.44986201194E+02 -0.15521916864E+02 -0.21196188209E+03  0.21723841203E+03  0.00000000000E+00 0.  1.
         11    1    1    2    0    0 -0.28981964696E+02 -0.85175141673E+01 -0.27560224104E+02  0.40890931487E+02  0.00000000000E+00 0. -1.
</event>
<event>
 7    1  0.2420569E-009  0.8458301E+02  0.7561462E-02  0.1316527E+00
         -1   -1    0    0    0  501 -0.00000000000E+00  0.00000000000E+00  0.64855804407E+03  0.64855804407E+03  0.00000000000E+00 0.  1.
          1   -1    0    0  501    0  0.00000000000E+00 -0.00000000000E+00 -0.20071225204E+02  0.20071225204E+02  0.00000000000E+00 0. -1.
         25    2    1    2    0    0  0.24672830315E+02 -0.94757158317E+01  0.41608010684E+03  0.43528025460E+03  0.12509079497E+03 0.  0.
          5    1    3    3  502    0 -0.26705101870E+02 -0.11138250725E+02  0.35112485871E+03  0.35233983865E+03  0.41800000000E+01 0.  1.
         -5    1    3    3    0  502  0.51377932185E+02  0.16625348936E+01  0.64955248134E+02  0.82940415950E+02  0.41800000000E+01 0.  1.
        -11    1    1    2    0    0  0.27814347309E+02 -0.13670377844E+02  0.12511008817E+03  0.12889162622E+03  0.00000000000E+00 0.  1.
         11    1    1    2    0    0 -0.52487177624E+02  0.23146093676E+02  0.87296623844E+02  0.10445738845E+03  0.00000000000E+00 0. -1.
</event>
<event>
 7    1  0.2420569E-009  0.9959904E+02  0.7561462E-02  0.1281141E+00
         -3   -1    0    0    0  501 -0.00000000000E+00  0.00000000000E+00  0.48062731043E+02  0.48062731043E+02  0.00000000000E+00 0.  1.
          3   -1    0    0  501    0  0.00000000000E+00 -0.00000000000E+00 -0.33453545446E+03  0.33453545446E+03  0.00000000000E+00 0. -1.
         25    2    1    2    0    0 -0.28601397289E+02  0.59743983537E+02 -0.15340091261E+03  0.20872564252E+03  0.12508865001E+03 0.  0.
          5    1    3    3  502    0 -0.43895459538E+02  0.81175076930E+02 -0.15666055874E+03  0.18186865466E+03  0.41800000000E+01 0. -1.
         -5    1    3    3    0  502  0.15294062249E+02 -0.21431093394E+02  0.32596461293E+01  0.26856987862E+02  0.41800000000E+01 0. -1.
        -11    1    1    2    0    0 -0.45941757325E+01 -0.42512956385E+02 -0.82256835343E+01  0.43544457522E+02  0.00000000000E+00 0.  1.
         11    1    1    2    0    0  0.33195573021E+02 -0.17231027152E+02 -0.12484612727E+03  0.13032808546E+03  0.00000000000E+00 0. -1.
</event>
<event>
 7    1  0.2420569E-009  0.1792374E+03  0.7561462E-02  0.1168543E+00
         -1   -1    0    0    0  501 -0.00000000000E+00  0.00000000000E+00  0.86669231089E+02  0.86669231089E+02  0.00000000000E+00 0.  1.
          1   -1    0    0  501    0  0.00000000000E+00 -0.00000000000E+00 -0.41308615523E+03  0.41308615523E+03  0.00000000000E+00 0. -1.
         25    2    1    2    0    0  0.11115159007E+03 -0.10674774362E+03 -0.15956223478E+03  0.25467027997E+03  0.12508832074E+03 0.  0.
          5    1    3    3  502    0  0.12219455723E+03 -0.50956632797E+02 -0.73662226266E+02  0.15156412577E+03  0.41800000000E+01 0.  1.
         -5    1    3    3    0  502 -0.11042967154E+02 -0.55791110822E+02 -0.85900008517E+02  0.10310615420E+03  0.41800000000E+01 0.  1.
        -11    1    1    2    0    0 -0.94067096550E+02  0.11616867381E+03 -0.11176246289E+03  0.18664036953E+03  0.00000000000E+00 0.  1.
         11    1    1    2    0    0 -0.17084493521E+02 -0.94209301920E+01 -0.55092226466E+02  0.58444736816E+02  0.00000000000E+00 0. -1.
</event>
<event>
 7    1  0.2420569E-009  0.2249612E+03  0.7561462E-02  0.1130237E+00
          1   -1    0    0  501    0  0.00000000000E+00  0.00000000000E+00  0.98001364597E+03  0.98001364597E+03  0.00000000000E+00 0. -1.
         -1   -1    0    0    0  501 -0.00000000000E+00 -0.00000000000E+00 -0.60951244461E+02  0.60951244461E+02  0.00000000000E+00 0.  1.
         25    2    1    2    0    0 -0.55020049453E+02  0.20796682758E+03  0.39604712859E+03  0.46773707520E+03  0.12508891334E+03 0.  0.
          5    1    3    3  502    0 -0.11438639466E+02  0.57049589719E+02  0.22571322457E+02  0.62549461687E+02  0.41800000000E+01 0.  1.
         -5    1    3    3    0  502 -0.43581409988E+02  0.15091723786E+03  0.37347580613E+03  0.40518761351E+03  0.41800000000E+01 0.  1.
        -11    1    1    2    0    0 -0.25989822927E+02 -0.66961829133E+02  0.17041790863E+03  0.18493680282E+03  0.00000000000E+00 0. -1.
         11    1    1    2    0    0  0.81009872380E+02 -0.14100499845E+03  0.35259736430E+03  0.38829101241E+03  0.00000000000E+00 0.  1.
</event>
<event>
 7    1  0.2420569E-009  0.8714312E+02  0.7561462E-02  0.1309921E+00
         -2   -1    0    0    0  501 -0.00000000000E+00  0.00000000000E+00  0.30035407363E+02  0.30035407363E+02  0.00000000000E+00 0.  1.
          2   -1    0    0  501    0  0.00000000000E+00 -0.00000000000E+00 -0.50355665254E+03  0.50355665254E+03  0.00000000000E+00 0. -1.
         25    2    1    2    0    0 -0.25825056198E+02  0.48491218082E+02 -0.18447983573E+03  0.22956771309E+03  0.12510073278E+03 0.  0.
          5    1    3    3  502    0  0.97727981690E+01 -0.13707623598E+02  0.11528224736E+02  0.20827359274E+02  0.41800000000E+01 0.  1.
         -5    1    3    3    0  502 -0.35597854367E+02  0.62198841680E+02 -0.19600806047E+03  0.20874035381E+03  0.41800000000E+01 0.  1.
        -11    1    1    2    0    0  0.18330440200E+01 -0.58951650349E+02 -0.25108172050E+03  0.25791604739E+03  0.00000000000E+00 0. -1.
         11    1    1    2    0    0  0.23992012178E+02  0.10460432267E+02 -0.37959688943E+02  0.46108299428E+02  0.00000000000E+00 0.  1.
</event>
<event>
 7    1  0.2420569E-009  0.2403409E+03  0.7561462E-02  0.1119566E+00
         -2   -1    0    0    0  501 -0.00000000000E+00  0.00000000000E+00  0.96235058239E+02  0.96235058239E+02  0.00000000000E+00 0.  1.
          2   -1    0    0  501    0  0.00000000000E+00 -0.00000000000E+00 -0.12392996938E+04  0.12392996938E+04  0.00000000000E+00 0. -1.
         25    2    1    2    0    0 -0.18833368591E+03 -0.10678912107E+03 -0.10501051066E+03  0.27119579405E+03  0.12508580149E+03 0.  0.
          5    1    3    3  502    0  0.15721717680E+02 -0.19416759908E+02  0.61100695069E+00  0.25338285294E+02  0.41800000000E+01 0. -1.
         -5    1    3    3    0  502 -0.20405540359E+03 -0.87372361165E+02 -0.10562151761E+03  0.24585750875E+03  0.41800000000E+01 0. -1.
        -11    1    1    2    0    0  0.53564611762E+02  0.79455043495E+02 -0.36406868257E+03  0.37646816227E+03  0.00000000000E+00 0. -1.
         11    1    1    2    0    0  0.13476907414E+03  0.27334077578E+02 -0.67398544231E+03  0.68787079571E+03  0.00000000000E+00 0.  1.
</event>
<event>
 7    1  0.2420569E-009  0.9905003E+02  0.7561462E-02  0.1282306E+00
         -2   -1    0    0    0  501 -0.00000000000E+00  0.00000000000E+00  0.92019519721E+02  0.92019519721E+02  0.00000000000E+00 0. -1.
          2   -1    0    0  501    0  0.00000000000E+00 -0.00000000000E+00 -0.13083751611E+03  0.13083751611E+03  0.00000000000E+00 0.  1.
         25    2    1    2    0    0 -0.13800343526E+02  0.42568171198E+01 -0.14302537684E+02  0.12672962794E+03  0.12508903245E+03 0.  0.
          5    1    3    3  502    0  0.44088618310E+02 -0.13949467425E+02 -0.39431125860E+02  0.60915351042E+02  0.41800000000E+01 0. -1.
         -5    1    3    3    0  502 -0.57888961836E+02  0.18206284545E+02  0.25128588176E+02  0.65814276894E+02  0.41800000000E+01 0. -1.
        -11    1    1    2    0    0 -0.31513142399E+02  0.22034121340E+02 -0.20525227581E+02  0.43587447899E+02  0.00000000000E+00 0. -1.
         11    1    1    2    0    0  0.45313485926E+02 -0.26290938459E+02 -0.39902311211E+01  0.52539959994E+02  0.00000000000E+00 0.  1.
</event>
<event>
 7    1  0.2420569E-009  0.1282113E+03  0.7561462E-02  0.1230134E+00
          2   -1    0    0  501    0  0.00000000000E+00  0.00000000000E+00  0.37533470371E+03  0.37533470371E+03  0.00000000000E+00 0. -1.
         -2   -1    0    0    0  501 -0.00000000000E+00 -0.00000000000E+00 -0.63105523489E+02  0.63105523489E+02  0.00000000000E+00 0.  1.
         25    2    1    2    0    0  0.50582680904E+02  0.83785498992E+02  0.10145151635E+03  0.18846799390E+03  0.12509659110E+03 0.  0.
          5    1    3    3  502    0 -0.21015702399E+02  0.57094070783E+02  0.93364432543E+02  0.11151583892E+03  0.41800000000E+01 0. -1.
         -5    1    3    3    0  502  0.71598383302E+02  0.26691428209E+02  0.80870838044E+01  0.76952154978E+02  0.41800000000E+01 0. -1.
        -11    1    1    2    0    0 -0.58756190011E+02 -0.32827414287E+02  0.58460131667E+02  0.89148841765E+02  0.00000000000E+00 0.  1.
         11    1    1    2    0    0  0.81735091075E+01 -0.50958084704E+02  0.15231753220E+03  0.16082339153E+03  0.00000000000E+00 0. -1.
</event>
<event>
 7    1  0.2420569E-009  0.1604429E+03  0.7561462E-02  0.1188198E+00
         -2   -1    0    0    0  501 -0.00000000000E+00  0.00000000000E+00  0.50601284946E+03  0.50601284946E+03  0.00000000000E+00 0.  1.
          2   -1    0    0  501    0  0.00000000000E+00 -0.00000000000E+00 -0.99492029283E+02  0.99492029283E+02  0.00000000000E+00 0. -1.
         25    2    1    2    0    0  0.10969419618E+02  0.13814375532E+03  0.39733397382E+03  0.43900515808E+03  0.12508883553E+03 0.  0.
          5    1    3    3  502    0 -0.34945895321E+02  0.95581110476E+02  0.13410136407E+03  0.16839718681E+03  0.41800000000E+01 0.  1.
         -5    1    3    3    0  502  0.45915314939E+02  0.42562644839E+02  0.26323260975E+03  0.27060797128E+03  0.41800000000E+01 0.  1.
        -11    1    1    2    0    0 -0.38797300295E+02 -0.11027005585E+03  0.31719053625E+02  0.12112313607E+03  0.00000000000E+00 0.  1.
         11    1    1    2    0    0  0.27827880677E+02 -0.27873699461E+02 -0.22532207269E+02  0.45376584590E+02  0.00000000000E+00 0. -1.
</event>
<event>
 7    1  0.2420569E-009  0.1446491E+03  0.7561462E-02  0.1207207E+00
          2   -1    0    0  501    0  0.00000000000E+00  0.00000000000E+00  0.27924618393E+03  0.27924618393E+03  0.00000000000E+00 0. -1.
         -2   -1    0    0    0  501 -0.00000000000E+00 -0.00000000000E+00 -0.82087587791E+02  0.82087587791E+02  0.00000000000E+00 0.  1.
         25    2    1    2    0    0 -0.94907439719E+02  0.50795219111E+02  0.84815922706E+02  0.18554776302E+03  0.12508659088E+03 0.  0.
          5    1    3    3  502    0 -0.20185949852E+02  0.74599014370E+02  0.72513249811E+02  0.10605719832E+03  0.41800000000E+01 0. -1.
         -5    1    3    3    0  502 -0.74721489867E+02 -0.23803795260E+02  0.12302672895E+02  0.79490564705E+02  0.41800000000E+01 0. -1.
        -11    1    1    2    0    0  0.86404091948E+02 -0.47368110196E+01  0.58654619002E+02  0.10453931707E+03  0.00000000000E+00 0. -1.
         11    1    1    2    0    0  0.85033477705E+01 -0.46058408091E+02  0.53688054429E+02  0.71246691625E+02  0.00000000000E+00 0.  1.
</event>
<event>
 7    1  0.2420569E-009  0.9991965E+02  0.7561462E-02  0.1280465E+00
          2   -1    0    0  501    0  0.00000000000E+00  0.00000000000E+00  0.59099869418E+03  0.59099869418E+03  0.00000000000E+00 0. -1.
         -2   -1    0    0    0  501 -0.00000000000E+00 -0.00000000000E+00 -0.23623523354E+02  0.23623523354E+02  0.00000000000E+00 0.  1.
         25    2    1    2    0    0  0.30963419327E+02 -0.25281821135E+02  0.24981485282E+03  0.28222696192E+03  0.12508674400E+03 0.  0.
          5    1    3    3  502    0 -0.40443009218E+02 -0.25639693512E+02  0.47243738880E+02  0.67397879353E+02  0.41800000000E+01 0.  1.
         -5    1    3    3    0  502  0.71406428545E+02  0.35787237724E+00  0.20257111394E+03  0.21482908256E+03  0.41800000000E+01 0.  1.
        -11    1    1    2    0    0  0.14050586131E+02  0.31793174226E+02  0.49390255133E+02  0.60395547850E+02  0.00000000000E+00 0.  1.
         11    1    1    2    0    0 -0.45014005458E+02 -0.65113530911E+01  0.26817006287E+03  0.27199970777E+03  0.00000000000E+00 0. -1.
</event>
<event>
 7    1  0.2420569E-009  0.1010440E+03  0.7561462E-02  0.1278116E+00
          2   -1    0    0  501    0  0.00000000000E+00  0.00000000000E+00  0.57763868597E+03  0.57763868597E+03  0.00000000000E+00 0. -1.
         -2   -1    0    0    0  501 -0.00000000000E+00 -0.00000000000E+00 -0.48735358434E+02  0.48735358434E+02  0.00000000000E+00 0.  1.
         25    2    1    2    0    0 -0.10065607176E+02 -0.77214108280E+02  0.92291413342E+02  0.17387033724E+03  0.12509937742E+03 0.  0.
          5    1    3    3  502    0 -0.32878039657E+02 -0.56625931767E+02 -0.10549979830E+02  0.66454767433E+02  0.41800000000E+01 0. -1.
         -5    1    3    3    0  502  0.22812432481E+02 -0.20588176513E+02  0.10284139317E+03  0.10741556981E+03  0.41800000000E+01 0. -1.
        -11    1    1    2    0    0 -0.60743768736E+01 -0.12718356529E+02  0.13081382005E+02  0.19229591841E+02  0.00000000000E+00 0.  1.
         11    1    1    2    0    0  0.16139984050E+02  0.89932464809E+02  0.42353053219E+03  0.43327411533E+03  0.00000000000E+00 0. -1.
</event>
<event>
 7    1  0.2420569E-009  0.1511564E+03  0.7561462E-02  0.1199059E+00
          1   -1    0    0  501    0  0.00000000000E+00  0.00000000000E+00  0.10105674412E+04  0.10105674412E+04  0.00000000000E+00 0. -1.
         -1   -1    0    0    0  501 -0.00000000000E+00 -0.00000000000E+00 -0.35799098010E+02  0.35799098010E+02  0.00000000000E+00 0.  1.
         25    2    1    2    0    0 -0.19241205140E+02 -0.12329644251E+03  0.76908404595E+03  0.78911978558E+03  0.12509008575E+03 0.  0.
          5    1    3    3  502    0 -0.35193730964E+02 -0.11307563339E+02  0.43071598888E+03  0.43231955214E+03  0.41800000000E+01 0.  1.
         -5    1    3    3    0  502  0.15952525824E+02 -0.11198887917E+03  0.33836805707E+03  0.35680023344E+03  0.41800000000E+01 0.  1.
        -11    1    1    2    0    0  0.53856114415E+02  0.69123400080E+02  0.14127451137E+03  0.16624383616E+03  0.00000000000E+00 0.  1.
         11    1    1    2    0    0 -0.34614909275E+02  0.54173042429E+02  0.64409785843E+02  0.91002917439E+02  0.00000000000E+00 0. -1.
</event>
<event>
 7    1  0.2420569E-009  0.1023719E+03  0.7561462E-02  0.1275386E+00
         -1   -1    0    0    0  501 -0.00000000000E+00  0.00000000000E+00  0.16424110839E+03  0.16424110839E+03  0.00000000000E+00 0.  1.
          1   -1    0    0  501    0  0.00000000000E+00 -0.00000000000E+00 -0.87503571012E+02  0.87503571012E+02  0.00000000000E+00 0. -1.
         25    2    1    2    0    0  0.12935776416E+02  0.40336277516E+02  0.73042935022E+02  0.15092065318E+03  0.12508966226E+03 0.  0.
          5    1    3    3  502    0  0.51354259885E+02 -0.11366497263E+02 -0.89497221893E+00  0.52770547123E+02  0.41800000000E+01 0. -1.
         -5    1    3    3    0  502 -0.38418483469E+02  0.51702774779E+02  0.73937907241E+02  0.98150106057E+02  0.41800000000E+01 0. -1.
        -11    1    1    2    0    0  0.40349850236E+01 -0.60750528505E+02 -0.21161222592E+02  0.64457002408E+02  0.00000000000E+00 0. -1.
         11    1    1    2    0    0 -0.16970761440E+02  0.20414250989E+02  0.24855824951E+02  0.36367023817E+02  0.00000000000E+00 0.  1.
</event>
<event>
 7    1  0.2420569E-009  0.1162301E+03  0.7561462E-02  0.1249449E+00
         -1   -1    0    0    0  501 -0.00000000000E+00  0.00000000000E+00  0.25580510091E+03  0.25580510091E+03  0.00000000000E+00 0.  1.
          1   -1    0    0  501    0  0.00000000000E+00 -0.00000000000E+00 -0.58325197493E+02  0.58325197493E+02  0.00000000000E+00 0. -1.
         25    2    1    2    0    0 -0.47761091552E+02 -0.33511612564E+02  0.12084188372E+03  0.18346036329E+03  0.12510313343E+03 0.  0.
          5    1    3    3  502    0 -0.50994577722E+02  0.33019455719E+02  0.23149581968E+02  0.65146810807E+02  0.41800000000E+01 0.  1.
         -5    1    3    3    0  502  0.32334861693E+01 -0.66531068282E+02  0.97692301749E+02  0.11831355248E+03  0.41800000000E+01 0.  1.
        -11    1    1    2    0    0  0.13943423101E+02  0.60169048289E+02  0.53894619302E+02  0.81971723231E+02  0.00000000000E+00 0.  1.
         11    1    1    2    0    0  0.33817668452E+02 -0.26657435725E+02  0.22743400394E+02  0.48698211881E+02  0.00000000000E+00 0. -1.
</event>
<event>
 7    1  0.2420569E-009  0.1094626E+03  0.7561462E-02  0.1261568E+00
         -1   -1    0    0    0  501 -0.00000000000E+00  0.00000000000E+00  0.19532637433E+03  0.19532637433E+03  0.00000000000E+00 0.  1.
          1   -1    0    0  501    0  0.00000000000E+00 -0.00000000000E+00 -0.80307206160E+02  0.80307206160E+02  0.00000000000E+00 0. -1.
         25    2    1    2    0    0 -0.27758172803E+01  0.18640378519E+02  0.13006239496E+03  0.18143305553E+03  0.12508620302E+03 0.  0.
          5    1    3    3  502    0 -0.42318812839E+02  0.56802977114E+02  0.65759011471E+02  0.96742855647E+02  0.41800000000E+01 0. -1.
         -5    1    3    3    0  502  0.39542995558E+02 -0.38162598595E+02  0.64303383485E+02  0.84690199887E+02  0.41800000000E+01 0. -1.
        -11    1    1    2    0    0 -0.40607339838E+02 -0.26877018863E+02 -0.10442480642E+02  0.49803369300E+02  0.00000000000E+00 0.  1.
         11    1    1    2    0    0  0.43383157118E+02  0.82366403440E+01 -0.46007461398E+01  0.44397155660E+02  0.00000000000E+00 0. -1.
</event>
<event>
 7    1  0.2420569E-009  0.2187340E+03  0.7561462E-02  0.1134830E+00
         -2   -1    0    0    0  501 -0.00000000000E+00  0.00000000000E+00  0.12263496635E+03  0.12263496635E+03  0.00000000000E+00 0.  1.
          2   -1    0    0  501    0  0.00000000000E+00 -0.00000000000E+00 -0.43184844283E+03  0.43184844283E+03  0.00000000000E+00 0. -1.
         25    2    1    2    0    0 -0.19000569050E+03  0.13594861525E+02 -0.24644684567E+03  0.33566435459E+03  0.12509008161E+03 0.  0.
          5    1    3    3  502    0 -0.26281070692E+02 -0.46346095203E+02 -0.60704462454E+02  0.80877434301E+02  0.41800000000E+01 0. -1.
         -5    1    3    3    0  502 -0.16372461981E+03  0.59940956729E+02 -0.18574238322E+03  0.25478692028E+03  0.41800000000E+01 0. -1.
        -11    1    1    2    0    0  0.96755006197E+02  0.36931306468E+02 -0.31287743946E+02  0.10818676233E+03  0.00000000000E+00 0.  1.
         11    1    1    2    0    0  0.93250684303E+02 -0.50526167993E+02 -0.31478886855E+02  0.11063229227E+03  0.00000000000E+00 0. -1.
</event>
<event>
 7    1  0.2420569E-009  0.4957828E+02  0.7561462E-02  0.1447630E+00
         -2   -1    0    0    0  501 -0.00000000000E+00  0.00000000000E+00  0.66564255153E+02  0.66564255153E+02  0.00000000000E+00 0.  1.
          2   -1    0    0  501    0  0.00000000000E+00 -0.00000000000E+00 -0.18266029649E+03  0.18266029649E+03  0.00000000000E+00 0. -1.
         25    2    1    2    0    0  0.53466101989E+00  0.14119812225E+01 -0.52133553865E+02  0.13552745291E+03  0.12508998161E+03 0.  0.
          5    1    3    3  502    0 -0.18847973256E+02  0.49633727369E+01 -0.90244826701E+02  0.92420140181E+02  0.41800000000E+01 0.  1.
         -5    1    3    3    0  502  0.19382634276E+02 -0.35513915144E+01  0.38111272836E+02  0.43107312725E+02  0.41800000000E+01 0.  1.
        -11    1    1    2    0    0 -0.14570961838E+02  0.25133101662E+02  0.12442154580E+02  0.31603685523E+02  0.00000000000E+00 0.  1.
         11    1    1    2    0    0  0.14036300818E+02 -0.26545082885E+02 -0.76404642047E+02  0.82093413209E+02  0.00000000000E+00 0. -1.
</event>
<event>
 7    1  0.2420569E-009  0.8276366E+02  0.7561462E-02  0.1321387E+00
         -3   -1    0    0    0  501 -0.00000000000E+00  0.00000000000E+00  0.14835202746E+03  0.14835202746E+03  0.00000000000E+00 0.  1.
          3   -1    0    0  501    0  0.00000000000E+00 -0.00000000000E+00 -0.12450140646E+03  0.12450140646E+03  0.00000000000E+00 0. -1.
         25    2    1    2    0    0 -0.68642955821E+02 -0.33877563773E+02  0.34820982851E+02  0.15072870081E+03  0.12508835153E+03 0.  0.
          5    1    3    3  502    0 -0.59335245031E+02 -0.24845468551E+02  0.80460324451E+02  0.10309851998E+03  0.41800000000E+01 0.  1.
         -5    1    3    3    0  502 -0.93077107900E+01 -0.90320952221E+01 -0.45639341600E+02  0.47630180830E+02  0.41800000000E+01 0.  1.
        -11    1    1    2    0    0  0.50803016801E+01 -0.93000099609E+01  0.32261395368E+02  0.33957286133E+02  0.00000000000E+00 0.  1.
         11    1    1    2    0    0  0.63562654141E+02  0.43177573734E+02 -0.43231757219E+02  0.88167446982E+02  0.00000000000E+00 0. -1.
</event>
<event>
 7    1  0.2420569E-009  0.1457556E+03  0.7561462E-02  0.1205788E+00
         -1   -1    0    0    0  501 -0.00000000000E+00  0.00000000000E+00  0.16008254469E+02  0.16008254469E+02  0.00000000000E+00 0.  1.
          1   -1    0    0  501    0  0.00000000000E+00 -0.00000000000E+00 -0.15194652145E+04  0.15194652145E+04  0.00000000000E+00 0. -1.
         25    2    1    2    0    0  0.18056344171E+02 -0.10940617330E+03 -0.98374816073E+03  0.99784905557E+03  0.12508617685E+03 0.  0.
          5    1    3    3  502    0 -0.47803868271E+02 -0.72032583772E+02 -0.40445052731E+03  0.41360803231E+03  0.41800000000E+01 0.  1.
         -5    1    3    3    0  502  0.65860212442E+02 -0.37373589533E+02 -0.57929763342E+03  0.58424102326E+03  0.41800000000E+01 0.  1.
        -11    1    1    2    0    0 -0.17493715199E+02 -0.20916752125E+01 -0.25503178684E+02  0.30997053080E+02  0.00000000000E+00 0.  1.
         11    1    1    2    0    0 -0.56262897199E+00  0.11149784852E+03 -0.49420562063E+03  0.50662736033E+03  0.00000000000E+00 0. -1.
</event>
<event>
 7    1  0.2420569E-009  0.1830720E+03  0.7561462E-02  0.1164863E+00
          1   -1    0    0  501    0  0.00000000000E+00  0.00000000000E+00  0.91301214518E+03  0.91301214518E+03  0.00000000000E+00 0. -1.
         -1   -1    0    0    0  501 -0.00000000000E+00 -0.00000000000E+00 -0.48971893626E+02  0.48971893626E+02  0.00000000000E+00 0.  1.
         25    2    1    2    0    0  0.17634292287E+03  0.34388670041E+02  0.40924058789E+03  0.46411803252E+03  0.12509309437E+03 0.  0.
          5    1    3    3  502    0  0.11260742017E+03  0.35863272166E+01  0.11343694977E+03  0.15993344489E+03  0.41800000000E+01 0. -1.
         -5    1    3    3    0  502  0.63735502702E+02  0.30802342825E+02  0.29580363812E+03  0.30418458763E+03  0.41800000000E+01 0. -1.
        -11    1    1    2    0    0 -0.13120793526E+03 -0.11034545834E+02  0.21013932091E+03  0.24798350282E+03  0.00000000000E+00 0.  1.
         11    1    1    2    0    0 -0.45134987612E+02 -0.23354124207E+02  0.24466034275E+03  0.24988250346E+03  0.00000000000E+00 0. -1.
</event>
<event>
 7    1  0.2420569E-009  0.6821627E+02  0.7561462E-02  0.1366266E+00
          1   -1    0    0  501    0  0.00000000000E+00  0.00000000000E+00  0.35067630033E+03  0.35067630033E+03  0.00000000000E+00 0. -1.
         -1   -1    0    0    0  501 -0.00000000000E+00 -0.00000000000E+00 -0.45213711288E+02  0.45213711288E+02  0.00000000000E+00 0.  1.
         25    2    1    2    0    0 -0.34348295641E+02  0.53231756617E+02  0.19315867326E+03  0.23868503031E+03  0.12508735073E+03 0.  0.
          5    1    3    3  502    0 -0.13954925821E+02  0.48760454825E+02  0.70660018998E+01  0.51378231697E+02  0.41800000000E+01 0.  1.
         -5    1    3    3    0  502 -0.20393369820E+02  0.44713017917E+01  0.18609267136E+03  0.18730679861E+03  0.41800000000E+01 0.  1.
        -11    1    1    2    0    0  0.24231002853E+02 -0.27787678647E+02 -0.45841830839E+01  0.37152541210E+02  0.00000000000E+00 0.  1.
         11    1    1    2    0    0  0.10117292788E+02 -0.25444077971E+02  0.11688809887E+03  0.12005244010E+03  0.00000000000E+00 0. -1.
</event>
<event>
 7    1  0.3310925E-009  0.1561199E+03  0.7561462E-02  0.1193148E+00
          1   -1    0    0  501    0  0.00000000000E+00  0.00000000000E+00  0.65916938853E+03  0.65916938853E+03  0.00000000000E+00 0. -1.
         -1   -1    0    0    0  501 -0.00000000000E+00 -0.00000000000E+00 -0.53748580820E+02  0.53748580820E+02  0.00000000000E+00 0.  1.
         25    2    1    2    0    0 -0.13680501033E+03 -0.32349939389E+02  0.20308384478E+03  0.27686279195E+03  0.12509127918E+03 0.  0.
          5    1    3    3  502    0 -0.15200596599E+03 -0.25924218827E+02  0.12972307932E+03  0.20155254533E+03  0.41800000000E+01 0.  1.
         -5    1    3    3    0  502  0.15200955664E+02 -0.64257205626E+01  0.73360765459E+02  0.75310246624E+02  0.41800000000E+01 0.  1.
        -11    1    1    2    0    0  0.63561537097E+02  0.20338262777E+02  0.74929160301E+02  0.10033988735E+03  0.00000000000E+00 0.  1.
         11    1    1    2    0    0  0.73243473234E+02  0.12011676612E+02  0.32740780263E+03  0.33571529005E+03  0.00000000000E+00 0. -1.
</event>
<event>
 7    1  0.2420569E-009  0.9287347E+02  0.7561462E-02  0.1296039E+00
         -2   -1    0    0    0  501 -0.00000000000E+00  0.00000000000E+00  0.54411901238E+02  0.54411901238E+02  0.00000000000E+00 0.  1.
          2   -1    0    0  501    0  0.00000000000E+00 -0.00000000000E+00 -0.29261310552E+03  0.29261310552E+03  0.00000000000E+00 0. -1.
         25    2    1    2    0    0 -0.50694536475E+02 -0.34435391053E+02 -0.10331424680E+03  0.17342451418E+03  0.12508595581E+03 0.  0.
          5    1    3    3  502    0 -0.19624561814E+02 -0.53032906776E+02  0.71042050425E+01  0.57145032652E+02  0.41800000000E+01 0. -1.
         -5    1    3    3    0  502 -0.31069974661E+02  0.18597515723E+02 -0.11041845184E+03  0.11627948153E+03  0.41800000000E+01 0. -1.
        -11    1    1    2    0    0  0.59381938855E+02  0.24310772424E+01 -0.36429610051E+02  0.69708258386E+02  0.00000000000E+00 0.  1.
         11    1    1    2    0    0 -0.86874023801E+01  0.32004313811E+02 -0.98457347433E+02  0.10389223420E+03  0.00000000000E+00 0. -1.
</event>
<event>
 7    1  0.2420569E-009  0.1117772E+03  0.7561462E-02  0.1257314E+00
         -2   -1    0    0    0  501 -0.00000000000E+00  0.00000000000E+00  0.27367354043E+02  0.27367354043E+02  0.00000000000E+00 0. -1.
          2   -1    0    0  501    0  0.00000000000E+00 -0.00000000000E+00 -0.55652816748E+03  0.55652816748E+03  0.00000000000E+00 0.  1.
         25    2    1    2    0    0  0.36036683669E+02  0.52181448724E+02 -0.35025914338E+03  0.37729080859E+03  0.12508133581E+03 0.  0.
          5    1    3    3  502    0  0.27919228268E+01 -0.37569124002E+02 -0.15802976662E+03  0.16251188710E+03  0.41800000000E+01 0. -1.
         -5    1    3    3    0  502  0.33244760842E+02  0.89750572726E+02 -0.19222937676E+03  0.21477892149E+03  0.41800000000E+01 0. -1.
        -11    1    1    2    0    0  0.18446265336E+02 -0.16265347903E+02 -0.11929614962E+02  0.27333897643E+02  0.00000000000E+00 0. -1.
         11    1    1    2    0    0 -0.54482949005E+02 -0.35916100821E+02 -0.16697205509E+03  0.17927081528E+03  0.00000000000E+00 0.  1.
</event>
<event>
 7    1  0.2420569E-009  0.1236407E+03  0.7561462E-02  0.1237209E+00
         -2   -1    0    0    0  501 -0.00000000000E+00  0.00000000000E+00  0.77882398647E+02  0.77882398647E+02  0.00000000000E+00 0.  1.
          2   -1    0    0  501    0  0.00000000000E+00 -0.00000000000E+00 -0.21110964459E+03  0.21110964459E+03  0.00000000000E+00 0. -1.
         25    2    1    2    0    0 -0.35372787043E+02 -0.50203402012E+02 -0.48894396199E+02  0.14768066739E+03  0.12508917580E+03 0.  0.
          5    1    3    3  502    0 -0.69095633915E+02 -0.66867470933E+02 -0.16058042560E+02  0.97574578789E+02  0.41800000000E+01 0.  1.
         -5    1    3    3    0  502  0.33722846871E+02  0.16664068921E+02 -0.32836353639E+02  0.50106088596E+02  0.41800000000E+01 0.  1.
        -11    1    1    2    0    0  0.34832261716E+02 -0.21860831357E+02 -0.34694214150E+02  0.53804004492E+02  0.00000000000E+00 0.  1.
         11    1    1    2    0    0  0.54052532758E+00  0.72064233370E+02 -0.49638635594E+02  0.87507371361E+02  0.00000000000E+00 0. -1.
</event>
<event>
 7    1  0.2420569E-009  0.1452301E+03  0.7561462E-02  0.1206460E+00
          2   -1    0    0  501    0  0.00000000000E+00  0.00000000000E+00  0.10539656419E+03  0.10539656419E+03  0.00000000000E+00 0. -1.
         -2   -1    0    0    0  501 -0.00000000000E+00 -0.00000000000E+00 -0.22934331911E+03  0.22934331911E+03  0.00000000000E+00 0.  1.
         25    2    1    2    0    0 -0.43718940464E+02 -0.85744977475E+02 -0.71207014870E+01  0.15799287686E+03  0.12508995896E+03 0.  0.
          5    1    3    3  502    0  0.40093864859E+02 -0.55577725498E+02 -0.30821795484E+01  0.68726805554E+02  0.41800000000E+01 0. -1.
         -5    1    3    3    0  502 -0.83812805322E+02 -0.30167251977E+02 -0.40385219386E+01  0.89266071311E+02  0.41800000000E+01 0. -1.
        -11    1    1    2    0    0 -0.58945233247E+01  0.82712079003E+02 -0.73689533867E+02  0.11093322685E+03  0.00000000000E+00 0.  1.
         11    1    1    2    0    0  0.49613463788E+02  0.30328984722E+01 -0.43136519563E+02  0.65813779577E+02  0.00000000000E+00 0. -1.
</event>
<event>
 7    1  0.2420569E-009  0.8562290E+02  0.7561462E-02  0.1313812E+00
         -4   -1    0    0    0  501 -0.00000000000E+00  0.00000000000E+00  0.13150140092E+02  0.13150140092E+02  0.00000000000E+00 0.  1.
          4   -1    0    0  501    0  0.00000000000E+00 -0.00000000000E+00 -0.10104155743E+04  0.10104155743E+04  0.00000000000E+00 0. -1.
         25    2    1    2    0    0 -0.10265592240E+02 -0.14012667365E+02 -0.76402043473E+03  0.77438720661E+03  0.12508630559E+03 0.  0.
          5    1    3    3  502    0  0.16004181501E+02 -0.45561061433E+02 -0.12550450753E+03  0.13453920601E+03  0.41800000000E+01 0.  1.
         -5    1    3    3    0  502 -0.26269773741E+02  0.31548394068E+02 -0.63851592720E+03  0.63984800059E+03  0.41800000000E+01 0.  1.
        -11    1    1    2    0    0 -0.10541772873E+02 -0.30555606404E+02 -0.14080451198E+03  0.14446689811E+03  0.00000000000E+00 0. -1.
         11    1    1    2    0    0  0.20807365112E+02  0.44568273769E+02 -0.92440487516E+02  0.10471160968E+03  0.00000000000E+00 0.  1.
</event>
<event>
 7    1  0.2420569E-009  0.5110004E+03  0.7561462E-02  0.1010947E+00
         -2   -1    0    0    0  501 -0.00000000000E+00  0.00000000000E+00  0.51363545436E+03  0.51363545436E+03  0.00000000000E+00 0.  1.
          2   -1    0    0  501    0  0.00000000000E+00 -0.00000000000E+00 -0.12711198674E+04  0.12711198674E+04  0.00000000000E+00 0. -1.
         25    2    1    2    0    0 -0.40554657699E+03  0.30761619459E+03  0.28858897896E+03  0.59835378756E+03  0.12509159457E+03 0.  0.
          5    1    3    3  502    0 -0.22822806631E+03  0.13650518810E+03  0.21246867607E+03  0.34041464032E+03  0.41800000000E+01 0. -1.
         -5    1    3    3    0  502 -0.17731851068E+03  0.17111100649E+03  0.76120302890E+02  0.25793914725E+03  0.41800000000E+01 0. -1.
        -11    1    1    2    0    0  0.72556039671E+02 -0.43818502849E+02 -0.42862497887E+03  0.43692540850E+03  0.00000000000E+00 0.  1.
         11    1    1    2    0    0  0.33299053732E+03 -0.26379769174E+03 -0.61744841314E+03  0.74947612570E+03  0.00000000000E+00 0. -1.
</event>
<event>
 7    1  0.2420569E-009  0.6747171E+02  0.7561462E-02  0.1368908E+00
         -1   -1    0    0    0  501 -0.00000000000E+00  0.00000000000E+00  0.25075378897E+03  0.25075378897E+03  0.00000000000E+00 0.  1.
          1   -1    0    0  501    0  0.00000000000E+00 -0.00000000000E+00 -0.56118620278E+02  0.56118620278E+02  0.00000000000E+00 0. -1.
         25    2    1    2    0    0 -0.23997468339E+02 -0.38611835597E+02  0.11998426843E+03  0.17919155396E+03  0.12508651408E+03 0.  0.
          5    1    3    3  502    0 -0.96917359579E+00 -0.27526374762E+01  0.13402900272E+03  0.13412591949E+03  0.41800000000E+01 0. -1.
         -5    1    3    3    0  502 -0.23028294743E+02 -0.35859198121E+02 -0.14044734290E+02  0.45065634467E+02  0.41800000000E+01 0. -1.
        -11    1    1    2    0    0 -0.26618635445E+02  0.19168634724E+02  0.64718417700E+02  0.72556611689E+02  0.00000000000E+00 0.  1.
         11    1    1    2    0    0  0.50616103783E+02  0.19443200873E+02  0.99324825648E+01  0.55124243598E+02  0.00000000000E+00 0. -1.
</event>
<event>
 7    1  0.2420569E-009  0.1175240E+03  0.7561462E-02  0.1247238E+00
          1   -1    0    0  501    0  0.00000000000E+00  0.00000000000E+00  0.10080786630E+03  0.10080786630E+03  0.00000000000E+00 0. -1.
         -1   -1    0    0    0  501 -0.00000000000E+00 -0.00000000000E+00 -0.20602228108E+03  0.20602228108E+03  0.00000000000E+00 0.  1.
         25    2    1    2    0    0 -0.30514118915E+02  0.63866947700E+02 -0.12369611089E+03  0.18962464440E+03  0.12508668775E+03 0.  0.
          5    1    3    3  502    0  0.12411723959E+02 -0.32181609564E+02 -0.13666595081E+02  0.37335708201E+02  0.41800000000E+01 0.  1.
         -5    1    3    3    0  502 -0.42925842874E+02  0.96048557265E+02 -0.11002951581E+03  0.15228893620E+03  0.41800000000E+01 0.  1.
        -11    1    1    2    0    0  0.43659117084E+02 -0.68370419034E+02 -0.13591472896E+02  0.82251813591E+02  0.00000000000E+00 0.  1.
         11    1    1    2    0    0 -0.13144998169E+02  0.45034713339E+01  0.32073169011E+02  0.34953689381E+02  0.00000000000E+00 0. -1.
</event>
<event>
 7    1  0.2420569E-009  0.1220440E+03  0.7561462E-02  0.1239763E+00
          2   -1    0    0  501    0  0.00000000000E+00  0.00000000000E+00  0.69241431084E+03  0.69241431084E+03  0.00000000000E+00 0. -1.
         -2   -1    0    0    0  501 -0.00000000000E+00 -0.00000000000E+00 -0.23516980559E+02  0.23516980559E+02  0.00000000000E+00 0.  1.
         25    2    1    2    0    0 -0.38635890666E+02  0.49087231523E+02  0.44513709041E+03  0.46658092907E+03  0.12509374794E+03 0.  0.
          5    1    3    3  502    0  0.13199524429E+02 -0.34600645516E+02  0.77898609905E+02  0.86354489984E+02  0.41800000000E+01 0. -1.
         -5    1    3    3    0  502 -0.51835415095E+02  0.83687877039E+02  0.36723848050E+03  0.38022643909E+03  0.41800000000E+01 0. -1.
        -11    1    1    2    0    0  0.44584739033E+02  0.12589137474E+02  0.74367742905E+02  0.87617615363E+02  0.00000000000E+00 0.  1.
         11    1    1    2    0    0 -0.59488483665E+01 -0.61676368997E+02  0.14939249697E+03  0.16173274696E+03  0.00000000000E+00 0. -1.
</event>
<event>
 7    1  0.2420569E-009  0.1079206E+03  0.7561462E-02  0.1264470E+00
          2   -1    0    0  501    0  0.00000000000E+00  0.00000000000E+00  0.89191429892E+02  0.89191429892E+02  0.00000000000E+00 0. -1.
         -2   -1    0    0    0  501 -0.00000000000E+00 -0.00000000000E+00 -0.20424447729E+03  0.20424447729E+03  0.00000000000E+00 0.  1.
         25    2    1    2    0    0 -0.66879218194E+02  0.20037213600E+02 -0.20719823073E+02  0.14475108010E+03  0.12509693988E+03 0.  0.
          5    1    3    3  502    0 -0.60589223224E+02  0.46190687230E+02  0.34075929200E+02  0.83565991339E+02  0.41800000000E+01 0. -1.
         -5    1    3    3    0  502 -0.62899949702E+01 -0.26153473630E+02 -0.54795752273E+02  0.61185088762E+02  0.41800000000E+01 0. -1.
        -11    1    1    2    0    0 -0.14416986180E+02 -0.27118226420E+02 -0.40884206475E+02  0.51134783013E+02  0.00000000000E+00 0. -1.
         11    1    1    2    0    0  0.81296204374E+02  0.70810128206E+01 -0.53449017847E+02  0.97550044064E+02  0.00000000000E+00 0.  1.
</event>
<event>
 7    1  0.2420569E-009  0.1319375E+03  0.7561462E-02  0.1224609E+00
          4   -1    0    0  501    0  0.00000000000E+00  0.00000000000E+00  0.10776043726E+03  0.10776043726E+03  0.00000000000E+00 0. -1.
         -4   -1    0    0    0  501 -0.00000000000E+00 -0.00000000000E+00 -0.20510724390E+03  0.20510724390E+03  0.00000000000E+00 0.  1.
         25    2    1    2    0    0  0.77871275754E+02  0.64016237546E+02 -0.58101641872E+02  0.17083704857E+03  0.12508989615E+03 0.  0.
          5    1    3    3  502    0  0.31183505354E+02 -0.33853977673E+02  0.29769278814E+01  0.46312388300E+02  0.41800000000E+01 0. -1.
         -5    1    3    3    0  502  0.46687770400E+02  0.97870215218E+02 -0.61078569754E+02  0.12452466027E+03  0.41800000000E+01 0. -1.
        -11    1    1    2    0    0 -0.43705221935E+02 -0.60725207798E+02  0.16453113529E+02  0.76605497396E+02  0.00000000000E+00 0. -1.
         11    1    1    2    0    0 -0.34166053819E+02 -0.32910297477E+01 -0.55698278291E+02  0.65425135192E+02  0.00000000000E+00 0.  1.
</event>
<event>
 7    1  0.2420569E-009  0.7340926E+02  0.7561462E-02  0.1348869E+00
         -4   -1    0    0    0  501 -0.00000000000E+00  0.00000000000E+00  0.10210650615E+03  0.10210650615E+03  0.00000000000E+00 0. -1.
          4   -1    0    0  501    0  0.00000000000E+00 -0.00000000000E+00 -0.11560141696E+03  0.11560141696E+03  0.00000000000E+00 0.  1.
         25    2    1    2    0    0 -0.91471868974E+01  0.12671824994E+02 -0.69373216587E+01  0.12625703237E+03  0.12509382724E+03 0.  0.
          5    1    3    3  502    0 -0.41732076155E+02 -0.19161809249E+02 -0.46712769360E+02  0.65637613723E+02  0.41800000000E+01 0. -1.
         -5    1    3    3    0  502  0.32584889258E+02  0.31833634243E+02  0.39775447702E+02  0.60619418646E+02  0.41800000000E+01 0. -1.
        -11    1    1    2    0    0 -0.17411500727E+02 -0.20858529442E+02  0.33226243858E+02  0.42921112392E+02  0.00000000000E+00 0. -1.
         11    1    1    2    0    0  0.26558687624E+02  0.81867044478E+01 -0.39783833004E+02  0.48529778348E+02  0.00000000000E+00 0.  1.
</event>
<event>
 7    1  0.2420569E-009  0.9606311E+02  0.7561462E-02  0.1288799E+00
         -1   -1    0    0    0  501 -0.00000000000E+00  0.00000000000E+00  0.22142149102E+03  0.22142149102E+03  0.00000000000E+00 0.  1.
          1   -1    0    0  501    0  0.00000000000E+00 -0.00000000000E+00 -0.54989356494E+02  0.54989356494E+02  0.00000000000E+00 0. -1.
         25    2    1    2    0    0  0.51083363858E+01 -0.15531454094E+02  0.97432072409E+02  0.15939816788E+03  0.12508975187E+03 0.  0.
          5    1    3    3  502    0 -0.44213417476E+02 -0.24490305635E+02  0.11049622227E+01  0.50727652188E+02  0.41800000000E+01 0. -1.
         -5    1    3    3    0  502  0.49321753861E+02  0.89588515412E+01  0.96327110186E+02  0.10867051570E+03  0.41800000000E+01 0. -1.
        -11    1    1    2    0    0 -0.94886879774E+01  0.52768096012E+02  0.24858585300E+02  0.59097008548E+02  0.00000000000E+00 0.  1.
         11    1    1    2    0    0  0.43803515916E+01 -0.37236641918E+02  0.44141476818E+02  0.57915671084E+02  0.00000000000E+00 0. -1.
</event>
<event>
 7    1  0.2420569E-009  0.1073530E+03  0.7561462E-02  0.1265552E+00
          1   -1    0    0  501    0  0.00000000000E+00  0.00000000000E+00  0.91712022333E+03  0.91712022333E+03  0.00000000000E+00 0. -1.
         -1   -1    0    0    0  501 -0.00000000000E+00 -0.00000000000E+00 -0.17383394402E+02  0.17383394402E+02  0.00000000000E+00 0.  1.
         25    2    1    2    0    0  0.31227389687E+02  0.24451910847E+02  0.69274181112E+03  0.70506112999E+03  0.12508770660E+03 0.  0.
          5    1    3    3  502    0  0.78288468807E+02  0.11879449739E+02  0.35138220083E+03  0.36021816880E+03  0.41800000000E+01 0. -1.
         -5    1    3    3    0  502 -0.47061079121E+02  0.12572461108E+02  0.34135961029E+03  0.34484296119E+03  0.41800000000E+01 0. -1.
        -11    1    1    2    0    0 -0.46616444251E+02  0.10979021138E+02  0.16743961909E+03  0.17415412089E+03  0.00000000000E+00 0. -1.
         11    1    1    2    0    0  0.15389054565E+02 -0.35430931985E+02  0.39555398719E+02  0.55288366856E+02  0.00000000000E+00 0.  1.
</event>
<event>
 7    1  0.2420569E-009  0.7581422E+02  0.7561462E-02  0.1341368E+00
          2   -1    0    0  501    0  0.00000000000E+00  0.00000000000E+00  0.57272387513E+03  0.57272387513E+03  0.00000000000E+00 0.  1.
         -2   -1    0    0    0  501 -0.00000000000E+00 -0.00000000000E+00 -0.29232840609E+02  0.29232840609E+02  0.00000000000E+00 0. -1.
         25    2    1    2    0    0 -0.67294822773E+02 -0.80651077985E+01  0.26019973378E+03  0.29655302909E+03  0.12508460524E+03 0.  0.
          5    1    3    3  502    0 -0.25325297904E+02  0.15716479579E+00 -0.64472743099E+01  0.26465735598E+02  0.41800000000E+01 0. -1.
         -5    1    3    3    0  502 -0.41969524868E+02 -0.82222725943E+01  0.26664700809E+03  0.27008729349E+03  0.41800000000E+01 0. -1.
        -11    1    1    2    0    0  0.54638482256E+02 -0.15017032063E+02  0.27006099977E+03  0.27594169419E+03  0.00000000000E+00 0.  1.
         11    1    1    2    0    0  0.12656340516E+02  0.23082139862E+02  0.13230300974E+02  0.29461992460E+02  0.00000000000E+00 0. -1.
</event>
<event>
 7    1  0.2420569E-009  0.8870058E+02  0.7561462E-02  0.1306029E+00
          1   -1    0    0  501    0  0.00000000000E+00  0.00000000000E+00  0.11529122466E+03  0.11529122466E+03  0.00000000000E+00 0. -1.
         -1   -1    0    0    0  501 -0.00000000000E+00 -0.00000000000E+00 -0.14757472228E+03  0.14757472228E+03  0.00000000000E+00 0.  1.
         25    2    1    2    0    0  0.32836616541E+02 -0.37286573673E+02  0.35709097379E+02  0.13925910714E+03  0.12509767114E+03 0.  0.
          5    1    3    3  502    0  0.76604833185E+02 -0.20549570744E+02 -0.12489135791E+01  0.79433100847E+02  0.41800000000E+01 0. -1.
         -5    1    3    3    0  502 -0.43768216644E+02 -0.16737002930E+02  0.36958010959E+02  0.59826006295E+02  0.41800000000E+01 0. -1.
        -11    1    1    2    0    0 -0.24558808674E+02  0.19658642414E+02  0.17449538249E+02  0.35973374740E+02  0.00000000000E+00 0. -1.
         11    1    1    2    0    0 -0.82778078674E+01  0.17627931260E+02 -0.85442133248E+02  0.87633465055E+02  0.00000000000E+00 0.  1.
</event>
<event>
 7    1  0.2420569E-009  0.1031634E+03  0.7561462E-02  0.1273781E+00
          1   -1    0    0  501    0  0.00000000000E+00  0.00000000000E+00  0.91373175721E+03  0.91373175721E+03  0.00000000000E+00 0. -1.
         -1   -1    0    0    0  501 -0.00000000000E+00 -0.00000000000E+00 -0.20938666062E+02  0.20938666062E+02  0.00000000000E+00 0.  1.
         25    2    1    2    0    0  0.83440977836E+02  0.55306823708E+01  0.55872805961E+03  0.57863415855E+03  0.12508980620E+03 0.  0.
          5    1    3    3  502    0  0.26463944070E+01  0.32543686573E+02  0.37077502919E+03  0.37223338057E+03  0.41800000000E+01 0. -1.
         -5    1    3    3    0  502  0.80794583429E+02 -0.27013004203E+02  0.18795303043E+03  0.20640077799E+03  0.41800000000E+01 0. -1.
        -11    1    1    2    0    0 -0.18294869830E+02 -0.13143231190E+02  0.87357535978E+01  0.24161129509E+02  0.00000000000E+00 0.  1.
         11    1    1    2    0    0 -0.65146108006E+02  0.76125488191E+01  0.32532927794E+03  0.33187513521E+03  0.00000000000E+00 0. -1.
</event>
<event>
 7    1  0.2420569E-009  0.1355368E+03  0.7561462E-02  0.1219464E+00
          1   -1    0    0  501    0  0.00000000000E+00  0.00000000000E+00  0.10194828751E+04  0.10194828751E+04  0.00000000000E+00 0. -1.
         -1   -1    0    0    0  501 -0.00000000000E+00 -0.00000000000E+00 -0.23078900775E+02  0.23078900775E+02  0.00000000000E+00 0.  1.
         25    2    1    2    0    0  0.68058359535E+02 -0.82343148743E+02  0.49081710811E+03  0.51765035370E+03  0.12509244831E+03 0.  0.
          5    1    3    3  502    0  0.95151372052E+02 -0.60236274976E+02  0.24940692905E+03  0.27368500340E+03  0.41800000000E+01 0. -1.
         -5    1    3    3    0  502 -0.27093012518E+02 -0.22106873768E+02  0.24141017906E+03  0.24396535030E+03  0.41800000000E+01 0. -1.
        -11    1    1    2    0    0 -0.42001494695E+02  0.87080008605E+02  0.47367745341E+03  0.48344325760E+03  0.00000000000E+00 0. -1.
         11    1    1    2    0    0 -0.26056864840E+02 -0.47368598613E+01  0.31909412781E+02  0.41468164544E+02  0.00000000000E+00 0.  1.
</event>
<event>
 7    1  0.2420569E-009  0.8639925E+02  0.7561462E-02  0.1311813E+00
         -1   -1    0    0    0  501 -0.00000000000E+00  0.00000000000E+00  0.34062077424E+03  0.34062077424E+03  0.00000000000E+00 0.  1.
          1   -1    0    0  501    0  0.00000000000E+00 -0.00000000000E+00 -0.41425038544E+02  0.41425038544E+02  0.00000000000E+00 0. -1.
         25    2    1    2    0    0 -0.18047166112E+02  0.48517354373E+02  0.20937211275E+03  0.24932798362E+03  0.12509247755E+03 0.  0.
          5    1    3    3  502    0  0.37847991468E+02 -0.39097134172E+01  0.14243970543E+03  0.14749338426E+03  0.41800000000E+01 0. -1.
         -5    1    3    3    0  502 -0.55895157580E+02  0.52427067790E+02  0.66932407325E+02  0.10183459937E+03  0.41800000000E+01 0. -1.
        -11    1    1    2    0    0  0.23354681888E+02 -0.27425247053E+02  0.10173223686E+03  0.10792142215E+03  0.00000000000E+00 0.  1.
         11    1    1    2    0    0 -0.53075157765E+01 -0.21092107319E+02 -0.11908613923E+02  0.24796407007E+02  0.00000000000E+00 0. -1.
</event>
<event>
 7    1  0.2420569E-009  0.7498762E+02  0.7561462E-02  0.1343909E+00
         -1   -1    0    0    0  501 -0.00000000000E+00  0.00000000000E+00  0.21892507000E+03  0.21892507000E+03  0.00000000000E+00 0.  1.
          1   -1    0    0  501    0  0.00000000000E+00 -0.00000000000E+00 -0.55546756369E+02  0.55546756369E+02  0.00000000000E+00 0. -1.
         25    2    1    2    0    0 -0.15311540288E+02 -0.48189738965E+01  0.10501497203E+03  0.16411604686E+03  0.12509303223E+03 0.  0.
          5    1    3    3  502    0 -0.25276419062E+02  0.23397723325E+02  0.12377817345E+03  0.12854905460E+03  0.41800000000E+01 0.  1.
         -5    1    3    3    0  502  0.99648787745E+01 -0.28216697221E+02 -0.18763201417E+02  0.35566992261E+02  0.41800000000E+01 0.  1.
        -11    1    1    2    0    0  0.42380965201E+00 -0.38888345302E+02  0.50141923384E+02  0.63456248672E+02  0.00000000000E+00 0.  1.
         11    1    1    2    0    0  0.14887730636E+02  0.43707319198E+02  0.82214182195E+01  0.46899530835E+02  0.00000000000E+00 0. -1.
</event>
<event>
 7    1  0.2420569E-009  0.1730584E+03  0.7561462E-02  0.1174695E+00
         -2   -1    0    0    0  501 -0.00000000000E+00  0.00000000000E+00  0.23485693906E+02  0.23485693906E+02  0.00000000000E+00 0.  1.
          2   -1    0    0  501    0  0.00000000000E+00 -0.00000000000E+00 -0.20490940798E+04  0.20490940798E+04  0.00000000000E+00 0. -1.
         25    2    1    2    0    0 -0.52860912543E+02  0.14184929815E+03 -0.15976556036E+04  0.16096785109E+04  0.12508389775E+03 0.  0.
          5    1    3    3  502    0 -0.53250832183E+02  0.15069475735E+03 -0.10651066719E+04  0.10770395795E+04  0.41800000000E+01 0. -1.
         -5    1    3    3    0  502  0.38991964044E+00 -0.88454591963E+01 -0.53254893172E+03  0.53263893142E+03  0.41800000000E+01 0. -1.
        -11    1    1    2    0    0 -0.25504857097E+02 -0.46387389602E+02 -0.12699290976E+03  0.13758447143E+03  0.00000000000E+00 0. -1.
         11    1    1    2    0    0  0.78365769640E+02 -0.95461908552E+02 -0.30095987257E+03  0.32531679135E+03  0.00000000000E+00 0.  1.
</event>
<event>
 7    1  0.2420569E-009  0.1147411E+03  0.7561462E-02  0.1252034E+00
         -2   -1    0    0    0  501 -0.00000000000E+00  0.00000000000E+00  0.17351856848E+03  0.17351856848E+03  0.00000000000E+00 0.  1.
          2   -1    0    0  501    0  0.00000000000E+00 -0.00000000000E+00 -0.40151614948E+03  0.40151614948E+03  0.00000000000E+00 0. -1.
         25    2    1    2    0    0  0.72484337316E+02  0.27730926103E+02 -0.36374713654E+03  0.39240633828E+03  0.12509105310E+03 0.  0.
          5    1    3    3  502    0  0.90105394968E+02  0.56473520677E+02 -0.21587262468E+03  0.24067966932E+03  0.41800000000E+01 0.  1.
         -5    1    3    3    0  502 -0.17621057652E+02 -0.28742594574E+02 -0.14787451186E+03  0.15172666896E+03  0.41800000000E+01 0.  1.
        -11    1    1    2    0    0 -0.22820280163E+02  0.11726866361E+02 -0.68516435767E+01  0.26556159380E+02  0.00000000000E+00 0. -1.
         11    1    1    2    0    0 -0.49664057154E+02 -0.39457792463E+02  0.14260119911E+03  0.15607222029E+03  0.00000000000E+00 0.  1.
</event>
<event>
 7    1  0.2765373E-009  0.8429668E+02  0.7561462E-02  0.1317282E+00
         -2   -1    0    0    0  501 -0.00000000000E+00  0.00000000000E+00  0.23618746096E+02  0.23618746096E+02  0.00000000000E+00 0.  1.
          2   -1    0    0  501    0  0.00000000000E+00 -0.00000000000E+00 -0.56151188135E+03  0.56151188135E+03  0.00000000000E+00 0. -1.
         25    2    1    2    0    0  0.36412195712E+02  0.66624738610E+01 -0.27892034846E+03  0.30792364899E+03  0.12510066452E+03 0.  0.
          5    1    3    3  502    0  0.39961896975E+02  0.32256037105E+02 -0.34279776252E+02  0.61886837046E+02  0.41800000000E+01 0.  1.
         -5    1    3    3    0  502 -0.35497012633E+01 -0.25593563244E+02 -0.24464057221E+03  0.24603681194E+03  0.41800000000E+01 0.  1.
        -11    1    1    2    0    0  0.24454241877E+02  0.11986723471E+02 -0.34909922880E+02  0.44276339063E+02  0.00000000000E+00 0.  1.
         11    1    1    2    0    0 -0.60866437589E+02 -0.18649197332E+02 -0.22406286391E+03  0.23293063940E+03  0.00000000000E+00 0. -1.
</event>
<event>
 7    1  0.2420569E-009  0.1565832E+03  0.7561462E-02  0.1192609E+00
         -1   -1    0    0    0  501 -0.00000000000E+00  0.00000000000E+00  0.49712922703E+02  0.49712922703E+02  0.00000000000E+00 0.  1.
          1   -1    0    0  501    0  0.00000000000E+00 -0.00000000000E+00 -0.78192730850E+03  0.78192730850E+03  0.00000000000E+00 0. -1.
         25    2    1    2    0    0  0.10397466374E+03  0.80954916410E+02 -0.17605491828E+03  0.25299752981E+03  0.12509191280E+03 0.  0.
          5    1    3    3  502    0  0.11715083995E+03  0.84557159833E+02 -0.10035743898E+03  0.17596397511E+03  0.41800000000E+01 0. -1.
         -5    1    3    3    0  502 -0.13176176203E+02 -0.36022434227E+01 -0.75697479299E+02  0.77033554697E+02  0.41800000000E+01 0. -1.
        -11    1    1    2    0    0  0.52917081857E+01 -0.35674317617E+02 -0.75891422179E+02  0.84024800347E+02  0.00000000000E+00 0.  1.
         11    1    1    2    0    0 -0.10926637193E+03 -0.45280598793E+02 -0.48026804534E+03  0.49461790105E+03  0.00000000000E+00 0. -1.
</event>
<event>
 7    1  0.2420569E-009  0.1103497E+03  0.7561462E-02  0.1259924E+00
         -1   -1    0    0    0  501 -0.00000000000E+00  0.00000000000E+00  0.32886035833E+02  0.32886035833E+02  0.00000000000E+00 0.  1.
          1   -1    0    0  501    0  0.00000000000E+00 -0.00000000000E+00 -0.55314274883E+03  0.55314274883E+03  0.00000000000E+00 0. -1.
         25    2    1    2    0    0 -0.51915335427E+01  0.64980850912E+02 -0.18576243742E+03  0.23324801530E+03  0.12508992957E+03 0.  0.
          5    1    3    3  502    0 -0.29326135731E+01  0.94847775893E+02 -0.17841786091E+03  0.20212646118E+03  0.41800000000E+01 0.  1.
         -5    1    3    3    0  502 -0.22589199696E+01 -0.29866924982E+02 -0.73445765081E+01  0.31121554128E+02  0.41800000000E+01 0.  1.
        -11    1    1    2    0    0 -0.32041845035E+02 -0.23527901055E+02 -0.55446012319E+02  0.68223912549E+02  0.00000000000E+00 0.  1.
         11    1    1    2    0    0  0.37233378578E+02 -0.41452949856E+02 -0.27904826326E+03  0.28455685681E+03  0.00000000000E+00 0. -1.
</event>
<event>
 7    1  0.2420569E-009  0.1122204E+03  0.7561462E-02  0.1256512E+00
         -2   -1    0    0    0  501 -0.00000000000E+00  0.00000000000E+00  0.31311451717E+03  0.31311451717E+03  0.00000000000E+00 0.  1.
          2   -1    0    0  501    0  0.00000000000E+00 -0.00000000000E+00 -0.42862290594E+02  0.42862290594E+02  0.00000000000E+00 0. -1.
         25    2    1    2    0    0  0.83294494668E+01  0.30810014684E+02  0.11438243721E+03  0.17248205107E+03  0.12509228299E+03 0.  0.
          5    1    3    3  502    0  0.21995010230E+02 -0.45889311196E+02  0.46762992105E+02  0.69237700624E+02  0.41800000000E+01 0. -1.
         -5    1    3    3    0  502 -0.13665560763E+02  0.76699325880E+02  0.67619445109E+02  0.10324435044E+03  0.41800000000E+01 0. -1.
        -11    1    1    2    0    0  0.39876424080E+02 -0.24355344994E+02  0.92302212828E+02  0.10345535520E+03  0.00000000000E+00 0.  1.
         11    1    1    2    0    0 -0.48205873547E+02 -0.64546696903E+01  0.63567576532E+02  0.80039401493E+02  0.00000000000E+00 0. -1.
</event>
<event>
 7    1  0.2472405E-009  0.7423754E+02  0.7561462E-02  0.1346248E+00
          2   -1    0    0  501    0  0.00000000000E+00  0.00000000000E+00  0.41443589285E+03  0.41443589285E+03  0.00000000000E+00 0. -1.
         -2   -1    0    0    0  501 -0.00000000000E+00 -0.00000000000E+00 -0.29986289994E+02  0.29986289994E+02  0.00000000000E+00 0.  1.
         25    2    1    2    0    0  0.26763922665E+02  0.14200219295E+01  0.20987775733E+03  0.24579376280E+03  0.12509027457E+03 0.  0.
          5    1    3    3  502    0  0.12143311935E+02 -0.32621468568E+02  0.20525181571E+03  0.20822439936E+03  0.41800000000E+01 0.  1.
         -5    1    3    3    0  502  0.14620610729E+02  0.34041490497E+02  0.46259416162E+01  0.37569363439E+02  0.41800000000E+01 0.  1.
        -11    1    1    2    0    0 -0.32374733428E+02  0.30047207663E+02  0.37691217149E+02  0.58065358890E+02  0.00000000000E+00 0.  1.
         11    1    1    2    0    0  0.56108107629E+01 -0.31467229592E+02  0.13688062839E+03  0.14056306116E+03  0.00000000000E+00 0. -1.
</event>
<event>
 7    1  0.2420569E-009  0.9734639E+02  0.7561462E-02  0.1285977E+00
          1   -1    0    0  501    0  0.00000000000E+00  0.00000000000E+00  0.12935639917E+03  0.12935639917E+03  0.00000000000E+00 0. -1.
         -1   -1    0    0    0  501 -0.00000000000E+00 -0.00000000000E+00 -0.11832531460E+03  0.11832531460E+03  0.00000000000E+00 0.  1.
         25    2    1    2    0    0  0.22211371087E+01 -0.27725700475E+02 -0.46392221161E+02  0.13628558237E+03  0.12509146198E+03 0.  0.
          5    1    3    3  502    0 -0.56750570277E+02 -0.37364223057E+02 -0.28190140732E+02  0.73680857934E+02  0.41800000000E+01 0.  1.
         -5    1    3    3    0  502  0.58971707385E+02  0.96385225823E+01 -0.18202080429E+02  0.62604724434E+02  0.41800000000E+01 0.  1.
        -11    1    1    2    0    0  0.29206590579E+02  0.12008227023E+02  0.67769443341E+02  0.74765766901E+02  0.00000000000E+00 0. -1.
         11    1    1    2    0    0 -0.31427727688E+02  0.15717473452E+02 -0.10346137610E+02  0.36630364492E+02  0.00000000000E+00 0.  1.
</event>
<event>
 7    1  0.2420569E-009  0.1221495E+03  0.7561462E-02  0.1239593E+00
         -2   -1    0    0    0  501 -0.00000000000E+00  0.00000000000E+00  0.44668484746E+02  0.44668484746E+02  0.00000000000E+00 0. -1.
          2   -1    0    0  501    0  0.00000000000E+00 -0.00000000000E+00 -0.57382696308E+03  0.57382696308E+03  0.00000000000E+00 0.  1.
         25    2    1    2    0    0 -0.18404536582E+02 -0.92191017748E+02 -0.42071862024E+03  0.44887706008E+03  0.12509415226E+03 0.  0.
          5    1    3    3  502    0  0.34469676409E+02 -0.37189473904E+02 -0.31123794220E+03  0.31536921952E+03  0.41800000000E+01 0. -1.
         -5    1    3    3    0  502 -0.52874212990E+02 -0.55001543844E+02 -0.10948067804E+03  0.13350784055E+03  0.41800000000E+01 0. -1.
        -11    1    1    2    0    0  0.45209715346E+02  0.59821006425E+02 -0.30261708226E+02  0.80859397451E+02  0.00000000000E+00 0. -1.
         11    1    1    2    0    0 -0.26805178764E+02  0.32370011323E+02 -0.78178149868E+02  0.88758990296E+02  0.00000000000E+00 0.  1.
</event>
<event>
 7    1  0.2420569E-009  0.1268227E+03  0.7561462E-02  0.1232248E+00
         -1   -1    0    0    0  501 -0.00000000000E+00  0.00000000000E+00  0.44921154674E+02  0.44921154674E+02  0.00000000000E+00 0.  1.
          1   -1    0    0  501    0  0.00000000000E+00 -0.00000000000E+00 -0.45743727180E+03  0.45743727180E+03  0.00000000000E+00 0. -1.
         25    2    1    2    0    0 -0.23035089254E+02  0.71861939253E+02 -0.14486883510E+03  0.20574119383E+03  0.12509079025E+03 0.  0.
          5    1    3    3  502    0  0.41980910130E+02  0.57078269797E+02 -0.40205207871E+02  0.81573628326E+02  0.41800000000E+01 0. -1.
         -5    1    3    3    0  502 -0.65015999384E+02  0.14783669456E+02 -0.10466362723E+03  0.12416756550E+03  0.41800000000E+01 0. -1.
        -11    1    1    2    0    0 -0.32597166624E+02 -0.13646664118E+02 -0.32300239255E+02  0.47876008286E+02  0.00000000000E+00 0.  1.
         11    1    1    2    0    0  0.55632255878E+02 -0.58215275136E+02 -0.23534704277E+03  0.24874122435E+03  0.00000000000E+00 0. -1.
</event>
<event>
 7    1  0.2420569E-009  0.4598093E+03  0.7561462E-02  0.1024837E+00
         -2   -1    0    0    0  501 -0.00000000000E+00  0.00000000000E+00  0.18508595929E+03  0.18508595929E+03  0.00000000000E+00 0.  1.
          2   -1    0    0  501    0  0.00000000000E+00 -0.00000000000E+00 -0.13123653238E+04  0.13123653238E+04  0.00000000000E+00 0. -1.
         25    2    1    2    0    0  0.37588646511E+03 -0.25449583874E+03 -0.80616236296E+03  0.93359733493E+03  0.12508981468E+03 0.  0.
          5    1    3    3  502    0  0.29441918006E+03 -0.23135684468E+03 -0.72612333176E+03  0.81699523162E+03  0.41800000000E+01 0. -1.
         -5    1    3    3    0  502  0.81467285050E+02 -0.23138994062E+02 -0.80039031207E+02  0.11660210331E+03  0.41800000000E+01 0. -1.
        -11    1    1    2    0    0 -0.17791326736E+03  0.74816267479E+02 -0.16722804583E+03  0.25537389039E+03  0.00000000000E+00 0. -1.
         11    1    1    2    0    0 -0.19797319775E+03  0.17967957126E+03 -0.15388895574E+03  0.30848005779E+03  0.00000000000E+00 0.  1.
</event>
<event>
 7    1  0.2420569E-009  0.6371000E+02  0.7561462E-02  0.1382891E+00
          4   -1    0    0  501    0  0.00000000000E+00  0.00000000000E+00  0.24698871917E+03  0.24698871917E+03  0.00000000000E+00 0. -1.
         -4   -1    0    0    0  501 -0.00000000000E+00 -0.00000000000E+00 -0.52241435802E+02  0.52241435802E+02  0.00000000000E+00 0.  1.
         25    2    1    2    0    0  0.34185679353E+02  0.25488605639E+01  0.11357326698E+03  0.17239880171E+03  0.12508917818E+03 0.  0.
          5    1    3    3  502    0  0.20945209943E+02  0.47688146064E+01 -0.24936318319E+02  0.33177338405E+02  0.41800000000E+01 0. -1.
         -5    1    3    3    0  502  0.13240469411E+02 -0.22199540425E+01  0.13850958530E+03  0.13922146331E+03  0.41800000000E+01 0. -1.
        -11    1    1    2    0    0 -0.54049772469E+02  0.23314363698E+02  0.29790327360E+02  0.65972729690E+02  0.00000000000E+00 0. -1.
         11    1    1    2    0    0  0.19864093115E+02 -0.25863224262E+02  0.51383689025E+02  0.60858623566E+02  0.00000000000E+00 0.  1.
</event>
<event>
 7    1  0.2420569E-009  0.1563781E+03  0.7561462E-02  0.1192848E+00
         -1   -1    0    0    0  501 -0.00000000000E+00  0.00000000000E+00  0.22312014009E+02  0.22312014009E+02  0.00000000000E+00 0.  1.
          1   -1    0    0  501    0  0.00000000000E+00 -0.00000000000E+00 -0.23718805374E+04  0.23718805374E+04  0.00000000000E+00 0. -1.
         25    2    1    2    0    0 -0.10637836373E+03 -0.70528268095E+02 -0.20328907567E+04  0.20407310416E+04  0.12509101691E+03 0.  0.
          5    1    3    3  502    0 -0.25082418756E+02  0.23941894274E+02 -0.95703488218E+03  0.95767195852E+03  0.41800000000E+01 0.  1.
         -5    1    3    3    0  502 -0.81295944971E+02 -0.94470162370E+02 -0.10758558745E+04  0.10830590831E+04  0.41800000000E+01 0.  1.
        -11    1    1    2    0    0  0.11614201919E+03  0.78782331140E+02 -0.26104259033E+03  0.29637621073E+03  0.00000000000E+00 0.  1.
         11    1    1    2    0    0 -0.97636554604E+01 -0.82540630454E+01 -0.55635176365E+02  0.57085299105E+02  0.00000000000E+00 0. -1.
</event>
<event>
 7    1  0.2420569E-009  0.1637111E+03  0.7561462E-02  0.1184570E+00
          1   -1    0    0  501    0  0.00000000000E+00  0.00000000000E+00  0.45609225063E+02  0.45609225063E+02  0.00000000000E+00 0. -1.
         -1   -1    0    0    0  501 -0.00000000000E+00 -0.00000000000E+00 -0.72977153482E+03  0.72977153482E+03  0.00000000000E+00 0.  1.
         25    2    1    2    0    0  0.31526704265E+02  0.13480760728E+03 -0.46675575182E+03  0.50266888697E+03  0.12509218202E+03 0.  0.
          5    1    3    3  502    0  0.39888818050E+02  0.15583918218E+03 -0.37494847212E+03  0.40802058484E+03  0.41800000000E+01 0.  1.
         -5    1    3    3    0  502 -0.83621137853E+01 -0.21031574894E+02 -0.91807279698E+02  0.94648302124E+02  0.41800000000E+01 0.  1.
        -11    1    1    2    0    0 -0.26291764676E+02 -0.36189053034E+02 -0.14457238055E+02  0.47009745601E+02  0.00000000000E+00 0. -1.
         11    1    1    2    0    0 -0.52349395889E+01 -0.98618554250E+02 -0.20294931988E+03  0.22570212731E+03  0.00000000000E+00 0.  1.
</event>
<event>
 7    1  0.2420569E-009  0.1153159E+03  0.7561462E-02  0.1251031E+00
         -1   -1    0    0    0  501 -0.00000000000E+00  0.00000000000E+00  0.19308377011E+03  0.19308377011E+03  0.00000000000E+00 0.  1.
          1   -1    0    0  501    0  0.00000000000E+00 -0.00000000000E+00 -0.10821008337E+03  0.10821008337E+03  0.00000000000E+00 0. -1.
         25    2    1    2    0    0 -0.15221538226E+02 -0.94112469830E+02  0.50651240244E+02  0.16523017143E+03  0.12508640697E+03 0.  0.
          5    1    3    3  502    0  0.16488819912E+02 -0.81770404608E+02  0.83248109645E+02  0.11792370589E+03  0.41800000000E+01 0. -1.
         -5    1    3    3    0  502 -0.31710358138E+02 -0.12342065222E+02 -0.32596869400E+02  0.47306465540E+02  0.41800000000E+01 0. -1.
        -11    1    1    2    0    0  0.38721067939E+02  0.59637159748E+02 -0.13817438026E+02  0.72435029639E+02  0.00000000000E+00 0.  1.
         11    1    1    2    0    0 -0.23499529713E+02  0.34475310082E+02  0.48039884520E+02  0.63628652403E+02  0.00000000000E+00 0. -1.
</event>
<event>
 7    1  0.2420569E-009  0.2123077E+03  0.7561462E-02  0.1139751E+00
          1   -1    0    0  501    0  0.00000000000E+00  0.00000000000E+00  0.96329400379E+03  0.96329400379E+03  0.00000000000E+00 0. -1.
         -1   -1    0    0    0  501 -0.00000000000E+00 -0.00000000000E+00 -0.76797518611E+02  0.76797518611E+02  0.00000000000E+00 0.  1.
         25    2    1    2    0    0  0.19446188385E+03 -0.16255598905E+02  0.74965532661E+03  0.78467217415E+03  0.12509054086E+03 0.  0.
          5    1    3    3  502    0  0.21096191229E+03 -0.13832838530E+02  0.71983344397E+03  0.75024924879E+03  0.41800000000E+01 0.  1.
         -5    1    3    3    0  502 -0.16500028438E+02 -0.24227603750E+01  0.29821882635E+02  0.34422925358E+02  0.41800000000E+01 0.  1.
        -11    1    1    2    0    0 -0.95613178090E+02 -0.10243282144E+01  0.12037359828E+03  0.15372941240E+03  0.00000000000E+00 0.  1.
         11    1    1    2    0    0 -0.98848705761E+02  0.17279927119E+02  0.16467560294E+02  0.10168993585E+03  0.00000000000E+00 0. -1.
</event>
<event>
 7    1  0.2420569E-009  0.1144821E+03  0.7561462E-02  0.1252488E+00
         -2   -1    0    0    0  501 -0.00000000000E+00  0.00000000000E+00  0.13250723688E+02  0.13250723688E+02  0.00000000000E+00 0.  1.
          2   -1    0    0  501    0  0.00000000000E+00 -0.00000000000E+00 -0.15004008031E+04  0.15004008031E+04  0.00000000000E+00 0. -1.
         25    2    1    2    0    0  0.19360185683E+02  0.51859688314E+02 -0.11795963739E+04  0.11875017851E+04  0.12509452552E+03 0.  0.
          5    1    3    3  502    0  0.67203929856E+02  0.15361634878E+02 -0.43307617669E+03  0.43854850956E+03  0.41800000000E+01 0. -1.
         -5    1    3    3    0  502 -0.47843744172E+02  0.36498053436E+02 -0.74652019721E+03  0.74895327558E+03  0.41800000000E+01 0. -1.
        -11    1    1    2    0    0 -0.51888596858E+02 -0.26079486199E+02 -0.11113486042E+03  0.12539347385E+03  0.00000000000E+00 0.  1.
         11    1    1    2    0    0  0.32528411174E+02 -0.25780202115E+02 -0.19641884514E+03  0.20075626785E+03  0.00000000000E+00 0. -1.
</event>
<event>
 7    1  0.2420569E-009  0.2956623E+03  0.7561462E-02  0.1087429E+00
         -2   -1    0    0    0  501 -0.00000000000E+00  0.00000000000E+00  0.73464468075E+02  0.73464468075E+02  0.00000000000E+00 0.  1.
          2   -1    0    0  501    0  0.00000000000E+00 -0.00000000000E+00 -0.17029071684E+04  0.17029071684E+04  0.00000000000E+00 0. -1.
         25    2    1    2    0    0  0.28080682604E+03  0.22096745921E+01 -0.36158333094E+03  0.47460106332E+03  0.12508520249E+03 0.  0.
          5    1    3    3  502    0  0.22395904928E+03  0.49271329883E+02 -0.30447023641E+03  0.38118882061E+03  0.41800000000E+01 0. -1.
         -5    1    3    3    0  502  0.56847776757E+02 -0.47061655291E+02 -0.57113094536E+02  0.93412242711E+02  0.41800000000E+01 0. -1.
        -11    1    1    2    0    0 -0.84518377961E+02 -0.30256688650E+02 -0.27420605463E+03  0.28852692043E+03  0.00000000000E+00 0.  1.
         11    1    1    2    0    0 -0.19628844808E+03  0.28047014058E+02 -0.99365331473E+03  0.10132436527E+04  0.00000000000E+00 0. -1.
</event>
<event>
 7    1  0.2420569E-009  0.1571184E+03  0.7561462E-02  0.1191989E+00
          1   -1    0    0  501    0  0.00000000000E+00  0.00000000000E+00  0.26375952373E+03  0.26375952373E+03  0.00000000000E+00 0. -1.
         -1   -1    0    0    0  501 -0.00000000000E+00 -0.00000000000E+00 -0.11778755573E+03  0.11778755573E+03  0.00000000000E+00 0.  1.
         25    2    1    2    0    0 -0.12007062872E+03 -0.62075723249E+02  0.57881137583E+02  0.19304880571E+03  0.12508902430E+03 0.  0.
          5    1    3    3  502    0 -0.12912484791E+02  0.31120381464E+02  0.35672792133E+02  0.49246633433E+02  0.41800000000E+01 0. -1.
         -5    1    3    3    0  502 -0.10715814393E+03 -0.93196104713E+02  0.22208345450E+02  0.14380217228E+03  0.41800000000E+01 0. -1.
        -11    1    1    2    0    0  0.35893669141E+02  0.43868813907E+01 -0.18766876159E+02  0.40740592209E+02  0.00000000000E+00 0.  1.
         11    1    1    2    0    0  0.84176959582E+02  0.57688841858E+02  0.10685770658E+03  0.14775768154E+03  0.00000000000E+00 0. -1.
</event>
<event>
 7    1  0.2420569E-009  0.1072236E+03  0.7561462E-02  0.1265799E+00
         -1   -1    0    0    0  501 -0.00000000000E+00  0.00000000000E+00  0.22677312700E+02  0.22677312700E+02  0.00000000000E+00 0.  1.
          1   -1    0    0  501    0  0.00000000000E+00 -0.00000000000E+00 -0.85220476228E+03  0.85220476228E+03  0.00000000000E+00 0. -1.
         25    2    1    2    0    0  0.84070828950E+02  0.15943177404E+02 -0.42648500741E+03  0.45261433609E+03  0.12509271161E+03 0.  0.
          5    1    3    3  502    0  0.67054248536E+02  0.32893263566E+02 -0.98303153723E+02  0.12352822134E+03  0.41800000000E+01 0. -1.
         -5    1    3    3    0  502  0.17016580414E+02 -0.16950086161E+02 -0.32818185369E+03  0.32908611475E+03  0.41800000000E+01 0. -1.
        -11    1    1    2    0    0 -0.23949019577E+02 -0.43089211129E+02 -0.92711540766E+02  0.10500316874E+03  0.00000000000E+00 0.  1.
         11    1    1    2    0    0 -0.60121809372E+02  0.27146033725E+02 -0.31033090140E+03  0.31726457015E+03  0.00000000000E+00 0. -1.
</event>
<event>
 7    1  0.2420569E-009  0.1240480E+03  0.7561462E-02  0.1236565E+00
          1   -1    0    0  501    0  0.00000000000E+00  0.00000000000E+00  0.10309343899E+03  0.10309343899E+03  0.00000000000E+00 0. -1.
         -1   -1    0    0    0  501 -0.00000000000E+00 -0.00000000000E+00 -0.17811822148E+03  0.17811822148E+03  0.00000000000E+00 0.  1.
         25    2    1    2    0    0  0.56845200925E+02 -0.60012607543E+02 -0.45631912666E+02  0.15671065546E+03  0.12507225171E+03 0.  0.
          5    1    3    3  502    0 -0.30351293981E+02  0.51307142832E+01 -0.35717998524E+02  0.47336804856E+02  0.41800000000E+01 0.  1.
         -5    1    3    3    0  502  0.87196494906E+02 -0.65143321827E+02 -0.99139141422E+01  0.10937385060E+03  0.41800000000E+01 0.  1.
        -11    1    1    2    0    0 -0.69078003633E+02  0.29274578793E+02  0.69610919381E+01  0.75347384496E+02  0.00000000000E+00 0. -1.
         11    1    1    2    0    0  0.12232802709E+02  0.30738028751E+02 -0.36353961759E+02  0.49153620509E+02  0.00000000000E+00 0.  1.
</event>
<event>
 7    1  0.2420569E-009  0.9316340E+02  0.7561462E-02  0.1295367E+00
         -1   -1    0    0    0  501 -0.00000000000E+00  0.00000000000E+00  0.10737356144E+03  0.10737356144E+03  0.00000000000E+00 0.  1.
          1   -1    0    0  501    0  0.00000000000E+00 -0.00000000000E+00 -0.12334121279E+03  0.12334121279E+03  0.00000000000E+00 0. -1.
         25    2    1    2    0    0 -0.40923641093E+02 -0.24450915845E+01 -0.12432546717E+01  0.13166071040E+03  0.12510904886E+03 0.  0.
          5    1    3    3  502    0 -0.60321751585E+02  0.27690652911E+02 -0.40876412665E+02  0.78063048142E+02  0.41800000000E+01 0. -1.
         -5    1    3    3    0  502  0.19398110492E+02 -0.30135744495E+02  0.39633157993E+02  0.53597662257E+02  0.41800000000E+01 0. -1.
        -11    1    1    2    0    0 -0.84729305770E+01  0.27198422825E+02  0.19074990383E+02  0.34284107322E+02  0.00000000000E+00 0.  1.
         11    1    1    2    0    0  0.49396571670E+02 -0.24753331241E+02 -0.33799387068E+02  0.64769956511E+02  0.00000000000E+00 0. -1.
</event>
<event>
 7    1  0.2420569E-009  0.1090774E+03  0.7561462E-02  0.1262288E+00
         -4   -1    0    0    0  501 -0.00000000000E+00  0.00000000000E+00  0.11950548284E+04  0.11950548284E+04  0.00000000000E+00 0. -1.
          4   -1    0    0  501    0  0.00000000000E+00 -0.00000000000E+00 -0.11039378735E+02  0.11039378735E+02  0.00000000000E+00 0.  1.
         25    2    1    2    0    0  0.95762388602E+01  0.20224744239E+02  0.84352797897E+03  0.85304599278E+03  0.12508904775E+03 0.  0.
          5    1    3    3  502    0  0.63141187388E+02 -0.10192212505E+02  0.48892185707E+03  0.49310520730E+03  0.41800000000E+01 0.  1.
         -5    1    3    3    0  502 -0.53564948527E+02  0.30416956744E+02  0.35460612190E+03  0.35994078548E+03  0.41800000000E+01 0.  1.
        -11    1    1    2    0    0 -0.37939440609E+02 -0.41972580853E+02  0.18253099362E+03  0.19109856706E+03  0.00000000000E+00 0. -1.
         11    1    1    2    0    0  0.28363201749E+02  0.21747836614E+02  0.15795647704E+03  0.16194964726E+03  0.00000000000E+00 0.  1.
</event>
<event>
 7    1  0.2420569E-009  0.1184331E+03  0.7561462E-02  0.1245705E+00
          1   -1    0    0  501    0  0.00000000000E+00  0.00000000000E+00  0.17707365515E+04  0.17707365515E+04  0.00000000000E+00 0. -1.
         -1   -1    0    0    0  501 -0.00000000000E+00 -0.00000000000E+00 -0.23627271253E+02  0.23627271253E+02  0.00000000000E+00 0.  1.
         25    2    1    2    0    0 -0.36129770179E+02 -0.69706776591E+02  0.15883506863E+04  0.15952021363E+04  0.12509020055E+03 0.  0.
          5    1    3    3  502    0  0.14852555320E+02  0.20870019685E+02  0.74620219417E+03  0.74665342905E+03  0.41800000000E+01 0. -1.
         -5    1    3    3    0  502 -0.50982325499E+02 -0.90576796276E+02  0.84214849209E+03  0.84854870730E+03  0.41800000000E+01 0. -1.
        -11    1    1    2    0    0  0.11787097093E+02  0.79705564241E+02  0.70494110022E+02  0.10705761148E+03  0.00000000000E+00 0.  1.
         11    1    1    2    0    0  0.24342673086E+02 -0.99987876502E+01  0.88264483991E+02  0.92104074946E+02  0.00000000000E+00 0. -1.
</event>
<event>
 7    1  0.2420569E-009  0.1061733E+03  0.7561462E-02  0.1267825E+00
         -2   -1    0    0    0  501 -0.00000000000E+00  0.00000000000E+00  0.29645508908E+02  0.29645508908E+02  0.00000000000E+00 0.  1.
          2   -1    0    0  501    0  0.00000000000E+00 -0.00000000000E+00 -0.40827795697E+03  0.40827795697E+03  0.00000000000E+00 0. -1.
         25    2    1    2    0    0  0.16736113496E+02  0.56643560368E+01 -0.23509083236E+03  0.26688336323E+03  0.12508736022E+03 0.  0.
          5    1    3    3  502    0  0.14050248465E+02  0.64308839575E+02 -0.14465487808E+03  0.15898283707E+03  0.41800000000E+01 0.  1.
         -5    1    3    3    0  502  0.26858650313E+01 -0.58644483538E+02 -0.90435954277E+02  0.10790052616E+03  0.41800000000E+01 0.  1.
        -11    1    1    2    0    0 -0.51048471710E+02 -0.12478030701E+02 -0.11291696945E+03  0.12454673703E+03  0.00000000000E+00 0.  1.
         11    1    1    2    0    0  0.34312358214E+02  0.68136746646E+01 -0.30624646256E+02  0.46493365623E+02  0.00000000000E+00 0. -1.
</event>
<event>
 7    1  0.2420569E-009  0.1062432E+03  0.7561462E-02  0.1267689E+00
          3   -1    0    0  501    0  0.00000000000E+00  0.00000000000E+00  0.53791104352E+02  0.53791104352E+02  0.00000000000E+00 0. -1.
         -3   -1    0    0    0  501 -0.00000000000E+00 -0.00000000000E+00 -0.31648209072E+03  0.31648209072E+03  0.00000000000E+00 0.  1.
         25    2    1    2    0    0  0.57994971384E+02 -0.37640240901E+02 -0.11082327358E+03  0.18085506545E+03  0.12508617946E+03 0.  0.
          5    1    3    3  502    0  0.74630766077E+02 -0.32792987475E+02 -0.14507705875E+02  0.82904024043E+02  0.41800000000E+01 0. -1.
         -5    1    3    3    0  502 -0.16635794693E+02 -0.48472534259E+01 -0.96315567707E+02  0.97951041411E+02  0.41800000000E+01 0. -1.
        -11    1    1    2    0    0 -0.46267003714E+02 -0.22722465775E+02 -0.64131669653E+02  0.82278898486E+02  0.00000000000E+00 0.  1.
         11    1    1    2    0    0 -0.11727967669E+02  0.60362706676E+02 -0.87736043136E+02  0.10713923113E+03  0.00000000000E+00 0. -1.
</event>
<event>
 7    1  0.2420569E-009  0.1556184E+03  0.7561462E-02  0.1193734E+00
          3   -1    0    0  501    0  0.00000000000E+00  0.00000000000E+00  0.46457317217E+03  0.46457317217E+03  0.00000000000E+00 0. -1.
         -3   -1    0    0    0  501 -0.00000000000E+00 -0.00000000000E+00 -0.95984633448E+02  0.95984633448E+02  0.00000000000E+00 0.  1.
         25    2    1    2    0    0  0.77037441014E+02 -0.10905758200E+03  0.35409498287E+03  0.39857058163E+03  0.12508768180E+03 0.  0.
          5    1    3    3  502    0  0.10771541004E+03 -0.85190324213E+02  0.22448984676E+03  0.26319795706E+03  0.41800000000E+01 0. -1.
         -5    1    3    3    0  502 -0.30677969029E+02 -0.23867257782E+02  0.12960513611E+03  0.13537262457E+03  0.41800000000E+01 0. -1.
        -11    1    1    2    0    0 -0.47190555190E+02  0.81222635859E+02 -0.32818912179E+02  0.99504502771E+02  0.00000000000E+00 0.  1.
         11    1    1    2    0    0 -0.29846885824E+02  0.27834946136E+02  0.47312468032E+02  0.62482721220E+02  0.00000000000E+00 0. -1.
</event>
<event>
 7    1  0.2420569E-009  0.8982278E+02  0.7561462E-02  0.1303281E+00
          1   -1    0    0  501    0  0.00000000000E+00  0.00000000000E+00  0.55297419214E+03  0.55297419214E+03  0.00000000000E+00 0. -1.
         -1   -1    0    0    0  501 -0.00000000000E+00 -0.00000000000E+00 -0.31645951871E+02  0.31645951871E+02  0.00000000000E+00 0.  1.
         25    2    1    2    0    0 -0.70998272655E+01  0.12506671527E+02  0.45355757141E+03  0.47071149593E+03  0.12509203584E+03 0.  0.
          5    1    3    3  502    0 -0.48432781341E+02  0.93589967956E+01  0.39902881274E+03  0.40208803878E+03  0.41800000000E+01 0.  1.
         -5    1    3    3    0  502  0.41332954075E+02  0.31476747317E+01  0.54528758668E+02  0.68623457146E+02  0.41800000000E+01 0.  1.
        -11    1    1    2    0    0  0.38209752405E+02 -0.33607240809E+02  0.53128939185E+02  0.73567084980E+02  0.00000000000E+00 0. -1.
         11    1    1    2    0    0 -0.31109925139E+02  0.21100569281E+02  0.14641729676E+02  0.40341563109E+02  0.00000000000E+00 0.  1.
</event>
<event>
 7    1  0.2420569E-009  0.1097037E+03  0.7561462E-02  0.1261120E+00
         -3   -1    0    0    0  501 -0.00000000000E+00  0.00000000000E+00  0.15593334687E+03  0.15593334687E+03  0.00000000000E+00 0.  1.
          3   -1    0    0  501    0  0.00000000000E+00 -0.00000000000E+00 -0.10403779570E+03  0.10403779570E+03  0.00000000000E+00 0. -1.
         25    2    1    2    0    0  0.48694608934E+02 -0.43905877470E+02  0.36000442649E+02  0.14574959453E+03  0.12509205178E+03 0.  0.
          5    1    3    3  502    0  0.78178376240E+02 -0.42248787366E+02 -0.11458577933E+02  0.89697212630E+02  0.41800000000E+01 0.  1.
         -5    1    3    3    0  502 -0.29483767306E+02 -0.16570901048E+01  0.47459020583E+02  0.56052381901E+02  0.41800000000E+01 0.  1.
        -11    1    1    2    0    0 -0.14095753232E+02 -0.22032616636E+02  0.28516253922E+02  0.38695002168E+02  0.00000000000E+00 0.  1.
         11    1    1    2    0    0 -0.34598855702E+02  0.65938494106E+02 -0.12621145398E+02  0.75526545877E+02  0.00000000000E+00 0. -1.
</event>
<event>
 7    1  0.2420569E-009  0.7982203E+02  0.7561462E-02  0.1329557E+00
         -1   -1    0    0    0  501 -0.00000000000E+00  0.00000000000E+00  0.93781909705E+02  0.93781909705E+02  0.00000000000E+00 0.  1.
          1   -1    0    0  501    0  0.00000000000E+00 -0.00000000000E+00 -0.13444701095E+03  0.13444701095E+03  0.00000000000E+00 0. -1.
         25    2    1    2    0    0 -0.34883971555E+01  0.30407780487E+01  0.29170415287E+01  0.12520626582E+03  0.12508670842E+03 0.  0.
          5    1    3    3  502    0  0.43582951942E+02 -0.26542174257E+02 -0.31090602930E+02  0.59900406550E+02  0.41800000000E+01 0.  1.
         -5    1    3    3    0  502 -0.47071349098E+02  0.29582952306E+02  0.34007644459E+02  0.65305859267E+02  0.41800000000E+01 0.  1.
        -11    1    1    2    0    0  0.27875665517E+02 -0.46086494410E+01  0.20191372707E+02  0.34727279039E+02  0.00000000000E+00 0.  1.
         11    1    1    2    0    0 -0.24387268361E+02  0.15678713923E+01 -0.63773515484E+02  0.68295375802E+02  0.00000000000E+00 0. -1.
</event>
<event>
 7    1  0.2420569E-009  0.8028797E+02  0.7561462E-02  0.1328236E+00
         -2   -1    0    0    0  501 -0.00000000000E+00  0.00000000000E+00  0.10551820511E+03  0.10551820511E+03  0.00000000000E+00 0. -1.
          2   -1    0    0  501    0  0.00000000000E+00 -0.00000000000E+00 -0.15831216994E+03  0.15831216994E+03  0.00000000000E+00 0.  1.
         25    2    1    2    0    0  0.17243032440E+02  0.57181666630E+02 -0.10409204366E+02  0.13900950307E+03  0.12509286647E+03 0.  0.
          5    1    3    3  502    0 -0.18382133272E+01  0.15521971306E+02 -0.65363437682E+02  0.67336186461E+02  0.41800000000E+01 0.  1.
         -5    1    3    3    0  502  0.19081245768E+02  0.41659695324E+02  0.54954233316E+02  0.71673316610E+02  0.41800000000E+01 0.  1.
        -11    1    1    2    0    0 -0.44579584088E+02 -0.13012175965E+02 -0.54378218332E+02  0.71509766255E+02  0.00000000000E+00 0.  1.
         11    1    1    2    0    0  0.27336551648E+02 -0.44169490665E+02  0.11993457875E+02  0.53311105723E+02  0.00000000000E+00 0. -1.
</event>
<event>
 7    1  0.2420569E-009  0.1882270E+03  0.7561462E-02  0.1160070E+00
          1   -1    0    0  501    0  0.00000000000E+00  0.00000000000E+00  0.10071570904E+04  0.10071570904E+04  0.00000000000E+00 0. -1.
         -1   -1    0    0    0  501 -0.00000000000E+00 -0.00000000000E+00 -0.52889416062E+02  0.52889416062E+02  0.00000000000E+00 0.  1.
         25    2    1    2    0    0  0.14589238586E+03 -0.94975196165E+02  0.73376883344E+03  0.76444040230E+03  0.12509017391E+03 0.  0.
          5    1    3    3  502    0  0.67605359790E+02 -0.70147177123E+02  0.59654237368E+03  0.60445958270E+03  0.41800000000E+01 0.  1.
         -5    1    3    3    0  502  0.78287026072E+02 -0.24828019042E+02  0.13722645976E+03  0.15998081960E+03  0.41800000000E+01 0.  1.
        -11    1    1    2    0    0 -0.44805821435E+02  0.83770524513E+02  0.10022120268E+03  0.13809182408E+03  0.00000000000E+00 0.  1.
         11    1    1    2    0    0 -0.10108656443E+03  0.11204671652E+02  0.12027763825E+03  0.15751428011E+03  0.00000000000E+00 0. -1.
</event>
<event>
 7    1  0.2420569E-009  0.9732436E+02  0.7561462E-02  0.1286025E+00
         -4   -1    0    0    0  501 -0.00000000000E+00  0.00000000000E+00  0.59098686056E+02  0.59098686056E+02  0.00000000000E+00 0.  1.
          4   -1    0    0  501    0  0.00000000000E+00 -0.00000000000E+00 -0.24456473958E+03  0.24456473958E+03  0.00000000000E+00 0. -1.
         25    2    1    2    0    0  0.49929116764E+02  0.13081918704E+02 -0.92186927022E+02  0.16374334483E+03  0.12509756258E+03 0.  0.
          5    1    3    3  502    0 -0.39227024262E+02  0.13583780130E+02 -0.11145707321E+02  0.43185387653E+02  0.41800000000E+01 0. -1.
         -5    1    3    3    0  502  0.89156141026E+02 -0.50186142536E+00 -0.81041219701E+02  0.12055795717E+03  0.41800000000E+01 0. -1.
        -11    1    1    2    0    0 -0.34619364773E+02 -0.26274751382E+02 -0.10700197291E+03  0.11549149399E+03  0.00000000000E+00 0. -1.
         11    1    1    2    0    0 -0.15309751991E+02  0.13192832678E+02  0.13722846412E+02  0.24428586814E+02  0.00000000000E+00 0.  1.
</event>
<event>
 7    1  0.2420569E-009  0.1088226E+03  0.7561462E-02  0.1262766E+00
          2   -1    0    0  501    0  0.00000000000E+00  0.00000000000E+00  0.19514856318E+02  0.19514856318E+02  0.00000000000E+00 0. -1.
         -2   -1    0    0    0  501 -0.00000000000E+00 -0.00000000000E+00 -0.68856667948E+03  0.68856667948E+03  0.00000000000E+00 0.  1.
         25    2    1    2    0    0  0.65548606157E+01  0.24828973552E+02 -0.45183626406E+03  0.46953533544E+03  0.12509187657E+03 0.  0.
          5    1    3    3  502    0 -0.74617156285E+01  0.70778872712E+02 -0.34545644710E+03  0.35273638211E+03  0.41800000000E+01 0. -1.
         -5    1    3    3    0  502  0.14016576244E+02 -0.45949899161E+02 -0.10637981696E+03  0.11679895333E+03  0.41800000000E+01 0. -1.
        -11    1    1    2    0    0  0.43739359079E+02 -0.48299939790E+01 -0.85957858004E+02  0.96567146210E+02  0.00000000000E+00 0. -1.
         11    1    1    2    0    0 -0.50294219694E+02 -0.19998979572E+02 -0.13125770110E+03  0.14197905415E+03  0.00000000000E+00 0.  1.
</event>
<event>
 7    1  0.2420569E-009  0.1126251E+03  0.7561462E-02  0.1255784E+00
         -1   -1    0    0    0  501 -0.00000000000E+00  0.00000000000E+00  0.24490389377E+02  0.24490389377E+02  0.00000000000E+00 0.  1.
          1   -1    0    0  501    0  0.00000000000E+00 -0.00000000000E+00 -0.73439409733E+03  0.73439409733E+03  0.00000000000E+00 0. -1.
         25    2    1    2    0    0 -0.10517331168E+02 -0.77747151102E+02 -0.44056848823E+03  0.46465359565E+03  0.12508851815E+03 0.  0.
          5    1    3    3  502    0  0.31571727207E+02 -0.33839738525E+02 -0.45941896438E+02  0.65345482710E+02  0.41800000000E+01 0. -1.
         -5    1    3    3    0  502 -0.42089058375E+02 -0.43907412577E+02 -0.39462659179E+03  0.39930811294E+03  0.41800000000E+01 0. -1.
        -11    1    1    2    0    0  0.48048996167E+02  0.28390499922E+02 -0.14284575062E+03  0.15336112607E+03  0.00000000000E+00 0. -1.
         11    1    1    2    0    0 -0.37531664999E+02  0.49356651179E+02 -0.12648946911E+03  0.14086976499E+03  0.00000000000E+00 0.  1.
</event>
<event>
 7    1  0.2420569E-009  0.1696298E+03  0.7561462E-02  0.1178235E+00
          2   -1    0    0  501    0  0.00000000000E+00  0.00000000000E+00  0.14615306904E+03  0.14615306904E+03  0.00000000000E+00 0. -1.
         -2   -1    0    0    0  501 -0.00000000000E+00 -0.00000000000E+00 -0.23771987469E+03  0.23771987469E+03  0.00000000000E+00 0.  1.
         25    2    1    2    0    0  0.50267671435E+02 -0.14088405450E+03 -0.28698851729E+02  0.19709314249E+03  0.12508767774E+03 0.  0.
          5    1    3    3  502    0  0.30909674788E+02 -0.14110658428E+03  0.18704948282E+02  0.14571830226E+03  0.41800000000E+01 0. -1.
         -5    1    3    3    0  502  0.19357996647E+02  0.22252977729E+00 -0.47403800011E+02  0.51374840235E+02  0.41800000000E+01 0. -1.
        -11    1    1    2    0    0 -0.37908255596E+02  0.47010659292E+01 -0.59283477259E+01  0.38655933180E+02  0.00000000000E+00 0. -1.
         11    1    1    2    0    0 -0.12359415839E+02  0.13618298857E+03 -0.56939606194E+02  0.14812386806E+03  0.00000000000E+00 0.  1.
</event>
<event>
 7    1  0.2420569E-009  0.7272475E+02  0.7561462E-02  0.1351065E+00
          2   -1    0    0  501    0  0.00000000000E+00  0.00000000000E+00  0.95381575678E+02  0.95381575678E+02  0.00000000000E+00 0. -1.
         -2   -1    0    0    0  501 -0.00000000000E+00 -0.00000000000E+00 -0.19400936450E+03  0.19400936450E+03  0.00000000000E+00 0.  1.
         25    2    1    2    0    0 -0.26473963753E+02  0.29347297322E+02 -0.13014926190E+03  0.18479272606E+03  0.12508951440E+03 0.  0.
          5    1    3    3  502    0 -0.18841815067E+02  0.54219344383E+02 -0.59839537949E+01  0.57862175930E+02  0.41800000000E+01 0. -1.
         -5    1    3    3    0  502 -0.76321486863E+01 -0.24872047061E+02 -0.12416530811E+03  0.12693055013E+03  0.41800000000E+01 0. -1.
        -11    1    1    2    0    0  0.35866925994E+01 -0.37183158683E+02 -0.23748654583E+02  0.44265677991E+02  0.00000000000E+00 0.  1.
         11    1    1    2    0    0  0.22887271154E+02  0.78358613609E+01  0.55270127662E+02  0.60332536130E+02  0.00000000000E+00 0. -1.
</event>
<event>
 7    1  0.2420569E-009  0.9622185E+02  0.7561462E-02  0.1288448E+00
         -1   -1    0    0    0  501 -0.00000000000E+00  0.00000000000E+00  0.48637298847E+03  0.48637298847E+03  0.00000000000E+00 0.  1.
          1   -1    0    0  501    0  0.00000000000E+00 -0.00000000000E+00 -0.34573644603E+02  0.34573644603E+02  0.00000000000E+00 0. -1.
         25    2    1    2    0    0 -0.22064249160E+02 -0.36360906403E+02  0.13773165270E+03  0.19085683530E+03  0.12508947525E+03 0.  0.
          5    1    3    3  502    0 -0.38115132492E+01  0.28727199759E+02  0.11613481299E+03  0.11976872225E+03  0.41800000000E+01 0.  1.
         -5    1    3    3    0  502 -0.18252735910E+02 -0.65088106161E+02  0.21596839702E+02  0.71088113050E+02  0.41800000000E+01 0.  1.
        -11    1    1    2    0    0 -0.16356348198E+02  0.51580296342E+02  0.23172328902E+03  0.23795743268E+03  0.00000000000E+00 0.  1.
         11    1    1    2    0    0  0.38420597357E+02 -0.15219389939E+02  0.82344402150E+02  0.92132365089E+02  0.00000000000E+00 0. -1.
</event>
<event>
 7    1  0.2420569E-009  0.1102841E+03  0.7561462E-02  0.1260045E+00
          2   -1    0    0  501    0  0.00000000000E+00  0.00000000000E+00  0.61613138713E+03  0.61613138713E+03  0.00000000000E+00 0.  1.
         -2   -1    0    0    0  501 -0.00000000000E+00 -0.00000000000E+00 -0.20672190725E+02  0.20672190725E+02  0.00000000000E+00 0. -1.
         25    2    1    2    0    0  0.31599304108E+02  0.14296300654E+02  0.33136144694E+03  0.35587425679E+03  0.12507269044E+03 0.  0.
          5    1    3    3  502    0  0.70539717760E+02  0.36973332167E+02  0.16194433724E+03  0.18051681317E+03  0.41800000000E+01 0. -1.
         -5    1    3    3    0  502 -0.38940413652E+02 -0.22677031513E+02  0.16941710969E+03  0.17535744361E+03  0.41800000000E+01 0. -1.
        -11    1    1    2    0    0 -0.58114852306E+02  0.10733318799E+02  0.17239629389E+03  0.18224440276E+03  0.00000000000E+00 0. -1.
         11    1    1    2    0    0  0.26515548198E+02 -0.25029619452E+02  0.91701455580E+02  0.98684918309E+02  0.00000000000E+00 0.  1.
</event>
<event>
 7    1  0.2420569E-009  0.1039944E+03  0.7561462E-02  0.1272114E+00
         -1   -1    0    0    0  501 -0.00000000000E+00  0.00000000000E+00  0.16145773086E+03  0.16145773086E+03  0.00000000000E+00 0.  1.
          1   -1    0    0  501    0  0.00000000000E+00 -0.00000000000E+00 -0.26262228758E+03  0.26262228758E+03  0.00000000000E+00 0. -1.
         25    2    1    2    0    0  0.16205111783E+02 -0.79586920795E+02 -0.21225516690E+03  0.25941615706E+03  0.12509117898E+03 0.  0.
          5    1    3    3  502    0 -0.16854103362E+01 -0.73733800245E+02 -0.36120916149E+02  0.82229598625E+02  0.41800000000E+01 0. -1.
         -5    1    3    3    0  502  0.17890522119E+02 -0.58531205494E+01 -0.17613425075E+03  0.17718655843E+03  0.41800000000E+01 0. -1.
        -11    1    1    2    0    0 -0.46384001000E+02  0.68411623970E+02  0.52797494508E+02  0.98077526831E+02  0.00000000000E+00 0.  1.
         11    1    1    2    0    0  0.30178889217E+02  0.11175296825E+02  0.58293115670E+02  0.66586334544E+02  0.00000000000E+00 0. -1.
</event>
<event>
 7    1  0.2420569E-009  0.1037601E+03  0.7561462E-02  0.1272582E+00
         -1   -1    0    0    0  501 -0.00000000000E+00  0.00000000000E+00  0.57301904135E+03  0.57301904135E+03  0.00000000000E+00 0.  1.
          1   -1    0    0  501    0  0.00000000000E+00 -0.00000000000E+00 -0.24233497411E+02  0.24233497411E+02  0.00000000000E+00 0. -1.
         25    2    1    2    0    0 -0.14983078693E+01 -0.40843075910E+02  0.26432498717E+03  0.29527139652E+03  0.12508835671E+03 0.  0.
          5    1    3    3  502    0  0.48996999305E+02 -0.32544896277E+02  0.58217258925E+02  0.82864937407E+02  0.41800000000E+01 0. -1.
         -5    1    3    3    0  502 -0.50495307175E+02 -0.82981796328E+01  0.20610772825E+03  0.21240645912E+03  0.41800000000E+01 0. -1.
        -11    1    1    2    0    0  0.26715262529E+02  0.59908330792E+02  0.22827586037E+03  0.23751332969E+03  0.00000000000E+00 0.  1.
         11    1    1    2    0    0 -0.25216954659E+02 -0.19065254882E+02  0.56184696395E+02  0.64467812550E+02  0.00000000000E+00 0. -1.
</event>
<event>
 7    1  0.2420569E-009  0.9968424E+02  0.7561462E-02  0.1280961E+00
          1   -1    0    0  501    0  0.00000000000E+00  0.00000000000E+00  0.63098574330E+02  0.63098574330E+02  0.00000000000E+00 0. -1.
         -1   -1    0    0    0  501 -0.00000000000E+00 -0.00000000000E+00 -0.24839800450E+03  0.24839800450E+03  0.00000000000E+00 0.  1.
         25    2    1    2    0    0 -0.13384753597E+02 -0.31620814762E+02 -0.16934894903E+03  0.21332013116E+03  0.12508950503E+03 0.  0.
          5    1    3    3  502    0 -0.31085409876E+02 -0.74098990223E+02 -0.12866882988E+03  0.15175672387E+03  0.41800000000E+01 0. -1.
         -5    1    3    3    0  502  0.17700656279E+02  0.42478175461E+02 -0.40680119150E+02  0.61563407291E+02  0.41800000000E+01 0. -1.
        -11    1    1    2    0    0  0.39144829112E+02  0.23636725745E+02  0.22696062436E+02  0.51050207642E+02  0.00000000000E+00 0. -1.
         11    1    1    2    0    0 -0.25760075515E+02  0.79840890169E+01 -0.38646543581E+02  0.47126240023E+02  0.00000000000E+00 0.  1.
</event>
<event>
 7    1  0.2420569E-009  0.1834304E+03  0.7561462E-02  0.1164524E+00
          2   -1    0    0  501    0  0.00000000000E+00  0.00000000000E+00  0.13069573330E+04  0.13069573330E+04  0.00000000000E+00 0. -1.
         -2   -1    0    0    0  501 -0.00000000000E+00 -0.00000000000E+00 -0.44752532156E+02  0.44752532156E+02  0.00000000000E+00 0.  1.
         25    2    1    2    0    0 -0.12160439784E+03 -0.84713664131E+02  0.10862283750E+04  0.11034057249E+04  0.12509227207E+03 0.  0.
          5    1    3    3  502    0 -0.63097281532E+02  0.24434446744E+02  0.46772153000E+03  0.47260894104E+03  0.41800000000E+01 0. -1.
         -5    1    3    3    0  502 -0.58507116305E+02 -0.10914811087E+03  0.61850684500E+03  0.63079678382E+03  0.41800000000E+01 0. -1.
        -11    1    1    2    0    0  0.10595326406E+03  0.19046770739E+02  0.10633182010E+03  0.15131202731E+03  0.00000000000E+00 0.  1.
         11    1    1    2    0    0  0.15651133776E+02  0.65666893392E+02  0.69644605783E+02  0.96992113034E+02  0.00000000000E+00 0. -1.
</event>
<event>
 7    1  0.2420569E-009  0.1120281E+03  0.7561462E-02  0.1256860E+00
          3   -1    0    0  501    0  0.00000000000E+00  0.00000000000E+00  0.84289106678E+03  0.84289106678E+03  0.00000000000E+00 0. -1.
         -3   -1    0    0    0  501 -0.00000000000E+00 -0.00000000000E+00 -0.24959925738E+02  0.24959925738E+02  0.00000000000E+00 0.  1.
         25    2    1    2    0    0 -0.59189183942E+02 -0.45913998289E+02  0.62371225129E+03  0.64052777108E+03  0.12508956143E+03 0.  0.
          5    1    3    3  502    0 -0.93479619307E+02 -0.55301213565E+02  0.50352292013E+03  0.51512082751E+03  0.41800000000E+01 0. -1.
         -5    1    3    3    0  502  0.34290435365E+02  0.93872152758E+01  0.12018933117E+03  0.12540694357E+03  0.41800000000E+01 0. -1.
        -11    1    1    2    0    0  0.25691331245E+02  0.41438012385E+01  0.17108689120E+00  0.26023928615E+02  0.00000000000E+00 0.  1.
         11    1    1    2    0    0  0.33497852697E+02  0.41770197051E+02  0.19404780286E+03  0.20129929282E+03  0.00000000000E+00 0. -1.
</event>
<event>
 7    1  0.2420569E-009  0.7792524E+02  0.7561462E-02  0.1335045E+00
         -1   -1    0    0    0  501 -0.00000000000E+00  0.00000000000E+00  0.10689825131E+03  0.10689825131E+03  0.00000000000E+00 0.  1.
          1   -1    0    0  501    0  0.00000000000E+00 -0.00000000000E+00 -0.11796020716E+03  0.11796020716E+03  0.00000000000E+00 0. -1.
         25    2    1    2    0    0 -0.27327942680E+02 -0.41532869333E+01 -0.22857425761E+02  0.13014666329E+03  0.12510645790E+03 0.  0.
          5    1    3    3  502    0 -0.30395332848E+02  0.32542649439E+02 -0.61866180898E+02  0.76340009369E+02  0.41800000000E+01 0.  1.
         -5    1    3    3    0  502  0.30673901681E+01 -0.36695936373E+02  0.39008755138E+02  0.53806653920E+02  0.41800000000E+01 0.  1.
        -11    1    1    2    0    0 -0.10425900877E+01 -0.29800150856E+02 -0.23617985933E+02  0.38038733479E+02  0.00000000000E+00 0. -1.
         11    1    1    2    0    0  0.28370532767E+02  0.33953437789E+02  0.35413455847E+02  0.56673061698E+02  0.00000000000E+00 0.  1.
</event>
<event>
 7    1  0.2420569E-009  0.1912429E+03  0.7561462E-02  0.1157345E+00
          1   -1    0    0  501    0  0.00000000000E+00  0.00000000000E+00  0.69583561709E+03  0.69583561709E+03  0.00000000000E+00 0. -1.
         -1   -1    0    0    0  501 -0.00000000000E+00 -0.00000000000E+00 -0.56971823210E+02  0.56971823210E+02  0.00000000000E+00 0.  1.
         25    2    1    2    0    0 -0.14533958761E+03  0.81121659989E+02  0.29714808651E+03  0.36283415779E+03  0.12508925330E+03 0.  0.
          5    1    3    3  502    0  0.15125101636E+02 -0.13734078444E+02  0.20673770163E+02  0.29364447602E+02  0.41800000000E+01 0.  1.
         -5    1    3    3    0  502 -0.16046468925E+03  0.94855738433E+02  0.27647431635E+03  0.33346971019E+03  0.41800000000E+01 0.  1.
        -11    1    1    2    0    0  0.23451227266E+02 -0.40321932319E+02  0.37953240461E+02  0.60135403447E+02  0.00000000000E+00 0.  1.
         11    1    1    2    0    0  0.12188836035E+03 -0.40799727670E+02  0.30376246690E+03  0.32983787906E+03  0.00000000000E+00 0. -1.
</event>
<event>
 7    1  0.2420569E-009  0.1252482E+03  0.7561462E-02  0.1234682E+00
         -2   -1    0    0    0  501 -0.00000000000E+00  0.00000000000E+00  0.13206960668E+03  0.13206960668E+03  0.00000000000E+00 0.  1.
          2   -1    0    0  501    0  0.00000000000E+00 -0.00000000000E+00 -0.15559220283E+03  0.15559220283E+03  0.00000000000E+00 0. -1.
         25    2    1    2    0    0 -0.25367959335E+02 -0.87750491444E+02  0.10735425431E+02  0.15526648265E+03  0.12509496059E+03 0.  0.
          5    1    3    3  502    0  0.17395236911E+02  0.23924063668E+02  0.18871495567E+02  0.35334980324E+02  0.41800000000E+01 0. -1.
         -5    1    3    3    0  502 -0.42763196245E+02 -0.11167455511E+03 -0.81360701358E+01  0.11993150232E+03  0.41800000000E+01 0. -1.
        -11    1    1    2    0    0 -0.61850112050E+01  0.55520027198E+02 -0.58750599581E+02  0.81070097661E+02  0.00000000000E+00 0. -1.
         11    1    1    2    0    0  0.31552970540E+02  0.32230464246E+02  0.24492578002E+02  0.51325229202E+02  0.00000000000E+00 0.  1.
</event>
<event>
 7    1  0.2420569E-009  0.2833299E+03  0.7561462E-02  0.1093884E+00
         -2   -1    0    0    0  501 -0.00000000000E+00  0.00000000000E+00  0.74303809089E+02  0.74303809089E+02  0.00000000000E+00 0.  1.
          2   -1    0    0  501    0  0.00000000000E+00 -0.00000000000E+00 -0.15445230716E+04  0.15445230716E+04  0.00000000000E+00 0. -1.
         25    2    1    2    0    0  0.27268885163E+03  0.21458140895E+02 -0.11480382803E+04  0.11867850372E+04  0.12508864784E+03 0.  0.
          5    1    3    3  502    0  0.54611921934E+02  0.34081967852E+02 -0.12485901710E+03  0.14053927957E+03  0.41800000000E+01 0.  1.
         -5    1    3    3    0  502  0.21807692970E+03 -0.12623826958E+02 -0.10231792632E+04  0.10462457576E+04  0.41800000000E+01 0.  1.
        -11    1    1    2    0    0 -0.11427231100E+03 -0.46337303250E+02 -0.17705664629E+03  0.21576460027E+03  0.00000000000E+00 0.  1.
         11    1    1    2    0    0 -0.15841654063E+03  0.24879162356E+02 -0.14512433589E+03  0.21627724322E+03  0.00000000000E+00 0. -1.
</event>
<event>
 7    1  0.2420569E-009  0.9716024E+02  0.7561462E-02  0.1286383E+00
          1   -1    0    0  501    0  0.00000000000E+00  0.00000000000E+00  0.10538553380E+04  0.10538553380E+04  0.00000000000E+00 0.  1.
         -1   -1    0    0    0  501 -0.00000000000E+00 -0.00000000000E+00 -0.14500154793E+02  0.14500154793E+02  0.00000000000E+00 0. -1.
         25    2    1    2    0    0 -0.40941850264E+02  0.30958106965E+02  0.76191597732E+03  0.77382061969E+03  0.12509098878E+03 0.  0.
          5    1    3    3  502    0 -0.34480569866E+02  0.62097925944E+02  0.22577868282E+03  0.23672462509E+03  0.41800000000E+01 0. -1.
         -5    1    3    3    0  502 -0.64612803984E+01 -0.31139818979E+02  0.53613729450E+03  0.53709599461E+03  0.41800000000E+01 0. -1.
        -11    1    1    2    0    0  0.28525578199E+02 -0.56164807394E+02  0.13019751849E+03  0.14463605367E+03  0.00000000000E+00 0. -1.
         11    1    1    2    0    0  0.12416272065E+02  0.25206700429E+02  0.14724168740E+03  0.14989881943E+03  0.00000000000E+00 0.  1.
</event>
<event>
 7    1  0.2420569E-009  0.1249748E+03  0.7561462E-02  0.1235109E+00
         -1   -1    0    0    0  501 -0.00000000000E+00  0.00000000000E+00  0.13086957471E+03  0.13086957471E+03  0.00000000000E+00 0.  1.
          1   -1    0    0  501    0  0.00000000000E+00 -0.00000000000E+00 -0.12714186475E+03  0.12714186475E+03  0.00000000000E+00 0. -1.
         25    2    1    2    0    0  0.42479351885E+02  0.45055906284E+02 -0.28004570050E+02  0.14235423817E+03  0.12508374456E+03 0.  0.
          5    1    3    3  502    0  0.22665791242E+02  0.88299739099E+02 -0.24423911265E+02  0.94470005076E+02  0.41800000000E+01 0.  1.
         -5    1    3    3    0  502  0.19813560643E+02 -0.43243832815E+02 -0.35806587848E+01  0.47884233096E+02  0.41800000000E+01 0.  1.
        -11    1    1    2    0    0 -0.61976960360E+02 -0.14113636198E+00  0.21773142956E+02  0.65690435294E+02  0.00000000000E+00 0. -1.
         11    1    1    2    0    0  0.19497608474E+02 -0.44914769922E+02  0.99591370487E+01  0.49966765996E+02  0.00000000000E+00 0.  1.
</event>
<event>
 7    1  0.2420569E-009  0.8906740E+02  0.7561462E-02  0.1305126E+00
          1   -1    0    0  501    0  0.00000000000E+00  0.00000000000E+00  0.37428499160E+03  0.37428499160E+03  0.00000000000E+00 0. -1.
         -1   -1    0    0    0  501 -0.00000000000E+00 -0.00000000000E+00 -0.87899729869E+02  0.87899729869E+02  0.00000000000E+00 0.  1.
         25    2    1    2    0    0 -0.34872940441E+02  0.25600898200E+02  0.32699110769E+03  0.35276332187E+03  0.12508896348E+03 0.  0.
          5    1    3    3  502    0  0.65873685121E+01  0.42655053533E+02  0.29340311506E+03  0.29659013359E+03  0.41800000000E+01 0.  1.
         -5    1    3    3    0  502 -0.41460308953E+02 -0.17054155334E+02  0.33587992635E+02  0.56173188283E+02  0.41800000000E+01 0.  1.
        -11    1    1    2    0    0 -0.22981120636E+02 -0.21947281332E+02 -0.40465846231E+02  0.51451917114E+02  0.00000000000E+00 0.  1.
         11    1    1    2    0    0  0.57854061078E+02 -0.36536168672E+01 -0.13999973307E+00  0.57969482483E+02  0.00000000000E+00 0. -1.
</event>
<event>
 7    1  0.2420569E-009  0.1628316E+03  0.7561462E-02  0.1185536E+00
          2   -1    0    0  501    0  0.00000000000E+00  0.00000000000E+00  0.12062349826E+04  0.12062349826E+04  0.00000000000E+00 0. -1.
         -2   -1    0    0    0  501 -0.00000000000E+00 -0.00000000000E+00 -0.26392838583E+02  0.26392838583E+02  0.00000000000E+00 0.  1.
         25    2    1    2    0    0  0.11830259605E+03 -0.48162393295E+02  0.81909605926E+03  0.83837922023E+03  0.12508494017E+03 0.  0.
          5    1    3    3  502    0 -0.41932386307E+01  0.29621831520E+02  0.88865183987E+02  0.93859093741E+02  0.41800000000E+01 0. -1.
         -5    1    3    3    0  502  0.12249583468E+03 -0.77784224816E+02  0.73023087527E+03  0.74452012649E+03  0.41800000000E+01 0. -1.
        -11    1    1    2    0    0 -0.44868889576E+02  0.61018204993E+02  0.24613479032E+03  0.25752431652E+03  0.00000000000E+00 0.  1.
         11    1    1    2    0    0 -0.73433706476E+02 -0.12855811697E+02  0.11461129442E+03  0.13672428442E+03  0.00000000000E+00 0. -1.
</event>
<event>
 7    1  0.2420569E-009  0.1314382E+03  0.7561462E-02  0.1225337E+00
          4   -1    0    0  501    0  0.00000000000E+00  0.00000000000E+00  0.28730755309E+03  0.28730755309E+03  0.00000000000E+00 0.  1.
         -4   -1    0    0    0  501 -0.00000000000E+00 -0.00000000000E+00 -0.84371577027E+02  0.84371577027E+02  0.00000000000E+00 0. -1.
         25    2    1    2    0    0 -0.83864024465E+02  0.66687142685E+02  0.14832559108E+03  0.22165278464E+03  0.12509646825E+03 0.  0.
          5    1    3    3  502    0 -0.94877863201E+02  0.44422777774E+02  0.42939305334E+02  0.11329805141E+03  0.41800000000E+01 0.  1.
         -5    1    3    3    0  502  0.11013838736E+02  0.22264364911E+02  0.10538628575E+03  0.10835473323E+03  0.41800000000E+01 0.  1.
        -11    1    1    2    0    0 -0.15150847754E+01 -0.44634922478E+02  0.41331402036E+02  0.60851101722E+02  0.00000000000E+00 0.  1.
         11    1    1    2    0    0  0.85379109240E+02 -0.22052220207E+02  0.13278982940E+02  0.89175243754E+02  0.00000000000E+00 0. -1.
</event>
<event>
 7    1  0.2420569E-009  0.3522956E+03  0.7561462E-02  0.1061677E+00
         -1   -1    0    0    0  501 -0.00000000000E+00  0.00000000000E+00  0.97822653920E+02  0.97822653920E+02  0.00000000000E+00 0.  1.
          1   -1    0    0  501    0  0.00000000000E+00 -0.00000000000E+00 -0.18708458813E+04  0.18708458813E+04  0.00000000000E+00 0. -1.
         25    2    1    2    0    0 -0.22760469625E+03  0.26695027709E+03 -0.13994582471E+04  0.14481705881E+04  0.12509324007E+03 0.  0.
          5    1    3    3  502    0 -0.82811942730E+02  0.10001603414E+03 -0.30332312138E+03  0.32997486769E+03  0.41800000000E+01 0.  1.
         -5    1    3    3    0  502 -0.14479275352E+03  0.16693424295E+03 -0.10961351257E+04  0.11181957204E+04  0.41800000000E+01 0.  1.
        -11    1    1    2    0    0  0.18553315974E+03 -0.18764480456E+03 -0.22436180200E+03  0.34636879802E+03  0.00000000000E+00 0.  1.
         11    1    1    2    0    0  0.42071536510E+02 -0.79305472529E+02 -0.14920317835E+03  0.17412914916E+03  0.00000000000E+00 0. -1.
</event>
<event>
 7    1  0.2420569E-009  0.1751785E+03  0.7561462E-02  0.1172553E+00
          1   -1    0    0  501    0  0.00000000000E+00  0.00000000000E+00  0.74073038139E+03  0.74073038139E+03  0.00000000000E+00 0. -1.
         -1   -1    0    0    0  501 -0.00000000000E+00 -0.00000000000E+00 -0.52434392642E+02  0.52434392642E+02  0.00000000000E+00 0.  1.
         25    2    1    2    0    0 -0.14697562398E+03 -0.49218978801E+02  0.46707345001E+03  0.50776966014E+03  0.12509227850E+03 0.  0.
          5    1    3    3  502    0 -0.16100639727E+03 -0.47503188726E+02  0.46295061597E+03  0.49246356021E+03  0.41800000000E+01 0.  1.
         -5    1    3    3    0  502  0.14030773292E+02 -0.17157900752E+01  0.41228340332E+01  0.15306099935E+02  0.41800000000E+01 0.  1.
        -11    1    1    2    0    0  0.68477045777E+02 -0.10217274611E+02  0.14567183912E+03  0.16128788923E+03  0.00000000000E+00 0.  1.
         11    1    1    2    0    0  0.78498578206E+02  0.59436253413E+02  0.75550699624E+02  0.12410722466E+03  0.00000000000E+00 0. -1.
</event>
<event>
 7    1  0.2447530E-009  0.1460150E+03  0.7561462E-02  0.1205457E+00
          2   -1    0    0  501    0  0.00000000000E+00  0.00000000000E+00  0.10627026692E+04  0.10627026692E+04  0.00000000000E+00 0. -1.
         -2   -1    0    0    0  501 -0.00000000000E+00 -0.00000000000E+00 -0.27028038294E+02  0.27028038294E+02  0.00000000000E+00 0.  1.
         25    2    1    2    0    0  0.10393214574E+03  0.48291160128E+02  0.74793695906E+03  0.76693655741E+03  0.12509221116E+03 0.  0.
          5    1    3    3  502    0  0.11877350074E+03  0.53985636376E+02  0.73360876839E+03  0.74513145879E+03  0.41800000000E+01 0. -1.
         -5    1    3    3    0  502 -0.14841355000E+02 -0.56944762479E+01  0.14328190669E+02  0.21805098620E+02  0.41800000000E+01 0. -1.
        -11    1    1    2    0    0 -0.20997772142E+02 -0.57881418542E+02  0.10178047504E+03  0.11895558056E+03  0.00000000000E+00 0.  1.
         11    1    1    2    0    0 -0.82934373601E+02  0.95902584131E+01  0.18595719678E+03  0.20383856950E+03  0.00000000000E+00 0. -1.
</event>
<event>
 7    1  0.2420569E-009  0.1306101E+03  0.7561462E-02  0.1226553E+00
         -1   -1    0    0    0  501 -0.00000000000E+00  0.00000000000E+00  0.56349625545E+02  0.56349625545E+02  0.00000000000E+00 0.  1.
          1   -1    0    0  501    0  0.00000000000E+00 -0.00000000000E+00 -0.40844975396E+03  0.40844975396E+03  0.00000000000E+00 0. -1.
         25    2    1    2    0    0  0.92084202492E+02  0.42113637182E+01 -0.11086014173E+03  0.19087219339E+03  0.12507992345E+03 0.  0.
          5    1    3    3  502    0  0.50196206828E+02 -0.57487542272E+02 -0.78210247330E+02  0.10935626129E+03  0.41800000000E+01 0. -1.
         -5    1    3    3    0  502  0.41887995664E+02  0.61698905990E+02 -0.32649894402E+02  0.81515932097E+02  0.41800000000E+01 0. -1.
        -11    1    1    2    0    0 -0.63428659512E+02 -0.31239918987E+02 -0.21567078080E+03  0.22696478378E+03  0.00000000000E+00 0. -1.
         11    1    1    2    0    0 -0.28655542980E+02  0.27028555269E+02 -0.25569205878E+02  0.46962402330E+02  0.00000000000E+00 0.  1.
</event>
<event>
 7    1  0.2420569E-009  0.9082772E+02  0.7561462E-02  0.1300860E+00
          1   -1    0    0  501    0  0.00000000000E+00  0.00000000000E+00  0.95288190098E+02  0.95288190098E+02  0.00000000000E+00 0. -1.
         -1   -1    0    0    0  501 -0.00000000000E+00 -0.00000000000E+00 -0.14427867597E+03  0.14427867597E+03  0.00000000000E+00 0.  1.
         25    2    1    2    0    0  0.41802098328E+02 -0.11917179475E+02 -0.18074893486E+02  0.13365640435E+03  0.12509155870E+03 0.  0.
          5    1    3    3  502    0 -0.24901764839E+02 -0.49910924082E+01  0.38165252809E+02  0.46033333765E+02  0.41800000000E+01 0.  1.
         -5    1    3    3    0  502  0.66703863167E+02 -0.69260870668E+01 -0.56240146295E+02  0.87623070585E+02  0.41800000000E+01 0.  1.
        -11    1    1    2    0    0 -0.58440141437E+01  0.41654613427E+02  0.10683588208E+02  0.43398137956E+02  0.00000000000E+00 0. -1.
         11    1    1    2    0    0 -0.35958084184E+02 -0.29737433952E+02 -0.41599180599E+02  0.62512323767E+02  0.00000000000E+00 0.  1.
</event>
<event>
 7    1  0.2420569E-009  0.9688068E+02  0.7561462E-02  0.1286996E+00
          2   -1    0    0  501    0  0.00000000000E+00  0.00000000000E+00  0.13435373087E+04  0.13435373087E+04  0.00000000000E+00 0. -1.
         -2   -1    0    0    0  501 -0.00000000000E+00 -0.00000000000E+00 -0.11195545006E+02  0.11195545006E+02  0.00000000000E+00 0.  1.
         25    2    1    2    0    0  0.78507953808E+01 -0.11030293631E+02  0.10255049816E+04  0.10331944096E+04  0.12508764258E+03 0.  0.
          5    1    3    3  502    0  0.43510744489E+02  0.23971217514E+02  0.19827652924E+03  0.20444769161E+03  0.41800000000E+01 0.  1.
         -5    1    3    3    0  502 -0.35659949109E+02 -0.35001511145E+02  0.82722845240E+03  0.82874671801E+03  0.41800000000E+01 0.  1.
        -11    1    1    2    0    0 -0.69703247766E+01  0.52162060784E+02  0.20637068223E+03  0.21297493866E+03  0.00000000000E+00 0. -1.
         11    1    1    2    0    0 -0.88047060420E+00 -0.41131767153E+02  0.10046609981E+03  0.10856350541E+03  0.00000000000E+00 0.  1.
</event>
<event>
 7    1  0.2420569E-009  0.1162975E+03  0.7561462E-02  0.1249333E+00
         -4   -1    0    0    0  501 -0.00000000000E+00  0.00000000000E+00  0.47996858314E+02  0.47996858314E+02  0.00000000000E+00 0. -1.
          4   -1    0    0  501    0  0.00000000000E+00 -0.00000000000E+00 -0.30133421102E+03  0.30133421102E+03  0.00000000000E+00 0.  1.
         25    2    1    2    0    0  0.45970002377E+02 -0.24948828506E+02 -0.15312318822E+03  0.20453079848E+03  0.12510176495E+03 0.  0.
          5    1    3    3  502    0 -0.22430235528E+02 -0.50881758934E+02 -0.98319054100E+02  0.11303175508E+03  0.41800000000E+01 0. -1.
         -5    1    3    3    0  502  0.68400237905E+02  0.25932930428E+02 -0.54804134124E+02  0.91499043400E+02  0.41800000000E+01 0. -1.
        -11    1    1    2    0    0 -0.65680623227E+02  0.41610279985E+02 -0.83267427224E+02  0.11392464222E+03  0.00000000000E+00 0.  1.
         11    1    1    2    0    0  0.19710620850E+02 -0.16661451478E+02 -0.16946737254E+02  0.30875628629E+02  0.00000000000E+00 0. -1.
</event>
<event>
 7    1  0.2420569E-009  0.7877447E+02  0.7561462E-02  0.1332566E+00
         -2   -1    0    0    0  501 -0.00000000000E+00  0.00000000000E+00  0.31443908954E+03  0.31443908954E+03  0.00000000000E+00 0.  1.
          2   -1    0    0  501    0  0.00000000000E+00 -0.00000000000E+00 -0.39630706983E+02  0.39630706983E+02  0.00000000000E+00 0. -1.
         25    2    1    2    0    0  0.22465268129E+02 -0.81331807579E+01  0.16718856761E+03  0.21016608514E+03  0.12508768645E+03 0.  0.
          5    1    3    3  502    0 -0.11548503663E+02 -0.23042476041E+02 -0.10829139884E+02  0.28267760958E+02  0.41800000000E+01 0.  1.
         -5    1    3    3    0  502  0.34013771792E+02  0.14909295283E+02  0.17801770750E+03  0.18189832418E+03  0.41800000000E+01 0.  1.
        -11    1    1    2    0    0 -0.42404809621E+02 -0.29375731105E+02  0.46360479816E+02  0.69357015115E+02  0.00000000000E+00 0. -1.
         11    1    1    2    0    0  0.19939541491E+02  0.37508911863E+02  0.61259335125E+02  0.74546696265E+02  0.00000000000E+00 0.  1.
</event>
<event>
 7    1  0.2420569E-009  0.1273994E+03  0.7561462E-02  0.1231366E+00
         -4   -1    0    0    0  501 -0.00000000000E+00  0.00000000000E+00  0.45436500277E+03  0.45436500277E+03  0.00000000000E+00 0.  1.
          4   -1    0    0  501    0  0.00000000000E+00 -0.00000000000E+00 -0.15024845798E+03  0.15024845798E+03  0.00000000000E+00 0. -1.
         25    2    1    2    0    0  0.10030953265E+00 -0.11042240621E+03  0.39864840499E+03  0.43215789298E+03  0.12508707290E+03 0.  0.
          5    1    3    3  502    0  0.39188061916E+02 -0.30120394039E+02  0.27576502061E+03  0.28019058037E+03  0.41800000000E+01 0. -1.
         -5    1    3    3    0  502 -0.39087752383E+02 -0.80302012174E+02  0.12288338438E+03  0.15196731261E+03  0.41800000000E+01 0. -1.
        -11    1    1    2    0    0  0.13725300953E+02  0.19647706937E+02  0.15956803534E+02  0.28792982707E+02  0.00000000000E+00 0.  1.
         11    1    1    2    0    0 -0.13825610486E+02  0.90774699277E+02 -0.11048866374E+03  0.14366258507E+03  0.00000000000E+00 0. -1.
</event>
<event>
 7    1  0.2796953E-009  0.1122295E+03  0.7561462E-02  0.1256496E+00
          2   -1    0    0  501    0  0.00000000000E+00  0.00000000000E+00  0.30112687905E+03  0.30112687905E+03  0.00000000000E+00 0. -1.
         -2   -1    0    0    0  501 -0.00000000000E+00 -0.00000000000E+00 -0.52642492280E+02  0.52642492280E+02  0.00000000000E+00 0.  1.
         25    2    1    2    0    0  0.56660734816E+02 -0.27275569546E+02  0.15543849299E+03  0.20919302524E+03  0.12508477583E+03 0.  0.
          5    1    3    3  502    0  0.69465166074E+02 -0.61054580857E+02  0.69141918185E+02  0.11554716955E+03  0.41800000000E+01 0. -1.
         -5    1    3    3    0  502 -0.12804431258E+02  0.33779011311E+02  0.86296574807E+02  0.93645855693E+02  0.41800000000E+01 0. -1.
        -11    1    1    2    0    0 -0.73908050818E+02  0.18612536778E+02  0.35877715726E+02  0.84237978293E+02  0.00000000000E+00 0.  1.
         11    1    1    2    0    0  0.17247316002E+02  0.86630327681E+01  0.57168178054E+02  0.60338367794E+02  0.00000000000E+00 0. -1.
</event>
<event>
 7    1  0.2420569E-009  0.1740909E+03  0.7561462E-02  0.1173648E+00
         -1   -1    0    0    0  501 -0.00000000000E+00  0.00000000000E+00  0.17479082376E+04  0.17479082376E+04  0.00000000000E+00 0.  1.
          1   -1    0    0  501    0  0.00000000000E+00 -0.00000000000E+00 -0.21703324221E+02  0.21703324221E+02  0.00000000000E+00 0. -1.
         25    2    1    2    0    0  0.71787673000E+02 -0.13099757087E+03  0.11775928823E+04  0.11936024458E+04  0.12509184063E+03 0.  0.
          5    1    3    3  502    0  0.95354863953E+02 -0.10581068778E+03  0.67854231860E+03  0.69334378360E+03  0.41800000000E+01 0. -1.
         -5    1    3    3    0  502 -0.23567190953E+02 -0.25186883097E+02  0.49905056372E+03  0.50025866222E+03  0.41800000000E+01 0. -1.
        -11    1    1    2    0    0 -0.69035725519E+02  0.39777306103E+02  0.32199350555E+03  0.33170466245E+03  0.00000000000E+00 0.  1.
         11    1    1    2    0    0 -0.27519474804E+01  0.91220264771E+02  0.22661852548E+03  0.24430445352E+03  0.00000000000E+00 0. -1.
</event>
<event>
 7    1  0.2420569E-009  0.9788056E+02  0.7561462E-02  0.1284817E+00
          1   -1    0    0  501    0  0.00000000000E+00  0.00000000000E+00  0.72796978647E+02  0.72796978647E+02  0.00000000000E+00 0. -1.
         -1   -1    0    0    0  501 -0.00000000000E+00 -0.00000000000E+00 -0.21642855736E+03  0.21642855736E+03  0.00000000000E+00 0.  1.
         25    2    1    2    0    0 -0.31333509166E+02  0.42116406790E+02 -0.42015657438E+02  0.14201587303E+03  0.12509041612E+03 0.  0.
          5    1    3    3  502    0  0.26900874108E+02  0.66866087624E+02 -0.24278520557E+02  0.76168560853E+02  0.41800000000E+01 0. -1.
         -5    1    3    3    0  502 -0.58234383274E+02 -0.24749680834E+02 -0.17737136881E+02  0.65847312180E+02  0.41800000000E+01 0. -1.
        -11    1    1    2    0    0  0.10674973083E+02 -0.37492278443E+02  0.42816589105E+01  0.39216815223E+02  0.00000000000E+00 0. -1.
         11    1    1    2    0    0  0.20658536083E+02 -0.46241283472E+01 -0.10589758019E+03  0.10799284776E+03  0.00000000000E+00 0.  1.
</event>
<event>
 7    1  0.2420569E-009  0.6248140E+02  0.7561462E-02  0.1387704E+00
          1   -1    0    0  501    0  0.00000000000E+00  0.00000000000E+00  0.34168452044E+02  0.34168452044E+02  0.00000000000E+00 0. -1.
         -1   -1    0    0    0  501 -0.00000000000E+00 -0.00000000000E+00 -0.38808412146E+03  0.38808412146E+03  0.00000000000E+00 0.  1.
         25    2    1    2    0    0 -0.24480423044E+02 -0.21682306746E+02 -0.23882153763E+03  0.27157822382E+03  0.12509832644E+03 0.  0.
          5    1    3    3  502    0 -0.13841628658E+02 -0.24854873096E+00 -0.24586230217E+03  0.24628722356E+03  0.41800000000E+01 0.  1.
         -5    1    3    3    0  502 -0.10638794386E+02 -0.21433758015E+02  0.70407645413E+01  0.25291000256E+02  0.41800000000E+01 0.  1.
        -11    1    1    2    0    0  0.53833235052E+02  0.17220534062E+02 -0.38123392115E+02  0.68175926953E+02  0.00000000000E+00 0. -1.
         11    1    1    2    0    0 -0.29352812008E+02  0.44617726845E+01 -0.76970739675E+02  0.82498422739E+02  0.00000000000E+00 0.  1.
</event>
<event>
 7    1  0.2420569E-009  0.9362675E+02  0.7561462E-02  0.1294299E+00
         -1   -1    0    0    0  501 -0.00000000000E+00  0.00000000000E+00  0.25211947576E+02  0.25211947576E+02  0.00000000000E+00 0.  1.
          1   -1    0    0  501    0  0.00000000000E+00 -0.00000000000E+00 -0.68663633433E+03  0.68663633433E+03  0.00000000000E+00 0. -1.
         25    2    1    2    0    0  0.29369837657E+02 -0.67724565617E+02 -0.41165334969E+03  0.43652554334E+03  0.12508743155E+03 0.  0.
          5    1    3    3  502    0  0.16791470498E+02 -0.19657242422E+02 -0.47956118668E+01  0.26623879400E+02  0.41800000000E+01 0.  1.
         -5    1    3    3    0  502  0.12578367159E+02 -0.48067323195E+02 -0.40685773782E+03  0.40990166394E+03  0.41800000000E+01 0.  1.
        -11    1    1    2    0    0  0.29394398851E+02  0.20942041725E+02 -0.48223170991E+02  0.60233495796E+02  0.00000000000E+00 0.  1.
         11    1    1    2    0    0 -0.58764236509E+02  0.46782523892E+02 -0.20154786608E+03  0.21508924277E+03  0.00000000000E+00 0. -1.
</event>
<event>
 7    1  0.2420569E-009  0.1147818E+03  0.7561462E-02  0.1251962E+00
         -2   -1    0    0    0  501 -0.00000000000E+00  0.00000000000E+00  0.21001416400E+03  0.21001416400E+03  0.00000000000E+00 0.  1.
          2   -1    0    0  501    0  0.00000000000E+00 -0.00000000000E+00 -0.14178521815E+03  0.14178521815E+03  0.00000000000E+00 0. -1.
         25    2    1    2    0    0  0.28613478670E+02 -0.80831585927E+02  0.14040748342E+03  0.20667532016E+03  0.12509176679E+03 0.  0.
          5    1    3    3  502    0  0.31832266455E+02  0.58253481258E+01  0.10991932394E+03  0.11466018509E+03  0.41800000000E+01 0. -1.
         -5    1    3    3    0  502 -0.32187877854E+01 -0.86656934052E+02  0.30488159479E+02  0.92015135074E+02  0.41800000000E+01 0. -1.
        -11    1    1    2    0    0  0.12310965239E+02 -0.63172087154E+01 -0.42007838862E+02  0.44228107770E+02  0.00000000000E+00 0. -1.
         11    1    1    2    0    0 -0.40924443909E+02  0.87148794642E+02 -0.30170698710E+02  0.10089595422E+03  0.00000000000E+00 0.  1.
</event>
<event>
 7    1  0.2420569E-009  0.1994427E+03  0.7561462E-02  0.1150210E+00
          2   -1    0    0  501    0  0.00000000000E+00  0.00000000000E+00  0.10935852880E+04  0.10935852880E+04  0.00000000000E+00 0. -1.
         -2   -1    0    0    0  501 -0.00000000000E+00 -0.00000000000E+00 -0.47497183767E+02  0.47497183767E+02  0.00000000000E+00 0.  1.
         25    2    1    2    0    0  0.17844581948E+03 -0.34892398347E+02  0.74871888850E+03  0.78056893554E+03  0.12508996434E+03 0.  0.
          5    1    3    3  502    0  0.21474682473E+02 -0.41911818268E+02  0.74233664624E+02  0.88010634933E+02  0.41800000000E+01 0. -1.
         -5    1    3    3    0  502  0.15697113701E+03  0.70194199208E+01  0.67448522388E+03  0.69255830060E+03  0.41800000000E+01 0. -1.
        -11    1    1    2    0    0 -0.14553327750E+03  0.55313374865E+02  0.27437375238E+03  0.31546863599E+03  0.00000000000E+00 0. -1.
         11    1    1    2    0    0 -0.32912541978E+02 -0.20420976518E+02  0.22995463328E+02  0.45044900212E+02  0.00000000000E+00 0.  1.
</event>
<event>
 7    1  0.2420569E-009  0.9724321E+02  0.7561462E-02  0.1286202E+00
          1   -1    0    0  501    0  0.00000000000E+00  0.00000000000E+00  0.39761652579E+02  0.39761652579E+02  0.00000000000E+00 0. -1.
         -1   -1    0    0    0  501 -0.00000000000E+00 -0.00000000000E+00 -0.42356229747E+03  0.42356229747E+03  0.00000000000E+00 0.  1.
         25    2    1    2    0    0 -0.44088470850E+02 -0.44352911891E+02 -0.27247875037E+03  0.30627302910E+03  0.12509006712E+03 0.  0.
          5    1    3    3  502    0 -0.62536710518E+02 -0.73819562998E+02 -0.14723486288E+03  0.17622640350E+03  0.41800000000E+01 0.  1.
         -5    1    3    3    0  502  0.18448239668E+02  0.29466651107E+02 -0.12524388749E+03  0.13004662559E+03  0.41800000000E+01 0.  1.
        -11    1    1    2    0    0  0.16246839940E+02  0.18733825810E+02 -0.11627785784E+03  0.11889262492E+03  0.00000000000E+00 0.  1.
         11    1    1    2    0    0  0.27841630910E+02  0.25619086081E+02  0.49559633228E+01  0.38158296029E+02  0.00000000000E+00 0. -1.
</event>
<event>
 7    1  0.2420569E-009  0.1012476E+03  0.7561462E-02  0.1277694E+00
         -3   -1    0    0    0  501 -0.00000000000E+00  0.00000000000E+00  0.46067202496E+03  0.46067202496E+03  0.00000000000E+00 0.  1.
          3   -1    0    0  501    0  0.00000000000E+00 -0.00000000000E+00 -0.32296672952E+02  0.32296672952E+02  0.00000000000E+00 0. -1.
         25    2    1    2    0    0 -0.15731377215E+02 -0.23098872125E+01  0.34803823304E+03  0.37017488718E+03  0.12508406625E+03 0.  0.
          5    1    3    3  502    0 -0.13865893416E+02 -0.55448834883E+02  0.90111624899E+02  0.10679144925E+03  0.41800000000E+01 0. -1.
         -5    1    3    3    0  502 -0.18654837995E+01  0.53138947670E+02  0.25792660814E+03  0.26338343793E+03  0.41800000000E+01 0. -1.
        -11    1    1    2    0    0  0.16906736066E+02 -0.43166380709E+02  0.49597729797E+02  0.67890418683E+02  0.00000000000E+00 0. -1.
         11    1    1    2    0    0 -0.11753588511E+01  0.45476267921E+02  0.30739389177E+02  0.54903392058E+02  0.00000000000E+00 0.  1.
</event>
<event>
 7    1  0.2420569E-009  0.7888490E+02  0.7561462E-02  0.1332246E+00
         -2   -1    0    0    0  501 -0.00000000000E+00  0.00000000000E+00  0.59656917005E+02  0.59656917005E+02  0.00000000000E+00 0.  1.
          2   -1    0    0  501    0  0.00000000000E+00 -0.00000000000E+00 -0.22010816400E+03  0.22010816400E+03  0.00000000000E+00 0. -1.
         25    2    1    2    0    0 -0.88441006207E+01 -0.20423905778E+02 -0.12490196697E+03  0.17816660002E+03  0.12508989555E+03 0.  0.
          5    1    3    3  502    0 -0.13813550038E+02 -0.48465267611E+02 -0.13768102425E+03  0.14667390077E+03  0.41800000000E+01 0.  1.
         -5    1    3    3    0  502  0.49694494169E+01  0.28041361833E+02  0.12779057285E+02  0.31492699250E+02  0.41800000000E+01 0.  1.
        -11    1    1    2    0    0  0.14980529529E+02 -0.26850554516E+02  0.13158682173E+02  0.33444273939E+02  0.00000000000E+00 0.  1.
         11    1    1    2    0    0 -0.61364289087E+01  0.47274460293E+02 -0.48707962204E+02  0.68154207045E+02  0.00000000000E+00 0. -1.
</event>
<event>
 7    1  0.2420569E-009  0.1097234E+03  0.7561462E-02  0.1261083E+00
          1   -1    0    0  501    0  0.00000000000E+00  0.00000000000E+00  0.18743148422E+02  0.18743148422E+02  0.00000000000E+00 0. -1.
         -1   -1    0    0    0  501 -0.00000000000E+00 -0.00000000000E+00 -0.85940514521E+03  0.85940514521E+03  0.00000000000E+00 0.  1.
         25    2    1    2    0    0 -0.10501627325E+02 -0.30319326392E+02 -0.62826635491E+03  0.64140258706E+03  0.12509644376E+03 0.  0.
          5    1    3    3  502    0 -0.39953419449E+01  0.43908471878E+02 -0.12458918790E+03  0.13222652835E+03  0.41800000000E+01 0. -1.
         -5    1    3    3    0  502 -0.65062853797E+01 -0.74227798270E+02 -0.50367716701E+03  0.50917605870E+03  0.41800000000E+01 0. -1.
        -11    1    1    2    0    0  0.52421126560E+02  0.79666633581E+01 -0.79010477516E+02  0.95153023033E+02  0.00000000000E+00 0. -1.
         11    1    1    2    0    0 -0.41919499236E+02  0.22352663034E+02 -0.13338516436E+03  0.14159268354E+03  0.00000000000E+00 0.  1.
</event>
<event>
 7    1  0.2420569E-009  0.8308583E+02  0.7561462E-02  0.1320516E+00
          1   -1    0    0  501    0  0.00000000000E+00  0.00000000000E+00  0.84897172060E+02  0.84897172060E+02  0.00000000000E+00 0. -1.
         -1   -1    0    0    0  501 -0.00000000000E+00 -0.00000000000E+00 -0.17382741609E+03  0.17382741609E+03  0.00000000000E+00 0.  1.
         25    2    1    2    0    0  0.13186697296E+02  0.92501916518E+01  0.47928023229E+01  0.12621430716E+03  0.12509046865E+03 0.  0.
          5    1    3    3  502    0  0.56298758844E+02 -0.28172945870E+02 -0.16376095129E+02  0.65183694418E+02  0.41800000000E+01 0. -1.
         -5    1    3    3    0  502 -0.43112061547E+02  0.37423137522E+02  0.21168897452E+02  0.61030612746E+02  0.41800000000E+01 0. -1.
        -11    1    1    2    0    0 -0.11081795075E+01 -0.25536430098E+02 -0.10584441421E+03  0.10888699346E+03  0.00000000000E+00 0.  1.
         11    1    1    2    0    0 -0.12078517789E+02  0.16286238447E+02  0.12121367862E+02  0.23623287527E+02  0.00000000000E+00 0. -1.
</event>
<event>
 7    1  0.2420569E-009  0.6572206E+02  0.7561462E-02  0.1375276E+00
         -1   -1    0    0    0  501 -0.00000000000E+00  0.00000000000E+00  0.10640691594E+03  0.10640691594E+03  0.00000000000E+00 0.  1.
          1   -1    0    0  501    0  0.00000000000E+00 -0.00000000000E+00 -0.13662621362E+03  0.13662621362E+03  0.00000000000E+00 0. -1.
         25    2    1    2    0    0  0.89569828392E+01 -0.22535336514E+02 -0.65827505992E+02  0.14341762004E+03  0.12508910528E+03 0.  0.
          5    1    3    3  502    0  0.23289513671E+02  0.98247294391E+01 -0.94352817077E+02  0.97769388082E+02  0.41800000000E+01 0.  1.
         -5    1    3    3    0  502 -0.14332530832E+02 -0.32360065953E+02  0.28525311084E+02  0.45648231959E+02  0.41800000000E+01 0.  1.
        -11    1    1    2    0    0  0.25421959908E+02 -0.52789493250E+01  0.47226416300E+02  0.53893206883E+02  0.00000000000E+00 0.  1.
         11    1    1    2    0    0 -0.34378942747E+02  0.27814285839E+02 -0.11618207995E+02  0.45722302634E+02  0.00000000000E+00 0. -1.
</event>
<event>
 7    1  0.2420569E-009  0.9565871E+02  0.7561462E-02  0.1289699E+00
          2   -1    0    0  501    0  0.00000000000E+00  0.00000000000E+00  0.40428247943E+03  0.40428247943E+03  0.00000000000E+00 0. -1.
         -2   -1    0    0    0  501 -0.00000000000E+00 -0.00000000000E+00 -0.45805584539E+02  0.45805584539E+02  0.00000000000E+00 0.  1.
         25    2    1    2    0    0 -0.59984216233E+02  0.54485102277E+02  0.20076304248E+03  0.25004075481E+03  0.12509135571E+03 0.  0.
          5    1    3    3  502    0 -0.74737139715E+02  0.28959359026E+02  0.20482407142E+03  0.21998785685E+03  0.41800000000E+01 0.  1.
         -5    1    3    3    0  502  0.14752923482E+02  0.25525743251E+02 -0.40610289395E+01  0.30052897961E+02  0.41800000000E+01 0.  1.
        -11    1    1    2    0    0  0.30601903896E+02 -0.23548895191E+02  0.20785184554E+01  0.38669719753E+02  0.00000000000E+00 0.  1.
         11    1    1    2    0    0  0.29382312337E+02 -0.30936207086E+02  0.15563533395E+03  0.16137758940E+03  0.00000000000E+00 0. -1.
</event>
<event>
 7    1  0.2420569E-009  0.2552914E+03  0.7561462E-02  0.1110006E+00
          1   -1    0    0  501    0  0.00000000000E+00  0.00000000000E+00  0.58826509363E+03  0.58826509363E+03  0.00000000000E+00 0. -1.
         -1   -1    0    0    0  501 -0.00000000000E+00 -0.00000000000E+00 -0.12218799519E+03  0.12218799519E+03  0.00000000000E+00 0.  1.
         25    2    1    2    0    0  0.19504983465E+03  0.14618090304E+03  0.20846042549E+03  0.34425918066E+03  0.12508133379E+03 0.  0.
          5    1    3    3  502    0  0.16234923265E+03  0.64035102066E+02  0.18127097807E+03  0.25166328205E+03  0.41800000000E+01 0.  1.
         -5    1    3    3    0  502  0.32700601998E+02  0.82145800975E+02  0.27189447417E+02  0.92595898612E+02  0.41800000000E+01 0.  1.
        -11    1    1    2    0    0 -0.90769160345E+02 -0.94790661481E+02  0.79336448142E+02  0.15335769292E+03  0.00000000000E+00 0.  1.
         11    1    1    2    0    0 -0.10428067431E+03 -0.51390241560E+02  0.17828022481E+03  0.21283621525E+03  0.00000000000E+00 0. -1.
</event>
<event>
 7    1  0.2420569E-009  0.1211777E+03  0.7561462E-02  0.1241167E+00
          2   -1    0    0  501    0  0.00000000000E+00  0.00000000000E+00  0.95737429600E+03  0.95737429600E+03  0.00000000000E+00 0. -1.
         -2   -1    0    0    0  501 -0.00000000000E+00 -0.00000000000E+00 -0.22133763297E+02  0.22133763297E+02  0.00000000000E+00 0.  1.
         25    2    1    2    0    0 -0.79749307861E+02  0.54197000664E+02  0.52309083757E+03  0.54641534895E+03  0.12509373380E+03 0.  0.
          5    1    3    3  502    0 -0.44841083369E+02 -0.24936928721E+01  0.45071864331E+02  0.63764305188E+02  0.41800000000E+01 0.  1.
         -5    1    3    3    0  502 -0.34908224492E+02  0.56690693536E+02  0.47801897324E+03  0.48265104377E+03  0.41800000000E+01 0.  1.
        -11    1    1    2    0    0 -0.78626064635E+01 -0.41234965165E+02  0.96099506961E+02  0.10486781284E+03  0.00000000000E+00 0.  1.
         11    1    1    2    0    0  0.87611914325E+02 -0.12962035499E+02  0.31605018817E+03  0.32822489750E+03  0.00000000000E+00 0. -1.
</event>
<event>
 7    1  0.2420569E-009  0.1099036E+03  0.7561462E-02  0.1260749E+00
          1   -1    0    0  501    0  0.00000000000E+00  0.00000000000E+00  0.10191852184E+03  0.10191852184E+03  0.00000000000E+00 0. -1.
         -1   -1    0    0    0  501 -0.00000000000E+00 -0.00000000000E+00 -0.21886318096E+03  0.21886318096E+03  0.00000000000E+00 0.  1.
         25    2    1    2    0    0 -0.29825255425E+02 -0.21231660478E+02  0.39987875862E+02  0.13633139253E+03  0.12508752578E+03 0.  0.
          5    1    3    3  502    0 -0.16953764684E+02 -0.72268515401E+02  0.37992780791E+02  0.83493067062E+02  0.41800000000E+01 0.  1.
         -5    1    3    3    0  502 -0.12871490741E+02  0.51036854923E+02  0.19950950709E+01  0.52838325471E+02  0.41800000000E+01 0.  1.
        -11    1    1    2    0    0 -0.20270116854E+02  0.35228943011E+02 -0.96535942449E+02  0.10474323008E+03  0.00000000000E+00 0.  1.
         11    1    1    2    0    0  0.50095372279E+02 -0.13997282533E+02 -0.60396592537E+02  0.79707080189E+02  0.00000000000E+00 0. -1.
</event>
<event>
 7    1  0.2420569E-009  0.1806056E+03  0.7561462E-02  0.1167218E+00
          2   -1    0    0  501    0  0.00000000000E+00  0.00000000000E+00  0.53288481068E+02  0.53288481068E+02  0.00000000000E+00 0.  1.
         -2   -1    0    0    0  501 -0.00000000000E+00 -0.00000000000E+00 -0.77034247689E+03  0.77034247689E+03  0.00000000000E+00 0. -1.
         25    2    1    2    0    0 -0.16533144905E+03  0.28881550886E+02 -0.44308902329E+03  0.49004431696E+03  0.12508764127E+03 0.  0.
          5    1    3    3  502    0 -0.36716783099E+02  0.27936613471E+02 -0.25087247574E+02  0.52682244867E+02  0.41800000000E+01 0. -1.
         -5    1    3    3    0  502 -0.12861466596E+03  0.94493741514E+00 -0.41800177572E+03  0.43736207209E+03  0.41800000000E+01 0. -1.
        -11    1    1    2    0    0  0.14796876183E+03 -0.52394254383E+02 -0.20132996301E+03  0.25529133627E+03  0.00000000000E+00 0. -1.
         11    1    1    2    0    0  0.17362687220E+02  0.23512703497E+02 -0.72635009523E+02  0.78295304723E+02  0.00000000000E+00 0.  1.
</event>
<event>
 7    1  0.2420569E-009  0.1168769E+03  0.7561462E-02  0.1248340E+00
         -1   -1    0    0    0  501 -0.00000000000E+00  0.00000000000E+00  0.21352285717E+02  0.21352285717E+02  0.00000000000E+00 0.  1.
          1   -1    0    0  501    0  0.00000000000E+00 -0.00000000000E+00 -0.68390450465E+03  0.68390450465E+03  0.00000000000E+00 0. -1.
         25    2    1    2    0    0  0.36762266299E+02 -0.39031367047E+02 -0.36264496064E+03  0.38734147099E+03  0.12508851199E+03 0.  0.
          5    1    3    3  502    0  0.26052724894E+02  0.43449341273E+02 -0.17072532239E+03  0.17813252886E+03  0.41800000000E+01 0.  1.
         -5    1    3    3    0  502  0.10709541405E+02 -0.82480708320E+02 -0.19191963825E+03  0.20920894213E+03  0.41800000000E+01 0.  1.
        -11    1    1    2    0    0 -0.11616758418E+02  0.63501475308E+02 -0.13946122089E+03  0.15367764501E+03  0.00000000000E+00 0.  1.
         11    1    1    2    0    0 -0.25145507881E+02 -0.24470108261E+02 -0.16044603740E+03  0.16423767437E+03  0.00000000000E+00 0. -1.
</event>
<event>
 7    1  0.2420569E-009  0.1202826E+03  0.7561462E-02  0.1242632E+00
         -1   -1    0    0    0  501 -0.00000000000E+00  0.00000000000E+00  0.33403180200E+03  0.33403180200E+03  0.00000000000E+00 0.  1.
          1   -1    0    0  501    0  0.00000000000E+00 -0.00000000000E+00 -0.65078194119E+02  0.65078194119E+02  0.00000000000E+00 0. -1.
         25    2    1    2    0    0  0.19050687115E+02  0.78886529280E+02  0.22669050774E+03  0.27133757594E+03  0.12509788423E+03 0.  0.
          5    1    3    3  502    0 -0.27816098364E+02 -0.41925121529E+00  0.14636714790E+03  0.14904605156E+03  0.41800000000E+01 0. -1.
         -5    1    3    3    0  502  0.46866785479E+02  0.79305780495E+02  0.80323359838E+02  0.12229152439E+03  0.41800000000E+01 0. -1.
        -11    1    1    2    0    0 -0.54795240779E+02 -0.44029700313E+02  0.19824605960E+02  0.73035251236E+02  0.00000000000E+00 0.  1.
         11    1    1    2    0    0  0.35744553664E+02 -0.34856828967E+02  0.22438494178E+02  0.54737168937E+02  0.00000000000E+00 0. -1.
</event>
<event>
 7    1  0.2420569E-009  0.5660196E+02  0.7561462E-02  0.1412671E+00
          2   -1    0    0  501    0  0.00000000000E+00  0.00000000000E+00  0.97403398186E+02  0.97403398186E+02  0.00000000000E+00 0. -1.
         -2   -1    0    0    0  501 -0.00000000000E+00 -0.00000000000E+00 -0.14412372746E+03  0.14412372746E+03  0.00000000000E+00 0.  1.
         25    2    1    2    0    0 -0.19100385276E+02  0.31053237847E+02 -0.55475000235E+02  0.14161475927E+03  0.12509251014E+03 0.  0.
          5    1    3    3  502    0 -0.22468853797E+02  0.19815503936E+02 -0.95248888442E+02  0.99936613594E+02  0.41800000000E+01 0. -1.
         -5    1    3    3    0  502  0.33684685210E+01  0.11237733911E+02  0.39773888207E+02  0.41678145673E+02  0.41800000000E+01 0. -1.
        -11    1    1    2    0    0  0.38621827061E+02 -0.65514994687E+01  0.39773918631E+02  0.55825910419E+02  0.00000000000E+00 0. -1.
         11    1    1    2    0    0 -0.19521441785E+02 -0.24501738378E+02 -0.31019247667E+02  0.44086455956E+02  0.00000000000E+00 0.  1.
</event>
<event>
 7    1  0.2420569E-009  0.7728429E+02  0.7561462E-02  0.1336940E+00
          4   -1    0    0  501    0  0.00000000000E+00  0.00000000000E+00  0.10976751976E+03  0.10976751976E+03  0.00000000000E+00 0. -1.
         -4   -1    0    0    0  501 -0.00000000000E+00 -0.00000000000E+00 -0.17138737252E+03  0.17138737252E+03  0.00000000000E+00 0.  1.
         25    2    1    2    0    0 -0.52160550093E+01 -0.33973519989E+02 -0.11588417931E+03  0.17394980540E+03  0.12509190419E+03 0.  0.
          5    1    3    3  502    0  0.50352293631E+02 -0.36455245749E+02 -0.96561906256E+02  0.11491741624E+03  0.41800000000E+01 0. -1.
         -5    1    3    3    0  502 -0.55568348640E+02  0.24817257595E+01 -0.19322273056E+02  0.59032389156E+02  0.41800000000E+01 0. -1.
        -11    1    1    2    0    0 -0.24386790505E+01  0.22856895537E+02  0.77223718597E+02  0.80572250453E+02  0.00000000000E+00 0. -1.
         11    1    1    2    0    0  0.76547340597E+01  0.11116624452E+02 -0.22959392047E+02  0.26632836423E+02  0.00000000000E+00 0.  1.
</event>
<event>
 7    1  0.2420569E-009  0.1081100E+03  0.7561462E-02  0.1264110E+00
          3   -1    0    0  501    0  0.00000000000E+00  0.00000000000E+00  0.13991115396E+03  0.13991115396E+03  0.00000000000E+00 0. -1.
         -3   -1    0    0    0  501 -0.00000000000E+00 -0.00000000000E+00 -0.11623867796E+03  0.11623867796E+03  0.00000000000E+00 0.  1.
         25    2    1    2    0    0  0.24320682569E+02  0.55068589669E+02  0.41426958117E+02  0.14487020644E+03  0.12508852340E+03 0.  0.
          5    1    3    3  502    0  0.32977971955E+02  0.91418320411E+02  0.44848288766E+02  0.10711534599E+03  0.41800000000E+01 0.  1.
         -5    1    3    3    0  502 -0.86572893858E+01 -0.36349730742E+02 -0.34213306492E+01  0.37754860454E+02  0.41800000000E+01 0.  1.
        -11    1    1    2    0    0  0.16587663654E+02 -0.27158988248E+02  0.29086961667E+02  0.43113948638E+02  0.00000000000E+00 0. -1.
         11    1    1    2    0    0 -0.40908346223E+02 -0.27909601420E+02 -0.46841443787E+02  0.68165676834E+02  0.00000000000E+00 0.  1.
</event>
<event>
 7    1  0.2420569E-009  0.1363487E+03  0.7561462E-02  0.1218328E+00
         -2   -1    0    0    0  501 -0.00000000000E+00  0.00000000000E+00  0.55119893623E+02  0.55119893623E+02  0.00000000000E+00 0. -1.
          2   -1    0    0  501    0  0.00000000000E+00 -0.00000000000E+00 -0.42531517252E+03  0.42531517252E+03  0.00000000000E+00 0.  1.
         25    2    1    2    0    0  0.56344327475E+02  0.79081754434E+02 -0.12804922534E+03  0.20364716351E+03  0.12508779307E+03 0.  0.
          5    1    3    3  502    0 -0.24308577881E+02  0.51597274970E+02 -0.97495287871E+02  0.11303092188E+03  0.41800000000E+01 0. -1.
         -5    1    3    3    0  502  0.80652905357E+02  0.27484479464E+02 -0.30553937465E+02  0.90616241637E+02  0.41800000000E+01 0. -1.
        -11    1    1    2    0    0 -0.19557470764E+01  0.18435510233E+02 -0.15638700880E+02  0.24254112010E+02  0.00000000000E+00 0.  1.
         11    1    1    2    0    0 -0.54388580399E+02 -0.97517264667E+02 -0.22650735268E+03  0.25253379062E+03  0.00000000000E+00 0. -1.
</event>
<event>
 7    1  0.2420569E-009  0.1701423E+03  0.7561462E-02  0.1177700E+00
         -3   -1    0    0    0  501 -0.00000000000E+00  0.00000000000E+00  0.24473916439E+02  0.24473916439E+02  0.00000000000E+00 0.  1.
          3   -1    0    0  501    0  0.00000000000E+00 -0.00000000000E+00 -0.12403113415E+04  0.12403113415E+04  0.00000000000E+00 0. -1.
         25    2    1    2    0    0  0.11084335817E+03  0.58921369599E+02 -0.51833299534E+03  0.54779163397E+03  0.12509437374E+03 0.  0.
          5    1    3    3  502    0  0.52922915068E+02 -0.36633198010E+02 -0.16372371609E+03  0.17597088892E+03  0.41800000000E+01 0.  1.
         -5    1    3    3    0  502  0.57920443104E+02  0.95554567610E+02 -0.35460927925E+03  0.37182074505E+03  0.41800000000E+01 0.  1.
        -11    1    1    2    0    0 -0.28569680369E+02  0.30952645273E+02 -0.23284184129E+03  0.23662124998E+03  0.00000000000E+00 0.  1.
         11    1    1    2    0    0 -0.82273677803E+02 -0.89874014872E+02 -0.46466258841E+03  0.48037237398E+03  0.00000000000E+00 0. -1.
</event>
<event>
 7    1  0.2420569E-009  0.1621344E+03  0.7561462E-02  0.1186308E+00
          1   -1    0    0  501    0  0.00000000000E+00  0.00000000000E+00  0.83185261955E+03  0.83185261955E+03  0.00000000000E+00 0. -1.
         -1   -1    0    0    0  501 -0.00000000000E+00 -0.00000000000E+00 -0.39744586365E+02  0.39744586365E+02  0.00000000000E+00 0.  1.
         25    2    1    2    0    0 -0.11111530147E+03 -0.84072200669E+02  0.52030029080E+03  0.55296764868E+03  0.12508430254E+03 0.  0.
          5    1    3    3  502    0 -0.46143124748E+02 -0.84290638583E+02  0.15885519216E+03  0.18570553086E+03  0.41800000000E+01 0. -1.
         -5    1    3    3    0  502 -0.64972176723E+02  0.21843791410E+00  0.36144509864E+03  0.36726211783E+03  0.41800000000E+01 0. -1.
        -11    1    1    2    0    0 -0.56946917405E+01  0.36351786558E+02  0.90887635715E+02  0.98053272387E+02  0.00000000000E+00 0. -1.
         11    1    1    2    0    0  0.11680999321E+03  0.47720414111E+02  0.18092010668E+03  0.22057628485E+03  0.00000000000E+00 0.  1.
</event>
<event>
 7    1  0.2420569E-009  0.6646153E+02  0.7561462E-02  0.1372557E+00
          2   -1    0    0  501    0  0.00000000000E+00  0.00000000000E+00  0.34641563148E+03  0.34641563148E+03  0.00000000000E+00 0.  1.
         -2   -1    0    0    0  501 -0.00000000000E+00 -0.00000000000E+00 -0.38461185634E+02  0.38461185634E+02  0.00000000000E+00 0. -1.
         25    2    1    2    0    0 -0.40124506717E+02 -0.71884254614E+01  0.16023608540E+03  0.20732488610E+03  0.12508539416E+03 0.  0.
          5    1    3    3  502    0 -0.56821967952E+02 -0.60462378409E+01  0.12574471954E+02  0.58659038339E+02  0.41800000000E+01 0.  1.
         -5    1    3    3    0  502  0.16697461235E+02 -0.11421876205E+01  0.14766161345E+03  0.14866584776E+03  0.41800000000E+01 0.  1.
        -11    1    1    2    0    0  0.27387901635E+02  0.24593548497E+02  0.15127859990E+03  0.15569250005E+03  0.00000000000E+00 0.  1.
         11    1    1    2    0    0  0.12736605082E+02 -0.17405123036E+02 -0.35602394612E+01  0.21859430961E+02  0.00000000000E+00 0. -1.
</event>
<event>
 7    1  0.2420569E-009  0.1371242E+03  0.7561462E-02  0.1217252E+00
         -2   -1    0    0    0  501 -0.00000000000E+00  0.00000000000E+00  0.25928782613E+02  0.25928782613E+02  0.00000000000E+00 0.  1.
          2   -1    0    0  501    0  0.00000000000E+00 -0.00000000000E+00 -0.13229836989E+04  0.13229836989E+04  0.00000000000E+00 0. -1.
         25    2    1    2    0    0 -0.24677810121E+02  0.10754585472E+03 -0.10551229347E+04  0.10682255869E+04  0.12508553871E+03 0.  0.
          5    1    3    3  502    0 -0.28168659218E+02  0.12421457001E+03 -0.10283809348E+04  0.10362468588E+04  0.41800000000E+01 0.  1.
         -5    1    3    3    0  502  0.34908490975E+01 -0.16668715290E+02 -0.26741999919E+02  0.31978728187E+02  0.41800000000E+01 0.  1.
        -11    1    1    2    0    0  0.43699846502E+02 -0.99401580554E+02 -0.14266669298E+03  0.17928785817E+03  0.00000000000E+00 0.  1.
         11    1    1    2    0    0 -0.19022036381E+02 -0.81442741711E+01 -0.99265288575E+02  0.10139903641E+03  0.00000000000E+00 0. -1.
</event>
<event>
 7    1  0.2420569E-009  0.1864326E+03  0.7561462E-02  0.1161719E+00
          1   -1    0    0  501    0  0.00000000000E+00  0.00000000000E+00  0.90576104743E+02  0.90576104743E+02  0.00000000000E+00 0. -1.
         -1   -1    0    0    0  501 -0.00000000000E+00 -0.00000000000E+00 -0.46095238225E+03  0.46095238225E+03  0.00000000000E+00 0.  1.
         25    2    1    2    0    0  0.13131160959E+03  0.10824054984E+03 -0.15391281352E+03  0.26133430611E+03  0.12509080678E+03 0.  0.
          5    1    3    3  502    0  0.57658326593E+02  0.92398496798E+02 -0.15047630891E+03  0.18580246710E+03  0.41800000000E+01 0.  1.
         -5    1    3    3    0  502  0.73653282992E+02  0.15842053041E+02 -0.34365046059E+01  0.75531839008E+02  0.41800000000E+01 0.  1.
        -11    1    1    2    0    0 -0.77895556020E+02 -0.11021848662E+03 -0.18204421330E+03  0.22661846359E+03  0.00000000000E+00 0.  1.
         11    1    1    2    0    0 -0.53416053565E+02  0.19779367855E+01 -0.34419250688E+02  0.63575717301E+02  0.00000000000E+00 0. -1.
</event>
<event>
 7    1  0.2420569E-009  0.1420252E+03  0.7561462E-02  0.1210630E+00
          2   -1    0    0  501    0  0.00000000000E+00  0.00000000000E+00  0.10457986644E+04  0.10457986644E+04  0.00000000000E+00 0. -1.
         -2   -1    0    0    0  501 -0.00000000000E+00 -0.00000000000E+00 -0.32866752624E+02  0.32866752624E+02  0.00000000000E+00 0.  1.
         25    2    1    2    0    0  0.91256375810E+01 -0.10972041311E+03  0.81670605656E+03  0.83353359835E+03  0.12509048903E+03 0.  0.
          5    1    3    3  502    0  0.10838679377E+02  0.17844337920E+02  0.31934657428E+03  0.32005562684E+03  0.41800000000E+01 0.  1.
         -5    1    3    3    0  502 -0.17130417961E+01 -0.12756475102E+03  0.49735948228E+03  0.51347797151E+03  0.41800000000E+01 0.  1.
        -11    1    1    2    0    0 -0.41891909864E+02  0.39289146662E+02  0.13335606671E+03  0.14519782948E+03  0.00000000000E+00 0. -1.
         11    1    1    2    0    0  0.32766272283E+02  0.70431266444E+02  0.62869788547E+02  0.99933989233E+02  0.00000000000E+00 0.  1.
</event>
<event>
 7    1  0.2420569E-009  0.1915344E+03  0.7561462E-02  0.1157085E+00
         -1   -1    0    0    0  501 -0.00000000000E+00  0.00000000000E+00  0.13847543245E+03  0.13847543245E+03  0.00000000000E+00 0.  1.
          1   -1    0    0  501    0  0.00000000000E+00 -0.00000000000E+00 -0.28359589384E+03  0.28359589384E+03  0.00000000000E+00 0. -1.
         25    2    1    2    0    0 -0.15637604050E+03 -0.54915475664E+02 -0.80544732473E+02  0.22272114978E+03  0.12509229042E+03 0.  0.
          5    1    3    3  502    0  0.15915877033E+02 -0.97582793184E+01 -0.33297479455E+02  0.38402261588E+02  0.41800000000E+01 0. -1.
         -5    1    3    3    0  502 -0.17229191753E+03 -0.45157196346E+02 -0.47247253017E+02  0.18431888819E+03  0.41800000000E+01 0. -1.
        -11    1    1    2    0    0  0.85646613681E+02 -0.14280206618E+02 -0.13094122512E+02  0.87810721330E+02  0.00000000000E+00 0.  1.
         11    1    1    2    0    0  0.70729426814E+02  0.69195682282E+02 -0.51481606405E+02  0.11153945518E+03  0.00000000000E+00 0. -1.
</event>
<event>
 7    1  0.2420569E-009  0.1651092E+03  0.7561462E-02  0.1183046E+00
          3   -1    0    0  501    0  0.00000000000E+00  0.00000000000E+00  0.17900874960E+02  0.17900874960E+02  0.00000000000E+00 0. -1.
         -3   -1    0    0    0  501 -0.00000000000E+00 -0.00000000000E+00 -0.19957888440E+04  0.19957888440E+04  0.00000000000E+00 0.  1.
         25    2    1    2    0    0  0.14366538733E+03 -0.80128016401E+01 -0.13320451315E+04  0.13456200496E+04  0.12508052166E+03 0.  0.
          5    1    3    3  502    0  0.10393929302E+03 -0.36861281312E+02 -0.49624107095E+03  0.50836483316E+03  0.41800000000E+01 0.  1.
         -5    1    3    3    0  502  0.39726094304E+02  0.28848479672E+02 -0.83580406056E+03  0.83725521640E+03  0.41800000000E+01 0.  1.
        -11    1    1    2    0    0 -0.15492138816E+03  0.17441910330E+02 -0.60058286390E+03  0.62048741579E+03  0.00000000000E+00 0. -1.
         11    1    1    2    0    0  0.11256000830E+02 -0.94291086902E+01 -0.45259973625E+02  0.47582253603E+02  0.00000000000E+00 0.  1.
</event>
<event>
 7    1  0.2420569E-009  0.1780021E+03  0.7561462E-02  0.1169751E+00
          2   -1    0    0  501    0  0.00000000000E+00  0.00000000000E+00  0.93184968813E+02  0.93184968813E+02  0.00000000000E+00 0. -1.
         -2   -1    0    0    0  501 -0.00000000000E+00 -0.00000000000E+00 -0.44539242514E+03  0.44539242514E+03  0.00000000000E+00 0.  1.
         25    2    1    2    0    0 -0.14756059206E+03  0.80412225760E+02 -0.23309273842E+03  0.31339949720E+03  0.12508703275E+03 0.  0.
          5    1    3    3  502    0  0.83731764142E+01  0.14532715589E+02 -0.90178466293E+02  0.91820139885E+02  0.41800000000E+01 0.  1.
         -5    1    3    3    0  502 -0.15593376848E+03  0.65879510171E+02 -0.14291427212E+03  0.22157935732E+03  0.41800000000E+01 0.  1.
        -11    1    1    2    0    0  0.65245602346E+02 -0.47649276647E+02 -0.10947480892E+03  0.13605945751E+03  0.00000000000E+00 0.  1.
         11    1    1    2    0    0  0.82314989718E+02 -0.32762949113E+02 -0.96399089901E+01  0.89118439238E+02  0.00000000000E+00 0. -1.
</event>
<event>
 7    1  0.2420569E-009  0.9251658E+02  0.7561462E-02  0.1296869E+00
          3   -1    0    0  501    0  0.00000000000E+00  0.00000000000E+00  0.46465082915E+03  0.46465082915E+03  0.00000000000E+00 0. -1.
         -3   -1    0    0    0  501 -0.00000000000E+00 -0.00000000000E+00 -0.44540318955E+02  0.44540318955E+02  0.00000000000E+00 0.  1.
         25    2    1    2    0    0 -0.62500884798E+02  0.13022942662E+01  0.10426870018E+03  0.17443487729E+03  0.12508999963E+03 0.  0.
          5    1    3    3  502    0  0.89977723872E+01  0.83177888698E+00  0.10230227715E+03  0.10278560246E+03  0.41800000000E+01 0.  1.
         -5    1    3    3    0  502 -0.71498657185E+02  0.47051537919E+00  0.19664230326E+01  0.71649274829E+02  0.41800000000E+01 0.  1.
        -11    1    1    2    0    0  0.67103606740E+01  0.35819574162E+02  0.17540375507E+03  0.17914951333E+03  0.00000000000E+00 0. -1.
         11    1    1    2    0    0  0.55790524124E+02 -0.37121868428E+02  0.14043805494E+03  0.15560675748E+03  0.00000000000E+00 0.  1.
</event>
<event>
 7    1  0.2420569E-009  0.1027429E+03  0.7561462E-02  0.1274632E+00
          1   -1    0    0  501    0  0.00000000000E+00  0.00000000000E+00  0.46322694439E+03  0.46322694439E+03  0.00000000000E+00 0. -1.
         -1   -1    0    0    0  501 -0.00000000000E+00 -0.00000000000E+00 -0.26302052665E+02  0.26302052665E+02  0.00000000000E+00 0.  1.
         25    2    1    2    0    0  0.15015339892E+02  0.16791137957E+02  0.25420270864E+03  0.28420862024E+03  0.12509244578E+03 0.  0.
          5    1    3    3  502    0  0.65060104486E+02 -0.96260716094E+01  0.17315334433E+03  0.18527015815E+03  0.41800000000E+01 0. -1.
         -5    1    3    3    0  502 -0.50044764594E+02  0.26417209566E+02  0.81049364316E+02  0.98938462089E+02  0.41800000000E+01 0. -1.
        -11    1    1    2    0    0 -0.23217746752E+02 -0.46525110425E+02  0.62987730544E+02  0.81676825742E+02  0.00000000000E+00 0.  1.
         11    1    1    2    0    0  0.82024068596E+01  0.29733972468E+02  0.11973445254E+03  0.12364355107E+03  0.00000000000E+00 0. -1.
</event>
<event>
 7    1  0.2420569E-009  0.1590757E+03  0.7561462E-02  0.1189744E+00
         -2   -1    0    0    0  501 -0.00000000000E+00  0.00000000000E+00  0.63059003275E+02  0.63059003275E+02  0.00000000000E+00 0. -1.
          2   -1    0    0  501    0  0.00000000000E+00 -0.00000000000E+00 -0.57979348013E+03  0.57979348013E+03  0.00000000000E+00 0.  1.
         25    2    1    2    0    0 -0.90840807938E+02  0.92546319928E+02 -0.41961920708E+03  0.45666609126E+03  0.12508703464E+03 0.  0.
          5    1    3    3  502    0  0.26077327651E+02  0.20956489922E+02 -0.36274363619E+02  0.49522755812E+02  0.41800000000E+01 0.  1.
         -5    1    3    3    0  502 -0.11691813559E+03  0.71589830006E+02 -0.38334484346E+03  0.40714333545E+03  0.41800000000E+01 0.  1.
        -11    1    1    2    0    0 -0.10944319724E+02 -0.21636009878E+01  0.83940486564E+01  0.13961352238E+02  0.00000000000E+00 0. -1.
         11    1    1    2    0    0  0.10178512766E+03 -0.90382718940E+02 -0.10550931843E+03  0.17222503991E+03  0.00000000000E+00 0.  1.
</event>
<event>
 7    1  0.2420569E-009  0.9023269E+02  0.7561462E-02  0.1302289E+00
         -4   -1    0    0    0  501 -0.00000000000E+00  0.00000000000E+00  0.20410261669E+03  0.20410261669E+03  0.00000000000E+00 0.  1.
          4   -1    0    0  501    0  0.00000000000E+00 -0.00000000000E+00 -0.60771116991E+02  0.60771116991E+02  0.00000000000E+00 0. -1.
         25    2    1    2    0    0  0.40446770979E+02 -0.74169502439E+01  0.10358913613E+03  0.16753352387E+03  0.12508325253E+03 0.  0.
          5    1    3    3  502    0 -0.40827098154E+02 -0.97976649938E+01  0.97637131634E+01  0.43308759827E+02  0.41800000000E+01 0. -1.
         -5    1    3    3    0  502  0.81273869133E+02  0.23807147499E+01  0.93825422968E+02  0.12422476404E+03  0.41800000000E+01 0. -1.
        -11    1    1    2    0    0 -0.25955367929E+02 -0.15137314749E+02 -0.17043565693E+02  0.34544211580E+02  0.00000000000E+00 0. -1.
         11    1    1    2    0    0 -0.14491403051E+02  0.22554264993E+02  0.56785929264E+02  0.62795998233E+02  0.00000000000E+00 0.  1.
</event>
<event>
 7    1  0.2420569E-009  0.1300606E+03  0.7561462E-02  0.1227366E+00
          2   -1    0    0  501    0  0.00000000000E+00  0.00000000000E+00  0.17629537462E+03  0.17629537462E+03  0.00000000000E+00 0. -1.
         -2   -1    0    0    0  501 -0.00000000000E+00 -0.00000000000E+00 -0.11943161541E+03  0.11943161541E+03  0.00000000000E+00 0.  1.
         25    2    1    2    0    0  0.48132420568E+02 -0.85546587101E+02  0.46490793961E+02  0.16565969775E+03  0.12508714187E+03 0.  0.
          5    1    3    3  502    0  0.23003892356E+02 -0.10074187678E+03  0.72426416568E+02  0.12625831860E+03  0.41800000000E+01 0. -1.
         -5    1    3    3    0  502  0.25128528212E+02  0.15195289675E+02 -0.25935622607E+02  0.39401379143E+02  0.41800000000E+01 0. -1.
        -11    1    1    2    0    0  0.14573658133E+02  0.55733831189E+02  0.17659322843E+02  0.60253656600E+02  0.00000000000E+00 0. -1.
         11    1    1    2    0    0 -0.62706078701E+02  0.29812755912E+02 -0.72863575940E+01  0.69813635689E+02  0.00000000000E+00 0.  1.
</event>
<event>
 7    1  0.2420569E-009  0.1147629E+03  0.7561462E-02  0.1251996E+00
          1   -1    0    0  501    0  0.00000000000E+00  0.00000000000E+00  0.49947040549E+03  0.49947040549E+03  0.00000000000E+00 0. -1.
         -1   -1    0    0    0  501 -0.00000000000E+00 -0.00000000000E+00 -0.64790845619E+02  0.64790845619E+02  0.00000000000E+00 0.  1.
         25    2    1    2    0    0 -0.15623655292E+02  0.39194654095E+02  0.44473964108E+03  0.46391978256E+03  0.12509155360E+03 0.  0.
          5    1    3    3  502    0 -0.69462667020E+02  0.99994965903E+01  0.25357959376E+03  0.26314470318E+03  0.41800000000E+01 0. -1.
         -5    1    3    3    0  502  0.53839011728E+02  0.29195157504E+02  0.19116004733E+03  0.20077507938E+03  0.41800000000E+01 0. -1.
        -11    1    1    2    0    0 -0.13573101738E+02 -0.60299981334E+02 -0.15958426265E+02  0.63835634316E+02  0.00000000000E+00 0.  1.
         11    1    1    2    0    0  0.29196757030E+02  0.21105327240E+02  0.58983450555E+01  0.36505834237E+02  0.00000000000E+00 0. -1.
</event>
<event>
 7    1  0.2420569E-009  0.4219820E+03  0.7561462E-02  0.1036423E+00
          1   -1    0    0  501    0  0.00000000000E+00  0.00000000000E+00  0.29404792333E+03  0.29404792333E+03  0.00000000000E+00 0. -1.
         -1   -1    0    0    0  501 -0.00000000000E+00 -0.00000000000E+00 -0.69454751283E+03  0.69454751283E+03  0.00000000000E+00 0.  1.
         25    2    1    2    0    0 -0.40157176592E+03 -0.47097982817E+02 -0.35122515867E+03  0.54998451466E+03  0.12508297692E+03 0.  0.
          5    1    3    3  502    0 -0.29442382146E+03 -0.89746942539E+02 -0.25648301328E+03  0.40067556556E+03  0.41800000000E+01 0.  1.
         -5    1    3    3    0  502 -0.10714794446E+03  0.42648959723E+02 -0.94742145394E+02  0.14930894910E+03  0.41800000000E+01 0.  1.
        -11    1    1    2    0    0  0.21621612054E+03 -0.33174604567E+02  0.31626902861E+02  0.22102087267E+03  0.00000000000E+00 0. -1.
         11    1    1    2    0    0  0.18535564538E+03  0.80272587384E+02 -0.80901333693E+02  0.21759004884E+03  0.00000000000E+00 0.  1.
</event>
<event>
 7    1  0.2420569E-009  0.1224143E+03  0.7561462E-02  0.1239167E+00
          1   -1    0    0  501    0  0.00000000000E+00  0.00000000000E+00  0.11895222949E+03  0.11895222949E+03  0.00000000000E+00 0. -1.
         -1   -1    0    0    0  501 -0.00000000000E+00 -0.00000000000E+00 -0.19922940568E+03  0.19922940568E+03  0.00000000000E+00 0.  1.
         25    2    1    2    0    0 -0.64908159360E+02  0.91072293330E+02 -0.63576104768E+02  0.17943414710E+03  0.12508980888E+03 0.  0.
          5    1    3    3  502    0 -0.68814299654E+02  0.88883119564E+02 -0.95113067819E+02  0.14730778951E+03  0.41800000000E+01 0.  1.
         -5    1    3    3    0  502  0.39061402936E+01  0.21891737653E+01  0.31536963051E+02  0.32126357594E+02  0.41800000000E+01 0.  1.
        -11    1    1    2    0    0  0.75785461516E+02 -0.84508914615E+02 -0.32877931137E+02  0.11817847174E+03  0.00000000000E+00 0.  1.
         11    1    1    2    0    0 -0.10877302156E+02 -0.65633787144E+01  0.16176859717E+02  0.20569016326E+02  0.00000000000E+00 0. -1.
</event>
<event>
 7    1  0.2420569E-009  0.1669337E+03  0.7561462E-02  0.1181084E+00
         -2   -1    0    0    0  501 -0.00000000000E+00  0.00000000000E+00  0.39783030313E+02  0.39783030313E+02  0.00000000000E+00 0.  1.
          2   -1    0    0  501    0  0.00000000000E+00 -0.00000000000E+00 -0.72819522840E+03  0.72819522840E+03  0.00000000000E+00 0. -1.
         25    2    1    2    0    0 -0.12122890659E+03  0.39300855190E+02 -0.30687664758E+03  0.35505217790E+03  0.12509103560E+03 0.  0.
          5    1    3    3  502    0 -0.74691165827E+02  0.83784853433E+02 -0.21792680801E+03  0.24516981455E+03  0.41800000000E+01 0. -1.
         -5    1    3    3    0  502 -0.46537740765E+02 -0.44483998243E+02 -0.88949839567E+02  0.10988236335E+03  0.41800000000E+01 0. -1.
        -11    1    1    2    0    0  0.52744297206E+02 -0.65156305931E+02 -0.18172100060E+03  0.20012452910E+03  0.00000000000E+00 0.  1.
         11    1    1    2    0    0  0.68484609386E+02  0.25855450740E+02 -0.19981454991E+03  0.21280155172E+03  0.00000000000E+00 0. -1.
</event>
<event>
 7    1  0.2420569E-009  0.1133975E+03  0.7561462E-02  0.1254404E+00
          2   -1    0    0  501    0  0.00000000000E+00  0.00000000000E+00  0.10365410720E+03  0.10365410720E+03  0.00000000000E+00 0. -1.
         -2   -1    0    0    0  501 -0.00000000000E+00 -0.00000000000E+00 -0.13573361375E+03  0.13573361375E+03  0.00000000000E+00 0.  1.
         25    2    1    2    0    0 -0.32762629606E+02  0.14591548939E+02 -0.51244923515E+02  0.13985896933E+03  0.12509270929E+03 0.  0.
          5    1    3    3  502    0 -0.62001499251E+02 -0.35370436257E+02 -0.34875757786E+02  0.79555292416E+02  0.41800000000E+01 0. -1.
         -5    1    3    3    0  502  0.29238869644E+02  0.49961985195E+02 -0.16369165729E+02  0.60303676914E+02  0.41800000000E+01 0. -1.
        -11    1    1    2    0    0  0.47991988054E+02  0.25513983434E+02  0.61569756657E+01  0.54700115333E+02  0.00000000000E+00 0.  1.
         11    1    1    2    0    0 -0.15229358448E+02 -0.40105532372E+02  0.13008441300E+02  0.44828636279E+02  0.00000000000E+00 0. -1.
</event>
<event>
 7    1  0.2420569E-009  0.1191303E+03  0.7561462E-02  0.1244539E+00
          3   -1    0    0  501    0  0.00000000000E+00  0.00000000000E+00  0.42564340736E+02  0.42564340736E+02  0.00000000000E+00 0. -1.
         -3   -1    0    0    0  501 -0.00000000000E+00 -0.00000000000E+00 -0.39862721252E+03  0.39862721252E+03  0.00000000000E+00 0.  1.
         25    2    1    2    0    0 -0.87568009883E+00  0.70195561025E+02 -0.21188671097E+03  0.25587386458E+03  0.12508905903E+03 0.  0.
          5    1    3    3  502    0  0.48991021783E+02  0.41551592072E+02 -0.17732658974E+03  0.18865006453E+03  0.41800000000E+01 0. -1.
         -5    1    3    3    0  502 -0.49866701882E+02  0.28643968954E+02 -0.34560121230E+02  0.67223800052E+02  0.41800000000E+01 0. -1.
        -11    1    1    2    0    0  0.89388810862E+01  0.21964590817E+02 -0.33985188145E+02  0.41440799438E+02  0.00000000000E+00 0.  1.
         11    1    1    2    0    0 -0.80632009874E+01 -0.92160151842E+02 -0.11019097267E+03  0.14387688924E+03  0.00000000000E+00 0. -1.
</event>
<event>
 7    1  0.2420569E-009  0.8845713E+02  0.7561462E-02  0.1306632E+00
         -2   -1    0    0    0  501 -0.00000000000E+00  0.00000000000E+00  0.29674985512E+03  0.29674985512E+03  0.00000000000E+00 0.  1.
          2   -1    0    0  501    0  0.00000000000E+00 -0.00000000000E+00 -0.50915207324E+02  0.50915207324E+02  0.00000000000E+00 0. -1.
         25    2    1    2    0    0 -0.42722484375E+02 -0.31753356272E+02  0.10433159154E+03  0.17136506137E+03  0.12508963570E+03 0.  0.
          5    1    3    3  502    0 -0.44543247135E+02  0.65363355610E+00 -0.15339313974E+02  0.47300053440E+02  0.41800000000E+01 0.  1.
         -5    1    3    3    0  502  0.18207627602E+01 -0.32406989828E+02  0.11967090551E+03  0.12406500793E+03  0.41800000000E+01 0.  1.
        -11    1    1    2    0    0 -0.25556559729E+02  0.12804063973E+02  0.17607943555E+02  0.33572629859E+02  0.00000000000E+00 0.  1.
         11    1    1    2    0    0  0.68279044104E+02  0.18949292299E+02  0.12389511270E+03  0.14272737121E+03  0.00000000000E+00 0. -1.
</event>
<event>
 7    1  0.2420569E-009  0.8847827E+02  0.7561462E-02  0.1306579E+00
         -1   -1    0    0    0  501 -0.00000000000E+00  0.00000000000E+00  0.56365849740E+02  0.56365849740E+02  0.00000000000E+00 0.  1.
          1   -1    0    0  501    0  0.00000000000E+00 -0.00000000000E+00 -0.26036141337E+03  0.26036141337E+03  0.00000000000E+00 0. -1.
         25    2    1    2    0    0 -0.68114062409E+01 -0.46051856643E+02 -0.15043191145E+03  0.20111150730E+03  0.12509560197E+03 0.  0.
          5    1    3    3  502    0 -0.19475869973E+02 -0.59905766454E+02 -0.15752689722E+02  0.65066350744E+02  0.41800000000E+01 0.  1.
         -5    1    3    3    0  502  0.12664463732E+02  0.13853909812E+02 -0.13467922173E+03  0.13604515656E+03  0.41800000000E+01 0.  1.
        -11    1    1    2    0    0 -0.98715298740E+01  0.67052489537E+02 -0.16307233705E+02  0.69709463678E+02  0.00000000000E+00 0.  1.
         11    1    1    2    0    0  0.16682936115E+02 -0.21000632894E+02 -0.37256418480E+02  0.45906292132E+02  0.00000000000E+00 0. -1.
</event>
<event>
 7    1  0.2420569E-009  0.1201723E+03  0.7561462E-02  0.1242813E+00
          1   -1    0    0  501    0  0.00000000000E+00  0.00000000000E+00  0.79492447755E+02  0.79492447755E+02  0.00000000000E+00 0. -1.
         -1   -1    0    0    0  501 -0.00000000000E+00 -0.00000000000E+00 -0.25885823622E+03  0.25885823622E+03  0.00000000000E+00 0.  1.
         25    2    1    2    0    0 -0.79539679592E+02 -0.41680920034E+02 -0.13090348732E+03  0.20210613002E+03  0.12508918848E+03 0.  0.
          5    1    3    3  502    0 -0.13815183505E+02  0.23963250024E+02  0.12942019012E+02  0.30823122864E+02  0.41800000000E+01 0.  1.
         -5    1    3    3    0  502 -0.65724496087E+02 -0.65644170058E+02 -0.14384550633E+03  0.17128300715E+03  0.41800000000E+01 0.  1.
        -11    1    1    2    0    0  0.70516355826E+02 -0.60805477561E+01 -0.51518085965E+02  0.87542233702E+02  0.00000000000E+00 0.  1.
         11    1    1    2    0    0  0.90233237665E+01  0.47761467790E+02  0.30557848189E+01  0.48702320254E+02  0.00000000000E+00 0. -1.
</event>
<event>
 7    1  0.2420569E-009  0.2058388E+03  0.7561462E-02  0.1144904E+00
          1   -1    0    0  501    0  0.00000000000E+00  0.00000000000E+00  0.15505827816E+03  0.15505827816E+03  0.00000000000E+00 0. -1.
         -1   -1    0    0    0  501 -0.00000000000E+00 -0.00000000000E+00 -0.30270567019E+03  0.30270567019E+03  0.00000000000E+00 0.  1.
         25    2    1    2    0    0 -0.16528544189E+03 -0.84134269929E+02 -0.10438760318E+03  0.24687094908E+03  0.12510252246E+03 0.  0.
          5    1    3    3  502    0 -0.10319760017E+03 -0.11472971571E+03 -0.71535984860E+02  0.17013971282E+03  0.41800000000E+01 0.  1.
         -5    1    3    3    0  502 -0.62087841723E+02  0.30595445784E+02 -0.32851618316E+02  0.76731236263E+02  0.41800000000E+01 0.  1.
        -11    1    1    2    0    0  0.10237600202E+03  0.68379590566E+02 -0.68987809812E+02  0.14112381832E+03  0.00000000000E+00 0.  1.
         11    1    1    2    0    0  0.62909439872E+02  0.15754679363E+02  0.25728020957E+02  0.69769180941E+02  0.00000000000E+00 0. -1.
</event>
<event>
 7    1  0.2420569E-009  0.1090758E+03  0.7561462E-02  0.1262291E+00
         -2   -1    0    0    0  501 -0.00000000000E+00  0.00000000000E+00  0.22249509794E+03  0.22249509794E+03  0.00000000000E+00 0.  1.
          2   -1    0    0  501    0  0.00000000000E+00 -0.00000000000E+00 -0.67325750167E+02  0.67325750167E+02  0.00000000000E+00 0. -1.
         25    2    1    2    0    0  0.10698955366E+02  0.44485570489E+02  0.14206943931E+03  0.19474159322E+03  0.12508848435E+03 0.  0.
          5    1    3    3  502    0  0.51218761638E+02  0.63126685708E+02  0.11947498777E+03  0.14456861725E+03  0.41800000000E+01 0. -1.
         -5    1    3    3    0  502 -0.40519806272E+02 -0.18641115220E+02  0.22594451542E+02  0.50172975967E+02  0.41800000000E+01 0. -1.
        -11    1    1    2    0    0 -0.67548511231E+01  0.23195547288E+02  0.12674579730E+02  0.27281979382E+02  0.00000000000E+00 0.  1.
         11    1    1    2    0    0 -0.39441042430E+01 -0.67681117777E+02  0.42532873647E+00  0.67797275508E+02  0.00000000000E+00 0. -1.
</event>
<event>
 7    1  0.2420569E-009  0.8567074E+02  0.7561462E-02  0.1313688E+00
         -1   -1    0    0    0  501 -0.00000000000E+00  0.00000000000E+00  0.63094160648E+02  0.63094160648E+02  0.00000000000E+00 0.  1.
          1   -1    0    0  501    0  0.00000000000E+00 -0.00000000000E+00 -0.27284347396E+03  0.27284347396E+03  0.00000000000E+00 0. -1.
         25    2    1    2    0    0  0.49970168584E+02 -0.32541699578E+02 -0.60411864690E+02  0.15117168334E+03  0.12508918614E+03 0.  0.
          5    1    3    3  502    0 -0.86561089829E+01  0.20990996865E+01 -0.79675192517E+02  0.80280403242E+02  0.41800000000E+01 0.  1.
         -5    1    3    3    0  502  0.58626277567E+02 -0.34640799264E+02  0.19263327827E+02  0.70891280098E+02  0.41800000000E+01 0.  1.
        -11    1    1    2    0    0 -0.54245075928E+02 -0.59316647361E+01 -0.13104277559E+03  0.14195042072E+03  0.00000000000E+00 0.  1.
         11    1    1    2    0    0  0.42749073444E+01  0.38473364314E+02 -0.18294673033E+02  0.42815530544E+02  0.00000000000E+00 0. -1.
</event>
<event>
 7    1  0.3250331E-009  0.1630899E+03  0.7561462E-02  0.1185252E+00
          1   -1    0    0  501    0  0.00000000000E+00  0.00000000000E+00  0.77729897905E+03  0.77729897905E+03  0.00000000000E+00 0. -1.
         -1   -1    0    0    0  501 -0.00000000000E+00 -0.00000000000E+00 -0.42012066682E+02  0.42012066682E+02  0.00000000000E+00 0.  1.
         25    2    1    2    0    0  0.12404401541E+03  0.13181140216E+02  0.22538835456E+03  0.28637177918E+03  0.12509286678E+03 0.  0.
          5    1    3    3  502    0  0.13743597486E+03  0.38029252318E+02  0.15627363431E+03  0.21159818618E+03  0.41800000000E+01 0. -1.
         -5    1    3    3    0  502 -0.13391959450E+02 -0.24848112102E+02  0.69114720256E+02  0.74773592992E+02  0.41800000000E+01 0. -1.
        -11    1    1    2    0    0 -0.66225261064E+02 -0.52964337528E+02  0.27416715112E+03  0.28698193847E+03  0.00000000000E+00 0. -1.
         11    1    1    2    0    0 -0.57818754345E+02  0.39783197312E+02  0.23573140668E+03  0.24595732808E+03  0.00000000000E+00 0.  1.
</event>
<event>
 7    1  0.2420569E-009  0.6655187E+02  0.7561462E-02  0.1372227E+00
          1   -1    0    0  501    0  0.00000000000E+00  0.00000000000E+00  0.83067123545E+02  0.83067123545E+02  0.00000000000E+00 0. -1.
         -1   -1    0    0    0  501 -0.00000000000E+00 -0.00000000000E+00 -0.17278810488E+03  0.17278810488E+03  0.00000000000E+00 0.  1.
         25    2    1    2    0    0 -0.15393625359E+01  0.13537838948E+02 -0.27193906290E-01  0.12582801082E+03  0.12508814830E+03 0.  0.
          5    1    3    3  502    0 -0.12872841419E+02 -0.21874399747E+02  0.54171620947E+02  0.59968627852E+02  0.41800000000E+01 0.  1.
         -5    1    3    3    0  502  0.11333478883E+02  0.35412238695E+02 -0.54198814853E+02  0.65859382964E+02  0.41800000000E+01 0.  1.
        -11    1    1    2    0    0  0.34348542978E+02  0.31774007215E+00 -0.90512370037E+00  0.34361935516E+02  0.00000000000E+00 0. -1.
         11    1    1    2    0    0 -0.32809180442E+02 -0.13855579020E+02 -0.88788663733E+02  0.95665282097E+02  0.00000000000E+00 0.  1.
</event>
<event>
 7    1  0.2420569E-009  0.1034949E+03  0.7561462E-02  0.1273114E+00
         -1   -1    0    0    0  501 -0.00000000000E+00  0.00000000000E+00  0.58792409065E+02  0.58792409065E+02  0.00000000000E+00 0.  1.
          1   -1    0    0  501    0  0.00000000000E+00 -0.00000000000E+00 -0.75687632876E+03  0.75687632876E+03  0.00000000000E+00 0. -1.
         25    2    1    2    0    0 -0.32941153825E+02 -0.65916892486E+02 -0.68173046252E+03  0.69701726615E+03  0.12508592829E+03 0.  0.
          5    1    3    3  502    0 -0.55683894709E+01 -0.89806491336E+02 -0.60883652738E+03  0.61546372949E+03  0.41800000000E+01 0.  1.
         -5    1    3    3    0  502 -0.27372764354E+02  0.23889598850E+02 -0.72893935141E+02  0.81553536661E+02  0.41800000000E+01 0.  1.
        -11    1    1    2    0    0 -0.62366720794E+01  0.13786635863E+02  0.33373680859E+02  0.36643825962E+02  0.00000000000E+00 0.  1.
         11    1    1    2    0    0  0.39177825904E+02  0.52130256623E+02 -0.49727138034E+02  0.82007645712E+02  0.00000000000E+00 0. -1.
</event>
<event>
 7    1  0.2420569E-009  0.9253609E+02  0.7561462E-02  0.1296824E+00
          1   -1    0    0  501    0  0.00000000000E+00  0.00000000000E+00  0.18439592060E+03  0.18439592060E+03  0.00000000000E+00 0. -1.
         -1   -1    0    0    0  501 -0.00000000000E+00 -0.00000000000E+00 -0.97384972740E+02  0.97384972740E+02  0.00000000000E+00 0.  1.
         25    2    1    2    0    0  0.83086961193E+00 -0.17049804037E+02 -0.32971502229E+02  0.13049370081E+03  0.12510035904E+03 0.  0.
          5    1    3    3  502    0 -0.59181807979E+02 -0.14836781497E+02 -0.34614149415E+02  0.70272528207E+02  0.41800000000E+01 0. -1.
         -5    1    3    3    0  502  0.60012677591E+02 -0.22130225397E+01  0.16426471858E+01  0.60221172607E+02  0.41800000000E+01 0. -1.
        -11    1    1    2    0    0  0.85557243957E+00 -0.23308217142E+02  0.10601016469E+03  0.10854565863E+03  0.00000000000E+00 0. -1.
         11    1    1    2    0    0 -0.16864420515E+01  0.40358021178E+02  0.13972285399E+02  0.42741533893E+02  0.00000000000E+00 0.  1.
</event>
<event>
 7    1  0.2548993E-009  0.1055295E+03  0.7561462E-02  0.1269080E+00
         -1   -1    0    0    0  501 -0.00000000000E+00  0.00000000000E+00  0.11154985998E+03  0.11154985998E+03  0.00000000000E+00 0.  1.
          1   -1    0    0  501    0  0.00000000000E+00 -0.00000000000E+00 -0.22505532210E+03  0.22505532210E+03  0.00000000000E+00 0. -1.
         25    2    1    2    0    0  0.72159770450E+02  0.76182028745E+02 -0.10170117345E+02  0.16359084876E+03  0.12509116890E+03 0.  0.
          5    1    3    3  502    0  0.64534999186E+02  0.70281031949E+02 -0.59916955776E+02  0.11274619089E+03  0.41800000000E+01 0.  1.
         -5    1    3    3    0  502  0.76247712639E+01  0.59009967967E+01  0.49746838431E+02  0.50844657870E+02  0.41800000000E+01 0.  1.
        -11    1    1    2    0    0 -0.24589193855E+02 -0.22689263486E+02  0.13429737520E+02  0.36052586340E+02  0.00000000000E+00 0.  1.
         11    1    1    2    0    0 -0.47570576595E+02 -0.53492765259E+02 -0.11676508229E+03  0.13696174698E+03  0.00000000000E+00 0. -1.
</event>
<event>
 7    1  0.2420569E-009  0.1188543E+03  0.7561462E-02  0.1244999E+00
          2   -1    0    0  501    0  0.00000000000E+00  0.00000000000E+00  0.22648943265E+03  0.22648943265E+03  0.00000000000E+00 0.  1.
         -2   -1    0    0    0  501 -0.00000000000E+00 -0.00000000000E+00 -0.96412071552E+02  0.96412071552E+02  0.00000000000E+00 0. -1.
         25    2    1    2    0    0  0.86520267709E+02 -0.43407535976E+02  0.43981176368E+02  0.16417035139E+03  0.12509032536E+03 0.  0.
          5    1    3    3  502    0  0.39009879529E+02 -0.68027349351E+02 -0.19624150052E+02  0.80944861640E+02  0.41800000000E+01 0. -1.
         -5    1    3    3    0  502  0.47510388180E+02  0.24619813375E+02  0.63605326420E+02  0.83225489753E+02  0.41800000000E+01 0. -1.
        -11    1    1    2    0    0 -0.69445760023E+02  0.13029552503E+02  0.98950577699E+02  0.12158823813E+03  0.00000000000E+00 0.  1.
         11    1    1    2    0    0 -0.17074507686E+02  0.30377983472E+02 -0.12854392969E+02  0.37142914683E+02  0.00000000000E+00 0. -1.
</event>
<event>
 7    1  0.2420569E-009  0.1456561E+03  0.7561462E-02  0.1205915E+00
         -2   -1    0    0    0  501 -0.00000000000E+00  0.00000000000E+00  0.14461546595E+03  0.14461546595E+03  0.00000000000E+00 0.  1.
          2   -1    0    0  501    0  0.00000000000E+00 -0.00000000000E+00 -0.26360248263E+03  0.26360248263E+03  0.00000000000E+00 0. -1.
         25    2    1    2    0    0 -0.83669977120E+02 -0.76910923893E+02 -0.18205600809E+03  0.24840528479E+03  0.12507933540E+03 0.  0.
          5    1    3    3  502    0 -0.14294711076E+02  0.34220868623E+02 -0.49431606041E+02  0.61938378166E+02  0.41800000000E+01 0.  1.
         -5    1    3    3    0  502 -0.69375266044E+02 -0.11113179252E+03 -0.13262440205E+03  0.18646690662E+03  0.41800000000E+01 0.  1.
        -11    1    1    2    0    0  0.48929857191E+02  0.73103885800E+02  0.29747751603E+00  0.87968162062E+02  0.00000000000E+00 0. -1.
         11    1    1    2    0    0  0.34740119930E+02  0.38070380932E+01  0.62771513894E+02  0.71844501726E+02  0.00000000000E+00 0.  1.
</event>
<event>
 7    1  0.2420569E-009  0.1165686E+03  0.7561462E-02  0.1248868E+00
          2   -1    0    0  501    0  0.00000000000E+00  0.00000000000E+00  0.44433758077E+03  0.44433758077E+03  0.00000000000E+00 0. -1.
         -2   -1    0    0    0  501 -0.00000000000E+00 -0.00000000000E+00 -0.39072015578E+02  0.39072015578E+02  0.00000000000E+00 0.  1.
         25    2    1    2    0    0  0.51339271293E+01 -0.45882833425E+02  0.11652009500E+03  0.17707792401E+03  0.12509223405E+03 0.  0.
          5    1    3    3  502    0 -0.20189011163E+02 -0.84487247998E+02  0.74679826053E+02  0.11463088618E+03  0.41800000000E+01 0. -1.
         -5    1    3    3    0  502  0.25322938292E+02  0.38604414573E+02  0.41840268948E+02  0.62447037832E+02  0.41800000000E+01 0. -1.
        -11    1    1    2    0    0 -0.27700962520E-01  0.72606233948E+02  0.17681041442E+03  0.19113761698E+03  0.00000000000E+00 0.  1.
         11    1    1    2    0    0 -0.51062261668E+01 -0.26723400524E+02  0.11193505577E+03  0.11519405537E+03  0.00000000000E+00 0. -1.
</event>
<event>
 7    1  0.2420569E-009  0.1605574E+03  0.7561462E-02  0.1188069E+00
         -2   -1    0    0    0  501 -0.00000000000E+00  0.00000000000E+00  0.10646581644E+03  0.10646581644E+03  0.00000000000E+00 0.  1.
          2   -1    0    0  501    0  0.00000000000E+00 -0.00000000000E+00 -0.30365021204E+03  0.30365021204E+03  0.00000000000E+00 0. -1.
         25    2    1    2    0    0 -0.14202695663E+03  0.75656905913E+01 -0.15087018327E+03  0.24215474226E+03  0.12509280922E+03 0.  0.
          5    1    3    3  502    0 -0.34808786763E+02  0.41895707892E+02 -0.96764380624E+00  0.54637996946E+02  0.41800000000E+01 0. -1.
         -5    1    3    3    0  502 -0.10721816986E+03 -0.34330017301E+02 -0.14990253946E+03  0.18751674532E+03  0.41800000000E+01 0. -1.
        -11    1    1    2    0    0  0.96595329454E+02 -0.32608826798E+02 -0.54241859535E+02  0.11548234750E+03  0.00000000000E+00 0. -1.
         11    1    1    2    0    0  0.45431627173E+02  0.25043136207E+02  0.79276472079E+01  0.52478938717E+02  0.00000000000E+00 0.  1.
</event>
<event>
 7    1  0.2420569E-009  0.1476209E+03  0.7561462E-02  0.1203427E+00
          1   -1    0    0  501    0  0.00000000000E+00  0.00000000000E+00  0.13953191120E+04  0.13953191120E+04  0.00000000000E+00 0. -1.
         -1   -1    0    0    0  501 -0.00000000000E+00 -0.00000000000E+00 -0.32861056798E+02  0.32861056798E+02  0.00000000000E+00 0.  1.
         25    2    1    2    0    0  0.15752999889E+01 -0.10389793176E+03  0.12159239848E+04  0.12267503630E+04  0.12509218485E+03 0.  0.
          5    1    3    3  502    0 -0.98607070192E+01  0.25787957737E+02  0.34647104492E+03  0.34759446151E+03  0.41800000000E+01 0.  1.
         -5    1    3    3    0  502  0.11436007008E+02 -0.12968588950E+03  0.86945293983E+03  0.87915590152E+03  0.41800000000E+01 0.  1.
        -11    1    1    2    0    0 -0.16774430010E+02 -0.11711158794E+02  0.32023390132E+02  0.38000398130E+02  0.00000000000E+00 0.  1.
         11    1    1    2    0    0  0.15199130021E+02  0.11560909056E+03  0.11451068032E+03  0.16342940763E+03  0.00000000000E+00 0. -1.
</event>
<event>
 7    1  0.2420569E-009  0.1239984E+03  0.7561462E-02  0.1236643E+00
         -1   -1    0    0    0  501 -0.00000000000E+00  0.00000000000E+00  0.10982610092E+03  0.10982610092E+03  0.00000000000E+00 0.  1.
          1   -1    0    0  501    0  0.00000000000E+00 -0.00000000000E+00 -0.14623751803E+03  0.14623751803E+03  0.00000000000E+00 0. -1.
         25    2    1    2    0    0 -0.33310834625E+02  0.57575057750E+02 -0.24457648294E+02  0.14376728579E+03  0.12508539853E+03 0.  0.
          5    1    3    3  502    0  0.47521627618E+02  0.27991675341E+02 -0.60007245131E+01  0.55635600783E+02  0.41800000000E+01 0. -1.
         -5    1    3    3    0  502 -0.80832462243E+02  0.29583382408E+02 -0.18456923781E+02  0.88131685009E+02  0.41800000000E+01 0. -1.
        -11    1    1    2    0    0  0.55116836117E+02 -0.63330167642E+02 -0.23189892501E+02  0.87099637607E+02  0.00000000000E+00 0. -1.
         11    1    1    2    0    0 -0.21806001492E+02  0.57551098926E+01  0.11236123687E+02  0.25196695546E+02  0.00000000000E+00 0.  1.
</event>
<event>
 7    1  0.2420569E-009  0.9339482E+02  0.7561462E-02  0.1294833E+00
         -2   -1    0    0    0  501 -0.00000000000E+00  0.00000000000E+00  0.20411767819E+03  0.20411767819E+03  0.00000000000E+00 0. -1.
          2   -1    0    0  501    0  0.00000000000E+00 -0.00000000000E+00 -0.71070112809E+02  0.71070112809E+02  0.00000000000E+00 0.  1.
         25    2    1    2    0    0  0.27475612570E+02 -0.42929654288E+01  0.23304181412E+02  0.13024806652E+03  0.12509250626E+03 0.  0.
          5    1    3    3  502    0  0.17234031172E+02 -0.64437727385E+02  0.89243563406E+01  0.67426619944E+02  0.41800000000E+01 0. -1.
         -5    1    3    3    0  502  0.10241581398E+02  0.60144761956E+02  0.14379825072E+02  0.62821446572E+02  0.41800000000E+01 0. -1.
        -11    1    1    2    0    0  0.14899303823E+02 -0.44204049037E+01 -0.94153484728E+01  0.18170801325E+02  0.00000000000E+00 0.  1.
         11    1    1    2    0    0 -0.42374916393E+02  0.87133703325E+01  0.11915873244E+03  0.12676892316E+03  0.00000000000E+00 0. -1.
</event>
<event>
 7    1  0.2420569E-009  0.9124684E+02  0.7561462E-02  0.1299860E+00
          2   -1    0    0  501    0  0.00000000000E+00  0.00000000000E+00  0.68851332944E+02  0.68851332944E+02  0.00000000000E+00 0. -1.
         -2   -1    0    0    0  501 -0.00000000000E+00 -0.00000000000E+00 -0.17760442681E+03  0.17760442681E+03  0.00000000000E+00 0.  1.
         25    2    1    2    0    0 -0.10622592382E+02  0.17794064338E+02 -0.62196525376E+02  0.14122876011E+03  0.12509071396E+03 0.  0.
          5    1    3    3  502    0  0.40780602013E+02  0.22216264493E+02  0.14384150311E+02  0.48795451517E+02  0.41800000000E+01 0. -1.
         -5    1    3    3    0  502 -0.51403194395E+02 -0.44222001546E+01 -0.76580675687E+02  0.92433308590E+02  0.41800000000E+01 0. -1.
        -11    1    1    2    0    0 -0.32231711087E+02  0.91229176287E+01  0.39490773414E+01  0.33729898273E+02  0.00000000000E+00 0. -1.
         11    1    1    2    0    0  0.42854303469E+02 -0.26916981967E+02 -0.50505645834E+02  0.71497101376E+02  0.00000000000E+00 0.  1.
</event>
<event>
 7    1  0.2420569E-009  0.1410528E+03  0.7561462E-02  0.1211919E+00
         -2   -1    0    0    0  501 -0.00000000000E+00  0.00000000000E+00  0.18767076990E+02  0.18767076990E+02  0.00000000000E+00 0. -1.
          2   -1    0    0  501    0  0.00000000000E+00 -0.00000000000E+00 -0.25202475267E+04  0.25202475267E+04  0.00000000000E+00 0.  1.
         25    2    1    2    0    0  0.51827874097E+02 -0.97727689769E+02 -0.21845735804E+04  0.21909462307E+04  0.12508727948E+03 0.  0.
          5    1    3    3  502    0  0.35794763228E+02  0.43933153840E+01 -0.17576160055E+03  0.17947194466E+03  0.41800000000E+01 0. -1.
         -5    1    3    3    0  502  0.16033110869E+02 -0.10212100515E+03 -0.20088119799E+04  0.20114742860E+04  0.41800000000E+01 0. -1.
        -11    1    1    2    0    0 -0.43748988112E+02 -0.53279542922E+00 -0.74794102646E+02  0.86651114375E+02  0.00000000000E+00 0. -1.
         11    1    1    2    0    0 -0.80788859850E+01  0.98260485198E+02 -0.24211276662E+03  0.26141725864E+03  0.00000000000E+00 0.  1.
</event>
<event>
 7    1  0.2420569E-009  0.7863421E+02  0.7561462E-02  0.1332973E+00
         -2   -1    0    0    0  501 -0.00000000000E+00  0.00000000000E+00  0.20443248951E+02  0.20443248951E+02  0.00000000000E+00 0.  1.
          2   -1    0    0  501    0  0.00000000000E+00 -0.00000000000E+00 -0.69664275079E+03  0.69664275079E+03  0.00000000000E+00 0. -1.
         25    2    1    2    0    0 -0.50429272942E+02 -0.12363012513E+02 -0.41753370422E+03  0.43895372808E+03  0.12510006230E+03 0.  0.
          5    1    3    3  502    0 -0.49088446636E+02 -0.11091593816E+02 -0.48910732470E+02  0.70302426681E+02  0.41800000000E+01 0. -1.
         -5    1    3    3    0  502 -0.13408263053E+01 -0.12714186975E+01 -0.36862297175E+03  0.36865130140E+03  0.41800000000E+01 0. -1.
        -11    1    1    2    0    0 -0.18990576661E+02 -0.18241451928E+02 -0.69319120624E+02  0.74152094067E+02  0.00000000000E+00 0.  1.
         11    1    1    2    0    0  0.69419849603E+02  0.30604464441E+02 -0.18934667700E+03  0.20398017760E+03  0.00000000000E+00 0. -1.
</event>
<event>
 7    1  0.2420569E-009  0.1015337E+03  0.7561462E-02  0.1277103E+00
         -1   -1    0    0    0  501 -0.00000000000E+00  0.00000000000E+00  0.36193251584E+02  0.36193251584E+02  0.00000000000E+00 0. -1.
          1   -1    0    0  501    0  0.00000000000E+00 -0.00000000000E+00 -0.34519122660E+03  0.34519122660E+03  0.00000000000E+00 0.  1.
         25    2    1    2    0    0  0.23112672683E+02 -0.37950369467E+01 -0.18623920282E+03  0.22556570734E+03  0.12508496999E+03 0.  0.
          5    1    3    3  502    0  0.35830679542E+02  0.50596630423E+02 -0.55437175474E+02  0.83274302346E+02  0.41800000000E+01 0.  1.
         -5    1    3    3    0  502 -0.12718006859E+02 -0.54391667370E+02 -0.13080202735E+03  0.14229140500E+03  0.41800000000E+01 0.  1.
        -11    1    1    2    0    0  0.12614440634E+01  0.40681377586E+02 -0.95670395813E+02  0.10396821802E+03  0.00000000000E+00 0.  1.
         11    1    1    2    0    0 -0.24374116746E+02 -0.36886340640E+02 -0.27088376385E+02  0.51850552824E+02  0.00000000000E+00 0. -1.
</event>
<event>
 7    1  0.2420569E-009  0.1310379E+03  0.7561462E-02  0.1225924E+00
         -1   -1    0    0    0  501 -0.00000000000E+00  0.00000000000E+00  0.27726945078E+02  0.27726945078E+02  0.00000000000E+00 0. -1.
          1   -1    0    0  501    0  0.00000000000E+00 -0.00000000000E+00 -0.11058993488E+04  0.11058993488E+04  0.00000000000E+00 0.  1.
         25    2    1    2    0    0  0.81204190172E+02 -0.60076508434E+02 -0.87013853243E+03  0.88486783919E+03  0.12508684920E+03 0.  0.
          5    1    3    3  502    0 -0.28073682897E+01 -0.75130475510E+02 -0.41590878382E+03  0.42267015334E+03  0.41800000000E+01 0.  1.
         -5    1    3    3    0  502  0.84011558461E+02  0.15053967076E+02 -0.45422974861E+03  0.46219768585E+03  0.41800000000E+01 0.  1.
        -11    1    1    2    0    0 -0.28630469523E+02  0.25993175307E+02 -0.84651422191E+01  0.39585446574E+02  0.00000000000E+00 0. -1.
         11    1    1    2    0    0 -0.52573720648E+02  0.34083333127E+02 -0.19956872904E+03  0.20917300808E+03  0.00000000000E+00 0.  1.
</event>
<event>
 7    1  0.2420569E-009  0.1233935E+03  0.7561462E-02  0.1237602E+00
         -3   -1    0    0    0  501 -0.00000000000E+00  0.00000000000E+00  0.89749944451E+02  0.89749944451E+02  0.00000000000E+00 0.  1.
          3   -1    0    0  501    0  0.00000000000E+00 -0.00000000000E+00 -0.27718668804E+03  0.27718668804E+03  0.00000000000E+00 0. -1.
         25    2    1    2    0    0  0.17086883161E+02 -0.56622571900E+02 -0.21388246685E+03  0.25473793687E+03  0.12509048577E+03 0.  0.
          5    1    3    3  502    0 -0.51966027271E+02 -0.67255110321E+01 -0.92306896123E+02  0.10622493098E+03  0.41800000000E+01 0.  1.
         -5    1    3    3    0  502  0.69052910432E+02 -0.49897060868E+02 -0.12157557073E+03  0.14851300590E+03  0.41800000000E+01 0.  1.
        -11    1    1    2    0    0 -0.40108421008E+02 -0.74919903333E+01  0.74426376607E+01  0.41475392828E+02  0.00000000000E+00 0.  1.
         11    1    1    2    0    0  0.23021537847E+02  0.64114562233E+02  0.19003085603E+02  0.70723302790E+02  0.00000000000E+00 0. -1.
</event>
<event>
 7    1  0.2420569E-009  0.1170158E+03  0.7561462E-02  0.1248103E+00
          2   -1    0    0  501    0  0.00000000000E+00  0.00000000000E+00  0.72287651309E+03  0.72287651309E+03  0.00000000000E+00 0. -1.
         -2   -1    0    0    0  501 -0.00000000000E+00 -0.00000000000E+00 -0.31928783560E+02  0.31928783560E+02  0.00000000000E+00 0.  1.
         25    2    1    2    0    0  0.78941154346E+02  0.72240827754E+02  0.40005643050E+03  0.43259949792E+03  0.12508690966E+03 0.  0.
          5    1    3    3  502    0  0.76379170948E+02  0.84314111805E+02  0.40339232766E+03  0.41914852930E+03  0.41800000000E+01 0.  1.
         -5    1    3    3    0  502  0.25619833981E+01 -0.12073284052E+02 -0.33358971599E+01  0.13450968611E+02  0.41800000000E+01 0.  1.
        -11    1    1    2    0    0 -0.13068095790E+02 -0.14957642414E+02  0.14821590387E+01  0.19917404188E+02  0.00000000000E+00 0.  1.
         11    1    1    2    0    0 -0.65873058556E+02 -0.57283185340E+02  0.28940913999E+03  0.30228839454E+03  0.00000000000E+00 0. -1.
</event>
<event>
 7    1  0.2420569E-009  0.1911679E+03  0.7561462E-02  0.1157412E+00
          2   -1    0    0  501    0  0.00000000000E+00  0.00000000000E+00  0.15651755218E+04  0.15651755218E+04  0.00000000000E+00 0. -1.
         -2   -1    0    0    0  501 -0.00000000000E+00 -0.00000000000E+00 -0.30765495639E+02  0.30765495639E+02  0.00000000000E+00 0.  1.
         25    2    1    2    0    0 -0.16093970953E+03  0.16476272222E+02  0.11612279089E+04  0.11790976339E+04  0.12509163212E+03 0.  0.
          5    1    3    3  502    0 -0.12482480338E+03  0.65792882645E+02  0.72816673777E+03  0.74172380664E+03  0.41800000000E+01 0. -1.
         -5    1    3    3    0  502 -0.36114906155E+02 -0.49316610424E+02  0.43306117108E+03  0.43737382730E+03  0.41800000000E+01 0. -1.
        -11    1    1    2    0    0  0.94776043539E+02 -0.48423011392E+02  0.16770985978E+03  0.19863001668E+03  0.00000000000E+00 0.  1.
         11    1    1    2    0    0  0.66163665993E+02  0.31946739171E+02  0.20547225758E+03  0.21821336686E+03  0.00000000000E+00 0. -1.
</event>
<event>
 7    1  0.2420569E-009  0.1816150E+03  0.7561462E-02  0.1166249E+00
         -2   -1    0    0    0  501 -0.00000000000E+00  0.00000000000E+00  0.20774160882E+03  0.20774160882E+03  0.00000000000E+00 0.  1.
          2   -1    0    0  501    0  0.00000000000E+00 -0.00000000000E+00 -0.20618284500E+03  0.20618284500E+03  0.00000000000E+00 0. -1.
         25    2    1    2    0    0  0.15139401947E+03  0.30399409439E+02 -0.83593622348E+02  0.21559379190E+03  0.12509402936E+03 0.  0.
          5    1    3    3  502    0  0.60895208649E+02 -0.47657478425E+02 -0.19243795526E+02  0.79795098549E+02  0.41800000000E+01 0.  1.
         -5    1    3    3    0  502  0.90498810823E+02  0.78056887864E+02 -0.64349826822E+02  0.13579869335E+03  0.41800000000E+01 0.  1.
        -11    1    1    2    0    0 -0.52110671028E+02 -0.41071626499E+02  0.71505574656E+02  0.97547156520E+02  0.00000000000E+00 0.  1.
         11    1    1    2    0    0 -0.99283348445E+02  0.10672217060E+02  0.13646811513E+02  0.10078350540E+03  0.00000000000E+00 0. -1.
</event>
<event>
 7    1  0.2420569E-009  0.7779553E+02  0.7561462E-02  0.1335426E+00
         -2   -1    0    0    0  501 -0.00000000000E+00  0.00000000000E+00  0.50217250301E+02  0.50217250301E+02  0.00000000000E+00 0.  1.
          2   -1    0    0  501    0  0.00000000000E+00 -0.00000000000E+00 -0.29719992026E+03  0.29719992026E+03  0.00000000000E+00 0. -1.
         25    2    1    2    0    0  0.21744381671E+02 -0.50437604595E+02 -0.13727782776E+03  0.19367422830E+03  0.12509090543E+03 0.  0.
          5    1    3    3  502    0  0.15291009710E+02 -0.44338037314E+02 -0.16113675382E+03  0.16787555618E+03  0.41800000000E+01 0.  1.
         -5    1    3    3    0  502  0.64533719610E+01 -0.60995672806E+01  0.23858926056E+02  0.25798672122E+02  0.41800000000E+01 0.  1.
        -11    1    1    2    0    0  0.31275994530E+02  0.13464007120E+02 -0.70108215677E+02  0.77939907794E+02  0.00000000000E+00 0. -1.
         11    1    1    2    0    0 -0.53020376201E+02  0.36973597474E+02 -0.39596626519E+02  0.75803034467E+02  0.00000000000E+00 0.  1.
</event>
<event>
 7    1  0.2420569E-009  0.2131900E+03  0.7561462E-02  0.1139065E+00
         -1   -1    0    0    0  501 -0.00000000000E+00  0.00000000000E+00  0.76250259264E+02  0.76250259264E+02  0.00000000000E+00 0.  1.
          1   -1    0    0  501    0  0.00000000000E+00 -0.00000000000E+00 -0.81040321724E+03  0.81040321724E+03  0.00000000000E+00 0. -1.
         25    2    1    2    0    0  0.19726402835E+03  0.38474361930E+02 -0.55262740427E+03  0.60119692470E+03  0.12508925180E+03 0.  0.
          5    1    3    3  502    0  0.90987714540E+02 -0.27894126938E+02 -0.35164855258E+03  0.36432269137E+03  0.41800000000E+01 0.  1.
         -5    1    3    3    0  502  0.10627631381E+03  0.66368488868E+02 -0.20097885169E+03  0.23687423333E+03  0.41800000000E+01 0.  1.
        -11    1    1    2    0    0 -0.13903763635E+03 -0.61887975674E+01 -0.70535016294E+02  0.15602869628E+03  0.00000000000E+00 0.  1.
         11    1    1    2    0    0 -0.58226391992E+02 -0.32285564363E+02 -0.11099053741E+03  0.12942785552E+03  0.00000000000E+00 0. -1.
</event>
<event>
 7    1  0.2420569E-009  0.1139770E+03  0.7561462E-02  0.1253377E+00
          3   -1    0    0  501    0  0.00000000000E+00  0.00000000000E+00  0.14881953150E+03  0.14881953150E+03  0.00000000000E+00 0.  1.
         -3   -1    0    0    0  501 -0.00000000000E+00 -0.00000000000E+00 -0.10805162887E+03  0.10805162887E+03  0.00000000000E+00 0. -1.
         25    2    1    2    0    0  0.30318619609E+02 -0.47856088733E+02 -0.11162619062E+02  0.13777353806E+03  0.12509004678E+03 0.  0.
          5    1    3    3  502    0 -0.37450229294E+02 -0.38984672539E+02 -0.35832319412E+02  0.64990398380E+02  0.41800000000E+01 0. -1.
         -5    1    3    3    0  502  0.67768848903E+02 -0.88714161932E+01  0.24669700350E+02  0.72783139684E+02  0.41800000000E+01 0. -1.
        -11    1    1    2    0    0 -0.31496200025E+02  0.73304155620E+02  0.29212255189E+02  0.84963908223E+02  0.00000000000E+00 0.  1.
         11    1    1    2    0    0  0.11775804158E+01 -0.25448066888E+02  0.22718266505E+02  0.34133714081E+02  0.00000000000E+00 0. -1.
</event>
<event>
 7    1  0.2420569E-009  0.9552873E+02  0.7561462E-02  0.1289990E+00
          2   -1    0    0  501    0  0.00000000000E+00  0.00000000000E+00  0.75459334409E+02  0.75459334409E+02  0.00000000000E+00 0. -1.
         -2   -1    0    0    0  501 -0.00000000000E+00 -0.00000000000E+00 -0.19922608789E+03  0.19922608789E+03  0.00000000000E+00 0.  1.
         25    2    1    2    0    0 -0.57390490633E+01 -0.45043941801E+02 -0.10720441076E+03  0.17088853960E+03  0.12509282115E+03 0.  0.
          5    1    3    3  502    0 -0.43672495233E+02 -0.33449695363E+02 -0.11740349442E+03  0.12971978207E+03  0.41800000000E+01 0.  1.
         -5    1    3    3    0  502  0.37933446170E+02 -0.11594246438E+02  0.10199083656E+02  0.41168757526E+02  0.41800000000E+01 0.  1.
        -11    1    1    2    0    0 -0.30155182803E+02 -0.86905542911E+01  0.11396105038E+02  0.33387602397E+02  0.00000000000E+00 0.  1.
         11    1    1    2    0    0  0.35894231866E+02  0.53734496092E+02 -0.27958447756E+02  0.70409280301E+02  0.00000000000E+00 0. -1.
</event>
<event>
 7    1  0.2420569E-009  0.1156551E+03  0.7561462E-02  0.1250442E+00
         -1   -1    0    0    0  501 -0.00000000000E+00  0.00000000000E+00  0.34630271282E+02  0.34630271282E+02  0.00000000000E+00 0.  1.
          1   -1    0    0  501    0  0.00000000000E+00 -0.00000000000E+00 -0.41774640004E+03  0.41774640004E+03  0.00000000000E+00 0. -1.
         25    2    1    2    0    0 -0.27458196295E+01  0.47471769621E+02 -0.17151390070E+03  0.21754330828E+03  0.12508782678E+03 0.  0.
          5    1    3    3  502    0  0.11524781920E+02  0.87012583643E+02 -0.13808032729E+03  0.16366936028E+03  0.41800000000E+01 0.  1.
         -5    1    3    3    0  502 -0.14270601550E+02 -0.39540814022E+02 -0.33433573412E+02  0.53873948001E+02  0.41800000000E+01 0.  1.
        -11    1    1    2    0    0 -0.35599925622E+02  0.52677795515E+01 -0.62995734326E+02  0.72550442790E+02  0.00000000000E+00 0.  1.
         11    1    1    2    0    0  0.38345745252E+02 -0.52739549173E+02 -0.14860649373E+03  0.16228292025E+03  0.00000000000E+00 0. -1.
</event>
<event>
 7    1  0.2420569E-009  0.8639079E+02  0.7561462E-02  0.1311835E+00
          2   -1    0    0  501    0  0.00000000000E+00  0.00000000000E+00  0.92415551062E+03  0.92415551062E+03  0.00000000000E+00 0. -1.
         -2   -1    0    0    0  501 -0.00000000000E+00 -0.00000000000E+00 -0.20169568579E+02  0.20169568579E+02  0.00000000000E+00 0.  1.
         25    2    1    2    0    0 -0.47448700222E+02 -0.54241685682E+00  0.71076591321E+03  0.72324823094E+03  0.12509255296E+03 0.  0.
          5    1    3    3  502    0 -0.55457773328E+02 -0.15315117825E+02  0.12999423896E+03  0.14221846582E+03  0.41800000000E+01 0. -1.
         -5    1    3    3    0  502  0.80090731062E+01  0.14772700969E+02  0.58077167424E+03  0.58102976512E+03  0.41800000000E+01 0. -1.
        -11    1    1    2    0    0  0.54233317215E+02 -0.33049427760E+02  0.76486388182E+02  0.99416723687E+02  0.00000000000E+00 0.  1.
         11    1    1    2    0    0 -0.67846169925E+01  0.33591844617E+02  0.11673364065E+03  0.12166012457E+03  0.00000000000E+00 0. -1.
</event>
<event>
 7    1  0.2420569E-009  0.2553898E+03  0.7561462E-02  0.1109945E+00
         -1   -1    0    0    0  501 -0.00000000000E+00  0.00000000000E+00  0.69807210185E+02  0.69807210185E+02  0.00000000000E+00 0.  1.
          1   -1    0    0  501    0  0.00000000000E+00 -0.00000000000E+00 -0.11895187158E+04  0.11895187158E+04  0.00000000000E+00 0. -1.
         25    2    1    2    0    0  0.22946557968E+03  0.41042211600E+02 -0.85487033270E+03  0.89486827734E+03  0.12508809964E+03 0.  0.
          5    1    3    3  502    0  0.21188314860E+03 -0.77377525207E+01 -0.66450631704E+03  0.69752452233E+03  0.41800000000E+01 0.  1.
         -5    1    3    3    0  502  0.17582431090E+02  0.48779964121E+02 -0.19036401566E+03  0.19734375501E+03  0.41800000000E+01 0.  1.
        -11    1    1    2    0    0 -0.16542465772E+03  0.86263636512E+01 -0.14719993254E+03  0.22160223751E+03  0.00000000000E+00 0.  1.
         11    1    1    2    0    0 -0.64040921967E+02 -0.49668575251E+02 -0.11764124042E+03  0.14285541118E+03  0.00000000000E+00 0. -1.
</event>
<event>
 7    1  0.2420569E-009  0.9244552E+02  0.7561462E-02  0.1297035E+00
          1   -1    0    0  501    0  0.00000000000E+00  0.00000000000E+00  0.18858891236E+03  0.18858891236E+03  0.00000000000E+00 0. -1.
         -1   -1    0    0    0  501 -0.00000000000E+00 -0.00000000000E+00 -0.81918327803E+02  0.81918327803E+02  0.00000000000E+00 0.  1.
         25    2    1    2    0    0 -0.17668313394E+02  0.46883312492E+01  0.11771945898E+03  0.17273790288E+03  0.12508542009E+03 0.  0.
          5    1    3    3  502    0 -0.59309028148E+02  0.39899493682E+02  0.70433875405E+02  0.10043870579E+03  0.41800000000E+01 0.  1.
         -5    1    3    3    0  502  0.41640714753E+02 -0.35211162433E+02  0.47285583579E+02  0.72299197087E+02  0.41800000000E+01 0.  1.
        -11    1    1    2    0    0 -0.19253371777E+02  0.59850536444E+01  0.33396748572E+02  0.39010972906E+02  0.00000000000E+00 0. -1.
         11    1    1    2    0    0  0.36921685172E+02 -0.10673384894E+02 -0.44445622999E+02  0.58758364381E+02  0.00000000000E+00 0.  1.
</event>
<event>
 7    1  0.2420569E-009  0.1272231E+03  0.7561462E-02  0.1231635E+00
         -1   -1    0    0    0  501 -0.00000000000E+00  0.00000000000E+00  0.26092724184E+03  0.26092724184E+03  0.00000000000E+00 0.  1.
          1   -1    0    0  501    0  0.00000000000E+00 -0.00000000000E+00 -0.74500567238E+02  0.74500567238E+02  0.00000000000E+00 0. -1.
         25    2    1    2    0    0 -0.35455123328E+02  0.77049810998E+02  0.80657365260E+02  0.17130887463E+03  0.12508949122E+03 0.  0.
          5    1    3    3  502    0 -0.40889276254E+01  0.10031480099E+03  0.85236998775E+02  0.13176720756E+03  0.41800000000E+01 0. -1.
         -5    1    3    3    0  502 -0.31366195703E+02 -0.23264989993E+02 -0.45796335150E+01  0.39541667079E+02  0.41800000000E+01 0. -1.
        -11    1    1    2    0    0  0.53222285213E+02 -0.23343444882E+02  0.20171508484E+02  0.61517622002E+02  0.00000000000E+00 0. -1.
         11    1    1    2    0    0 -0.17767161884E+02 -0.53706366116E+02  0.85597800858E+02  0.10260131244E+03  0.00000000000E+00 0.  1.
</event>
<event>
 7    1  0.2420569E-009  0.1089043E+03  0.7561462E-02  0.1262612E+00
         -1   -1    0    0    0  501 -0.00000000000E+00  0.00000000000E+00  0.19579567895E+03  0.19579567895E+03  0.00000000000E+00 0.  1.
          1   -1    0    0  501    0  0.00000000000E+00 -0.00000000000E+00 -0.78809512164E+02  0.78809512164E+02  0.00000000000E+00 0. -1.
         25    2    1    2    0    0 -0.27522955543E+02 -0.56072384628E+02  0.70308929551E+02  0.15650090525E+03  0.12509021693E+03 0.  0.
          5    1    3    3  502    0  0.38852379278E+02 -0.46786404321E+02  0.24132074919E+01  0.61006319142E+02  0.41800000000E+01 0.  1.
         -5    1    3    3    0  502 -0.66375334821E+02 -0.92859803070E+01  0.67895722059E+02  0.95494586112E+02  0.41800000000E+01 0.  1.
        -11    1    1    2    0    0  0.29451342638E+02  0.69840154611E+02  0.70663862106E+01  0.76124651679E+02  0.00000000000E+00 0. -1.
         11    1    1    2    0    0 -0.19283870949E+01 -0.13767769983E+02  0.39610851028E+02  0.41979634184E+02  0.00000000000E+00 0.  1.
</event>
<event>
 7    1  0.2420569E-009  0.2001533E+03  0.7561462E-02  0.1149610E+00
         -2   -1    0    0    0  501 -0.00000000000E+00  0.00000000000E+00  0.75838484518E+03  0.75838484518E+03  0.00000000000E+00 0.  1.
          2   -1    0    0  501    0  0.00000000000E+00 -0.00000000000E+00 -0.59397864727E+02  0.59397864727E+02  0.00000000000E+00 0. -1.
         25    2    1    2    0    0 -0.15175734114E+03  0.87520240579E+02  0.26626658495E+03  0.34239879562E+03  0.12509579482E+03 0.  0.
          5    1    3    3  502    0 -0.12924004832E+03  0.56829760871E+01  0.14563414409E+03  0.19483855530E+03  0.41800000000E+01 0. -1.
         -5    1    3    3    0  502 -0.22517292819E+02  0.81837264492E+02  0.12063244087E+03  0.14756024033E+03  0.41800000000E+01 0. -1.
        -11    1    1    2    0    0  0.25643910929E+01 -0.23340473032E+02  0.16782350751E+02  0.28861758085E+02  0.00000000000E+00 0. -1.
         11    1    1    2    0    0  0.14919295005E+03 -0.64179767547E+02  0.41593804474E+03  0.44652215619E+03  0.00000000000E+00 0.  1.
</event>
<event>
 7    1  0.2420569E-009  0.1013050E+03  0.7561462E-02  0.1277575E+00
         -1   -1    0    0    0  501 -0.00000000000E+00  0.00000000000E+00  0.19327381011E+02  0.19327381011E+02  0.00000000000E+00 0.  1.
          1   -1    0    0  501    0  0.00000000000E+00 -0.00000000000E+00 -0.66060927577E+03  0.66060927577E+03  0.00000000000E+00 0. -1.
         25    2    1    2    0    0 -0.56994294164E+01 -0.97556922633E+01 -0.45930411268E+03  0.47616292916E+03  0.12507281937E+03 0.  0.
          5    1    3    3  502    0 -0.57828876246E+02 -0.14571346935E+02 -0.34791518145E+03  0.35301409173E+03  0.41800000000E+01 0.  1.
         -5    1    3    3    0  502  0.52129446830E+02  0.48156546714E+01 -0.11138893124E+03  0.12314883742E+03  0.41800000000E+01 0.  1.
        -11    1    1    2    0    0 -0.32084219386E+02  0.32937232476E+02 -0.11024257371E+03  0.11944740882E+03  0.00000000000E+00 0.  1.
         11    1    1    2    0    0  0.37783648802E+02 -0.23181540212E+02 -0.71735208368E+02  0.84326318804E+02  0.00000000000E+00 0. -1.
</event>
<event>
 7    1  0.2420569E-009  0.1794810E+03  0.7561462E-02  0.1168306E+00
         -1   -1    0    0    0  501 -0.00000000000E+00  0.00000000000E+00  0.63923926054E+02  0.63923926054E+02  0.00000000000E+00 0.  1.
          1   -1    0    0  501    0  0.00000000000E+00 -0.00000000000E+00 -0.64280858343E+03  0.64280858343E+03  0.00000000000E+00 0. -1.
         25    2    1    2    0    0 -0.16679205392E+03 -0.18083397626E+02 -0.36227921229E+03  0.41837876535E+03  0.12509182674E+03 0.  0.
          5    1    3    3  502    0 -0.14593700223E+03 -0.42169812819E+00 -0.16985075832E+03  0.22397441584E+03  0.41800000000E+01 0.  1.
         -5    1    3    3    0  502 -0.20855051688E+02 -0.17661699497E+02 -0.19242845397E+03  0.19440434951E+03  0.41800000000E+01 0.  1.
        -11    1    1    2    0    0  0.12704970550E+03 -0.21922259206E+02 -0.17890912073E+03  0.22052366448E+03  0.00000000000E+00 0. -1.
         11    1    1    2    0    0  0.39742348418E+02  0.40005656832E+02 -0.37696324358E+02  0.67830079658E+02  0.00000000000E+00 0.  1.
</event>
<event>
 7    1  0.2420569E-009  0.2739673E+03  0.7561462E-02  0.1099030E+00
          3   -1    0    0  501    0  0.00000000000E+00  0.00000000000E+00  0.17145991462E+03  0.17145991462E+03  0.00000000000E+00 0.  1.
         -3   -1    0    0    0  501 -0.00000000000E+00 -0.00000000000E+00 -0.53857913331E+03  0.53857913331E+03  0.00000000000E+00 0. -1.
         25    2    1    2    0    0 -0.21707098636E+03  0.12819548853E+03 -0.35788328253E+02  0.28369199460E+03  0.12508575843E+03 0.  0.
          5    1    3    3  502    0 -0.39730978548E+02  0.90391007480E+02 -0.25316350895E+02  0.10201703246E+03  0.41800000000E+01 0. -1.
         -5    1    3    3    0  502 -0.17734000781E+03  0.37804481051E+02 -0.10471977358E+02  0.18167496214E+03  0.41800000000E+01 0. -1.
        -11    1    1    2    0    0  0.70852182314E+02 -0.93754406758E+02 -0.15938108393E+03  0.19802083334E+03  0.00000000000E+00 0.  1.
         11    1    1    2    0    0  0.14621880405E+03 -0.34441081773E+02 -0.17194980651E+03  0.22832621998E+03  0.00000000000E+00 0. -1.
</event>
<event>
 7    1  0.2420569E-009  0.2057537E+03  0.7561462E-02  0.1144973E+00
         -2   -1    0    0    0  501 -0.00000000000E+00  0.00000000000E+00  0.10420707133E+03  0.10420707133E+03  0.00000000000E+00 0.  1.
          2   -1    0    0  501    0  0.00000000000E+00 -0.00000000000E+00 -0.51440898587E+03  0.51440898587E+03  0.00000000000E+00 0. -1.
         25    2    1    2    0    0 -0.64527569231E+02  0.16848346685E+03 -0.34049710732E+03  0.40513800730E+03  0.12509212235E+03 0.  0.
          5    1    3    3  502    0  0.68885229225E+01  0.14185512577E+03 -0.20143964866E+03  0.24650706461E+03  0.41800000000E+01 0. -1.
         -5    1    3    3    0  502 -0.71416092153E+02  0.26628341084E+02 -0.13905745866E+03  0.15863094268E+03  0.41800000000E+01 0. -1.
        -11    1    1    2    0    0  0.51394402891E+02 -0.43253364181E+02  0.44980079651E+01  0.67323623173E+02  0.00000000000E+00 0.  1.
         11    1    1    2    0    0  0.13133166340E+02 -0.12523010267E+03 -0.74202815183E+02  0.14615442673E+03  0.00000000000E+00 0. -1.
</event>
<event>
 7    1  0.2420569E-009  0.1591180E+03  0.7561462E-02  0.1189696E+00
          1   -1    0    0  501    0  0.00000000000E+00  0.00000000000E+00  0.54754756111E+02  0.54754756111E+02  0.00000000000E+00 0. -1.
         -1   -1    0    0    0  501 -0.00000000000E+00 -0.00000000000E+00 -0.63315298106E+03  0.63315298106E+03  0.00000000000E+00 0.  1.
         25    2    1    2    0    0 -0.65679728680E+02  0.13362685912E+03 -0.34566633018E+03  0.39661277249E+03  0.12508603136E+03 0.  0.
          5    1    3    3  502    0 -0.48019089413E+02  0.14127905084E+03 -0.19970950721E+03  0.24933303597E+03  0.41800000000E+01 0. -1.
         -5    1    3    3    0  502 -0.17660639266E+02 -0.76521917253E+01 -0.14595682297E+03  0.14727973652E+03  0.41800000000E+01 0. -1.
        -11    1    1    2    0    0  0.53171246260E+02 -0.97833108450E+02 -0.22714510779E+03  0.25296916518E+03  0.00000000000E+00 0.  1.
         11    1    1    2    0    0  0.12508482420E+02 -0.35793750666E+02 -0.55867869800E+01  0.38325799508E+02  0.00000000000E+00 0. -1.
</event>
<event>
 7    1  0.2420569E-009  0.1396103E+03  0.7561462E-02  0.1213854E+00
          3   -1    0    0  501    0  0.00000000000E+00  0.00000000000E+00  0.54063859244E+02  0.54063859244E+02  0.00000000000E+00 0. -1.
         -3   -1    0    0    0  501 -0.00000000000E+00 -0.00000000000E+00 -0.49270961925E+03  0.49270961925E+03  0.00000000000E+00 0.  1.
         25    2    1    2    0    0  0.25998444503E+02 -0.90365597333E+02 -0.10549761202E+03  0.18873153850E+03  0.12509191495E+03 0.  0.
          5    1    3    3  502    0  0.66813933565E+02 -0.92436202581E+02 -0.87820520726E+02  0.14400857449E+03  0.41800000000E+01 0.  1.
         -5    1    3    3    0  502 -0.40815489063E+02  0.20706052486E+01 -0.17677091295E+02  0.44722964014E+02  0.41800000000E+01 0.  1.
        -11    1    1    2    0    0 -0.36477314424E+02  0.36479747194E+01 -0.15954535823E+03  0.16370285129E+03  0.00000000000E+00 0.  1.
         11    1    1    2    0    0  0.10478869921E+02  0.86717622613E+02 -0.17360278975E+03  0.19433908870E+03  0.00000000000E+00 0. -1.
</event>
<event>
 7    1  0.2420569E-009  0.1561073E+03  0.7561462E-02  0.1193163E+00
         -3   -1    0    0    0  501 -0.00000000000E+00  0.00000000000E+00  0.21931490244E+02  0.21931490244E+02  0.00000000000E+00 0.  1.
          3   -1    0    0  501    0  0.00000000000E+00 -0.00000000000E+00 -0.14739702427E+04  0.14739702427E+04  0.00000000000E+00 0. -1.
         25    2    1    2    0    0 -0.55162197867E+02  0.12487412158E+03 -0.94445515587E+03  0.96243266257E+03  0.12507867210E+03 0.  0.
          5    1    3    3  502    0  0.20125986212E+01 -0.71262319029E+01 -0.15933566435E+01  0.86512958415E+01  0.41800000000E+01 0. -1.
         -5    1    3    3    0  502 -0.57174796488E+02  0.13200035348E+03 -0.94286179923E+03  0.95378136673E+03  0.41800000000E+01 0. -1.
        -11    1    1    2    0    0  0.33743635001E+02 -0.13275574239E+03 -0.38170956520E+03  0.40554273783E+03  0.00000000000E+00 0.  1.
         11    1    1    2    0    0  0.21418562866E+02  0.78816208066E+01 -0.12587403134E+03  0.12792633250E+03  0.00000000000E+00 0. -1.
</event>
<event>
 7    1  0.2420569E-009  0.1387752E+03  0.7561462E-02  0.1214987E+00
          2   -1    0    0  501    0  0.00000000000E+00  0.00000000000E+00  0.12076481394E+04  0.12076481394E+04  0.00000000000E+00 0. -1.
         -2   -1    0    0    0  501 -0.00000000000E+00 -0.00000000000E+00 -0.20182443679E+02  0.20182443679E+02  0.00000000000E+00 0.  1.
         25    2    1    2    0    0 -0.10632543243E+03 -0.21875632328E+02  0.74992586876E+03  0.76799780528E+03  0.12509268330E+03 0.  0.
          5    1    3    3  502    0 -0.93478353672E+02 -0.69159209327E+02  0.53878889268E+03  0.55120970793E+03  0.41800000000E+01 0.  1.
         -5    1    3    3    0  502 -0.12847078756E+02  0.47283576999E+02  0.21113697608E+03  0.21678809735E+03  0.41800000000E+01 0.  1.
        -11    1    1    2    0    0  0.25367720590E+02  0.17740616687E+02  0.26120661017E+02  0.40503575896E+02  0.00000000000E+00 0.  1.
         11    1    1    2    0    0  0.80957711837E+02  0.41350156406E+01  0.41141916597E+03  0.41932920193E+03  0.00000000000E+00 0. -1.
</event>
<event>
 7    1  0.2420569E-009  0.1087256E+03  0.7561462E-02  0.1262948E+00
          2   -1    0    0  501    0  0.00000000000E+00  0.00000000000E+00  0.69653980330E+03  0.69653980330E+03  0.00000000000E+00 0. -1.
         -2   -1    0    0    0  501 -0.00000000000E+00 -0.00000000000E+00 -0.19190840323E+02  0.19190840323E+02  0.00000000000E+00 0.  1.
         25    2    1    2    0    0  0.35961942341E+02 -0.19962883882E+02  0.36933746564E+03  0.39210475197E+03  0.12507675629E+03 0.  0.
          5    1    3    3  502    0 -0.81448555330E+01  0.47626300580E+02  0.17591565294E+03  0.18247847141E+03  0.41800000000E+01 0.  1.
         -5    1    3    3    0  502  0.44106797874E+02 -0.67589184463E+02  0.19342181270E+03  0.20962628057E+03  0.41800000000E+01 0.  1.
        -11    1    1    2    0    0  0.85532411279E+01 -0.24057155775E+02  0.33806463790E+02  0.42364863646E+02  0.00000000000E+00 0. -1.
         11    1    1    2    0    0 -0.44515183469E+02  0.44020039657E+02  0.27420503354E+03  0.28126102800E+03  0.00000000000E+00 0.  1.
</event>
<event>
 7    1  0.2420569E-009  0.1397563E+03  0.7561462E-02  0.1213657E+00
         -1   -1    0    0    0  501 -0.00000000000E+00  0.00000000000E+00  0.29174203185E+03  0.29174203185E+03  0.00000000000E+00 0.  1.
          1   -1    0    0  501    0  0.00000000000E+00 -0.00000000000E+00 -0.70930571783E+02  0.70930571783E+02  0.00000000000E+00 0. -1.
         25    2    1    2    0    0  0.87089426886E+02 -0.22608168653E+02  0.84037582897E+02  0.17551713934E+03  0.12509297861E+03 0.  0.
          5    1    3    3  502    0 -0.55948899889E+01 -0.54972235575E+02  0.36551220421E+02  0.66383082125E+02  0.41800000000E+01 0. -1.
         -5    1    3    3    0  502  0.92684316875E+02  0.32364066923E+02  0.47486362475E+02  0.10913405721E+03  0.41800000000E+01 0. -1.
        -11    1    1    2    0    0 -0.10360917327E+03  0.82282456914E+01  0.12401119994E+03  0.16180649716E+03  0.00000000000E+00 0.  1.
         11    1    1    2    0    0  0.16519746382E+02  0.14379922961E+02  0.12762677238E+02  0.25348967142E+02  0.00000000000E+00 0. -1.
</event>
<event>
 7    1  0.2420569E-009  0.1516911E+03  0.7561462E-02  0.1198410E+00
         -1   -1    0    0    0  501 -0.00000000000E+00  0.00000000000E+00  0.11658563911E+03  0.11658563911E+03  0.00000000000E+00 0.  1.
          1   -1    0    0  501    0  0.00000000000E+00 -0.00000000000E+00 -0.27493473467E+03  0.27493473467E+03  0.00000000000E+00 0. -1.
         25    2    1    2    0    0 -0.73900104201E+02  0.11217293694E+03 -0.34115821086E+02  0.18669698651E+03  0.12509149587E+03 0.  0.
          5    1    3    3  502    0 -0.72597724701E+02  0.77068979438E+02  0.32872075071E+02  0.11094188994E+03  0.41800000000E+01 0. -1.
         -5    1    3    3    0  502 -0.13023795000E+01  0.35103957502E+02 -0.66987896157E+02  0.75755096569E+02  0.41800000000E+01 0. -1.
        -11    1    1    2    0    0  0.92848278246E+02 -0.71540376568E+02 -0.98669146450E+02  0.15321367013E+03  0.00000000000E+00 0.  1.
         11    1    1    2    0    0 -0.18948174045E+02 -0.40632560372E+02 -0.25564128026E+02  0.51609717145E+02  0.00000000000E+00 0. -1.
</event>
<event>
 7    1  0.2420569E-009  0.1574446E+03  0.7561462E-02  0.1191612E+00
         -2   -1    0    0    0  501 -0.00000000000E+00  0.00000000000E+00  0.37226221245E+02  0.37226221245E+02  0.00000000000E+00 0.  1.
          2   -1    0    0  501    0  0.00000000000E+00 -0.00000000000E+00 -0.93454268175E+03  0.93454268175E+03  0.00000000000E+00 0. -1.
         25    2    1    2    0    0 -0.10750188044E+03  0.10635211425E+03 -0.51425534461E+03  0.55043108564E+03  0.12509354132E+03 0.  0.
          5    1    3    3  502    0 -0.97624944224E+02  0.56940474953E+02 -0.46942651755E+03  0.48285771735E+03  0.41800000000E+01 0. -1.
         -5    1    3    3    0  502 -0.98769362192E+01  0.49411639297E+02 -0.44828827051E+02  0.67573368289E+02  0.41800000000E+01 0. -1.
        -11    1    1    2    0    0  0.46607462441E+02 -0.47486232898E+02 -0.28071022378E+03  0.28848817584E+03  0.00000000000E+00 0. -1.
         11    1    1    2    0    0  0.60894418002E+02 -0.58865881353E+02 -0.10235089213E+03  0.13284964151E+03  0.00000000000E+00 0.  1.
</event>
<event>
 7    1  0.2420569E-009  0.2028864E+03  0.7561462E-02  0.1147326E+00
         -2   -1    0    0    0  501 -0.00000000000E+00  0.00000000000E+00  0.78264317244E+02  0.78264317244E+02  0.00000000000E+00 0. -1.
          2   -1    0    0  501    0  0.00000000000E+00 -0.00000000000E+00 -0.63898591916E+03  0.63898591916E+03  0.00000000000E+00 0.  1.
         25    2    1    2    0    0 -0.14986458325E+03  0.12327236890E+03 -0.31041441227E+03  0.38685917338E+03  0.12508973751E+03 0.  0.
          5    1    3    3  502    0 -0.11911577315E+03  0.94946159151E+02 -0.30933228223E+03  0.34482934008E+03  0.41800000000E+01 0. -1.
         -5    1    3    3    0  502 -0.30748810104E+02  0.28326209747E+02 -0.10821300425E+01  0.42029833296E+02  0.41800000000E+01 0. -1.
        -11    1    1    2    0    0 -0.92267783294E+01 -0.19095413575E+02 -0.49383060648E+02  0.53744347953E+02  0.00000000000E+00 0.  1.
         11    1    1    2    0    0  0.15909136158E+03 -0.10417695532E+03 -0.20092412899E+03  0.27664671508E+03  0.00000000000E+00 0. -1.
</event>
<event>
 7    1  0.2420569E-009  0.7137685E+02  0.7561462E-02  0.1355473E+00
          2   -1    0    0  501    0  0.00000000000E+00  0.00000000000E+00  0.72572111307E+02  0.72572111307E+02  0.00000000000E+00 0.  1.
         -2   -1    0    0    0  501 -0.00000000000E+00 -0.00000000000E+00 -0.21407718274E+03  0.21407718274E+03  0.00000000000E+00 0. -1.
         25    2    1    2    0    0 -0.17506880551E+02 -0.34016778388E+02 -0.13418065168E+03  0.18738978137E+03  0.12508737265E+03 0.  0.
          5    1    3    3  502    0 -0.30966205538E+02  0.24709541918E+02  0.44423185088E+00  0.39838889156E+02  0.41800000000E+01 0. -1.
         -5    1    3    3    0  502  0.13459324987E+02 -0.58726320306E+02 -0.13462488354E+03  0.14755089221E+03  0.41800000000E+01 0. -1.
        -11    1    1    2    0    0  0.17805174038E+02  0.14386421181E+02  0.41078853002E+02  0.47026221418E+02  0.00000000000E+00 0.  1.
         11    1    1    2    0    0 -0.29829348664E+00  0.19630357207E+02 -0.48403272746E+02  0.52233291257E+02  0.00000000000E+00 0. -1.
</event>
<event>
 7    1  0.2420569E-009  0.7491511E+02  0.7561462E-02  0.1344134E+00
         -1   -1    0    0    0  501 -0.00000000000E+00  0.00000000000E+00  0.47537834557E+02  0.47537834557E+02  0.00000000000E+00 0.  1.
          1   -1    0    0  501    0  0.00000000000E+00 -0.00000000000E+00 -0.29825886997E+03  0.29825886997E+03  0.00000000000E+00 0. -1.
         25    2    1    2    0    0  0.54252862204E+01  0.19378691525E+02 -0.78302975051E+02  0.14894361983E+03  0.12509148080E+03 0.  0.
          5    1    3    3  502    0  0.17516312197E+02  0.37130769390E+02 -0.10593955228E+03  0.11369334354E+03  0.41800000000E+01 0.  1.
         -5    1    3    3    0  502 -0.12091025976E+02 -0.17752077865E+02  0.27636577224E+02  0.35250276287E+02  0.41800000000E+01 0.  1.
        -11    1    1    2    0    0  0.38155014531E+02  0.18619535981E+01 -0.11771597995E+03  0.12375913680E+03  0.00000000000E+00 0. -1.
         11    1    1    2    0    0 -0.43580300751E+02 -0.21240645123E+02 -0.54702080406E+02  0.73093947900E+02  0.00000000000E+00 0.  1.
</event>
<event>
 7    1  0.2610153E-009  0.6550991E+02  0.7561462E-02  0.1376064E+00
         -1   -1    0    0    0  501 -0.00000000000E+00  0.00000000000E+00  0.83934375255E+02  0.83934375255E+02  0.00000000000E+00 0.  1.
          1   -1    0    0  501    0  0.00000000000E+00 -0.00000000000E+00 -0.19965786861E+03  0.19965786861E+03  0.00000000000E+00 0. -1.
         25    2    1    2    0    0 -0.31976422968E+02 -0.12079250438E+02  0.35013372067E+01  0.12972185250E+03  0.12508836771E+03 0.  0.
          5    1    3    3  502    0 -0.98470632686E+01 -0.34569276651E+02  0.56973690989E+02  0.67494247222E+02  0.41800000000E+01 0. -1.
         -5    1    3    3    0  502 -0.22129359699E+02  0.22490026213E+02 -0.53472353782E+02  0.62227605279E+02  0.41800000000E+01 0. -1.
        -11    1    1    2    0    0  0.26735590105E+02 -0.18157315543E+02 -0.11886569239E+03  0.12318089427E+03  0.00000000000E+00 0. -1.
         11    1    1    2    0    0  0.52408328627E+01  0.30236565981E+02 -0.35913816915E+00  0.30689497090E+02  0.00000000000E+00 0.  1.
</event>
<event>
 7    1  0.2420569E-009  0.9054123E+02  0.7561462E-02  0.1301546E+00
          1   -1    0    0  501    0  0.00000000000E+00  0.00000000000E+00  0.10909802368E+03  0.10909802368E+03  0.00000000000E+00 0. -1.
         -1   -1    0    0    0  501 -0.00000000000E+00 -0.00000000000E+00 -0.10094038196E+03  0.10094038196E+03  0.00000000000E+00 0.  1.
         25    2    1    2    0    0  0.50362594030E+01 -0.17474295421E+02  0.20142404071E+02  0.12799621088E+03  0.12508636476E+03 0.  0.
          5    1    3    3  502    0 -0.29779934314E+02  0.40410752102E+02 -0.13877565341E+02  0.52248756856E+02  0.41800000000E+01 0.  1.
         -5    1    3    3    0  502  0.34816193717E+02 -0.57885047524E+02  0.34019969412E+02  0.75747454020E+02  0.41800000000E+01 0.  1.
        -11    1    1    2    0    0 -0.11347024474E+02 -0.21093398058E+02 -0.30513866022E+02  0.38791525179E+02  0.00000000000E+00 0.  1.
         11    1    1    2    0    0  0.63107650713E+01  0.38567693480E+02  0.18529103677E+02  0.43250669581E+02  0.00000000000E+00 0. -1.
</event>
<event>
 7    1  0.2420569E-009  0.1159779E+03  0.7561462E-02  0.1249884E+00
          2   -1    0    0  501    0  0.00000000000E+00  0.00000000000E+00  0.83545993873E+03  0.83545993873E+03  0.00000000000E+00 0. -1.
         -2   -1    0    0    0  501 -0.00000000000E+00 -0.00000000000E+00 -0.22366013000E+02  0.22366013000E+02  0.00000000000E+00 0.  1.
         25    2    1    2    0    0 -0.37845529484E+02  0.34380929454E+02  0.63135501368E+03  0.64565507526E+03  0.12508793103E+03 0.  0.
          5    1    3    3  502    0  0.41824114759E+02  0.35101456345E+02  0.22786312675E+03  0.23435111637E+03  0.41800000000E+01 0. -1.
         -5    1    3    3    0  502 -0.79669644243E+02 -0.72052689133E+00  0.40349188693E+03  0.41130395888E+03  0.41800000000E+01 0. -1.
        -11    1    1    2    0    0 -0.14534488456E+02 -0.42033523689E+02  0.36335477550E+02  0.57431136130E+02  0.00000000000E+00 0.  1.
         11    1    1    2    0    0  0.52380017940E+02  0.76525942350E+01  0.14540343450E+03  0.15473974034E+03  0.00000000000E+00 0. -1.
</event>
<event>
 7    1  0.2420569E-009  0.1137222E+03  0.7561462E-02  0.1253828E+00
          4   -1    0    0  501    0  0.00000000000E+00  0.00000000000E+00  0.24209712925E+02  0.24209712925E+02  0.00000000000E+00 0. -1.
         -4   -1    0    0    0  501 -0.00000000000E+00 -0.00000000000E+00 -0.11376523384E+04  0.11376523384E+04  0.00000000000E+00 0.  1.
         25    2    1    2    0    0 -0.80025601849E+02 -0.52329940694E+02 -0.87657871353E+03  0.89060733359E+03  0.12509461212E+03 0.  0.
          5    1    3    3  502    0 -0.25484884152E+02 -0.15998810579E+02 -0.34488062470E+02  0.45960201404E+02  0.41800000000E+01 0.  1.
         -5    1    3    3    0  502 -0.54540717696E+02 -0.36331130115E+02 -0.84209065106E+03  0.84464713218E+03  0.41800000000E+01 0.  1.
        -11    1    1    2    0    0  0.78831968368E+02 -0.22246845678E+00 -0.12728237184E+03  0.14971750369E+03  0.00000000000E+00 0. -1.
         11    1    1    2    0    0  0.11936334812E+01  0.52552409151E+02 -0.10958154014E+03  0.12153721409E+03  0.00000000000E+00 0.  1.
</event>
<event>
 7    1  0.2420569E-009  0.1444680E+03  0.7561462E-02  0.1207440E+00
         -1   -1    0    0    0  501 -0.00000000000E+00  0.00000000000E+00  0.31103459732E+02  0.31103459732E+02  0.00000000000E+00 0.  1.
          1   -1    0    0  501    0  0.00000000000E+00 -0.00000000000E+00 -0.18295755331E+04  0.18295755331E+04  0.00000000000E+00 0. -1.
         25    2    1    2    0    0  0.40313823731E+02 -0.12911815745E+03 -0.15673172579E+04  0.15781081672E+04  0.12508116380E+03 0.  0.
          5    1    3    3  502    0  0.55799492581E+02 -0.12323743575E+03 -0.86004521605E+03  0.87062982661E+03  0.41800000000E+01 0. -1.
         -5    1    3    3    0  502 -0.15485668851E+02 -0.58807216954E+01 -0.70727204184E+03  0.70747834058E+03  0.41800000000E+01 0. -1.
        -11    1    1    2    0    0 -0.18483896772E+02  0.88333197204E+02 -0.21566645066E+03  0.23378713846E+03  0.00000000000E+00 0. -1.
         11    1    1    2    0    0 -0.21829926959E+02  0.40784960244E+02 -0.15488364872E+02  0.48783687228E+02  0.00000000000E+00 0.  1.
</event>
<event>
 7    1  0.2420569E-009  0.2229082E+03  0.7561462E-02  0.1131733E+00
          1   -1    0    0  501    0  0.00000000000E+00  0.00000000000E+00  0.20833022857E+04  0.20833022857E+04  0.00000000000E+00 0. -1.
         -1   -1    0    0    0  501 -0.00000000000E+00 -0.00000000000E+00 -0.51139875076E+02  0.51139875076E+02  0.00000000000E+00 0.  1.
         25    2    1    2    0    0 -0.14067351705E+03 -0.15563522765E+03  0.17705228316E+04  0.17872909055E+04  0.12508525593E+03 0.  0.
          5    1    3    3  502    0 -0.13439016227E+03 -0.76115422652E+02  0.13842307675E+04  0.13928268246E+04  0.41800000000E+01 0. -1.
         -5    1    3    3    0  502 -0.62833547793E+01 -0.79519805002E+02  0.38629206405E+03  0.39446408085E+03  0.41800000000E+01 0. -1.
        -11    1    1    2    0    0  0.50193339504E+02  0.74947888331E+02  0.49700433951E+02  0.10298878789E+03  0.00000000000E+00 0.  1.
         11    1    1    2    0    0  0.90480177545E+02  0.80687339323E+02  0.21193914505E+03  0.24416246735E+03  0.00000000000E+00 0. -1.
</event>
<event>
 7    1  0.2420569E-009  0.7953029E+02  0.7561462E-02  0.1330390E+00
          2   -1    0    0  501    0  0.00000000000E+00  0.00000000000E+00  0.58794561186E+03  0.58794561186E+03  0.00000000000E+00 0. -1.
         -2   -1    0    0    0  501 -0.00000000000E+00 -0.00000000000E+00 -0.25195816972E+02  0.25195816972E+02  0.00000000000E+00 0.  1.
         25    2    1    2    0    0 -0.51117093869E+02 -0.17024010663E+02  0.35134706748E+03  0.37681765290E+03  0.12507600684E+03 0.  0.
          5    1    3    3  502    0 -0.34621507998E+02 -0.32521215570E+02  0.35055995045E+03  0.35378811390E+03  0.41800000000E+01 0. -1.
         -5    1    3    3    0  502 -0.16495585871E+02  0.15497204907E+02  0.78711702624E+00  0.23029538997E+02  0.41800000000E+01 0. -1.
        -11    1    1    2    0    0  0.15512426667E+02  0.42063577457E+02  0.42050994804E+02  0.61467601983E+02  0.00000000000E+00 0.  1.
         11    1    1    2    0    0  0.35604667202E+02 -0.25039566794E+02  0.16935173261E+03  0.17485617396E+03  0.00000000000E+00 0. -1.
</event>
<event>
 7    1  0.2420569E-009  0.9730540E+02  0.7561462E-02  0.1286067E+00
          2   -1    0    0  501    0  0.00000000000E+00  0.00000000000E+00  0.46212803513E+02  0.46212803513E+02  0.00000000000E+00 0. -1.
         -2   -1    0    0    0  501 -0.00000000000E+00 -0.00000000000E+00 -0.25902801814E+03  0.25902801814E+03  0.00000000000E+00 0.  1.
         25    2    1    2    0    0  0.14116975875E+02  0.82456190247E+01 -0.12439135263E+03  0.17716401456E+03  0.12508637098E+03 0.  0.
          5    1    3    3  502    0  0.38726707609E+01  0.63889305449E+02 -0.90998495337E+02  0.11133301165E+03  0.41800000000E+01 0.  1.
         -5    1    3    3    0  502  0.10244305114E+02 -0.55643686425E+02 -0.33392857290E+02  0.65831002910E+02  0.41800000000E+01 0.  1.
        -11    1    1    2    0    0  0.14787538342E+02 -0.32690524553E+02 -0.46916571536E+01  0.36184987669E+02  0.00000000000E+00 0. -1.
         11    1    1    2    0    0 -0.28904514217E+02  0.24444905528E+02 -0.83732204851E+02  0.91891819427E+02  0.00000000000E+00 0.  1.
</event>
<event>
 7    1  0.2420569E-009  0.8281292E+02  0.7561462E-02  0.1321253E+00
          2   -1    0    0  501    0  0.00000000000E+00  0.00000000000E+00  0.44004508755E+03  0.44004508755E+03  0.00000000000E+00 0. -1.
         -2   -1    0    0    0  501 -0.00000000000E+00 -0.00000000000E+00 -0.30872407897E+02  0.30872407897E+02  0.00000000000E+00 0.  1.
         25    2    1    2    0    0 -0.81031152376E+01  0.42365956333E+02  0.23083409892E+03  0.26606814069E+03  0.12508932622E+03 0.  0.
          5    1    3    3  502    0  0.23267133101E+02  0.18918519243E+02  0.22406756320E+03  0.22610399185E+03  0.41800000000E+01 0. -1.
         -5    1    3    3    0  502 -0.31370248339E+02  0.23447437089E+02  0.67665357242E+01  0.39964148841E+02  0.41800000000E+01 0. -1.
        -11    1    1    2    0    0  0.33362868752E+02 -0.57526404774E+02  0.91237654621E+02  0.11290118635E+03  0.00000000000E+00 0.  1.
         11    1    1    2    0    0 -0.25259753514E+02  0.15160448441E+02  0.87100926103E+02  0.91948168403E+02  0.00000000000E+00 0. -1.
</event>
<event>
 7    1  0.2420569E-009  0.1111466E+03  0.7561462E-02  0.1258461E+00
         -2   -1    0    0    0  501 -0.00000000000E+00  0.00000000000E+00  0.33592199390E+03  0.33592199390E+03  0.00000000000E+00 0.  1.
          2   -1    0    0  501    0  0.00000000000E+00 -0.00000000000E+00 -0.70488619229E+02  0.70488619229E+02  0.00000000000E+00 0. -1.
         25    2    1    2    0    0 -0.38597460114E+02 -0.48539933698E+02  0.25302913020E+02  0.14189559625E+03  0.12509290043E+03 0.  0.
          5    1    3    3  502    0 -0.78107113511E+02 -0.19417343735E+02 -0.10113288245E+02  0.81225029504E+02  0.41800000000E+01 0. -1.
         -5    1    3    3    0  502  0.39509653398E+02 -0.29122589963E+02  0.35416201266E+02  0.60670566751E+02  0.41800000000E+01 0. -1.
        -11    1    1    2    0    0  0.26787490353E+02 -0.13000902181E+02  0.16022794558E+03  0.16297112517E+03  0.00000000000E+00 0.  1.
         11    1    1    2    0    0  0.11809969761E+02  0.61540835878E+02  0.79902516070E+02  0.10154389170E+03  0.00000000000E+00 0. -1.
</event>
<event>
 7    1  0.2420569E-009  0.1130323E+03  0.7561462E-02  0.1255055E+00
          2   -1    0    0  501    0  0.00000000000E+00  0.00000000000E+00  0.73305447890E+03  0.73305447890E+03  0.00000000000E+00 0. -1.
         -2   -1    0    0    0  501 -0.00000000000E+00 -0.00000000000E+00 -0.19019370205E+02  0.19019370205E+02  0.00000000000E+00 0.  1.
         25    2    1    2    0    0 -0.15071062633E+02 -0.34022542933E+02  0.48888051487E+03  0.50600040148E+03  0.12509027990E+03 0.  0.
          5    1    3    3  502    0  0.28558064287E+02 -0.66897761495E+02  0.32972073491E+03  0.33767456072E+03  0.41800000000E+01 0. -1.
         -5    1    3    3    0  502 -0.43629126920E+02  0.32875218562E+02  0.15915977996E+03  0.16832584076E+03  0.41800000000E+01 0. -1.
        -11    1    1    2    0    0 -0.14918054113E+02 -0.26761396597E+02  0.55782771185E+02  0.63643053411E+02  0.00000000000E+00 0. -1.
         11    1    1    2    0    0  0.29989116746E+02  0.60783939530E+02  0.16937182265E+03  0.18243039422E+03  0.00000000000E+00 0.  1.
</event>
<event>
 7    1  0.2420569E-009  0.9843055E+02  0.7561462E-02  0.1283631E+00
          2   -1    0    0  501    0  0.00000000000E+00  0.00000000000E+00  0.37946482380E+03  0.37946482380E+03  0.00000000000E+00 0. -1.
         -2   -1    0    0    0  501 -0.00000000000E+00 -0.00000000000E+00 -0.37719936271E+02  0.37719936271E+02  0.00000000000E+00 0.  1.
         25    2    1    2    0    0 -0.47500930990E+02 -0.15913239913E+02  0.17946617338E+03  0.22442076822E+03  0.12508798572E+03 0.  0.
          5    1    3    3  502    0 -0.54031045540E+02 -0.64845376102E+02  0.12388958714E+03  0.14996792619E+03  0.41800000000E+01 0. -1.
         -5    1    3    3    0  502  0.65301145501E+01  0.48932136189E+02  0.55576586244E+02  0.74452842032E+02  0.41800000000E+01 0. -1.
        -11    1    1    2    0    0  0.36801425310E+02 -0.70549790802E+01  0.10541963754E+02  0.38926220398E+02  0.00000000000E+00 0.  1.
         11    1    1    2    0    0  0.10699505680E+02  0.22968218993E+02  0.15173675039E+03  0.15383777145E+03  0.00000000000E+00 0. -1.
</event>
<event>
 7    1  0.2420569E-009  0.1066859E+03  0.7561462E-02  0.1266833E+00
         -1   -1    0    0    0  501 -0.00000000000E+00  0.00000000000E+00  0.30055802283E+02  0.30055802283E+02  0.00000000000E+00 0.  1.
          1   -1    0    0  501    0  0.00000000000E+00 -0.00000000000E+00 -0.56168261407E+03  0.56168261407E+03  0.00000000000E+00 0. -1.
         25    2    1    2    0    0 -0.41528746332E+01 -0.72738948608E+02 -0.25948462577E+03  0.29713779030E+03  0.12510153635E+03 0.  0.
          5    1    3    3  502    0  0.53059787152E+02 -0.17492928197E+02 -0.58750017595E+02  0.81181158633E+02  0.41800000000E+01 0.  1.
         -5    1    3    3    0  502 -0.57212661785E+02 -0.55246020411E+02 -0.20073460818E+03  0.21595663166E+03  0.41800000000E+01 0.  1.
        -11    1    1    2    0    0  0.11921884488E+02  0.13719067411E+02 -0.23590181768E+01  0.18327823306E+02  0.00000000000E+00 0.  1.
         11    1    1    2    0    0 -0.77690098548E+01  0.59019881197E+02 -0.26978316784E+03  0.27627280275E+03  0.00000000000E+00 0. -1.
</event>
<event>
 7    1  0.2420569E-009  0.7886895E+02  0.7561462E-02  0.1332292E+00
         -1   -1    0    0    0  501 -0.00000000000E+00  0.00000000000E+00  0.68967824504E+02  0.68967824504E+02  0.00000000000E+00 0.  1.
          1   -1    0    0  501    0  0.00000000000E+00 -0.00000000000E+00 -0.34645463680E+03  0.34645463680E+03  0.00000000000E+00 0. -1.
         25    2    1    2    0    0 -0.50438029256E+02  0.19840441292E+02 -0.27755104972E+03  0.30922133068E+03  0.12508240580E+03 0.  0.
          5    1    3    3  502    0 -0.57617911289E+02 -0.12670421903E+02 -0.26783537475E+03  0.27428748360E+03  0.41800000000E+01 0. -1.
         -5    1    3    3    0  502  0.71798820337E+01  0.32510863195E+02 -0.97156749703E+01  0.34933847080E+02  0.41800000000E+01 0. -1.
        -11    1    1    2    0    0  0.13005321359E+02  0.10611314123E+02  0.40118693508E+02  0.43488480542E+02  0.00000000000E+00 0.  1.
         11    1    1    2    0    0  0.37432707897E+02 -0.30451755414E+02 -0.40054456087E+02  0.62712650085E+02  0.00000000000E+00 0. -1.
</event>
<event>
 7    1  0.2420569E-009  0.7684105E+02  0.7561462E-02  0.1338263E+00
          1   -1    0    0  501    0  0.00000000000E+00  0.00000000000E+00  0.50919019752E+03  0.50919019752E+03  0.00000000000E+00 0. -1.
         -1   -1    0    0    0  501 -0.00000000000E+00 -0.00000000000E+00 -0.29326454893E+02  0.29326454893E+02  0.00000000000E+00 0.  1.
         25    2    1    2    0    0  0.41604596111E+02  0.18429665917E+02  0.34817414624E+03  0.37275257031E+03  0.12509455448E+03 0.  0.
          5    1    3    3  502    0  0.54528854200E+02 -0.16647878532E+02  0.32173584185E+03  0.32677510941E+03  0.41800000000E+01 0. -1.
         -5    1    3    3    0  502 -0.12924258089E+02  0.35077544449E+02  0.26438304389E+02  0.45977460899E+02  0.41800000000E+01 0. -1.
        -11    1    1    2    0    0 -0.42621313916E+01  0.10714148087E+02 -0.10682520132E+02  0.15718618565E+02  0.00000000000E+00 0.  1.
         11    1    1    2    0    0 -0.37342464719E+02 -0.29143814004E+02  0.14237211652E+03  0.15004546354E+03  0.00000000000E+00 0. -1.
</event>
<event>
 7    1  0.2420569E-009  0.7616126E+02  0.7561462E-02  0.1340312E+00
          2   -1    0    0  501    0  0.00000000000E+00  0.00000000000E+00  0.13317530572E+03  0.13317530572E+03  0.00000000000E+00 0. -1.
         -2   -1    0    0    0  501 -0.00000000000E+00 -0.00000000000E+00 -0.10214754766E+03  0.10214754766E+03  0.00000000000E+00 0.  1.
         25    2    1    2    0    0 -0.61608544546E+01  0.18060162523E+01  0.65826193236E+02  0.14149787179E+03  0.12508933681E+03 0.  0.
          5    1    3    3  502    0 -0.34405145907E+02 -0.11453593849E+02 -0.25744416043E+02  0.44667059836E+02  0.41800000000E+01 0.  1.
         -5    1    3    3    0  502  0.28244291453E+02  0.13259610102E+02  0.91570609279E+02  0.96830811953E+02  0.41800000000E+01 0.  1.
        -11    1    1    2    0    0  0.14298425725E+02 -0.41461859057E+02 -0.29825343264E+02  0.53038493903E+02  0.00000000000E+00 0.  1.
         11    1    1    2    0    0 -0.81375712703E+01  0.39655842805E+02 -0.49730919127E+01  0.40786487688E+02  0.00000000000E+00 0. -1.
</event>
<event>
 7    1  0.2420569E-009  0.1118114E+03  0.7561462E-02  0.1257252E+00
         -2   -1    0    0    0  501 -0.00000000000E+00  0.00000000000E+00  0.24410663021E+03  0.24410663021E+03  0.00000000000E+00 0.  1.
          2   -1    0    0  501    0  0.00000000000E+00 -0.00000000000E+00 -0.85712221786E+02  0.85712221786E+02  0.00000000000E+00 0. -1.
         25    2    1    2    0    0 -0.69592968948E+02  0.59247172121E+02  0.12024965146E+03  0.19611525051E+03  0.12509118304E+03 0.  0.
          5    1    3    3  502    0 -0.84934643166E+02  0.60744884312E+02  0.36254398948E+02  0.11061504610E+03  0.41800000000E+01 0.  1.
         -5    1    3    3    0  502  0.15341674218E+02 -0.14977121909E+01  0.83995252512E+02  0.85500204410E+02  0.41800000000E+01 0.  1.
        -11    1    1    2    0    0  0.39074053211E+02 -0.30447350470E+01  0.55028212817E+02  0.67558539443E+02  0.00000000000E+00 0.  1.
         11    1    1    2    0    0  0.30518915737E+02 -0.56202437074E+02 -0.16883455858E+02  0.66145062042E+02  0.00000000000E+00 0. -1.
</event>
<event>
 7    1  0.2420569E-009  0.2010391E+03  0.7561462E-02  0.1148865E+00
         -2   -1    0    0    0  501 -0.00000000000E+00  0.00000000000E+00  0.54977779400E+02  0.54977779400E+02  0.00000000000E+00 0.  1.
          2   -1    0    0  501    0  0.00000000000E+00 -0.00000000000E+00 -0.90401725613E+03  0.90401725613E+03  0.00000000000E+00 0. -1.
         25    2    1    2    0    0 -0.16380365253E+03  0.78187188217E+02 -0.29080898918E+03  0.36491607363E+03  0.12509596166E+03 0.  0.
          5    1    3    3  502    0 -0.11270092223E+03  0.91619737926E+01 -0.83931142752E+02  0.14088061882E+03  0.41800000000E+01 0. -1.
         -5    1    3    3    0  502 -0.51102730296E+02  0.69025214424E+02 -0.20687784643E+03  0.22403545481E+03  0.41800000000E+01 0. -1.
        -11    1    1    2    0    0  0.75003368436E+02  0.12478896121E+02 -0.22502200818E+03  0.23752080391E+03  0.00000000000E+00 0.  1.
         11    1    1    2    0    0  0.88800284090E+02 -0.90666084337E+02 -0.33320847937E+03  0.35655815799E+03  0.00000000000E+00 0. -1.
</event>
<event>
 7    1  0.2420569E-009  0.1591305E+03  0.7561462E-02  0.1189682E+00
         -3   -1    0    0    0  501 -0.00000000000E+00  0.00000000000E+00  0.19085010979E+04  0.19085010979E+04  0.00000000000E+00 0.  1.
          3   -1    0    0  501    0  0.00000000000E+00 -0.00000000000E+00 -0.13572935010E+02  0.13572935010E+02  0.00000000000E+00 0. -1.
         25    2    1    2    0    0  0.44706497584E+02 -0.10771319564E+03  0.11459082713E+04  0.11585996722E+04  0.12508649381E+03 0.  0.
          5    1    3    3  502    0  0.75930887816E+02 -0.11533792064E+03  0.89307607230E+03  0.90369833406E+03  0.41800000000E+01 0. -1.
         -5    1    3    3    0  502 -0.31224390232E+02  0.76247250048E+01  0.25283219896E+03  0.25490133819E+03  0.41800000000E+01 0. -1.
        -11    1    1    2    0    0 -0.71878877376E+02  0.90335852809E+02  0.59975657911E+03  0.61076598915E+03  0.00000000000E+00 0.  1.
         11    1    1    2    0    0  0.27172379793E+02  0.17377342830E+02  0.14926331248E+03  0.15270837148E+03  0.00000000000E+00 0. -1.
</event>
<event>
 7    1  0.2420569E-009  0.1074081E+03  0.7561462E-02  0.1265446E+00
         -2   -1    0    0    0  501 -0.00000000000E+00  0.00000000000E+00  0.15205554358E+03  0.15205554358E+03  0.00000000000E+00 0.  1.
          2   -1    0    0  501    0  0.00000000000E+00 -0.00000000000E+00 -0.11912120497E+03  0.11912120497E+03  0.00000000000E+00 0. -1.
         25    2    1    2    0    0  0.62244783776E+02 -0.50177785585E+02  0.17561544787E+02  0.14950198214E+03  0.12510080549E+03 0.  0.
          5    1    3    3  502    0 -0.14243586516E+02  0.35330947792E+01 -0.37820240249E+02  0.40782416408E+02  0.41800000000E+01 0.  1.
         -5    1    3    3    0  502  0.76488370292E+02 -0.53710880364E+02  0.55381785037E+02  0.10871956573E+03  0.41800000000E+01 0.  1.
        -11    1    1    2    0    0 -0.35985297019E+02 -0.12460049712E+02  0.34210469003E+02  0.51191314007E+02  0.00000000000E+00 0.  1.
         11    1    1    2    0    0 -0.26259486757E+02  0.62637835296E+02 -0.18837675177E+02  0.70483452394E+02  0.00000000000E+00 0. -1.
</event>
<event>
 7    1  0.2420569E-009  0.2430064E+03  0.7561462E-02  0.1117806E+00
         -1   -1    0    0    0  501 -0.00000000000E+00  0.00000000000E+00  0.93690474171E+02  0.93690474171E+02  0.00000000000E+00 0.  1.
          1   -1    0    0  501    0  0.00000000000E+00 -0.00000000000E+00 -0.82672112217E+03  0.82672112217E+03  0.00000000000E+00 0. -1.
         25    2    1    2    0    0  0.10077631950E+03  0.20112878363E+03 -0.57755430157E+03  0.63231779477E+03  0.12509263826E+03 0.  0.
          5    1    3    3  502    0 -0.24292371418E+02  0.24093128826E+02 -0.13754674493E+03  0.14179978000E+03  0.41800000000E+01 0.  1.
         -5    1    3    3    0  502  0.12506869092E+03  0.17703565481E+03 -0.44000755663E+03  0.49051801477E+03  0.41800000000E+01 0.  1.
        -11    1    1    2    0    0 -0.26453875514E+01 -0.74490714711E+02 -0.85046326674E+02  0.11308732172E+03  0.00000000000E+00 0. -1.
         11    1    1    2    0    0 -0.98130931949E+02 -0.12663806892E+03 -0.70430019756E+02  0.17500647985E+03  0.00000000000E+00 0.  1.
</event>
<event>
 7    1  0.2420569E-009  0.2680559E+03  0.7561462E-02  0.1102397E+00
         -1   -1    0    0    0  501 -0.00000000000E+00  0.00000000000E+00  0.19585025484E+03  0.19585025484E+03  0.00000000000E+00 0.  1.
          1   -1    0    0  501    0  0.00000000000E+00 -0.00000000000E+00 -0.74418561006E+03  0.74418561006E+03  0.00000000000E+00 0. -1.
         25    2    1    2    0    0  0.20013797276E+03 -0.14995023415E+03 -0.60653989069E+03  0.66789207669E+03  0.12509558841E+03 0.  0.
          5    1    3    3  502    0  0.16275872396E+02 -0.78758306231E+02 -0.21275021704E+03  0.22748165217E+03  0.41800000000E+01 0.  1.
         -5    1    3    3    0  502  0.18386210036E+03 -0.71191927921E+02 -0.39378967365E+03  0.44041042452E+03  0.41800000000E+01 0.  1.
        -11    1    1    2    0    0 -0.14859691337E+03  0.72499241650E+02  0.59643428292E+01  0.16544713986E+03  0.00000000000E+00 0.  1.
         11    1    1    2    0    0 -0.51541059388E+02  0.77450992502E+02  0.52240192647E+02  0.10669664836E+03  0.00000000000E+00 0. -1.
</event>
<event>
 7    1  0.2420569E-009  0.9431011E+02  0.7561462E-02  0.1292737E+00
         -1   -1    0    0    0  501 -0.00000000000E+00  0.00000000000E+00  0.86633994871E+02  0.86633994871E+02  0.00000000000E+00 0.  1.
          1   -1    0    0  501    0  0.00000000000E+00 -0.00000000000E+00 -0.14849359207E+03  0.14849359207E+03  0.00000000000E+00 0. -1.
         25    2    1    2    0    0  0.33321551140E+02  0.50261600546E+02 -0.56540421668E+02  0.14993094280E+03  0.12508362830E+03 0.  0.
          5    1    3    3  502    0 -0.39266714388E+02  0.18584717009E+02 -0.55513499904E+02  0.70615066641E+02  0.41800000000E+01 0. -1.
         -5    1    3    3    0  502  0.72588265528E+02  0.31676883537E+02 -0.10269217646E+01  0.79315876162E+02  0.41800000000E+01 0. -1.
        -11    1    1    2    0    0 -0.97182114220E+01 -0.37694846311E+02  0.23828349200E+02  0.45641377031E+02  0.00000000000E+00 0. -1.
         11    1    1    2    0    0 -0.23603339718E+02 -0.12566754235E+02 -0.29147524728E+02  0.39555267103E+02  0.00000000000E+00 0.  1.
</event>
<event>
 7    1  0.2420569E-009  0.1954432E+03  0.7561462E-02  0.1153642E+00
         -1   -1    0    0    0  501 -0.00000000000E+00  0.00000000000E+00  0.25525689315E+02  0.25525689315E+02  0.00000000000E+00 0.  1.
          1   -1    0    0  501    0  0.00000000000E+00 -0.00000000000E+00 -0.17927492311E+04  0.17927492311E+04  0.00000000000E+00 0. -1.
         25    2    1    2    0    0  0.53286573053E+02  0.17312843958E+03 -0.10650311077E+04  0.10875435478E+04  0.12508713968E+03 0.  0.
          5    1    3    3  502    0 -0.48510629891E+01  0.10528719930E+03 -0.81888785586E+03  0.82565351088E+03  0.41800000000E+01 0. -1.
         -5    1    3    3    0  502  0.58137636042E+02  0.67841240284E+02 -0.24614325181E+03  0.26189003688E+03  0.41800000000E+01 0. -1.
        -11    1    1    2    0    0  0.53025513663E+01 -0.10888791297E+03 -0.29856126597E+03  0.31784197989E+03  0.00000000000E+00 0.  1.
         11    1    1    2    0    0 -0.58589124419E+02 -0.64240526615E+02 -0.40363116815E+03  0.41288939277E+03  0.00000000000E+00 0. -1.
</event>
<event>
 7    1  0.2420569E-009  0.1433414E+03  0.7561462E-02  0.1208902E+00
         -1   -1    0    0    0  501 -0.00000000000E+00  0.00000000000E+00  0.35103110452E+03  0.35103110452E+03  0.00000000000E+00 0.  1.
          1   -1    0    0  501    0  0.00000000000E+00 -0.00000000000E+00 -0.71506133397E+02  0.71506133397E+02  0.00000000000E+00 0. -1.
         25    2    1    2    0    0 -0.76170659700E+02  0.72443952199E+02  0.83780983267E+02  0.18362636819E+03  0.12509713957E+03 0.  0.
          5    1    3    3  502    0 -0.10063534878E+03  0.25040046947E+02  0.30646349640E+02  0.10821806005E+03  0.41800000000E+01 0. -1.
         -5    1    3    3    0  502  0.24464689083E+02  0.47403905252E+02  0.53134633627E+02  0.75408308135E+02  0.41800000000E+01 0. -1.
        -11    1    1    2    0    0  0.15875622048E+01 -0.52038291235E+02  0.42282403655E+02  0.67069410071E+02  0.00000000000E+00 0. -1.
         11    1    1    2    0    0  0.74583097495E+02 -0.20405660964E+02  0.15346158420E+03  0.17184145965E+03  0.00000000000E+00 0.  1.
</event>
<event>
 7    1  0.2420569E-009  0.1552520E+03  0.7561462E-02  0.1194164E+00
          1   -1    0    0  501    0  0.00000000000E+00  0.00000000000E+00  0.83618214988E+02  0.83618214988E+02  0.00000000000E+00 0. -1.
         -1   -1    0    0    0  501 -0.00000000000E+00 -0.00000000000E+00 -0.34683538890E+03  0.34683538890E+03  0.00000000000E+00 0.  1.
         25    2    1    2    0    0 -0.13171692985E+03  0.21089047160E+02 -0.12089082415E+03  0.21921837835E+03  0.12509200025E+03 0.  0.
          5    1    3    3  502    0 -0.83219953400E+02 -0.35795435940E+02 -0.11156032865E+03  0.14377083573E+03  0.41800000000E+01 0. -1.
         -5    1    3    3    0  502 -0.48496976451E+02  0.56884483099E+02 -0.93304954996E+01  0.75447542628E+02  0.41800000000E+01 0. -1.
        -11    1    1    2    0    0  0.16207834022E+01 -0.14599817640E+02  0.41051247511E+01  0.15252333041E+02  0.00000000000E+00 0. -1.
         11    1    1    2    0    0  0.13009614645E+03 -0.64892295191E+01 -0.14643147452E+03  0.19598289249E+03  0.00000000000E+00 0.  1.
</event>
<event>
 7    1  0.2420569E-009  0.9822009E+02  0.7561462E-02  0.1284084E+00
          1   -1    0    0  501    0  0.00000000000E+00  0.00000000000E+00  0.24482507585E+02  0.24482507585E+02  0.00000000000E+00 0. -1.
         -1   -1    0    0    0  501 -0.00000000000E+00 -0.00000000000E+00 -0.51847338736E+03  0.51847338736E+03  0.00000000000E+00 0.  1.
         25    2    1    2    0    0 -0.80001270659E+00 -0.49152077977E+01 -0.20576655989E+03  0.24085605792E+03  0.12508782586E+03 0.  0.
          5    1    3    3  502    0  0.39538389376E+02 -0.37156223749E+02 -0.16841019308E+03  0.17698399569E+03  0.41800000000E+01 0. -1.
         -5    1    3    3    0  502 -0.40338402082E+02  0.32241015951E+02 -0.37356366814E+02  0.63872062231E+02  0.41800000000E+01 0. -1.
        -11    1    1    2    0    0  0.14185235768E+02  0.45404523119E+02 -0.16401702770E+03  0.17077580921E+03  0.00000000000E+00 0.  1.
         11    1    1    2    0    0 -0.13385223062E+02 -0.40489315322E+02 -0.12420729218E+03  0.13132402782E+03  0.00000000000E+00 0. -1.
</event>
<event>
 7    1  0.2420569E-009  0.1368438E+03  0.7561462E-02  0.1217640E+00
         -2   -1    0    0    0  501 -0.00000000000E+00  0.00000000000E+00  0.58369588921E+02  0.58369588921E+02  0.00000000000E+00 0.  1.
          2   -1    0    0  501    0  0.00000000000E+00 -0.00000000000E+00 -0.41542938901E+03  0.41542938901E+03  0.00000000000E+00 0. -1.
         25    2    1    2    0    0 -0.65177026058E+02  0.58703231711E+02 -0.29697631603E+03  0.33397006154E+03  0.12508779150E+03 0.  0.
          5    1    3    3  502    0  0.10446406120E+02 -0.32309500273E+02 -0.73129987578E+02  0.80737219991E+02  0.41800000000E+01 0. -1.
         -5    1    3    3    0  502 -0.75623432178E+02  0.91012731984E+02 -0.22384632845E+03  0.25323284155E+03  0.41800000000E+01 0. -1.
        -11    1    1    2    0    0  0.56556735783E+02  0.50083628087E+01 -0.85201219012E+01  0.57413766099E+02  0.00000000000E+00 0.  1.
         11    1    1    2    0    0  0.86202902752E+01 -0.63711594520E+02 -0.51563362158E+02  0.82415150292E+02  0.00000000000E+00 0. -1.
</event>
<event>
 7    1  0.2420569E-009  0.7779097E+02  0.7561462E-02  0.1335440E+00
          2   -1    0    0  501    0  0.00000000000E+00  0.00000000000E+00  0.34610649418E+03  0.34610649418E+03  0.00000000000E+00 0.  1.
         -2   -1    0    0    0  501 -0.00000000000E+00 -0.00000000000E+00 -0.41367703390E+02  0.41367703390E+02  0.00000000000E+00 0. -1.
         25    2    1    2    0    0 -0.15575520914E+01 -0.41309820551E+02  0.22217607756E+03  0.25829974895E+03  0.12509046178E+03 0.  0.
          5    1    3    3  502    0 -0.20811301328E+02 -0.36920980227E+02  0.81957531224E+01  0.43369480204E+02  0.41800000000E+01 0. -1.
         -5    1    3    3    0  502  0.19253749236E+02 -0.43888403237E+01  0.21398032443E+03  0.21493026875E+03  0.41800000000E+01 0. -1.
        -11    1    1    2    0    0 -0.38630136324E+02  0.35002113335E+02  0.68612887354E+02  0.86169389469E+02  0.00000000000E+00 0.  1.
         11    1    1    2    0    0  0.40187688415E+02  0.63077072156E+01  0.13949825880E+02  0.43005059151E+02  0.00000000000E+00 0. -1.
</event>
<event>
 7    1  0.2451217E-009  0.1096304E+03  0.7561462E-02  0.1261256E+00
          1   -1    0    0  501    0  0.00000000000E+00  0.00000000000E+00  0.63212787585E+03  0.63212787585E+03  0.00000000000E+00 0. -1.
         -1   -1    0    0    0  501 -0.00000000000E+00 -0.00000000000E+00 -0.32463282436E+02  0.32463282436E+02  0.00000000000E+00 0.  1.
         25    2    1    2    0    0 -0.30262357557E+02 -0.76285015589E+02  0.22531867659E+03  0.27046399245E+03  0.12508817412E+03 0.  0.
          5    1    3    3  502    0 -0.58837617399E+02 -0.43297005154E+02  0.47304627957E+02  0.87130339737E+02  0.41800000000E+01 0. -1.
         -5    1    3    3    0  502  0.28575259842E+02 -0.32988010434E+02  0.17801404863E+03  0.18333365271E+03  0.41800000000E+01 0. -1.
        -11    1    1    2    0    0  0.21911928173E+02 -0.33575068307E+01  0.17046923970E+02  0.27964317714E+02  0.00000000000E+00 0.  1.
         11    1    1    2    0    0  0.83504293838E+01  0.79642522419E+02  0.35729899285E+03  0.36616284812E+03  0.00000000000E+00 0. -1.
</event>
<event>
 7    1  0.2420569E-009  0.1305495E+03  0.7561462E-02  0.1226643E+00
          1   -1    0    0  501    0  0.00000000000E+00  0.00000000000E+00  0.86161101316E+03  0.86161101316E+03  0.00000000000E+00 0. -1.
         -1   -1    0    0    0  501 -0.00000000000E+00 -0.00000000000E+00 -0.21063887334E+02  0.21063887334E+02  0.00000000000E+00 0.  1.
         25    2    1    2    0    0 -0.75061406641E+02  0.25023736624E+01  0.53368141485E+03  0.55326800050E+03  0.12509656741E+03 0.  0.
          5    1    3    3  502    0  0.20260987427E+02 -0.37197928833E+02  0.15431655436E+03  0.16007893325E+03  0.41800000000E+01 0. -1.
         -5    1    3    3    0  502 -0.95322394068E+02  0.39700302495E+02  0.37936486049E+03  0.39318906725E+03  0.41800000000E+01 0. -1.
        -11    1    1    2    0    0  0.64818242063E+02  0.36827375148E+02  0.23842960201E+03  0.24981260012E+03  0.00000000000E+00 0.  1.
         11    1    1    2    0    0  0.10243164579E+02 -0.39329748810E+02  0.68436108962E+02  0.79594299870E+02  0.00000000000E+00 0. -1.
</event>
<event>
 7    1  0.2420569E-009  0.1060159E+03  0.7561462E-02  0.1268131E+00
          1   -1    0    0  501    0  0.00000000000E+00  0.00000000000E+00  0.32345492699E+02  0.32345492699E+02  0.00000000000E+00 0. -1.
         -1   -1    0    0    0  501 -0.00000000000E+00 -0.00000000000E+00 -0.47081434616E+03  0.47081434616E+03  0.00000000000E+00 0.  1.
         25    2    1    2    0    0  0.58486267248E+02 -0.11584280789E+02 -0.24783754627E+03  0.28394675452E+03  0.12508985190E+03 0.  0.
          5    1    3    3  502    0  0.77880533832E+02  0.12148642472E+02 -0.23911644757E+03  0.25180769440E+03  0.41800000000E+01 0.  1.
         -5    1    3    3    0  502 -0.19394266584E+02 -0.23732923261E+02 -0.87210986982E+01  0.32139060119E+02  0.41800000000E+01 0.  1.
        -11    1    1    2    0    0 -0.70007090918E+02 -0.16400158409E+02 -0.16332484137E+03  0.17845156705E+03  0.00000000000E+00 0.  1.
         11    1    1    2    0    0  0.11520823670E+02  0.27984439198E+02 -0.27306465821E+02  0.40761517279E+02  0.00000000000E+00 0. -1.
</event>
<event>
 7    1  0.2420569E-009  0.1064605E+03  0.7561462E-02  0.1267268E+00
         -2   -1    0    0    0  501 -0.00000000000E+00  0.00000000000E+00  0.21123841554E+03  0.21123841554E+03  0.00000000000E+00 0.  1.
          2   -1    0    0  501    0  0.00000000000E+00 -0.00000000000E+00 -0.56699466905E+02  0.56699466905E+02  0.00000000000E+00 0. -1.
         25    2    1    2    0    0 -0.17161176317E+01  0.64135394722E+01  0.76251776275E+02  0.14665722957E+03  0.12509968446E+03 0.  0.
          5    1    3    3  502    0  0.39790588480E+02 -0.43295722180E+02  0.47372412130E+02  0.75626902103E+02  0.41800000000E+01 0.  1.
         -5    1    3    3    0  502 -0.41506706111E+02  0.49709261653E+02  0.28879364146E+02  0.71030327464E+02  0.41800000000E+01 0.  1.
        -11    1    1    2    0    0  0.28545189420E+02  0.31576578685E+02  0.54162407185E+02  0.68887404600E+02  0.00000000000E+00 0.  1.
         11    1    1    2    0    0 -0.26829071788E+02 -0.37990118157E+02  0.24124765178E+02  0.52393248281E+02  0.00000000000E+00 0. -1.
</event>
<event>
 7    1  0.2901053E-009  0.1382104E+03  0.7561462E-02  0.1215757E+00
         -1   -1    0    0    0  501 -0.00000000000E+00  0.00000000000E+00  0.10922406464E+03  0.10922406464E+03  0.00000000000E+00 0.  1.
          1   -1    0    0  501    0  0.00000000000E+00 -0.00000000000E+00 -0.29102232356E+03  0.29102232356E+03  0.00000000000E+00 0. -1.
         25    2    1    2    0    0 -0.11154296293E+03  0.22960014575E+02 -0.30617012875E+01  0.16918785116E+03  0.12508461182E+03 0.  0.
          5    1    3    3  502    0 -0.13232181988E+03  0.20293888232E+02  0.22568608367E+02  0.13582238549E+03  0.41800000000E+01 0. -1.
         -5    1    3    3    0  502  0.20778856954E+02  0.26661263430E+01 -0.25630309654E+02  0.33365465664E+02  0.41800000000E+01 0. -1.
        -11    1    1    2    0    0  0.45791508675E+02  0.11038499592E+02 -0.13959034057E+03  0.14732336516E+03  0.00000000000E+00 0. -1.
         11    1    1    2    0    0  0.65751454256E+02 -0.33998514167E+02 -0.39146217059E+02  0.83735171895E+02  0.00000000000E+00 0.  1.
</event>
<event>
 7    1  0.2420569E-009  0.1506441E+03  0.7561462E-02  0.1199684E+00
          2   -1    0    0  501    0  0.00000000000E+00  0.00000000000E+00  0.66118043666E+02  0.66118043666E+02  0.00000000000E+00 0.  1.
         -2   -1    0    0    0  501 -0.00000000000E+00 -0.00000000000E+00 -0.58418307535E+03  0.58418307535E+03  0.00000000000E+00 0. -1.
         25    2    1    2    0    0  0.41099251848E+02  0.10112697624E+03 -0.69847444045E+02  0.18011357295E+03  0.12508565024E+03 0.  0.
          5    1    3    3  502    0 -0.45024979154E+02  0.35491904759E+02 -0.28116829808E+02  0.63991816427E+02  0.41800000000E+01 0. -1.
         -5    1    3    3    0  502  0.86124231002E+02  0.65635071485E+02 -0.41730614238E+02  0.11612175653E+03  0.41800000000E+01 0. -1.
        -11    1    1    2    0    0  0.20002961554E+02 -0.35571571368E+01 -0.28717956718E+02  0.35178016941E+02  0.00000000000E+00 0.  1.
         11    1    1    2    0    0 -0.61102213402E+02 -0.97569819107E+02 -0.41949963092E+03  0.43500952912E+03  0.00000000000E+00 0. -1.
</event>
<event>
 7    1  0.2420569E-009  0.6221862E+02  0.7561462E-02  0.1388750E+00
          1   -1    0    0  501    0  0.00000000000E+00  0.00000000000E+00  0.41749027426E+03  0.41749027426E+03  0.00000000000E+00 0. -1.
         -1   -1    0    0    0  501 -0.00000000000E+00 -0.00000000000E+00 -0.42164923526E+02  0.42164923526E+02  0.00000000000E+00 0.  1.
         25    2    1    2    0    0  0.38732674436E+02  0.69072308060E+01  0.31470330385E+03  0.34092743530E+03  0.12508164047E+03 0.  0.
          5    1    3    3  502    0  0.22839575722E+02  0.27634348017E+02  0.31228695764E+03  0.31436590102E+03  0.41800000000E+01 0.  1.
         -5    1    3    3    0  502  0.15893098714E+02 -0.20727117211E+02  0.24163462091E+01  0.26561534285E+02  0.41800000000E+01 0.  1.
        -11    1    1    2    0    0  0.33334320029E+01  0.14369472818E+02  0.69250217291E+02  0.70803856624E+02  0.00000000000E+00 0. -1.
         11    1    1    2    0    0 -0.42066106439E+02 -0.21276703624E+02 -0.86281704100E+01  0.47923905857E+02  0.00000000000E+00 0.  1.
</event>
<event>
 7    1  0.2420569E-009  0.1716801E+03  0.7561462E-02  0.1176107E+00
          2   -1    0    0  501    0  0.00000000000E+00  0.00000000000E+00  0.11535384126E+04  0.11535384126E+04  0.00000000000E+00 0. -1.
         -2   -1    0    0    0  501 -0.00000000000E+00 -0.00000000000E+00 -0.29613282258E+02  0.29613282258E+02  0.00000000000E+00 0.  1.
         25    2    1    2    0    0 -0.47651181496E+02 -0.12834413460E+03  0.78307907539E+03  0.80473819000E+03  0.12509142315E+03 0.  0.
          5    1    3    3  502    0 -0.87268513002E+02 -0.77696381237E+02  0.58051388399E+03  0.59217088997E+03  0.41800000000E+01 0. -1.
         -5    1    3    3    0  502  0.39617331506E+02 -0.50647753365E+02  0.20256519140E+03  0.21256730003E+03  0.41800000000E+01 0. -1.
        -11    1    1    2    0    0 -0.70778501825E+01  0.10022345152E+03  0.24135452888E+03  0.26143229489E+03  0.00000000000E+00 0. -1.
         11    1    1    2    0    0  0.54729031679E+02  0.28120683085E+02  0.99491526034E+02  0.11698120994E+03  0.00000000000E+00 0.  1.
</event>
<event>
 7    1  0.2420569E-009  0.1556266E+03  0.7561462E-02  0.1193725E+00
          1   -1    0    0  501    0  0.00000000000E+00  0.00000000000E+00  0.16178688127E+04  0.16178688127E+04  0.00000000000E+00 0. -1.
         -1   -1    0    0    0  501 -0.00000000000E+00 -0.00000000000E+00 -0.19039628960E+02  0.19039628960E+02  0.00000000000E+00 0.  1.
         25    2    1    2    0    0  0.72969971528E+02 -0.12072687800E+03  0.89853902813E+03  0.91810698098E+03  0.12509375541E+03 0.  0.
          5    1    3    3  502    0 -0.98530411336E+01 -0.11937860406E+02  0.95644387866E+01  0.18669381885E+02  0.41800000000E+01 0. -1.
         -5    1    3    3    0  502  0.82823012661E+02 -0.10878901759E+03  0.88897458934E+03  0.89943759910E+03  0.41800000000E+01 0. -1.
        -11    1    1    2    0    0 -0.11260493185E+02  0.87730280170E+02  0.31379899194E+03  0.32602639173E+03  0.00000000000E+00 0.  1.
         11    1    1    2    0    0 -0.61709478343E+02  0.32996597829E+02  0.38649116364E+03  0.39277506891E+03  0.00000000000E+00 0. -1.
</event>
<event>
 7    1  0.2420569E-009  0.1210718E+03  0.7561462E-02  0.1241339E+00
          2   -1    0    0  501    0  0.00000000000E+00  0.00000000000E+00  0.68227910045E+03  0.68227910045E+03  0.00000000000E+00 0. -1.
         -2   -1    0    0    0  501 -0.00000000000E+00 -0.00000000000E+00 -0.27604502446E+02  0.27604502446E+02  0.00000000000E+00 0.  1.
         25    2    1    2    0    0  0.19911335245E+02  0.74110682361E+02  0.44903577241E+03  0.47240834098E+03  0.12509061202E+03 0.  0.
          5    1    3    3  502    0  0.30168222260E+02  0.97139899556E+02  0.22547556314E+03  0.24739236790E+03  0.41800000000E+01 0. -1.
         -5    1    3    3    0  502 -0.10256887015E+02 -0.23029217195E+02  0.22356020927E+03  0.22501597308E+03  0.41800000000E+01 0. -1.
        -11    1    1    2    0    0 -0.52323576795E+02 -0.59499540370E+02  0.11099533444E+03  0.13637417739E+03  0.00000000000E+00 0.  1.
         11    1    1    2    0    0  0.32412241550E+02 -0.14611141991E+02  0.94643491155E+02  0.10110108452E+03  0.00000000000E+00 0. -1.
</event>
<event>
 7    1  0.2420569E-009  0.1405398E+03  0.7561462E-02  0.1212604E+00
         -2   -1    0    0    0  501 -0.00000000000E+00  0.00000000000E+00  0.32934714410E+03  0.32934714410E+03  0.00000000000E+00 0.  1.
          2   -1    0    0  501    0  0.00000000000E+00 -0.00000000000E+00 -0.90504940285E+02  0.90504940285E+02  0.00000000000E+00 0. -1.
         25    2    1    2    0    0 -0.81335347069E+02  0.42678485032E+02  0.24509917487E+03  0.29009832147E+03  0.12508612565E+03 0.  0.
          5    1    3    3  502    0 -0.10899204478E+03  0.10281981400E+02  0.14940153155E+03  0.18526541770E+03  0.41800000000E+01 0. -1.
         -5    1    3    3    0  502  0.27656697707E+02  0.32396503633E+02  0.95697643324E+02  0.10483290377E+03  0.41800000000E+01 0. -1.
        -11    1    1    2    0    0  0.38979230041E+02 -0.68717720998E+02 -0.11181057001E+02  0.79790485582E+02  0.00000000000E+00 0. -1.
         11    1    1    2    0    0  0.42356117028E+02  0.26039235966E+02  0.49240859453E+01  0.49963277332E+02  0.00000000000E+00 0.  1.
</event>
<event>
 7    1  0.2420569E-009  0.9214875E+02  0.7561462E-02  0.1297730E+00
          1   -1    0    0  501    0  0.00000000000E+00  0.00000000000E+00  0.46264919353E+03  0.46264919353E+03  0.00000000000E+00 0. -1.
         -1   -1    0    0    0  501 -0.00000000000E+00 -0.00000000000E+00 -0.26438476959E+02  0.26438476959E+02  0.00000000000E+00 0.  1.
         25    2    1    2    0    0  0.39166211822E+01  0.13585039364E+02  0.21251309539E+03  0.24700530082E+03  0.12509959913E+03 0.  0.
          5    1    3    3  502    0  0.55370757465E+02  0.14066252624E+02  0.48492378544E+02  0.75051738301E+02  0.41800000000E+01 0. -1.
         -5    1    3    3    0  502 -0.51454136283E+02 -0.48121326003E+00  0.16402071685E+03  0.17195356252E+03  0.41800000000E+01 0. -1.
        -11    1    1    2    0    0  0.35083634389E+02 -0.80856708489E+01  0.38372920782E+02  0.52618632863E+02  0.00000000000E+00 0.  1.
         11    1    1    2    0    0 -0.39000255571E+02 -0.54993685152E+01  0.18532470040E+03  0.18946373681E+03  0.00000000000E+00 0. -1.
</event>
<event>
 7    1  0.2420569E-009  0.1003588E+03  0.7561462E-02  0.1279543E+00
          2   -1    0    0  501    0  0.00000000000E+00  0.00000000000E+00  0.37939101274E+03  0.37939101274E+03  0.00000000000E+00 0. -1.
         -2   -1    0    0    0  501 -0.00000000000E+00 -0.00000000000E+00 -0.39150354369E+02  0.39150354369E+02  0.00000000000E+00 0.  1.
         25    2    1    2    0    0 -0.23366108668E+02 -0.15752042045E+02  0.27577248236E+03  0.30412499187E+03  0.12508975494E+03 0.  0.
          5    1    3    3  502    0 -0.72818855454E+02 -0.26108760019E+02  0.17104220141E+03  0.18776890084E+03  0.41800000000E+01 0. -1.
         -5    1    3    3    0  502  0.49452746786E+02  0.10356717974E+02  0.10473028095E+03  0.11635609103E+03  0.41800000000E+01 0. -1.
        -11    1    1    2    0    0  0.45782477693E+02  0.11520720460E+01  0.73139386024E+02  0.86294451280E+02  0.00000000000E+00 0. -1.
         11    1    1    2    0    0 -0.22416369025E+02  0.14599969999E+02 -0.86712100116E+01  0.28121923961E+02  0.00000000000E+00 0.  1.
</event>
<event>
 7    1  0.2420569E-009  0.1088295E+03  0.7561462E-02  0.1262753E+00
          4   -1    0    0  501    0  0.00000000000E+00  0.00000000000E+00  0.65584214156E+03  0.65584214156E+03  0.00000000000E+00 0. -1.
         -4   -1    0    0    0  501 -0.00000000000E+00 -0.00000000000E+00 -0.23625947993E+02  0.23625947993E+02  0.00000000000E+00 0.  1.
         25    2    1    2    0    0  0.28943714386E+02  0.22596071863E+02  0.48537702758E+03  0.50258108568E+03  0.12509423531E+03 0.  0.
          5    1    3    3  502    0  0.33325071068E+02  0.68231252815E+02  0.38080501173E+03  0.38832459822E+03  0.41800000000E+01 0. -1.
         -5    1    3    3    0  502 -0.43813566826E+01 -0.45635180952E+02  0.10457201585E+03  0.11425648746E+03  0.41800000000E+01 0. -1.
        -11    1    1    2    0    0 -0.54990310157E+02  0.78046508787E+01  0.10616965180E+03  0.11982003901E+03  0.00000000000E+00 0.  1.
         11    1    1    2    0    0  0.26046595771E+02 -0.30400722742E+02  0.40669514192E+02  0.57066964867E+02  0.00000000000E+00 0. -1.
</event>
<event>
 7    1  0.2420569E-009  0.1599324E+03  0.7561462E-02  0.1188773E+00
          2   -1    0    0  501    0  0.00000000000E+00  0.00000000000E+00  0.25339821598E+03  0.25339821598E+03  0.00000000000E+00 0. -1.
         -2   -1    0    0    0  501 -0.00000000000E+00 -0.00000000000E+00 -0.15193899129E+03  0.15193899129E+03  0.00000000000E+00 0.  1.
         25    2    1    2    0    0 -0.55161996027E+01 -0.13093859393E+03 -0.47537299103E+02  0.18730876160E+03  0.12509769594E+03 0.  0.
          5    1    3    3  502    0 -0.16952265751E+02  0.16481143902E+02 -0.29888360725E+02  0.38337891507E+02  0.41800000000E+01 0. -1.
         -5    1    3    3    0  502  0.11436066148E+02 -0.14741973783E+03 -0.17648938378E+02  0.14897087010E+03  0.41800000000E+01 0. -1.
        -11    1    1    2    0    0  0.36307041338E+02  0.87074376642E+02  0.53323251014E+02  0.10836751089E+03  0.00000000000E+00 0.  1.
         11    1    1    2    0    0 -0.30790841735E+02  0.43864217287E+02  0.95673272770E+02  0.10966093477E+03  0.00000000000E+00 0. -1.
</event>
<event>
 7    1  0.2420569E-009  0.9560413E+02  0.7561462E-02  0.1289821E+00
          1   -1    0    0  501    0  0.00000000000E+00  0.00000000000E+00  0.43093440946E+03  0.43093440946E+03  0.00000000000E+00 0. -1.
         -1   -1    0    0    0  501 -0.00000000000E+00 -0.00000000000E+00 -0.37134889280E+02  0.37134889280E+02  0.00000000000E+00 0.  1.
         25    2    1    2    0    0  0.47641550790E+02 -0.38697947849E+02  0.17445844803E+03  0.22327981563E+03  0.12510346699E+03 0.  0.
          5    1    3    3  502    0 -0.12769675046E+02 -0.48622055066E+02  0.15318605004E+02  0.52719075284E+02  0.41800000000E+01 0. -1.
         -5    1    3    3    0  502  0.60411225836E+02  0.99241072169E+01  0.15913984302E+03  0.17056074035E+03  0.41800000000E+01 0. -1.
        -11    1    1    2    0    0 -0.90677502439E+01 -0.12409727592E+02 -0.93276523800E+00  0.15397905194E+02  0.00000000000E+00 0.  1.
         11    1    1    2    0    0 -0.38573800546E+02  0.51107675441E+02  0.22027383739E+03  0.22939157791E+03  0.00000000000E+00 0. -1.
</event>
<event>
 7    1  0.2420569E-009  0.1121432E+03  0.7561462E-02  0.1256652E+00
         -1   -1    0    0    0  501 -0.00000000000E+00  0.00000000000E+00  0.48247305903E+02  0.48247305903E+02  0.00000000000E+00 0. -1.
          1   -1    0    0  501    0  0.00000000000E+00 -0.00000000000E+00 -0.37540583039E+03  0.37540583039E+03  0.00000000000E+00 0.  1.
         25    2    1    2    0    0 -0.60152066759E+01 -0.38777926516E+02 -0.29039595704E+03  0.31861823423E+03  0.12509139467E+03 0.  0.
          5    1    3    3  502    0 -0.98537180498E+01 -0.82253178560E+02 -0.22575526170E+03  0.24051110521E+03  0.41800000000E+01 0.  1.
         -5    1    3    3    0  502  0.38385113740E+01  0.43475252044E+02 -0.64640695335E+02  0.78107129017E+02  0.41800000000E+01 0.  1.
        -11    1    1    2    0    0 -0.31722533476E+02 -0.12270262824E+02 -0.61804753443E+01  0.34569882201E+02  0.00000000000E+00 0.  1.
         11    1    1    2    0    0  0.37737740152E+02  0.51048189339E+02 -0.30582092100E+02  0.70465019860E+02  0.00000000000E+00 0. -1.
</event>
<event>
 7    1  0.2420569E-009  0.1008152E+03  0.7561462E-02  0.1278591E+00
          3   -1    0    0  501    0  0.00000000000E+00  0.00000000000E+00  0.13871891986E+03  0.13871891986E+03  0.00000000000E+00 0. -1.
         -3   -1    0    0    0  501 -0.00000000000E+00 -0.00000000000E+00 -0.12682722083E+03  0.12682722083E+03  0.00000000000E+00 0.  1.
         25    2    1    2    0    0  0.60743797637E+02 -0.30242913777E+01  0.52589217409E+02  0.14869997248E+03  0.12508837171E+03 0.  0.
          5    1    3    3  502    0  0.46734600345E+02 -0.59641034326E+02  0.10400030665E+02  0.76595096989E+02  0.41800000000E+01 0. -1.
         -5    1    3    3    0  502  0.14009197292E+02  0.56616742948E+02  0.42189186744E+02  0.72104875487E+02  0.41800000000E+01 0. -1.
        -11    1    1    2    0    0 -0.29110201049E+02  0.15838793923E+02 -0.66339442053E+02  0.74156542327E+02  0.00000000000E+00 0.  1.
         11    1    1    2    0    0 -0.31633596589E+02 -0.12814502545E+02  0.25641923670E+02  0.42689625884E+02  0.00000000000E+00 0. -1.
</event>
<event>
 7    1  0.2420569E-009  0.1134613E+03  0.7561462E-02  0.1254291E+00
          1   -1    0    0  501    0  0.00000000000E+00  0.00000000000E+00  0.42024248507E+03  0.42024248507E+03  0.00000000000E+00 0. -1.
         -1   -1    0    0    0  501 -0.00000000000E+00 -0.00000000000E+00 -0.46807479896E+02  0.46807479896E+02  0.00000000000E+00 0.  1.
         25    2    1    2    0    0  0.67826971336E+02 -0.52893987032E+02  0.25036071643E+03  0.29278946155E+03  0.12508760355E+03 0.  0.
          5    1    3    3  502    0  0.73188341134E+01 -0.41200370101E+02  0.21996064349E+03  0.22394462020E+03  0.41800000000E+01 0. -1.
         -5    1    3    3    0  502  0.60508137222E+02 -0.11693616931E+02  0.30400072933E+02  0.68844841356E+02  0.41800000000E+01 0. -1.
        -11    1    1    2    0    0  0.21570040074E+02  0.13182126011E+02  0.20793110579E+02  0.32732071773E+02  0.00000000000E+00 0. -1.
         11    1    1    2    0    0 -0.89397011410E+02  0.39711861022E+02  0.10228117817E+03  0.14152843164E+03  0.00000000000E+00 0.  1.
</event>
<event>
 7    1  0.2420569E-009  0.1852950E+03  0.7561462E-02  0.1162775E+00
          4   -1    0    0  501    0  0.00000000000E+00  0.00000000000E+00  0.11588456899E+03  0.11588456899E+03  0.00000000000E+00 0. -1.
         -4   -1    0    0    0  501 -0.00000000000E+00 -0.00000000000E+00 -0.37931206761E+03  0.37931206761E+03  0.00000000000E+00 0.  1.
         25    2    1    2    0    0 -0.89010953249E+02 -0.13555624315E+03 -0.21782290739E+03  0.29898643361E+03  0.12509046185E+03 0.  0.
          5    1    3    3  502    0  0.12138155637E+02  0.16929072273E+02 -0.29691976527E+02  0.36510466724E+02  0.41800000000E+01 0.  1.
         -5    1    3    3    0  502 -0.10114910889E+03 -0.15248531542E+03 -0.18813093086E+03  0.26247596689E+03  0.41800000000E+01 0.  1.
        -11    1    1    2    0    0  0.21513033094E+02  0.65880200642E+02 -0.67519388339E+02  0.96756804573E+02  0.00000000000E+00 0.  1.
         11    1    1    2    0    0  0.67497920155E+02  0.69676042505E+02  0.21914797102E+02  0.99453398416E+02  0.00000000000E+00 0. -1.
</event>
<event>
 7    1  0.2420569E-009  0.7616577E+02  0.7561462E-02  0.1340299E+00
         -2   -1    0    0    0  501 -0.00000000000E+00  0.00000000000E+00  0.30639524423E+02  0.30639524423E+02  0.00000000000E+00 0.  1.
          2   -1    0    0  501    0  0.00000000000E+00 -0.00000000000E+00 -0.51164903556E+03  0.51164903556E+03  0.00000000000E+00 0. -1.
         25    2    1    2    0    0 -0.54022462169E+02  0.15327920148E+02 -0.33374232632E+03  0.36081147744E+03  0.12509040857E+03 0.  0.
          5    1    3    3  502    0 -0.54484100391E+02 -0.56227802476E+01 -0.44268499563E+02  0.70550019892E+02  0.41800000000E+01 0. -1.
         -5    1    3    3    0  502  0.46163822209E+00  0.20950700395E+02 -0.28947382676E+03  0.29026145755E+03  0.41800000000E+01 0. -1.
        -11    1    1    2    0    0  0.38992565634E+02  0.15320874761E+02 -0.14408175917E+02  0.44302877011E+02  0.00000000000E+00 0.  1.
         11    1    1    2    0    0  0.15029896534E+02 -0.30648794909E+02 -0.13285900890E+03  0.13717420553E+03  0.00000000000E+00 0. -1.
</event>
<event>
 7    1  0.2420569E-009  0.1066495E+03  0.7561462E-02  0.1266903E+00
          2   -1    0    0  501    0  0.00000000000E+00  0.00000000000E+00  0.76314447824E+02  0.76314447824E+02  0.00000000000E+00 0. -1.
         -2   -1    0    0    0  501 -0.00000000000E+00 -0.00000000000E+00 -0.22723438699E+03  0.22723438699E+03  0.00000000000E+00 0.  1.
         25    2    1    2    0    0  0.39652034439E+01  0.67852981810E+02 -0.11939323522E+03  0.18579597957E+03  0.12508257843E+03 0.  0.
          5    1    3    3  502    0  0.40548087002E+02  0.13608005888E+02 -0.11182611781E+03  0.11979932474E+03  0.41800000000E+01 0. -1.
         -5    1    3    3    0  502 -0.36582883558E+02  0.54244975922E+02 -0.75671174144E+01  0.65996654826E+02  0.41800000000E+01 0. -1.
        -11    1    1    2    0    0 -0.44703000881E+01 -0.86246745703E+02 -0.63867532450E+01  0.86598356475E+02  0.00000000000E+00 0. -1.
         11    1    1    2    0    0  0.50509664412E+00  0.18393763893E+02 -0.25139950699E+02  0.31154498774E+02  0.00000000000E+00 0.  1.
</event>
<event>
 7    1  0.2420569E-009  0.1301994E+03  0.7561462E-02  0.1227160E+00
          1   -1    0    0  501    0  0.00000000000E+00  0.00000000000E+00  0.50648116643E+02  0.50648116643E+02  0.00000000000E+00 0. -1.
         -1   -1    0    0    0  501 -0.00000000000E+00 -0.00000000000E+00 -0.35333194937E+03  0.35333194937E+03  0.00000000000E+00 0.  1.
         25    2    1    2    0    0  0.72258208843E+00  0.75616326904E+02 -0.20992615733E+03  0.25580702482E+03  0.12509952596E+03 0.  0.
          5    1    3    3  502    0 -0.10821199630E+02 -0.33902260211E+02 -0.46756669463E+02  0.58907725708E+02  0.41800000000E+01 0.  1.
         -5    1    3    3    0  502  0.11543781718E+02  0.10951858711E+03 -0.16316948787E+03  0.19689929911E+03  0.41800000000E+01 0.  1.
        -11    1    1    2    0    0  0.42509980080E+02 -0.39500152148E+02 -0.36468316798E+02  0.68536840868E+02  0.00000000000E+00 0.  1.
         11    1    1    2    0    0 -0.43232562168E+02 -0.36116174755E+02 -0.56289358599E+02  0.79636200324E+02  0.00000000000E+00 0. -1.
</event>
<event>
 7    1  0.2420569E-009  0.1167366E+03  0.7561462E-02  0.1248580E+00
          2   -1    0    0  501    0  0.00000000000E+00  0.00000000000E+00  0.49012966582E+03  0.49012966582E+03  0.00000000000E+00 0. -1.
         -2   -1    0    0    0  501 -0.00000000000E+00 -0.00000000000E+00 -0.31184227292E+02  0.31184227292E+02  0.00000000000E+00 0.  1.
         25    2    1    2    0    0  0.37350558236E+02 -0.46891914674E+02  0.24384512287E+03  0.28053718110E+03  0.12508697043E+03 0.  0.
          5    1    3    3  502    0  0.68346117702E+02 -0.60379724993E+02  0.11267681488E+03  0.14501875743E+03  0.41800000000E+01 0. -1.
         -5    1    3    3    0  502 -0.30995559466E+02  0.13487810319E+02  0.13116830799E+03  0.13551842367E+03  0.41800000000E+01 0. -1.
        -11    1    1    2    0    0 -0.59895897322E+02  0.44494217240E+01  0.12381040071E+03  0.13760934268E+03  0.00000000000E+00 0.  1.
         11    1    1    2    0    0  0.22545339086E+02  0.42442492950E+02  0.91289914948E+02  0.10316736933E+03  0.00000000000E+00 0. -1.
</event>
<event>
 7    1  0.2420569E-009  0.1198828E+03  0.7561462E-02  0.1243290E+00
         -1   -1    0    0    0  501 -0.00000000000E+00  0.00000000000E+00  0.38228798950E+03  0.38228798950E+03  0.00000000000E+00 0.  1.
          1   -1    0    0  501    0  0.00000000000E+00 -0.00000000000E+00 -0.50963266823E+02  0.50963266823E+02  0.00000000000E+00 0. -1.
         25    2    1    2    0    0  0.50188569138E+02  0.59876681036E+02  0.24612282082E+03  0.28692922730E+03  0.12509128326E+03 0.  0.
          5    1    3    3  502    0 -0.28600523902E+02  0.53026530045E+02  0.62276977479E+02  0.86750776251E+02  0.41800000000E+01 0. -1.
         -5    1    3    3    0  502  0.78789093040E+02  0.68501509906E+01  0.18384584334E+03  0.20017845105E+03  0.41800000000E+01 0. -1.
        -11    1    1    2    0    0 -0.18352425269E+01 -0.50977854562E+02  0.82607635345E+02  0.97088264936E+02  0.00000000000E+00 0.  1.
         11    1    1    2    0    0 -0.48353326611E+02 -0.88988264740E+01  0.25942665054E+01  0.49233764082E+02  0.00000000000E+00 0. -1.
</event>
<event>
 7    1  0.2420569E-009  0.8205047E+02  0.7561462E-02  0.1323331E+00
         -2   -1    0    0    0  501 -0.00000000000E+00  0.00000000000E+00  0.80130195438E+02  0.80130195438E+02  0.00000000000E+00 0. -1.
          2   -1    0    0  501    0  0.00000000000E+00 -0.00000000000E+00 -0.17205437101E+03  0.17205437101E+03  0.00000000000E+00 0.  1.
         25    2    1    2    0    0 -0.38630368590E+02  0.10314793824E+02 -0.30037340879E+02  0.13471812469E+03  0.12509208977E+03 0.  0.
          5    1    3    3  502    0  0.26219605468E+02  0.45582461166E+01  0.33948255853E+02  0.43338225552E+02  0.41800000000E+01 0. -1.
         -5    1    3    3    0  502 -0.64849974058E+02  0.57565477071E+01 -0.63985596732E+02  0.91379899135E+02  0.41800000000E+01 0. -1.
        -11    1    1    2    0    0  0.52851973053E+02  0.23149669450E+01 -0.76827449891E+02  0.93279939881E+02  0.00000000000E+00 0.  1.
         11    1    1    2    0    0 -0.14221604463E+02 -0.12629760769E+02  0.14940615199E+02  0.24186501878E+02  0.00000000000E+00 0. -1.
</event>
<event>
 7    1  0.2420569E-009  0.1043439E+03  0.7561462E-02  0.1271418E+00
          1   -1    0    0  501    0  0.00000000000E+00  0.00000000000E+00  0.35153661170E+02  0.35153661170E+02  0.00000000000E+00 0. -1.
         -1   -1    0    0    0  501 -0.00000000000E+00 -0.00000000000E+00 -0.38278201149E+03  0.38278201149E+03  0.00000000000E+00 0.  1.
         25    2    1    2    0    0  0.27116211733E+02  0.10844460091E+02 -0.25293844980E+03  0.28368631640E+03  0.12508867043E+03 0.  0.
          5    1    3    3  502    0 -0.35771614806E+02  0.38773664137E+02 -0.15602500910E+03  0.16475521637E+03  0.41800000000E+01 0.  1.
         -5    1    3    3    0  502  0.62887826539E+02 -0.27929204047E+02 -0.96913440699E+02  0.11893110003E+03  0.41800000000E+01 0.  1.
        -11    1    1    2    0    0 -0.11381828952E+02 -0.46492053172E+02 -0.24031543714E+02  0.53559052752E+02  0.00000000000E+00 0. -1.
         11    1    1    2    0    0 -0.15734382781E+02  0.35647593081E+02 -0.70658356807E+02  0.80690303511E+02  0.00000000000E+00 0.  1.
</event>
<event>
 7    1  0.2420569E-009  0.7108512E+02  0.7561462E-02  0.1356441E+00
          2   -1    0    0  501    0  0.00000000000E+00  0.00000000000E+00  0.98683056827E+03  0.98683056827E+03  0.00000000000E+00 0. -1.
         -2   -1    0    0    0  501 -0.00000000000E+00 -0.00000000000E+00 -0.14935538933E+02  0.14935538933E+02  0.00000000000E+00 0.  1.
         25    2    1    2    0    0  0.30738943228E+02 -0.29074380137E+02  0.70301422124E+03  0.71530844146E+03  0.12508784493E+03 0.  0.
          5    1    3    3  502    0  0.19414678589E+02 -0.15218049368E+02  0.69467933413E+03  0.69512974935E+03  0.41800000000E+01 0. -1.
         -5    1    3    3    0  502  0.11324264639E+02 -0.13856330769E+02  0.83348871118E+01  0.20178692107E+02  0.41800000000E+01 0. -1.
        -11    1    1    2    0    0 -0.59354507182E+02  0.35884374030E+02  0.19171324736E+03  0.20387401756E+03  0.00000000000E+00 0. -1.
         11    1    1    2    0    0  0.28615563954E+02 -0.68099938935E+01  0.77167560737E+02  0.82583648184E+02  0.00000000000E+00 0.  1.
</event>
<event>
 7    1  0.3993446E-009  0.8145966E+02  0.7561462E-02  0.1324959E+00
         -2   -1    0    0    0  501 -0.00000000000E+00  0.00000000000E+00  0.25957278023E+02  0.25957278023E+02  0.00000000000E+00 0.  1.
          2   -1    0    0  501    0  0.00000000000E+00 -0.00000000000E+00 -0.64695876006E+03  0.64695876006E+03  0.00000000000E+00 0. -1.
         25    2    1    2    0    0 -0.70292548914E+02 -0.94921675555E+01 -0.35829295625E+03  0.38607172951E+03  0.12508554731E+03 0.  0.
          5    1    3    3  502    0 -0.60771632272E+02 -0.13177264341E+02 -0.36685235673E+03  0.37210879541E+03  0.41800000000E+01 0. -1.
         -5    1    3    3    0  502 -0.95209166417E+01  0.36850967856E+01  0.85594004772E+01  0.13962934095E+02  0.41800000000E+01 0. -1.
        -11    1    1    2    0    0  0.33550638593E+02 -0.22867860475E+02 -0.21386919910E+03  0.21768927102E+03  0.00000000000E+00 0. -1.
         11    1    1    2    0    0  0.36741910321E+02  0.32360028030E+02 -0.48839326674E+02  0.69155037547E+02  0.00000000000E+00 0.  1.
</event>
<event>
 7    1  0.2420569E-009  0.1138292E+03  0.7561462E-02  0.1253639E+00
         -3   -1    0    0    0  501 -0.00000000000E+00  0.00000000000E+00  0.26272972866E+03  0.26272972866E+03  0.00000000000E+00 0.  1.
          3   -1    0    0  501    0  0.00000000000E+00 -0.00000000000E+00 -0.56185197909E+02  0.56185197909E+02  0.00000000000E+00 0. -1.
         25    2    1    2    0    0 -0.84211303879E+01 -0.41528378838E+02  0.15959414243E+03  0.20715315417E+03  0.12508643931E+03 0.  0.
          5    1    3    3  502    0  0.39374876397E+02 -0.66634629567E+02  0.10186508844E+03  0.12800204448E+03  0.41800000000E+01 0.  1.
         -5    1    3    3    0  502 -0.47796006785E+02  0.25106250729E+02  0.57729053983E+02  0.79151109683E+02  0.41800000000E+01 0.  1.
        -11    1    1    2    0    0 -0.36014571786E+02  0.12712301967E+01  0.35756568145E+02  0.50766106534E+02  0.00000000000E+00 0.  1.
         11    1    1    2    0    0  0.44435702174E+02  0.40257148641E+02  0.11193820182E+02  0.60995665868E+02  0.00000000000E+00 0. -1.
</event>
<event>
 7    1  0.2971351E-009  0.1231868E+03  0.7561462E-02  0.1237931E+00
          2   -1    0    0  501    0  0.00000000000E+00  0.00000000000E+00  0.15911498487E+03  0.15911498487E+03  0.00000000000E+00 0.  1.
         -2   -1    0    0    0  501 -0.00000000000E+00 -0.00000000000E+00 -0.16905612239E+03  0.16905612239E+03  0.00000000000E+00 0. -1.
         25    2    1    2    0    0  0.10657179968E+03  0.54230337402E+01  0.55097508982E+02  0.17340713609E+03  0.12508933436E+03 0.  0.
          5    1    3    3  502    0  0.39527024214E+02 -0.38443229000E+02 -0.24419172421E+02  0.60448621828E+02  0.41800000000E+01 0.  1.
         -5    1    3    3    0  502  0.67044775466E+02  0.43866262740E+02  0.79516681403E+02  0.11295851427E+03  0.41800000000E+01 0.  1.
        -11    1    1    2    0    0 -0.57733084283E+02  0.12049957478E+02  0.13632194255E+02  0.60532199830E+02  0.00000000000E+00 0.  1.
         11    1    1    2    0    0 -0.48838715397E+02 -0.17472991219E+02 -0.78670840758E+02  0.94231771337E+02  0.00000000000E+00 0. -1.
</event>
<event>
 7    1  0.2420569E-009  0.8011230E+02  0.7561462E-02  0.1328733E+00
         -1   -1    0    0    0  501 -0.00000000000E+00  0.00000000000E+00  0.40575269988E+02  0.40575269988E+02  0.00000000000E+00 0.  1.
          1   -1    0    0  501    0  0.00000000000E+00 -0.00000000000E+00 -0.40058636060E+03  0.40058636060E+03  0.00000000000E+00 0. -1.
         25    2    1    2    0    0  0.65770472341E+02 -0.30281255846E+01 -0.22633962435E+03  0.26685570732E+03  0.12508964145E+03 0.  0.
          5    1    3    3  502    0  0.60514076471E+02 -0.21003214270E+02 -0.23656018162E+03  0.24511483103E+03  0.41800000000E+01 0.  1.
         -5    1    3    3    0  502  0.52563958703E+01  0.17975088685E+02  0.10220557269E+02  0.21740876286E+02  0.41800000000E+01 0.  1.
        -11    1    1    2    0    0 -0.10228436907E+02  0.16755740014E+02  0.82439199574E+01  0.21291734576E+02  0.00000000000E+00 0.  1.
         11    1    1    2    0    0 -0.55542035434E+02 -0.13727614430E+02 -0.14191538622E+03  0.15301418870E+03  0.00000000000E+00 0. -1.
</event>
<event>
 7    1  0.2420569E-009  0.1193789E+03  0.7561462E-02  0.1244125E+00
          2   -1    0    0  501    0  0.00000000000E+00  0.00000000000E+00  0.66959404845E+03  0.66959404845E+03  0.00000000000E+00 0. -1.
         -2   -1    0    0    0  501 -0.00000000000E+00 -0.00000000000E+00 -0.24063981165E+02  0.24063981165E+02  0.00000000000E+00 0.  1.
         25    2    1    2    0    0  0.40287407638E+02  0.51799896544E+02  0.35258609769E+03  0.37982711661E+03  0.12508148435E+03 0.  0.
          5    1    3    3  502    0  0.44873376777E+02  0.91005218169E+02  0.25477277741E+03  0.27426667714E+03  0.41800000000E+01 0. -1.
         -5    1    3    3    0  502 -0.45859691392E+01 -0.39205321625E+02  0.97813320280E+02  0.10556043947E+03  0.41800000000E+01 0. -1.
        -11    1    1    2    0    0 -0.39659013420E+02  0.56487670879E+01  0.20434739909E+03  0.20823689737E+03  0.00000000000E+00 0.  1.
         11    1    1    2    0    0 -0.62839421782E+00 -0.57448663632E+02  0.88596570509E+02  0.10559401564E+03  0.00000000000E+00 0. -1.
</event>
<event>
 7    1  0.2420569E-009  0.9614760E+02  0.7561462E-02  0.1288612E+00
         -1   -1    0    0    0  501 -0.00000000000E+00  0.00000000000E+00  0.39891226020E+02  0.39891226020E+02  0.00000000000E+00 0.  1.
          1   -1    0    0  501    0  0.00000000000E+00 -0.00000000000E+00 -0.41443833517E+03  0.41443833517E+03  0.00000000000E+00 0. -1.
         25    2    1    2    0    0  0.20301116529E+02 -0.22181029822E+02 -0.32049472280E+03  0.34535237927E+03  0.12508902873E+03 0.  0.
          5    1    3    3  502    0  0.59397401251E+02 -0.48217547724E-01 -0.27464150186E+03  0.28102220650E+03  0.41800000000E+01 0.  1.
         -5    1    3    3    0  502 -0.39096284721E+02 -0.22132812275E+02 -0.45853220936E+02  0.64330172768E+02  0.41800000000E+01 0.  1.
        -11    1    1    2    0    0 -0.39101327175E+02 -0.18168375560E+02 -0.47217277550E+02  0.63941183571E+02  0.00000000000E+00 0. -1.
         11    1    1    2    0    0  0.18800210645E+02  0.40349405382E+02 -0.68351087996E+01  0.45035998349E+02  0.00000000000E+00 0.  1.
</event>
<event>
 7    1  0.2420569E-009  0.9789918E+02  0.7561462E-02  0.1284777E+00
         -2   -1    0    0    0  501 -0.00000000000E+00  0.00000000000E+00  0.15432928752E+03  0.15432928752E+03  0.00000000000E+00 0.  1.
          2   -1    0    0  501    0  0.00000000000E+00 -0.00000000000E+00 -0.18256549754E+03  0.18256549754E+03  0.00000000000E+00 0. -1.
         25    2    1    2    0    0 -0.29255568821E+02 -0.19867954093E+02 -0.13796460308E+03  0.18956013267E+03  0.12509271877E+03 0.  0.
          5    1    3    3  502    0 -0.53662511665E+02 -0.61107364430E+02 -0.78903121066E+02  0.11338849174E+03  0.41800000000E+01 0.  1.
         -5    1    3    3    0  502  0.24406942844E+02  0.41239410337E+02 -0.59061482015E+02  0.76171640928E+02  0.41800000000E+01 0.  1.
        -11    1    1    2    0    0 -0.16143971516E+02  0.12166540639E+02 -0.73627806554E+01  0.21514252634E+02  0.00000000000E+00 0. -1.
         11    1    1    2    0    0  0.45399540337E+02  0.77014134546E+01  0.11709117372E+03  0.12582039976E+03  0.00000000000E+00 0.  1.
</event>
<event>
 7    1  0.2420569E-009  0.1214385E+03  0.7561462E-02  0.1240743E+00
         -1   -1    0    0    0  501 -0.00000000000E+00  0.00000000000E+00  0.64519112531E+02  0.64519112531E+02  0.00000000000E+00 0.  1.
          1   -1    0    0  501    0  0.00000000000E+00 -0.00000000000E+00 -0.28767400989E+03  0.28767400989E+03  0.00000000000E+00 0. -1.
         25    2    1    2    0    0 -0.81347262478E+02  0.56944867177E+01 -0.10459964529E+03  0.18231164412E+03  0.12508655203E+03 0.  0.
          5    1    3    3  502    0  0.27582303802E+02 -0.28665836488E+01 -0.56046547136E+02  0.62671274367E+02  0.41800000000E+01 0. -1.
         -5    1    3    3    0  502 -0.10892956628E+03  0.85610703665E+01 -0.48553098151E+02  0.11964036976E+03  0.41800000000E+01 0. -1.
        -11    1    1    2    0    0  0.44926675166E+02 -0.36422464696E+02 -0.10576126703E+03  0.12054230660E+03  0.00000000000E+00 0. -1.
         11    1    1    2    0    0  0.36420587312E+02  0.30727977979E+02 -0.12793985045E+02  0.49339171701E+02  0.00000000000E+00 0.  1.
</event>
<event>
 7    1  0.2788350E-009  0.1124979E+03  0.7561462E-02  0.1256013E+00
          2   -1    0    0  501    0  0.00000000000E+00  0.00000000000E+00  0.82135053169E+03  0.82135053169E+03  0.00000000000E+00 0. -1.
         -2   -1    0    0    0  501 -0.00000000000E+00 -0.00000000000E+00 -0.18687489549E+02  0.18687489549E+02  0.00000000000E+00 0.  1.
         25    2    1    2    0    0 -0.51755368030E+02  0.28521199820E+02  0.44182798687E+03  0.46298036075E+03  0.12508703969E+03 0.  0.
          5    1    3    3  502    0  0.32443096856E+02  0.78836204579E+01  0.41875077325E+02  0.53718716535E+02  0.41800000000E+01 0.  1.
         -5    1    3    3    0  502 -0.84198464886E+02  0.20637579362E+02  0.39995290955E+03  0.40926164422E+03  0.41800000000E+01 0.  1.
        -11    1    1    2    0    0  0.77852410834E+01  0.30205675593E+02  0.62723757804E+02  0.70051856577E+02  0.00000000000E+00 0.  1.
         11    1    1    2    0    0  0.43970126946E+02 -0.58726875412E+02  0.29811129746E+03  0.30700580391E+03  0.00000000000E+00 0. -1.
</event>
<event>
 7    1  0.2420569E-009  0.1967928E+03  0.7561462E-02  0.1152473E+00
         -4   -1    0    0    0  501 -0.00000000000E+00  0.00000000000E+00  0.19204958274E+03  0.19204958274E+03  0.00000000000E+00 0.  1.
          4   -1    0    0  501    0  0.00000000000E+00 -0.00000000000E+00 -0.24759669260E+03  0.24759669260E+03  0.00000000000E+00 0. -1.
         25    2    1    2    0    0 -0.12211790929E+03 -0.11796199719E+03  0.53036604498E+02  0.21746280649E+03  0.12509745897E+03 0.  0.
          5    1    3    3  502    0 -0.67697665001E+02 -0.13140278790E+03  0.62355016712E+02  0.16048453827E+03  0.41800000000E+01 0. -1.
         -5    1    3    3    0  502 -0.54420244288E+02  0.13440790713E+02 -0.93184122143E+01  0.56978268222E+02  0.41800000000E+01 0. -1.
        -11    1    1    2    0    0  0.62339784170E+02  0.60632226684E+01 -0.14639916555E+02  0.64322146390E+02  0.00000000000E+00 0.  1.
         11    1    1    2    0    0  0.59778125119E+02  0.11189877452E+03 -0.93943797809E+02  0.15786132246E+03  0.00000000000E+00 0. -1.
</event>
<event>
 7    1  0.2420569E-009  0.9362990E+02  0.7561462E-02  0.1294292E+00
         -1   -1    0    0    0  501 -0.00000000000E+00  0.00000000000E+00  0.69166392611E+03  0.69166392611E+03  0.00000000000E+00 0.  1.
          1   -1    0    0  501    0  0.00000000000E+00 -0.00000000000E+00 -0.22546095763E+02  0.22546095763E+02  0.00000000000E+00 0. -1.
         25    2    1    2    0    0 -0.30385502390E+02 -0.50776906436E+02  0.35006033486E+03  0.37641724294E+03  0.12508449047E+03 0.  0.
          5    1    3    3  502    0  0.66779899073E+01 -0.51887124272E+02  0.32981398077E+03  0.33396347633E+03  0.41800000000E+01 0.  1.
         -5    1    3    3    0  502 -0.37063492297E+02  0.11102178359E+01  0.20246354093E+02  0.42453766605E+02  0.41800000000E+01 0.  1.
        -11    1    1    2    0    0 -0.25020808600E+02  0.28019608195E+02  0.21032847247E+03  0.21365674723E+03  0.00000000000E+00 0.  1.
         11    1    1    2    0    0  0.55406310991E+02  0.22757298241E+02  0.10872902302E+03  0.12413603171E+03  0.00000000000E+00 0. -1.
</event>
<event>
 7    1  0.2420569E-009  0.1214804E+03  0.7561462E-02  0.1240675E+00
         -2   -1    0    0    0  501 -0.00000000000E+00  0.00000000000E+00  0.47301497357E+02  0.47301497357E+02  0.00000000000E+00 0.  1.
          2   -1    0    0  501    0  0.00000000000E+00 -0.00000000000E+00 -0.48975910154E+03  0.48975910154E+03  0.00000000000E+00 0. -1.
         25    2    1    2    0    0 -0.84207753859E+02  0.61340031851E+02 -0.20083971037E+03  0.25852983115E+03  0.12509012358E+03 0.  0.
          5    1    3    3  502    0 -0.19429297404E+02  0.28007425298E+02  0.97142202338E+01  0.35689661587E+02  0.41800000000E+01 0. -1.
         -5    1    3    3    0  502 -0.64778456455E+02  0.33332606553E+02 -0.21055393060E+03  0.22284016957E+03  0.41800000000E+01 0. -1.
        -11    1    1    2    0    0  0.71301211427E+02 -0.83624702396E+02 -0.21520991447E+03  0.24164490661E+03  0.00000000000E+00 0.  1.
         11    1    1    2    0    0  0.12906542432E+02  0.22284670545E+02 -0.26407979340E+02  0.36885861135E+02  0.00000000000E+00 0. -1.
</event>
<event>
 7    1  0.2742905E-009  0.1452722E+03  0.7561462E-02  0.1206406E+00
         -2   -1    0    0    0  501 -0.00000000000E+00  0.00000000000E+00  0.28972648466E+02  0.28972648466E+02  0.00000000000E+00 0.  1.
          2   -1    0    0  501    0  0.00000000000E+00 -0.00000000000E+00 -0.80887430931E+03  0.80887430931E+03  0.00000000000E+00 0. -1.
         25    2    1    2    0    0 -0.73675997876E+02  0.78814374185E+02 -0.41656588213E+03  0.44812466346E+03  0.12509485043E+03 0.  0.
          5    1    3    3  502    0 -0.59612871304E+02 -0.11918261847E+02 -0.88663871986E+02  0.10758482228E+03  0.41800000000E+01 0.  1.
         -5    1    3    3    0  502 -0.14063126573E+02  0.90732636032E+02 -0.32790201014E+03  0.34053984117E+03  0.41800000000E+01 0.  1.
        -11    1    1    2    0    0  0.23308170560E+02 -0.83896020708E+02 -0.18727107979E+03  0.20652426112E+03  0.00000000000E+00 0.  1.
         11    1    1    2    0    0  0.50367827316E+02  0.50816465229E+01 -0.17606469893E+03  0.18319803320E+03  0.00000000000E+00 0. -1.
</event>
<event>
 7    1  0.2420569E-009  0.1275439E+03  0.7561462E-02  0.1231146E+00
          3   -1    0    0  501    0  0.00000000000E+00  0.00000000000E+00  0.32427806575E+03  0.32427806575E+03  0.00000000000E+00 0. -1.
         -3   -1    0    0    0  501 -0.00000000000E+00 -0.00000000000E+00 -0.67404821307E+02  0.67404821307E+02  0.00000000000E+00 0.  1.
         25    2    1    2    0    0  0.90558316095E+02 -0.48479959476E+00  0.19032609407E+03  0.24509693224E+03  0.12508972966E+03 0.  0.
          5    1    3    3  502    0  0.91867904691E+01 -0.54410362615E+02  0.85026901837E+02  0.10144915532E+03  0.41800000000E+01 0. -1.
         -5    1    3    3    0  502  0.81371525626E+02  0.53925563021E+02  0.10529919223E+03  0.14364777692E+03  0.41800000000E+01 0. -1.
        -11    1    1    2    0    0  0.73413234334E+00 -0.10109941268E+02  0.52672959714E+02  0.53639449548E+02  0.00000000000E+00 0. -1.
         11    1    1    2    0    0 -0.91292448439E+02  0.10594740863E+02  0.13874190665E+02  0.92946505273E+02  0.00000000000E+00 0.  1.
</event>
<event>
 7    1  0.2420569E-009  0.1073146E+03  0.7561462E-02  0.1265625E+00
         -2   -1    0    0    0  501 -0.00000000000E+00  0.00000000000E+00  0.26969661512E+03  0.26969661512E+03  0.00000000000E+00 0. -1.
          2   -1    0    0  501    0  0.00000000000E+00 -0.00000000000E+00 -0.69790415401E+02  0.69790415401E+02  0.00000000000E+00 0.  1.
         25    2    1    2    0    0 -0.26576212619E+02  0.54343867382E+02  0.37319673657E+02  0.14387482045E+03  0.12509058685E+03 0.  0.
          5    1    3    3  502    0 -0.69023920266E+02  0.52216241339E+02  0.49072302296E+02  0.99581126129E+02  0.41800000000E+01 0.  1.
         -5    1    3    3    0  502  0.42447707647E+02  0.21276260437E+01 -0.11752628638E+02  0.44293694325E+02  0.41800000000E+01 0.  1.
        -11    1    1    2    0    0 -0.12243560595E+02 -0.43175992193E+02  0.23259637504E+02  0.50547817111E+02  0.00000000000E+00 0.  1.
         11    1    1    2    0    0  0.38819773214E+02 -0.11167875189E+02  0.13932688856E+03  0.14506439296E+03  0.00000000000E+00 0. -1.
</event>
<event>
 7    1  0.2420569E-009  0.9615839E+02  0.7561462E-02  0.1288588E+00
         -1   -1    0    0    0  501 -0.00000000000E+00  0.00000000000E+00  0.98043402630E+02  0.98043402630E+02  0.00000000000E+00 0.  1.
          1   -1    0    0  501    0  0.00000000000E+00 -0.00000000000E+00 -0.15288443433E+03  0.15288443433E+03  0.00000000000E+00 0. -1.
         25    2    1    2    0    0  0.19774880207E+02  0.55426966791E+02 -0.21259207043E+02  0.13986770539E+03  0.12509127305E+03 0.  0.
          5    1    3    3  502    0 -0.33470272424E+02 -0.16546374120E+02  0.18430768929E+02  0.41847428547E+02  0.41800000000E+01 0.  1.
         -5    1    3    3    0  502  0.53245152631E+02  0.71973340911E+02 -0.39689975972E+02  0.98020276847E+02  0.41800000000E+01 0.  1.
        -11    1    1    2    0    0 -0.24830179724E+02 -0.28831945766E+02  0.25681873630E+02  0.45906182099E+02  0.00000000000E+00 0.  1.
         11    1    1    2    0    0  0.50552995165E+01 -0.26595021025E+02 -0.59263698283E+02  0.65153949463E+02  0.00000000000E+00 0. -1.
</event>
<event>
 7    1  0.2420569E-009  0.1214652E+03  0.7561462E-02  0.1240699E+00
         -2   -1    0    0    0  501 -0.00000000000E+00  0.00000000000E+00  0.23332540257E+02  0.23332540257E+02  0.00000000000E+00 0. -1.
          2   -1    0    0  501    0  0.00000000000E+00 -0.00000000000E+00 -0.86111185894E+03  0.86111185894E+03  0.00000000000E+00 0.  1.
         25    2    1    2    0    0 -0.77565916435E+02 -0.20696883351E+00 -0.60972467786E+03  0.62723679527E+03  0.12508117493E+03 0.  0.
          5    1    3    3  502    0  0.24765072532E+02 -0.12124716641E+01 -0.32998996305E+02  0.41487167440E+02  0.41800000000E+01 0.  1.
         -5    1    3    3    0  502 -0.10233098897E+03  0.10055028306E+01 -0.57672568156E+03  0.58574962783E+03  0.41800000000E+01 0.  1.
        -11    1    1    2    0    0  0.52636549848E+02 -0.41328110041E+02 -0.16212887294E+03  0.17539780643E+03  0.00000000000E+00 0.  1.
         11    1    1    2    0    0  0.24929366587E+02  0.41535078875E+02 -0.65925767880E+02  0.81809797495E+02  0.00000000000E+00 0. -1.
</event>
<event>
 7    1  0.2420569E-009  0.1599701E+03  0.7561462E-02  0.1188730E+00
         -2   -1    0    0    0  501 -0.00000000000E+00  0.00000000000E+00  0.50648413044E+02  0.50648413044E+02  0.00000000000E+00 0. -1.
          2   -1    0    0  501    0  0.00000000000E+00 -0.00000000000E+00 -0.65261541933E+03  0.65261541933E+03  0.00000000000E+00 0.  1.
         25    2    1    2    0    0 -0.11919972522E+03  0.24457711050E+02 -0.46990003900E+03  0.50125879168E+03  0.12509026925E+03 0.  0.
          5    1    3    3  502    0  0.23326786074E+02 -0.21116633924E+01 -0.12262240690E+03  0.12490926765E+03  0.41800000000E+01 0.  1.
         -5    1    3    3    0  502 -0.14252651129E+03  0.26569374443E+02 -0.34727763211E+03  0.37634952403E+03  0.41800000000E+01 0.  1.
        -11    1    1    2    0    0  0.13409428965E+03 -0.20140742308E+02 -0.10789672013E+03  0.17328770941E+03  0.00000000000E+00 0. -1.
         11    1    1    2    0    0 -0.14894564433E+02 -0.43169687426E+01 -0.24170247157E+02  0.28717331290E+02  0.00000000000E+00 0.  1.
</event>
<event>
 7    1  0.2420569E-009  0.2746674E+03  0.7561462E-02  0.1098638E+00
          2   -1    0    0  501    0  0.00000000000E+00  0.00000000000E+00  0.75139714080E+03  0.75139714080E+03  0.00000000000E+00 0. -1.
         -2   -1    0    0    0  501 -0.00000000000E+00 -0.00000000000E+00 -0.11313453723E+03  0.11313453723E+03  0.00000000000E+00 0.  1.
         25    2    1    2    0    0  0.24315745943E+03  0.80257768115E+02  0.19745983159E+03  0.34670794420E+03  0.12509657891E+03 0.  0.
          5    1    3    3  502    0  0.25304584198E+03  0.61163852139E+02  0.16748968237E+03  0.30958598330E+03  0.41800000000E+01 0. -1.
         -5    1    3    3    0  502 -0.98883825481E+01  0.19093915976E+02  0.29970149218E+02  0.37121960897E+02  0.41800000000E+01 0. -1.
        -11    1    1    2    0    0 -0.78291858674E+02 -0.64513820964E+02  0.21564737684E+03  0.23831793757E+03  0.00000000000E+00 0.  1.
         11    1    1    2    0    0 -0.16486560076E+03 -0.15743947150E+02  0.22515539514E+03  0.27950579627E+03  0.00000000000E+00 0. -1.
</event>
<event>
 7    1  0.2420569E-009  0.1391030E+03  0.7561462E-02  0.1214541E+00
         -2   -1    0    0    0  501 -0.00000000000E+00  0.00000000000E+00  0.12939678064E+03  0.12939678064E+03  0.00000000000E+00 0.  1.
          2   -1    0    0  501    0  0.00000000000E+00 -0.00000000000E+00 -0.15796921469E+03  0.15796921469E+03  0.00000000000E+00 0. -1.
         25    2    1    2    0    0  0.86429935744E+02 -0.32810582515E+02 -0.23462154638E+02  0.15730474709E+03  0.12509053777E+03 0.  0.
          5    1    3    3  502    0  0.73697030329E+02  0.35523884303E+02 -0.30279451642E+02  0.87335652669E+02  0.41800000000E+01 0. -1.
         -5    1    3    3    0  502  0.12732905415E+02 -0.68334466818E+02  0.68172970043E+01  0.69969094421E+02  0.41800000000E+01 0. -1.
        -11    1    1    2    0    0  0.14624440470E+02  0.20017009959E+02 -0.12819978402E+02  0.27908901680E+02  0.00000000000E+00 0.  1.
         11    1    1    2    0    0 -0.10105437621E+03  0.12793572556E+02  0.77096989870E+01  0.10215234657E+03  0.00000000000E+00 0. -1.
</event>
<event>
 7    1  0.2420569E-009  0.1547318E+03  0.7561462E-02  0.1194776E+00
          3   -1    0    0  501    0  0.00000000000E+00  0.00000000000E+00  0.66178553934E+02  0.66178553934E+02  0.00000000000E+00 0. -1.
         -3   -1    0    0    0  501 -0.00000000000E+00 -0.00000000000E+00 -0.60228651645E+03  0.60228651645E+03  0.00000000000E+00 0.  1.
         25    2    1    2    0    0  0.56367350083E+02  0.11752403192E+03 -0.10421678631E+03  0.20856039375E+03  0.12508846093E+03 0.  0.
          5    1    3    3  502    0 -0.14586259314E+02  0.93478088216E+02 -0.92931515603E+02  0.13268251931E+03  0.41800000000E+01 0. -1.
         -5    1    3    3    0  502  0.70953609398E+02  0.24045943701E+02 -0.11285270706E+02  0.75877874442E+02  0.41800000000E+01 0. -1.
        -11    1    1    2    0    0 -0.37069000804E+02 -0.11430200955E+03 -0.42035240226E+03  0.43719012145E+03  0.00000000000E+00 0.  1.
         11    1    1    2    0    0 -0.19298349280E+02 -0.32220223678E+01 -0.11538773949E+02  0.22714555186E+02  0.00000000000E+00 0. -1.
</event>
<event>
 7    1  0.2623887E-009  0.9481134E+02  0.7561462E-02  0.1291602E+00
          2   -1    0    0  501    0  0.00000000000E+00  0.00000000000E+00  0.22207146973E+03  0.22207146973E+03  0.00000000000E+00 0. -1.
         -2   -1    0    0    0  501 -0.00000000000E+00 -0.00000000000E+00 -0.55305221644E+02  0.55305221644E+02  0.00000000000E+00 0.  1.
         25    2    1    2    0    0  0.10947855420E+02  0.68150002399E+01  0.11907259286E+03  0.17318461881E+03  0.12509328542E+03 0.  0.
          5    1    3    3  502    0  0.53921969389E+02 -0.14619763473E+02  0.14249214610E+02  0.57808552860E+02  0.41800000000E+01 0. -1.
         -5    1    3    3    0  502 -0.42974113969E+02  0.21434763713E+02  0.10482337825E+03  0.11537606595E+03  0.41800000000E+01 0. -1.
        -11    1    1    2    0    0  0.33817475548E+02 -0.19276456905E+02  0.19307491085E+01  0.38973468352E+02  0.00000000000E+00 0.  1.
         11    1    1    2    0    0 -0.44765330968E+02  0.12461456665E+02  0.45762906124E+02  0.65218604216E+02  0.00000000000E+00 0. -1.
</event>
<event>
 7    1  0.2420569E-009  0.1099955E+03  0.7561462E-02  0.1260578E+00
          1   -1    0    0  501    0  0.00000000000E+00  0.00000000000E+00  0.46354878013E+03  0.46354878013E+03  0.00000000000E+00 0. -1.
         -1   -1    0    0    0  501 -0.00000000000E+00 -0.00000000000E+00 -0.39193157789E+02  0.39193157789E+02  0.00000000000E+00 0.  1.
         25    2    1    2    0    0 -0.33564234743E+02 -0.65160378361E+02  0.21503669421E+03  0.25934586443E+03  0.12508822799E+03 0.  0.
          5    1    3    3  502    0 -0.46578693170E+02 -0.70332444042E+02  0.22587553623E+03  0.24115028014E+03  0.41800000000E+01 0. -1.
         -5    1    3    3    0  502  0.13014458428E+02  0.51720656806E+01 -0.10838842023E+02  0.18195584299E+02  0.41800000000E+01 0. -1.
        -11    1    1    2    0    0 -0.31626459709E+02  0.46451571530E+01  0.82646316563E+02  0.88612776055E+02  0.00000000000E+00 0.  1.
         11    1    1    2    0    0  0.65190694452E+02  0.60515221208E+02  0.12667261157E+03  0.15478329743E+03  0.00000000000E+00 0. -1.
</event>
<event>
 7    1  0.2420569E-009  0.1383020E+03  0.7561462E-02  0.1215632E+00
          2   -1    0    0  501    0  0.00000000000E+00  0.00000000000E+00  0.79439392016E+03  0.79439392016E+03  0.00000000000E+00 0. -1.
         -2   -1    0    0    0  501 -0.00000000000E+00 -0.00000000000E+00 -0.39623172635E+02  0.39623172635E+02  0.00000000000E+00 0.  1.
         25    2    1    2    0    0 -0.53434291318E+02 -0.10404850504E+03  0.58174198184E+03  0.60642490490E+03  0.12508443930E+03 0.  0.
          5    1    3    3  502    0 -0.19980482876E-01 -0.58199845671E+02  0.47450990366E+03  0.47808403394E+03  0.41800000000E+01 0. -1.
         -5    1    3    3    0  502 -0.53414310835E+02 -0.45848659373E+02  0.10723207818E+03  0.12834087096E+03  0.41800000000E+01 0. -1.
        -11    1    1    2    0    0  0.76630372396E+02  0.96747348946E+02  0.14117820706E+03  0.18751946472E+03  0.00000000000E+00 0.  1.
         11    1    1    2    0    0 -0.23196081078E+02  0.73011560978E+01  0.31850558629E+02  0.40072723175E+02  0.00000000000E+00 0. -1.
</event>
<event>
 7    1  0.2420569E-009  0.1536424E+03  0.7561462E-02  0.1196067E+00
          2   -1    0    0  501    0  0.00000000000E+00  0.00000000000E+00  0.43630015489E+03  0.43630015489E+03  0.00000000000E+00 0. -1.
         -2   -1    0    0    0  501 -0.00000000000E+00 -0.00000000000E+00 -0.12639648909E+03  0.12639648909E+03  0.00000000000E+00 0.  1.
         25    2    1    2    0    0  0.51860115509E+02 -0.13012436533E+03 -0.24055649121E+02  0.18933621560E+03  0.12509079202E+03 0.  0.
          5    1    3    3  502    0  0.45301229266E+02 -0.14324857472E+03  0.11406973034E+02  0.15073137353E+03  0.41800000000E+01 0. -1.
         -5    1    3    3    0  502  0.65588862430E+01  0.13124209392E+02 -0.35462622155E+02  0.38604842067E+02  0.41800000000E+01 0. -1.
        -11    1    1    2    0    0 -0.20485219131E+01  0.28306896381E+02  0.99140192412E+01  0.30062677896E+02  0.00000000000E+00 0.  1.
         11    1    1    2    0    0 -0.49811593596E+02  0.10181746895E+03  0.32404529568E+03  0.34329775049E+03  0.00000000000E+00 0. -1.
</event>
<event>
 7    1  0.2420569E-009  0.1508450E+03  0.7561462E-02  0.1199438E+00
          1   -1    0    0  501    0  0.00000000000E+00  0.00000000000E+00  0.60310120439E+03  0.60310120439E+03  0.00000000000E+00 0. -1.
         -1   -1    0    0    0  501 -0.00000000000E+00 -0.00000000000E+00 -0.47153155364E+02  0.47153155364E+02  0.00000000000E+00 0.  1.
         25    2    1    2    0    0  0.61760841267E+02 -0.90830530969E+02  0.16582373007E+03  0.23497532092E+03  0.12510517621E+03 0.  0.
          5    1    3    3  502    0 -0.15678566717E+02  0.23312987262E+02  0.25611844122E+02  0.38245938199E+02  0.41800000000E+01 0.  1.
         -5    1    3    3    0  502  0.77439407984E+02 -0.11414351823E+03  0.14021188595E+03  0.19672938272E+03  0.41800000000E+01 0.  1.
        -11    1    1    2    0    0 -0.77162075259E+01  0.79747654534E+02  0.29108880581E+03  0.30191376439E+03  0.00000000000E+00 0.  1.
         11    1    1    2    0    0 -0.54044633741E+02  0.11082876435E+02  0.99035513144E+02  0.11336527445E+03  0.00000000000E+00 0. -1.
</event>
<event>
 7    1  0.2420569E-009  0.1423728E+03  0.7561462E-02  0.1210171E+00
          1   -1    0    0  501    0  0.00000000000E+00  0.00000000000E+00  0.22937213100E+03  0.22937213100E+03  0.00000000000E+00 0. -1.
         -1   -1    0    0    0  501 -0.00000000000E+00 -0.00000000000E+00 -0.16876594735E+03  0.16876594735E+03  0.00000000000E+00 0.  1.
         25    2    1    2    0    0  0.14331528849E+02  0.12395681281E+03  0.13908938898E+03  0.22486287741E+03  0.12508705508E+03 0.  0.
          5    1    3    3  502    0  0.22217019362E+02  0.35377999228E+02  0.12852791979E+03  0.13521130627E+03  0.41800000000E+01 0.  1.
         -5    1    3    3    0  502 -0.78854905134E+01  0.88578813577E+02  0.10561469190E+02  0.89651571134E+02  0.41800000000E+01 0.  1.
        -11    1    1    2    0    0  0.37399383761E+02 -0.37362844106E+02 -0.35199645680E+02  0.63511503536E+02  0.00000000000E+00 0. -1.
         11    1    1    2    0    0 -0.51730912610E+02 -0.86593968699E+02 -0.43283559643E+02  0.10976369741E+03  0.00000000000E+00 0.  1.
</event>
<event>
 7    1  0.2420569E-009  0.1746530E+03  0.7561462E-02  0.1173081E+00
         -1   -1    0    0    0  501 -0.00000000000E+00  0.00000000000E+00  0.12698125709E+03  0.12698125709E+03  0.00000000000E+00 0.  1.
          1   -1    0    0  501    0  0.00000000000E+00 -0.00000000000E+00 -0.27029974905E+03  0.27029974905E+03  0.00000000000E+00 0. -1.
         25    2    1    2    0    0  0.32844670146E+02  0.14452611731E+03 -0.10327637163E+03  0.21972654513E+03  0.12508866757E+03 0.  0.
          5    1    3    3  502    0  0.28024349447E+02  0.15885197425E+03 -0.57434013887E+02  0.17127595347E+03  0.41800000000E+01 0.  1.
         -5    1    3    3    0  502  0.48203206986E+01 -0.14325856938E+02 -0.45842357743E+02  0.48450591659E+02  0.41800000000E+01 0.  1.
        -11    1    1    2    0    0  0.27494207084E+02 -0.76723926743E+02 -0.10896425384E+02  0.82226665044E+02  0.00000000000E+00 0.  1.
         11    1    1    2    0    0 -0.60338877230E+02 -0.67802190568E+02 -0.29145694941E+02  0.95327795972E+02  0.00000000000E+00 0. -1.
</event>
<event>
 7    1  0.2420569E-009  0.2019473E+03  0.7561462E-02  0.1148106E+00
         -2   -1    0    0    0  501 -0.00000000000E+00  0.00000000000E+00  0.57854657011E+02  0.57854657011E+02  0.00000000000E+00 0.  1.
          2   -1    0    0  501    0  0.00000000000E+00 -0.00000000000E+00 -0.18074412924E+04  0.18074412924E+04  0.00000000000E+00 0. -1.
         25    2    1    2    0    0 -0.17077214469E+03  0.36714208366E+02 -0.16126334400E+04  0.16268828670E+04  0.12510072908E+03 0.  0.
          5    1    3    3  502    0 -0.60421913244E+02 -0.44945686922E+02 -0.46786939590E+03  0.47390944957E+03  0.41800000000E+01 0. -1.
         -5    1    3    3    0  502 -0.11035023145E+03  0.81659895288E+02 -0.11447640441E+04  0.11529734174E+04  0.41800000000E+01 0. -1.
        -11    1    1    2    0    0  0.61632945419E+02 -0.52365178193E+02 -0.82183078884E+02  0.11530303683E+03  0.00000000000E+00 0.  1.
         11    1    1    2    0    0  0.10913919927E+03  0.15650969827E+02 -0.54770116484E+02  0.12311004562E+03  0.00000000000E+00 0. -1.
</event>
<event>
 7    1  0.2624466E-009  0.1258688E+03  0.7561462E-02  0.1233718E+00
         -2   -1    0    0    0  501 -0.00000000000E+00  0.00000000000E+00  0.41148850921E+02  0.41148850921E+02  0.00000000000E+00 0. -1.
          2   -1    0    0  501    0  0.00000000000E+00 -0.00000000000E+00 -0.54793523468E+03  0.54793523468E+03  0.00000000000E+00 0.  1.
         25    2    1    2    0    0 -0.16577933924E+02 -0.96721922387E+02 -0.20947310668E+03  0.26297605442E+03  0.12508982617E+03 0.  0.
          5    1    3    3  502    0  0.44740735848E+02 -0.51442232075E+02 -0.15443232014E+03  0.16886340808E+03  0.41800000000E+01 0. -1.
         -5    1    3    3    0  502 -0.61318669772E+02 -0.45279690313E+02 -0.55040786542E+02  0.94112646337E+02  0.41800000000E+01 0. -1.
        -11    1    1    2    0    0 -0.14295252825E+02  0.21901439204E+02 -0.10653512499E+02  0.28240478415E+02  0.00000000000E+00 0. -1.
         11    1    1    2    0    0  0.30873186749E+02  0.74820483183E+02 -0.28665976458E+03  0.29786755277E+03  0.00000000000E+00 0.  1.
</event>
<event>
 7    1  0.2420569E-009  0.1855870E+03  0.7561462E-02  0.1162503E+00
         -2   -1    0    0    0  501 -0.00000000000E+00  0.00000000000E+00  0.27007551313E+02  0.27007551313E+02  0.00000000000E+00 0.  1.
          2   -1    0    0  501    0  0.00000000000E+00 -0.00000000000E+00 -0.14107287671E+04  0.14107287671E+04  0.00000000000E+00 0. -1.
         25    2    1    2    0    0 -0.68592521224E+02 -0.14656478733E+03 -0.71445379488E+03  0.74315406032E+03  0.12509021341E+03 0.  0.
          5    1    3    3  502    0 -0.53179631477E+02 -0.15740605770E+03 -0.48100476104E+03  0.50890843257E+03  0.41800000000E+01 0.  1.
         -5    1    3    3    0  502 -0.15412889748E+02  0.10841270371E+02 -0.23344903385E+03  0.23424562775E+03  0.41800000000E+01 0.  1.
        -11    1    1    2    0    0 -0.18878363188E+02  0.54537588381E+01 -0.79461806543E+02  0.81855450529E+02  0.00000000000E+00 0. -1.
         11    1    1    2    0    0  0.87470884413E+02  0.14111102849E+03 -0.58980561436E+03  0.61272680757E+03  0.00000000000E+00 0.  1.
</event>
<event>
 7    1  0.2420569E-009  0.1399146E+03  0.7561462E-02  0.1213444E+00
         -1   -1    0    0    0  501 -0.00000000000E+00  0.00000000000E+00  0.79434617801E+02  0.79434617801E+02  0.00000000000E+00 0.  1.
          1   -1    0    0  501    0  0.00000000000E+00 -0.00000000000E+00 -0.30366486801E+03  0.30366486801E+03  0.00000000000E+00 0. -1.
         25    2    1    2    0    0  0.30200858155E+02 -0.96591124752E+02 -0.64889640616E+02  0.17349199054E+03  0.12508744185E+03 0.  0.
          5    1    3    3  502    0 -0.40014892093E+02 -0.74265256055E+02 -0.18948348450E+02  0.86562302159E+02  0.41800000000E+01 0. -1.
         -5    1    3    3    0  502  0.70215750248E+02 -0.22325868697E+02 -0.45941292166E+02  0.86929688380E+02  0.41800000000E+01 0. -1.
        -11    1    1    2    0    0 -0.13980043966E+02 -0.77426385823E+01 -0.68443273122E+02  0.70284220969E+02  0.00000000000E+00 0. -1.
         11    1    1    2    0    0 -0.16220814190E+02  0.10433376333E+03 -0.90897336469E+02  0.13932327430E+03  0.00000000000E+00 0.  1.
</event>
<event>
 7    1  0.2420569E-009  0.1692976E+03  0.7561462E-02  0.1178582E+00
         -2   -1    0    0    0  501 -0.00000000000E+00  0.00000000000E+00  0.45410984849E+02  0.45410984849E+02  0.00000000000E+00 0.  1.
          2   -1    0    0  501    0  0.00000000000E+00 -0.00000000000E+00 -0.73932098315E+03  0.73932098315E+03  0.00000000000E+00 0. -1.
         25    2    1    2    0    0 -0.14522555531E+03  0.18827921379E+02 -0.40533978313E+03  0.44876879924E+03  0.12509253712E+03 0.  0.
          5    1    3    3  502    0 -0.13604434074E+03 -0.32329809405E+02 -0.27956154460E+03  0.31261063457E+03  0.41800000000E+01 0.  1.
         -5    1    3    3    0  502 -0.91812145695E+01  0.51157730784E+02 -0.12577823853E+03  0.13615816467E+03  0.41800000000E+01 0.  1.
        -11    1    1    2    0    0  0.89711861874E+02 -0.87723814301E+01 -0.25465277925E+03  0.27013554157E+03  0.00000000000E+00 0.  1.
         11    1    1    2    0    0  0.55513693434E+02 -0.10055539949E+02 -0.33917435915E+02  0.65827627190E+02  0.00000000000E+00 0. -1.
</event>
<event>
 7    1  0.2420569E-009  0.9530243E+02  0.7561462E-02  0.1290496E+00
         -2   -1    0    0    0  501 -0.00000000000E+00  0.00000000000E+00  0.26197092597E+03  0.26197092597E+03  0.00000000000E+00 0.  1.
          2   -1    0    0  501    0  0.00000000000E+00 -0.00000000000E+00 -0.58161161537E+02  0.58161161537E+02  0.00000000000E+00 0. -1.
         25    2    1    2    0    0 -0.15582883553E+02  0.21675101069E+02  0.17991748489E+03  0.22074723463E+03  0.12508558655E+03 0.  0.
          5    1    3    3  502    0  0.51729311378E+02  0.29075699674E+02  0.73737086090E+02  0.94741481053E+02  0.41800000000E+01 0. -1.
         -5    1    3    3    0  502 -0.67312194931E+02 -0.74005986043E+01  0.10618039880E+03  0.12600575358E+03  0.41800000000E+01 0. -1.
        -11    1    1    2    0    0  0.37437947661E+02 -0.15830852218E+02 -0.23441596128E+02  0.46922534416E+02  0.00000000000E+00 0. -1.
         11    1    1    2    0    0 -0.21855064108E+02 -0.58442488513E+01  0.47333875675E+02  0.52462318460E+02  0.00000000000E+00 0.  1.
</event>
<event>
 7    1  0.2420569E-009  0.1275684E+03  0.7561462E-02  0.1231109E+00
          2   -1    0    0  501    0  0.00000000000E+00  0.00000000000E+00  0.84422200391E+03  0.84422200391E+03  0.00000000000E+00 0. -1.
         -2   -1    0    0    0  501 -0.00000000000E+00 -0.00000000000E+00 -0.27741428148E+02  0.27741428148E+02  0.00000000000E+00 0.  1.
         25    2    1    2    0    0  0.72060647136E+02  0.78155574216E+02  0.41586383219E+03  0.44709166409E+03  0.12508876261E+03 0.  0.
          5    1    3    3  502    0  0.28023125492E+02  0.64619719616E+02  0.74507427731E+02  0.10261497412E+03  0.41800000000E+01 0. -1.
         -5    1    3    3    0  502  0.44037521644E+02  0.13535854599E+02  0.34135640446E+03  0.34447668998E+03  0.41800000000E+01 0. -1.
        -11    1    1    2    0    0 -0.51004356846E+02  0.61951367829E+01  0.19445940513E+03  0.20113250454E+03  0.00000000000E+00 0. -1.
         11    1    1    2    0    0 -0.21056290290E+02 -0.84350710999E+02  0.20615733844E+03  0.22373926343E+03  0.00000000000E+00 0.  1.
</event>
<event>
 7    1  0.2420569E-009  0.1427958E+03  0.7561462E-02  0.1209616E+00
         -2   -1    0    0    0  501 -0.00000000000E+00  0.00000000000E+00  0.44512044201E+02  0.44512044201E+02  0.00000000000E+00 0.  1.
          2   -1    0    0  501    0  0.00000000000E+00 -0.00000000000E+00 -0.88676678563E+03  0.88676678563E+03  0.00000000000E+00 0. -1.
         25    2    1    2    0    0 -0.47837399558E+02 -0.98986674134E+02 -0.73196353673E+03  0.75066921310E+03  0.12508744917E+03 0.  0.
          5    1    3    3  502    0  0.18737631134E+02  0.18202770207E+02 -0.20614617996E+03  0.20783685808E+03  0.41800000000E+01 0.  1.
         -5    1    3    3    0  502 -0.66575030691E+02 -0.11718944434E+03 -0.52581735677E+03  0.54283235502E+03  0.41800000000E+01 0.  1.
        -11    1    1    2    0    0  0.25541957964E+02  0.29631771792E+01  0.77158310697E+01  0.26845969618E+02  0.00000000000E+00 0.  1.
         11    1    1    2    0    0  0.22295441594E+02  0.96023496955E+02 -0.11800703577E+03  0.15376364712E+03  0.00000000000E+00 0. -1.
</event>
<event>
 7    1  0.2420569E-009  0.1158426E+03  0.7561462E-02  0.1250117E+00
         -1   -1    0    0    0  501 -0.00000000000E+00  0.00000000000E+00  0.16026031414E+02  0.16026031414E+02  0.00000000000E+00 0.  1.
          1   -1    0    0  501    0  0.00000000000E+00 -0.00000000000E+00 -0.10797908587E+04  0.10797908587E+04  0.00000000000E+00 0. -1.
         25    2    1    2    0    0  0.65609370433E+02  0.26041431832E+02 -0.65319608001E+03  0.66880177589E+03  0.12509176962E+03 0.  0.
          5    1    3    3  502    0  0.74100193565E+02 -0.11983334333E+02 -0.58762429385E+03  0.59241389425E+03  0.41800000000E+01 0.  1.
         -5    1    3    3    0  502 -0.84908231319E+01  0.38024766164E+02 -0.65571786166E+02  0.76387881633E+02  0.41800000000E+01 0.  1.
        -11    1    1    2    0    0 -0.16634001370E+02 -0.57002658475E+02 -0.20178715344E+03  0.21034269269E+03  0.00000000000E+00 0. -1.
         11    1    1    2    0    0 -0.48975369063E+02  0.30961226643E+02 -0.20878159381E+03  0.21667242152E+03  0.00000000000E+00 0.  1.
</event>
<event>
 7    1  0.2420569E-009  0.1728359E+03  0.7561462E-02  0.1174922E+00
         -1   -1    0    0    0  501 -0.00000000000E+00  0.00000000000E+00  0.25043389477E+02  0.25043389477E+02  0.00000000000E+00 0.  1.
          1   -1    0    0  501    0  0.00000000000E+00 -0.00000000000E+00 -0.15214135709E+04  0.15214135709E+04  0.00000000000E+00 0. -1.
         25    2    1    2    0    0  0.13770238008E+03  0.82941887271E+02 -0.87752301737E+03  0.90085154548E+03  0.12508220831E+03 0.  0.
          5    1    3    3  502    0  0.21110582933E+02  0.81013581237E+00 -0.44260169876E+03  0.44312531995E+03  0.41800000000E+01 0. -1.
         -5    1    3    3    0  502  0.11659179715E+03  0.82131751459E+02 -0.43492131861E+03  0.45772622553E+03  0.41800000000E+01 0. -1.
        -11    1    1    2    0    0 -0.10365018639E+03 -0.99425225463E+02 -0.44174889755E+03  0.46451138316E+03  0.00000000000E+00 0.  1.
         11    1    1    2    0    0 -0.34052193686E+02  0.16483338192E+02 -0.17709826649E+03  0.18109403172E+03  0.00000000000E+00 0. -1.
</event>
<event>
 7    1  0.2420569E-009  0.1274456E+03  0.7561462E-02  0.1231296E+00
          1   -1    0    0  501    0  0.00000000000E+00  0.00000000000E+00  0.19585245258E+03  0.19585245258E+03  0.00000000000E+00 0. -1.
         -1   -1    0    0    0  501 -0.00000000000E+00 -0.00000000000E+00 -0.91378110974E+02  0.91378110974E+02  0.00000000000E+00 0.  1.
         25    2    1    2    0    0  0.10684822972E+02 -0.67735542398E+02  0.17410585834E+02  0.14370626369E+03  0.12508434186E+03 0.  0.
          5    1    3    3  502    0  0.58696612075E+01 -0.10409680141E+03  0.39762271864E+01  0.10442164416E+03  0.41800000000E+01 0. -1.
         -5    1    3    3    0  502  0.48151617642E+01  0.36361259009E+02  0.13434358647E+02  0.39284619532E+02  0.41800000000E+01 0. -1.
        -11    1    1    2    0    0 -0.46283125658E+02  0.62311688107E+02  0.65414339690E+02  0.10150817717E+03  0.00000000000E+00 0. -1.
         11    1    1    2    0    0  0.35598302686E+02  0.54238542905E+01  0.21649416081E+02  0.42016122693E+02  0.00000000000E+00 0.  1.
</event>
<event>
 7    1  0.3299450E-009  0.1386371E+03  0.7561462E-02  0.1215175E+00
          1   -1    0    0  501    0  0.00000000000E+00  0.00000000000E+00  0.51940243839E+03  0.51940243839E+03  0.00000000000E+00 0. -1.
         -1   -1    0    0    0  501 -0.00000000000E+00 -0.00000000000E+00 -0.50749520337E+02  0.50749520337E+02  0.00000000000E+00 0.  1.
         25    2    1    2    0    0  0.22325218082E+02  0.10324986608E+03  0.35033883065E+03  0.38670649874E+03  0.12508265147E+03 0.  0.
          5    1    3    3  502    0  0.56051520313E+02  0.66600309267E+02  0.10560308117E+03  0.13691916329E+03  0.41800000000E+01 0. -1.
         -5    1    3    3    0  502 -0.33726302231E+02  0.36649556812E+02  0.24473574948E+03  0.24978733545E+03  0.41800000000E+01 0. -1.
        -11    1    1    2    0    0  0.34629269474E+02 -0.57361157674E+02  0.54164191088E+02  0.86158274763E+02  0.00000000000E+00 0. -1.
         11    1    1    2    0    0 -0.56954487556E+02 -0.45888708405E+02  0.64149896318E+02  0.97287185227E+02  0.00000000000E+00 0.  1.
</event>
<event>
 7    1  0.2420569E-009  0.1160768E+03  0.7561462E-02  0.1249713E+00
          2   -1    0    0  501    0  0.00000000000E+00  0.00000000000E+00  0.46136069051E+02  0.46136069051E+02  0.00000000000E+00 0. -1.
         -2   -1    0    0    0  501 -0.00000000000E+00 -0.00000000000E+00 -0.33236498082E+03  0.33236498082E+03  0.00000000000E+00 0.  1.
         25    2    1    2    0    0  0.59279889676E+02 -0.10610008315E+02 -0.15139860459E+03  0.20541533614E+03  0.12508894936E+03 0.  0.
          5    1    3    3  502    0 -0.12045953534E+02  0.36682397543E+02 -0.10032508395E+02  0.40110184626E+02  0.41800000000E+01 0.  1.
         -5    1    3    3    0  502  0.71325843210E+02 -0.47292405858E+02 -0.14136609620E+03  0.16530515151E+03  0.41800000000E+01 0.  1.
        -11    1    1    2    0    0 -0.14858428941E+02 -0.38588778914E+02 -0.41248200931E+02  0.58406171323E+02  0.00000000000E+00 0.  1.
         11    1    1    2    0    0 -0.44421460735E+02  0.49198787229E+02 -0.93582106246E+02  0.11467954241E+03  0.00000000000E+00 0. -1.
</event>
<event>
 7    1  0.2420569E-009  0.5462609E+02  0.7561462E-02  0.1421875E+00
         -2   -1    0    0    0  501 -0.00000000000E+00  0.00000000000E+00  0.39429781769E+03  0.39429781769E+03  0.00000000000E+00 0.  1.
          2   -1    0    0  501    0  0.00000000000E+00 -0.00000000000E+00 -0.38877230660E+02  0.38877230660E+02  0.00000000000E+00 0. -1.
         25    2    1    2    0    0  0.11076293455E+02  0.70971524892E+01  0.29970543766E+03  0.32502857739E+03  0.12508866020E+03 0.  0.
          5    1    3    3  502    0 -0.19718601442E+01 -0.27998517837E+02  0.28195797394E+03  0.28338238601E+03  0.41800000000E+01 0. -1.
         -5    1    3    3    0  502  0.13048153599E+02  0.35095670326E+02  0.17747463717E+02  0.41646191379E+02  0.41800000000E+01 0. -1.
        -11    1    1    2    0    0 -0.22759856421E+02 -0.16574419499E+02  0.77054464517E+02  0.82037265606E+02  0.00000000000E+00 0.  1.
         11    1    1    2    0    0  0.11683562966E+02  0.94772670098E+01 -0.21339315142E+02  0.26109205355E+02  0.00000000000E+00 0. -1.
</event>
<event>
 7    1  0.2420569E-009  0.9672042E+02  0.7561462E-02  0.1287348E+00
          2   -1    0    0  501    0  0.00000000000E+00  0.00000000000E+00  0.56588485184E+03  0.56588485184E+03  0.00000000000E+00 0.  1.
         -2   -1    0    0    0  501 -0.00000000000E+00 -0.00000000000E+00 -0.29483357561E+02  0.29483357561E+02  0.00000000000E+00 0. -1.
         25    2    1    2    0    0  0.31592493026E+02 -0.63065064934E+02  0.31549540931E+03  0.34664006384E+03  0.12508674003E+03 0.  0.
          5    1    3    3  502    0 -0.54692159793E+01 -0.64387341007E+02  0.59502993464E+02  0.87941575132E+02  0.41800000000E+01 0. -1.
         -5    1    3    3    0  502  0.37061709005E+02  0.13222760736E+01  0.25599241584E+03  0.25869848870E+03  0.41800000000E+01 0. -1.
        -11    1    1    2    0    0 -0.74482372333E+01  0.66555718035E+02  0.21269279232E+03  0.22298736230E+03  0.00000000000E+00 0.  1.
         11    1    1    2    0    0 -0.24144255793E+02 -0.34906531015E+01  0.82132926505E+01  0.25740783264E+02  0.00000000000E+00 0. -1.
</event>
<event>
 7    1  0.2420569E-009  0.9381446E+02  0.7561462E-02  0.1293869E+00
         -1   -1    0    0    0  501 -0.00000000000E+00  0.00000000000E+00  0.89773217374E+02  0.89773217374E+02  0.00000000000E+00 0.  1.
          1   -1    0    0  501    0  0.00000000000E+00 -0.00000000000E+00 -0.13877729699E+03  0.13877729699E+03  0.00000000000E+00 0. -1.
         25    2    1    2    0    0 -0.24111617448E+02 -0.32524848986E+01 -0.24682706491E+02  0.12979208832E+03  0.12507918067E+03 0.  0.
          5    1    3    3  502    0  0.20563080392E+02 -0.33875577560E+02 -0.54739709388E+02  0.67707482704E+02  0.41800000000E+01 0.  1.
         -5    1    3    3    0  502 -0.44674697840E+02  0.30623092661E+02  0.30057002897E+02  0.62084605615E+02  0.41800000000E+01 0.  1.
        -11    1    1    2    0    0 -0.47171977423E+01 -0.40656882732E+02 -0.21309611478E+02  0.46144702939E+02  0.00000000000E+00 0.  1.
         11    1    1    2    0    0  0.28828815190E+02  0.43909367630E+02 -0.30117616471E+01  0.52613723107E+02  0.00000000000E+00 0. -1.
</event>
<event>
 7    1  0.2420569E-009  0.8742030E+02  0.7561462E-02  0.1309222E+00
         -2   -1    0    0    0  501 -0.00000000000E+00  0.00000000000E+00  0.37875308759E+02  0.37875308759E+02  0.00000000000E+00 0.  1.
          2   -1    0    0  501    0  0.00000000000E+00 -0.00000000000E+00 -0.39004642942E+03  0.39004642942E+03  0.00000000000E+00 0. -1.
         25    2    1    2    0    0 -0.10138840173E+02 -0.26414353383E+02 -0.27441273057E+03  0.30289977205E+03  0.12508161761E+03 0.  0.
          5    1    3    3  502    0  0.35738288054E+02 -0.19870204520E+02 -0.22765730764E+02  0.46987244630E+02  0.41800000000E+01 0.  1.
         -5    1    3    3    0  502 -0.45877128227E+02 -0.65441488626E+01 -0.25164699981E+03  0.25591252742E+03  0.41800000000E+01 0.  1.
        -11    1    1    2    0    0  0.66254615679E+01 -0.29980041592E+02 -0.57153517786E+02  0.64878534432E+02  0.00000000000E+00 0. -1.
         11    1    1    2    0    0  0.35133786050E+01  0.56394394974E+02 -0.20604872307E+02  0.60143431699E+02  0.00000000000E+00 0.  1.
</event>
<event>
 7    1  0.2420569E-009  0.1152807E+03  0.7561462E-02  0.1251092E+00
          2   -1    0    0  501    0  0.00000000000E+00  0.00000000000E+00  0.35237190386E+03  0.35237190386E+03  0.00000000000E+00 0. -1.
         -2   -1    0    0    0  501 -0.00000000000E+00 -0.00000000000E+00 -0.73472368581E+02  0.73472368581E+02  0.00000000000E+00 0.  1.
         25    2    1    2    0    0  0.13860175114E+02 -0.52923840018E+02  0.11357845186E+02  0.13700177059E+03  0.12508975658E+03 0.  0.
          5    1    3    3  502    0  0.68987724062E+01  0.41235339027E+02  0.29750409535E+01  0.42122078700E+02  0.41800000000E+01 0. -1.
         -5    1    3    3    0  502  0.69614027082E+01 -0.94159179044E+02  0.83828042325E+01  0.94879691888E+02  0.41800000000E+01 0. -1.
        -11    1    1    2    0    0  0.20515694974E+02  0.55885855737E+02  0.23115505612E+03  0.23869809924E+03  0.00000000000E+00 0. -1.
         11    1    1    2    0    0 -0.34375870088E+02 -0.29620157195E+01  0.36386633979E+02  0.50144402616E+02  0.00000000000E+00 0.  1.
</event>
<event>
 7    1  0.2420569E-009  0.1118376E+03  0.7561462E-02  0.1257204E+00
          4   -1    0    0  501    0  0.00000000000E+00  0.00000000000E+00  0.31031723241E+03  0.31031723241E+03  0.00000000000E+00 0. -1.
         -4   -1    0    0    0  501 -0.00000000000E+00 -0.00000000000E+00 -0.53695021066E+02  0.53695021066E+02  0.00000000000E+00 0.  1.
         25    2    1    2    0    0 -0.33192802456E+02  0.56697915826E+02  0.17000937614E+03  0.22105843463E+03  0.12508887941E+03 0.  0.
          5    1    3    3  502    0  0.35920531398E+02  0.52790904379E+02  0.11849577088E+03  0.13466953730E+03  0.41800000000E+01 0. -1.
         -5    1    3    3    0  502 -0.69113333855E+02  0.39070114470E+01  0.51513605266E+02  0.86388897333E+02  0.41800000000E+01 0. -1.
        -11    1    1    2    0    0  0.75322028358E+01 -0.63374994268E+02  0.13570636295E+02  0.65247882321E+02  0.00000000000E+00 0.  1.
         11    1    1    2    0    0  0.25660599620E+02  0.66770784422E+01  0.73042198903E+02  0.77705936517E+02  0.00000000000E+00 0. -1.
</event>
<event>
 7    1  0.2420569E-009  0.7991539E+02  0.7561462E-02  0.1329292E+00
          1   -1    0    0  501    0  0.00000000000E+00  0.00000000000E+00  0.37335956524E+03  0.37335956524E+03  0.00000000000E+00 0. -1.
         -1   -1    0    0    0  501 -0.00000000000E+00 -0.00000000000E+00 -0.38760117779E+02  0.38760117779E+02  0.00000000000E+00 0.  1.
         25    2    1    2    0    0  0.33186612058E+02  0.40357442911E+02  0.16810181749E+03  0.21595389355E+03  0.12509112151E+03 0.  0.
          5    1    3    3  502    0 -0.13052843171E+01 -0.16331656509E+02 -0.14089463387E+02  0.22009365052E+02  0.41800000000E+01 0.  1.
         -5    1    3    3    0  502  0.34491896375E+02  0.56689099420E+02  0.18219128087E+03  0.19394452850E+03  0.41800000000E+01 0.  1.
        -11    1    1    2    0    0 -0.12362609785E+02  0.13729860471E+02 -0.14174667703E+01  0.18529770675E+02  0.00000000000E+00 0.  1.
         11    1    1    2    0    0 -0.20824002273E+02 -0.54087303381E+02  0.16791509674E+03  0.17763601879E+03  0.00000000000E+00 0. -1.
</event>
<event>
 7    1  0.2420569E-009  0.9052963E+02  0.7561462E-02  0.1301574E+00
         -2   -1    0    0    0  501 -0.00000000000E+00  0.00000000000E+00  0.20963549568E+03  0.20963549568E+03  0.00000000000E+00 0.  1.
          2   -1    0    0  501    0  0.00000000000E+00 -0.00000000000E+00 -0.75788340853E+02  0.75788340853E+02  0.00000000000E+00 0. -1.
         25    2    1    2    0    0  0.98278550650E+00 -0.39245761023E+02  0.18024659962E+02  0.13233981653E+03  0.12509093911E+03 0.  0.
          5    1    3    3  502    0  0.11981072394E+02  0.21963624369E+02 -0.39880057633E+02  0.47263498473E+02  0.41800000000E+01 0. -1.
         -5    1    3    3    0  502 -0.10998286888E+02 -0.61209385392E+02  0.57904717595E+02  0.85076318058E+02  0.41800000000E+01 0. -1.
        -11    1    1    2    0    0 -0.23883445809E+02  0.58663382766E+02  0.10191743584E+03  0.11999572988E+03  0.00000000000E+00 0.  1.
         11    1    1    2    0    0  0.22900660303E+02 -0.19417621742E+02  0.13905059017E+02  0.33088290115E+02  0.00000000000E+00 0. -1.
</event>
<event>
 7    1  0.2420569E-009  0.1039365E+03  0.7561462E-02  0.1272229E+00
         -2   -1    0    0    0  501 -0.00000000000E+00  0.00000000000E+00  0.24927936366E+03  0.24927936366E+03  0.00000000000E+00 0.  1.
          2   -1    0    0  501    0  0.00000000000E+00 -0.00000000000E+00 -0.60974015013E+02  0.60974015013E+02  0.00000000000E+00 0. -1.
         25    2    1    2    0    0  0.64734481870E+02 -0.32406471603E+01  0.12616542609E+03  0.18911975437E+03  0.12509001484E+03 0.  0.
          5    1    3    3  502    0  0.75920885493E+02 -0.30462238632E+02  0.28019086110E+02  0.86570609464E+02  0.41800000000E+01 0.  1.
         -5    1    3    3    0  502 -0.11186403624E+02  0.27221591471E+02  0.98146339981E+02  0.10254914490E+03  0.41800000000E+01 0.  1.
        -11    1    1    2    0    0 -0.25549243115E+02 -0.33763175538E+02  0.50668610113E+02  0.66030477032E+02  0.00000000000E+00 0.  1.
         11    1    1    2    0    0 -0.39185238754E+02  0.37003822699E+02  0.11471312442E+02  0.55103147276E+02  0.00000000000E+00 0. -1.
</event>
<event>
 7    1  0.2420569E-009  0.1367502E+03  0.7561462E-02  0.1217770E+00
         -1   -1    0    0    0  501 -0.00000000000E+00  0.00000000000E+00  0.28183352914E+03  0.28183352914E+03  0.00000000000E+00 0.  1.
          1   -1    0    0  501    0  0.00000000000E+00 -0.00000000000E+00 -0.72691097268E+02  0.72691097268E+02  0.00000000000E+00 0. -1.
         25    2    1    2    0    0 -0.69145538989E+00 -0.87181821668E+02  0.14976621132E+03  0.21372160176E+03  0.12508339964E+03 0.  0.
          5    1    3    3  502    0  0.57814059421E+02 -0.57701427431E+02  0.55468819573E+02  0.98823997789E+02  0.41800000000E+01 0.  1.
         -5    1    3    3    0  502 -0.58505514811E+02 -0.29480394237E+02  0.94297391746E+02  0.11489760397E+03  0.41800000000E+01 0.  1.
        -11    1    1    2    0    0 -0.30190516260E+02 -0.33833933708E+01  0.51279627515E+01  0.30809261996E+02  0.00000000000E+00 0.  1.
         11    1    1    2    0    0  0.30881971650E+02  0.90565215039E+02  0.54248257801E+02  0.10999376265E+03  0.00000000000E+00 0. -1.
</event>
<event>
 7    1  0.2420569E-009  0.9750946E+02  0.7561462E-02  0.1285622E+00
          3   -1    0    0  501    0  0.00000000000E+00  0.00000000000E+00  0.14761156293E+02  0.14761156293E+02  0.00000000000E+00 0. -1.
         -3   -1    0    0    0  501 -0.00000000000E+00 -0.00000000000E+00 -0.10888725049E+04  0.10888725049E+04  0.00000000000E+00 0.  1.
         25    2    1    2    0    0 -0.82433057163E+01 -0.23294531729E+02 -0.85939511695E+03  0.86880269383E+03  0.12509023333E+03 0.  0.
          5    1    3    3  502    0 -0.27445482236E+02  0.35632172197E+02 -0.14898627358E+03  0.15568329489E+03  0.41800000000E+01 0. -1.
         -5    1    3    3    0  502  0.19202176519E+02 -0.58926703926E+02 -0.71040884337E+03  0.71311939895E+03  0.41800000000E+01 0. -1.
        -11    1    1    2    0    0  0.46403552903E+02  0.13687794363E+02 -0.16185502789E+03  0.16893103767E+03  0.00000000000E+00 0.  1.
         11    1    1    2    0    0 -0.38160247187E+02  0.96067373666E+01 -0.52861203737E+02  0.65899929656E+02  0.00000000000E+00 0. -1.
</event>
<event>
 7    1  0.2420569E-009  0.8533412E+02  0.7561462E-02  0.1314561E+00
          2   -1    0    0  501    0  0.00000000000E+00  0.00000000000E+00  0.78841266628E+03  0.78841266628E+03  0.00000000000E+00 0. -1.
         -2   -1    0    0    0  501 -0.00000000000E+00 -0.00000000000E+00 -0.15684592120E+02  0.15684592120E+02  0.00000000000E+00 0.  1.
         25    2    1    2    0    0 -0.20800867814E+02  0.20564100282E+02  0.47689079843E+03  0.49388588758E+03  0.12507149158E+03 0.  0.
          5    1    3    3  502    0 -0.41556769245E+02 -0.14000169044E+02  0.42851587655E+03  0.43077406915E+03  0.41800000000E+01 0.  1.
         -5    1    3    3    0  502  0.20755901430E+02  0.34564269326E+02  0.48374921883E+02  0.63111818428E+02  0.41800000000E+01 0.  1.
        -11    1    1    2    0    0  0.36282386539E+02  0.20867074577E+02  0.84529203132E+02  0.94324082590E+02  0.00000000000E+00 0.  1.
         11    1    1    2    0    0 -0.15481518724E+02 -0.41431174859E+02  0.21130807260E+03  0.21588728823E+03  0.00000000000E+00 0. -1.
</event>
<event>
 7    1  0.2420569E-009  0.8429730E+02  0.7561462E-02  0.1317280E+00
          1   -1    0    0  501    0  0.00000000000E+00  0.00000000000E+00  0.35053837791E+03  0.35053837791E+03  0.00000000000E+00 0. -1.
         -1   -1    0    0    0  501 -0.00000000000E+00 -0.00000000000E+00 -0.36122373224E+02  0.36122373224E+02  0.00000000000E+00 0.  1.
         25    2    1    2    0    0 -0.70952594314E+01  0.10647027494E+02  0.22422061725E+03  0.25707479725E+03  0.12509542071E+03 0.  0.
          5    1    3    3  502    0  0.42310247597E+02  0.59293225748E+01  0.19427156891E+03  0.19895785686E+03  0.41800000000E+01 0.  1.
         -5    1    3    3    0  502 -0.49405507028E+02  0.47177049191E+01  0.29949048332E+02  0.58116940391E+02  0.41800000000E+01 0.  1.
        -11    1    1    2    0    0 -0.17165045209E+02 -0.36544607997E+02  0.95655681453E+01  0.41492737251E+02  0.00000000000E+00 0.  1.
         11    1    1    2    0    0  0.24260304641E+02  0.25897580503E+02  0.80629819299E+02  0.88093216636E+02  0.00000000000E+00 0. -1.
</event>
<event>
 7    1  0.2420569E-009  0.2110193E+03  0.7561462E-02  0.1140761E+00
          2   -1    0    0  501    0  0.00000000000E+00  0.00000000000E+00  0.18891776174E+04  0.18891776174E+04  0.00000000000E+00 0. -1.
         -2   -1    0    0    0  501 -0.00000000000E+00 -0.00000000000E+00 -0.27398618836E+02  0.27398618836E+02  0.00000000000E+00 0.  1.
         25    2    1    2    0    0 -0.49874295374E+02 -0.18715902970E+03  0.11688354285E+04  0.11913599540E+04  0.12508530463E+03 0.  0.
          5    1    3    3  502    0 -0.65431449688E+02 -0.88980411561E+02  0.36434393560E+03  0.38073975896E+03  0.41800000000E+01 0.  1.
         -5    1    3    3    0  502  0.15557154314E+02 -0.98178618142E+02  0.80449149289E+03  0.81062019506E+03  0.41800000000E+01 0.  1.
        -11    1    1    2    0    0  0.72500467687E+02  0.11107017460E+03  0.47882636458E+03  0.49685771496E+03  0.00000000000E+00 0. -1.
         11    1    1    2    0    0 -0.22626172313E+02  0.76088855105E+02  0.21411720548E+03  0.22835856723E+03  0.00000000000E+00 0.  1.
</event>
<event>
 7    1  0.2420569E-009  0.1325061E+03  0.7561462E-02  0.1223784E+00
         -2   -1    0    0    0  501 -0.00000000000E+00  0.00000000000E+00  0.70943809283E+02  0.70943809283E+02  0.00000000000E+00 0.  1.
          2   -1    0    0  501    0  0.00000000000E+00 -0.00000000000E+00 -0.46460597514E+03  0.46460597514E+03  0.00000000000E+00 0. -1.
         25    2    1    2    0    0 -0.13036864157E+02  0.10395048764E+03 -0.58919310217E+02  0.17347719304E+03  0.12508871924E+03 0.  0.
          5    1    3    3  502    0  0.52610525438E+02  0.44669870694E+02 -0.48188618705E+02  0.84278586292E+02  0.41800000000E+01 0. -1.
         -5    1    3    3    0  502 -0.65647389595E+02  0.59280616943E+02 -0.10730691513E+02  0.89198606750E+02  0.41800000000E+01 0. -1.
        -11    1    1    2    0    0  0.18316142951E+02 -0.52607480216E+02 -0.57468737647E+02  0.80035516328E+02  0.00000000000E+00 0.  1.
         11    1    1    2    0    0 -0.52792787932E+01 -0.51343007422E+02 -0.27727411799E+03  0.28203707505E+03  0.00000000000E+00 0. -1.
</event>
<event>
 7    1  0.2420569E-009  0.1033157E+03  0.7561462E-02  0.1273474E+00
         -2   -1    0    0    0  501 -0.00000000000E+00  0.00000000000E+00  0.42480756147E+02  0.42480756147E+02  0.00000000000E+00 0.  1.
          2   -1    0    0  501    0  0.00000000000E+00 -0.00000000000E+00 -0.41599518701E+03  0.41599518701E+03  0.00000000000E+00 0. -1.
         25    2    1    2    0    0  0.17387107204E+02 -0.71888289695E+02 -0.24106820063E+03  0.28148446485E+03  0.12509751758E+03 0.  0.
          5    1    3    3  502    0 -0.29505392696E+02 -0.63084958118E+01 -0.36037396531E+01  0.30672865159E+02  0.41800000000E+01 0.  1.
         -5    1    3    3    0  502  0.46892499900E+02 -0.65579793883E+02 -0.23746446098E+03  0.25081159969E+03  0.41800000000E+01 0.  1.
        -11    1    1    2    0    0 -0.33023977675E+02  0.72632794446E+02 -0.52463070872E+02  0.95490731151E+02  0.00000000000E+00 0.  1.
         11    1    1    2    0    0  0.15636870471E+02 -0.74450475062E+00 -0.79983159364E+02  0.81500747158E+02  0.00000000000E+00 0. -1.
</event>
<event>
 7    1  0.2606559E-009  0.7526425E+02  0.7561462E-02  0.1343055E+00
          2   -1    0    0  501    0  0.00000000000E+00  0.00000000000E+00  0.23354268895E+03  0.23354268895E+03  0.00000000000E+00 0. -1.
         -2   -1    0    0    0  501 -0.00000000000E+00 -0.00000000000E+00 -0.55762223519E+02  0.55762223519E+02  0.00000000000E+00 0.  1.
         25    2    1    2    0    0  0.28788047699E+02  0.13855762752E+01  0.73265742920E+02  0.14780271284E+03  0.12508837406E+03 0.  0.
          5    1    3    3  502    0  0.12188347484E+02  0.32486011882E+02  0.98323540058E+02  0.10434983331E+03  0.41800000000E+01 0.  1.
         -5    1    3    3    0  502  0.16599700215E+02 -0.31100435607E+02 -0.25057797138E+02  0.43452879532E+02  0.41800000000E+01 0.  1.
        -11    1    1    2    0    0 -0.26295810555E+02  0.34906470665E+02  0.93956986470E+02  0.10362358155E+03  0.00000000000E+00 0. -1.
         11    1    1    2    0    0 -0.24922371446E+01 -0.36292046940E+02  0.10557736042E+02  0.37878618077E+02  0.00000000000E+00 0.  1.
</event>
<event>
 7    1  0.2420569E-009  0.1036751E+03  0.7561462E-02  0.1272752E+00
          1   -1    0    0  501    0  0.00000000000E+00  0.00000000000E+00  0.29227690581E+03  0.29227690581E+03  0.00000000000E+00 0. -1.
         -1   -1    0    0    0  501 -0.00000000000E+00 -0.00000000000E+00 -0.42015898097E+02  0.42015898097E+02  0.00000000000E+00 0.  1.
         25    2    1    2    0    0  0.17045395625E+02  0.87083090670E+01  0.14174692032E+03  0.19001597647E+03  0.12508997456E+03 0.  0.
          5    1    3    3  502    0  0.20606134628E+02  0.58505903339E+02  0.12051017013E+03  0.13560135329E+03  0.41800000000E+01 0.  1.
         -5    1    3    3    0  502 -0.35607390030E+01 -0.49797594272E+02  0.21236750191E+02  0.54414623183E+02  0.41800000000E+01 0.  1.
        -11    1    1    2    0    0  0.26419366809E+02 -0.35327114413E+02  0.50254186875E+02  0.66869060512E+02  0.00000000000E+00 0. -1.
         11    1    1    2    0    0 -0.43464762434E+02  0.26618805346E+02  0.58259900522E+02  0.77407766925E+02  0.00000000000E+00 0.  1.
</event>
<event>
 7    1  0.2420569E-009  0.1111031E+03  0.7561462E-02  0.1258541E+00
          2   -1    0    0  501    0  0.00000000000E+00  0.00000000000E+00  0.23463667474E+02  0.23463667474E+02  0.00000000000E+00 0. -1.
         -2   -1    0    0    0  501 -0.00000000000E+00 -0.00000000000E+00 -0.62454063601E+03  0.62454063601E+03  0.00000000000E+00 0.  1.
         25    2    1    2    0    0  0.45633752884E+02  0.19143217104E+02 -0.37718840420E+03  0.40045984321E+03  0.12509233228E+03 0.  0.
          5    1    3    3  502    0 -0.32737895285E+02 -0.20530065284E+02 -0.18597748355E+03  0.18999565826E+03  0.41800000000E+01 0. -1.
         -5    1    3    3    0  502  0.78371648169E+02  0.39673282388E+02 -0.19121092065E+03  0.21046418495E+03  0.41800000000E+01 0. -1.
        -11    1    1    2    0    0 -0.25260070039E+02  0.31752995807E+02 -0.45700420644E+02  0.61113438195E+02  0.00000000000E+00 0. -1.
         11    1    1    2    0    0 -0.20373682845E+02 -0.50896212911E+02 -0.17818814369E+03  0.18643102208E+03  0.00000000000E+00 0.  1.
</event>
<event>
 7    1  0.2420569E-009  0.1121300E+03  0.7561462E-02  0.1256676E+00
          1   -1    0    0  501    0  0.00000000000E+00  0.00000000000E+00  0.26835967781E+03  0.26835967781E+03  0.00000000000E+00 0. -1.
         -1   -1    0    0    0  501 -0.00000000000E+00 -0.00000000000E+00 -0.66200532552E+02  0.66200532552E+02  0.00000000000E+00 0.  1.
         25    2    1    2    0    0  0.77434374973E+02 -0.10495203320E+02  0.11110842801E+03  0.18465618719E+03  0.12508634208E+03 0.  0.
          5    1    3    3  502    0 -0.21862395571E+01 -0.54705603506E+02  0.29671343010E+02  0.62412688569E+02  0.41800000000E+01 0. -1.
         -5    1    3    3    0  502  0.79620614530E+02  0.44210400186E+02  0.81437084995E+02  0.12224349862E+03  0.41800000000E+01 0. -1.
        -11    1    1    2    0    0 -0.48153609819E+02  0.77750862444E+01 -0.53950454953E+01  0.49074724865E+02  0.00000000000E+00 0.  1.
         11    1    1    2    0    0 -0.29280765154E+02  0.27201170759E+01  0.96445762743E+02  0.10082929830E+03  0.00000000000E+00 0. -1.
</event>
<event>
 7    1  0.2420569E-009  0.1218195E+03  0.7561462E-02  0.1240125E+00
          2   -1    0    0  501    0  0.00000000000E+00  0.00000000000E+00  0.66507029987E+02  0.66507029987E+02  0.00000000000E+00 0.  1.
         -2   -1    0    0    0  501 -0.00000000000E+00 -0.00000000000E+00 -0.22712684253E+03  0.22712684253E+03  0.00000000000E+00 0. -1.
         25    2    1    2    0    0 -0.44603628248E+02  0.39225586300E+02 -0.95379186749E+02  0.16815520489E+03  0.12510337083E+03 0.  0.
          5    1    3    3  502    0  0.20913214737E+01  0.76456574676E+02 -0.39157148910E+02  0.86027531334E+02  0.41800000000E+01 0. -1.
         -5    1    3    3    0  502 -0.46694949722E+02 -0.37230988375E+02 -0.56222037839E+02  0.82127673556E+02  0.41800000000E+01 0. -1.
        -11    1    1    2    0    0  0.49747661127E+02  0.15576985883E+02 -0.32665733164E+02  0.61518472022E+02  0.00000000000E+00 0. -1.
         11    1    1    2    0    0 -0.51440328781E+01 -0.54802572183E+02 -0.32574892630E+02  0.63960195606E+02  0.00000000000E+00 0.  1.
</event>
<event>
 7    1  0.2420569E-009  0.1328541E+03  0.7561462E-02  0.1223281E+00
         -2   -1    0    0    0  501 -0.00000000000E+00  0.00000000000E+00  0.42869181956E+02  0.42869181956E+02  0.00000000000E+00 0.  1.
          2   -1    0    0  501    0  0.00000000000E+00 -0.00000000000E+00 -0.56800104207E+03  0.56800104207E+03  0.00000000000E+00 0. -1.
         25    2    1    2    0    0 -0.95396464642E+02 -0.45051832714E+02 -0.21889335033E+03  0.27329864812E+03  0.12509076364E+03 0.  0.
          5    1    3    3  502    0 -0.83139725339E+02 -0.75598901192E+02 -0.10210604990E+03  0.15188984699E+03  0.41800000000E+01 0. -1.
         -5    1    3    3    0  502 -0.12256739303E+02  0.30547068478E+02 -0.11678730043E+03  0.12140880113E+03  0.41800000000E+01 0. -1.
        -11    1    1    2    0    0  0.80030285326E+02  0.58920771896E+02 -0.29987847693E+03  0.31591708541E+03  0.00000000000E+00 0. -1.
         11    1    1    2    0    0  0.15366179316E+02 -0.13868939181E+02 -0.63600328552E+01  0.21654490497E+02  0.00000000000E+00 0.  1.
</event>
<event>
 7    1  0.2420569E-009  0.1237880E+03  0.7561462E-02  0.1236976E+00
         -1   -1    0    0    0  501 -0.00000000000E+00  0.00000000000E+00  0.15944224112E+03  0.15944224112E+03  0.00000000000E+00 0.  1.
          1   -1    0    0  501    0  0.00000000000E+00 -0.00000000000E+00 -0.10638277895E+03  0.10638277895E+03  0.00000000000E+00 0. -1.
         25    2    1    2    0    0 -0.61114288048E+02 -0.39015207656E+02  0.41928970483E+02  0.15054200437E+03  0.12509082253E+03 0.  0.
          5    1    3    3  502    0  0.13867521705E+02  0.34246548491E+02 -0.96945817059E+00  0.37196054776E+02  0.41800000000E+01 0. -1.
         -5    1    3    3    0  502 -0.74981809753E+02 -0.73261756147E+02  0.42898428654E+02  0.11334594959E+03  0.41800000000E+01 0. -1.
        -11    1    1    2    0    0 -0.18170484008E+02  0.30795418042E+01  0.20693831850E+02  0.27710733362E+02  0.00000000000E+00 0.  1.
         11    1    1    2    0    0  0.79284772056E+02  0.35935665852E+02 -0.95633401586E+01  0.87572282346E+02  0.00000000000E+00 0. -1.
</event>
<event>
 7    1  0.2420569E-009  0.1196011E+03  0.7561462E-02  0.1243757E+00
          3   -1    0    0  501    0  0.00000000000E+00  0.00000000000E+00  0.33732388753E+02  0.33732388753E+02  0.00000000000E+00 0. -1.
         -3   -1    0    0    0  501 -0.00000000000E+00 -0.00000000000E+00 -0.56962438071E+03  0.56962438071E+03  0.00000000000E+00 0.  1.
         25    2    1    2    0    0 -0.19524125534E+02 -0.77686880234E+02 -0.22869517351E+03  0.27270160753E+03  0.12509293156E+03 0.  0.
          5    1    3    3  502    0 -0.59627167135E+01 -0.97412438307E+02 -0.93091488294E+02  0.13493789209E+03  0.41800000000E+01 0.  1.
         -5    1    3    3    0  502 -0.13561408820E+02  0.19725558073E+02 -0.13560368521E+03  0.13776371545E+03  0.41800000000E+01 0.  1.
        -11    1    1    2    0    0  0.53312189845E+02  0.40333586765E+02 -0.12659948547E+03  0.14316569956E+03  0.00000000000E+00 0. -1.
         11    1    1    2    0    0 -0.33788064311E+02  0.37353293469E+02 -0.18059733297E+03  0.18748946237E+03  0.00000000000E+00 0.  1.
</event>
<event>
 7    1  0.2420569E-009  0.8383653E+02  0.7561462E-02  0.1318503E+00
          3   -1    0    0  501    0  0.00000000000E+00  0.00000000000E+00  0.33372321967E+02  0.33372321967E+02  0.00000000000E+00 0. -1.
         -3   -1    0    0    0  501 -0.00000000000E+00 -0.00000000000E+00 -0.30376142326E+03  0.30376142326E+03  0.00000000000E+00 0.  1.
         25    2    1    2    0    0  0.34577636016E+02 -0.14346400942E+02 -0.17043822877E+03  0.21471044028E+03  0.12509976502E+03 0.  0.
          5    1    3    3  502    0  0.71726394335E+02 -0.33319486739E+02 -0.69334240178E+02  0.10525955112E+03  0.41800000000E+01 0. -1.
         -5    1    3    3    0  502 -0.37148758318E+02  0.18973085797E+02 -0.10110398859E+03  0.10945088916E+03  0.41800000000E+01 0. -1.
        -11    1    1    2    0    0 -0.32492345424E+02  0.44465501740E+00 -0.10302977986E+03  0.10803279949E+03  0.00000000000E+00 0.  1.
         11    1    1    2    0    0 -0.20852905924E+01  0.13901745925E+02  0.30789073380E+01  0.14390505447E+02  0.00000000000E+00 0. -1.
</event>
<event>
 7    1  0.2420569E-009  0.7384684E+02  0.7561462E-02  0.1347480E+00
         -1   -1    0    0    0  501 -0.00000000000E+00  0.00000000000E+00  0.69048855836E+02  0.69048855836E+02  0.00000000000E+00 0.  1.
          1   -1    0    0  501    0  0.00000000000E+00 -0.00000000000E+00 -0.18299884521E+03  0.18299884521E+03  0.00000000000E+00 0. -1.
         25    2    1    2    0    0 -0.16240638900E+02 -0.27389408139E+02 -0.64159895695E+02  0.14414300202E+03  0.12508706882E+03 0.  0.
          5    1    3    3  502    0  0.40844728816E+02 -0.19492281610E+02 -0.72696861767E+02  0.85735331253E+02  0.41800000000E+01 0.  1.
         -5    1    3    3    0  502 -0.57085367715E+02 -0.78971265292E+01  0.85369660717E+01  0.58407670766E+02  0.41800000000E+01 0.  1.
        -11    1    1    2    0    0 -0.93496984946E+01  0.87360568947E+01  0.24226619616E+02  0.27398259982E+02  0.00000000000E+00 0.  1.
         11    1    1    2    0    0  0.25590337394E+02  0.18653351244E+02 -0.74016713298E+02  0.80506439047E+02  0.00000000000E+00 0. -1.
</event>
<event>
 7    1  0.2420569E-009  0.1404540E+03  0.7561462E-02  0.1212719E+00
         -2   -1    0    0    0  501 -0.00000000000E+00  0.00000000000E+00  0.87136834540E+02  0.87136834540E+02  0.00000000000E+00 0.  1.
          2   -1    0    0  501    0  0.00000000000E+00 -0.00000000000E+00 -0.32372153729E+03  0.32372153729E+03  0.00000000000E+00 0. -1.
         25    2    1    2    0    0  0.71944976900E+02  0.43591570404E+02 -0.21213240856E+03  0.26023772331E+03  0.12508880510E+03 0.  0.
          5    1    3    3  502    0  0.25898739248E+02 -0.42744112772E+02 -0.96091899546E+02  0.10839247866E+03  0.41800000000E+01 0. -1.
         -5    1    3    3    0  502  0.46046237652E+02  0.86335683177E+02 -0.11604050901E+03  0.15184524465E+03  0.41800000000E+01 0. -1.
        -11    1    1    2    0    0 -0.60351247892E+02  0.23476099616E+02 -0.45769042487E+02  0.79298206950E+02  0.00000000000E+00 0. -1.
         11    1    1    2    0    0 -0.11593729008E+02 -0.67067670021E+02  0.21316748292E+02  0.71322441574E+02  0.00000000000E+00 0.  1.
</event>
<event>
 7    1  0.2420569E-009  0.5749439E+02  0.7561462E-02  0.1408658E+00
         -2   -1    0    0    0  501 -0.00000000000E+00  0.00000000000E+00  0.15293088911E+03  0.15293088911E+03  0.00000000000E+00 0.  1.
          2   -1    0    0  501    0  0.00000000000E+00 -0.00000000000E+00 -0.84667421898E+02  0.84667421898E+02  0.00000000000E+00 0. -1.
         25    2    1    2    0    0  0.14298638130E+02 -0.46527808270E+01  0.85470649617E+01  0.12627988723E+03  0.12508980045E+03 0.  0.
          5    1    3    3  502    0  0.19389504965E+02  0.33541555611E+02  0.53970737360E+02  0.66568023455E+02  0.41800000000E+01 0. -1.
         -5    1    3    3    0  502 -0.50908668351E+01 -0.38194336438E+02 -0.45423672398E+02  0.59711863772E+02  0.41800000000E+01 0. -1.
        -11    1    1    2    0    0 -0.21874635688E+02 -0.73439606472E+01  0.81842884304E+02  0.85033470797E+02  0.00000000000E+00 0.  1.
         11    1    1    2    0    0  0.75759975584E+01  0.11996741474E+02 -0.22126482057E+02  0.26284952981E+02  0.00000000000E+00 0. -1.
</event>
<event>
 7    1  0.2936790E-009  0.1134212E+03  0.7561462E-02  0.1254362E+00
         -1   -1    0    0    0  501 -0.00000000000E+00  0.00000000000E+00  0.61062880157E+02  0.61062880157E+02  0.00000000000E+00 0.  1.
          1   -1    0    0  501    0  0.00000000000E+00 -0.00000000000E+00 -0.22137325371E+03  0.22137325371E+03  0.00000000000E+00 0. -1.
         25    2    1    2    0    0  0.36077331110E+02 -0.80883819208E+01 -0.68135369744E+02  0.14716139648E+03  0.12508817794E+03 0.  0.
          5    1    3    3  502    0  0.68894200901E+02 -0.42013827767E+02 -0.29490758390E+02  0.86015986141E+02  0.41800000000E+01 0. -1.
         -5    1    3    3    0  502 -0.32816869791E+02  0.33925445846E+02 -0.38644611353E+02  0.61145410338E+02  0.41800000000E+01 0. -1.
        -11    1    1    2    0    0 -0.47048153065E+02 -0.32126339156E+02 -0.47519811001E+02  0.74187349407E+02  0.00000000000E+00 0.  1.
         11    1    1    2    0    0  0.10970821955E+02  0.40214721077E+02 -0.44655192805E+02  0.61087387979E+02  0.00000000000E+00 0. -1.
</event>
<event>
 7    1  0.2420569E-009  0.1365773E+03  0.7561462E-02  0.1218010E+00
         -1   -1    0    0    0  501 -0.00000000000E+00  0.00000000000E+00  0.57704349378E+02  0.57704349378E+02  0.00000000000E+00 0.  1.
          1   -1    0    0  501    0  0.00000000000E+00 -0.00000000000E+00 -0.41451955673E+03  0.41451955673E+03  0.00000000000E+00 0. -1.
         25    2    1    2    0    0  0.78996262849E+02  0.24409286080E+02 -0.81986878454E+02  0.17090146852E+03  0.12509692607E+03 0.  0.
          5    1    3    3  502    0  0.10949938374E+03 -0.12079077124E+01 -0.55066898158E+02  0.12264342524E+03  0.41800000000E+01 0. -1.
         -5    1    3    3    0  502 -0.30503120895E+02  0.25617193793E+02 -0.26919980295E+02  0.48258043280E+02  0.41800000000E+01 0. -1.
        -11    1    1    2    0    0 -0.47652637114E+02 -0.59654499514E+02 -0.16647664341E+03  0.18314995478E+03  0.00000000000E+00 0. -1.
         11    1    1    2    0    0 -0.31343625735E+02  0.35245213434E+02 -0.10835168550E+03  0.11817248281E+03  0.00000000000E+00 0.  1.
</event>
<event>
 7    1  0.2420569E-009  0.9700610E+02  0.7561462E-02  0.1286721E+00
         -2   -1    0    0    0  501 -0.00000000000E+00  0.00000000000E+00  0.51209960709E+03  0.51209960709E+03  0.00000000000E+00 0. -1.
          2   -1    0    0  501    0  0.00000000000E+00 -0.00000000000E+00 -0.50843471095E+02  0.50843471095E+02  0.00000000000E+00 0.  1.
         25    2    1    2    0    0 -0.28544914082E+02 -0.88539064014E+01  0.44384079590E+03  0.46209942824E+03  0.12509206891E+03 0.  0.
          5    1    3    3  502    0 -0.64651794932E+02 -0.23016731290E+02  0.14222784046E+03  0.15797422419E+03  0.41800000000E+01 0.  1.
         -5    1    3    3    0  502  0.36106880850E+02  0.14162824888E+02  0.30161295544E+03  0.30412520406E+03  0.41800000000E+01 0.  1.
        -11    1    1    2    0    0  0.42569843382E+02  0.35962398053E+02 -0.13564866046E+02  0.57354086429E+02  0.00000000000E+00 0.  1.
         11    1    1    2    0    0 -0.14024929300E+02 -0.27108491652E+02  0.30980206145E+02  0.43489563510E+02  0.00000000000E+00 0. -1.
</event>
<event>
 7    1  0.2420569E-009  0.1618747E+03  0.7561462E-02  0.1186596E+00
         -4   -1    0    0    0  501 -0.00000000000E+00  0.00000000000E+00  0.24785287234E+03  0.24785287234E+03  0.00000000000E+00 0.  1.
          4   -1    0    0  501    0  0.00000000000E+00 -0.00000000000E+00 -0.12939978497E+03  0.12939978497E+03  0.00000000000E+00 0. -1.
         25    2    1    2    0    0 -0.11583169902E+03  0.61643797071E+02  0.12083880767E+03  0.21787075064E+03  0.12509478938E+03 0.  0.
          5    1    3    3  502    0  0.21497167845E+02  0.12580410812E+02 -0.43536924284E+01  0.25628538767E+02  0.41800000000E+01 0. -1.
         -5    1    3    3    0  502 -0.13732886687E+03  0.49063386259E+02  0.12519250010E+03  0.19224221187E+03  0.41800000000E+01 0. -1.
        -11    1    1    2    0    0  0.65085473335E+02 -0.75810615223E+02 -0.23464705811E+02  0.10263508483E+03  0.00000000000E+00 0.  1.
         11    1    1    2    0    0  0.50746225686E+02  0.14166818151E+02  0.21078985520E+02  0.56746821835E+02  0.00000000000E+00 0. -1.
</event>
<event>
 7    1  0.2420569E-009  0.1150885E+03  0.7561462E-02  0.1251427E+00
          1   -1    0    0  501    0  0.00000000000E+00  0.00000000000E+00  0.19188394983E+03  0.19188394983E+03  0.00000000000E+00 0. -1.
         -1   -1    0    0    0  501 -0.00000000000E+00 -0.00000000000E+00 -0.80384672511E+02  0.80384672511E+02  0.00000000000E+00 0.  1.
         25    2    1    2    0    0  0.18740529531E+02  0.51098461319E+02  0.35141753961E+02  0.14087633863E+03  0.12509572222E+03 0.  0.
          5    1    3    3  502    0  0.60772676810E+02  0.60426309778E+02  0.44444084323E+02  0.96630255052E+02  0.41800000000E+01 0. -1.
         -5    1    3    3    0  502 -0.42032147278E+02 -0.93278484596E+01 -0.93023303623E+01  0.44246083577E+02  0.41800000000E+01 0. -1.
        -11    1    1    2    0    0  0.34254300016E+02 -0.20676109565E+02  0.10114179881E+02  0.41269301073E+02  0.00000000000E+00 0. -1.
         11    1    1    2    0    0 -0.52994829548E+02 -0.30422351753E+02  0.66243343478E+02  0.90122982641E+02  0.00000000000E+00 0.  1.
</event>
<event>
 7    1  0.2420569E-009  0.1056385E+03  0.7561462E-02  0.1268867E+00
         -2   -1    0    0    0  501 -0.00000000000E+00  0.00000000000E+00  0.14928117016E+02  0.14928117016E+02  0.00000000000E+00 0.  1.
          2   -1    0    0  501    0  0.00000000000E+00 -0.00000000000E+00 -0.84570692160E+03  0.84570692160E+03  0.00000000000E+00 0. -1.
         25    2    1    2    0    0  0.14399124432E+02 -0.19690773505E+02 -0.58136926083E+03  0.59517463555E+03  0.12509023949E+03 0.  0.
          5    1    3    3  502    0 -0.55094077096E+02 -0.57057946032E+01 -0.29052507886E+03  0.29578743596E+03  0.41800000000E+01 0.  1.
         -5    1    3    3    0  502  0.69493201528E+02 -0.13984978902E+02 -0.29084418197E+03  0.29938719959E+03  0.41800000000E+01 0.  1.
        -11    1    1    2    0    0  0.13063555159E+02  0.45315084374E+02 -0.18483362026E+03  0.19075528964E+03  0.00000000000E+00 0.  1.
         11    1    1    2    0    0 -0.27462679591E+02 -0.25624310869E+02 -0.64575923492E+02  0.74705113430E+02  0.00000000000E+00 0. -1.
</event>
<event>
 7    1  0.2420569E-009  0.1087817E+03  0.7561462E-02  0.1262843E+00
          3   -1    0    0  501    0  0.00000000000E+00  0.00000000000E+00  0.18202615980E+03  0.18202615980E+03  0.00000000000E+00 0. -1.
         -3   -1    0    0    0  501 -0.00000000000E+00 -0.00000000000E+00 -0.10947140905E+03  0.10947140905E+03  0.00000000000E+00 0.  1.
         25    2    1    2    0    0 -0.57578565728E+02 -0.32282680470E+02 -0.15045117976E+02  0.14223640686E+03  0.12508947666E+03 0.  0.
          5    1    3    3  502    0 -0.91475131356E+02 -0.34780810588E+02 -0.33263461355E+02  0.10344725566E+03  0.41800000000E+01 0. -1.
         -5    1    3    3    0  502  0.33896565629E+02  0.24981301185E+01  0.18218343379E+02  0.38789151202E+02  0.41800000000E+01 0. -1.
        -11    1    1    2    0    0  0.20641570153E+02 -0.14890274387E+02  0.85611410070E+02  0.89314658505E+02  0.00000000000E+00 0. -1.
         11    1    1    2    0    0  0.36936995575E+02  0.47172954857E+02  0.19884586618E+01  0.59946503483E+02  0.00000000000E+00 0.  1.
</event>
<event>
 7    1  0.2420569E-009  0.2111126E+03  0.7561462E-02  0.1140688E+00
         -2   -1    0    0    0  501 -0.00000000000E+00  0.00000000000E+00  0.38325638655E+02  0.38325638655E+02  0.00000000000E+00 0.  1.
          2   -1    0    0  501    0  0.00000000000E+00 -0.00000000000E+00 -0.12847057564E+04  0.12847057564E+04  0.00000000000E+00 0. -1.
         25    2    1    2    0    0 -0.11724365031E+03  0.15165470785E+03 -0.71881866884E+03  0.75438226328E+03  0.12508835485E+03 0.  0.
          5    1    3    3  502    0 -0.87888614840E+02  0.22146512143E+02 -0.37413081485E+03  0.38497560395E+03  0.41800000000E+01 0.  1.
         -5    1    3    3    0  502 -0.29355035465E+02  0.12950819571E+03 -0.34468785399E+03  0.36940665932E+03  0.41800000000E+01 0.  1.
        -11    1    1    2    0    0  0.61964560495E+02 -0.11968867560E+03 -0.25191510754E+03  0.28570300529E+03  0.00000000000E+00 0.  1.
         11    1    1    2    0    0  0.55279089810E+02 -0.31966032253E+02 -0.27564634137E+03  0.28294612649E+03  0.00000000000E+00 0. -1.
</event>
<event>
 7    1  0.2420569E-009  0.7999454E+02  0.7561462E-02  0.1329067E+00
         -1   -1    0    0    0  501 -0.00000000000E+00  0.00000000000E+00  0.17043625115E+03  0.17043625115E+03  0.00000000000E+00 0.  1.
          1   -1    0    0  501    0  0.00000000000E+00 -0.00000000000E+00 -0.85165801046E+02  0.85165801046E+02  0.00000000000E+00 0. -1.
         25    2    1    2    0    0  0.29076358835E+02 -0.16648381219E+02  0.87594918089E+02  0.15633750067E+03  0.12508373675E+03 0.  0.
          5    1    3    3  502    0  0.57017989192E+02 -0.22669921538E+02 -0.26733860578E+01  0.61559693201E+02  0.41800000000E+01 0. -1.
         -5    1    3    3    0  502 -0.27941630357E+02  0.60215403195E+01  0.90268304147E+02  0.94777807467E+02  0.41800000000E+01 0. -1.
        -11    1    1    2    0    0 -0.19754175986E+02 -0.22160829912E+02  0.34112051372E+02  0.45221254959E+02  0.00000000000E+00 0.  1.
         11    1    1    2    0    0 -0.93221828492E+01  0.38809211131E+02 -0.36436519354E+02  0.54043296572E+02  0.00000000000E+00 0. -1.
</event>
<event>
 7    1  0.2420569E-009  0.9417078E+02  0.7561462E-02  0.1293055E+00
         -3   -1    0    0    0  501 -0.00000000000E+00  0.00000000000E+00  0.24789130894E+03  0.24789130894E+03  0.00000000000E+00 0.  1.
          3   -1    0    0  501    0  0.00000000000E+00 -0.00000000000E+00 -0.52214801218E+02  0.52214801218E+02  0.00000000000E+00 0. -1.
         25    2    1    2    0    0 -0.23213693201E+02 -0.13347739935E+01  0.75190605973E+02  0.14779114638E+03  0.12509172054E+03 0.  0.
          5    1    3    3  502    0  0.22778899008E+02  0.31548858003E+02  0.81833009171E+02  0.90710101264E+02  0.41800000000E+01 0.  1.
         -5    1    3    3    0  502 -0.45992592209E+02 -0.32883631997E+02 -0.66424031987E+01  0.57081045117E+02  0.41800000000E+01 0.  1.
        -11    1    1    2    0    0 -0.31797185930E+01 -0.41811829122E+02  0.45609753593E+02  0.61956349857E+02  0.00000000000E+00 0. -1.
         11    1    1    2    0    0  0.26393411794E+02  0.43146603115E+02  0.74876148153E+02  0.90358613916E+02  0.00000000000E+00 0.  1.
</event>
<event>
 7    1  0.2420569E-009  0.1109034E+03  0.7561462E-02  0.1258906E+00
          2   -1    0    0  501    0  0.00000000000E+00  0.00000000000E+00  0.28101424104E+03  0.28101424104E+03  0.00000000000E+00 0. -1.
         -2   -1    0    0    0  501 -0.00000000000E+00 -0.00000000000E+00 -0.73846769153E+02  0.73846769153E+02  0.00000000000E+00 0.  1.
         25    2    1    2    0    0 -0.67150973939E+02  0.53964786155E+02  0.62294827424E+02  0.16415755999E+03  0.12508240297E+03 0.  0.
          5    1    3    3  502    0  0.84225164103E+01  0.96945395282E+01 -0.32398900267E+02  0.35101054369E+02  0.41800000000E+01 0. -1.
         -5    1    3    3    0  502 -0.75573490349E+02  0.44270246627E+02  0.94693727690E+02  0.12905650562E+03  0.41800000000E+01 0. -1.
        -11    1    1    2    0    0  0.58188911539E+02 -0.76644221860E+02  0.95179411517E+02  0.13534920224E+03  0.00000000000E+00 0.  1.
         11    1    1    2    0    0  0.89620623992E+01  0.22679435705E+02  0.49693232943E+02  0.55354247955E+02  0.00000000000E+00 0. -1.
</event>
<event>
 7    1  0.2420569E-009  0.1940159E+03  0.7561462E-02  0.1154888E+00
          1   -1    0    0  501    0  0.00000000000E+00  0.00000000000E+00  0.90054665640E+03  0.90054665640E+03  0.00000000000E+00 0. -1.
         -1   -1    0    0    0  501 -0.00000000000E+00 -0.00000000000E+00 -0.44622170724E+02  0.44622170724E+02  0.00000000000E+00 0.  1.
         25    2    1    2    0    0 -0.11475688734E+03  0.12283827577E+03  0.47199030098E+03  0.51641404367E+03  0.12510089963E+03 0.  0.
          5    1    3    3  502    0 -0.11349709628E+03  0.14061444397E+03  0.35884292687E+03  0.40179563373E+03  0.41800000000E+01 0.  1.
         -5    1    3    3    0  502 -0.12597910626E+01 -0.17776168197E+02  0.11314737411E+03  0.11461840994E+03  0.41800000000E+01 0.  1.
        -11    1    1    2    0    0  0.24815251651E+01 -0.60506699282E+02  0.96335905634E+02  0.11378851146E+03  0.00000000000E+00 0.  1.
         11    1    1    2    0    0  0.11227536217E+03 -0.62331576490E+02  0.28759827906E+03  0.31496627200E+03  0.00000000000E+00 0. -1.
</event>
<event>
 7    1  0.2420569E-009  0.1233242E+03  0.7561462E-02  0.1237712E+00
          3   -1    0    0  501    0  0.00000000000E+00  0.00000000000E+00  0.19877366237E+03  0.19877366237E+03  0.00000000000E+00 0. -1.
         -3   -1    0    0    0  501 -0.00000000000E+00 -0.00000000000E+00 -0.13030171761E+03  0.13030171761E+03  0.00000000000E+00 0.  1.
         25    2    1    2    0    0 -0.11177465695E+03  0.27535676763E+02  0.44061222683E+01  0.17004915148E+03  0.12508202339E+03 0.  0.
          5    1    3    3  502    0 -0.30811457202E+02  0.22569352018E+02  0.60266136659E+02  0.71471680918E+02  0.41800000000E+01 0.  1.
         -5    1    3    3    0  502 -0.80963199746E+02  0.49663247448E+01 -0.55860014391E+02  0.98577470561E+02  0.41800000000E+01 0.  1.
        -11    1    1    2    0    0  0.24025191146E+02 -0.30959313114E+02  0.59302682101E+02  0.71080918554E+02  0.00000000000E+00 0. -1.
         11    1    1    2    0    0  0.87749465802E+02  0.34236363513E+01  0.47631403866E+01  0.87945309941E+02  0.00000000000E+00 0.  1.
</event>
<event>
 7    1  0.2420569E-009  0.1187643E+03  0.7561462E-02  0.1245150E+00
          2   -1    0    0  501    0  0.00000000000E+00  0.00000000000E+00  0.44606412300E+03  0.44606412300E+03  0.00000000000E+00 0. -1.
         -2   -1    0    0    0  501 -0.00000000000E+00 -0.00000000000E+00 -0.51718962850E+02  0.51718962850E+02  0.00000000000E+00 0.  1.
         25    2    1    2    0    0 -0.15808435381E+02 -0.83879973892E+02  0.11134161692E+03  0.18796060642E+03  0.12508587953E+03 0.  0.
          5    1    3    3  502    0  0.45288308915E+02 -0.71255782521E+02  0.41342485316E+02  0.94101492864E+02  0.41800000000E+01 0.  1.
         -5    1    3    3    0  502 -0.61096744296E+02 -0.12624191371E+02  0.69999131606E+02  0.93859113553E+02  0.41800000000E+01 0.  1.
        -11    1    1    2    0    0  0.11833564855E+02  0.75551535994E+01 -0.25048857110E+01  0.14261418426E+02  0.00000000000E+00 0.  1.
         11    1    1    2    0    0  0.39748705258E+01  0.76324820293E+02  0.28550842894E+03  0.29556106101E+03  0.00000000000E+00 0. -1.
</event>
<event>
 7    1  0.2420569E-009  0.1509544E+03  0.7561462E-02  0.1199305E+00
         -1   -1    0    0    0  501 -0.00000000000E+00  0.00000000000E+00  0.69790209684E+02  0.69790209684E+02  0.00000000000E+00 0.  1.
          1   -1    0    0  501    0  0.00000000000E+00 -0.00000000000E+00 -0.91409777784E+03  0.91409777784E+03  0.00000000000E+00 0. -1.
         25    2    1    2    0    0 -0.28672945359E+02 -0.12309212532E+03 -0.80009863718E+03  0.81962142315E+03  0.12509052305E+03 0.  0.
          5    1    3    3  502    0  0.31460391076E+02 -0.10865855922E+03 -0.58097078580E+03  0.59189607622E+03  0.41800000000E+01 0. -1.
         -5    1    3    3    0  502 -0.60133336435E+02 -0.14433566098E+02 -0.21912785138E+03  0.22772534692E+03  0.41800000000E+01 0. -1.
        -11    1    1    2    0    0  0.21247553058E+01  0.25526506703E+02 -0.56861784234E+02  0.62364891051E+02  0.00000000000E+00 0. -1.
         11    1    1    2    0    0  0.26548190053E+02  0.97565618619E+02  0.12652853253E+02  0.10190167333E+03  0.00000000000E+00 0.  1.
</event>
<event>
 7    1  0.2420569E-009  0.1016777E+03  0.7561462E-02  0.1276807E+00
          1   -1    0    0  501    0  0.00000000000E+00  0.00000000000E+00  0.10282863493E+04  0.10282863493E+04  0.00000000000E+00 0. -1.
         -1   -1    0    0    0  501 -0.00000000000E+00 -0.00000000000E+00 -0.20253295390E+02  0.20253295390E+02  0.00000000000E+00 0.  1.
         25    2    1    2    0    0 -0.78030388602E+02 -0.42030535807E+02  0.78771926892E+03  0.80249871963E+03  0.12508893191E+03 0.  0.
          5    1    3    3  502    0 -0.44613154971E+02 -0.29208307223E+01  0.71557792080E+02  0.84479908001E+02  0.41800000000E+01 0.  1.
         -5    1    3    3    0  502 -0.33417233631E+02 -0.39109705085E+02  0.71616147684E+03  0.71801881162E+03  0.41800000000E+01 0.  1.
        -11    1    1    2    0    0  0.13875337597E+02  0.40343473630E+02  0.11564634700E+03  0.12326474935E+03  0.00000000000E+00 0. -1.
         11    1    1    2    0    0  0.64155051005E+02  0.16870621772E+01  0.10466743800E+03  0.12277617573E+03  0.00000000000E+00 0.  1.
</event>
<event>
 7    1  0.2420569E-009  0.7863164E+02  0.7561462E-02  0.1332980E+00
         -2   -1    0    0    0  501 -0.00000000000E+00  0.00000000000E+00  0.78452826142E+02  0.78452826142E+02  0.00000000000E+00 0.  1.
          2   -1    0    0  501    0  0.00000000000E+00 -0.00000000000E+00 -0.17882495857E+03  0.17882495857E+03  0.00000000000E+00 0. -1.
         25    2    1    2    0    0 -0.14740785879E+02 -0.16645242755E+02 -0.11450703091E+02  0.12756734100E+03  0.12509177836E+03 0.  0.
          5    1    3    3  502    0 -0.36442671316E+02 -0.34328083600E+02  0.43046300566E+02  0.66158461354E+02  0.41800000000E+01 0. -1.
         -5    1    3    3    0  502  0.21701885437E+02  0.17682840845E+02 -0.54497003657E+02  0.61408879647E+02  0.41800000000E+01 0. -1.
        -11    1    1    2    0    0  0.26673833483E+02 -0.24292888964E+02 -0.77622137881E+02  0.85596928310E+02  0.00000000000E+00 0. -1.
         11    1    1    2    0    0 -0.11933047605E+02  0.40938131719E+02 -0.11299291457E+02  0.44113515403E+02  0.00000000000E+00 0.  1.
</event>
<event>
 7    1  0.2420569E-009  0.9190074E+02  0.7561462E-02  0.1298313E+00
          1   -1    0    0  501    0  0.00000000000E+00  0.00000000000E+00  0.97471117171E+02  0.97471117171E+02  0.00000000000E+00 0. -1.
         -1   -1    0    0    0  501 -0.00000000000E+00 -0.00000000000E+00 -0.23393693614E+03  0.23393693614E+03  0.00000000000E+00 0.  1.
         25    2    1    2    0    0  0.37747305019E+02 -0.43135987225E+02  0.22139815084E+02  0.13936895033E+03  0.12509180818E+03 0.  0.
          5    1    3    3  502    0  0.12897696192E+02 -0.80019939607E+02  0.40942923936E+02  0.90902897216E+02  0.41800000000E+01 0.  1.
         -5    1    3    3    0  502  0.24849608827E+02  0.36883952383E+02 -0.18803108853E+02  0.48466053117E+02  0.41800000000E+01 0.  1.
        -11    1    1    2    0    0 -0.24571091993E+02  0.21554896565E+02 -0.16311244850E+03  0.16635511108E+03  0.00000000000E+00 0.  1.
         11    1    1    2    0    0 -0.13176213025E+02  0.21581090660E+02  0.45068144384E+01  0.25683991904E+02  0.00000000000E+00 0. -1.
</event>
<event>
 7    1  0.2420569E-009  0.1539651E+03  0.7561462E-02  0.1195684E+00
         -2   -1    0    0    0  501 -0.00000000000E+00  0.00000000000E+00  0.11291153402E+04  0.11291153402E+04  0.00000000000E+00 0. -1.
          2   -1    0    0  501    0  0.00000000000E+00 -0.00000000000E+00 -0.30743207518E+02  0.30743207518E+02  0.00000000000E+00 0.  1.
         25    2    1    2    0    0  0.48675154356E+02  0.13109324548E+03  0.73734553286E+03  0.76084209542E+03  0.12509016613E+03 0.  0.
          5    1    3    3  502    0  0.73507941304E+02  0.94855571847E+02  0.66757123781E+03  0.67828447343E+03  0.41800000000E+01 0. -1.
         -5    1    3    3    0  502 -0.24832786948E+02  0.36237673634E+02  0.69774295056E+02  0.82557621989E+02  0.41800000000E+01 0. -1.
        -11    1    1    2    0    0 -0.93079689567E+01 -0.72745214315E+02  0.28958018183E+03  0.29872259071E+03  0.00000000000E+00 0. -1.
         11    1    1    2    0    0 -0.39367185399E+02 -0.58348031167E+02  0.71446417948E+02  0.10029386155E+03  0.00000000000E+00 0.  1.
</event>
<event>
 7    1  0.2420569E-009  0.1016670E+03  0.7561462E-02  0.1276829E+00
          3   -1    0    0  501    0  0.00000000000E+00  0.00000000000E+00  0.80912599082E+02  0.80912599082E+02  0.00000000000E+00 0. -1.
         -3   -1    0    0    0  501 -0.00000000000E+00 -0.00000000000E+00 -0.16259390057E+03  0.16259390057E+03  0.00000000000E+00 0.  1.
         25    2    1    2    0    0 -0.18623631541E+02 -0.16248083232E+02 -0.77572163323E+02  0.14925442344E+03  0.12509437450E+03 0.  0.
          5    1    3    3  502    0  0.20203183436E+02  0.41021586073E+02 -0.94506038478E+00  0.45927167168E+02  0.41800000000E+01 0.  1.
         -5    1    3    3    0  502 -0.38826814977E+02 -0.57269669306E+02 -0.76627102938E+02  0.10332725627E+03  0.41800000000E+01 0.  1.
        -11    1    1    2    0    0 -0.32919677028E+02  0.15892981051E+02  0.14675760268E+02  0.39391241688E+02  0.00000000000E+00 0. -1.
         11    1    1    2    0    0  0.51543308568E+02  0.35510218060E+00 -0.18784898434E+02  0.54860834526E+02  0.00000000000E+00 0.  1.
</event>
<event>
 7    1  0.2420569E-009  0.1057117E+03  0.7561462E-02  0.1268724E+00
          3   -1    0    0  501    0  0.00000000000E+00  0.00000000000E+00  0.66893744903E+02  0.66893744903E+02  0.00000000000E+00 0. -1.
         -3   -1    0    0    0  501 -0.00000000000E+00 -0.00000000000E+00 -0.29609721876E+03  0.29609721876E+03  0.00000000000E+00 0.  1.
         25    2    1    2    0    0  0.43467938377E+02 -0.50121346030E+02 -0.48291168018E+02  0.14960555222E+03  0.12509265907E+03 0.  0.
          5    1    3    3  502    0  0.73046543514E+02 -0.48025710193E+02  0.58704864991E+01  0.87716596894E+02  0.41800000000E+01 0. -1.
         -5    1    3    3    0  502 -0.29578605137E+02 -0.20956358368E+01 -0.54161654517E+02  0.61888955327E+02  0.41800000000E+01 0. -1.
        -11    1    1    2    0    0 -0.44545968650E+02  0.65131970962E+02 -0.18192627185E+03  0.19830200542E+03  0.00000000000E+00 0.  1.
         11    1    1    2    0    0  0.10780302732E+01 -0.15010624932E+02  0.10139660131E+01  0.15083406021E+02  0.00000000000E+00 0. -1.
</event>
<event>
 7    1  0.2619891E-009  0.1062699E+03  0.7561462E-02  0.1267638E+00
         -1   -1    0    0    0  501 -0.00000000000E+00  0.00000000000E+00  0.55355991514E+02  0.55355991514E+02  0.00000000000E+00 0.  1.
          1   -1    0    0  501    0  0.00000000000E+00 -0.00000000000E+00 -0.26267877442E+03  0.26267877442E+03  0.00000000000E+00 0. -1.
         25    2    1    2    0    0  0.35243345649E+02 -0.39447419661E+02 -0.11786191771E+03  0.17982641020E+03  0.12509162174E+03 0.  0.
          5    1    3    3  502    0  0.17699759376E+02  0.45153203638E+02 -0.34244135939E+02  0.59516607152E+02  0.41800000000E+01 0. -1.
         -5    1    3    3    0  502  0.17543586273E+02 -0.84600623299E+02 -0.83617781773E+02  0.12030980305E+03  0.41800000000E+01 0. -1.
        -11    1    1    2    0    0 -0.16705110107E+02 -0.13361761078E+02  0.10359566278E+02  0.23768003203E+02  0.00000000000E+00 0.  1.
         11    1    1    2    0    0 -0.18538235542E+02  0.52809180739E+02 -0.99820431472E+02  0.11444035253E+03  0.00000000000E+00 0. -1.
</event>
<event>
 7    1  0.2420569E-009  0.1276810E+03  0.7561462E-02  0.1230938E+00
         -1   -1    0    0    0  501 -0.00000000000E+00  0.00000000000E+00  0.40147651467E+02  0.40147651467E+02  0.00000000000E+00 0. -1.
          1   -1    0    0  501    0  0.00000000000E+00 -0.00000000000E+00 -0.12817984313E+04  0.12817984313E+04  0.00000000000E+00 0.  1.
         25    2    1    2    0    0 -0.10180050656E+03  0.11018362796E+02 -0.11428917598E+04  0.11542680848E+04  0.12509392285E+03 0.  0.
          5    1    3    3  502    0  0.94614168431E+01  0.10885373077E+01 -0.59493113599E+03  0.59502204354E+03  0.41800000000E+01 0. -1.
         -5    1    3    3    0  502 -0.11126192340E+03  0.99298254885E+01 -0.54796062376E+03  0.55924604122E+03  0.41800000000E+01 0. -1.
        -11    1    1    2    0    0  0.34571668172E+02  0.36942407117E+02 -0.22881886210E+02  0.55529473258E+02  0.00000000000E+00 0.  1.
         11    1    1    2    0    0  0.67228838389E+02 -0.47960769913E+02 -0.75877133915E+02  0.11214852479E+03  0.00000000000E+00 0. -1.
</event>
<event>
 7    1  0.2420569E-009  0.1090787E+03  0.7561462E-02  0.1262286E+00
         -2   -1    0    0    0  501 -0.00000000000E+00  0.00000000000E+00  0.10996399625E+02  0.10996399625E+02  0.00000000000E+00 0.  1.
          2   -1    0    0  501    0  0.00000000000E+00 -0.00000000000E+00 -0.15940045968E+04  0.15940045968E+04  0.00000000000E+00 0. -1.
         25    2    1    2    0    0  0.21707468249E+02  0.81152949945E+01 -0.12639023770E+04  0.12702869201E+04  0.12507025467E+03 0.  0.
          5    1    3    3  502    0  0.11371094294E+02 -0.54776638730E+02 -0.38489589500E+03  0.38896285725E+03  0.41800000000E+01 0.  1.
         -5    1    3    3    0  502  0.10336373955E+02  0.62891933724E+02 -0.87900648203E+03  0.88132406287E+03  0.41800000000E+01 0.  1.
        -11    1    1    2    0    0 -0.24111996598E+02  0.41776066775E+02 -0.19628804348E+03  0.20212774215E+03  0.00000000000E+00 0.  1.
         11    1    1    2    0    0  0.24045283483E+01 -0.49891361769E+02 -0.12281777667E+03  0.13258633415E+03  0.00000000000E+00 0. -1.
</event>
<event>
 7    1  0.2420569E-009  0.1324276E+03  0.7561462E-02  0.1223897E+00
          2   -1    0    0  501    0  0.00000000000E+00  0.00000000000E+00  0.50797043228E+02  0.50797043228E+02  0.00000000000E+00 0. -1.
         -2   -1    0    0    0  501 -0.00000000000E+00 -0.00000000000E+00 -0.46269502925E+03  0.46269502925E+03  0.00000000000E+00 0.  1.
         25    2    1    2    0    0  0.43062953701E+02 -0.76073027933E+02 -0.32676051537E+03  0.36063964077E+03  0.12508793917E+03 0.  0.
          5    1    3    3  502    0 -0.44791222347E+01 -0.91895078724E+02 -0.14273627385E+03  0.16987019839E+03  0.41800000000E+01 0. -1.
         -5    1    3    3    0  502  0.47542075936E+02  0.15822050791E+02 -0.18402424152E+03  0.19076944237E+03  0.41800000000E+01 0. -1.
        -11    1    1    2    0    0 -0.57132414535E+02  0.13991727788E+02 -0.20916136219E+02  0.62428887476E+02  0.00000000000E+00 0. -1.
         11    1    1    2    0    0  0.14069460834E+02  0.62081300145E+02 -0.64221334425E+02  0.90423544230E+02  0.00000000000E+00 0.  1.
</event>
<event>
 7    1  0.2420569E-009  0.1827180E+03  0.7561462E-02  0.1165198E+00
         -3   -1    0    0    0  501 -0.00000000000E+00  0.00000000000E+00  0.11417550849E+04  0.11417550849E+04  0.00000000000E+00 0.  1.
          3   -1    0    0  501    0  0.00000000000E+00 -0.00000000000E+00 -0.33089511739E+02  0.33089511739E+02  0.00000000000E+00 0. -1.
         25    2    1    2    0    0 -0.43024741240E+02 -0.14073905897E+03  0.38415372025E+03  0.42997626050E+03  0.12508754030E+03 0.  0.
          5    1    3    3  502    0 -0.23613576660E+02 -0.16214049488E+03  0.32944567980E+03  0.36796612537E+03  0.41800000000E+01 0.  1.
         -5    1    3    3    0  502 -0.19411164580E+02  0.21401435910E+02  0.54708040450E+02  0.62010135134E+02  0.41800000000E+01 0.  1.
        -11    1    1    2    0    0 -0.27966162382E+02  0.32261572323E+02  0.15373508994E+03  0.15955373128E+03  0.00000000000E+00 0.  1.
         11    1    1    2    0    0  0.70990903622E+02  0.10847748664E+03  0.57077676297E+03  0.58531460485E+03  0.00000000000E+00 0. -1.
</event>
<event>
 7    1  0.2420569E-009  0.1117522E+03  0.7561462E-02  0.1257359E+00
          1   -1    0    0  501    0  0.00000000000E+00  0.00000000000E+00  0.12481137580E+03  0.12481137580E+03  0.00000000000E+00 0. -1.
         -1   -1    0    0    0  501 -0.00000000000E+00 -0.00000000000E+00 -0.10688283350E+03  0.10688283350E+03  0.00000000000E+00 0.  1.
         25    2    1    2    0    0  0.27085463932E+02  0.23175793519E+02  0.26735943817E+02  0.13278934252E+03  0.12508980387E+03 0.  0.
          5    1    3    3  502    0 -0.30883276818E+02  0.51915500819E+02 -0.47000990808E+01  0.60733510879E+02  0.41800000000E+01 0. -1.
         -5    1    3    3    0  502  0.57968740749E+02 -0.28739707300E+02  0.31436042898E+02  0.72055831637E+02  0.41800000000E+01 0. -1.
        -11    1    1    2    0    0 -0.57248231435E+02  0.41737338571E+01 -0.95111228311E+01  0.58182828346E+02  0.00000000000E+00 0. -1.
         11    1    1    2    0    0  0.30162767504E+02 -0.27349527376E+02  0.70372130763E+00  0.40722038441E+02  0.00000000000E+00 0.  1.
</event>
<event>
 7    1  0.2420569E-009  0.8195906E+02  0.7561462E-02  0.1323582E+00
          2   -1    0    0  501    0  0.00000000000E+00  0.00000000000E+00  0.88353050706E+02  0.88353050706E+02  0.00000000000E+00 0.  1.
         -2   -1    0    0    0  501 -0.00000000000E+00 -0.00000000000E+00 -0.22176914301E+03  0.22176914301E+03  0.00000000000E+00 0. -1.
         25    2    1    2    0    0 -0.59455628454E+02 -0.18138835861E+02 -0.13650869346E+03  0.19530942000E+03  0.12508859673E+03 0.  0.
          5    1    3    3  502    0 -0.53609086136E+02 -0.36132311370E+02 -0.79165987650E+01  0.65265787189E+02  0.41800000000E+01 0. -1.
         -5    1    3    3    0  502 -0.58465423174E+01  0.17993475510E+02 -0.12859209469E+03  0.13004363281E+03  0.41800000000E+01 0. -1.
        -11    1    1    2    0    0  0.10956900315E+02  0.28176514532E+02  0.42057479968E+02  0.51795764856E+02  0.00000000000E+00 0.  1.
         11    1    1    2    0    0  0.48498728139E+02 -0.10037678672E+02 -0.38964878812E+02  0.63017008855E+02  0.00000000000E+00 0. -1.
</event>
<event>
 7    1  0.2420569E-009  0.8929206E+02  0.7561462E-02  0.1304575E+00
         -2   -1    0    0    0  501 -0.00000000000E+00  0.00000000000E+00  0.13415746217E+02  0.13415746217E+02  0.00000000000E+00 0.  1.
          2   -1    0    0  501    0  0.00000000000E+00 -0.00000000000E+00 -0.22481762124E+04  0.22481762124E+04  0.00000000000E+00 0. -1.
         25    2    1    2    0    0  0.46765835468E+02  0.18367544702E+01 -0.20391069149E+04  0.20434763968E+04  0.12509339210E+03 0.  0.
          5    1    3    3  502    0  0.49311909705E+02  0.27275089769E+02 -0.38104185067E+03  0.38520898137E+03  0.41800000000E+01 0. -1.
         -5    1    3    3    0  502 -0.25460742367E+01 -0.25438335299E+02 -0.16580650642E+04  0.16582674154E+04  0.41800000000E+01 0. -1.
        -11    1    1    2    0    0  0.20566972660E+02 -0.17541953243E+02 -0.62030491528E+02  0.67664631583E+02  0.00000000000E+00 0. -1.
         11    1    1    2    0    0 -0.67332808128E+02  0.15705198773E+02 -0.13362305979E+03  0.15045093029E+03  0.00000000000E+00 0.  1.
</event>
<event>
 7    1  0.2420569E-009  0.9949927E+02  0.7561462E-02  0.1281352E+00
         -1   -1    0    0    0  501 -0.00000000000E+00  0.00000000000E+00  0.45330465222E+02  0.45330465222E+02  0.00000000000E+00 0.  1.
          1   -1    0    0  501    0  0.00000000000E+00 -0.00000000000E+00 -0.35174859711E+03  0.35174859711E+03  0.00000000000E+00 0. -1.
         25    2    1    2    0    0  0.61982044187E+02 -0.28579570425E+02 -0.19414836409E+03  0.24083100313E+03  0.12508964441E+03 0.  0.
          5    1    3    3  502    0  0.23203606805E+02 -0.47267758326E+02 -0.12737060597E+02  0.54335563478E+02  0.41800000000E+01 0.  1.
         -5    1    3    3    0  502  0.38778437383E+02  0.18688187901E+02 -0.18141130350E+03  0.18649543965E+03  0.41800000000E+01 0.  1.
        -11    1    1    2    0    0 -0.24128257706E+02 -0.26663468020E+02 -0.16947790797E+02  0.39753502483E+02  0.00000000000E+00 0.  1.
         11    1    1    2    0    0 -0.37853786482E+02  0.55243038445E+02 -0.95321977002E+02  0.11649455673E+03  0.00000000000E+00 0. -1.
</event>
<event>
 7    1  0.2420569E-009  0.2247614E+03  0.7561462E-02  0.1130382E+00
         -2   -1    0    0    0  501 -0.00000000000E+00  0.00000000000E+00  0.58821381992E+03  0.58821381992E+03  0.00000000000E+00 0.  1.
          2   -1    0    0  501    0  0.00000000000E+00 -0.00000000000E+00 -0.28616849378E+03  0.28616849378E+03  0.00000000000E+00 0. -1.
         25    2    1    2    0    0  0.18680266136E+03  0.11796586492E+03 -0.19684465722E+03  0.32125719798E+03  0.12508872293E+03 0.  0.
          5    1    3    3  502    0  0.71365557147E+02  0.76492644904E+02 -0.16337352560E+03  0.19404264670E+03  0.41800000000E+01 0.  1.
         -5    1    3    3    0  502  0.11543710421E+03  0.41473220017E+02 -0.33471131625E+02  0.12721455129E+03  0.41800000000E+01 0.  1.
        -11    1    1    2    0    0 -0.11789954385E+03 -0.61312516862E+02  0.19177624956E+03  0.23331878848E+03  0.00000000000E+00 0.  1.
         11    1    1    2    0    0 -0.68903117504E+02 -0.56653348059E+02  0.30711373381E+03  0.31980632724E+03  0.00000000000E+00 0. -1.
</event>
<event>
 7    1  0.2420569E-009  0.1101467E+03  0.7561462E-02  0.1260298E+00
         -2   -1    0    0    0  501 -0.00000000000E+00  0.00000000000E+00  0.15977262972E+02  0.15977262972E+02  0.00000000000E+00 0.  1.
          2   -1    0    0  501    0  0.00000000000E+00 -0.00000000000E+00 -0.98015738233E+03  0.98015738233E+03  0.00000000000E+00 0. -1.
         25    2    1    2    0    0  0.41768918123E+01 -0.54295056047E+02 -0.42282293089E+03  0.44428828959E+03  0.12508978315E+03 0.  0.
          5    1    3    3  502    0  0.41159261667E+02  0.67300607085E+01 -0.29391977057E+03  0.29689338569E+03  0.41800000000E+01 0.  1.
         -5    1    3    3    0  502 -0.36982369855E+02 -0.61025116756E+02 -0.12890316032E+03  0.14739490390E+03  0.41800000000E+01 0.  1.
        -11    1    1    2    0    0 -0.44369241269E+02  0.49416253273E+02 -0.32043494022E+03  0.32724478082E+03  0.00000000000E+00 0.  1.
         11    1    1    2    0    0  0.40192349457E+02  0.48788027743E+01 -0.22092224824E+03  0.22460157488E+03  0.00000000000E+00 0. -1.
</event>
<event>
 7    1  0.2420569E-009  0.7682853E+02  0.7561462E-02  0.1338300E+00
         -3   -1    0    0    0  501 -0.00000000000E+00  0.00000000000E+00  0.11497047928E+03  0.11497047928E+03  0.00000000000E+00 0.  1.
          3   -1    0    0  501    0  0.00000000000E+00 -0.00000000000E+00 -0.12866975242E+03  0.12866975242E+03  0.00000000000E+00 0. -1.
         25    2    1    2    0    0  0.16910518664E+02  0.19039741334E+02 -0.55821715053E+02  0.13932784970E+03  0.12509080078E+03 0.  0.
          5    1    3    3  502    0 -0.16315542551E+02  0.51507010762E+02  0.13432784779E+02  0.55830826550E+02  0.41800000000E+01 0.  1.
         -5    1    3    3    0  502  0.33226061214E+02 -0.32467269428E+02 -0.69254499832E+02  0.83497023150E+02  0.41800000000E+01 0.  1.
        -11    1    1    2    0    0  0.15334946975E+02  0.80684761437E-01 -0.23895593467E+02  0.28393071265E+02  0.00000000000E+00 0. -1.
         11    1    1    2    0    0 -0.32245465638E+02 -0.19120426096E+02  0.66018035374E+02  0.75919310738E+02  0.00000000000E+00 0.  1.
</event>
<event>
 7    1  0.2420569E-009  0.1411531E+03  0.7561462E-02  0.1211786E+00
         -2   -1    0    0    0  501 -0.00000000000E+00  0.00000000000E+00  0.68731636775E+02  0.68731636775E+02  0.00000000000E+00 0.  1.
          2   -1    0    0  501    0  0.00000000000E+00 -0.00000000000E+00 -0.74407760579E+03  0.74407760579E+03  0.00000000000E+00 0. -1.
         25    2    1    2    0    0  0.83381828595E+02 -0.74183379867E+02 -0.63676176149E+03  0.65845882762E+03  0.12508710400E+03 0.  0.
          5    1    3    3  502    0  0.17122830666E+01 -0.84610351568E+02 -0.29812510965E+03  0.30993208435E+03  0.41800000000E+01 0. -1.
         -5    1    3    3    0  502  0.81669545529E+02  0.10426971701E+02 -0.33863665184E+03  0.34852674327E+03  0.41800000000E+01 0. -1.
        -11    1    1    2    0    0 -0.37455271895E+02  0.15297268234E+02 -0.63785423637E+02  0.75534654806E+02  0.00000000000E+00 0. -1.
         11    1    1    2    0    0 -0.45926556700E+02  0.58886111633E+02  0.25201216107E+02  0.78815760143E+02  0.00000000000E+00 0.  1.
</event>
<event>
 7    1  0.2420569E-009  0.2015563E+03  0.7561462E-02  0.1148433E+00
          3   -1    0    0  501    0  0.00000000000E+00  0.00000000000E+00  0.60730809524E+03  0.60730809524E+03  0.00000000000E+00 0. -1.
         -3   -1    0    0    0  501 -0.00000000000E+00 -0.00000000000E+00 -0.82192366541E+02  0.82192366541E+02  0.00000000000E+00 0.  1.
         25    2    1    2    0    0  0.16523754623E+02 -0.17051804009E+03  0.41540662330E+03  0.46643585683E+03  0.12510119663E+03 0.  0.
          5    1    3    3  502    0 -0.35699987442E+02 -0.14946832986E+03  0.33004014037E+03  0.36408685419E+03  0.41800000000E+01 0. -1.
         -5    1    3    3    0  502  0.52223742065E+02 -0.21049710234E+02  0.85366482921E+02  0.10234900265E+03  0.41800000000E+01 0. -1.
        -11    1    1    2    0    0 -0.27303711191E+02  0.58780577006E+01  0.72780037645E+01  0.28861974047E+02  0.00000000000E+00 0.  1.
         11    1    1    2    0    0  0.10779956567E+02  0.16463998239E+03  0.10243110164E+03  0.19420263090E+03  0.00000000000E+00 0. -1.
</event>
<event>
 7    1  0.2420569E-009  0.6940327E+02  0.7561462E-02  0.1362134E+00
          4   -1    0    0  501    0  0.00000000000E+00  0.00000000000E+00  0.46476740320E+02  0.46476740320E+02  0.00000000000E+00 0. -1.
         -4   -1    0    0    0  501 -0.00000000000E+00 -0.00000000000E+00 -0.36858070193E+03  0.36858070193E+03  0.00000000000E+00 0.  1.
         25    2    1    2    0    0 -0.72056101343E+01  0.92381522463E+01 -0.29667819664E+03  0.32218320426E+03  0.12508717150E+03 0.  0.
          5    1    3    3  502    0 -0.27942321304E+02 -0.62194766924E+01 -0.29447328714E+03  0.29589093337E+03  0.41800000000E+01 0. -1.
         -5    1    3    3    0  502  0.20736711170E+02  0.15457628939E+02 -0.22049094916E+01  0.26292270887E+02  0.41800000000E+01 0. -1.
        -11    1    1    2    0    0 -0.34035489779E+02  0.13462418368E+02 -0.27455907946E+02  0.45754542440E+02  0.00000000000E+00 0.  1.
         11    1    1    2    0    0  0.41241099913E+02 -0.22700570614E+02  0.20301429734E+01  0.47119695550E+02  0.00000000000E+00 0. -1.
</event>
<event>
 7    1  0.2420569E-009  0.7879473E+02  0.7561462E-02  0.1332507E+00
          1   -1    0    0  501    0  0.00000000000E+00  0.00000000000E+00  0.39170561194E+02  0.39170561194E+02  0.00000000000E+00 0. -1.
         -1   -1    0    0    0  501 -0.00000000000E+00 -0.00000000000E+00 -0.40370273039E+03  0.40370273039E+03  0.00000000000E+00 0.  1.
         25    2    1    2    0    0 -0.58533530623E+02 -0.13785560754E+02 -0.21606426014E+03  0.25680408563E+03  0.12509339709E+03 0.  0.
          5    1    3    3  502    0 -0.31472231411E+02 -0.25092969730E+02 -0.18065365404E+01  0.40507955443E+02  0.41800000000E+01 0.  1.
         -5    1    3    3    0  502 -0.27061299211E+02  0.11307408976E+02 -0.21425772360E+03  0.21629613019E+03  0.41800000000E+01 0.  1.
        -11    1    1    2    0    0  0.58101335957E+02 -0.13954281044E+02 -0.14654546270E+03  0.15825946997E+03  0.00000000000E+00 0.  1.
         11    1    1    2    0    0  0.43219466615E+00  0.27739841798E+02 -0.19224463605E+01  0.27809735979E+02  0.00000000000E+00 0. -1.
</event>
<event>
 7    1  0.2420569E-009  0.6454698E+02  0.7561462E-02  0.1379684E+00
         -3   -1    0    0    0  501 -0.00000000000E+00  0.00000000000E+00  0.99556491952E+02  0.99556491952E+02  0.00000000000E+00 0.  1.
          3   -1    0    0  501    0  0.00000000000E+00 -0.00000000000E+00 -0.18957851840E+03  0.18957851840E+03  0.00000000000E+00 0. -1.
         25    2    1    2    0    0  0.40056598745E+02  0.25119324951E+02 -0.12273108039E+03  0.18150872906E+03  0.12508792524E+03 0.  0.
          5    1    3    3  502    0 -0.13897977378E+02  0.60065484683E+01  0.21299529867E+02  0.26464594693E+02  0.41800000000E+01 0. -1.
         -5    1    3    3    0  502  0.53954576123E+02  0.19112776483E+02 -0.14403061026E+03  0.15504413437E+03  0.41800000000E+01 0. -1.
        -11    1    1    2    0    0 -0.34631870572E+02 -0.47988229898E+01 -0.27094327390E+02  0.44232315542E+02  0.00000000000E+00 0. -1.
         11    1    1    2    0    0 -0.54247281724E+01 -0.20320501962E+02  0.59803381331E+02  0.63393965756E+02  0.00000000000E+00 0.  1.
</event>
<event>
 7    1  0.2420569E-009  0.8346998E+02  0.7561462E-02  0.1319483E+00
         -1   -1    0    0    0  501 -0.00000000000E+00  0.00000000000E+00  0.16489298857E+03  0.16489298857E+03  0.00000000000E+00 0.  1.
          1   -1    0    0  501    0  0.00000000000E+00 -0.00000000000E+00 -0.88094891137E+02  0.88094891137E+02  0.00000000000E+00 0. -1.
         25    2    1    2    0    0 -0.32625057553E+02 -0.16866577812E+02 -0.35819031853E+01  0.13042348325E+03  0.12509428094E+03 0.  0.
          5    1    3    3  502    0 -0.70336828375E+02 -0.71312739613E+01  0.31804920136E+02  0.77634720577E+02  0.41800000000E+01 0.  1.
         -5    1    3    3    0  502  0.37711770823E+02 -0.97353038509E+01 -0.35386823321E+02  0.52788762672E+02  0.41800000000E+01 0.  1.
        -11    1    1    2    0    0  0.22650244540E+02  0.31767784558E+02  0.92855944410E+02  0.10071967100E+03  0.00000000000E+00 0.  1.
         11    1    1    2    0    0  0.99748130126E+01 -0.14901206746E+02 -0.12475943790E+02  0.21844725463E+02  0.00000000000E+00 0. -1.
</event>
<event>
 7    1  0.2420569E-009  0.1148624E+03  0.7561462E-02  0.1251821E+00
         -2   -1    0    0    0  501 -0.00000000000E+00  0.00000000000E+00  0.10573278658E+04  0.10573278658E+04  0.00000000000E+00 0.  1.
          2   -1    0    0  501    0  0.00000000000E+00 -0.00000000000E+00 -0.15709695767E+02  0.15709695767E+02  0.00000000000E+00 0. -1.
         25    2    1    2    0    0 -0.59908411822E+02 -0.68909965321E+01  0.41954361839E+03  0.44193237351E+03  0.12510344274E+03 0.  0.
          5    1    3    3  502    0 -0.45293639700E+02 -0.55909775341E+02  0.13737742747E+03  0.15513686459E+03  0.41800000000E+01 0. -1.
         -5    1    3    3    0  502 -0.14614772122E+02  0.49018778808E+02  0.28216619092E+03  0.28679550892E+03  0.41800000000E+01 0. -1.
        -11    1    1    2    0    0 -0.21897703392E+02  0.10824511124E+02  0.13463843491E+03  0.13683635340E+03  0.00000000000E+00 0.  1.
         11    1    1    2    0    0  0.81806115214E+02 -0.39335145916E+01  0.48743611671E+03  0.49426883464E+03  0.00000000000E+00 0. -1.
</event>
<event>
 7    1  0.2420569E-009  0.1569243E+03  0.7561462E-02  0.1192214E+00
          2   -1    0    0  501    0  0.00000000000E+00  0.00000000000E+00  0.89256755128E+03  0.89256755128E+03  0.00000000000E+00 0.  1.
         -2   -1    0    0    0  501 -0.00000000000E+00 -0.00000000000E+00 -0.29657343447E+02  0.29657343447E+02  0.00000000000E+00 0. -1.
         25    2    1    2    0    0  0.11828612737E+03  0.19397992805E+02  0.49624822620E+03  0.52562161956E+03  0.12509154602E+03 0.  0.
          5    1    3    3  502    0  0.48294776575E+02 -0.47657194036E+02  0.28753020760E+03  0.29545674179E+03  0.41800000000E+01 0.  1.
         -5    1    3    3    0  502  0.69991350796E+02  0.67055186841E+02  0.20871801861E+03  0.23016487777E+03  0.41800000000E+01 0.  1.
        -11    1    1    2    0    0  0.54448235524E+01  0.18629168216E+02  0.75676601222E+02  0.78125795896E+02  0.00000000000E+00 0.  1.
         11    1    1    2    0    0 -0.12373095092E+03 -0.38027161021E+02  0.29098538041E+03  0.31847747927E+03  0.00000000000E+00 0. -1.
</event>
<event>
 7    1  0.2420569E-009  0.1223483E+03  0.7561462E-02  0.1239273E+00
         -1   -1    0    0    0  501 -0.00000000000E+00  0.00000000000E+00  0.29716540299E+02  0.29716540299E+02  0.00000000000E+00 0.  1.
          1   -1    0    0  501    0  0.00000000000E+00 -0.00000000000E+00 -0.56600255857E+03  0.56600255857E+03  0.00000000000E+00 0. -1.
         25    2    1    2    0    0 -0.13652192508E+02 -0.50220278716E+02 -0.37018231905E+03  0.39419658639E+03  0.12509013001E+03 0.  0.
          5    1    3    3  502    0 -0.31482618568E+02  0.34726411559E+02 -0.15948073928E+03  0.16627885474E+03  0.41800000000E+01 0.  1.
         -5    1    3    3    0  502  0.17830426060E+02 -0.84946690275E+02 -0.21070157977E+03  0.22791773165E+03  0.41800000000E+01 0.  1.
        -11    1    1    2    0    0  0.52531683710E+02  0.49005151897E+02 -0.12959198470E+03  0.14817275459E+03  0.00000000000E+00 0. -1.
         11    1    1    2    0    0 -0.38879491202E+02  0.12151268190E+01 -0.36511714521E+02  0.53349757887E+02  0.00000000000E+00 0.  1.
</event>
<event>
 7    1  0.2420569E-009  0.1677292E+03  0.7561462E-02  0.1180237E+00
         -2   -1    0    0    0  501 -0.00000000000E+00  0.00000000000E+00  0.77732913976E+02  0.77732913976E+02  0.00000000000E+00 0.  1.
          2   -1    0    0  501    0  0.00000000000E+00 -0.00000000000E+00 -0.68655366226E+03  0.68655366226E+03  0.00000000000E+00 0. -1.
         25    2    1    2    0    0  0.39498723787E+02 -0.15721025791E+03 -0.11133554655E+03  0.23306294599E+03  0.12509004156E+03 0.  0.
          5    1    3    3  502    0  0.49365411331E+01 -0.84234856767E+02  0.12261975939E+02  0.85368079437E+02  0.41800000000E+01 0. -1.
         -5    1    3    3    0  502  0.34562182654E+02 -0.72975401146E+02 -0.12359752249E+03  0.14769486656E+03  0.41800000000E+01 0. -1.
        -11    1    1    2    0    0 -0.52250562772E+02  0.12730405477E+03 -0.46627152095E+03  0.48615385931E+03  0.00000000000E+00 0. -1.
         11    1    1    2    0    0  0.12751838985E+02  0.29906203140E+02 -0.31213680784E+02  0.45069770932E+02  0.00000000000E+00 0.  1.
</event>
<event>
 7    1  0.2420569E-009  0.1159032E+03  0.7561462E-02  0.1250013E+00
         -2   -1    0    0    0  501 -0.00000000000E+00  0.00000000000E+00  0.11269358768E+02  0.11269358768E+02  0.00000000000E+00 0.  1.
          2   -1    0    0  501    0  0.00000000000E+00 -0.00000000000E+00 -0.15400685234E+04  0.15400685234E+04  0.00000000000E+00 0. -1.
         25    2    1    2    0    0 -0.28991148813E+02  0.42038828709E+02 -0.12175549305E+04  0.12250288122E+04  0.12509129545E+03 0.  0.
          5    1    3    3  502    0 -0.60296737129E+02  0.69654783468E+02 -0.90053090747E+03  0.90524078183E+03  0.41800000000E+01 0. -1.
         -5    1    3    3    0  502  0.31305588316E+02 -0.27615954759E+02 -0.31702402300E+03  0.31978803038E+03  0.41800000000E+01 0. -1.
        -11    1    1    2    0    0  0.58489311252E+02 -0.25442131813E+02 -0.21652709550E+03  0.22572612761E+03  0.00000000000E+00 0. -1.
         11    1    1    2    0    0 -0.29498162439E+02 -0.16596696896E+02 -0.94717138663E+02  0.10058294235E+03  0.00000000000E+00 0.  1.
</event>
<event>
 7    1  0.2420569E-009  0.9047118E+02  0.7561462E-02  0.1301715E+00
         -1   -1    0    0    0  501 -0.00000000000E+00  0.00000000000E+00  0.96646496811E+02  0.96646496811E+02  0.00000000000E+00 0.  1.
          1   -1    0    0  501    0  0.00000000000E+00 -0.00000000000E+00 -0.13753050526E+03  0.13753050526E+03  0.00000000000E+00 0. -1.
         25    2    1    2    0    0  0.35197421676E+02 -0.18748509201E+02 -0.32362497166E+02  0.13522388471E+03  0.12509117748E+03 0.  0.
          5    1    3    3  502    0 -0.21964137398E+02 -0.18472737062E+02 -0.63635036085E+02  0.69932507203E+02  0.41800000000E+01 0. -1.
         -5    1    3    3    0  502  0.57161559074E+02 -0.27577213870E+00  0.31272538919E+02  0.65291377505E+02  0.41800000000E+01 0. -1.
        -11    1    1    2    0    0 -0.54175812496E+02  0.39089270262E+02 -0.18628953892E+02  0.69354362749E+02  0.00000000000E+00 0. -1.
         11    1    1    2    0    0  0.18978390819E+02 -0.20340761062E+02  0.10107442608E+02  0.29598754615E+02  0.00000000000E+00 0.  1.
</event>
<event>
 7    1  0.2420569E-009  0.1552154E+03  0.7561462E-02  0.1194207E+00
         -2   -1    0    0    0  501 -0.00000000000E+00  0.00000000000E+00  0.76488676933E+02  0.76488676933E+02  0.00000000000E+00 0.  1.
          2   -1    0    0  501    0  0.00000000000E+00 -0.00000000000E+00 -0.47585212199E+03  0.47585212199E+03  0.00000000000E+00 0. -1.
         25    2    1    2    0    0  0.73007017495E+02  0.10034220646E+03 -0.71878417690E+02  0.19029596270E+03  0.12508982169E+03 0.  0.
          5    1    3    3  502    0  0.57905497568E+02  0.11909755646E+03 -0.89740013745E+02  0.16002505139E+03  0.41800000000E+01 0.  1.
         -5    1    3    3    0  502  0.15101519927E+02 -0.18755350007E+02  0.17861596055E+02  0.30270911312E+02  0.41800000000E+01 0.  1.
        -11    1    1    2    0    0 -0.93160473587E+02 -0.67802735595E+02 -0.22823546400E+03  0.25567070975E+03  0.00000000000E+00 0. -1.
         11    1    1    2    0    0  0.20153456092E+02 -0.32539470861E+02 -0.99249563363E+02  0.10637412648E+03  0.00000000000E+00 0.  1.
</event>
<event>
 7    1  0.2420569E-009  0.1842416E+03  0.7561462E-02  0.1163760E+00
         -2   -1    0    0    0  501 -0.00000000000E+00  0.00000000000E+00  0.72550355554E+02  0.72550355554E+02  0.00000000000E+00 0.  1.
          2   -1    0    0  501    0  0.00000000000E+00 -0.00000000000E+00 -0.53333248758E+03  0.53333248758E+03  0.00000000000E+00 0. -1.
         25    2    1    2    0    0  0.15782206742E+03 -0.14718025780E+02 -0.17961417210E+03  0.27024249710E+03  0.12508129823E+03 0.  0.
          5    1    3    3  502    0  0.17749329008E+03 -0.18689037166E+02 -0.14489832148E+03  0.22992638844E+03  0.41800000000E+01 0. -1.
         -5    1    3    3    0  502 -0.19671222660E+02  0.39710113864E+01 -0.34715850629E+02  0.40316108657E+02  0.41800000000E+01 0. -1.
        -11    1    1    2    0    0 -0.19028139297E+02 -0.18723433708E+02 -0.87728703911E+01  0.28099827577E+02  0.00000000000E+00 0.  1.
         11    1    1    2    0    0 -0.13879392812E+03  0.33441459488E+02 -0.27239508953E+03  0.30754051847E+03  0.00000000000E+00 0. -1.
</event>
<event>
 7    1  0.2420569E-009  0.1563403E+03  0.7561462E-02  0.1192892E+00
          1   -1    0    0  501    0  0.00000000000E+00  0.00000000000E+00  0.18511727580E+04  0.18511727580E+04  0.00000000000E+00 0. -1.
         -1   -1    0    0    0  501 -0.00000000000E+00 -0.00000000000E+00 -0.14585036201E+02  0.14585036201E+02  0.00000000000E+00 0.  1.
         25    2    1    2    0    0 -0.22832873178E+02  0.11728879084E+03  0.11661863497E+04  0.11789471106E+04  0.12509071376E+03 0.  0.
          5    1    3    3  502    0  0.40033710301E+02  0.14125575245E+02  0.16242863367E+03  0.16793678356E+03  0.41800000000E+01 0.  1.
         -5    1    3    3    0  502 -0.62866583479E+02  0.10316321560E+03  0.10037577161E+04  0.10110103270E+04  0.41800000000E+01 0.  1.
        -11    1    1    2    0    0  0.41136374927E+02 -0.12829647071E+02  0.20487483579E+03  0.20935734887E+03  0.00000000000E+00 0.  1.
         11    1    1    2    0    0 -0.18303501749E+02 -0.10445914377E+03  0.46552653624E+03  0.47745333473E+03  0.00000000000E+00 0. -1.
</event>
<event>
 7    1  0.2420569E-009  0.1118175E+03  0.7561462E-02  0.1257241E+00
          2   -1    0    0  501    0  0.00000000000E+00  0.00000000000E+00  0.10354084207E+04  0.10354084207E+04  0.00000000000E+00 0. -1.
         -2   -1    0    0    0  501 -0.00000000000E+00 -0.00000000000E+00 -0.20298757762E+02  0.20298757762E+02  0.00000000000E+00 0.  1.
         25    2    1    2    0    0 -0.87987950381E+02 -0.14993783534E+02  0.67793875485E+03  0.69513720761E+03  0.12509232243E+03 0.  0.
          5    1    3    3  502    0 -0.49637719024E+02 -0.57841618367E+02  0.54381409032E+03  0.54914551186E+03  0.41800000000E+01 0.  1.
         -5    1    3    3    0  502 -0.38350231357E+02  0.42847834833E+02  0.13412466452E+03  0.14599169575E+03  0.41800000000E+01 0.  1.
        -11    1    1    2    0    0  0.69848208016E+02  0.84359577157E+01  0.33361909782E+03  0.34095694739E+03  0.00000000000E+00 0. -1.
         11    1    1    2    0    0  0.18139742365E+02  0.65578258183E+01  0.35518102617E+01  0.19613023445E+02  0.00000000000E+00 0.  1.
</event>
<event>
 7    1  0.2420569E-009  0.1277111E+03  0.7561462E-02  0.1230892E+00
         -1   -1    0    0    0  501 -0.00000000000E+00  0.00000000000E+00  0.89249384299E+02  0.89249384299E+02  0.00000000000E+00 0.  1.
          1   -1    0    0  501    0  0.00000000000E+00 -0.00000000000E+00 -0.20623120454E+03  0.20623120454E+03  0.00000000000E+00 0. -1.
         25    2    1    2    0    0 -0.20321262095E+02 -0.69780483629E+02 -0.23785695683E+02  0.14661749183E+03  0.12509460421E+03 0.  0.
          5    1    3    3  502    0 -0.56120715482E+02 -0.86768838896E+02 -0.26235815746E+02  0.10669656291E+03  0.41800000000E+01 0.  1.
         -5    1    3    3    0  502  0.35799453387E+02  0.16988355266E+02  0.24501200628E+01  0.39920928919E+02  0.41800000000E+01 0.  1.
        -11    1    1    2    0    0 -0.52683808066E+01  0.83127741405E+02 -0.50760262899E+02  0.97542716371E+02  0.00000000000E+00 0.  1.
         11    1    1    2    0    0  0.25589642902E+02 -0.13347257776E+02 -0.42435861662E+02  0.51320380639E+02  0.00000000000E+00 0. -1.
</event>
<event>
 7    1  0.2420569E-009  0.2209539E+03  0.7561462E-02  0.1133174E+00
          2   -1    0    0  501    0  0.00000000000E+00  0.00000000000E+00  0.14107642509E+04  0.14107642509E+04  0.00000000000E+00 0. -1.
         -2   -1    0    0    0  501 -0.00000000000E+00 -0.00000000000E+00 -0.39851633003E+02  0.39851633003E+02  0.00000000000E+00 0.  1.
         25    2    1    2    0    0  0.17477353843E+03 -0.83531768315E+02  0.95550424746E+03  0.98293529483E+03  0.12510028321E+03 0.  0.
          5    1    3    3  502    0  0.12475866328E+03 -0.11630621030E+03  0.69934948612E+03  0.71986042727E+03  0.41800000000E+01 0.  1.
         -5    1    3    3    0  502  0.50014875152E+02  0.32774441986E+02  0.25615476134E+03  0.26307486756E+03  0.41800000000E+01 0.  1.
        -11    1    1    2    0    0 -0.52983154343E+02  0.71465833220E+02  0.13439166777E+03  0.16116978727E+03  0.00000000000E+00 0.  1.
         11    1    1    2    0    0 -0.12179038409E+03  0.12065935095E+02  0.28101670269E+03  0.30651080182E+03  0.00000000000E+00 0. -1.
</event>
<event>
 7    1  0.2420569E-009  0.2206897E+03  0.7561462E-02  0.1133370E+00
         -1   -1    0    0    0  501 -0.00000000000E+00  0.00000000000E+00  0.21327611528E+03  0.21327611528E+03  0.00000000000E+00 0.  1.
          1   -1    0    0  501    0  0.00000000000E+00 -0.00000000000E+00 -0.23158243818E+03  0.23158243818E+03  0.00000000000E+00 0. -1.
         25    2    1    2    0    0  0.18739080171E+03  0.45180024937E+02  0.59281995988E+01  0.22986817313E+03  0.12509071208E+03 0.  0.
          5    1    3    3  502    0  0.20209902371E+03  0.55122134340E+02  0.13856477203E+02  0.20998080731E+03  0.41800000000E+01 0.  1.
         -5    1    3    3    0  502 -0.14708221993E+02 -0.99421094031E+01 -0.79282776045E+01  0.19887365822E+02  0.41800000000E+01 0.  1.
        -11    1    1    2    0    0 -0.58558373640E+02 -0.60115508668E+02 -0.10029852822E+02  0.84519556633E+02  0.00000000000E+00 0.  1.
         11    1    1    2    0    0 -0.12883242807E+03  0.14935483731E+02 -0.14204669680E+02  0.13047082370E+03  0.00000000000E+00 0. -1.
</event>
<event>
 7    1  0.2420569E-009  0.1271883E+03  0.7561462E-02  0.1231688E+00
          2   -1    0    0  501    0  0.00000000000E+00  0.00000000000E+00  0.16868644926E+03  0.16868644926E+03  0.00000000000E+00 0. -1.
         -2   -1    0    0    0  501 -0.00000000000E+00 -0.00000000000E+00 -0.15633790926E+03  0.15633790926E+03  0.00000000000E+00 0.  1.
         25    2    1    2    0    0  0.62575646169E+02 -0.74763538740E+02 -0.64336560340E+02  0.17115242658E+03  0.12509461183E+03 0.  0.
          5    1    3    3  502    0 -0.18931171150E+02  0.11171708342E+02 -0.46099549991E+02  0.51242923588E+02  0.41800000000E+01 0.  1.
         -5    1    3    3    0  502  0.81506817319E+02 -0.85935247082E+02 -0.18237010349E+02  0.11990950299E+03  0.41800000000E+01 0.  1.
        -11    1    1    2    0    0 -0.73064964642E+02  0.72132350005E+02  0.90128393663E+02  0.13661878465E+03  0.00000000000E+00 0. -1.
         11    1    1    2    0    0  0.10489318473E+02  0.26311887353E+01 -0.13443293323E+02  0.17253147295E+02  0.00000000000E+00 0.  1.
</event>
<event>
 7    1  0.2420569E-009  0.1035847E+03  0.7561462E-02  0.1272934E+00
         -3   -1    0    0    0  501 -0.00000000000E+00  0.00000000000E+00  0.21655209360E+03  0.21655209360E+03  0.00000000000E+00 0.  1.
          3   -1    0    0  501    0  0.00000000000E+00 -0.00000000000E+00 -0.77223679147E+02  0.77223679147E+02  0.00000000000E+00 0. -1.
         25    2    1    2    0    0  0.64618345076E+02 -0.87331761992E+01  0.11899209609E+03  0.18454959982E+03  0.12509051512E+03 0.  0.
          5    1    3    3  502    0 -0.23073209088E+02 -0.38382329871E+02  0.58891720811E+02  0.74103194290E+02  0.41800000000E+01 0.  1.
         -5    1    3    3    0  502  0.87691554164E+02  0.29649153672E+02  0.60100375275E+02  0.11044640552E+03  0.41800000000E+01 0.  1.
        -11    1    1    2    0    0 -0.54449089927E+02  0.16318424721E+02 -0.25037769750E+02  0.62111869182E+02  0.00000000000E+00 0. -1.
         11    1    1    2    0    0 -0.10169255149E+02 -0.75852485213E+01  0.45374088116E+02  0.47114303749E+02  0.00000000000E+00 0.  1.
</event>
<event>
 7    1  0.2420569E-009  0.1214051E+03  0.7561462E-02  0.1240797E+00
         -2   -1    0    0    0  501 -0.00000000000E+00  0.00000000000E+00  0.68464730606E+02  0.68464730606E+02  0.00000000000E+00 0. -1.
          2   -1    0    0  501    0  0.00000000000E+00 -0.00000000000E+00 -0.29472908174E+03  0.29472908174E+03  0.00000000000E+00 0.  1.
         25    2    1    2    0    0  0.64407620779E+02 -0.63086675525E+02 -0.93393167367E+02  0.18027262319E+03  0.12509062602E+03 0.  0.
          5    1    3    3  502    0 -0.26576508018E+01 -0.79934471226E+02 -0.72199816584E+02  0.10782795886E+03  0.41800000000E+01 0.  1.
         -5    1    3    3    0  502  0.67065271581E+02  0.16847795701E+02 -0.21193350782E+02  0.72444664328E+02  0.41800000000E+01 0.  1.
        -11    1    1    2    0    0 -0.52097378209E+02  0.62155719485E+02 -0.14466507435E+03  0.16584768318E+03  0.00000000000E+00 0.  1.
         11    1    1    2    0    0 -0.12310242570E+02  0.93095604014E+00  0.11793890577E+02  0.17073505973E+02  0.00000000000E+00 0. -1.
</event>
<event>
 7    1  0.2420569E-009  0.1338614E+03  0.7561462E-02  0.1221836E+00
          2   -1    0    0  501    0  0.00000000000E+00  0.00000000000E+00  0.74309143700E+02  0.74309143700E+02  0.00000000000E+00 0. -1.
         -2   -1    0    0    0  501 -0.00000000000E+00 -0.00000000000E+00 -0.34313344005E+03  0.34313344005E+03  0.00000000000E+00 0.  1.
         25    2    1    2    0    0  0.80648455204E+02 -0.14728072990E+02 -0.35375009250E+02  0.15368880334E+03  0.12509103698E+03 0.  0.
          5    1    3    3  502    0  0.13573085707E+02  0.51339684927E+02 -0.70658525965E+00  0.53272540457E+02  0.41800000000E+01 0. -1.
         -5    1    3    3    0  502  0.67075369496E+02 -0.66067757918E+02 -0.34668423991E+02  0.10041626288E+03  0.41800000000E+01 0. -1.
        -11    1    1    2    0    0 -0.69339756518E+02  0.48486785263E+02 -0.18681720738E+03  0.20508446833E+03  0.00000000000E+00 0.  1.
         11    1    1    2    0    0 -0.11308698686E+02 -0.33758712273E+02 -0.46632079721E+02  0.58669312076E+02  0.00000000000E+00 0. -1.
</event>
<event>
 7    1  0.2420569E-009  0.1570973E+03  0.7561462E-02  0.1192013E+00
          1   -1    0    0  501    0  0.00000000000E+00  0.00000000000E+00  0.12993929907E+03  0.12993929907E+03  0.00000000000E+00 0. -1.
         -1   -1    0    0    0  501 -0.00000000000E+00 -0.00000000000E+00 -0.25006517747E+03  0.25006517747E+03  0.00000000000E+00 0.  1.
         25    2    1    2    0    0 -0.10652465629E+02 -0.13393203435E+03 -0.13755578464E+02  0.18408501052E+03  0.12508721081E+03 0.  0.
          5    1    3    3  502    0  0.40054288105E+02 -0.12147629561E+02  0.21823695884E+02  0.47388363567E+02  0.41800000000E+01 0. -1.
         -5    1    3    3    0  502 -0.50706753734E+02 -0.12178440479E+03 -0.35579274348E+02  0.13669664695E+03  0.41800000000E+01 0. -1.
        -11    1    1    2    0    0  0.25655722262E+02  0.95575219465E+02 -0.11714318071E+03  0.15334719902E+03  0.00000000000E+00 0.  1.
         11    1    1    2    0    0 -0.15003256633E+02  0.38356814884E+02  0.10772880768E+02  0.42572267002E+02  0.00000000000E+00 0. -1.
</event>
<event>
 7    1  0.2420569E-009  0.2276872E+03  0.7561462E-02  0.1128278E+00
         -1   -1    0    0    0  501 -0.00000000000E+00  0.00000000000E+00  0.49092202699E+02  0.49092202699E+02  0.00000000000E+00 0.  1.
          1   -1    0    0  501    0  0.00000000000E+00 -0.00000000000E+00 -0.12435724005E+04  0.12435724005E+04  0.00000000000E+00 0. -1.
         25    2    1    2    0    0 -0.15939707788E+03  0.15069302703E+03 -0.72793070153E+03  0.77048413740E+03  0.12508750107E+03 0.  0.
          5    1    3    3  502    0 -0.16206661307E+03  0.15534589719E+03 -0.72969421419E+03  0.76345861280E+03  0.41800000000E+01 0. -1.
         -5    1    3    3    0  502  0.26695351899E+01 -0.46528701622E+01  0.17635126627E+01  0.70255245916E+01  0.41800000000E+01 0. -1.
        -11    1    1    2    0    0  0.11473340807E+03 -0.78048112394E+02 -0.20892151922E+03  0.25080562986E+03  0.00000000000E+00 0.  1.
         11    1    1    2    0    0  0.44663669805E+02 -0.72644914636E+02 -0.25762797709E+03  0.27137483598E+03  0.00000000000E+00 0. -1.
</event>
<event>
 7    1  0.2420569E-009  0.9281645E+02  0.7561462E-02  0.1296171E+00
          2   -1    0    0  501    0  0.00000000000E+00  0.00000000000E+00  0.11678580321E+04  0.11678580321E+04  0.00000000000E+00 0. -1.
         -2   -1    0    0    0  501 -0.00000000000E+00 -0.00000000000E+00 -0.19543532144E+02  0.19543532144E+02  0.00000000000E+00 0.  1.
         25    2    1    2    0    0  0.43084276009E+01  0.28617774373E+02  0.10137023032E+04  0.10218008328E+04  0.12508813990E+03 0.  0.
          5    1    3    3  502    0 -0.40067266485E+02  0.47534444106E+02  0.29704486216E+03  0.30350952499E+03  0.41800000000E+01 0.  1.
         -5    1    3    3    0  502  0.44375694085E+02 -0.18916669733E+02  0.71665744108E+03  0.71829130781E+03  0.41800000000E+01 0.  1.
        -11    1    1    2    0    0  0.18646093672E+02 -0.43649696731E+02  0.12918729225E+03  0.13763113496E+03  0.00000000000E+00 0. -1.
         11    1    1    2    0    0 -0.22954521273E+02  0.15031922359E+02  0.54249044156E+01  0.27969596432E+02  0.00000000000E+00 0.  1.
</event>
<event>
 7    1  0.2420569E-009  0.1588333E+03  0.7561462E-02  0.1190020E+00
          3   -1    0    0  501    0  0.00000000000E+00  0.00000000000E+00  0.60168152237E+02  0.60168152237E+02  0.00000000000E+00 0. -1.
         -3   -1    0    0    0  501 -0.00000000000E+00 -0.00000000000E+00 -0.47151221204E+03  0.47151221204E+03  0.00000000000E+00 0.  1.
         25    2    1    2    0    0  0.43127423636E+02 -0.11627273749E+03 -0.26937163294E+03  0.32184923185E+03  0.12508607940E+03 0.  0.
          5    1    3    3  502    0  0.83854237840E+02 -0.86161598902E+02 -0.15125945438E+03  0.19326730005E+03  0.41800000000E+01 0.  1.
         -5    1    3    3    0  502 -0.40726814204E+02 -0.30111138583E+02 -0.11811217855E+03  0.12858193180E+03  0.41800000000E+01 0.  1.
        -11    1    1    2    0    0  0.20226041494E+02  0.94026637173E+01 -0.51560883392E+02  0.56178532694E+02  0.00000000000E+00 0.  1.
         11    1    1    2    0    0 -0.63353465130E+02  0.10687007377E+03 -0.90411543473E+02  0.15365259973E+03  0.00000000000E+00 0. -1.
</event>
<event>
 7    1  0.2420569E-009  0.9471094E+02  0.7561462E-02  0.1291828E+00
          1   -1    0    0  501    0  0.00000000000E+00  0.00000000000E+00  0.21223998423E+03  0.21223998423E+03  0.00000000000E+00 0. -1.
         -1   -1    0    0    0  501 -0.00000000000E+00 -0.00000000000E+00 -0.62469445680E+02  0.62469445680E+02  0.00000000000E+00 0.  1.
         25    2    1    2    0    0 -0.39839145722E+01 -0.36484766352E+02  0.76441954857E+02  0.15112191479E+03  0.12508977143E+03 0.  0.
          5    1    3    3  502    0  0.22736882379E+02  0.18261490460E+02 -0.20964391131E+02  0.36158345504E+02  0.41800000000E+01 0. -1.
         -5    1    3    3    0  502 -0.26720796951E+02 -0.54746256812E+02  0.97406345988E+02  0.11496356929E+03  0.41800000000E+01 0. -1.
        -11    1    1    2    0    0  0.28215607192E+02  0.59266103435E+02  0.54848406326E+02  0.85539109079E+02  0.00000000000E+00 0.  1.
         11    1    1    2    0    0 -0.24231692620E+02 -0.22781337083E+02  0.18480177363E+02  0.38048406036E+02  0.00000000000E+00 0. -1.
</event>
<event>
 7    1  0.2420569E-009  0.1092020E+03  0.7561462E-02  0.1262055E+00
         -2   -1    0    0    0  501 -0.00000000000E+00  0.00000000000E+00  0.32478493011E+02  0.32478493011E+02  0.00000000000E+00 0. -1.
          2   -1    0    0  501    0  0.00000000000E+00 -0.00000000000E+00 -0.46347759904E+03  0.46347759904E+03  0.00000000000E+00 0.  1.
         25    2    1    2    0    0  0.21576820881E+02 -0.10536511135E+02 -0.13238432294E+03  0.18371049897E+03  0.12508941284E+03 0.  0.
          5    1    3    3  502    0  0.71967562545E+02  0.98170139192E+01 -0.71847539361E+02  0.10225089307E+03  0.41800000000E+01 0.  1.
         -5    1    3    3    0  502 -0.50390741664E+02 -0.20353525054E+02 -0.60536783575E+02  0.81459605899E+02  0.41800000000E+01 0.  1.
        -11    1    1    2    0    0 -0.29776706915E+01  0.48646140664E+02 -0.15213038059E+03  0.15974656874E+03  0.00000000000E+00 0. -1.
         11    1    1    2    0    0 -0.18599150190E+02 -0.38109629529E+02 -0.14648440250E+03  0.15249902435E+03  0.00000000000E+00 0.  1.
</event>
<event>
 7    1  0.2420569E-009  0.3345612E+03  0.7561462E-02  0.1069136E+00
          1   -1    0    0  501    0  0.00000000000E+00  0.00000000000E+00  0.59578281954E+03  0.59578281954E+03  0.00000000000E+00 0. -1.
         -1   -1    0    0    0  501 -0.00000000000E+00 -0.00000000000E+00 -0.22105563027E+03  0.22105563027E+03  0.00000000000E+00 0.  1.
         25    2    1    2    0    0  0.29743304892E+03  0.14568267730E+03  0.30234064526E+03  0.46556206046E+03  0.12509318648E+03 0.  0.
          5    1    3    3  502    0  0.25237936748E+03  0.10485411000E+03  0.29814630841E+03  0.40447301904E+03  0.41800000000E+01 0. -1.
         -5    1    3    3    0  502  0.45053681448E+02  0.40828567298E+02  0.41943368462E+01  0.61089041417E+02  0.41800000000E+01 0. -1.
        -11    1    1    2    0    0 -0.14590711459E+03 -0.98903018678E+02  0.77632322199E+02  0.19260703684E+03  0.00000000000E+00 0.  1.
         11    1    1    2    0    0 -0.15152593434E+03 -0.46779658621E+02 -0.52457781861E+01  0.15866935251E+03  0.00000000000E+00 0. -1.
</event>
<event>
 7    1  0.2420569E-009  0.2157070E+03  0.7561462E-02  0.1137125E+00
         -2   -1    0    0    0  501 -0.00000000000E+00  0.00000000000E+00  0.23195829378E+02  0.23195829378E+02  0.00000000000E+00 0.  1.
          2   -1    0    0  501    0  0.00000000000E+00 -0.00000000000E+00 -0.23204551610E+04  0.23204551610E+04  0.00000000000E+00 0. -1.
         25    2    1    2    0    0 -0.20042079643E+03  0.39514953427E+02 -0.12287789086E+04  0.12519090372E+04  0.12509477980E+03 0.  0.
          5    1    3    3  502    0 -0.23789317879E+02  0.18522822240E+02 -0.52866363773E+03  0.52953917782E+03  0.41800000000E+01 0. -1.
         -5    1    3    3    0  502 -0.17663147855E+03  0.20992131187E+02 -0.70011527090E+03  0.72236985937E+03  0.41800000000E+01 0. -1.
        -11    1    1    2    0    0  0.14585369443E+03  0.14123964302E+02 -0.64866848207E+03  0.66501397442E+03  0.00000000000E+00 0.  1.
         11    1    1    2    0    0  0.54567101995E+02 -0.53638917729E+02 -0.41981194090E+03  0.42672797874E+03  0.00000000000E+00 0. -1.
</event>
<event>
 7    1  0.2420569E-009  0.1598349E+03  0.7561462E-02  0.1188883E+00
         -1   -1    0    0    0  501 -0.00000000000E+00  0.00000000000E+00  0.18500078394E+03  0.18500078394E+03  0.00000000000E+00 0.  1.
          1   -1    0    0  501    0  0.00000000000E+00 -0.00000000000E+00 -0.14806748890E+03  0.14806748890E+03  0.00000000000E+00 0. -1.
         25    2    1    2    0    0  0.35730998415E+02  0.11702265095E+03  0.32674724165E+02  0.17800631134E+03  0.12509038410E+03 0.  0.
          5    1    3    3  502    0 -0.50503330344E+01 -0.21049500607E+02  0.25625696398E+02  0.33804379235E+02  0.41800000000E+01 0. -1.
         -5    1    3    3    0  502  0.40781331449E+02  0.13807215155E+03  0.70490277674E+01  0.14420193210E+03  0.41800000000E+01 0. -1.
        -11    1    1    2    0    0 -0.30218291948E+02  0.56965348114E+01  0.92682431704E+01  0.32116911566E+02  0.00000000000E+00 0.  1.
         11    1    1    2    0    0 -0.55127064672E+01 -0.12271918576E+03 -0.50096722961E+01  0.12294504993E+03  0.00000000000E+00 0. -1.
</event>
<event>
 7    1  0.2420569E-009  0.1104853E+03  0.7561462E-02  0.1259674E+00
          2   -1    0    0  501    0  0.00000000000E+00  0.00000000000E+00  0.84576722671E+03  0.84576722671E+03  0.00000000000E+00 0. -1.
         -2   -1    0    0    0  501 -0.00000000000E+00 -0.00000000000E+00 -0.21776068186E+02  0.21776068186E+02  0.00000000000E+00 0.  1.
         25    2    1    2    0    0  0.32315583004E+02 -0.34159066165E+02  0.66596738034E+03  0.67924304146E+03  0.12508964382E+03 0.  0.
          5    1    3    3  502    0  0.78836977724E+02 -0.26751017797E+02  0.35208813235E+03  0.36182096588E+03  0.41800000000E+01 0.  1.
         -5    1    3    3    0  502 -0.46521394720E+02 -0.74080483687E+01  0.31387924799E+03  0.31742207558E+03  0.41800000000E+01 0.  1.
        -11    1    1    2    0    0  0.14018679173E+02  0.41141072083E+02  0.12103628566E+03  0.12860362990E+03  0.00000000000E+00 0. -1.
         11    1    1    2    0    0 -0.46334262177E+02 -0.69820059175E+01  0.36987492532E+02  0.59696623539E+02  0.00000000000E+00 0.  1.
</event>
<event>
 7    1  0.2420569E-009  0.2580953E+03  0.7561462E-02  0.1108293E+00
          1   -1    0    0  501    0  0.00000000000E+00  0.00000000000E+00  0.59963471416E+03  0.59963471416E+03  0.00000000000E+00 0. -1.
         -1   -1    0    0    0  501 -0.00000000000E+00 -0.00000000000E+00 -0.12162680879E+03  0.12162680879E+03  0.00000000000E+00 0.  1.
         25    2    1    2    0    0 -0.24726048341E+03 -0.11184635090E+02  0.23885581494E+03  0.36600970512E+03  0.12509261045E+03 0.  0.
          5    1    3    3  502    0 -0.30167796668E+02 -0.19832352384E+02 -0.79168444915E+01  0.37196330243E+02  0.41800000000E+01 0. -1.
         -5    1    3    3    0  502 -0.21709268675E+03  0.86477172937E+01  0.24677265944E+03  0.32881337488E+03  0.41800000000E+01 0. -1.
        -11    1    1    2    0    0  0.22858488838E+03 -0.16463284972E+02  0.21273894721E+03  0.31269785833E+03  0.00000000000E+00 0. -1.
         11    1    1    2    0    0  0.18675595036E+02  0.27647920063E+02  0.26413143224E+02  0.42553959495E+02  0.00000000000E+00 0.  1.
</event>
<event>
 7    1  0.2420569E-009  0.1188418E+03  0.7561462E-02  0.1245020E+00
         -2   -1    0    0    0  501 -0.00000000000E+00  0.00000000000E+00  0.64211772833E+02  0.64211772833E+02  0.00000000000E+00 0.  1.
          2   -1    0    0  501    0  0.00000000000E+00 -0.00000000000E+00 -0.30751267156E+03  0.30751267156E+03  0.00000000000E+00 0. -1.
         25    2    1    2    0    0  0.15246302353E+01 -0.68492092700E+02 -0.23064937895E+03  0.27118306969E+03  0.12509048732E+03 0.  0.
          5    1    3    3  502    0  0.60216922198E+02 -0.13187029347E+02 -0.95367416078E+02  0.11363270617E+03  0.41800000000E+01 0. -1.
         -5    1    3    3    0  502 -0.58692291962E+02 -0.55305063353E+02 -0.13528196287E+03  0.15755036352E+03  0.41800000000E+01 0. -1.
        -11    1    1    2    0    0 -0.31937131183E+02  0.19311824513E+02  0.96769349340E+01  0.38556062868E+02  0.00000000000E+00 0.  1.
         11    1    1    2    0    0  0.30412500947E+02  0.49180268187E+02 -0.22328454707E+02  0.61985311828E+02  0.00000000000E+00 0. -1.
</event>
<event>
 7    1  0.2420569E-009  0.1461915E+03  0.7561462E-02  0.1205232E+00
         -3   -1    0    0    0  501 -0.00000000000E+00  0.00000000000E+00  0.10499863598E+03  0.10499863598E+03  0.00000000000E+00 0.  1.
          3   -1    0    0  501    0  0.00000000000E+00 -0.00000000000E+00 -0.26943184806E+03  0.26943184806E+03  0.00000000000E+00 0. -1.
         25    2    1    2    0    0  0.10129703485E+03  0.28638431140E+02 -0.16716655682E+03  0.23382374677E+03  0.12509051854E+03 0.  0.
          5    1    3    3  502    0 -0.28812406483E+02  0.29676493597E+01 -0.18805418464E+02  0.34786173599E+02  0.41800000000E+01 0. -1.
         -5    1    3    3    0  502  0.13010944133E+03  0.25670781781E+02 -0.14836113835E+03  0.19903757317E+03  0.41800000000E+01 0. -1.
        -11    1    1    2    0    0 -0.10354405847E+02 -0.37648809959E+02 -0.23443316265E+02  0.45543777723E+02  0.00000000000E+00 0. -1.
         11    1    1    2    0    0 -0.90942629001E+02  0.90103788187E+01  0.26176661004E+02  0.95062959545E+02  0.00000000000E+00 0.  1.
</event>
<event>
 7    1  0.2420569E-009  0.1092472E+03  0.7561462E-02  0.1261970E+00
         -1   -1    0    0    0  501 -0.00000000000E+00  0.00000000000E+00  0.45080983382E+03  0.45080983382E+03  0.00000000000E+00 0.  1.
          1   -1    0    0  501    0  0.00000000000E+00 -0.00000000000E+00 -0.50592200339E+02  0.50592200339E+02  0.00000000000E+00 0. -1.
         25    2    1    2    0    0 -0.74705950705E+02  0.48005003282E+02  0.12280628506E+03  0.19650545358E+03  0.12509016839E+03 0.  0.
          5    1    3    3  502    0 -0.95610367017E+01 -0.17068376660E+02  0.99418721826E+02  0.10141152575E+03  0.41800000000E+01 0.  1.
         -5    1    3    3    0  502 -0.65144914003E+02  0.65073379943E+02  0.23387563229E+02  0.95093927837E+02  0.41800000000E+01 0.  1.
        -11    1    1    2    0    0  0.78307762226E+02 -0.23800355761E+02  0.26521127356E+03  0.27755284574E+03  0.00000000000E+00 0.  1.
         11    1    1    2    0    0 -0.36018115208E+01 -0.24204647522E+02  0.12200074873E+02  0.27343734836E+02  0.00000000000E+00 0. -1.
</event>
<event>
 7    1  0.2420569E-009  0.8771435E+02  0.7561462E-02  0.1308483E+00
          3   -1    0    0  501    0  0.00000000000E+00  0.00000000000E+00  0.22091603148E+03  0.22091603148E+03  0.00000000000E+00 0. -1.
         -3   -1    0    0    0  501 -0.00000000000E+00 -0.00000000000E+00 -0.70264263602E+02  0.70264263602E+02  0.00000000000E+00 0.  1.
         25    2    1    2    0    0  0.20437643919E+01  0.40119250441E+01  0.15133847662E+03  0.19639517469E+03  0.12508979823E+03 0.  0.
          5    1    3    3  502    0 -0.24464594887E+02 -0.52717954197E+02  0.47998396160E+02  0.75491837516E+02  0.41800000000E+01 0.  1.
         -5    1    3    3    0  502  0.26508359279E+02  0.56729879241E+02  0.10334008046E+03  0.12090333718E+03  0.41800000000E+01 0.  1.
        -11    1    1    2    0    0  0.25816084660E+02 -0.58935312454E+01 -0.39144086086E+02  0.47259532512E+02  0.00000000000E+00 0.  1.
         11    1    1    2    0    0 -0.27859849052E+02  0.18816062013E+01  0.38457377338E+02  0.47525587874E+02  0.00000000000E+00 0. -1.
</event>
<event>
 7    1  0.2420569E-009  0.1363299E+03  0.7561462E-02  0.1218354E+00
          2   -1    0    0  501    0  0.00000000000E+00  0.00000000000E+00  0.12067015333E+04  0.12067015333E+04  0.00000000000E+00 0. -1.
         -2   -1    0    0    0  501 -0.00000000000E+00 -0.00000000000E+00 -0.23116716279E+02  0.23116716279E+02  0.00000000000E+00 0.  1.
         25    2    1    2    0    0 -0.67133588419E+02 -0.85015953734E+02  0.87128825792E+03  0.88686260421E+03  0.12508964491E+03 0.  0.
          5    1    3    3  502    0 -0.74611973340E+02 -0.10760832555E+03  0.81703453771E+03  0.82747169528E+03  0.41800000000E+01 0.  1.
         -5    1    3    3    0  502  0.74783849208E+01  0.22592371817E+02  0.54253720217E+02  0.59390908923E+02  0.41800000000E+01 0.  1.
        -11    1    1    2    0    0  0.33639024550E+01  0.38271331939E+02  0.27134533150E+02  0.47035025007E+02  0.00000000000E+00 0.  1.
         11    1    1    2    0    0  0.63769685964E+02  0.46744621794E+02  0.28516202599E+03  0.29592062041E+03  0.00000000000E+00 0. -1.
</event>
<event>
 7    1  0.2420569E-009  0.1075936E+03  0.7561462E-02  0.1265092E+00
         -1   -1    0    0    0  501 -0.00000000000E+00  0.00000000000E+00  0.61719160366E+03  0.61719160366E+03  0.00000000000E+00 0.  1.
          1   -1    0    0  501    0  0.00000000000E+00 -0.00000000000E+00 -0.23273780042E+02  0.23273780042E+02  0.00000000000E+00 0. -1.
         25    2    1    2    0    0 -0.34622467864E+02  0.10445667273E+02  0.43370311625E+03  0.45282836401E+03  0.12508919604E+03 0.  0.
          5    1    3    3  502    0 -0.70176372218E+02  0.38562169103E+02  0.21564217098E+03  0.23006690854E+03  0.41800000000E+01 0. -1.
         -5    1    3    3    0  502  0.35553904354E+02 -0.28116501830E+02  0.21806094527E+03  0.22276145547E+03  0.41800000000E+01 0. -1.
        -11    1    1    2    0    0  0.29251136979E+02 -0.45461504292E+02  0.13101118991E+03  0.14172617708E+03  0.00000000000E+00 0.  1.
         11    1    1    2    0    0  0.53713308854E+01  0.35015837019E+02  0.29203517467E+02  0.45910842619E+02  0.00000000000E+00 0. -1.
</event>
<event>
 7    1  0.2420569E-009  0.1352874E+03  0.7561462E-02  0.1219815E+00
          2   -1    0    0  501    0  0.00000000000E+00  0.00000000000E+00  0.11362867189E+03  0.11362867189E+03  0.00000000000E+00 0. -1.
         -2   -1    0    0    0  501 -0.00000000000E+00 -0.00000000000E+00 -0.23663403353E+03  0.23663403353E+03  0.00000000000E+00 0.  1.
         25    2    1    2    0    0 -0.10102435266E+03  0.32448481680E+02 -0.13084073179E+03  0.20982451627E+03  0.12509279252E+03 0.  0.
          5    1    3    3  502    0 -0.72107146061E+02  0.77678528786E+02 -0.10786788341E+03  0.15128234206E+03  0.41800000000E+01 0.  1.
         -5    1    3    3    0  502 -0.28917206599E+02 -0.45230047106E+02 -0.22972848372E+02  0.58542174208E+02  0.41800000000E+01 0.  1.
        -11    1    1    2    0    0  0.63233312412E+02 -0.35893945285E+02 -0.37095395168E+02  0.81626560930E+02  0.00000000000E+00 0.  1.
         11    1    1    2    0    0  0.37791040249E+02  0.34454636048E+01  0.44930765313E+02  0.58811628222E+02  0.00000000000E+00 0. -1.
</event>
<event>
 7    1  0.2420569E-009  0.1492278E+03  0.7561462E-02  0.1201425E+00
         -1   -1    0    0    0  501 -0.00000000000E+00  0.00000000000E+00  0.99128689286E+02  0.99128689286E+02  0.00000000000E+00 0.  1.
          1   -1    0    0  501    0  0.00000000000E+00 -0.00000000000E+00 -0.27527294031E+03  0.27527294031E+03  0.00000000000E+00 0. -1.
         25    2    1    2    0    0  0.87027308889E+02  0.25020609222E+02 -0.95750992337E+02  0.18170149913E+03  0.12508956341E+03 0.  0.
          5    1    3    3  502    0  0.46591459051E+02 -0.46356399781E+02 -0.17244790889E+02  0.68077419677E+02  0.41800000000E+01 0.  1.
         -5    1    3    3    0  502  0.40435849839E+02  0.71377009002E+02 -0.78506201448E+02  0.11362407946E+03  0.41800000000E+01 0.  1.
        -11    1    1    2    0    0 -0.80043095963E+02 -0.69151384338E+02 -0.60330607428E+01  0.10594908678E+03  0.00000000000E+00 0.  1.
         11    1    1    2    0    0 -0.69842129266E+01  0.44130775116E+02 -0.74360197947E+02  0.86751043690E+02  0.00000000000E+00 0. -1.
</event>
<event>
 7    1  0.2420569E-009  0.1217116E+03  0.7561462E-02  0.1240300E+00
         -2   -1    0    0    0  501 -0.00000000000E+00  0.00000000000E+00  0.52686718334E+02  0.52686718334E+02  0.00000000000E+00 0.  1.
          2   -1    0    0  501    0  0.00000000000E+00 -0.00000000000E+00 -0.39502814125E+03  0.39502814125E+03  0.00000000000E+00 0. -1.
         25    2    1    2    0    0  0.57489382026E+02 -0.71965008498E+02 -0.21990156864E+03  0.26923624901E+03  0.12508983332E+03 0.  0.
          5    1    3    3  502    0 -0.16218359230E+02 -0.80743291897E+01 -0.14498405985E+03  0.14617140616E+03  0.41800000000E+01 0. -1.
         -5    1    3    3    0  502  0.73707741256E+02 -0.63890679308E+02 -0.74917508785E+02  0.12306484285E+03  0.41800000000E+01 0. -1.
        -11    1    1    2    0    0 -0.27412084819E+02  0.88656817479E+02 -0.72132709730E+02  0.11753544781E+03  0.00000000000E+00 0.  1.
         11    1    1    2    0    0 -0.30077297207E+02 -0.16691808981E+02 -0.50307144546E+02  0.60943162756E+02  0.00000000000E+00 0. -1.
</event>
<event>
 7    1  0.2420569E-009  0.8524435E+02  0.7561462E-02  0.1314795E+00
         -2   -1    0    0    0  501 -0.00000000000E+00  0.00000000000E+00  0.25150270812E+03  0.25150270812E+03  0.00000000000E+00 0.  1.
          2   -1    0    0  501    0  0.00000000000E+00 -0.00000000000E+00 -0.65591392868E+02  0.65591392868E+02  0.00000000000E+00 0. -1.
         25    2    1    2    0    0  0.98658571357E+00  0.58880970327E+02  0.15290444963E+03  0.20614418605E+03  0.12509081785E+03 0.  0.
          5    1    3    3  502    0 -0.41710996927E+02  0.43608399314E+02  0.17029352658E+02  0.62840838690E+02  0.41800000000E+01 0.  1.
         -5    1    3    3    0  502  0.42697582641E+02  0.15272571013E+02  0.13587509697E+03  0.14330334736E+03  0.41800000000E+01 0.  1.
        -11    1    1    2    0    0 -0.13607127976E+02 -0.29925079980E+02  0.60642982568E+02  0.68979965775E+02  0.00000000000E+00 0.  1.
         11    1    1    2    0    0  0.12620542263E+02 -0.28955890347E+02 -0.27636116944E+02  0.41969949161E+02  0.00000000000E+00 0. -1.
</event>
<event>
 7    1  0.2420569E-009  0.1559174E+03  0.7561462E-02  0.1193385E+00
         -2   -1    0    0    0  501 -0.00000000000E+00  0.00000000000E+00  0.18594065285E+03  0.18594065285E+03  0.00000000000E+00 0.  1.
          2   -1    0    0  501    0  0.00000000000E+00 -0.00000000000E+00 -0.28895693790E+03  0.28895693790E+03  0.00000000000E+00 0. -1.
         25    2    1    2    0    0 -0.77326405593E+02 -0.98339449631E+02  0.11207751971E+03  0.20942239342E+03  0.12508536320E+03 0.  0.
          5    1    3    3  502    0 -0.95412928421E+02 -0.56158543949E+02  0.29170661427E+02  0.11456792246E+03  0.41800000000E+01 0. -1.
         -5    1    3    3    0  502  0.18086522828E+02 -0.42180905682E+02  0.82906858280E+02  0.94854470965E+02  0.41800000000E+01 0. -1.
        -11    1    1    2    0    0 -0.19949265679E+02  0.59946511128E+01 -0.37829366063E+02  0.43185298191E+02  0.00000000000E+00 0. -1.
         11    1    1    2    0    0  0.97275671272E+02  0.92344798518E+02 -0.17726443869E+03  0.22228989914E+03  0.00000000000E+00 0.  1.
</event>
<event>
 7    1  0.2420569E-009  0.8406530E+02  0.7561462E-02  0.1317895E+00
          1   -1    0    0  501    0  0.00000000000E+00  0.00000000000E+00  0.43461223540E+02  0.43461223540E+02  0.00000000000E+00 0. -1.
         -1   -1    0    0    0  501 -0.00000000000E+00 -0.00000000000E+00 -0.42011565448E+03  0.42011565448E+03  0.00000000000E+00 0.  1.
         25    2    1    2    0    0 -0.25500875572E+01 -0.63123795233E+02 -0.11974150947E+03  0.18432842807E+03  0.12509126202E+03 0.  0.
          5    1    3    3  502    0 -0.20738033703E+01 -0.12866791260E+02 -0.13177175124E+03  0.13248064690E+03  0.41800000000E+01 0. -1.
         -5    1    3    3    0  502 -0.47628418694E+00 -0.50257003973E+02  0.12030241773E+02  0.51847781168E+02  0.41800000000E+01 0. -1.
        -11    1    1    2    0    0 -0.40042137114E+02  0.29148060355E+02 -0.16628466069E+03  0.17350380558E+03  0.00000000000E+00 0.  1.
         11    1    1    2    0    0  0.42592224671E+02  0.33975734878E+02 -0.90628260778E+02  0.10574464438E+03  0.00000000000E+00 0. -1.
</event>
<event>
 7    1  0.2420569E-009  0.1843331E+03  0.7561462E-02  0.1163674E+00
          1   -1    0    0  501    0  0.00000000000E+00  0.00000000000E+00  0.13971628622E+03  0.13971628622E+03  0.00000000000E+00 0. -1.
         -1   -1    0    0    0  501 -0.00000000000E+00 -0.00000000000E+00 -0.27224405528E+03  0.27224405528E+03  0.00000000000E+00 0.  1.
         25    2    1    2    0    0 -0.98780922124E+02 -0.11249834472E+03 -0.51443636449E+01  0.19516324068E+03  0.12509467573E+03 0.  0.
          5    1    3    3  502    0 -0.85986468409E+01  0.26473617612E+02  0.69781218958E+01  0.28999236924E+02  0.41800000000E+01 0.  1.
         -5    1    3    3    0  502 -0.90182275283E+02 -0.13897196233E+03 -0.12122485541E+02  0.16616400376E+03  0.41800000000E+01 0.  1.
        -11    1    1    2    0    0  0.83876996476E+01  0.77362855262E+02 -0.65871888401E+02  0.10195327636E+03  0.00000000000E+00 0. -1.
         11    1    1    2    0    0  0.90393222476E+02  0.35135489455E+02 -0.61511517018E+02  0.11484382445E+03  0.00000000000E+00 0.  1.
</event>
<event>
 7    1  0.2420569E-009  0.8403616E+02  0.7561462E-02  0.1317973E+00
         -1   -1    0    0    0  501 -0.00000000000E+00  0.00000000000E+00  0.16623119749E+03  0.16623119749E+03  0.00000000000E+00 0.  1.
          1   -1    0    0  501    0  0.00000000000E+00 -0.00000000000E+00 -0.11999014082E+03  0.11999014082E+03  0.00000000000E+00 0. -1.
         25    2    1    2    0    0 -0.63824880565E+02  0.62588220721E+01 -0.21346890650E+02  0.14218386104E+03  0.12509105630E+03 0.  0.
          5    1    3    3  502    0  0.23270354667E+01 -0.63043618966E+01  0.46107754270E+02  0.46782020871E+02  0.41800000000E+01 0.  1.
         -5    1    3    3    0  502 -0.66151916032E+02  0.12563183969E+02 -0.67454644920E+02  0.95401840167E+02  0.41800000000E+01 0.  1.
        -11    1    1    2    0    0  0.33514839266E+02  0.30316487849E+02  0.82655161123E+02  0.94203023023E+02  0.00000000000E+00 0.  1.
         11    1    1    2    0    0  0.30310041299E+02 -0.36575309921E+02 -0.15067213801E+02  0.49834454257E+02  0.00000000000E+00 0. -1.
</event>
<event>
 7    1  0.2420569E-009  0.1070475E+03  0.7561462E-02  0.1266137E+00
          1   -1    0    0  501    0  0.00000000000E+00  0.00000000000E+00  0.22827386621E+03  0.22827386621E+03  0.00000000000E+00 0. -1.
         -1   -1    0    0    0  501 -0.00000000000E+00 -0.00000000000E+00 -0.84482466805E+02  0.84482466805E+02  0.00000000000E+00 0.  1.
         25    2    1    2    0    0 -0.73903580109E+02 -0.24600507598E+02  0.36660067834E+02  0.15185021717E+03  0.12509038234E+03 0.  0.
          5    1    3    3  502    0 -0.23850035067E+02  0.36732394017E+02  0.55049642146E+02  0.70470053521E+02  0.41800000000E+01 0.  1.
         -5    1    3    3    0  502 -0.50053545042E+02 -0.61332901615E+02 -0.18389574312E+02  0.81380163646E+02  0.41800000000E+01 0.  1.
        -11    1    1    2    0    0  0.44327093128E+02 -0.98619222610E+01  0.10617901701E+03  0.11548217330E+03  0.00000000000E+00 0. -1.
         11    1    1    2    0    0  0.29576486982E+02  0.34462429859E+02  0.95231456153E+00  0.45423942552E+02  0.00000000000E+00 0.  1.
</event>
<event>
 7    1  0.2420569E-009  0.2058536E+03  0.7561462E-02  0.1144892E+00
         -2   -1    0    0    0  501 -0.00000000000E+00  0.00000000000E+00  0.25182219874E+03  0.25182219874E+03  0.00000000000E+00 0.  1.
          2   -1    0    0  501    0  0.00000000000E+00 -0.00000000000E+00 -0.23289684567E+03  0.23289684567E+03  0.00000000000E+00 0. -1.
         25    2    1    2    0    0  0.14347418822E+03  0.11898896465E+03  0.11962401764E+03  0.25435915942E+03  0.12508181319E+03 0.  0.
          5    1    3    3  502    0  0.15947361142E+03  0.73084622192E+02  0.89000135757E+02  0.19675286861E+03  0.41800000000E+01 0. -1.
         -5    1    3    3    0  502 -0.15999423208E+02  0.45904342455E+02  0.30623881879E+02  0.57606290807E+02  0.41800000000E+01 0. -1.
        -11    1    1    2    0    0 -0.36579086364E+02 -0.19688015281E+02  0.14985159684E+02  0.44161097310E+02  0.00000000000E+00 0.  1.
         11    1    1    2    0    0 -0.10689510185E+03 -0.99300949366E+02 -0.11568382425E+03  0.18619878769E+03  0.00000000000E+00 0. -1.
</event>
<event>
 7    1  0.2420569E-009  0.1130716E+03  0.7561462E-02  0.1254985E+00
          1   -1    0    0  501    0  0.00000000000E+00  0.00000000000E+00  0.13164858084E+03  0.13164858084E+03  0.00000000000E+00 0. -1.
         -1   -1    0    0    0  501 -0.00000000000E+00 -0.00000000000E+00 -0.15404781549E+03  0.15404781549E+03  0.00000000000E+00 0.  1.
         25    2    1    2    0    0 -0.70937415049E+02  0.29796945929E+02 -0.56768336378E+02  0.15744980793E+03  0.12509125933E+03 0.  0.
          5    1    3    3  502    0 -0.10148458973E+03  0.46561997811E+02 -0.41834519562E+02  0.11930943391E+03  0.41800000000E+01 0.  1.
         -5    1    3    3    0  502  0.30547174681E+02 -0.16765051881E+02 -0.14933816816E+02  0.38140374019E+02  0.41800000000E+01 0.  1.
        -11    1    1    2    0    0  0.34825391721E+02 -0.42613795479E+01 -0.32664561277E+02  0.47936842069E+02  0.00000000000E+00 0.  1.
         11    1    1    2    0    0  0.36112023328E+02 -0.25535566382E+02  0.67033663007E+02  0.80309746329E+02  0.00000000000E+00 0. -1.
</event>
<event>
 7    1  0.2420569E-009  0.1278942E+03  0.7561462E-02  0.1230614E+00
          2   -1    0    0  501    0  0.00000000000E+00  0.00000000000E+00  0.17599925959E+02  0.17599925959E+02  0.00000000000E+00 0. -1.
         -2   -1    0    0    0  501 -0.00000000000E+00 -0.00000000000E+00 -0.12025799758E+04  0.12025799758E+04  0.00000000000E+00 0.  1.
         25    2    1    2    0    0 -0.19343624457E+02  0.85636622400E+02 -0.82616990118E+03  0.84018378504E+03  0.12507709674E+03 0.  0.
          5    1    3    3  502    0  0.19236696924E+02  0.90379474689E+02 -0.33729923642E+03  0.34975240849E+03  0.41800000000E+01 0.  1.
         -5    1    3    3    0  502 -0.38580321381E+02 -0.47428522895E+01 -0.48887066476E+03  0.49043137655E+03  0.41800000000E+01 0.  1.
        -11    1    1    2    0    0  0.98122174203E+01  0.17797253509E+02 -0.77537439999E+02  0.80156574558E+02  0.00000000000E+00 0. -1.
         11    1    1    2    0    0  0.95314070362E+01 -0.10343387591E+03 -0.28127270870E+03  0.29983954219E+03  0.00000000000E+00 0.  1.
</event>
<event>
 7    1  0.2420569E-009  0.1401301E+03  0.7561462E-02  0.1213154E+00
          1   -1    0    0  501    0  0.00000000000E+00  0.00000000000E+00  0.37666175794E+03  0.37666175794E+03  0.00000000000E+00 0. -1.
         -1   -1    0    0    0  501 -0.00000000000E+00 -0.00000000000E+00 -0.55745215416E+02  0.55745215416E+02  0.00000000000E+00 0.  1.
         25    2    1    2    0    0 -0.92679289187E+02 -0.27271526106E+02  0.17675836028E+03  0.23711440840E+03  0.12508612217E+03 0.  0.
          5    1    3    3  502    0  0.29928739437E+02 -0.76379517541E+01  0.19764597596E+02  0.36907715581E+02  0.41800000000E+01 0.  1.
         -5    1    3    3    0  502 -0.12260802862E+03 -0.19633574352E+02  0.15699376269E+03  0.20020669281E+03  0.41800000000E+01 0.  1.
        -11    1    1    2    0    0  0.83139391929E+02  0.52193512535E+02  0.82944221953E+02  0.12851484426E+03  0.00000000000E+00 0.  1.
         11    1    1    2    0    0  0.95398972573E+01 -0.24921986429E+02  0.61213960288E+02  0.66777720696E+02  0.00000000000E+00 0. -1.
</event>
<event>
 7    1  0.2420569E-009  0.1268933E+03  0.7561462E-02  0.1232140E+00
         -2   -1    0    0    0  501 -0.00000000000E+00  0.00000000000E+00  0.77298724529E+02  0.77298724529E+02  0.00000000000E+00 0.  1.
          2   -1    0    0  501    0  0.00000000000E+00 -0.00000000000E+00 -0.59563772365E+03  0.59563772365E+03  0.00000000000E+00 0. -1.
         25    2    1    2    0    0  0.49308283585E+02 -0.67103875265E+02 -0.11051935313E+02  0.15068410920E+03  0.12509723653E+03 0.  0.
          5    1    3    3  502    0  0.90252617404E+02 -0.31461073967E+02 -0.36729719321E+01  0.95740781521E+02  0.41800000000E+01 0.  1.
         -5    1    3    3    0  502 -0.40944333819E+02 -0.35642801297E+02 -0.73789633814E+01  0.54943327682E+02  0.41800000000E+01 0.  1.
        -11    1    1    2    0    0 -0.63617001620E+02  0.47468409013E+02 -0.47633762828E+03  0.48290569355E+03  0.00000000000E+00 0. -1.
         11    1    1    2    0    0  0.14308718035E+02  0.19635466252E+02 -0.30949435528E+02  0.39346645425E+02  0.00000000000E+00 0.  1.
</event>
<event>
 7    1  0.2420569E-009  0.1632343E+03  0.7561462E-02  0.1185093E+00
         -2   -1    0    0    0  501 -0.00000000000E+00  0.00000000000E+00  0.90956567958E+02  0.90956567958E+02  0.00000000000E+00 0.  1.
          2   -1    0    0  501    0  0.00000000000E+00 -0.00000000000E+00 -0.36571797004E+03  0.36571797004E+03  0.00000000000E+00 0. -1.
         25    2    1    2    0    0  0.10704533558E+03 -0.98833248953E+02 -0.11994270905E+03  0.22640772181E+03  0.12508991995E+03 0.  0.
          5    1    3    3  502    0  0.92809718162E+02 -0.45892242834E+02 -0.13425711997E+03  0.16959418740E+03  0.41800000000E+01 0. -1.
         -5    1    3    3    0  502  0.14235617413E+02 -0.52941006119E+02  0.14314410921E+02  0.56813534409E+02  0.41800000000E+01 0. -1.
        -11    1    1    2    0    0  0.90853091483E+01  0.33310937220E+02 -0.49490951115E+02  0.60344971813E+02  0.00000000000E+00 0. -1.
         11    1    1    2    0    0 -0.11613064472E+03  0.65522311733E+02 -0.10532774192E+03  0.16992184438E+03  0.00000000000E+00 0.  1.
</event>
<event>
 7    1  0.2420569E-009  0.2175152E+03  0.7561462E-02  0.1135749E+00
         -2   -1    0    0    0  501 -0.00000000000E+00  0.00000000000E+00  0.21821605715E+03  0.21821605715E+03  0.00000000000E+00 0.  1.
          2   -1    0    0  501    0  0.00000000000E+00 -0.00000000000E+00 -0.27779601086E+03  0.27779601086E+03  0.00000000000E+00 0. -1.
         25    2    1    2    0    0  0.13648782197E+03  0.13944086715E+03  0.73341844346E+02  0.24310591960E+03  0.12509508797E+03 0.  0.
          5    1    3    3  502    0  0.47262756754E+02  0.12499710117E+03  0.73607497889E+02  0.15262234313E+03  0.41800000000E+01 0.  1.
         -5    1    3    3    0  502  0.89225065221E+02  0.14443765979E+02 -0.26565354233E+00  0.90483576472E+02  0.41800000000E+01 0.  1.
        -11    1    1    2    0    0  0.57501361894E+01 -0.32207764477E+02 -0.38801209523E+01  0.32946312349E+02  0.00000000000E+00 0.  1.
         11    1    1    2    0    0 -0.14223795816E+03 -0.10723310267E+03 -0.12904167710E+03  0.21995983606E+03  0.00000000000E+00 0. -1.
</event>
<event>
 7    1  0.2420569E-009  0.1213597E+03  0.7561462E-02  0.1240871E+00
          1   -1    0    0  501    0  0.00000000000E+00  0.00000000000E+00  0.17513286134E+02  0.17513286134E+02  0.00000000000E+00 0. -1.
         -1   -1    0    0    0  501 -0.00000000000E+00 -0.00000000000E+00 -0.27824796722E+04  0.27824796722E+04  0.00000000000E+00 0.  1.
         25    2    1    2    0    0  0.19537453738E+02 -0.85695349352E+02 -0.25180963490E+04  0.25227330107E+04  0.12508883072E+03 0.  0.
          5    1    3    3  502    0 -0.22328561174E+02 -0.47127446431E+00 -0.15088882324E+04  0.15090592954E+04  0.41800000000E+01 0. -1.
         -5    1    3    3    0  502  0.41866014912E+02 -0.85224074888E+02 -0.10092081165E+04  0.10136737152E+04  0.41800000000E+01 0. -1.
        -11    1    1    2    0    0  0.10981512777E+02  0.92940363570E+02 -0.16672896639E+03  0.19119898807E+03  0.00000000000E+00 0.  1.
         11    1    1    2    0    0 -0.30518966515E+02 -0.72450142180E+01 -0.80141070692E+02  0.86060959556E+02  0.00000000000E+00 0. -1.
</event>
<event>
 7    1  0.2782421E-009  0.1631141E+03  0.7561462E-02  0.1185225E+00
          2   -1    0    0  501    0  0.00000000000E+00  0.00000000000E+00  0.27322669660E+04  0.27322669660E+04  0.00000000000E+00 0. -1.
         -2   -1    0    0    0  501 -0.00000000000E+00 -0.00000000000E+00 -0.12984189300E+02  0.12984189300E+02  0.00000000000E+00 0.  1.
         25    2    1    2    0    0 -0.39515985579E+02 -0.12463503750E+03  0.20168722498E+04  0.20249733758E+04  0.12509234708E+03 0.  0.
          5    1    3    3  502    0  0.40850105126E+02 -0.28415474914E+02  0.82735903219E+03  0.82886465170E+03  0.41800000000E+01 0.  1.
         -5    1    3    3    0  502 -0.80366090705E+02 -0.96219562587E+02  0.11895132176E+04  0.11961087241E+04  0.41800000000E+01 0.  1.
        -11    1    1    2    0    0  0.47218126886E+02  0.30076557009E+02  0.15712224257E+03  0.16679793133E+03  0.00000000000E+00 0.  1.
         11    1    1    2    0    0 -0.77021413069E+01  0.94558480493E+02  0.54528828440E+03  0.55347984815E+03  0.00000000000E+00 0. -1.
</event>
<event>
 7    1  0.3217322E-009  0.1012254E+03  0.7561462E-02  0.1277740E+00
         -1   -1    0    0    0  501 -0.00000000000E+00  0.00000000000E+00  0.18483983575E+03  0.18483983575E+03  0.00000000000E+00 0.  1.
          1   -1    0    0  501    0  0.00000000000E+00 -0.00000000000E+00 -0.10384028927E+03  0.10384028927E+03  0.00000000000E+00 0. -1.
         25    2    1    2    0    0  0.86535810279E+01 -0.78486210796E+02  0.80420343511E+02  0.16837005327E+03  0.12508426535E+03 0.  0.
          5    1    3    3  502    0 -0.75919295102E+01 -0.51022558099E+02  0.11193969864E+03  0.12332439888E+03  0.41800000000E+01 0. -1.
         -5    1    3    3    0  502  0.16245510538E+02 -0.27463652697E+02 -0.31519355126E+02  0.45045654392E+02  0.41800000000E+01 0. -1.
        -11    1    1    2    0    0 -0.45720746083E+02  0.21471877834E+02  0.10483616970E+02  0.51588122518E+02  0.00000000000E+00 0. -1.
         11    1    1    2    0    0  0.37067165055E+02  0.57014332962E+02 -0.99044140041E+01  0.68721949224E+02  0.00000000000E+00 0.  1.
</event>
<event>
 7    1  0.2420569E-009  0.1092723E+03  0.7561462E-02  0.1261923E+00
          1   -1    0    0  501    0  0.00000000000E+00  0.00000000000E+00  0.27407775189E+03  0.27407775189E+03  0.00000000000E+00 0. -1.
         -1   -1    0    0    0  501 -0.00000000000E+00 -0.00000000000E+00 -0.67744157679E+02  0.67744157679E+02  0.00000000000E+00 0.  1.
         25    2    1    2    0    0 -0.66142176117E+02  0.33816315742E+02  0.16600014724E+03  0.22072516024E+03  0.12508084109E+03 0.  0.
          5    1    3    3  502    0 -0.90020494077E+02  0.52080353064E+02  0.85518655334E+02  0.13471067270E+03  0.41800000000E+01 0. -1.
         -5    1    3    3    0  502  0.23878317959E+02 -0.18264037322E+02  0.80481491903E+02  0.86014487540E+02  0.41800000000E+01 0. -1.
        -11    1    1    2    0    0  0.57021375171E+02 -0.42807332908E+02  0.62944791570E+02  0.95110208510E+02  0.00000000000E+00 0. -1.
         11    1    1    2    0    0  0.91208009469E+01  0.89910171655E+01 -0.22611344593E+02  0.25986540822E+02  0.00000000000E+00 0.  1.
</event>
<event>
 7    1  0.2420569E-009  0.1107670E+03  0.7561462E-02  0.1259156E+00
         -2   -1    0    0    0  501 -0.00000000000E+00  0.00000000000E+00  0.18610744732E+02  0.18610744732E+02  0.00000000000E+00 0.  1.
          2   -1    0    0  501    0  0.00000000000E+00 -0.00000000000E+00 -0.76773592753E+03  0.76773592753E+03  0.00000000000E+00 0. -1.
         25    2    1    2    0    0 -0.12671646313E+02 -0.50149806667E+02 -0.45099204539E+03  0.47086925144E+03  0.12509377769E+03 0.  0.
          5    1    3    3  502    0  0.11921195363E+02  0.31308449936E+02 -0.25415038978E+03  0.25638296933E+03  0.41800000000E+01 0.  1.
         -5    1    3    3    0  502 -0.24592841675E+02 -0.81458256603E+02 -0.19684165561E+03  0.21448628211E+03  0.41800000000E+01 0.  1.
        -11    1    1    2    0    0 -0.25223852336E+01 -0.25396521314E+02 -0.89518481018E+02  0.93085466996E+02  0.00000000000E+00 0. -1.
         11    1    1    2    0    0  0.15194031546E+02  0.75546327981E+02 -0.20861465639E+03  0.22239195382E+03  0.00000000000E+00 0.  1.
</event>
<event>
 7    1  0.2420569E-009  0.1277837E+03  0.7561462E-02  0.1230782E+00
         -1   -1    0    0    0  501 -0.00000000000E+00  0.00000000000E+00  0.41515705271E+03  0.41515705271E+03  0.00000000000E+00 0.  1.
          1   -1    0    0  501    0  0.00000000000E+00 -0.00000000000E+00 -0.15248544581E+03  0.15248544581E+03  0.00000000000E+00 0. -1.
         25    2    1    2    0    0 -0.10476684062E+03  0.36386727392E+02  0.35779593040E+03  0.39492791212E+03  0.12510013243E+03 0.  0.
          5    1    3    3  502    0  0.14552596317E+02  0.14986200112E+02  0.50272142587E+01  0.21888570912E+02  0.41800000000E+01 0. -1.
         -5    1    3    3    0  502 -0.11931943694E+03  0.21400527280E+02  0.35276871614E+03  0.37303934120E+03  0.41800000000E+01 0. -1.
        -11    1    1    2    0    0  0.80548962698E+02 -0.17932738589E+02 -0.11104964919E+03  0.13835368839E+03  0.00000000000E+00 0. -1.
         11    1    1    2    0    0  0.24217877921E+02 -0.18453988803E+02  0.15925325693E+02  0.34360898012E+02  0.00000000000E+00 0.  1.
</event>
<event>
 7    1  0.2420569E-009  0.1155227E+03  0.7561462E-02  0.1250671E+00
          2   -1    0    0  501    0  0.00000000000E+00  0.00000000000E+00  0.32533956338E+03  0.32533956338E+03  0.00000000000E+00 0. -1.
         -2   -1    0    0    0  501 -0.00000000000E+00 -0.00000000000E+00 -0.56789870254E+02  0.56789870254E+02  0.00000000000E+00 0.  1.
         25    2    1    2    0    0  0.70129863595E+01 -0.55151778661E+02  0.22295095519E+03  0.26162180933E+03  0.12509173446E+03 0.  0.
          5    1    3    3  502    0 -0.46988081059E+02 -0.45444335259E+02  0.57152196376E+02  0.86930508565E+02  0.41800000000E+01 0.  1.
         -5    1    3    3    0  502  0.54001067419E+02 -0.97074434020E+01  0.16579875881E+03  0.17469130077E+03  0.41800000000E+01 0.  1.
        -11    1    1    2    0    0  0.90820845867E+01 -0.26127025487E+02  0.18720404618E+02  0.33399989076E+02  0.00000000000E+00 0.  1.
         11    1    1    2    0    0 -0.16095070946E+02  0.81278804148E+02  0.26878333318E+02  0.87107635224E+02  0.00000000000E+00 0. -1.
</event>
<event>
 7    1  0.2420569E-009  0.8889153E+02  0.7561462E-02  0.1305558E+00
          1   -1    0    0  501    0  0.00000000000E+00  0.00000000000E+00  0.29663467251E+03  0.29663467251E+03  0.00000000000E+00 0. -1.
         -1   -1    0    0    0  501 -0.00000000000E+00 -0.00000000000E+00 -0.51096350079E+02  0.51096350079E+02  0.00000000000E+00 0.  1.
         25    2    1    2    0    0  0.16197533627E+02 -0.19519606603E+02  0.64478823282E+02  0.14299931156E+03  0.12509160371E+03 0.  0.
          5    1    3    3  502    0  0.49181786266E+02 -0.38503429654E+01  0.86850535694E+02  0.99970801695E+02  0.41800000000E+01 0. -1.
         -5    1    3    3    0  502 -0.32984252638E+02 -0.15669263638E+02 -0.22371712412E+02  0.43028509866E+02  0.41800000000E+01 0. -1.
        -11    1    1    2    0    0 -0.49944748951E+02 -0.44239010319E+01  0.69133460110E+02  0.85401897841E+02  0.00000000000E+00 0.  1.
         11    1    1    2    0    0  0.33747215324E+02  0.23943507635E+02  0.11192603904E+03  0.11932981319E+03  0.00000000000E+00 0. -1.
</event>
<event>
 7    1  0.2420569E-009  0.7768924E+02  0.7561462E-02  0.1335740E+00
         -2   -1    0    0    0  501 -0.00000000000E+00  0.00000000000E+00  0.39906364282E+02  0.39906364282E+02  0.00000000000E+00 0.  1.
          2   -1    0    0  501    0  0.00000000000E+00 -0.00000000000E+00 -0.31298298946E+03  0.31298298946E+03  0.00000000000E+00 0. -1.
         25    2    1    2    0    0 -0.29959547209E+02 -0.84231367137E+01 -0.17063247189E+03  0.21384606365E+03  0.12508467042E+03 0.  0.
          5    1    3    3  502    0 -0.35044873858E+01 -0.53225136755E+02 -0.24835512992E+02  0.58987047053E+02  0.41800000000E+01 0. -1.
         -5    1    3    3    0  502 -0.26455059823E+02  0.44802000041E+02 -0.14579695889E+03  0.15485901659E+03  0.41800000000E+01 0. -1.
        -11    1    1    2    0    0  0.18889139308E+02 -0.14769563227E+02  0.82865811561E+01  0.25369410891E+02  0.00000000000E+00 0.  1.
         11    1    1    2    0    0  0.11070407900E+02  0.23192699941E+02 -0.11073073444E+03  0.11367387920E+03  0.00000000000E+00 0. -1.
</event>
<event>
 7    1  0.2420569E-009  0.8319196E+02  0.7561462E-02  0.1320230E+00
          2   -1    0    0  501    0  0.00000000000E+00  0.00000000000E+00  0.11399731116E+03  0.11399731116E+03  0.00000000000E+00 0. -1.
         -2   -1    0    0    0  501 -0.00000000000E+00 -0.00000000000E+00 -0.13879717386E+03  0.13879717386E+03  0.00000000000E+00 0.  1.
         25    2    1    2    0    0 -0.51227865644E+02  0.32918726234E+02  0.39557982042E+01  0.13917871393E+03  0.12508848595E+03 0.  0.
          5    1    3    3  502    0  0.15780620939E+02 -0.40344040663E+01  0.47949349164E+02  0.50812566346E+02  0.41800000000E+01 0.  1.
         -5    1    3    3    0  502 -0.67008486583E+02  0.36953130300E+02 -0.43993550960E+02  0.88366147586E+02  0.41800000000E+01 0.  1.
        -11    1    1    2    0    0  0.13515134629E+02  0.92358919446E+01 -0.50447525475E+02  0.53036905930E+02  0.00000000000E+00 0.  1.
         11    1    1    2    0    0  0.37712731015E+02 -0.42154618179E+02  0.21691864576E+02  0.60578865152E+02  0.00000000000E+00 0. -1.
</event>
<event>
 7    1  0.2420569E-009  0.1122673E+03  0.7561462E-02  0.1256428E+00
          1   -1    0    0  501    0  0.00000000000E+00  0.00000000000E+00  0.12234792858E+04  0.12234792858E+04  0.00000000000E+00 0. -1.
         -1   -1    0    0    0  501 -0.00000000000E+00 -0.00000000000E+00 -0.16190347959E+02  0.16190347959E+02  0.00000000000E+00 0.  1.
         25    2    1    2    0    0  0.30695126452E+02 -0.75589635803E+02  0.71441026417E+03  0.72985268594E+03  0.12508770437E+03 0.  0.
          5    1    3    3  502    0  0.39214857771E+02 -0.17600784056E+02  0.59699394286E+03  0.59855395152E+03  0.41800000000E+01 0.  1.
         -5    1    3    3    0  502 -0.85197313196E+01 -0.57988851747E+02  0.11741632131E+03  0.13129873442E+03  0.41800000000E+01 0.  1.
        -11    1    1    2    0    0  0.31809494357E+02  0.13724055911E+02  0.72687118043E+02  0.80520871651E+02  0.00000000000E+00 0.  1.
         11    1    1    2    0    0 -0.62504620809E+02  0.61865579892E+02  0.42019155561E+03  0.42929607616E+03  0.00000000000E+00 0. -1.
</event>
<event>
 7    1  0.2420569E-009  0.1984714E+03  0.7561462E-02  0.1151035E+00
          1   -1    0    0  501    0  0.00000000000E+00  0.00000000000E+00  0.25551763035E+03  0.25551763035E+03  0.00000000000E+00 0. -1.
         -1   -1    0    0    0  501 -0.00000000000E+00 -0.00000000000E+00 -0.19837187572E+03  0.19837187572E+03  0.00000000000E+00 0.  1.
         25    2    1    2    0    0 -0.32018929406E+02 -0.16556114705E+03 -0.71764323022E+02  0.22188371275E+03  0.12508620497E+03 0.  0.
          5    1    3    3  502    0  0.27650279667E+02  0.35356530299E+01 -0.21963828956E+02  0.35734031264E+02  0.41800000000E+01 0. -1.
         -5    1    3    3    0  502 -0.59669209072E+02 -0.16909680008E+03 -0.49800494067E+02  0.18614968149E+03  0.41800000000E+01 0. -1.
        -11    1    1    2    0    0 -0.23945580485E+02  0.10168567299E+03  0.48966948314E+02  0.11537386595E+03  0.00000000000E+00 0.  1.
         11    1    1    2    0    0  0.55964509891E+02  0.63875474056E+02  0.79943129340E+02  0.11663192737E+03  0.00000000000E+00 0. -1.
</event>
<event>
 7    1  0.2420569E-009  0.1016576E+03  0.7561462E-02  0.1276848E+00
          2   -1    0    0  501    0  0.00000000000E+00  0.00000000000E+00  0.95935089302E+03  0.95935089302E+03  0.00000000000E+00 0. -1.
         -2   -1    0    0    0  501 -0.00000000000E+00 -0.00000000000E+00 -0.13536180722E+02  0.13536180722E+02  0.00000000000E+00 0.  1.
         25    2    1    2    0    0  0.12233919229E+02 -0.69926864331E+01  0.67877448601E+03  0.69034804892E+03  0.12508820625E+03 0.  0.
          5    1    3    3  502    0  0.11727386773E+02  0.57245345896E+02  0.25029610557E+03  0.25706064283E+03  0.41800000000E+01 0.  1.
         -5    1    3    3    0  502  0.50653245613E+00 -0.64238032329E+02  0.42847838044E+03  0.43328740609E+03  0.41800000000E+01 0.  1.
        -11    1    1    2    0    0  0.93317878738E+01 -0.33338956457E+02  0.50538871582E+02  0.61259659021E+02  0.00000000000E+00 0.  1.
         11    1    1    2    0    0 -0.21565707103E+02  0.40331642890E+02  0.21650135471E+03  0.22127936581E+03  0.00000000000E+00 0. -1.
</event>
<event>
 7    1  0.2420569E-009  0.1860417E+03  0.7561462E-02  0.1162081E+00
         -2   -1    0    0    0  501 -0.00000000000E+00  0.00000000000E+00  0.35019365438E+03  0.35019365438E+03  0.00000000000E+00 0. -1.
          2   -1    0    0  501    0  0.00000000000E+00 -0.00000000000E+00 -0.12111272696E+03  0.12111272696E+03  0.00000000000E+00 0.  1.
         25    2    1    2    0    0  0.21222222037E+02 -0.16517339667E+03  0.63055875308E+02  0.21761777622E+03  0.12509524148E+03 0.  0.
          5    1    3    3  502    0 -0.50004070259E+02 -0.59917456538E+02  0.42009230745E+02  0.88728555202E+02  0.41800000000E+01 0. -1.
         -5    1    3    3    0  502  0.71226292295E+02 -0.10525594014E+03  0.21046644563E+02  0.12888922102E+03  0.41800000000E+01 0. -1.
        -11    1    1    2    0    0 -0.70161434757E+01  0.28085646850E+02  0.93643560261E+02  0.98016050760E+02  0.00000000000E+00 0. -1.
         11    1    1    2    0    0 -0.14206078561E+02  0.13708774982E+03  0.72381491852E+02  0.15567255436E+03  0.00000000000E+00 0.  1.
</event>
<event>
 7    1  0.2420569E-009  0.1243829E+03  0.7561462E-02  0.1236037E+00
         -2   -1    0    0    0  501 -0.00000000000E+00  0.00000000000E+00  0.42446237594E+03  0.42446237594E+03  0.00000000000E+00 0.  1.
          2   -1    0    0  501    0  0.00000000000E+00 -0.00000000000E+00 -0.41871900460E+02  0.41871900460E+02  0.00000000000E+00 0. -1.
         25    2    1    2    0    0 -0.78608680760E+02  0.34828352774E+01  0.22241534185E+03  0.26703599526E+03  0.12509270018E+03 0.  0.
          5    1    3    3  502    0  0.12399230379E+02 -0.36298985213E+02  0.24922319355E+02  0.45934209948E+02  0.41800000000E+01 0.  1.
         -5    1    3    3    0  502 -0.91007911139E+02  0.39781820491E+02  0.19749302250E+03  0.22110178531E+03  0.41800000000E+01 0.  1.
        -11    1    1    2    0    0  0.92437343435E+02 -0.13872958680E+02  0.15541436524E+03  0.18135806121E+03  0.00000000000E+00 0.  1.
         11    1    1    2    0    0 -0.13828662675E+02  0.10390123403E+02  0.47607683939E+01  0.17940219938E+02  0.00000000000E+00 0. -1.
</event>
<event>
 7    1  0.2420569E-009  0.1623547E+03  0.7561462E-02  0.1186064E+00
         -2   -1    0    0    0  501 -0.00000000000E+00  0.00000000000E+00  0.15751247113E+03  0.15751247113E+03  0.00000000000E+00 0.  1.
          2   -1    0    0  501    0  0.00000000000E+00 -0.00000000000E+00 -0.29243077849E+03  0.29243077849E+03  0.00000000000E+00 0. -1.
         25    2    1    2    0    0 -0.12505794119E+03 -0.17628192386E+02 -0.21119089521E+03  0.27604145754E+03  0.12508816987E+03 0.  0.
          5    1    3    3  502    0 -0.44370752267E+02 -0.61953730609E+02 -0.14052158691E+03  0.15990877769E+03  0.41800000000E+01 0.  1.
         -5    1    3    3    0  502 -0.80687188925E+02  0.44325538223E+02 -0.70669308298E+02  0.11613267986E+03  0.41800000000E+01 0.  1.
        -11    1    1    2    0    0  0.10862270198E+02  0.38626989873E+02  0.17730253436E+02  0.43867928461E+02  0.00000000000E+00 0.  1.
         11    1    1    2    0    0  0.11419567099E+03 -0.20998797488E+02  0.58542334411E+02  0.13003386362E+03  0.00000000000E+00 0. -1.
</event>
<event>
 7    1  0.2420569E-009  0.1976387E+03  0.7561462E-02  0.1151747E+00
          1   -1    0    0  501    0  0.00000000000E+00  0.00000000000E+00  0.81996737421E+03  0.81996737421E+03  0.00000000000E+00 0. -1.
         -1   -1    0    0    0  501 -0.00000000000E+00 -0.00000000000E+00 -0.49782167716E+02  0.49782167716E+02  0.00000000000E+00 0.  1.
         25    2    1    2    0    0 -0.82686709369E+02 -0.14959539737E+03  0.38537136435E+03  0.43974365958E+03  0.12509005899E+03 0.  0.
          5    1    3    3  502    0 -0.31194088241E+02 -0.14955365820E+03  0.33187795178E+03  0.36537626510E+03  0.41800000000E+01 0.  1.
         -5    1    3    3    0  502 -0.51492621128E+02 -0.41739170580E-01  0.53493412571E+02  0.74367394477E+02  0.41800000000E+01 0.  1.
        -11    1    1    2    0    0 -0.17713186159E+02  0.17877196059E+02  0.68113307819E+02  0.72613867856E+02  0.00000000000E+00 0. -1.
         11    1    1    2    0    0  0.10039989553E+03  0.13171820132E+03  0.31670053433E+03  0.35739201449E+03  0.00000000000E+00 0.  1.
</event>
<event>
 7    1  0.2420569E-009  0.2064657E+03  0.7561462E-02  0.1144396E+00
          1   -1    0    0  501    0  0.00000000000E+00  0.00000000000E+00  0.14262300934E+03  0.14262300934E+03  0.00000000000E+00 0. -1.
         -1   -1    0    0    0  501 -0.00000000000E+00 -0.00000000000E+00 -0.33454055296E+03  0.33454055296E+03  0.00000000000E+00 0.  1.
         25    2    1    2    0    0 -0.13500700491E+03  0.13070784910E+03 -0.12591136669E+03  0.25848131385E+03  0.12508990430E+03 0.  0.
          5    1    3    3  502    0 -0.15838655881E+03  0.10943400126E+03 -0.97797751839E+02  0.21597216327E+03  0.41800000000E+01 0.  1.
         -5    1    3    3    0  502  0.23379553904E+02  0.21273847839E+02 -0.28113614854E+02  0.42509150577E+02  0.41800000000E+01 0.  1.
        -11    1    1    2    0    0  0.55615668068E+02 -0.64007864944E+02 -0.76834070257E+02  0.11442719809E+03  0.00000000000E+00 0. -1.
         11    1    1    2    0    0  0.79391336840E+02 -0.66699984160E+02  0.10827893333E+02  0.10425505036E+03  0.00000000000E+00 0.  1.
</event>
<event>
 7    1  0.2420569E-009  0.1218381E+03  0.7561462E-02  0.1240095E+00
         -2   -1    0    0    0  501 -0.00000000000E+00  0.00000000000E+00  0.32517676851E+03  0.32517676851E+03  0.00000000000E+00 0.  1.
          2   -1    0    0  501    0  0.00000000000E+00 -0.00000000000E+00 -0.49254112954E+02  0.49254112954E+02  0.00000000000E+00 0. -1.
         25    2    1    2    0    0 -0.52406058581E+02 -0.31677008158E+02  0.17963161251E+03  0.22730088694E+03  0.12509336182E+03 0.  0.
          5    1    3    3  502    0 -0.27262258431E+02 -0.78582871242E+02  0.13012721881E+03  0.15449616132E+03  0.41800000000E+01 0. -1.
         -5    1    3    3    0  502 -0.25143800150E+02  0.46905863084E+02  0.49504393700E+02  0.72804725624E+02  0.41800000000E+01 0. -1.
        -11    1    1    2    0    0  0.45008985734E+00  0.51425333916E+02  0.26326311824E+02  0.57774062030E+02  0.00000000000E+00 0. -1.
         11    1    1    2    0    0  0.51955968723E+02 -0.19748325758E+02  0.69964731228E+02  0.89355932495E+02  0.00000000000E+00 0.  1.
</event>
<event>
 7    1  0.2420569E-009  0.1174949E+03  0.7561462E-02  0.1247288E+00
         -1   -1    0    0    0  501 -0.00000000000E+00  0.00000000000E+00  0.61900486341E+02  0.61900486341E+02  0.00000000000E+00 0.  1.
          1   -1    0    0  501    0  0.00000000000E+00 -0.00000000000E+00 -0.46133161907E+03  0.46133161907E+03  0.00000000000E+00 0. -1.
         25    2    1    2    0    0 -0.48966990040E+02  0.43810968622E+02 -0.39815104005E+02  0.14679972267E+03  0.12509096284E+03 0.  0.
          5    1    3    3  502    0  0.22768984646E+02 -0.23188563716E+02 -0.35713616656E+02  0.48467215349E+02  0.41800000000E+01 0.  1.
         -5    1    3    3    0  502 -0.71735974686E+02  0.66999532338E+02 -0.41014873489E+01  0.98332507321E+02  0.41800000000E+01 0.  1.
        -11    1    1    2    0    0  0.47572472119E+02  0.11261202397E+02 -0.10358657130E+03  0.11454314705E+03  0.00000000000E+00 0.  1.
         11    1    1    2    0    0  0.13945179213E+01 -0.55072171018E+02 -0.25602945742E+03  0.26188923569E+03  0.00000000000E+00 0. -1.
</event>
<event>
 7    1  0.2420569E-009  0.1188730E+03  0.7561462E-02  0.1244968E+00
          2   -1    0    0  501    0  0.00000000000E+00  0.00000000000E+00  0.32104676866E+03  0.32104676866E+03  0.00000000000E+00 0. -1.
         -2   -1    0    0    0  501 -0.00000000000E+00 -0.00000000000E+00 -0.65399149498E+02  0.65399149498E+02  0.00000000000E+00 0.  1.
         25    2    1    2    0    0  0.10333676572E+03 -0.14129601941E+02  0.19595503898E+03  0.25480175443E+03  0.12508966368E+03 0.  0.
          5    1    3    3  502    0  0.42047327160E+02 -0.38967534664E+02  0.17667600379E+03  0.18579109019E+03  0.41800000000E+01 0. -1.
         -5    1    3    3    0  502  0.61289438563E+02  0.24837932724E+02  0.19279035191E+02  0.69010664243E+02  0.41800000000E+01 0. -1.
        -11    1    1    2    0    0 -0.48287730114E+02  0.29830600536E+02  0.14157238544E+02  0.58497837662E+02  0.00000000000E+00 0.  1.
         11    1    1    2    0    0 -0.55049035609E+02 -0.15700998595E+02  0.45535341636E+02  0.73146326061E+02  0.00000000000E+00 0. -1.
</event>
<event>
 7    1  0.2420569E-009  0.1084487E+03  0.7561462E-02  0.1263470E+00
         -2   -1    0    0    0  501 -0.00000000000E+00  0.00000000000E+00  0.19419673227E+03  0.19419673227E+03  0.00000000000E+00 0.  1.
          2   -1    0    0  501    0  0.00000000000E+00 -0.00000000000E+00 -0.14791573473E+03  0.14791573473E+03  0.00000000000E+00 0. -1.
         25    2    1    2    0    0 -0.28379480257E+02  0.63130505284E+02  0.13496929106E+03  0.19659960430E+03  0.12507533443E+03 0.  0.
          5    1    3    3  502    0  0.15770274966E+02  0.65768861797E+02  0.13623410431E+03  0.15215599999E+03  0.41800000000E+01 0.  1.
         -5    1    3    3    0  502 -0.44149755223E+02 -0.26383565135E+01 -0.12648132516E+01  0.44443604308E+02  0.41800000000E+01 0.  1.
        -11    1    1    2    0    0  0.54636384258E+02 -0.54241515822E+02 -0.33922316720E+02  0.84130851031E+02  0.00000000000E+00 0.  1.
         11    1    1    2    0    0 -0.26256904001E+02 -0.88889894615E+01 -0.54765976808E+02  0.61382011673E+02  0.00000000000E+00 0. -1.
</event>
<event>
 7    1  0.2420569E-009  0.1327890E+03  0.7561462E-02  0.1223375E+00
         -2   -1    0    0    0  501 -0.00000000000E+00  0.00000000000E+00  0.56018058070E+02  0.56018058070E+02  0.00000000000E+00 0.  1.
          2   -1    0    0  501    0  0.00000000000E+00 -0.00000000000E+00 -0.50889120128E+03  0.50889120128E+03  0.00000000000E+00 0. -1.
         25    2    1    2    0    0  0.11860120195E+03  0.30234954044E+02 -0.16740851500E+03  0.24218416543E+03  0.12508861474E+03 0.  0.
          5    1    3    3  502    0  0.72649494868E+02 -0.16997967913E+02 -0.15891697720E+03  0.17561024474E+03  0.41800000000E+01 0. -1.
         -5    1    3    3    0  502  0.45951707087E+02  0.47232921957E+02 -0.84915378075E+01  0.66573920683E+02  0.41800000000E+01 0. -1.
        -11    1    1    2    0    0 -0.56441672900E+02 -0.27022275013E+02 -0.52791915469E+02  0.81870947994E+02  0.00000000000E+00 0.  1.
         11    1    1    2    0    0 -0.62159529055E+02 -0.32126790313E+01 -0.23267271274E+03  0.24085414593E+03  0.00000000000E+00 0. -1.
</event>
<event>
 7    1  0.2420569E-009  0.1303417E+03  0.7561462E-02  0.1226950E+00
          1   -1    0    0  501    0  0.00000000000E+00  0.00000000000E+00  0.49051737370E+03  0.49051737370E+03  0.00000000000E+00 0. -1.
         -1   -1    0    0    0  501 -0.00000000000E+00 -0.00000000000E+00 -0.40179080864E+02  0.40179080864E+02  0.00000000000E+00 0.  1.
         25    2    1    2    0    0 -0.87782288285E+02 -0.17617532277E+02  0.25960471631E+03  0.30176036764E+03  0.12509437703E+03 0.  0.
          5    1    3    3  502    0 -0.12347022221E+02  0.48798228460E+02  0.61531415472E+02  0.79607182770E+02  0.41800000000E+01 0.  1.
         -5    1    3    3    0  502 -0.75435266064E+02 -0.66415760737E+02  0.19807330084E+03  0.22215318487E+03  0.41800000000E+01 0.  1.
        -11    1    1    2    0    0  0.77473268734E+01  0.27837999286E+02  0.92751589957E+01  0.30348045280E+02  0.00000000000E+00 0.  1.
         11    1    1    2    0    0  0.80034961412E+02 -0.10220467008E+02  0.18145841753E+03  0.19858804165E+03  0.00000000000E+00 0. -1.
</event>
<event>
 7    1  0.2420569E-009  0.6283607E+02  0.7561462E-02  0.1386301E+00
          2   -1    0    0  501    0  0.00000000000E+00  0.00000000000E+00  0.46171626071E+02  0.46171626071E+02  0.00000000000E+00 0. -1.
         -2   -1    0    0    0  501 -0.00000000000E+00 -0.00000000000E+00 -0.23445507702E+03  0.23445507702E+03  0.00000000000E+00 0.  1.
         25    2    1    2    0    0 -0.51419208616E+01 -0.59833744311E+01 -0.13143956588E+03  0.18162075387E+03  0.12508996218E+03 0.  0.
          5    1    3    3  502    0 -0.96063539153E+01  0.23491559167E+02 -0.14595285317E+03  0.14820203485E+03  0.41800000000E+01 0.  1.
         -5    1    3    3    0  502  0.44644330537E+01 -0.29474933598E+02  0.14513287282E+02  0.33418719019E+02  0.41800000000E+01 0.  1.
        -11    1    1    2    0    0 -0.25375492052E+02  0.23563430651E+02 -0.53364749797E+02  0.63615622152E+02  0.00000000000E+00 0.  1.
         11    1    1    2    0    0  0.30517412913E+02 -0.17580056220E+02 -0.34791352689E+01  0.35390327066E+02  0.00000000000E+00 0. -1.
</event>
<event>
 7    1  0.2420569E-009  0.4936953E+02  0.7561462E-02  0.1448772E+00
         -1   -1    0    0    0  501 -0.00000000000E+00  0.00000000000E+00  0.25851253113E+02  0.25851253113E+02  0.00000000000E+00 0.  1.
          1   -1    0    0  501    0  0.00000000000E+00 -0.00000000000E+00 -0.50831551917E+03  0.50831551917E+03  0.00000000000E+00 0. -1.
         25    2    1    2    0    0 -0.75420382513E+01  0.11331944931E+02 -0.35136205113E+03  0.37321360277E+03  0.12509119474E+03 0.  0.
          5    1    3    3  502    0  0.22466750796E+01  0.33022051884E+02 -0.34707569379E+03  0.34867536918E+03  0.41800000000E+01 0. -1.
         -5    1    3    3    0  502 -0.97887133309E+01 -0.21690106953E+02 -0.42863573471E+01  0.24538233588E+02  0.41800000000E+01 0. -1.
        -11    1    1    2    0    0 -0.15971178550E+02 -0.63149574945E+01  0.85930205632E+01  0.19204094220E+02  0.00000000000E+00 0.  1.
         11    1    1    2    0    0  0.23513216801E+02 -0.50169874365E+01 -0.13969523549E+03  0.14174907529E+03  0.00000000000E+00 0. -1.
</event>
<event>
 7    1  0.2420569E-009  0.1029058E+03  0.7561462E-02  0.1274301E+00
         -2   -1    0    0    0  501 -0.00000000000E+00  0.00000000000E+00  0.14559634406E+02  0.14559634406E+02  0.00000000000E+00 0.  1.
          2   -1    0    0  501    0  0.00000000000E+00 -0.00000000000E+00 -0.89190054571E+03  0.89190054571E+03  0.00000000000E+00 0. -1.
         25    2    1    2    0    0  0.19934384048E+02 -0.32095883472E+02 -0.52963632044E+03  0.54551803591E+03  0.12509104751E+03 0.  0.
          5    1    3    3  502    0  0.23612693240E+02 -0.72933940450E+02 -0.21709472256E+03  0.23027051464E+03  0.41800000000E+01 0. -1.
         -5    1    3    3    0  502 -0.36783091924E+01  0.40838056978E+02 -0.31254159789E+03  0.31524752127E+03  0.41800000000E+01 0. -1.
        -11    1    1    2    0    0 -0.50523954619E+02  0.14645287745E+02 -0.27701999574E+03  0.28197026879E+03  0.00000000000E+00 0.  1.
         11    1    1    2    0    0  0.30589570571E+02  0.17450595726E+02 -0.70684595124E+02  0.78971875416E+02  0.00000000000E+00 0. -1.
</event>
<event>
 7    1  0.2420569E-009  0.1666236E+03  0.7561462E-02  0.1181415E+00
         -2   -1    0    0    0  501 -0.00000000000E+00  0.00000000000E+00  0.25075030205E+03  0.25075030205E+03  0.00000000000E+00 0.  1.
          2   -1    0    0  501    0  0.00000000000E+00 -0.00000000000E+00 -0.20161482868E+03  0.20161482868E+03  0.00000000000E+00 0. -1.
         25    2    1    2    0    0  0.11879982335E+03  0.88175276512E+02 -0.10361895360E+03  0.21970521867E+03  0.12508084645E+03 0.  0.
          5    1    3    3  502    0  0.80247570959E+01 -0.18954619065E+02  0.14476898787E+02  0.25509357280E+02  0.41800000000E+01 0.  1.
         -5    1    3    3    0  502  0.11077506626E+03  0.10712989558E+03 -0.11809585239E+03  0.19419586139E+03  0.41800000000E+01 0.  1.
        -11    1    1    2    0    0 -0.41842457570E+02 -0.10757737938E+01  0.92971136744E+02  0.10195872112E+03  0.00000000000E+00 0.  1.
         11    1    1    2    0    0 -0.76957365782E+02 -0.87099502719E+02  0.59783290232E+02  0.13070119094E+03  0.00000000000E+00 0. -1.
</event>
<event>
 7    1  0.2420569E-009  0.1517241E+03  0.7561462E-02  0.1198370E+00
         -2   -1    0    0    0  501 -0.00000000000E+00  0.00000000000E+00  0.12971741349E+03  0.12971741349E+03  0.00000000000E+00 0.  1.
          2   -1    0    0  501    0  0.00000000000E+00 -0.00000000000E+00 -0.19870781868E+03  0.19870781868E+03  0.00000000000E+00 0. -1.
         25    2    1    2    0    0 -0.65682986193E+02 -0.95974642205E+02 -0.54976587798E+02  0.17942881384E+03  0.12508751899E+03 0.  0.
          5    1    3    3  502    0 -0.54270490991E+02  0.12577326927E+02 -0.41025631016E+02  0.69311255546E+02  0.41800000000E+01 0.  1.
         -5    1    3    3    0  502 -0.11412495202E+02 -0.10855196913E+03 -0.13950956782E+02  0.11011755829E+03  0.41800000000E+01 0.  1.
        -11    1    1    2    0    0  0.60055268629E+02  0.21685637243E+02 -0.33336856306E+02  0.72029494939E+02  0.00000000000E+00 0. -1.
         11    1    1    2    0    0  0.56277175636E+01  0.74289004962E+02  0.19323038917E+02  0.76966923390E+02  0.00000000000E+00 0.  1.
</event>
<event>
 7    1  0.2420569E-009  0.9384093E+02  0.7561462E-02  0.1293808E+00
          2   -1    0    0  501    0  0.00000000000E+00  0.00000000000E+00  0.40234422898E+03  0.40234422898E+03  0.00000000000E+00 0. -1.
         -2   -1    0    0    0  501 -0.00000000000E+00 -0.00000000000E+00 -0.45868848025E+02  0.45868848025E+02  0.00000000000E+00 0.  1.
         25    2    1    2    0    0 -0.44533460872E+02 -0.25029749703E+02  0.90104805871E+02  0.16240697496E+03  0.12508969569E+03 0.  0.
          5    1    3    3  502    0  0.13493814459E+02 -0.45613448030E+02  0.88633389656E+02  0.10067780208E+03  0.41800000000E+01 0.  1.
         -5    1    3    3    0  502 -0.58027275330E+02  0.20583698327E+02  0.14714162157E+01  0.61729172882E+02  0.41800000000E+01 0.  1.
        -11    1    1    2    0    0  0.34706628598E+02  0.44485603810E+02  0.25510515463E+03  0.26127027947E+03  0.00000000000E+00 0.  1.
         11    1    1    2    0    0  0.98268322734E+01 -0.19455854107E+02  0.11265420461E+02  0.24535822581E+02  0.00000000000E+00 0. -1.
</event>
<event>
 7    1  0.2420569E-009  0.1077461E+03  0.7561462E-02  0.1264802E+00
          2   -1    0    0  501    0  0.00000000000E+00  0.00000000000E+00  0.28966362104E+03  0.28966362104E+03  0.00000000000E+00 0. -1.
         -2   -1    0    0    0  501 -0.00000000000E+00 -0.00000000000E+00 -0.55311029435E+02  0.55311029435E+02  0.00000000000E+00 0.  1.
         25    2    1    2    0    0  0.25941752213E+02 -0.14560542176E+02  0.20676779159E+03  0.24348847575E+03  0.12509490113E+03 0.  0.
          5    1    3    3  502    0 -0.49022468943E+02 -0.17964249491E+02  0.10048636347E+03  0.11331768778E+03  0.41800000000E+01 0. -1.
         -5    1    3    3    0  502  0.74964221156E+02  0.34037073146E+01  0.10628142811E+03  0.13017078796E+03  0.41800000000E+01 0. -1.
        -11    1    1    2    0    0 -0.26285438420E+02  0.47888044746E+02  0.38026231365E+02  0.66559622703E+02  0.00000000000E+00 0.  1.
         11    1    1    2    0    0  0.34368620679E+00 -0.33327502570E+02 -0.10441431346E+02  0.34926552025E+02  0.00000000000E+00 0. -1.
</event>
<event>
 7    1  0.2420569E-009  0.9071484E+02  0.7561462E-02  0.1301130E+00
         -1   -1    0    0    0  501 -0.00000000000E+00  0.00000000000E+00  0.31950570233E+02  0.31950570233E+02  0.00000000000E+00 0.  1.
          1   -1    0    0  501    0  0.00000000000E+00 -0.00000000000E+00 -0.41866128329E+03  0.41866128329E+03  0.00000000000E+00 0. -1.
         25    2    1    2    0    0  0.63499483717E+01  0.39492714492E+02 -0.22989318783E+03  0.26475306954E+03  0.12507323325E+03 0.  0.
          5    1    3    3  502    0  0.53651487745E+02  0.30331941382E+02 -0.19650455555E+03  0.20598548870E+03  0.41800000000E+01 0. -1.
         -5    1    3    3    0  502 -0.47301539374E+02  0.91607731098E+01 -0.33388632285E+02  0.58767580833E+02  0.41800000000E+01 0. -1.
        -11    1    1    2    0    0  0.12762937422E+02 -0.48510367491E+02 -0.15690203670E+03  0.16472521800E+03  0.00000000000E+00 0. -1.
         11    1    1    2    0    0 -0.19112885793E+02  0.90176529998E+01  0.84511476257E-01  0.21133565983E+02  0.00000000000E+00 0.  1.
</event>
<event>
 7    1  0.2420569E-009  0.1746059E+03  0.7561462E-02  0.1173128E+00
         -2   -1    0    0    0  501 -0.00000000000E+00  0.00000000000E+00  0.58955442092E+02  0.58955442092E+02  0.00000000000E+00 0. -1.
          2   -1    0    0  501    0  0.00000000000E+00 -0.00000000000E+00 -0.68672549588E+03  0.68672549588E+03  0.00000000000E+00 0.  1.
         25    2    1    2    0    0 -0.15888868002E+03 -0.30345476068E+02 -0.41671765671E+03  0.46418439316E+03  0.12508830832E+03 0.  0.
          5    1    3    3  502    0 -0.17980250493E+01  0.23270230039E+01 -0.16859520221E+03  0.16867264905E+03  0.41800000000E+01 0.  1.
         -5    1    3    3    0  502 -0.15709065497E+03 -0.32672499072E+02 -0.24812245450E+03  0.29551174410E+03  0.41800000000E+01 0.  1.
        -11    1    1    2    0    0  0.85454668626E+02 -0.27869321841E+02 -0.79615906000E+02  0.12007452677E+03  0.00000000000E+00 0. -1.
         11    1    1    2    0    0  0.73434011395E+02  0.58214797909E+02 -0.13143649108E+03  0.16142201805E+03  0.00000000000E+00 0.  1.
</event>
<event>
 7    1  0.2420569E-009  0.8260862E+02  0.7561462E-02  0.1321807E+00
         -1   -1    0    0    0  501 -0.00000000000E+00  0.00000000000E+00  0.18889880969E+03  0.18889880969E+03  0.00000000000E+00 0.  1.
          1   -1    0    0  501    0  0.00000000000E+00 -0.00000000000E+00 -0.70369406909E+02  0.70369406909E+02  0.00000000000E+00 0. -1.
         25    2    1    2    0    0  0.31324044792E+02 -0.10469235317E+02  0.95284559058E+02  0.16067716520E+03  0.12508878268E+03 0.  0.
          5    1    3    3  502    0 -0.79754476815E+01 -0.44482048135E+02 -0.69501478148E+01  0.45913367625E+02  0.41800000000E+01 0. -1.
         -5    1    3    3    0  502  0.39299492473E+02  0.34012812818E+02  0.10223470687E+03  0.11476379758E+03  0.41800000000E+01 0. -1.
        -11    1    1    2    0    0 -0.64660114518E+00  0.30852376664E+02 -0.23708692322E+02  0.38915155537E+02  0.00000000000E+00 0. -1.
         11    1    1    2    0    0 -0.30677443647E+02 -0.20383141347E+02  0.46953536043E+02  0.59675895861E+02  0.00000000000E+00 0.  1.
</event>
<event>
 7    1  0.2420569E-009  0.1006344E+03  0.7561462E-02  0.1278968E+00
          1   -1    0    0  501    0  0.00000000000E+00  0.00000000000E+00  0.22895532052E+02  0.22895532052E+02  0.00000000000E+00 0. -1.
         -1   -1    0    0    0  501 -0.00000000000E+00 -0.00000000000E+00 -0.55683728260E+03  0.55683728260E+03  0.00000000000E+00 0.  1.
         25    2    1    2    0    0 -0.21340082023E+02  0.65223672952E+01 -0.35610590754E+03  0.37809532368E+03  0.12508683395E+03 0.  0.
          5    1    3    3  502    0  0.49623662550E+02 -0.80755255208E+01 -0.10146260711E+03  0.11331308414E+03  0.41800000000E+01 0.  1.
         -5    1    3    3    0  502 -0.70963744573E+02  0.14597892816E+02 -0.25464330043E+03  0.26478223953E+03  0.41800000000E+01 0.  1.
        -11    1    1    2    0    0  0.49184591405E+02  0.17050727543E+01 -0.48549180153E+02  0.69130703731E+02  0.00000000000E+00 0. -1.
         11    1    1    2    0    0 -0.27844509382E+02 -0.82274400495E+01 -0.12928666286E+03  0.13250678724E+03  0.00000000000E+00 0.  1.
</event>
<event>
 7    1  0.2420569E-009  0.1574153E+03  0.7561462E-02  0.1191646E+00
          1   -1    0    0  501    0  0.00000000000E+00  0.00000000000E+00  0.13001563063E+03  0.13001563063E+03  0.00000000000E+00 0. -1.
         -1   -1    0    0    0  501 -0.00000000000E+00 -0.00000000000E+00 -0.22209828441E+03  0.22209828441E+03  0.00000000000E+00 0.  1.
         25    2    1    2    0    0  0.12749902622E+03 -0.18431419189E+02 -0.74034300065E+02  0.19422910389E+03  0.12509255898E+03 0.  0.
          5    1    3    3  502    0  0.10918284316E+03 -0.61435830424E+02 -0.77161705431E+02  0.14719597714E+03  0.41800000000E+01 0.  1.
         -5    1    3    3    0  502  0.18316183055E+02  0.43004411236E+02  0.31274053659E+01  0.47033126749E+02  0.41800000000E+01 0.  1.
        -11    1    1    2    0    0 -0.10640028207E+03 -0.10308179189E+02  0.16587841930E+02  0.10817779385E+03  0.00000000000E+00 0. -1.
         11    1    1    2    0    0 -0.21098744146E+02  0.28739598378E+02 -0.34636195641E+02  0.49707017291E+02  0.00000000000E+00 0.  1.
</event>
<event>
 7    1  0.2420569E-009  0.1482890E+03  0.7561462E-02  0.1202591E+00
          2   -1    0    0  501    0  0.00000000000E+00  0.00000000000E+00  0.14808973955E+03  0.14808973955E+03  0.00000000000E+00 0.  1.
         -2   -1    0    0    0  501 -0.00000000000E+00 -0.00000000000E+00 -0.22352901483E+03  0.22352901483E+03  0.00000000000E+00 0. -1.
         25    2    1    2    0    0  0.55811129760E+02 -0.10812520928E+03  0.37516497025E+02  0.17849779003E+03  0.12509208773E+03 0.  0.
          5    1    3    3  502    0  0.29184737555E+02  0.24866020823E+02  0.43881692714E+01  0.38817474510E+02  0.41800000000E+01 0. -1.
         -5    1    3    3    0  502  0.26626392205E+02 -0.13299123010E+03  0.33128327753E+02  0.13968031552E+03  0.41800000000E+01 0. -1.
        -11    1    1    2    0    0 -0.19299874761E+02  0.25487702743E+02  0.15934248917E+02  0.35721260412E+02  0.00000000000E+00 0.  1.
         11    1    1    2    0    0 -0.36511255000E+02  0.82637506533E+02 -0.12889002122E+03  0.15739970393E+03  0.00000000000E+00 0. -1.
</event>
<event>
 7    1  0.2420569E-009  0.1308672E+03  0.7561462E-02  0.1226175E+00
         -1   -1    0    0    0  501 -0.00000000000E+00  0.00000000000E+00  0.56532115974E+02  0.56532115974E+02  0.00000000000E+00 0.  1.
          1   -1    0    0  501    0  0.00000000000E+00 -0.00000000000E+00 -0.56320382373E+03  0.56320382373E+03  0.00000000000E+00 0. -1.
         25    2    1    2    0    0 -0.10606071316E+03  0.63479190902E+02 -0.14864825035E+03  0.23026448207E+03  0.12508775646E+03 0.  0.
          5    1    3    3  502    0 -0.79894884495E+02  0.17924644873E+02 -0.15679619924E+03  0.17693785903E+03  0.41800000000E+01 0.  1.
         -5    1    3    3    0  502 -0.26165828661E+02  0.45554546029E+02  0.81479488873E+01  0.53326623037E+02  0.41800000000E+01 0.  1.
        -11    1    1    2    0    0  0.56502438907E+02 -0.16753372332E+02 -0.27894767946E+03  0.28510525945E+03  0.00000000000E+00 0. -1.
         11    1    1    2    0    0  0.49558274249E+02 -0.46725818571E+02 -0.79075777942E+02  0.10436619819E+03  0.00000000000E+00 0.  1.
</event>
<event>
 7    1  0.2420569E-009  0.8434448E+02  0.7561462E-02  0.1317156E+00
          2   -1    0    0  501    0  0.00000000000E+00  0.00000000000E+00  0.75524974407E+03  0.75524974407E+03  0.00000000000E+00 0. -1.
         -2   -1    0    0    0  501 -0.00000000000E+00 -0.00000000000E+00 -0.35784909087E+02  0.35784909087E+02  0.00000000000E+00 0.  1.
         25    2    1    2    0    0 -0.38446779549E+02  0.35147620166E+02  0.65344748464E+03  0.66734848876E+03  0.12508749022E+03 0.  0.
          5    1    3    3  502    0 -0.51134876366E+02  0.60791505240E+02  0.60996227211E+03  0.61512748962E+03  0.41800000000E+01 0. -1.
         -5    1    3    3    0  502  0.12688096817E+02 -0.25643885074E+02  0.43485212535E+02  0.52220999146E+02  0.41800000000E+01 0. -1.
        -11    1    1    2    0    0  0.41500610517E+02 -0.22484506971E+02  0.87005728863E+02  0.98984092570E+02  0.00000000000E+00 0. -1.
         11    1    1    2    0    0 -0.30538309674E+01 -0.12663113194E+02 -0.20988378522E+02  0.24702071823E+02  0.00000000000E+00 0.  1.
</event>
<event>
 7    1  0.2420569E-009  0.1407022E+03  0.7561462E-02  0.1212387E+00
          2   -1    0    0  501    0  0.00000000000E+00  0.00000000000E+00  0.57703313558E+03  0.57703313558E+03  0.00000000000E+00 0. -1.
         -2   -1    0    0    0  501 -0.00000000000E+00 -0.00000000000E+00 -0.38140443461E+02  0.38140443461E+02  0.00000000000E+00 0.  1.
         25    2    1    2    0    0 -0.75559384967E+02 -0.63258842987E+02  0.33088421596E+03  0.36720934140E+03  0.12508970450E+03 0.  0.
          5    1    3    3  502    0 -0.97679685461E+00 -0.72326065459E+02  0.23136464771E+03  0.24244398629E+03  0.41800000000E+01 0. -1.
         -5    1    3    3    0  502 -0.74582588112E+02  0.90672224720E+01  0.99519568241E+02  0.12476535511E+03  0.41800000000E+01 0. -1.
        -11    1    1    2    0    0  0.47212517673E+02  0.85502088802E+02  0.16616827909E+03  0.19274731124E+03  0.00000000000E+00 0. -1.
         11    1    1    2    0    0  0.28346867294E+02 -0.22243245815E+02  0.41840197066E+02  0.55216926393E+02  0.00000000000E+00 0.  1.
</event>
<event>
 7    1  0.2420569E-009  0.2027707E+03  0.7561462E-02  0.1147422E+00
          2   -1    0    0  501    0  0.00000000000E+00  0.00000000000E+00  0.15424903089E+03  0.15424903089E+03  0.00000000000E+00 0. -1.
         -2   -1    0    0    0  501 -0.00000000000E+00 -0.00000000000E+00 -0.30728177249E+03  0.30728177249E+03  0.00000000000E+00 0.  1.
         25    2    1    2    0    0  0.20805453306E+02  0.18390509510E+03 -0.69404609095E+02  0.23391860293E+03  0.12508781773E+03 0.  0.
          5    1    3    3  502    0  0.44066731057E+02  0.18997009799E+03 -0.46660083035E+02  0.20056208681E+03  0.41800000000E+01 0.  1.
         -5    1    3    3    0  502 -0.23261277751E+02 -0.60650028838E+01 -0.22744526060E+02  0.33356516129E+02  0.41800000000E+01 0.  1.
        -11    1    1    2    0    0  0.34160667680E+01 -0.40768203314E+02  0.23511264523E+02  0.47185754980E+02  0.00000000000E+00 0. -1.
         11    1    1    2    0    0 -0.24221520074E+02 -0.14313689179E+03 -0.10713939703E+03  0.18042644546E+03  0.00000000000E+00 0.  1.
</event>
<event>
 7    1  0.2420569E-009  0.9139657E+02  0.7561462E-02  0.1299505E+00
         -3   -1    0    0    0  501 -0.00000000000E+00  0.00000000000E+00  0.23658726247E+03  0.23658726247E+03  0.00000000000E+00 0.  1.
          3   -1    0    0  501    0  0.00000000000E+00 -0.00000000000E+00 -0.52683200865E+02  0.52683200865E+02  0.00000000000E+00 0. -1.
         25    2    1    2    0    0  0.76639139202E+01  0.24520231823E+02  0.91448926039E+02  0.15706337329E+03  0.12508405098E+03 0.  0.
          5    1    3    3  502    0 -0.46230562287E+02 -0.14594888693E+01 -0.14749994928E+01  0.46465503555E+02  0.41800000000E+01 0.  1.
         -5    1    3    3    0  502  0.53894476207E+02  0.25979720692E+02  0.92923925532E+02  0.11059786973E+03  0.41800000000E+01 0.  1.
        -11    1    1    2    0    0 -0.39766143000E+02 -0.92550741106E+01  0.87185088099E+02  0.96271709825E+02  0.00000000000E+00 0.  1.
         11    1    1    2    0    0  0.32102229080E+02 -0.15265157712E+02  0.52700474721E+01  0.35935380229E+02  0.00000000000E+00 0. -1.
</event>
<event>
 7    1  0.2420569E-009  0.8730159E+02  0.7561462E-02  0.1309521E+00
         -2   -1    0    0    0  501 -0.00000000000E+00  0.00000000000E+00  0.57510337790E+02  0.57510337790E+02  0.00000000000E+00 0.  1.
          2   -1    0    0  501    0  0.00000000000E+00 -0.00000000000E+00 -0.21724544786E+03  0.21724544786E+03  0.00000000000E+00 0. -1.
         25    2    1    2    0    0  0.11781647129E+02  0.21672334751E+02 -0.10011086255E+03  0.16210496104E+03  0.12508931326E+03 0.  0.
          5    1    3    3  502    0 -0.18363207746E+02  0.53773414102E+02 -0.49803718684E+01  0.57193216091E+02  0.41800000000E+01 0. -1.
         -5    1    3    3    0  502  0.30144854875E+02 -0.32101079351E+02 -0.95130490682E+02  0.10491174495E+03  0.41800000000E+01 0. -1.
        -11    1    1    2    0    0 -0.16144287748E+02  0.23224602537E+02  0.97353475164E+01  0.29913160668E+02  0.00000000000E+00 0.  1.
         11    1    1    2    0    0  0.43626406198E+01 -0.44896937287E+02 -0.69359595036E+02  0.82737663942E+02  0.00000000000E+00 0. -1.
</event>
<event>
 7    1  0.2420569E-009  0.1152689E+03  0.7561462E-02  0.1251112E+00
         -2   -1    0    0    0  501 -0.00000000000E+00  0.00000000000E+00  0.28011052021E+02  0.28011052021E+02  0.00000000000E+00 0.  1.
          2   -1    0    0  501    0  0.00000000000E+00 -0.00000000000E+00 -0.62241275155E+03  0.62241275155E+03  0.00000000000E+00 0. -1.
         25    2    1    2    0    0  0.17541284505E+02 -0.61702966074E+02 -0.25092314337E+03  0.28762082479E+03  0.12509341425E+03 0.  0.
          5    1    3    3  502    0  0.66495433440E+02 -0.52261855844E+02 -0.19495308625E+03  0.21254910605E+03  0.41800000000E+01 0. -1.
         -5    1    3    3    0  502 -0.48954148935E+02 -0.94411102300E+01 -0.55970057121E+02  0.75071718739E+02  0.41800000000E+01 0. -1.
        -11    1    1    2    0    0 -0.42327437620E+02  0.18875169287E+02 -0.27167814943E+03  0.27560279547E+03  0.00000000000E+00 0. -1.
         11    1    1    2    0    0  0.24786153115E+02  0.42827796787E+02 -0.71800406731E+02  0.87200183317E+02  0.00000000000E+00 0.  1.
</event>
<event>
 7    1  0.2420569E-009  0.1801412E+03  0.7561462E-02  0.1167666E+00
          2   -1    0    0  501    0  0.00000000000E+00  0.00000000000E+00  0.33320325904E+03  0.33320325904E+03  0.00000000000E+00 0. -1.
         -2   -1    0    0    0  501 -0.00000000000E+00 -0.00000000000E+00 -0.11777712135E+03  0.11777712135E+03  0.00000000000E+00 0.  1.
         25    2    1    2    0    0 -0.15649473823E+03 -0.37398592753E+02  0.11289766542E+03  0.23298722481E+03  0.12509159139E+03 0.  0.
          5    1    3    3  502    0 -0.11629903012E+03 -0.79508453942E+02  0.10107380362E+03  0.17343714952E+03  0.41800000000E+01 0.  1.
         -5    1    3    3    0  502 -0.40195708103E+02  0.42109861188E+02  0.11823861801E+02  0.59550075290E+02  0.41800000000E+01 0.  1.
        -11    1    1    2    0    0  0.21846309207E+02  0.69858100018E+01 -0.22221235705E+02  0.31935029099E+02  0.00000000000E+00 0.  1.
         11    1    1    2    0    0  0.13464842902E+03  0.30412782752E+02  0.12474970797E+03  0.18605812648E+03  0.00000000000E+00 0. -1.
</event>
<event>
 7    1  0.2420569E-009  0.1038070E+03  0.7561462E-02  0.1272488E+00
         -2   -1    0    0    0  501 -0.00000000000E+00  0.00000000000E+00  0.18898778178E+03  0.18898778178E+03  0.00000000000E+00 0.  1.
          2   -1    0    0  501    0  0.00000000000E+00 -0.00000000000E+00 -0.62692046195E+02  0.62692046195E+02  0.00000000000E+00 0. -1.
         25    2    1    2    0    0  0.16234407849E+02  0.48288455014E+01  0.80757451303E+02  0.14985565866E+03  0.12509228092E+03 0.  0.
          5    1    3    3  502    0 -0.47962299117E+02 -0.21910728596E+02  0.52945792025E+02  0.74841108072E+02  0.41800000000E+01 0.  1.
         -5    1    3    3    0  502  0.64196706966E+02  0.26739574098E+02  0.27811659278E+02  0.75014550589E+02  0.41800000000E+01 0.  1.
        -11    1    1    2    0    0  0.24105067701E+02  0.25115319281E+02  0.12222540207E+01  0.34832850247E+02  0.00000000000E+00 0. -1.
         11    1    1    2    0    0 -0.40339475550E+02 -0.29944164783E+02  0.44316030261E+02  0.66991319066E+02  0.00000000000E+00 0.  1.
</event>
<event>
 7    1  0.2420569E-009  0.1918228E+03  0.7561462E-02  0.1156827E+00
          1   -1    0    0  501    0  0.00000000000E+00  0.00000000000E+00  0.83863517070E+03  0.83863517070E+03  0.00000000000E+00 0. -1.
         -1   -1    0    0    0  501 -0.00000000000E+00 -0.00000000000E+00 -0.14259324785E+03  0.14259324785E+03  0.00000000000E+00 0.  1.
         25    2    1    2    0    0  0.18078309129E+03 -0.22202976845E+02  0.73912589772E+03  0.77144670207E+03  0.12508966055E+03 0.  0.
          5    1    3    3  502    0  0.10795325534E+03 -0.49081611941E+02  0.25672939438E+03  0.28282567831E+03  0.41800000000E+01 0. -1.
         -5    1    3    3    0  502  0.72829835941E+02  0.26878635096E+02  0.48239650334E+03  0.48862102377E+03  0.41800000000E+01 0. -1.
        -11    1    1    2    0    0 -0.13307020565E+03 -0.33579374689E+01 -0.68815660258E+02  0.14984842499E+03  0.00000000000E+00 0.  1.
         11    1    1    2    0    0 -0.47712885637E+02  0.25560914314E+02  0.25731685381E+02  0.59933291491E+02  0.00000000000E+00 0. -1.
</event>
<event>
 7    1  0.2420569E-009  0.1037385E+03  0.7561462E-02  0.1272625E+00
          2   -1    0    0  501    0  0.00000000000E+00  0.00000000000E+00  0.47870974668E+03  0.47870974668E+03  0.00000000000E+00 0. -1.
         -2   -1    0    0    0  501 -0.00000000000E+00 -0.00000000000E+00 -0.29729296208E+02  0.29729296208E+02  0.00000000000E+00 0.  1.
         25    2    1    2    0    0  0.12129099255E+02  0.31824677054E+02  0.33766182064E+03  0.36169447891E+03  0.12508983108E+03 0.  0.
          5    1    3    3  502    0  0.50861321036E+02 -0.26954810785E+02  0.12585054937E+03  0.13845312917E+03  0.41800000000E+01 0.  1.
         -5    1    3    3    0  502 -0.38732221781E+02  0.58779487839E+02  0.21181127127E+03  0.22324134974E+03  0.41800000000E+01 0.  1.
        -11    1    1    2    0    0  0.22993458670E+02  0.96161094644E+01  0.80540895949E+02  0.84308983051E+02  0.00000000000E+00 0. -1.
         11    1    1    2    0    0 -0.35122557925E+02 -0.41440786518E+02  0.30777733884E+02  0.62435580926E+02  0.00000000000E+00 0.  1.
</event>
<event>
 7    1  0.2420569E-009  0.1893490E+03  0.7561462E-02  0.1159050E+00
         -3   -1    0    0    0  501 -0.00000000000E+00  0.00000000000E+00  0.55416881363E+02  0.55416881363E+02  0.00000000000E+00 0.  1.
          3   -1    0    0  501    0  0.00000000000E+00 -0.00000000000E+00 -0.82235828571E+03  0.82235828571E+03  0.00000000000E+00 0. -1.
         25    2    1    2    0    0 -0.83951654724E+02 -0.15044853911E+03 -0.53555955999E+03  0.57632776653E+03  0.12508800469E+03 0.  0.
          5    1    3    3  502    0 -0.80416912924E+02 -0.15745988264E+03 -0.53862667908E+03  0.56691857117E+03  0.41800000000E+01 0.  1.
         -5    1    3    3    0  502 -0.35347418002E+01  0.70113435359E+01  0.30671190813E+01  0.94091953551E+01  0.41800000000E+01 0.  1.
        -11    1    1    2    0    0  0.97889952814E+02  0.97374644254E+02 -0.17263243457E+03  0.22105705524E+03  0.00000000000E+00 0.  1.
         11    1    1    2    0    0 -0.13938298090E+02  0.53073894854E+02 -0.58749409780E+02  0.80390345304E+02  0.00000000000E+00 0. -1.
</event>
<event>
 7    1  0.2420569E-009  0.7563709E+02  0.7561462E-02  0.1341909E+00
         -1   -1    0    0    0  501 -0.00000000000E+00  0.00000000000E+00  0.92339888097E+02  0.92339888097E+02  0.00000000000E+00 0.  1.
          1   -1    0    0  501    0  0.00000000000E+00 -0.00000000000E+00 -0.29192214161E+03  0.29192214161E+03  0.00000000000E+00 0. -1.
         25    2    1    2    0    0  0.12396949892E+02  0.73030521765E+01 -0.25004179733E+03  0.27995678152E+03  0.12509148720E+03 0.  0.
          5    1    3    3  502    0 -0.33767609506E+02 -0.38041645727E+00 -0.10153072968E+02  0.35509906493E+02  0.41800000000E+01 0.  1.
         -5    1    3    3    0  502  0.46164559398E+02  0.76834686337E+01 -0.23988872436E+03  0.24444687503E+03  0.41800000000E+01 0.  1.
        -11    1    1    2    0    0  0.23167973381E+02  0.15626174457E+02  0.55054532127E+02  0.61740860267E+02  0.00000000000E+00 0.  1.
         11    1    1    2    0    0 -0.35564923273E+02 -0.22929226633E+02 -0.45949883087E+01  0.42564387919E+02  0.00000000000E+00 0. -1.
</event>
<event>
 7    1  0.2420569E-009  0.1195136E+03  0.7561462E-02  0.1243902E+00
          4   -1    0    0  501    0  0.00000000000E+00  0.00000000000E+00  0.40795333881E+02  0.40795333881E+02  0.00000000000E+00 0. -1.
         -4   -1    0    0    0  501 -0.00000000000E+00 -0.00000000000E+00 -0.43302770522E+03  0.43302770522E+03  0.00000000000E+00 0.  1.
         25    2    1    2    0    0 -0.30297236312E+02  0.68917954859E+02 -0.21002185583E+03  0.25578355758E+03  0.12509373036E+03 0.  0.
          5    1    3    3  502    0 -0.47698492738E+02 -0.20388593624E+00 -0.18406944626E+02  0.51297912135E+02  0.41800000000E+01 0. -1.
         -5    1    3    3    0  502  0.17401256426E+02  0.69121840795E+02 -0.19161491120E+03  0.20448564545E+03  0.41800000000E+01 0. -1.
        -11    1    1    2    0    0  0.40429846148E+01  0.23409792846E+02 -0.37138759060E+02  0.44086863692E+02  0.00000000000E+00 0.  1.
         11    1    1    2    0    0  0.26254251697E+02 -0.92327747705E+02 -0.14507175646E+03  0.17395261783E+03  0.00000000000E+00 0. -1.
</event>
<event>
 7    1  0.2420569E-009  0.9331045E+02  0.7561462E-02  0.1295027E+00
          2   -1    0    0  501    0  0.00000000000E+00  0.00000000000E+00  0.17568011055E+03  0.17568011055E+03  0.00000000000E+00 0. -1.
         -2   -1    0    0    0  501 -0.00000000000E+00 -0.00000000000E+00 -0.89146996946E+02  0.89146996946E+02  0.00000000000E+00 0.  1.
         25    2    1    2    0    0  0.38611802480E+02 -0.66853290961E+01 -0.46169209376E+01  0.13116822599E+03  0.12509285605E+03 0.  0.
          5    1    3    3  502    0  0.69765637784E+02  0.14821473698E+02 -0.37644625101E+02  0.80755869737E+02  0.41800000000E+01 0.  1.
         -5    1    3    3    0  502 -0.31153835304E+02 -0.21506802794E+02  0.33027704164E+02  0.50412356252E+02  0.41800000000E+01 0.  1.
        -11    1    1    2    0    0 -0.10593738084E+02  0.35411451929E+02  0.85484949277E+02  0.93133639289E+02  0.00000000000E+00 0. -1.
         11    1    1    2    0    0 -0.28018064396E+02 -0.28726122833E+02  0.56650852602E+01  0.40525242214E+02  0.00000000000E+00 0.  1.
</event>
<event>
 7    1  0.2420569E-009  0.1340451E+03  0.7561462E-02  0.1221574E+00
         -2   -1    0    0    0  501 -0.00000000000E+00  0.00000000000E+00  0.59261580022E+02  0.59261580022E+02  0.00000000000E+00 0.  1.
          2   -1    0    0  501    0  0.00000000000E+00 -0.00000000000E+00 -0.37391354711E+03  0.37391354711E+03  0.00000000000E+00 0. -1.
         25    2    1    2    0    0  0.79508203154E+02  0.44697389618E+02 -0.10031488028E+03  0.18447062275E+03  0.12508766703E+03 0.  0.
          5    1    3    3  502    0  0.91437397816E+02 -0.15005952321E+02 -0.49976757205E+02  0.10536187634E+03  0.41800000000E+01 0.  1.
         -5    1    3    3    0  502 -0.11929194662E+02  0.59703341939E+02 -0.50338123077E+02  0.79108746411E+02  0.41800000000E+01 0.  1.
        -11    1    1    2    0    0 -0.54962258928E+02  0.85995678474E+01 -0.15740595342E+03  0.16694740682E+03  0.00000000000E+00 0. -1.
         11    1    1    2    0    0 -0.24545944226E+02 -0.53296957465E+02 -0.56931133395E+02  0.81757097567E+02  0.00000000000E+00 0.  1.
</event>
<event>
 7    1  0.2420569E-009  0.1148973E+03  0.7561462E-02  0.1251761E+00
         -1   -1    0    0    0  501 -0.00000000000E+00  0.00000000000E+00  0.38225581419E+02  0.38225581419E+02  0.00000000000E+00 0.  1.
          1   -1    0    0  501    0  0.00000000000E+00 -0.00000000000E+00 -0.49494543306E+03  0.49494543306E+03  0.00000000000E+00 0. -1.
         25    2    1    2    0    0  0.43983340626E+02 -0.70499925103E+02 -0.20109398751E+03  0.25097968267E+03  0.12508891081E+03 0.  0.
          5    1    3    3  502    0 -0.32992487072E+02 -0.20149763716E+02 -0.12692345331E+03  0.13274619611E+03  0.41800000000E+01 0. -1.
         -5    1    3    3    0  502  0.76975827697E+02 -0.50350161388E+02 -0.74170534203E+02  0.11823348657E+03  0.41800000000E+01 0. -1.
        -11    1    1    2    0    0 -0.20088467432E+01  0.53517160610E+02 -0.21429153511E+03  0.22088228531E+03  0.00000000000E+00 0. -1.
         11    1    1    2    0    0 -0.41974493882E+02  0.16982764493E+02 -0.41334329016E+02  0.61309046492E+02  0.00000000000E+00 0.  1.
</event>
<event>
 7    1  0.2420569E-009  0.5508458E+02  0.7561462E-02  0.1419699E+00
          3   -1    0    0  501    0  0.00000000000E+00  0.00000000000E+00  0.14373644275E+03  0.14373644275E+03  0.00000000000E+00 0. -1.
         -3   -1    0    0    0  501 -0.00000000000E+00 -0.00000000000E+00 -0.16955528621E+03  0.16955528621E+03  0.00000000000E+00 0.  1.
         25    2    1    2    0    0  0.93609662298E+01  0.22036010748E+02 -0.12402012645E+03  0.17776766493E+03  0.12508851854E+03 0.  0.
          5    1    3    3  502    0 -0.16113005956E+02  0.12234775955E+02 -0.14285620838E+03  0.14434225776E+03  0.41800000000E+01 0. -1.
         -5    1    3    3    0  502  0.25473972186E+02  0.98012347928E+01  0.18836081923E+02  0.33425407172E+02  0.41800000000E+01 0. -1.
        -11    1    1    2    0    0  0.12607295136E+02 -0.34436022266E+02  0.27260978861E+01  0.36772477885E+02  0.00000000000E+00 0.  1.
         11    1    1    2    0    0 -0.21968261365E+02  0.12400011518E+02  0.95475185116E+02  0.98751586144E+02  0.00000000000E+00 0. -1.
</event>
<event>
 7    1  0.2420569E-009  0.1833329E+03  0.7561462E-02  0.1164616E+00
         -1   -1    0    0    0  501 -0.00000000000E+00  0.00000000000E+00  0.46559950100E+02  0.46559950100E+02  0.00000000000E+00 0.  1.
          1   -1    0    0  501    0  0.00000000000E+00 -0.00000000000E+00 -0.80742395460E+03  0.80742395460E+03  0.00000000000E+00 0. -1.
         25    2    1    2    0    0 -0.28290266732E+02  0.15514574459E+03 -0.45476367546E+03  0.49732132414E+03  0.12509179698E+03 0.  0.
          5    1    3    3  502    0 -0.53893295185E+02  0.15928225772E+03 -0.33678182674E+03  0.37645025715E+03  0.41800000000E+01 0.  1.
         -5    1    3    3    0  502  0.25603028453E+02 -0.41365131302E+01 -0.11798184872E+03  0.12087106699E+03  0.41800000000E+01 0.  1.
        -11    1    1    2    0    0  0.46276259877E+02 -0.62227433372E+02 -0.79339578723E+02  0.11094374450E+03  0.00000000000E+00 0.  1.
         11    1    1    2    0    0 -0.17985993145E+02 -0.92918311217E+02 -0.22676075032E+03  0.24571883606E+03  0.00000000000E+00 0. -1.
</event>
<event>
 7    1  0.2420569E-009  0.1140543E+03  0.7561462E-02  0.1253241E+00
          3   -1    0    0  501    0  0.00000000000E+00  0.00000000000E+00  0.25455475415E+02  0.25455475415E+02  0.00000000000E+00 0. -1.
         -3   -1    0    0    0  501 -0.00000000000E+00 -0.00000000000E+00 -0.63612497503E+03  0.63612497503E+03  0.00000000000E+00 0.  1.
         25    2    1    2    0    0 -0.27403939327E+02 -0.49658571726E+02 -0.43010919652E+03  0.45150725242E+03  0.12509168005E+03 0.  0.
          5    1    3    3  502    0 -0.38211615365E+02  0.33277847697E+02 -0.12082662259E+03  0.13108809184E+03  0.41800000000E+01 0.  1.
         -5    1    3    3    0  502  0.10807676039E+02 -0.82936419423E+02 -0.30928257394E+03  0.32041916058E+03  0.41800000000E+01 0.  1.
        -11    1    1    2    0    0 -0.10579433525E+02  0.54242496865E+02 -0.15368147713E+03  0.16331616360E+03  0.00000000000E+00 0.  1.
         11    1    1    2    0    0  0.37983372851E+02 -0.45839251382E+01 -0.26878825955E+02  0.46757034418E+02  0.00000000000E+00 0. -1.
</event>
<event>
 7    1  0.2420569E-009  0.1614582E+03  0.7561462E-02  0.1187060E+00
         -2   -1    0    0    0  501 -0.00000000000E+00  0.00000000000E+00  0.38625288966E+02  0.38625288966E+02  0.00000000000E+00 0.  1.
          2   -1    0    0  501    0  0.00000000000E+00 -0.00000000000E+00 -0.78198835073E+03  0.78198835073E+03  0.00000000000E+00 0. -1.
         25    2    1    2    0    0  0.55052602594E+01  0.12837947185E+03 -0.29565437701E+03  0.34578720316E+03  0.12508270281E+03 0.  0.
          5    1    3    3  502    0 -0.44156412223E+02  0.19192957783E+02 -0.37756537345E+02  0.61328516052E+02  0.41800000000E+01 0.  1.
         -5    1    3    3    0  502  0.49661672482E+02  0.10918651407E+03 -0.25789783967E+03  0.28445868711E+03  0.41800000000E+01 0.  1.
        -11    1    1    2    0    0  0.39800705511E+02 -0.71675718511E+02 -0.28715361738E+03  0.29862803746E+03  0.00000000000E+00 0. -1.
         11    1    1    2    0    0 -0.45305965770E+02 -0.56703753340E+02 -0.16055506737E+03  0.17619839907E+03  0.00000000000E+00 0.  1.
</event>
<event>
 7    1  0.2420569E-009  0.8932468E+02  0.7561462E-02  0.1304495E+00
         -1   -1    0    0    0  501 -0.00000000000E+00  0.00000000000E+00  0.41639996416E+02  0.41639996416E+02  0.00000000000E+00 0.  1.
          1   -1    0    0  501    0  0.00000000000E+00 -0.00000000000E+00 -0.46824276727E+03  0.46824276727E+03  0.00000000000E+00 0. -1.
         25    2    1    2    0    0  0.21139663458E+02  0.58909845529E+02 -0.34004193230E+03  0.36768618873E+03  0.12508941757E+03 0.  0.
          5    1    3    3  502    0  0.39953926538E+02  0.65471599736E+02 -0.96708137870E+02  0.12350215767E+03  0.41800000000E+01 0.  1.
         -5    1    3    3    0  502 -0.18814263080E+02 -0.65617542071E+01 -0.24333379443E+03  0.24418403106E+03  0.41800000000E+01 0.  1.
        -11    1    1    2    0    0 -0.38698320377E+02 -0.39314076027E+02 -0.98815641852E+02  0.11317105482E+03  0.00000000000E+00 0. -1.
         11    1    1    2    0    0  0.17558656919E+02 -0.19595769502E+02  0.12254803303E+02  0.29025520136E+02  0.00000000000E+00 0.  1.
</event>
<event>
 7    1  0.2420569E-009  0.1345687E+03  0.7561462E-02  0.1220830E+00
          2   -1    0    0  501    0  0.00000000000E+00  0.00000000000E+00  0.17213324959E+04  0.17213324959E+04  0.00000000000E+00 0. -1.
         -2   -1    0    0    0  501 -0.00000000000E+00 -0.00000000000E+00 -0.14648787445E+02  0.14648787445E+02  0.00000000000E+00 0.  1.
         25    2    1    2    0    0 -0.67595008429E+02  0.68368954960E+02  0.12618942542E+04  0.12717184974E+04  0.12508968242E+03 0.  0.
          5    1    3    3  502    0 -0.44243920413E+02 -0.17541360646E+02  0.79243804220E+03  0.79387703516E+03  0.41800000000E+01 0.  1.
         -5    1    3    3    0  502 -0.23351088017E+02  0.85910315606E+02  0.46945621199E+03  0.47784146222E+03  0.41800000000E+01 0.  1.
        -11    1    1    2    0    0  0.88802302929E+02 -0.41545294284E+02  0.35097229441E+03  0.36440830387E+03  0.00000000000E+00 0. -1.
         11    1    1    2    0    0 -0.21207294500E+02 -0.26823660676E+02  0.93817159806E+02  0.99854482053E+02  0.00000000000E+00 0.  1.
</event>
<event>
 7    1  0.2420569E-009  0.1091878E+03  0.7561462E-02  0.1262081E+00
          1   -1    0    0  501    0  0.00000000000E+00  0.00000000000E+00  0.41003398349E+03  0.41003398349E+03  0.00000000000E+00 0. -1.
         -1   -1    0    0    0  501 -0.00000000000E+00 -0.00000000000E+00 -0.49848297464E+02  0.49848297464E+02  0.00000000000E+00 0.  1.
         25    2    1    2    0    0 -0.45041378771E+02  0.17759464495E+02  0.32360699720E+03  0.35030228806E+03  0.12508429159E+03 0.  0.
          5    1    3    3  502    0 -0.18915460859E+02  0.61722877721E+02  0.88275962799E+02  0.10944234236E+03  0.41800000000E+01 0.  1.
         -5    1    3    3    0  502 -0.26125917912E+02 -0.43963413226E+02  0.23533103440E+03  0.24085994570E+03  0.41800000000E+01 0.  1.
        -11    1    1    2    0    0 -0.56649729253E+01  0.31305970636E+02  0.47218891298E+01  0.32162897143E+02  0.00000000000E+00 0. -1.
         11    1    1    2    0    0  0.50706351696E+02 -0.49065435131E+02  0.31856799688E+02  0.77417095743E+02  0.00000000000E+00 0.  1.
</event>
<event>
 7    1  0.2420569E-009  0.1554214E+03  0.7561462E-02  0.1193965E+00
          1   -1    0    0  501    0  0.00000000000E+00  0.00000000000E+00  0.19456236017E+03  0.19456236017E+03  0.00000000000E+00 0. -1.
         -1   -1    0    0    0  501 -0.00000000000E+00 -0.00000000000E+00 -0.14332452755E+03  0.14332452755E+03  0.00000000000E+00 0.  1.
         25    2    1    2    0    0 -0.10347353124E+02 -0.12465223628E+03  0.94429906145E+01  0.17715062660E+03  0.12509167322E+03 0.  0.
          5    1    3    3  502    0 -0.62627835100E+02 -0.93290992331E+02 -0.10351181789E+02  0.11291622711E+03  0.41800000000E+01 0. -1.
         -5    1    3    3    0  502  0.52280481976E+02 -0.31361243946E+02  0.19794172404E+02  0.64234399496E+02  0.41800000000E+01 0. -1.
        -11    1    1    2    0    0  0.33905706761E+02  0.69956830550E+02 -0.14160868739E+02  0.79019524770E+02  0.00000000000E+00 0.  1.
         11    1    1    2    0    0 -0.23558353637E+02  0.54695405727E+02  0.55955710748E+02  0.81716736346E+02  0.00000000000E+00 0. -1.
</event>
<event>
 7    1  0.2420569E-009  0.8392867E+02  0.7561462E-02  0.1318258E+00
          1   -1    0    0  501    0  0.00000000000E+00  0.00000000000E+00  0.29704264346E+03  0.29704264346E+03  0.00000000000E+00 0. -1.
         -1   -1    0    0    0  501 -0.00000000000E+00 -0.00000000000E+00 -0.46470009982E+02  0.46470009982E+02  0.00000000000E+00 0.  1.
         25    2    1    2    0    0  0.42916696011E+02 -0.13323838686E+02  0.12156336666E+03  0.18012334480E+03  0.12508956693E+03 0.  0.
          5    1    3    3  502    0  0.29992600025E+02 -0.62521166699E+02  0.10605405214E+03  0.12678086100E+03  0.41800000000E+01 0. -1.
         -5    1    3    3    0  502  0.12924095986E+02  0.49197328013E+02  0.15509314521E+02  0.53342483797E+02  0.41800000000E+01 0. -1.
        -11    1    1    2    0    0 -0.18024544060E+02  0.13397189401E+02  0.13575427769E+03  0.13759939238E+03  0.00000000000E+00 0. -1.
         11    1    1    2    0    0 -0.24892151952E+02 -0.73350715063E-01 -0.67450108714E+01  0.25789916261E+02  0.00000000000E+00 0.  1.
</event>
<event>
 7    1  0.2420569E-009  0.2277001E+03  0.7561462E-02  0.1128269E+00
         -2   -1    0    0    0  501 -0.00000000000E+00  0.00000000000E+00  0.49103834576E+02  0.49103834576E+02  0.00000000000E+00 0.  1.
          2   -1    0    0  501    0  0.00000000000E+00 -0.00000000000E+00 -0.11747168856E+04  0.11747168856E+04  0.00000000000E+00 0. -1.
         25    2    1    2    0    0  0.94093938078E+02 -0.19147422073E+03 -0.54713149162E+03  0.60042986211E+03  0.12508838400E+03 0.  0.
          5    1    3    3  502    0  0.89499605612E+02 -0.10489229557E+03 -0.20242022870E+03  0.24495712780E+03  0.41800000000E+01 0.  1.
         -5    1    3    3    0  502  0.45943324659E+01 -0.86581925154E+02 -0.34471126292E+03  0.35547273431E+03  0.41800000000E+01 0.  1.
        -11    1    1    2    0    0 -0.73971007693E+01 -0.93412840216E+01 -0.50664296987E+02  0.52046591398E+02  0.00000000000E+00 0.  1.
         11    1    1    2    0    0 -0.86696837309E+02  0.20081550475E+03 -0.52781726245E+03  0.57134426670E+03  0.00000000000E+00 0. -1.
</event>
<event>
 7    1  0.2420569E-009  0.9810589E+02  0.7561462E-02  0.1284330E+00
          2   -1    0    0  501    0  0.00000000000E+00  0.00000000000E+00  0.69069269403E+03  0.69069269403E+03  0.00000000000E+00 0. -1.
         -2   -1    0    0    0  501 -0.00000000000E+00 -0.00000000000E+00 -0.24543810333E+02  0.24543810333E+02  0.00000000000E+00 0.  1.
         25    2    1    2    0    0 -0.55052821061E+02 -0.26341711404E+02  0.47482905963E+03  0.49480823369E+03  0.12509138016E+03 0.  0.
          5    1    3    3  502    0 -0.59496037965E+02  0.40324170408E+00  0.84020708716E+02  0.10303830856E+03  0.41800000000E+01 0.  1.
         -5    1    3    3    0  502  0.44432169040E+01 -0.26744953109E+02  0.39080835092E+03  0.39176992513E+03  0.41800000000E+01 0.  1.
        -11    1    1    2    0    0  0.69725597361E+02  0.46788499892E+02  0.13954021159E+03  0.16285666490E+03  0.00000000000E+00 0.  1.
         11    1    1    2    0    0 -0.14672776301E+02 -0.20446788488E+02  0.51779612473E+02  0.57571605776E+02  0.00000000000E+00 0. -1.
</event>
<event>
 7    1  0.2420569E-009  0.1075581E+03  0.7561462E-02  0.1265160E+00
         -2   -1    0    0    0  501 -0.00000000000E+00  0.00000000000E+00  0.57887066685E+03  0.57887066685E+03  0.00000000000E+00 0. -1.
          2   -1    0    0  501    0  0.00000000000E+00 -0.00000000000E+00 -0.32078864373E+02  0.32078864373E+02  0.00000000000E+00 0.  1.
         25    2    1    2    0    0 -0.14661482579E+02  0.76925026664E+02  0.24946993435E+03  0.28985325549E+03  0.12508893946E+03 0.  0.
          5    1    3    3  502    0  0.20470126253E+02  0.37649797046E+02  0.94520854734E+01  0.44083416454E+02  0.41800000000E+01 0. -1.
         -5    1    3    3    0  502 -0.35131608832E+02  0.39275229617E+02  0.24001784887E+03  0.24576983903E+03  0.41800000000E+01 0. -1.
        -11    1    1    2    0    0  0.39027462238E+02 -0.55172336821E+00  0.12678235656E+03  0.13265448784E+03  0.00000000000E+00 0.  1.
         11    1    1    2    0    0 -0.24365979659E+02 -0.76373303296E+02  0.17053951156E+03  0.18844178790E+03  0.00000000000E+00 0. -1.
</event>
<event>
 7    1  0.2420569E-009  0.3309645E+03  0.7561462E-02  0.1070711E+00
          2   -1    0    0  501    0  0.00000000000E+00  0.00000000000E+00  0.45386775194E+03  0.45386775194E+03  0.00000000000E+00 0. -1.
         -2   -1    0    0    0  501 -0.00000000000E+00 -0.00000000000E+00 -0.26490785695E+03  0.26490785695E+03  0.00000000000E+00 0.  1.
         25    2    1    2    0    0 -0.19640990662E+03  0.26410696011E+03  0.71737011846E+02  0.35933684492E+03  0.12508969363E+03 0.  0.
          5    1    3    3  502    0 -0.66873437757E+02  0.68637781024E+02  0.79638676336E+02  0.12467153977E+03  0.41800000000E+01 0.  1.
         -5    1    3    3    0  502 -0.12953646886E+03  0.19546917908E+03 -0.79016644903E+01  0.23466530514E+03  0.41800000000E+01 0.  1.
        -11    1    1    2    0    0  0.17581274094E+03 -0.25295971006E+03  0.84934055956E+02  0.31955051033E+03  0.00000000000E+00 0.  1.
         11    1    1    2    0    0  0.20597165676E+02 -0.11147250048E+02  0.32288827186E+02  0.39888253641E+02  0.00000000000E+00 0. -1.
</event>
<event>
 7    1  0.2420569E-009  0.1391423E+03  0.7561462E-02  0.1214488E+00
         -1   -1    0    0    0  501 -0.00000000000E+00  0.00000000000E+00  0.23019399903E+03  0.23019399903E+03  0.00000000000E+00 0.  1.
          1   -1    0    0  501    0  0.00000000000E+00 -0.00000000000E+00 -0.93085198342E+02  0.93085198342E+02  0.00000000000E+00 0. -1.
         25    2    1    2    0    0 -0.20951166368E+02 -0.92687495093E+02  0.10389502475E+03  0.18833851255E+03  0.12508915229E+03 0.  0.
          5    1    3    3  502    0  0.27879969427E+02 -0.10210724613E+03  0.81425547811E+02  0.13360679116E+03  0.41800000000E+01 0.  1.
         -5    1    3    3    0  502 -0.48831135795E+02  0.94197510327E+01  0.22469476939E+02  0.54731721391E+02  0.41800000000E+01 0.  1.
        -11    1    1    2    0    0 -0.25794793284E+02  0.10401024443E+02 -0.11715536482E+02  0.30179570327E+02  0.00000000000E+00 0. -1.
         11    1    1    2    0    0  0.46745959652E+02  0.82286470650E+02  0.44929312416E+02  0.10476111449E+03  0.00000000000E+00 0.  1.
</event>
<event>
 7    1  0.2420569E-009  0.2797642E+03  0.7561462E-02  0.1095818E+00
         -2   -1    0    0    0  501 -0.00000000000E+00  0.00000000000E+00  0.66407148182E+02  0.66407148182E+02  0.00000000000E+00 0.  1.
          2   -1    0    0  501    0  0.00000000000E+00 -0.00000000000E+00 -0.12409380922E+04  0.12409380922E+04  0.00000000000E+00 0. -1.
         25    2    1    2    0    0 -0.28519468719E+01  0.26569617245E+03 -0.57089978652E+03  0.64200948937E+03  0.12508808310E+03 0.  0.
          5    1    3    3  502    0 -0.96183262182E+01  0.27818167153E+03 -0.53294212103E+03  0.60126727114E+03  0.41800000000E+01 0.  1.
         -5    1    3    3    0  502  0.67663793463E+01 -0.12485499080E+02 -0.37957665486E+02  0.40742218225E+02  0.41800000000E+01 0.  1.
        -11    1    1    2    0    0 -0.78681048310E+01 -0.11148978423E+03 -0.35866215050E+03  0.37567328526E+03  0.00000000000E+00 0.  1.
         11    1    1    2    0    0  0.10720051703E+02 -0.15420638822E+03 -0.24496900703E+03  0.28966246578E+03  0.00000000000E+00 0. -1.
</event>
<event>
 7    1  0.2420569E-009  0.1127714E+03  0.7561462E-02  0.1255522E+00
          2   -1    0    0  501    0  0.00000000000E+00  0.00000000000E+00  0.26788853857E+03  0.26788853857E+03  0.00000000000E+00 0. -1.
         -2   -1    0    0    0  501 -0.00000000000E+00 -0.00000000000E+00 -0.49971330575E+02  0.49971330575E+02  0.00000000000E+00 0.  1.
         25    2    1    2    0    0 -0.19518021860E+02 -0.26091717304E+02  0.88943269242E+02  0.15690295688E+03  0.12508357943E+03 0.  0.
          5    1    3    3  502    0  0.41266727783E+02  0.26121414445E+02  0.33844584249E+02  0.59566764202E+02  0.41800000000E+01 0. -1.
         -5    1    3    3    0  502 -0.60784749643E+02 -0.52213131749E+02  0.55098684993E+02  0.97336192674E+02  0.41800000000E+01 0. -1.
        -11    1    1    2    0    0  0.40520860738E+02 -0.20328681563E+02  0.61923299817E+02  0.76744319068E+02  0.00000000000E+00 0. -1.
         11    1    1    2    0    0 -0.21002838878E+02  0.46420398867E+02  0.67050638939E+02  0.84212593203E+02  0.00000000000E+00 0.  1.
</event>
<event>
 7    1  0.2420569E-009  0.1073931E+03  0.7561462E-02  0.1265475E+00
          2   -1    0    0  501    0  0.00000000000E+00  0.00000000000E+00  0.56124380188E+02  0.56124380188E+02  0.00000000000E+00 0. -1.
         -2   -1    0    0    0  501 -0.00000000000E+00 -0.00000000000E+00 -0.27489679270E+03  0.27489679270E+03  0.00000000000E+00 0.  1.
         25    2    1    2    0    0 -0.51804793935E+02  0.14845089685E+02 -0.15886526309E+03  0.20926068737E+03  0.12509096730E+03 0.  0.
          5    1    3    3  502    0 -0.57602867708E+02 -0.37640704378E+02 -0.41423108719E+02  0.80425489307E+02  0.41800000000E+01 0. -1.
         -5    1    3    3    0  502  0.57980737729E+01  0.52485794063E+02 -0.11744215437E+03  0.12883519807E+03  0.41800000000E+01 0. -1.
        -11    1    1    2    0    0 -0.17523391750E+02 -0.15725082168E+02 -0.45081267120E+02  0.50859297211E+02  0.00000000000E+00 0.  1.
         11    1    1    2    0    0  0.69328185685E+02  0.87999248283E+00 -0.14825882307E+02  0.70901188307E+02  0.00000000000E+00 0. -1.
</event>
<event>
 7    1  0.2420569E-009  0.1115651E+03  0.7561462E-02  0.1257699E+00
          2   -1    0    0  501    0  0.00000000000E+00  0.00000000000E+00  0.29930827219E+03  0.29930827219E+03  0.00000000000E+00 0. -1.
         -2   -1    0    0    0  501 -0.00000000000E+00 -0.00000000000E+00 -0.47470527666E+02  0.47470527666E+02  0.00000000000E+00 0.  1.
         25    2    1    2    0    0 -0.43228631127E+02  0.24163581269E+02  0.12753154913E+03  0.18538356812E+03  0.12510067184E+03 0.  0.
          5    1    3    3  502    0 -0.84049069071E+02 -0.42398687153E+01  0.73256512559E+02  0.11165218999E+03  0.41800000000E+01 0.  1.
         -5    1    3    3    0  502  0.40820437943E+02  0.28403449984E+02  0.54275036571E+02  0.73731378121E+02  0.41800000000E+01 0.  1.
        -11    1    1    2    0    0 -0.91102968528E+01 -0.34442029204E+02  0.92900515577E+02  0.99497520968E+02  0.00000000000E+00 0. -1.
         11    1    1    2    0    0  0.52338927980E+02  0.10278447934E+02  0.31405679821E+02  0.61897710774E+02  0.00000000000E+00 0.  1.
</event>
<event>
 7    1  0.2420569E-009  0.1101939E+03  0.7561462E-02  0.1260211E+00
          2   -1    0    0  501    0  0.00000000000E+00  0.00000000000E+00  0.15578785578E+03  0.15578785578E+03  0.00000000000E+00 0. -1.
         -2   -1    0    0    0  501 -0.00000000000E+00 -0.00000000000E+00 -0.11323048798E+03  0.11323048798E+03  0.00000000000E+00 0.  1.
         25    2    1    2    0    0 -0.66834449782E+02 -0.24031237838E+02  0.51073018970E+02  0.15264387745E+03  0.12508939198E+03 0.  0.
          5    1    3    3  502    0  0.14291022282E+02 -0.53438624003E+02  0.77995875919E+01  0.56019869866E+02  0.41800000000E+01 0. -1.
         -5    1    3    3    0  502 -0.81125472064E+02  0.29407386165E+02  0.43273431378E+02  0.96624007586E+02  0.41800000000E+01 0. -1.
        -11    1    1    2    0    0  0.35019316131E+02  0.30046488282E+02 -0.47146242828E+02  0.65969024346E+02  0.00000000000E+00 0.  1.
         11    1    1    2    0    0  0.31815133652E+02 -0.60152504449E+01  0.38630591662E+02  0.50405441962E+02  0.00000000000E+00 0. -1.
</event>
<event>
 7    1  0.2420569E-009  0.1269561E+03  0.7561462E-02  0.1232043E+00
         -2   -1    0    0    0  501 -0.00000000000E+00  0.00000000000E+00  0.96112840988E+02  0.96112840988E+02  0.00000000000E+00 0.  1.
          2   -1    0    0  501    0  0.00000000000E+00 -0.00000000000E+00 -0.23117038464E+03  0.23117038464E+03  0.00000000000E+00 0. -1.
         25    2    1    2    0    0  0.56091985088E+02 -0.85572319053E+02 -0.78482873562E+02  0.17965861742E+03  0.12509486317E+03 0.  0.
          5    1    3    3  502    0  0.81642271890E+01  0.13476241520E+02 -0.66991489581E+02  0.68946325264E+02  0.41800000000E+01 0.  1.
         -5    1    3    3    0  502  0.47927757899E+02 -0.99048560573E+02 -0.11491383981E+02  0.11071229216E+03  0.41800000000E+01 0.  1.
        -11    1    1    2    0    0  0.55588951713E+01 -0.11344187994E+02  0.88600754440E+01  0.15430257731E+02  0.00000000000E+00 0.  1.
         11    1    1    2    0    0 -0.61650880259E+02  0.96916507046E+02 -0.65434745535E+02  0.13219435048E+03  0.00000000000E+00 0. -1.
</event>
<event>
 7    1  0.2420569E-009  0.1204483E+03  0.7561462E-02  0.1242359E+00
          2   -1    0    0  501    0  0.00000000000E+00  0.00000000000E+00  0.59439889736E+02  0.59439889736E+02  0.00000000000E+00 0. -1.
         -2   -1    0    0    0  501 -0.00000000000E+00 -0.00000000000E+00 -0.33596448782E+03  0.33596448782E+03  0.00000000000E+00 0.  1.
         25    2    1    2    0    0  0.59645385834E+02 -0.16816223337E+01 -0.57228529674E+02  0.14994321658E+03  0.12508982247E+03 0.  0.
          5    1    3    3  502    0 -0.45366572831E+01 -0.53060768341E+02 -0.37573588588E+02  0.65309060287E+02  0.41800000000E+01 0. -1.
         -5    1    3    3    0  502  0.64182043117E+02  0.51379146007E+02 -0.19654941086E+02  0.84634156297E+02  0.41800000000E+01 0. -1.
        -11    1    1    2    0    0 -0.76985620677E+02 -0.17862236314E+02 -0.12739074585E+03  0.14991413344E+03  0.00000000000E+00 0.  1.
         11    1    1    2    0    0  0.17340234843E+02  0.19543858647E+02 -0.91905322551E+02  0.95547027522E+02  0.00000000000E+00 0. -1.
</event>
<event>
 7    1  0.2420569E-009  0.1179257E+03  0.7561462E-02  0.1246559E+00
          1   -1    0    0  501    0  0.00000000000E+00  0.00000000000E+00  0.11803742282E+04  0.11803742282E+04  0.00000000000E+00 0. -1.
         -1   -1    0    0    0  501 -0.00000000000E+00 -0.00000000000E+00 -0.19503032925E+02  0.19503032925E+02  0.00000000000E+00 0.  1.
         25    2    1    2    0    0  0.24662158014E+02  0.94700274555E+02  0.75551661986E+03  0.77202884616E+03  0.12508721908E+03 0.  0.
          5    1    3    3  502    0 -0.13538863753E+02  0.67615798485E+02  0.15528894096E+03  0.16996271539E+03  0.41800000000E+01 0. -1.
         -5    1    3    3    0  502  0.38201021767E+02  0.27084476070E+02  0.60022767890E+03  0.60206613077E+03  0.41800000000E+01 0. -1.
        -11    1    1    2    0    0 -0.41078392323E+02 -0.24874231772E+02  0.69874437895E+02  0.84785604871E+02  0.00000000000E+00 0.  1.
         11    1    1    2    0    0  0.16416234309E+02 -0.69826042783E+02  0.33548013749E+03  0.34306281007E+03  0.00000000000E+00 0. -1.
</event>
<event>
 7    1  0.2420569E-009  0.9115700E+02  0.7561462E-02  0.1300074E+00
         -1   -1    0    0    0  501 -0.00000000000E+00  0.00000000000E+00  0.38499633606E+02  0.38499633606E+02  0.00000000000E+00 0.  1.
          1   -1    0    0  501    0  0.00000000000E+00 -0.00000000000E+00 -0.28638158603E+03  0.28638158603E+03  0.00000000000E+00 0. -1.
         25    2    1    2    0    0 -0.14886253511E+02  0.10894040581E+02 -0.12820653543E+03  0.18006740550E+03  0.12508826537E+03 0.  0.
          5    1    3    3  502    0  0.54860199168E+02  0.26551367198E+01 -0.67652342865E+02  0.87241063146E+02  0.41800000000E+01 0. -1.
         -5    1    3    3    0  502 -0.69746452679E+02  0.82389038608E+01 -0.60554192565E+02  0.92826342357E+02  0.41800000000E+01 0. -1.
        -11    1    1    2    0    0  0.35031773496E+02 -0.27293585103E+01 -0.11787665544E+03  0.12300235953E+03  0.00000000000E+00 0. -1.
         11    1    1    2    0    0 -0.20145519985E+02 -0.81646820703E+01 -0.17987615538E+01  0.21811454603E+02  0.00000000000E+00 0.  1.
</event>
<event>
 7    1  0.2420569E-009  0.1090739E+03  0.7561462E-02  0.1262294E+00
          1   -1    0    0  501    0  0.00000000000E+00  0.00000000000E+00  0.51900121808E+03  0.51900121808E+03  0.00000000000E+00 0. -1.
         -1   -1    0    0    0  501 -0.00000000000E+00 -0.00000000000E+00 -0.31497018113E+02  0.31497018113E+02  0.00000000000E+00 0.  1.
         25    2    1    2    0    0  0.32141919699E+02  0.58826886721E+02  0.25959911507E+03  0.29586031250E+03  0.12509163986E+03 0.  0.
          5    1    3    3  502    0 -0.11896056235E+02  0.70717323360E+02  0.23087825408E+03  0.24179474061E+03  0.41800000000E+01 0.  1.
         -5    1    3    3    0  502  0.44037975934E+02 -0.11890436639E+02  0.28720860986E+02  0.54065571888E+02  0.41800000000E+01 0.  1.
        -11    1    1    2    0    0  0.22239493923E+02 -0.27748472144E+01  0.12834287810E+02  0.25826610513E+02  0.00000000000E+00 0.  1.
         11    1    1    2    0    0 -0.54381413622E+02 -0.56052039507E+02  0.21507079708E+03  0.22881131318E+03  0.00000000000E+00 0. -1.
</event>
<event>
 7    1  0.2420569E-009  0.1081509E+03  0.7561462E-02  0.1264033E+00
          2   -1    0    0  501    0  0.00000000000E+00  0.00000000000E+00  0.13475249550E+03  0.13475249550E+03  0.00000000000E+00 0.  1.
         -2   -1    0    0    0  501 -0.00000000000E+00 -0.00000000000E+00 -0.99240504212E+02  0.99240504212E+02  0.00000000000E+00 0. -1.
         25    2    1    2    0    0  0.45180861075E+02  0.19119582563E+02  0.31493841310E+02  0.13801123760E+03  0.12509344914E+03 0.  0.
          5    1    3    3  502    0 -0.25471665952E+02 -0.30254347394E+02 -0.11773814431E+02  0.41475612218E+02  0.41800000000E+01 0.  1.
         -5    1    3    3    0  502  0.70652527027E+02  0.49373929957E+02  0.43267655741E+02  0.96535625382E+02  0.41800000000E+01 0.  1.
        -11    1    1    2    0    0  0.62278874810E+01  0.22967518615E+02  0.15719199110E+02  0.28519935387E+02  0.00000000000E+00 0.  1.
         11    1    1    2    0    0 -0.51408748556E+02 -0.42087101178E+02 -0.11701049137E+02  0.67461826721E+02  0.00000000000E+00 0. -1.
</event>
<event>
 7    1  0.2420569E-009  0.1041337E+03  0.7561462E-02  0.1271836E+00
         -1   -1    0    0    0  501 -0.00000000000E+00  0.00000000000E+00  0.39270888435E+02  0.39270888435E+02  0.00000000000E+00 0.  1.
          1   -1    0    0  501    0  0.00000000000E+00 -0.00000000000E+00 -0.51801379307E+03  0.51801379307E+03  0.00000000000E+00 0. -1.
         25    2    1    2    0    0  0.70346340817E+02 -0.27203263883E+02 -0.35097073594E+03  0.38015339198E+03  0.12509004244E+03 0.  0.
          5    1    3    3  502    0  0.58562559168E+02 -0.39224046508E+02 -0.35532350292E+03  0.36227111849E+03  0.41800000000E+01 0.  1.
         -5    1    3    3    0  502  0.11783781649E+02  0.12020782625E+02  0.43527669846E+01  0.17882273493E+02  0.41800000000E+01 0.  1.
        -11    1    1    2    0    0 -0.60679251348E+02 -0.26163227947E+02 -0.87154239312E+02  0.10937251698E+03  0.00000000000E+00 0. -1.
         11    1    1    2    0    0 -0.96670894686E+01  0.53366491830E+02 -0.40617929386E+02  0.67758772544E+02  0.00000000000E+00 0.  1.
</event>
<event>
 7    1  0.2420569E-009  0.1034404E+03  0.7561462E-02  0.1273223E+00
          2   -1    0    0  501    0  0.00000000000E+00  0.00000000000E+00  0.47584193276E+03  0.47584193276E+03  0.00000000000E+00 0. -1.
         -2   -1    0    0    0  501 -0.00000000000E+00 -0.00000000000E+00 -0.28305536661E+02  0.28305536661E+02  0.00000000000E+00 0.  1.
         25    2    1    2    0    0 -0.48602870429E+02 -0.16525102705E+02  0.24523957451E+03  0.28004159126E+03  0.12508207663E+03 0.  0.
          5    1    3    3  502    0  0.35237382611E+02  0.20401734636E+02  0.10261693175E+03  0.11047900702E+03  0.41800000000E+01 0.  1.
         -5    1    3    3    0  502 -0.83840253039E+02 -0.36926837341E+02  0.14262264276E+03  0.16956258424E+03  0.41800000000E+01 0.  1.
        -11    1    1    2    0    0 -0.56380934513E+01  0.19124972001E+02  0.65817338204E+01  0.20996949109E+02  0.00000000000E+00 0.  1.
         11    1    1    2    0    0  0.54240963880E+02 -0.25998692957E+01  0.19571508777E+03  0.20310892906E+03  0.00000000000E+00 0. -1.
</event>
<event>
 7    1  0.2420569E-009  0.1618245E+03  0.7561462E-02  0.1186652E+00
          2   -1    0    0  501    0  0.00000000000E+00  0.00000000000E+00  0.19119962585E+02  0.19119962585E+02  0.00000000000E+00 0. -1.
         -2   -1    0    0    0  501 -0.00000000000E+00 -0.00000000000E+00 -0.23718897837E+04  0.23718897837E+04  0.00000000000E+00 0.  1.
         25    2    1    2    0    0 -0.40677242821E+02  0.13602533223E+03 -0.18604980338E+04  0.18700957785E+04  0.12509099861E+03 0.  0.
          5    1    3    3  502    0  0.81442115314E+01  0.80800297102E+02 -0.42554957041E+03  0.43324926482E+03  0.41800000000E+01 0. -1.
         -5    1    3    3    0  502 -0.48821454352E+02  0.55225035132E+02 -0.14349484634E+04  0.14368465137E+04  0.41800000000E+01 0. -1.
        -11    1    1    2    0    0 -0.22289585233E+02 -0.83745042404E+02 -0.29128776411E+03  0.30390560912E+03  0.00000000000E+00 0.  1.
         11    1    1    2    0    0  0.62966828054E+02 -0.52280289829E+02 -0.20098402319E+03  0.21700835863E+03  0.00000000000E+00 0. -1.
</event>
<event>
 7    1  0.2420569E-009  0.8507491E+02  0.7561462E-02  0.1315237E+00
          4   -1    0    0  501    0  0.00000000000E+00  0.00000000000E+00  0.21296605284E+03  0.21296605284E+03  0.00000000000E+00 0.  1.
         -4   -1    0    0    0  501 -0.00000000000E+00 -0.00000000000E+00 -0.60882177211E+02  0.60882177211E+02  0.00000000000E+00 0. -1.
         25    2    1    2    0    0 -0.14799044211E+02  0.64348306246E+01  0.57889614286E+02  0.13877354475E+03  0.12508585262E+03 0.  0.
          5    1    3    3  502    0  0.34067523753E+02  0.17550508992E+02  0.76085371732E+02  0.85294036908E+02  0.41800000000E+01 0.  1.
         -5    1    3    3    0  502 -0.48866567963E+02 -0.11115678367E+02 -0.18195757445E+02  0.53479507843E+02  0.41800000000E+01 0.  1.
        -11    1    1    2    0    0  0.25122517438E+02 -0.39421874703E+02  0.15708818627E+02  0.49315231625E+02  0.00000000000E+00 0. -1.
         11    1    1    2    0    0 -0.10323473227E+02  0.32987044079E+02  0.78485442712E+02  0.85759453672E+02  0.00000000000E+00 0.  1.
</event>
<event>
 7    1  0.2420569E-009  0.1601371E+03  0.7561462E-02  0.1188542E+00
          1   -1    0    0  501    0  0.00000000000E+00  0.00000000000E+00  0.11591942897E+03  0.11591942897E+03  0.00000000000E+00 0. -1.
         -1   -1    0    0    0  501 -0.00000000000E+00 -0.00000000000E+00 -0.38558246846E+03  0.38558246846E+03  0.00000000000E+00 0.  1.
         25    2    1    2    0    0  0.11384340139E+03  0.77189081955E+02 -0.83789340386E+00  0.18591948491E+03  0.12508748295E+03 0.  0.
          5    1    3    3  502    0  0.43232254116E+02 -0.80937868891E+01 -0.48232017795E+02  0.65408998791E+02  0.41800000000E+01 0.  1.
         -5    1    3    3    0  502  0.70611147278E+02  0.85282868844E+02  0.47394124391E+02  0.12051048612E+03  0.41800000000E+01 0.  1.
        -11    1    1    2    0    0 -0.32866977480E+02 -0.77645452537E+02 -0.13892455516E+03  0.16250872756E+03  0.00000000000E+00 0.  1.
         11    1    1    2    0    0 -0.80976423914E+02  0.45637058229E+00 -0.12990059093E+03  0.15307368496E+03  0.00000000000E+00 0. -1.
</event>
<event>
 7    1  0.2420569E-009  0.1189883E+03  0.7561462E-02  0.1244775E+00
          1   -1    0    0  501    0  0.00000000000E+00  0.00000000000E+00  0.45090818589E+03  0.45090818589E+03  0.00000000000E+00 0. -1.
         -1   -1    0    0    0  501 -0.00000000000E+00 -0.00000000000E+00 -0.51124818929E+02  0.51124818929E+02  0.00000000000E+00 0.  1.
         25    2    1    2    0    0  0.99862671974E+02  0.20804038741E+02  0.26164886934E+03  0.30742958491E+03  0.12508979802E+03 0.  0.
          5    1    3    3  502    0  0.80956915379E+02 -0.26094001861E+02  0.73286650639E+02  0.11235356978E+03  0.41800000000E+01 0.  1.
         -5    1    3    3    0  502  0.18905756595E+02  0.46898040601E+02  0.18836221870E+03  0.19507601513E+03  0.41800000000E+01 0.  1.
        -11    1    1    2    0    0 -0.21703896204E+02 -0.61351788958E+01  0.10675708441E+03  0.10911358578E+03  0.00000000000E+00 0. -1.
         11    1    1    2    0    0 -0.78158775770E+02 -0.14668859845E+02  0.31377413210E+02  0.85489834125E+02  0.00000000000E+00 0.  1.
</event>
<event>
 7    1  0.2420569E-009  0.1477058E+03  0.7561462E-02  0.1203321E+00
          2   -1    0    0  501    0  0.00000000000E+00  0.00000000000E+00  0.91497592488E+03  0.91497592488E+03  0.00000000000E+00 0. -1.
         -2   -1    0    0    0  501 -0.00000000000E+00 -0.00000000000E+00 -0.32961972895E+02  0.32961972895E+02  0.00000000000E+00 0.  1.
         25    2    1    2    0    0  0.11898692005E+03 -0.48125780318E+02  0.60450155279E+03  0.63051312256E+03  0.12510272788E+03 0.  0.
          5    1    3    3  502    0  0.90211822134E+02 -0.74648498583E+02  0.55520383809E+03  0.56743223862E+03  0.41800000000E+01 0.  1.
         -5    1    3    3    0  502  0.28775097917E+02  0.26522718266E+02  0.49297714697E+02  0.63080883940E+02  0.41800000000E+01 0.  1.
        -11    1    1    2    0    0 -0.56823780527E+02 -0.50993862512E+01  0.18649499279E+03  0.19502648053E+03  0.00000000000E+00 0. -1.
         11    1    1    2    0    0 -0.62163139524E+02  0.53225166569E+02  0.91017406402E+02  0.12239829468E+03  0.00000000000E+00 0.  1.
</event>
<event>
 7    1  0.2420569E-009  0.9197646E+02  0.7561462E-02  0.1298135E+00
         -2   -1    0    0    0  501 -0.00000000000E+00  0.00000000000E+00  0.15004467396E+03  0.15004467396E+03  0.00000000000E+00 0.  1.
          2   -1    0    0  501    0  0.00000000000E+00 -0.00000000000E+00 -0.12380566765E+03  0.12380566765E+03  0.00000000000E+00 0. -1.
         25    2    1    2    0    0 -0.31735153096E+02  0.52750552850E+02  0.63794172297E+02  0.15331985813E+03  0.12509013434E+03 0.  0.
          5    1    3    3  502    0 -0.43572872979E+02 -0.14898268433E+02 -0.15096471513E+02  0.48640821478E+02  0.41800000000E+01 0. -1.
         -5    1    3    3    0  502  0.11837719883E+02  0.67648821282E+02  0.78890643809E+02  0.10467903665E+03  0.41800000000E+01 0. -1.
        -11    1    1    2    0    0  0.30075593715E+02 -0.20001590265E+02  0.29009983922E+02  0.46326926485E+02  0.00000000000E+00 0.  1.
         11    1    1    2    0    0  0.16595593806E+01 -0.32748962585E+02 -0.66565149914E+02  0.74203556996E+02  0.00000000000E+00 0. -1.
</event>
<event>
 7    1  0.2420569E-009  0.1426163E+03  0.7561462E-02  0.1209851E+00
          1   -1    0    0  501    0  0.00000000000E+00  0.00000000000E+00  0.13899852941E+03  0.13899852941E+03  0.00000000000E+00 0. -1.
         -1   -1    0    0    0  501 -0.00000000000E+00 -0.00000000000E+00 -0.18714805404E+03  0.18714805404E+03  0.00000000000E+00 0.  1.
         25    2    1    2    0    0 -0.34170559028E+02 -0.11280130487E+03 -0.92011008177E+01  0.17211606382E+03  0.12509003831E+03 0.  0.
          5    1    3    3  502    0  0.10273629050E+02  0.22394551950E+02  0.12755620398E+02  0.28057827119E+02  0.41800000000E+01 0. -1.
         -5    1    3    3    0  502 -0.44444188078E+02 -0.13519585682E+03 -0.21956721215E+02  0.14405823671E+03  0.41800000000E+01 0. -1.
        -11    1    1    2    0    0  0.28053800401E+02  0.91392752051E+02 -0.68079728141E+02  0.11736481682E+03  0.00000000000E+00 0.  1.
         11    1    1    2    0    0  0.61167586269E+01  0.21408552823E+02  0.29131304332E+02  0.36665702804E+02  0.00000000000E+00 0. -1.
</event>
<event>
 7    1  0.2420569E-009  0.2327829E+03  0.7561462E-02  0.1124696E+00
          1   -1    0    0  501    0  0.00000000000E+00  0.00000000000E+00  0.25184262737E+03  0.25184262737E+03  0.00000000000E+00 0. -1.
         -1   -1    0    0    0  501 -0.00000000000E+00 -0.00000000000E+00 -0.26404679706E+03  0.26404679706E+03  0.00000000000E+00 0.  1.
         25    2    1    2    0    0  0.15837438158E+03  0.15638357793E+03  0.64249332472E+02  0.26327364322E+03  0.12508703490E+03 0.  0.
          5    1    3    3  502    0  0.31984416720E+02  0.94394184610E+02 -0.16230538228E+02  0.10106516597E+03  0.41800000000E+01 0.  1.
         -5    1    3    3    0  502  0.12638996486E+03  0.61989393324E+02  0.80479870701E+02  0.16220847725E+03  0.41800000000E+01 0.  1.
        -11    1    1    2    0    0 -0.47538557521E+02 -0.69225276509E+02 -0.73477211215E+02  0.11158384259E+03  0.00000000000E+00 0.  1.
         11    1    1    2    0    0 -0.11083582406E+03 -0.87158301425E+02 -0.29762909491E+01  0.14103193862E+03  0.00000000000E+00 0. -1.
</event>
<event>
 7    1  0.2420569E-009  0.1031645E+03  0.7561462E-02  0.1273779E+00
         -3   -1    0    0    0  501 -0.00000000000E+00  0.00000000000E+00  0.11977201742E+03  0.11977201742E+03  0.00000000000E+00 0.  1.
          3   -1    0    0  501    0  0.00000000000E+00 -0.00000000000E+00 -0.13619568048E+03  0.13619568048E+03  0.00000000000E+00 0. -1.
         25    2    1    2    0    0 -0.64939376493E+02  0.19860616738E+02 -0.18460309176E+02  0.14352789916E+03  0.12509159886E+03 0.  0.
          5    1    3    3  502    0 -0.33571027315E+02 -0.32537725313E+02  0.37893207629E+02  0.60324829283E+02  0.41800000000E+01 0. -1.
         -5    1    3    3    0  502 -0.31368349179E+02  0.52398342051E+02 -0.56353516805E+02  0.83203069873E+02  0.41800000000E+01 0. -1.
        -11    1    1    2    0    0  0.65636768696E+02 -0.40762560380E+02  0.25164003947E+02  0.81258838462E+02  0.00000000000E+00 0.  1.
         11    1    1    2    0    0 -0.69739220233E+00  0.20901943642E+02 -0.23127357831E+02  0.31180960282E+02  0.00000000000E+00 0. -1.
</event>
<event>
 7    1  0.2420569E-009  0.2139525E+03  0.7561462E-02  0.1138474E+00
         -1   -1    0    0    0  501 -0.00000000000E+00  0.00000000000E+00  0.29226471175E+03  0.29226471175E+03  0.00000000000E+00 0.  1.
          1   -1    0    0  501    0  0.00000000000E+00 -0.00000000000E+00 -0.27497385347E+03  0.27497385347E+03  0.00000000000E+00 0. -1.
         25    2    1    2    0    0 -0.35106525955E+00  0.21286902916E+03  0.16128766234E+03  0.29491292942E+03  0.12508628659E+03 0.  0.
          5    1    3    3  502    0  0.93503644084E+01  0.17711094402E+03  0.18039794558E+03  0.25301503310E+03  0.41800000000E+01 0. -1.
         -5    1    3    3    0  502 -0.97014296680E+01  0.35758085147E+02 -0.19110283235E+02  0.41897896323E+02  0.41800000000E+01 0. -1.
        -11    1    1    2    0    0 -0.55463344690E+01 -0.13804497415E+03 -0.14071156348E+03  0.19719766939E+03  0.00000000000E+00 0.  1.
         11    1    1    2    0    0  0.58973997286E+01 -0.74824055011E+02 -0.32852405783E+01  0.75127966414E+02  0.00000000000E+00 0. -1.
</event>
<event>
 7    1  0.2420569E-009  0.7059024E+02  0.7561462E-02  0.1358097E+00
         -2   -1    0    0    0  501 -0.00000000000E+00  0.00000000000E+00  0.98696802785E+02  0.98696802785E+02  0.00000000000E+00 0.  1.
          2   -1    0    0  501    0  0.00000000000E+00 -0.00000000000E+00 -0.18795387691E+03  0.18795387691E+03  0.00000000000E+00 0. -1.
         25    2    1    2    0    0  0.22847531781E+02 -0.58811549425E+01  0.33890381445E+02  0.13173073844E+03  0.12509129387E+03 0.  0.
          5    1    3    3  502    0  0.38338234136E+02 -0.26728310588E+02  0.71688515773E+02  0.85679276825E+02  0.41800000000E+01 0. -1.
         -5    1    3    3    0  502 -0.15490702355E+02  0.20847155645E+02 -0.37798134328E+02  0.46051461612E+02  0.41800000000E+01 0. -1.
        -11    1    1    2    0    0 -0.27657003198E+02 -0.24647752387E+02 -0.11788588543E+03  0.12356983251E+03  0.00000000000E+00 0. -1.
         11    1    1    2    0    0  0.48094714168E+01  0.30528907329E+02 -0.52615701418E+01  0.31350108746E+02  0.00000000000E+00 0.  1.
</event>
<event>
 7    1  0.2420569E-009  0.3734791E+03  0.7561462E-02  0.1053371E+00
         -2   -1    0    0    0  501 -0.00000000000E+00  0.00000000000E+00  0.17507363238E+03  0.17507363238E+03  0.00000000000E+00 0.  1.
          2   -1    0    0  501    0  0.00000000000E+00 -0.00000000000E+00 -0.88206308884E+03  0.88206308884E+03  0.00000000000E+00 0. -1.
         25    2    1    2    0    0  0.33491455014E+03 -0.16188419914E+03 -0.27141665404E+03  0.47717138836E+03  0.12510509166E+03 0.  0.
          5    1    3    3  502    0  0.10386140268E+03 -0.65876665273E+02 -0.16353664727E+03  0.20466712827E+03  0.41800000000E+01 0.  1.
         -5    1    3    3    0  502  0.23105314746E+03 -0.96007533871E+02 -0.10788000677E+03  0.27250426009E+03  0.41800000000E+01 0.  1.
        -11    1    1    2    0    0 -0.74746183012E+02  0.20289412390E+02 -0.44317694916E+02  0.89234019368E+02  0.00000000000E+00 0. -1.
         11    1    1    2    0    0 -0.26016836712E+03  0.14159478675E+03 -0.39125510750E+03  0.49073131349E+03  0.00000000000E+00 0.  1.
</event>
<event>
 7    1  0.2420569E-009  0.1151270E+03  0.7561462E-02  0.1251360E+00
         -1   -1    0    0    0  501 -0.00000000000E+00  0.00000000000E+00  0.21358009086E+03  0.21358009086E+03  0.00000000000E+00 0.  1.
          1   -1    0    0  501    0  0.00000000000E+00 -0.00000000000E+00 -0.75522873736E+02  0.75522873736E+02  0.00000000000E+00 0. -1.
         25    2    1    2    0    0  0.42554727451E+02  0.65361738424E+02  0.10338853127E+03  0.18005371032E+03  0.12508832290E+03 0.  0.
          5    1    3    3  502    0  0.11727271861E+02 -0.31510218453E+02 -0.15147757680E+01  0.33914447038E+02  0.41800000000E+01 0.  1.
         -5    1    3    3    0  502  0.30827455590E+02  0.96871956877E+02  0.10490330703E+03  0.14613926329E+03  0.41800000000E+01 0.  1.
        -11    1    1    2    0    0  0.57807530047E+01 -0.39284413167E+02 -0.67287986300E+01  0.40273551547E+02  0.00000000000E+00 0. -1.
         11    1    1    2    0    0 -0.48335480456E+02 -0.26077325257E+02  0.41397484491E+02  0.68775702728E+02  0.00000000000E+00 0.  1.
</event>
<event>
 7    1  0.2420569E-009  0.9857186E+02  0.7561462E-02  0.1283328E+00
          2   -1    0    0  501    0  0.00000000000E+00  0.00000000000E+00  0.29045581686E+03  0.29045581686E+03  0.00000000000E+00 0. -1.
         -2   -1    0    0    0  501 -0.00000000000E+00 -0.00000000000E+00 -0.59059539645E+02  0.59059539645E+02  0.00000000000E+00 0.  1.
         25    2    1    2    0    0  0.23789387713E+02 -0.47071068986E+02  0.19477417012E+03  0.23741440881E+03  0.12508798367E+03 0.  0.
          5    1    3    3  502    0  0.60136972403E+02 -0.32960753797E+02  0.43911707374E+02  0.81538807847E+02  0.41800000000E+01 0. -1.
         -5    1    3    3    0  502 -0.36347584691E+02 -0.14110315190E+02  0.15086246275E+03  0.15587560096E+03  0.41800000000E+01 0. -1.
        -11    1    1    2    0    0  0.16498598300E+02 -0.10055372356E+02 -0.15609372923E+02  0.24838816037E+02  0.00000000000E+00 0.  1.
         11    1    1    2    0    0 -0.40287986013E+02  0.57126441342E+02  0.52231480013E+02  0.87262131659E+02  0.00000000000E+00 0. -1.
</event>
<event>
 7    1  0.2420569E-009  0.1169181E+03  0.7561462E-02  0.1248270E+00
         -2   -1    0    0    0  501 -0.00000000000E+00  0.00000000000E+00  0.22816174577E+02  0.22816174577E+02  0.00000000000E+00 0.  1.
          2   -1    0    0  501    0  0.00000000000E+00 -0.00000000000E+00 -0.73159826029E+03  0.73159826029E+03  0.00000000000E+00 0. -1.
         25    2    1    2    0    0  0.21557171439E+02  0.46808066329E+02 -0.24966177113E+03  0.28396328256E+03  0.12509372153E+03 0.  0.
          5    1    3    3  502    0 -0.19273025048E+02 -0.35668660661E+02 -0.53596213878E+02  0.67332974017E+02  0.41800000000E+01 0.  1.
         -5    1    3    3    0  502  0.40830196487E+02  0.82476726990E+02 -0.19606555725E+03  0.21663030854E+03  0.41800000000E+01 0.  1.
        -11    1    1    2    0    0 -0.18357487259E+02  0.23920558844E+02 -0.17899595866E+03  0.18151788808E+03  0.00000000000E+00 0.  1.
         11    1    1    2    0    0 -0.31996841807E+01 -0.70728625173E+02 -0.28012435592E+03  0.28893326423E+03  0.00000000000E+00 0. -1.
</event>
<event>
 7    1  0.2420569E-009  0.1635522E+03  0.7561462E-02  0.1184744E+00
         -3   -1    0    0    0  501 -0.00000000000E+00  0.00000000000E+00  0.79947824947E+02  0.79947824947E+02  0.00000000000E+00 0.  1.
          3   -1    0    0  501    0  0.00000000000E+00 -0.00000000000E+00 -0.43350133828E+03  0.43350133828E+03  0.00000000000E+00 0. -1.
         25    2    1    2    0    0 -0.65895679432E+02  0.13438247163E+03 -0.16336743014E+03  0.25443639273E+03  0.12509225181E+03 0.  0.
          5    1    3    3  502    0 -0.33900546694E+02  0.35459201680E+02  0.11860084069E+02  0.50643223081E+02  0.41800000000E+01 0. -1.
         -5    1    3    3    0  502 -0.31995132738E+02  0.98923269947E+02 -0.17522751421E+03  0.20379316964E+03  0.41800000000E+01 0. -1.
        -11    1    1    2    0    0  0.25191895915E+02 -0.13052127941E+03 -0.16095973814E+03  0.20875457671E+03  0.00000000000E+00 0.  1.
         11    1    1    2    0    0  0.40703783517E+02 -0.38611922219E+01 -0.29226345056E+02  0.50258193793E+02  0.00000000000E+00 0. -1.
</event>
<event>
 7    1  0.2420569E-009  0.1039521E+03  0.7561462E-02  0.1272198E+00
          2   -1    0    0  501    0  0.00000000000E+00  0.00000000000E+00  0.47601091507E+03  0.47601091507E+03  0.00000000000E+00 0. -1.
         -2   -1    0    0    0  501 -0.00000000000E+00 -0.00000000000E+00 -0.42953955245E+02  0.42953955245E+02  0.00000000000E+00 0.  1.
         25    2    1    2    0    0 -0.23410097257E+02  0.51496372168E+02  0.36858640904E+03  0.39332345383E+03  0.12508992526E+03 0.  0.
          5    1    3    3  502    0 -0.35068188153E+02  0.86433503632E+02  0.20016218819E+03  0.22086851824E+03  0.41800000000E+01 0. -1.
         -5    1    3    3    0  502  0.11658090896E+02 -0.34937131464E+02  0.16842422085E+03  0.17245493558E+03  0.41800000000E+01 0. -1.
        -11    1    1    2    0    0  0.23462122836E+02 -0.62347193949E+02  0.81615923757E+02  0.10535085577E+03  0.00000000000E+00 0. -1.
         11    1    1    2    0    0 -0.52025578919E-01  0.10850821781E+02 -0.17145372969E+02  0.20290560717E+02  0.00000000000E+00 0.  1.
</event>
<event>
 7    1  0.2420569E-009  0.1361902E+03  0.7561462E-02  0.1218549E+00
         -2   -1    0    0    0  501 -0.00000000000E+00  0.00000000000E+00  0.55358367469E+03  0.55358367469E+03  0.00000000000E+00 0.  1.
          2   -1    0    0  501    0  0.00000000000E+00 -0.00000000000E+00 -0.36862496408E+02  0.36862496408E+02  0.00000000000E+00 0. -1.
         25    2    1    2    0    0 -0.52414048760E+02 -0.68550215028E+02  0.20812293788E+03  0.25769988904E+03  0.12509081124E+03 0.  0.
          5    1    3    3  502    0  0.25392482296E+01  0.33288166983E+02  0.29057325993E+02  0.44456163088E+02  0.41800000000E+01 0. -1.
         -5    1    3    3    0  502 -0.54953296989E+02 -0.10183838201E+03  0.17906561188E+03  0.21324372596E+03  0.41800000000E+01 0. -1.
        -11    1    1    2    0    0  0.52683737788E+02  0.88496928081E+02  0.23678641140E+03  0.25821519539E+03  0.00000000000E+00 0. -1.
         11    1    1    2    0    0 -0.26968902794E+00 -0.19946713053E+02  0.71811829005E+02  0.74531086661E+02  0.00000000000E+00 0.  1.
</event>
<event>
 7    1  0.2559685E-009  0.9745182E+02  0.7561462E-02  0.1285748E+00
          3   -1    0    0  501    0  0.00000000000E+00  0.00000000000E+00  0.30566282545E+03  0.30566282545E+03  0.00000000000E+00 0. -1.
         -3   -1    0    0    0  501 -0.00000000000E+00 -0.00000000000E+00 -0.50148954042E+02  0.50148954042E+02  0.00000000000E+00 0.  1.
         25    2    1    2    0    0  0.35947654393E+02 -0.35227494778E+02  0.96495033981E+02  0.16580691270E+03  0.12508968971E+03 0.  0.
          5    1    3    3  502    0  0.39470754885E+02  0.24894381574E+02 -0.56130779737E+01  0.47187389941E+02  0.41800000000E+01 0.  1.
         -5    1    3    3    0  502 -0.35231004919E+01 -0.60121876353E+02  0.10210811195E+03  0.11861952276E+03  0.41800000000E+01 0.  1.
        -11    1    1    2    0    0  0.10553290662E+02  0.39593613752E+02  0.24810590388E+02  0.47901895465E+02  0.00000000000E+00 0.  1.
         11    1    1    2    0    0 -0.46500945055E+02 -0.43661189737E+01  0.13420824704E+03  0.14210297132E+03  0.00000000000E+00 0. -1.
</event>
<event>
 7    1  0.2420569E-009  0.1860010E+03  0.7561462E-02  0.1162118E+00
          2   -1    0    0  501    0  0.00000000000E+00  0.00000000000E+00  0.18345911605E+03  0.18345911605E+03  0.00000000000E+00 0.  1.
         -2   -1    0    0    0  501 -0.00000000000E+00 -0.00000000000E+00 -0.21890874848E+03  0.21890874848E+03  0.00000000000E+00 0. -1.
         25    2    1    2    0    0  0.31117028618E+02 -0.16752977599E+03 -0.10637790638E+02  0.21164935433E+03  0.12509113192E+03 0.  0.
          5    1    3    3  502    0  0.65730023742E+02 -0.11237285855E+03 -0.45121437764E+02  0.13784597167E+03  0.41800000000E+01 0. -1.
         -5    1    3    3    0  502 -0.34612995124E+02 -0.55156917438E+02  0.34483647126E+02  0.73803382658E+02  0.41800000000E+01 0. -1.
        -11    1    1    2    0    0 -0.41531873850E+02  0.15353538458E+03  0.16049920787E+01  0.15906158199E+03  0.00000000000E+00 0.  1.
         11    1    1    2    0    0  0.10414845232E+02  0.13994391402E+02 -0.26416833869E+02  0.31656928208E+02  0.00000000000E+00 0. -1.
</event>
<event>
 7    1  0.2420569E-009  0.1160928E+03  0.7561462E-02  0.1249685E+00
         -1   -1    0    0    0  501 -0.00000000000E+00  0.00000000000E+00  0.36155173865E+02  0.36155173865E+02  0.00000000000E+00 0.  1.
          1   -1    0    0  501    0  0.00000000000E+00 -0.00000000000E+00 -0.42216775556E+03  0.42216775556E+03  0.00000000000E+00 0. -1.
         25    2    1    2    0    0 -0.16714402960E+02  0.53753498018E+02 -0.20117577892E+03  0.24349325108E+03  0.12509380274E+03 0.  0.
          5    1    3    3  502    0 -0.52855551760E+02 -0.13425336802E+02 -0.49974140301E+02  0.74086679767E+02  0.41800000000E+01 0. -1.
         -5    1    3    3    0  502  0.36141148801E+02  0.67178834821E+02 -0.15120163862E+03  0.16940657132E+03  0.41800000000E+01 0. -1.
        -11    1    1    2    0    0  0.30598624749E+02  0.12755623006E+02 -0.26196049099E+02  0.42251801657E+02  0.00000000000E+00 0.  1.
         11    1    1    2    0    0 -0.13884221790E+02 -0.66509121025E+02 -0.15864075368E+03  0.17257787669E+03  0.00000000000E+00 0. -1.
</event>
<event>
 7    1  0.2420569E-009  0.1339538E+03  0.7561462E-02  0.1221704E+00
          1   -1    0    0  501    0  0.00000000000E+00  0.00000000000E+00  0.18789591465E+03  0.18789591465E+03  0.00000000000E+00 0. -1.
         -1   -1    0    0    0  501 -0.00000000000E+00 -0.00000000000E+00 -0.10303446431E+03  0.10303446431E+03  0.00000000000E+00 0.  1.
         25    2    1    2    0    0  0.50818639393E+02  0.69363486506E+02  0.62326452406E+02  0.16409213966E+03  0.12509123174E+03 0.  0.
          5    1    3    3  502    0 -0.84055489763E+01  0.82499419775E+02  0.95563099735E+01  0.83579919700E+02  0.41800000000E+01 0.  1.
         -5    1    3    3    0  502  0.59224188370E+02 -0.13135933269E+02  0.52770142432E+02  0.80512219962E+02  0.41800000000E+01 0.  1.
        -11    1    1    2    0    0  0.20766473082E+01 -0.71113920106E+02  0.19778137231E+02  0.73842242715E+02  0.00000000000E+00 0.  1.
         11    1    1    2    0    0 -0.52895286702E+02  0.17504335996E+01  0.27568607067E+01  0.52995996585E+02  0.00000000000E+00 0. -1.
</event>
<event>
 7    1  0.2420569E-009  0.1353286E+03  0.7561462E-02  0.1219757E+00
          2   -1    0    0  501    0  0.00000000000E+00  0.00000000000E+00  0.15037122595E+03  0.15037122595E+03  0.00000000000E+00 0. -1.
         -2   -1    0    0    0  501 -0.00000000000E+00 -0.00000000000E+00 -0.17011204624E+03  0.17011204624E+03  0.00000000000E+00 0.  1.
         25    2    1    2    0    0 -0.41662233428E+02  0.10723201638E+03  0.15160086022E+02  0.17062441716E+03  0.12509363090E+03 0.  0.
          5    1    3    3  502    0 -0.10357904614E+02 -0.16205914215E+02  0.36468487468E+02  0.41440811065E+02  0.41800000000E+01 0.  1.
         -5    1    3    3    0  502 -0.31304328814E+02  0.12343793060E+03 -0.21308401446E+02  0.12918360610E+03  0.41800000000E+01 0.  1.
        -11    1    1    2    0    0  0.75876984602E+00 -0.64148965546E+02 -0.57644100761E+02  0.86246784664E+02  0.00000000000E+00 0.  1.
         11    1    1    2    0    0  0.40903463582E+02 -0.43083050837E+02  0.22743194447E+02  0.63612070364E+02  0.00000000000E+00 0. -1.
</event>
<event>
 7    1  0.2420569E-009  0.1282798E+03  0.7561462E-02  0.1230031E+00
         -1   -1    0    0    0  501 -0.00000000000E+00  0.00000000000E+00  0.25270739226E+02  0.25270739226E+02  0.00000000000E+00 0.  1.
          1   -1    0    0  501    0  0.00000000000E+00 -0.00000000000E+00 -0.99067321660E+03  0.99067321660E+03  0.00000000000E+00 0. -1.
         25    2    1    2    0    0 -0.99862844512E+02 -0.43943730001E+02 -0.40683646770E+03  0.43939282335E+03  0.12508598098E+03 0.  0.
          5    1    3    3  502    0 -0.52536661597E+02 -0.55432349693E+02 -0.37095126417E+03  0.37875474782E+03  0.41800000000E+01 0. -1.
         -5    1    3    3    0  502 -0.47326182915E+02  0.11488619693E+02 -0.35885203533E+02  0.60638075533E+02  0.41800000000E+01 0. -1.
        -11    1    1    2    0    0  0.10647508879E+03  0.53822057679E+02 -0.54737171849E+03  0.56022277410E+03  0.00000000000E+00 0. -1.
         11    1    1    2    0    0 -0.66122442765E+01 -0.98783276781E+01 -0.11194291188E+02  0.16328358377E+02  0.00000000000E+00 0.  1.
</event>
<event>
 7    1  0.2420569E-009  0.1600176E+03  0.7561462E-02  0.1188677E+00
          2   -1    0    0  501    0  0.00000000000E+00  0.00000000000E+00  0.18359743736E+04  0.18359743736E+04  0.00000000000E+00 0. -1.
         -2   -1    0    0    0  501 -0.00000000000E+00 -0.00000000000E+00 -0.20505260229E+02  0.20505260229E+02  0.00000000000E+00 0.  1.
         25    2    1    2    0    0  0.94006095094E+02 -0.10086530598E+03  0.13492379876E+04  0.13620204735E+04  0.12508264066E+03 0.  0.
          5    1    3    3  502    0 -0.14402074885E+02 -0.11888759164E+02  0.31672140558E+02  0.37004854317E+02  0.41800000000E+01 0. -1.
         -5    1    3    3    0  502  0.10840816998E+03 -0.88976546815E+02  0.13175658471E+04  0.13250156191E+04  0.41800000000E+01 0. -1.
        -11    1    1    2    0    0  0.14532687101E+02  0.22228533825E+02  0.43275698409E+02  0.50774922778E+02  0.00000000000E+00 0.  1.
         11    1    1    2    0    0 -0.10853878220E+03  0.78636772154E+02  0.42295542729E+03  0.44368423755E+03  0.00000000000E+00 0. -1.
</event>
<event>
 7    1  0.2420569E-009  0.1705392E+03  0.7561462E-02  0.1177287E+00
         -1   -1    0    0    0  501 -0.00000000000E+00  0.00000000000E+00  0.16747038945E+02  0.16747038945E+02  0.00000000000E+00 0.  1.
          1   -1    0    0  501    0  0.00000000000E+00 -0.00000000000E+00 -0.18547593018E+04  0.18547593018E+04  0.00000000000E+00 0. -1.
         25    2    1    2    0    0  0.13022199108E+03  0.52162060553E+02 -0.95997586758E+03  0.97820275538E+03  0.12509323234E+03 0.  0.
          5    1    3    3  502    0 -0.19678060305E+02  0.84845649997E+00 -0.24715946794E+03  0.24797826705E+03  0.41800000000E+01 0.  1.
         -5    1    3    3    0  502  0.14990005138E+03  0.51313604054E+02 -0.71281639963E+03  0.73022448833E+03  0.41800000000E+01 0.  1.
        -11    1    1    2    0    0 -0.10998877390E+02 -0.41291088774E+02 -0.17462166801E+03  0.17977390315E+03  0.00000000000E+00 0.  1.
         11    1    1    2    0    0 -0.11922311369E+03 -0.10870971780E+02 -0.70341472731E+03  0.71352968225E+03  0.00000000000E+00 0. -1.
</event>
<event>
 7    1  0.2420569E-009  0.1124033E+03  0.7561462E-02  0.1256183E+00
          2   -1    0    0  501    0  0.00000000000E+00  0.00000000000E+00  0.97558344478E+02  0.97558344478E+02  0.00000000000E+00 0. -1.
         -2   -1    0    0    0  501 -0.00000000000E+00 -0.00000000000E+00 -0.18296898260E+03  0.18296898260E+03  0.00000000000E+00 0.  1.
         25    2    1    2    0    0 -0.66113911376E+02  0.34958927763E+02 -0.77083243801E+02  0.16487074439E+03  0.12508940792E+03 0.  0.
          5    1    3    3  502    0 -0.25827191988E+02  0.80278703217E+02 -0.51675296604E+02  0.98992538685E+02  0.41800000000E+01 0.  1.
         -5    1    3    3    0  502 -0.40286719388E+02 -0.45319775454E+02 -0.25407947197E+02  0.65878205706E+02  0.41800000000E+01 0.  1.
        -11    1    1    2    0    0  0.37565999811E+02 -0.34552456491E+02 -0.45779705140E+02  0.68562803283E+02  0.00000000000E+00 0.  1.
         11    1    1    2    0    0  0.28547911564E+02 -0.40647127199E+00  0.37452310814E+02  0.47093779408E+02  0.00000000000E+00 0. -1.
</event>
<event>
 7    1  0.2420569E-009  0.1107072E+03  0.7561462E-02  0.1259266E+00
          2   -1    0    0  501    0  0.00000000000E+00  0.00000000000E+00  0.12089197508E+03  0.12089197508E+03  0.00000000000E+00 0. -1.
         -2   -1    0    0    0  501 -0.00000000000E+00 -0.00000000000E+00 -0.25415260157E+03  0.25415260157E+03  0.00000000000E+00 0.  1.
         25    2    1    2    0    0  0.25606389622E+02 -0.36099297996E+02  0.68847825420E+02  0.14948787151E+03  0.12509098352E+03 0.  0.
          5    1    3    3  502    0  0.97609963358E+01  0.41069436747E+02 -0.33450218069E+01  0.42551583461E+02  0.41800000000E+01 0. -1.
         -5    1    3    3    0  502  0.15845393286E+02 -0.77168734743E+02  0.72192847227E+02  0.10693628805E+03  0.41800000000E+01 0. -1.
        -11    1    1    2    0    0 -0.53941467513E+02 -0.34370047844E+00 -0.11187203505E+03  0.12419803651E+03  0.00000000000E+00 0.  1.
         11    1    1    2    0    0  0.28335077891E+02  0.36442998474E+02 -0.90236416867E+02  0.10135866863E+03  0.00000000000E+00 0. -1.
</event>
<event>
 7    1  0.2420569E-009  0.1271278E+03  0.7561462E-02  0.1231781E+00
         -2   -1    0    0    0  501 -0.00000000000E+00  0.00000000000E+00  0.43736088376E+02  0.43736088376E+02  0.00000000000E+00 0.  1.
          2   -1    0    0  501    0  0.00000000000E+00 -0.00000000000E+00 -0.37068967769E+03  0.37068967769E+03  0.00000000000E+00 0. -1.
         25    2    1    2    0    0  0.56014383205E+01  0.64482395801E+02 -0.19090340050E+03  0.23723772298E+03  0.12509305897E+03 0.  0.
          5    1    3    3  502    0 -0.93919208398E+01  0.10077535935E+03 -0.14037745322E+03  0.17311032032E+03  0.41800000000E+01 0. -1.
         -5    1    3    3    0  502  0.14993359160E+02 -0.36292963554E+02 -0.50525947280E+02  0.64127402653E+02  0.41800000000E+01 0. -1.
        -11    1    1    2    0    0 -0.13730174428E+02 -0.87751556798E+02 -0.10860915489E+03  0.14030253717E+03  0.00000000000E+00 0.  1.
         11    1    1    2    0    0  0.81287361079E+01  0.23269160997E+02 -0.27441033927E+02  0.36885505923E+02  0.00000000000E+00 0. -1.
</event>
<event>
 7    1  0.2420569E-009  0.1214996E+03  0.7561462E-02  0.1240643E+00
          1   -1    0    0  501    0  0.00000000000E+00  0.00000000000E+00  0.36280436805E+03  0.36280436805E+03  0.00000000000E+00 0. -1.
         -1   -1    0    0    0  501 -0.00000000000E+00 -0.00000000000E+00 -0.69819799381E+02  0.69819799381E+02  0.00000000000E+00 0.  1.
         25    2    1    2    0    0 -0.10755506593E+02 -0.10180945101E+03  0.81293826848E+02  0.18092450586E+03  0.12507655775E+03 0.  0.
          5    1    3    3  502    0  0.70940205860E+01 -0.10847572944E+03  0.12600377319E+02  0.10951507163E+03  0.41800000000E+01 0.  1.
         -5    1    3    3    0  502 -0.17849527179E+02  0.66662784292E+01  0.68693449529E+02  0.71409434229E+02  0.41800000000E+01 0.  1.
        -11    1    1    2    0    0 -0.21038410168E+02  0.41451888204E+02  0.24671460008E+02  0.52626558665E+02  0.00000000000E+00 0. -1.
         11    1    1    2    0    0  0.31793916761E+02  0.60357562807E+02  0.18701928181E+03  0.19907310290E+03  0.00000000000E+00 0.  1.
</event>
<event>
 7    1  0.2420569E-009  0.1383493E+03  0.7561462E-02  0.1215568E+00
          1   -1    0    0  501    0  0.00000000000E+00  0.00000000000E+00  0.14939949290E+03  0.14939949290E+03  0.00000000000E+00 0. -1.
         -1   -1    0    0    0  501 -0.00000000000E+00 -0.00000000000E+00 -0.20269671453E+03  0.20269671453E+03  0.00000000000E+00 0.  1.
         25    2    1    2    0    0  0.10030326453E+02  0.11986281349E+03 -0.89901961472E+02  0.19544017722E+03  0.12508716437E+03 0.  0.
          5    1    3    3  502    0 -0.23451748841E+02 -0.23616852713E+00  0.18508373057E+02  0.30167409111E+02  0.41800000000E+01 0.  1.
         -5    1    3    3    0  502  0.33482075294E+02  0.12009898202E+03 -0.10841033453E+03  0.16527276811E+03  0.41800000000E+01 0.  1.
        -11    1    1    2    0    0 -0.23863933626E+02 -0.36397377656E+02 -0.26637259996E+02  0.51027444071E+02  0.00000000000E+00 0.  1.
         11    1    1    2    0    0  0.13833607173E+02 -0.83465435832E+02  0.63241999839E+02  0.10562858614E+03  0.00000000000E+00 0. -1.
</event>
<event>
 7    1  0.2420569E-009  0.1446024E+03  0.7561462E-02  0.1207267E+00
         -1   -1    0    0    0  501 -0.00000000000E+00  0.00000000000E+00  0.28828458891E+02  0.28828458891E+02  0.00000000000E+00 0.  1.
          1   -1    0    0  501    0  0.00000000000E+00 -0.00000000000E+00 -0.84388946249E+03  0.84388946249E+03  0.00000000000E+00 0. -1.
         25    2    1    2    0    0 -0.51924320504E+02 -0.83299691128E+02 -0.58942949339E+03  0.61049944948E+03  0.12508987382E+03 0.  0.
          5    1    3    3  502    0 -0.41880570861E+02  0.23952979972E+02 -0.13391619799E+03  0.14240346888E+03  0.41800000000E+01 0. -1.
         -5    1    3    3    0  502 -0.10043749643E+02 -0.10725267110E+03 -0.45551329540E+03  0.46809598059E+03  0.41800000000E+01 0. -1.
        -11    1    1    2    0    0  0.31807592769E+02  0.10117886668E+03 -0.18954590116E+03  0.21720159913E+03  0.00000000000E+00 0. -1.
         11    1    1    2    0    0  0.20116727736E+02 -0.17879175555E+02 -0.36085609057E+02  0.45016872774E+02  0.00000000000E+00 0.  1.
</event>
<event>
 7    1  0.2420569E-009  0.1688428E+03  0.7561462E-02  0.1179060E+00
         -1   -1    0    0    0  501 -0.00000000000E+00  0.00000000000E+00  0.82271438847E+03  0.82271438847E+03  0.00000000000E+00 0.  1.
          1   -1    0    0  501    0  0.00000000000E+00 -0.00000000000E+00 -0.41411229463E+02  0.41411229463E+02  0.00000000000E+00 0. -1.
         25    2    1    2    0    0  0.12260498250E+03 -0.72804115574E+02  0.51915010222E+03  0.55271832179E+03  0.12509313983E+03 0.  0.
          5    1    3    3  502    0  0.14173783579E+03 -0.49464463992E+02  0.35020179567E+03  0.38104477083E+03  0.41800000000E+01 0. -1.
         -5    1    3    3    0  502 -0.19132853293E+02 -0.23339651582E+02  0.16894830656E+03  0.17167355096E+03  0.41800000000E+01 0. -1.
        -11    1    1    2    0    0 -0.63043867065E+02  0.88917173068E-01  0.16307403365E+03  0.17483614481E+03  0.00000000000E+00 0.  1.
         11    1    1    2    0    0 -0.59561115432E+02  0.72715198401E+02  0.99079023135E+02  0.13657115133E+03  0.00000000000E+00 0. -1.
</event>
<event>
 7    1  0.2420569E-009  0.1015461E+03  0.7561462E-02  0.1277078E+00
         -3   -1    0    0    0  501 -0.00000000000E+00  0.00000000000E+00  0.26115504760E+02  0.26115504760E+02  0.00000000000E+00 0.  1.
          3   -1    0    0  501    0  0.00000000000E+00 -0.00000000000E+00 -0.46888942400E+03  0.46888942400E+03  0.00000000000E+00 0. -1.
         25    2    1    2    0    0  0.18750787482E+01  0.23496323571E+02 -0.22536048179E+03  0.25882460188E+03  0.12508890694E+03 0.  0.
          5    1    3    3  502    0 -0.59518394108E+02  0.55733337591E+01 -0.13822772097E+03  0.15065814459E+03  0.41800000000E+01 0.  1.
         -5    1    3    3    0  502  0.61393472856E+02  0.17922989812E+02 -0.87132760822E+02  0.10816645728E+03  0.41800000000E+01 0.  1.
        -11    1    1    2    0    0  0.21429483645E+02  0.20265655514E+02 -0.14780777071E+03  0.15072178557E+03  0.00000000000E+00 0. -1.
         11    1    1    2    0    0 -0.23304562393E+02 -0.43761979085E+02 -0.69605666729E+02  0.85458541308E+02  0.00000000000E+00 0.  1.
</event>
<event>
 7    1  0.2420569E-009  0.7798883E+02  0.7561462E-02  0.1334858E+00
         -1   -1    0    0    0  501 -0.00000000000E+00  0.00000000000E+00  0.20015599490E+02  0.20015599490E+02  0.00000000000E+00 0.  1.
          1   -1    0    0  501    0  0.00000000000E+00 -0.00000000000E+00 -0.81158018225E+03  0.81158018225E+03  0.00000000000E+00 0. -1.
         25    2    1    2    0    0 -0.47962125520E+02 -0.23176165399E+02 -0.30446247898E+03  0.33344039184E+03  0.12509034205E+03 0.  0.
          5    1    3    3  502    0 -0.83806133837E+01 -0.11949995190E+01  0.11126845588E+02  0.14592525390E+02  0.41800000000E+01 0. -1.
         -5    1    3    3    0  502 -0.39581512137E+02 -0.21981165880E+02 -0.31558932457E+03  0.31884786645E+03  0.41800000000E+01 0. -1.
        -11    1    1    2    0    0  0.67897197679E+02 -0.32399204566E+01 -0.38085634859E+03  0.38687476629E+03  0.00000000000E+00 0. -1.
         11    1    1    2    0    0 -0.19935072159E+02  0.26416085856E+02 -0.10624575519E+03  0.11128062361E+03  0.00000000000E+00 0.  1.
</event>
<event>
 7    1  0.2420569E-009  0.1538833E+03  0.7561462E-02  0.1195781E+00
          1   -1    0    0  501    0  0.00000000000E+00  0.00000000000E+00  0.13797320047E+03  0.13797320047E+03  0.00000000000E+00 0. -1.
         -1   -1    0    0    0  501 -0.00000000000E+00 -0.00000000000E+00 -0.18734377633E+03  0.18734377633E+03  0.00000000000E+00 0.  1.
         25    2    1    2    0    0  0.38055182175E+02  0.11187015260E+03 -0.38483700091E+02  0.17632751775E+03  0.12508904992E+03 0.  0.
          5    1    3    3  502    0 -0.34900083082E+02  0.41172484347E+01  0.10978998726E+02  0.37053722442E+02  0.41800000000E+01 0. -1.
         -5    1    3    3    0  502  0.72955265257E+02  0.10775290417E+03 -0.49462698817E+02  0.13927379531E+03  0.41800000000E+01 0. -1.
        -11    1    1    2    0    0 -0.55135614719E+02 -0.39502201952E+02 -0.26835825809E+02  0.72941905078E+02  0.00000000000E+00 0.  1.
         11    1    1    2    0    0  0.17080432544E+02 -0.72367950651E+02  0.15948950036E+02  0.76047553968E+02  0.00000000000E+00 0. -1.
</event>
<event>
 7    1  0.2420569E-009  0.1657764E+03  0.7561462E-02  0.1182325E+00
          2   -1    0    0  501    0  0.00000000000E+00  0.00000000000E+00  0.16391773004E+04  0.16391773004E+04  0.00000000000E+00 0. -1.
         -2   -1    0    0    0  501 -0.00000000000E+00 -0.00000000000E+00 -0.17152979585E+02  0.17152979585E+02  0.00000000000E+00 0.  1.
         25    2    1    2    0    0  0.83809313800E+02  0.92114345025E+02  0.74376739555E+03  0.76442528434E+03  0.12508806103E+03 0.  0.
          5    1    3    3  502    0 -0.17540720740E+02  0.70035772178E+02  0.28102065220E+03  0.29017712803E+03  0.41800000000E+01 0.  1.
         -5    1    3    3    0  502  0.10135003454E+03  0.22078572848E+02  0.46274674335E+03  0.47424815631E+03  0.41800000000E+01 0.  1.
        -11    1    1    2    0    0 -0.10193138630E+03 -0.91984025127E+02  0.77241728587E+03  0.78452503587E+03  0.00000000000E+00 0. -1.
         11    1    1    2    0    0  0.18122072504E+02 -0.13031989803E+00  0.10583963938E+03  0.10737995977E+03  0.00000000000E+00 0.  1.
</event>
<event>
 7    1  0.2420569E-009  0.1203039E+03  0.7561462E-02  0.1242597E+00
          2   -1    0    0  501    0  0.00000000000E+00  0.00000000000E+00  0.95925198841E+02  0.95925198841E+02  0.00000000000E+00 0. -1.
         -2   -1    0    0    0  501 -0.00000000000E+00 -0.00000000000E+00 -0.21385395891E+03  0.21385395891E+03  0.00000000000E+00 0.  1.
         25    2    1    2    0    0 -0.57197012146E+02 -0.14547989921E+02 -0.14249482919E+03  0.19858311448E+03  0.12508930730E+03 0.  0.
          5    1    3    3  502    0  0.28022538687E+02 -0.34875017287E+02 -0.23358017950E+02  0.50641869118E+02  0.41800000000E+01 0.  1.
         -5    1    3    3    0  502 -0.85219550833E+02  0.20327027366E+02 -0.11913681124E+03  0.14794124536E+03  0.41800000000E+01 0.  1.
        -11    1    1    2    0    0  0.45082788816E+02 -0.34926102790E+02  0.18208414194E+02  0.59865155566E+02  0.00000000000E+00 0.  1.
         11    1    1    2    0    0  0.12114223329E+02  0.49474092711E+02  0.63576549291E+01  0.51330887705E+02  0.00000000000E+00 0. -1.
</event>
<event>
 7    1  0.2420569E-009  0.1534034E+03  0.7561462E-02  0.1196352E+00
         -1   -1    0    0    0  501 -0.00000000000E+00  0.00000000000E+00  0.55064865373E+03  0.55064865373E+03  0.00000000000E+00 0.  1.
          1   -1    0    0  501    0  0.00000000000E+00 -0.00000000000E+00 -0.59750293825E+02  0.59750293825E+02  0.00000000000E+00 0. -1.
         25    2    1    2    0    0  0.12182618526E+03  0.18343897350E+01  0.39080110450E+03  0.42803787194E+03  0.12508370052E+03 0.  0.
          5    1    3    3  502    0  0.70913404034E+02  0.47889088325E+02  0.11274517548E+03  0.14160163363E+03  0.41800000000E+01 0.  1.
         -5    1    3    3    0  502  0.50912781229E+02 -0.46054698590E+02  0.27805592903E+03  0.28643623832E+03  0.41800000000E+01 0.  1.
        -11    1    1    2    0    0 -0.10920339588E+03 -0.36755984589E+02  0.73172925966E+02  0.13649417998E+03  0.00000000000E+00 0.  1.
         11    1    1    2    0    0 -0.12622789384E+02  0.34921594854E+02  0.26924329431E+02  0.45866895625E+02  0.00000000000E+00 0. -1.
</event>
<event>
 7    1  0.2420569E-009  0.2017326E+03  0.7561462E-02  0.1148285E+00
         -3   -1    0    0    0  501 -0.00000000000E+00  0.00000000000E+00  0.10659532825E+04  0.10659532825E+04  0.00000000000E+00 0.  1.
          3   -1    0    0  501    0  0.00000000000E+00 -0.00000000000E+00 -0.58096041435E+02  0.58096041435E+02  0.00000000000E+00 0. -1.
         25    2    1    2    0    0  0.17070340458E+03 -0.69613666111E+02  0.23500792971E+03  0.32382254807E+03  0.12508637320E+03 0.  0.
          5    1    3    3  502    0  0.91662946421E+02 -0.97296669577E+02  0.17707021761E+03  0.22190104105E+03  0.41800000000E+01 0. -1.
         -5    1    3    3    0  502  0.79040458163E+02  0.27683003465E+02  0.57937712107E+02  0.10192150701E+03  0.41800000000E+01 0. -1.
        -11    1    1    2    0    0 -0.77169673423E+02  0.44273806316E+02  0.19537594518E+03  0.21467903572E+03  0.00000000000E+00 0. -1.
         11    1    1    2    0    0 -0.93533731161E+02  0.25339859795E+02  0.57747336621E+03  0.58554774019E+03  0.00000000000E+00 0.  1.
</event>
<event>
 7    1  0.2420569E-009  0.1378805E+03  0.7561462E-02  0.1216210E+00
          1   -1    0    0  501    0  0.00000000000E+00  0.00000000000E+00  0.91870437348E+03  0.91870437348E+03  0.00000000000E+00 0. -1.
         -1   -1    0    0    0  501 -0.00000000000E+00 -0.00000000000E+00 -0.29713214993E+02  0.29713214993E+02  0.00000000000E+00 0.  1.
         25    2    1    2    0    0  0.11701064452E+03 -0.41827602880E+02  0.46039089943E+03  0.49299923117E+03  0.12508965730E+03 0.  0.
          5    1    3    3  502    0  0.37560832025E+02 -0.41582501101E+02  0.50790084381E+02  0.75743155279E+02  0.41800000000E+01 0. -1.
         -5    1    3    3    0  502  0.79449812490E+02 -0.24510177854E+00  0.40960081505E+03  0.41725607589E+03  0.41800000000E+01 0. -1.
        -11    1    1    2    0    0 -0.11650088687E+03  0.20034204191E+02  0.41019438676E+03  0.42688787861E+03  0.00000000000E+00 0. -1.
         11    1    1    2    0    0 -0.50975764309E+00  0.21793398689E+02  0.18405872306E+02  0.28530478696E+02  0.00000000000E+00 0.  1.
</event>
<event>
 7    1  0.2420569E-009  0.1021092E+03  0.7561462E-02  0.1275922E+00
          4   -1    0    0  501    0  0.00000000000E+00  0.00000000000E+00  0.10444896245E+03  0.10444896245E+03  0.00000000000E+00 0. -1.
         -4   -1    0    0    0  501 -0.00000000000E+00 -0.00000000000E+00 -0.16759819188E+03  0.16759819188E+03  0.00000000000E+00 0.  1.
         25    2    1    2    0    0 -0.44676229257E+02  0.47579448071E+01 -0.98629082672E+02  0.16551417097E+03  0.12509452963E+03 0.  0.
          5    1    3    3  502    0 -0.11246444579E+02 -0.45235203331E+02 -0.94055700886E+02  0.10505547775E+03  0.41800000000E+01 0.  1.
         -5    1    3    3    0  502 -0.33429784678E+02  0.49993148138E+02 -0.45733817853E+01  0.60458693216E+02  0.41800000000E+01 0.  1.
        -11    1    1    2    0    0  0.69428202993E+02 -0.13791334392E+02  0.13152164451E+02  0.71996220074E+02  0.00000000000E+00 0. -1.
         11    1    1    2    0    0 -0.24751973736E+02  0.90333895851E+01  0.22327688791E+02  0.34536763282E+02  0.00000000000E+00 0.  1.
</event>
<event>
 7    1  0.2420569E-009  0.1158188E+03  0.7561462E-02  0.1250159E+00
          1   -1    0    0  501    0  0.00000000000E+00  0.00000000000E+00  0.92989720154E+02  0.92989720154E+02  0.00000000000E+00 0. -1.
         -1   -1    0    0    0  501 -0.00000000000E+00 -0.00000000000E+00 -0.20498534010E+03  0.20498534010E+03  0.00000000000E+00 0.  1.
         25    2    1    2    0    0 -0.59043001623E+02 -0.35017272238E+02 -0.72790960083E+01  0.14287340907E+03  0.12509012904E+03 0.  0.
          5    1    3    3  502    0 -0.64128737631E+02  0.34424521359E+02 -0.51983640021E+01  0.73089247152E+02  0.41800000000E+01 0. -1.
         -5    1    3    3    0  502  0.50857360083E+01 -0.69441793597E+02 -0.20807320062E+01  0.69784161916E+02  0.41800000000E+01 0. -1.
        -11    1    1    2    0    0  0.70309131648E+02  0.27829469775E+02 -0.11541707738E+03  0.13798172029E+03  0.00000000000E+00 0.  1.
         11    1    1    2    0    0 -0.11266130026E+02  0.71878024622E+01  0.10700553446E+02  0.17119930901E+02  0.00000000000E+00 0. -1.
</event>
<event>
 7    1  0.2420569E-009  0.1081363E+03  0.7561462E-02  0.1264061E+00
          2   -1    0    0  501    0  0.00000000000E+00  0.00000000000E+00  0.12419810416E+03  0.12419810416E+03  0.00000000000E+00 0. -1.
         -2   -1    0    0    0  501 -0.00000000000E+00 -0.00000000000E+00 -0.17218838923E+03  0.17218838923E+03  0.00000000000E+00 0.  1.
         25    2    1    2    0    0 -0.18280353387E+02  0.40679599208E+02  0.62232228486E+02  0.14665966480E+03  0.12508879208E+03 0.  0.
          5    1    3    3  502    0  0.24707940839E+02  0.70147201609E+02  0.14549746537E+02  0.75896506891E+02  0.41800000000E+01 0. -1.
         -5    1    3    3    0  502 -0.42988294226E+02 -0.29467602401E+02  0.47682481949E+02  0.70763157904E+02  0.41800000000E+01 0. -1.
        -11    1    1    2    0    0 -0.14929645030E+02 -0.52241550676E+02 -0.29837526626E+02  0.61986707551E+02  0.00000000000E+00 0. -1.
         11    1    1    2    0    0  0.33209998417E+02  0.11561951469E+02 -0.80384986933E+02  0.87740121044E+02  0.00000000000E+00 0.  1.
</event>
<event>
 7    1  0.2420569E-009  0.1162575E+03  0.7561462E-02  0.1249402E+00
          1   -1    0    0  501    0  0.00000000000E+00  0.00000000000E+00  0.21009098211E+03  0.21009098211E+03  0.00000000000E+00 0. -1.
         -1   -1    0    0    0  501 -0.00000000000E+00 -0.00000000000E+00 -0.11386257029E+03  0.11386257029E+03  0.00000000000E+00 0.  1.
         25    2    1    2    0    0 -0.28964265948E+02  0.81287270792E+02 -0.13473493805E+02  0.15256892658E+03  0.12509673548E+03 0.  0.
          5    1    3    3  502    0 -0.46801830955E+02  0.21263579503E+02 -0.56483282584E+02  0.76487808215E+02  0.41800000000E+01 0.  1.
         -5    1    3    3    0  502  0.17837565007E+02  0.60023691289E+02  0.43009788779E+02  0.76081118368E+02  0.41800000000E+01 0.  1.
        -11    1    1    2    0    0 -0.23086777226E+02 -0.55464720320E+02  0.17807013579E+02  0.62661185876E+02  0.00000000000E+00 0.  1.
         11    1    1    2    0    0  0.52051043174E+02 -0.25822550472E+02  0.91894892043E+02  0.10872343994E+03  0.00000000000E+00 0. -1.
</event>
<event>
 7    1  0.2420569E-009  0.8032056E+02  0.7561462E-02  0.1328144E+00
          2   -1    0    0  501    0  0.00000000000E+00  0.00000000000E+00  0.19509343072E+03  0.19509343072E+03  0.00000000000E+00 0. -1.
         -2   -1    0    0    0  501 -0.00000000000E+00 -0.00000000000E+00 -0.60671382428E+02  0.60671382428E+02  0.00000000000E+00 0.  1.
         25    2    1    2    0    0  0.22951584270E+01  0.36038861095E+01  0.64052166665E+02  0.14060106612E+03  0.12509086294E+03 0.  0.
          5    1    3    3  502    0 -0.14315016959E+02 -0.47811475413E+02 -0.77117699217E+01  0.50673471236E+02  0.41800000000E+01 0.  1.
         -5    1    3    3    0  502  0.16610175386E+02  0.51415361523E+02  0.71763936587E+02  0.89927594882E+02  0.41800000000E+01 0.  1.
        -11    1    1    2    0    0 -0.29140827866E+02 -0.45939154718E+01  0.81052093239E+02  0.86253891080E+02  0.00000000000E+00 0. -1.
         11    1    1    2    0    0  0.26845669439E+02  0.99002936224E+00 -0.10682211617E+02  0.28909855946E+02  0.00000000000E+00 0.  1.
</event>
<event>
 7    1  0.2420569E-009  0.2891280E+03  0.7561462E-02  0.1090805E+00
         -1   -1    0    0    0  501 -0.00000000000E+00  0.00000000000E+00  0.51635727539E+02  0.51635727539E+02  0.00000000000E+00 0.  1.
          1   -1    0    0  501    0  0.00000000000E+00 -0.00000000000E+00 -0.19670773386E+04  0.19670773386E+04  0.00000000000E+00 0. -1.
         25    2    1    2    0    0 -0.14258491771E+03 -0.23448643556E+03 -0.13546577735E+04  0.13878254465E+04  0.12508972519E+03 0.  0.
          5    1    3    3  502    0 -0.11191983803E+03 -0.96427658500E+02 -0.49461832057E+03  0.51622582162E+03  0.41800000000E+01 0. -1.
         -5    1    3    3    0  502 -0.30665079679E+02 -0.13805877706E+03 -0.86003945296E+03  0.87159962488E+03  0.41800000000E+01 0. -1.
        -11    1    1    2    0    0  0.98886430007E+02  0.76388067077E+02 -0.24848172765E+03  0.27813096161E+03  0.00000000000E+00 0. -1.
         11    1    1    2    0    0  0.43698487703E+02  0.15809836849E+03 -0.31230210988E+03  0.35275665803E+03  0.00000000000E+00 0.  1.
</event>
<event>
 7    1  0.2420569E-009  0.1118406E+03  0.7561462E-02  0.1257199E+00
         -2   -1    0    0    0  501 -0.00000000000E+00  0.00000000000E+00  0.81249290819E+02  0.81249290819E+02  0.00000000000E+00 0.  1.
          2   -1    0    0  501    0  0.00000000000E+00 -0.00000000000E+00 -0.16009483743E+03  0.16009483743E+03  0.00000000000E+00 0. -1.
         25    2    1    2    0    0 -0.34941202661E+02  0.14182790186E+02 -0.44116724652E+02  0.13789556948E+03  0.12508742346E+03 0.  0.
          5    1    3    3  502    0  0.87940731505E+00  0.64458963468E+02 -0.39790222304E+02  0.75871374837E+02  0.41800000000E+01 0. -1.
         -5    1    3    3    0  502 -0.35820609976E+02 -0.50276173282E+02 -0.43265023478E+01  0.62024194646E+02  0.41800000000E+01 0. -1.
        -11    1    1    2    0    0  0.64399914103E+02  0.25670420568E+00 -0.19568089348E+02  0.67307688671E+02  0.00000000000E+00 0.  1.
         11    1    1    2    0    0 -0.29458711442E+02 -0.14439494392E+02 -0.15160732613E+02  0.36140870098E+02  0.00000000000E+00 0. -1.
</event>
<event>
 7    1  0.2420569E-009  0.2347013E+03  0.7561462E-02  0.1123374E+00
         -1   -1    0    0    0  501 -0.00000000000E+00  0.00000000000E+00  0.54420343156E+02  0.54420343156E+02  0.00000000000E+00 0.  1.
          1   -1    0    0  501    0  0.00000000000E+00 -0.00000000000E+00 -0.11109074356E+04  0.11109074356E+04  0.00000000000E+00 0. -1.
         25    2    1    2    0    0  0.14628306162E+03  0.16382142585E+03 -0.51108297069E+03  0.57016638184E+03  0.12509079251E+03 0.  0.
          5    1    3    3  502    0  0.86131572589E+01  0.94380525097E+02 -0.14951155139E+03  0.17706791464E+03  0.41800000000E+01 0.  1.
         -5    1    3    3    0  502  0.13766990436E+03  0.69440900755E+02 -0.36157141930E+03  0.39309846721E+03  0.41800000000E+01 0.  1.
        -11    1    1    2    0    0 -0.29303585174E+02 -0.23220732186E+02 -0.28979341445E+02  0.47304383918E+02  0.00000000000E+00 0.  1.
         11    1    1    2    0    0 -0.11697947645E+03 -0.14060069367E+03 -0.51642478032E+03  0.54785701301E+03  0.00000000000E+00 0. -1.
</event>
<event>
 7    1  0.2420569E-009  0.1485229E+03  0.7561462E-02  0.1202300E+00
          2   -1    0    0  501    0  0.00000000000E+00  0.00000000000E+00  0.13464862264E+03  0.13464862264E+03  0.00000000000E+00 0. -1.
         -2   -1    0    0    0  501 -0.00000000000E+00 -0.00000000000E+00 -0.18614028799E+03  0.18614028799E+03  0.00000000000E+00 0.  1.
         25    2    1    2    0    0 -0.72507357530E+02 -0.68653634363E+02 -0.82005140893E+02  0.17984123174E+03  0.12508951632E+03 0.  0.
          5    1    3    3  502    0  0.26271644017E+02  0.14911240190E+02 -0.13073401874E+02  0.33180274259E+02  0.41800000000E+01 0. -1.
         -5    1    3    3    0  502 -0.98779001546E+02 -0.83564874553E+02 -0.68931739019E+02  0.14666095748E+03  0.41800000000E+01 0. -1.
        -11    1    1    2    0    0  0.31558984306E+02 -0.21427720747E+02  0.13964779911E+02  0.40621814149E+02  0.00000000000E+00 0. -1.
         11    1    1    2    0    0  0.40948373224E+02  0.90081355110E+02  0.16548695628E+02  0.10032586474E+03  0.00000000000E+00 0.  1.
</event>
<event>
 7    1  0.2420569E-009  0.9337782E+02  0.7561462E-02  0.1294872E+00
          2   -1    0    0  501    0  0.00000000000E+00  0.00000000000E+00  0.40974104080E+03  0.40974104080E+03  0.00000000000E+00 0. -1.
         -2   -1    0    0    0  501 -0.00000000000E+00 -0.00000000000E+00 -0.31946897984E+02  0.31946897984E+02  0.00000000000E+00 0.  1.
         25    2    1    2    0    0  0.26852031246E+02 -0.29056350064E+02  0.18672689762E+03  0.22820730282E+03  0.12508531371E+03 0.  0.
          5    1    3    3  502    0  0.53225900049E+02 -0.18638496313E+01  0.19781705860E+02  0.56967171759E+02  0.41800000000E+01 0.  1.
         -5    1    3    3    0  502 -0.26373868803E+02 -0.27192500432E+02  0.16694519176E+03  0.17124013107E+03  0.41800000000E+01 0.  1.
        -11    1    1    2    0    0  0.99851807074E+01  0.51251290438E+02  0.10510399893E+03  0.11735948703E+03  0.00000000000E+00 0.  1.
         11    1    1    2    0    0 -0.36837211954E+02 -0.22194940374E+02  0.85963246264E+02  0.96121148927E+02  0.00000000000E+00 0. -1.
</event>
<event>
 7    1  0.2420569E-009  0.1377101E+03  0.7561462E-02  0.1216444E+00
          2   -1    0    0  501    0  0.00000000000E+00  0.00000000000E+00  0.25687496689E+03  0.25687496689E+03  0.00000000000E+00 0. -1.
         -2   -1    0    0    0  501 -0.00000000000E+00 -0.00000000000E+00 -0.10758314252E+03  0.10758314252E+03  0.00000000000E+00 0.  1.
         25    2    1    2    0    0 -0.27123078396E+02 -0.11969496445E+03  0.11038387649E+03  0.20710987677E+03  0.12508938791E+03 0.  0.
          5    1    3    3  502    0  0.17227388591E+02 -0.12269755235E+02  0.85507667035E+02  0.88183690856E+02  0.41800000000E+01 0. -1.
         -5    1    3    3    0  502 -0.44350466987E+02 -0.10742520922E+03  0.24876209458E+02  0.11892618591E+03  0.41800000000E+01 0. -1.
        -11    1    1    2    0    0 -0.18203305730E+02  0.15388155623E+02  0.36499553413E+02  0.43593268659E+02  0.00000000000E+00 0. -1.
         11    1    1    2    0    0  0.45326384126E+02  0.10430680883E+03  0.24083944605E+01  0.11375496398E+03  0.00000000000E+00 0.  1.
</event>
<event>
 7    1  0.2420569E-009  0.1567720E+03  0.7561462E-02  0.1192390E+00
          1   -1    0    0  501    0  0.00000000000E+00  0.00000000000E+00  0.91702766350E+03  0.91702766350E+03  0.00000000000E+00 0. -1.
         -1   -1    0    0    0  501 -0.00000000000E+00 -0.00000000000E+00 -0.52394697087E+02  0.52394697087E+02  0.00000000000E+00 0.  1.
         25    2    1    2    0    0  0.13906489034E+03  0.37178042931E+02  0.72715234752E+03  0.75174429901E+03  0.12509078298E+03 0.  0.
          5    1    3    3  502    0  0.98659159430E+02  0.35573483591E+02  0.68569159357E+03  0.69367826574E+03  0.41800000000E+01 0.  1.
         -5    1    3    3    0  502  0.40405730907E+02  0.16045593398E+01  0.41460753951E+02  0.58066033264E+02  0.41800000000E+01 0.  1.
        -11    1    1    2    0    0 -0.44834508525E+02  0.28449658061E+02  0.33641795529E+02  0.62859260295E+02  0.00000000000E+00 0.  1.
         11    1    1    2    0    0 -0.94230381812E+02 -0.65627700992E+02  0.10383882337E+03  0.15481880129E+03  0.00000000000E+00 0. -1.
</event>
<event>
 7    1  0.2420569E-009  0.1238579E+03  0.7561462E-02  0.1236865E+00
          1   -1    0    0  501    0  0.00000000000E+00  0.00000000000E+00  0.57989956754E+02  0.57989956754E+02  0.00000000000E+00 0. -1.
         -1   -1    0    0    0  501 -0.00000000000E+00 -0.00000000000E+00 -0.33674380367E+03  0.33674380367E+03  0.00000000000E+00 0.  1.
         25    2    1    2    0    0 -0.95990672645E+01  0.82004562275E+02 -0.10336948738E+03  0.18207087844E+03  0.12509062127E+03 0.  0.
          5    1    3    3  502    0 -0.59520741264E+02  0.50837545237E+02 -0.21731122162E+02  0.81344260503E+02  0.41800000000E+01 0.  1.
         -5    1    3    3    0  502  0.49921674000E+02  0.31167017037E+02 -0.81638365219E+02  0.10072661794E+03  0.41800000000E+01 0.  1.
        -11    1    1    2    0    0 -0.14284745484E+02  0.85691544906E+01 -0.36635706301E+01  0.17055969981E+02  0.00000000000E+00 0. -1.
         11    1    1    2    0    0  0.23883812748E+02 -0.90573716765E+02 -0.17172078891E+03  0.19560691200E+03  0.00000000000E+00 0.  1.
</event>
<event>
 7    1  0.2420569E-009  0.1001129E+03  0.7561462E-02  0.1280059E+00
          1   -1    0    0  501    0  0.00000000000E+00  0.00000000000E+00  0.39709885918E+03  0.39709885918E+03  0.00000000000E+00 0. -1.
         -1   -1    0    0    0  501 -0.00000000000E+00 -0.00000000000E+00 -0.57679754741E+02  0.57679754741E+02  0.00000000000E+00 0.  1.
         25    2    1    2    0    0  0.68132916224E+02 -0.44700830219E+02  0.28479071447E+03  0.32154879846E+03  0.12509044826E+03 0.  0.
          5    1    3    3  502    0  0.37398174372E+02 -0.19555047444E+02  0.96070382786E+01  0.43483225633E+02  0.41800000000E+01 0. -1.
         -5    1    3    3    0  502  0.30734741852E+02 -0.25145782775E+02  0.27518367619E+03  0.27806557283E+03  0.41800000000E+01 0. -1.
        -11    1    1    2    0    0  0.20076357341E+02  0.14049716762E+02  0.25603936122E+02  0.35440318990E+02  0.00000000000E+00 0.  1.
         11    1    1    2    0    0 -0.88209273565E+02  0.30651113457E+02  0.29024453842E+02  0.97789496470E+02  0.00000000000E+00 0. -1.
</event>
<event>
 7    1  0.2420569E-009  0.1095394E+03  0.7561462E-02  0.1261425E+00
          2   -1    0    0  501    0  0.00000000000E+00  0.00000000000E+00  0.66113891938E+03  0.66113891938E+03  0.00000000000E+00 0. -1.
         -2   -1    0    0    0  501 -0.00000000000E+00 -0.00000000000E+00 -0.23955417488E+02  0.23955417488E+02  0.00000000000E+00 0.  1.
         25    2    1    2    0    0 -0.30422600173E+01  0.28554977104E+02  0.20074936598E+03  0.23826999722E+03  0.12509053350E+03 0.  0.
          5    1    3    3  502    0 -0.20460522232E+02  0.73837890766E+02  0.97175227742E+02  0.12381907918E+03  0.41800000000E+01 0.  1.
         -5    1    3    3    0  502  0.17418262215E+02 -0.45282913662E+02  0.10357413824E+03  0.11445091804E+03  0.41800000000E+01 0.  1.
        -11    1    1    2    0    0 -0.14069697985E+02 -0.57950515133E+02  0.32062383215E+03  0.32612246220E+03  0.00000000000E+00 0. -1.
         11    1    1    2    0    0  0.17111958002E+02  0.29395538029E+02  0.11581030375E+03  0.12070187744E+03  0.00000000000E+00 0.  1.
</event>
<event>
 7    1  0.2420569E-009  0.9909758E+02  0.7561462E-02  0.1282205E+00
          1   -1    0    0  501    0  0.00000000000E+00  0.00000000000E+00  0.35831381571E+03  0.35831381571E+03  0.00000000000E+00 0. -1.
         -1   -1    0    0    0  501 -0.00000000000E+00 -0.00000000000E+00 -0.51682436067E+02  0.51682436067E+02  0.00000000000E+00 0.  1.
         25    2    1    2    0    0  0.34246561756E+02 -0.56518961818E+02  0.90531256021E+02  0.16795958826E+03  0.12508914795E+03 0.  0.
          5    1    3    3  502    0 -0.14097181642E+02 -0.53694141006E+02  0.10361455576E+03  0.11762329648E+03  0.41800000000E+01 0.  1.
         -5    1    3    3    0  502  0.48343743398E+02 -0.28248208120E+01 -0.13083299738E+02  0.50336291782E+02  0.41800000000E+01 0.  1.
        -11    1    1    2    0    0 -0.77031192494E+01 -0.15420657927E+02  0.57907496285E+01  0.18184265680E+02  0.00000000000E+00 0.  1.
         11    1    1    2    0    0 -0.26543442506E+02  0.71939619745E+02  0.21030937399E+03  0.22385239784E+03  0.00000000000E+00 0. -1.
</event>
<event>
 7    1  0.2420569E-009  0.8423664E+02  0.7561462E-02  0.1317441E+00
         -2   -1    0    0    0  501 -0.00000000000E+00  0.00000000000E+00  0.39461940611E+02  0.39461940611E+02  0.00000000000E+00 0.  1.
          2   -1    0    0  501    0  0.00000000000E+00 -0.00000000000E+00 -0.34498883569E+03  0.34498883569E+03  0.00000000000E+00 0. -1.
         25    2    1    2    0    0 -0.13867650012E+02  0.28048491217E+02 -0.22483295924E+03  0.25918419652E+03  0.12509020180E+03 0.  0.
          5    1    3    3  502    0 -0.60353148914E+02 -0.15636082957E+02 -0.13673301079E+03  0.15033422203E+03  0.41800000000E+01 0. -1.
         -5    1    3    3    0  502  0.46485498901E+02  0.43684574174E+02 -0.88099948453E+02  0.10884997449E+03  0.41800000000E+01 0. -1.
        -11    1    1    2    0    0 -0.63941485823E+01 -0.18667187366E+02  0.16388119126E+02  0.25649940911E+02  0.00000000000E+00 0.  1.
         11    1    1    2    0    0  0.20261798595E+02 -0.93813038517E+01 -0.97082054969E+02  0.99616638877E+02  0.00000000000E+00 0. -1.
</event>
<event>
 7    1  0.2420569E-009  0.1162170E+03  0.7561462E-02  0.1249472E+00
         -1   -1    0    0    0  501 -0.00000000000E+00  0.00000000000E+00  0.27624876282E+02  0.27624876282E+02  0.00000000000E+00 0.  1.
          1   -1    0    0  501    0  0.00000000000E+00 -0.00000000000E+00 -0.60975324213E+03  0.60975324213E+03  0.00000000000E+00 0. -1.
         25    2    1    2    0    0  0.30474879120E+02 -0.43237472139E+02 -0.44829307529E+03  0.46841436473E+03  0.12508852256E+03 0.  0.
          5    1    3    3  502    0 -0.47934359807E+02 -0.74743677419E+01 -0.18746983445E+03  0.19369042375E+03  0.41800000000E+01 0. -1.
         -5    1    3    3    0  502  0.78409238927E+02 -0.35763104397E+02 -0.26082324084E+03  0.27472394098E+03  0.41800000000E+01 0. -1.
        -11    1    1    2    0    0  0.40419479696E+00  0.61554726817E+02 -0.55874939586E+02  0.83133366591E+02  0.00000000000E+00 0.  1.
         11    1    1    2    0    0 -0.30879073917E+02 -0.18317254678E+02 -0.77960350973E+02  0.85830387094E+02  0.00000000000E+00 0. -1.
</event>
<event>
 7    1  0.2420569E-009  0.1285450E+03  0.7561462E-02  0.1229631E+00
         -2   -1    0    0    0  501 -0.00000000000E+00  0.00000000000E+00  0.45766420504E+02  0.45766420504E+02  0.00000000000E+00 0.  1.
          2   -1    0    0  501    0  0.00000000000E+00 -0.00000000000E+00 -0.58038747592E+03  0.58038747592E+03  0.00000000000E+00 0. -1.
         25    2    1    2    0    0 -0.61597904561E+02 -0.52032542944E+02 -0.11035560651E+03  0.18527438206E+03  0.12508616785E+03 0.  0.
          5    1    3    3  502    0 -0.43853077859E+02 -0.89448575321E+02 -0.48905641815E+02  0.11105572595E+03  0.41800000000E+01 0.  1.
         -5    1    3    3    0  502 -0.17744826702E+02  0.37416032378E+02 -0.61449964696E+02  0.74218656109E+02  0.41800000000E+01 0.  1.
        -11    1    1    2    0    0  0.73420440259E+02  0.12472218114E+02 -0.21371508185E+03  0.22631891985E+03  0.00000000000E+00 0.  1.
         11    1    1    2    0    0 -0.11822535699E+02  0.39560324830E+02 -0.21055036706E+03  0.21456059451E+03  0.00000000000E+00 0. -1.
</event>
<event>
 7    1  0.2420569E-009  0.1525520E+03  0.7561462E-02  0.1197372E+00
          3   -1    0    0  501    0  0.00000000000E+00  0.00000000000E+00  0.14947304359E+03  0.14947304359E+03  0.00000000000E+00 0. -1.
         -3   -1    0    0    0  501 -0.00000000000E+00 -0.00000000000E+00 -0.22869514133E+03  0.22869514133E+03  0.00000000000E+00 0.  1.
         25    2    1    2    0    0  0.32948551906E+02 -0.11599827256E+03  0.48988437431E+02  0.18052201501E+03  0.12508846706E+03 0.  0.
          5    1    3    3  502    0  0.10593792589E+02  0.23368126042E+02 -0.95021604662E+01  0.27677810781E+02  0.41800000000E+01 0. -1.
         -5    1    3    3    0  502  0.22354759317E+02 -0.13936639860E+03  0.58490597897E+02  0.15284420422E+03  0.41800000000E+01 0. -1.
        -11    1    1    2    0    0 -0.45293266921E+02  0.38564136344E+02 -0.95871209090E+02  0.11282713048E+03  0.00000000000E+00 0.  1.
         11    1    1    2    0    0  0.12344715015E+02  0.77434136214E+02 -0.32339326075E+02  0.84819039436E+02  0.00000000000E+00 0. -1.
</event>
<event>
 7    1  0.2420569E-009  0.1244114E+03  0.7561462E-02  0.1235992E+00
         -4   -1    0    0    0  501 -0.00000000000E+00  0.00000000000E+00  0.94773916527E+03  0.94773916527E+03  0.00000000000E+00 0.  1.
          4   -1    0    0  501    0  0.00000000000E+00 -0.00000000000E+00 -0.21038512406E+02  0.21038512406E+02  0.00000000000E+00 0. -1.
         25    2    1    2    0    0  0.85491402331E+02  0.26544269717E+02  0.54584561873E+03  0.56710558481E+03  0.12509167323E+03 0.  0.
          5    1    3    3  502    0 -0.29413790312E+01  0.58343291200E+02  0.17621730658E+03  0.18569491882E+03  0.41800000000E+01 0.  1.
         -5    1    3    3    0  502  0.88432781362E+02 -0.31799021483E+02  0.36962831215E+03  0.38141066599E+03  0.41800000000E+01 0.  1.
        -11    1    1    2    0    0 -0.13578446299E+02  0.86746969568E+01  0.42714380478E+01  0.16669425731E+02  0.00000000000E+00 0. -1.
         11    1    1    2    0    0 -0.71912956032E+02 -0.35218966674E+02  0.37658359608E+03  0.38500266713E+03  0.00000000000E+00 0.  1.
</event>
<event>
 7    1  0.2420569E-009  0.1107515E+03  0.7561462E-02  0.1259184E+00
          2   -1    0    0  501    0  0.00000000000E+00  0.00000000000E+00  0.67493963081E+03  0.67493963081E+03  0.00000000000E+00 0. -1.
         -2   -1    0    0    0  501 -0.00000000000E+00 -0.00000000000E+00 -0.18734968700E+02  0.18734968700E+02  0.00000000000E+00 0.  1.
         25    2    1    2    0    0  0.15929214167E+02 -0.23011866734E+02  0.40811992488E+03  0.42777628415E+03  0.12508952922E+03 0.  0.
          5    1    3    3  502    0  0.17106906648E+02  0.50916657101E+02  0.15880580348E+03  0.16769587903E+03  0.41800000000E+01 0. -1.
         -5    1    3    3    0  502 -0.11776924804E+01 -0.73928523835E+02  0.24931412140E+03  0.26008040512E+03  0.41800000000E+01 0. -1.
        -11    1    1    2    0    0  0.18069465311E+02 -0.27366465927E+02  0.61983373256E+02  0.70123944514E+02  0.00000000000E+00 0.  1.
         11    1    1    2    0    0 -0.33998679478E+02  0.50378332660E+02  0.18610136398E+03  0.19577437085E+03  0.00000000000E+00 0. -1.
</event>
<event>
 7    1  0.2420569E-009  0.5004717E+02  0.7561462E-02  0.1445087E+00
          1   -1    0    0  501    0  0.00000000000E+00  0.00000000000E+00  0.84747473316E+02  0.84747473316E+02  0.00000000000E+00 0. -1.
         -1   -1    0    0    0  501 -0.00000000000E+00 -0.00000000000E+00 -0.16047821900E+03  0.16047821900E+03  0.00000000000E+00 0.  1.
         25    2    1    2    0    0 -0.25107224556E+01 -0.25675938664E+01 -0.97255578507E+02  0.15848829170E+03  0.12508794822E+03 0.  0.
          5    1    3    3  502    0  0.75309535362E+01 -0.17859130224E+01 -0.12674359519E+03  0.12704847920E+03  0.41800000000E+01 0. -1.
         -5    1    3    3    0  502 -0.10041675992E+02 -0.78168084398E+00  0.29488016683E+02  0.31439812492E+02  0.41800000000E+01 0. -1.
        -11    1    1    2    0    0  0.41044404082E+02  0.68859947175E+01  0.23715282290E+02  0.47900674774E+02  0.00000000000E+00 0. -1.
         11    1    1    2    0    0 -0.38533681627E+02 -0.43184008511E+01 -0.21904494685E+01  0.38836725847E+02  0.00000000000E+00 0.  1.
</event>
<event>
 7    1  0.2420569E-009  0.9853461E+02  0.7561462E-02  0.1283408E+00
          2   -1    0    0  501    0  0.00000000000E+00  0.00000000000E+00  0.50694047719E+02  0.50694047719E+02  0.00000000000E+00 0. -1.
         -2   -1    0    0    0  501 -0.00000000000E+00 -0.00000000000E+00 -0.30687708325E+03  0.30687708325E+03  0.00000000000E+00 0.  1.
         25    2    1    2    0    0 -0.55562856395E+01  0.31275475431E+02 -0.22048480581E+03  0.25548197524E+03  0.12509381443E+03 0.  0.
          5    1    3    3  502    0 -0.54035962820E+02 -0.13810748442E+02 -0.61043314427E+02  0.82791187252E+02  0.41800000000E+01 0.  1.
         -5    1    3    3    0  502  0.48479677180E+02  0.45086223873E+02 -0.15944149138E+03  0.17269078799E+03  0.41800000000E+01 0.  1.
        -11    1    1    2    0    0 -0.11089163211E+02 -0.49146033975E+02  0.89764330254E+01  0.51174979687E+02  0.00000000000E+00 0. -1.
         11    1    1    2    0    0  0.16645448850E+02  0.17870558543E+02 -0.44674662750E+02  0.50914176041E+02  0.00000000000E+00 0.  1.
</event>
<event>
 7    1  0.2420569E-009  0.1372615E+03  0.7561462E-02  0.1217062E+00
         -2   -1    0    0    0  501 -0.00000000000E+00  0.00000000000E+00  0.38433849185E+02  0.38433849185E+02  0.00000000000E+00 0.  1.
          2   -1    0    0  501    0  0.00000000000E+00 -0.00000000000E+00 -0.64382819569E+03  0.64382819569E+03  0.00000000000E+00 0. -1.
         25    2    1    2    0    0  0.98906349443E+02  0.40766491586E+02 -0.30798370253E+03  0.34920700178E+03  0.12508875359E+03 0.  0.
          5    1    3    3  502    0  0.32309622753E+02 -0.19961664111E+02 -0.21962080098E+03  0.22291960071E+03  0.41800000000E+01 0.  1.
         -5    1    3    3    0  502  0.66596726690E+02  0.60728155698E+02 -0.88362901545E+02  0.12628740107E+03  0.41800000000E+01 0.  1.
        -11    1    1    2    0    0 -0.29763036886E+02  0.33370034301E+02 -0.12850577550E+03  0.13606297031E+03  0.00000000000E+00 0. -1.
         11    1    1    2    0    0 -0.69143312557E+02 -0.74136525887E+02 -0.16890486848E+03  0.19699207278E+03  0.00000000000E+00 0.  1.
</event>
<event>
 7    1  0.2420569E-009  0.1549835E+03  0.7561462E-02  0.1194480E+00
          1   -1    0    0  501    0  0.00000000000E+00  0.00000000000E+00  0.23868067473E+03  0.23868067473E+03  0.00000000000E+00 0. -1.
         -1   -1    0    0    0  501 -0.00000000000E+00 -0.00000000000E+00 -0.13934205819E+03  0.13934205819E+03  0.00000000000E+00 0.  1.
         25    2    1    2    0    0 -0.17553000998E+02 -0.13504480216E+03  0.10886455644E+03  0.21457850683E+03  0.12508891842E+03 0.  0.
          5    1    3    3  502    0  0.20546999030E+02 -0.98334826402E+02  0.83234721383E+01  0.10088939410E+03  0.41800000000E+01 0.  1.
         -5    1    3    3    0  502 -0.38100000028E+02 -0.36709975762E+02  0.10054108430E+03  0.11368911274E+03  0.41800000000E+01 0.  1.
        -11    1    1    2    0    0  0.28248196949E+02  0.87077347913E+01 -0.20815804115E+02  0.36153602545E+02  0.00000000000E+00 0.  1.
         11    1    1    2    0    0 -0.10695195950E+02  0.12633706737E+03  0.11289864211E+02  0.12729062355E+03  0.00000000000E+00 0. -1.
</event>
<event>
 7    1  0.2420569E-009  0.6419409E+02  0.7561462E-02  0.1381029E+00
          4   -1    0    0  501    0  0.00000000000E+00  0.00000000000E+00  0.26292766600E+03  0.26292766600E+03  0.00000000000E+00 0. -1.
         -4   -1    0    0    0  501 -0.00000000000E+00 -0.00000000000E+00 -0.42962393968E+02  0.42962393968E+02  0.00000000000E+00 0.  1.
         25    2    1    2    0    0 -0.10137541370E+02 -0.52079787801E+01  0.14450779812E+03  0.19147151314E+03  0.12509573870E+03 0.  0.
          5    1    3    3  502    0 -0.10394965231E+02 -0.45201910103E+02  0.14390677442E+03  0.15125442176E+03  0.41800000000E+01 0. -1.
         -5    1    3    3    0  502  0.25742386057E+00  0.39993931323E+02  0.60102369780E+00  0.40217091382E+02  0.41800000000E+01 0. -1.
        -11    1    1    2    0    0  0.25418174615E+02 -0.13351229789E+00 -0.10093789726E+02  0.27349333033E+02  0.00000000000E+00 0.  1.
         11    1    1    2    0    0 -0.15280633245E+02  0.53414910780E+01  0.85551263649E+02  0.87069213797E+02  0.00000000000E+00 0. -1.
</event>
<event>
 7    1  0.2420569E-009  0.1425919E+03  0.7561462E-02  0.1209883E+00
         -1   -1    0    0    0  501 -0.00000000000E+00  0.00000000000E+00  0.34738707425E+02  0.34738707425E+02  0.00000000000E+00 0.  1.
          1   -1    0    0  501    0  0.00000000000E+00 -0.00000000000E+00 -0.82251510498E+03  0.82251510498E+03  0.00000000000E+00 0. -1.
         25    2    1    2    0    0 -0.51558485244E+02 -0.94885999410E+02 -0.23982357127E+03  0.29124530862E+03  0.12508738614E+03 0.  0.
          5    1    3    3  502    0 -0.48297337527E+01  0.20564406234E+02 -0.10687384999E+03  0.10902161870E+03  0.41800000000E+01 0.  1.
         -5    1    3    3    0  502 -0.46728751492E+02 -0.11545040564E+03 -0.13294972128E+03  0.18222368992E+03  0.41800000000E+01 0.  1.
        -11    1    1    2    0    0  0.50162294885E+02  0.64393846263E+01 -0.14840257993E+03  0.15678344056E+03  0.00000000000E+00 0.  1.
         11    1    1    2    0    0  0.13961903594E+01  0.88446614784E+02 -0.39955024635E+03  0.40922506323E+03  0.00000000000E+00 0. -1.
</event>
<event>
 7    1  0.2420569E-009  0.1125352E+03  0.7561462E-02  0.1255946E+00
          2   -1    0    0  501    0  0.00000000000E+00  0.00000000000E+00  0.44063945972E+03  0.44063945972E+03  0.00000000000E+00 0. -1.
         -2   -1    0    0    0  501 -0.00000000000E+00 -0.00000000000E+00 -0.32186679374E+02  0.32186679374E+02  0.00000000000E+00 0.  1.
         25    2    1    2    0    0 -0.63418257285E+01  0.49681439954E+02  0.22648235600E+03  0.26353347991E+03  0.12508866145E+03 0.  0.
          5    1    3    3  502    0 -0.17455423029E+02 -0.34847352264E+02  0.30163076078E+02  0.49460219484E+02  0.41800000000E+01 0.  1.
         -5    1    3    3    0  502  0.11113597300E+02  0.84528792218E+02  0.19631927992E+03  0.21407326042E+03  0.41800000000E+01 0.  1.
        -11    1    1    2    0    0  0.45175056714E+02 -0.12790737105E+02  0.60852810787E+02  0.76859958921E+02  0.00000000000E+00 0. -1.
         11    1    1    2    0    0 -0.38833230985E+02 -0.36890702849E+02  0.12111761356E+03  0.13243270026E+03  0.00000000000E+00 0.  1.
</event>
<event>
 7    1  0.2420569E-009  0.1267712E+03  0.7561462E-02  0.1232327E+00
         -1   -1    0    0    0  501 -0.00000000000E+00  0.00000000000E+00  0.15519536514E+03  0.15519536514E+03  0.00000000000E+00 0.  1.
          1   -1    0    0  501    0  0.00000000000E+00 -0.00000000000E+00 -0.14548890124E+03  0.14548890124E+03  0.00000000000E+00 0. -1.
         25    2    1    2    0    0  0.71373523242E+02 -0.15034377919E+02 -0.65913969167E+02  0.15909901795E+03  0.12509050260E+03 0.  0.
          5    1    3    3  502    0  0.75165623501E+02  0.35335151115E+02 -0.69370258312E+02  0.10829657889E+03  0.41800000000E+01 0.  1.
         -5    1    3    3    0  502 -0.37921002588E+01 -0.50369529035E+02  0.34562891450E+01  0.50802439058E+02  0.41800000000E+01 0.  1.
        -11    1    1    2    0    0  0.13861845041E+02 -0.22607179722E+02  0.16289603527E+02  0.31122122453E+02  0.00000000000E+00 0.  1.
         11    1    1    2    0    0 -0.85235368283E+02  0.37641557641E+02  0.59330829538E+02  0.11046312598E+03  0.00000000000E+00 0. -1.
</event>
<event>
 7    1  0.2420569E-009  0.8879311E+02  0.7561462E-02  0.1305801E+00
          1   -1    0    0  501    0  0.00000000000E+00  0.00000000000E+00  0.96997994829E+02  0.96997994829E+02  0.00000000000E+00 0. -1.
         -1   -1    0    0    0  501 -0.00000000000E+00 -0.00000000000E+00 -0.22097813760E+03  0.22097813760E+03  0.00000000000E+00 0.  1.
         25    2    1    2    0    0 -0.32751635090E+02 -0.21583233539E+02 -0.16512366507E+03  0.21083391806E+03  0.12508641280E+03 0.  0.
          5    1    3    3  502    0  0.15878552238E+02  0.13810845731E+02 -0.14602004195E+03  0.14758791595E+03  0.41800000000E+01 0.  1.
         -5    1    3    3    0  502 -0.48630187328E+02 -0.35394079269E+02 -0.19103623112E+02  0.63246002110E+02  0.41800000000E+01 0.  1.
        -11    1    1    2    0    0 -0.66258557354E+01 -0.30124393839E+02  0.26157596025E+02  0.40442562953E+02  0.00000000000E+00 0. -1.
         11    1    1    2    0    0  0.39377490825E+02  0.51707627377E+02  0.14985926275E+02  0.66699651416E+02  0.00000000000E+00 0.  1.
</event>
<event>
 7    1  0.2420569E-009  0.1289186E+03  0.7561462E-02  0.1229069E+00
          2   -1    0    0  501    0  0.00000000000E+00  0.00000000000E+00  0.61932935231E+03  0.61932935231E+03  0.00000000000E+00 0. -1.
         -2   -1    0    0    0  501 -0.00000000000E+00 -0.00000000000E+00 -0.36945605516E+02  0.36945605516E+02  0.00000000000E+00 0.  1.
         25    2    1    2    0    0  0.74993404495E+02  0.20256688401E+02  0.46281647083E+03  0.48567574158E+03  0.12508995224E+03 0.  0.
          5    1    3    3  502    0  0.75963925309E+02 -0.40446415757E+02  0.28450938355E+03  0.29727006614E+03  0.41800000000E+01 0.  1.
         -5    1    3    3    0  502 -0.97052081331E+00  0.60703104159E+02  0.17830708728E+03  0.18840567544E+03  0.41800000000E+01 0.  1.
        -11    1    1    2    0    0 -0.34125077644E+02  0.30421814455E+02  0.85893684737E+02  0.97302275393E+02  0.00000000000E+00 0.  1.
         11    1    1    2    0    0 -0.40868326851E+02 -0.50678502857E+02  0.33673591228E+02  0.73296940847E+02  0.00000000000E+00 0. -1.
</event>
<event>
 7    1  0.2420569E-009  0.1654330E+03  0.7561462E-02  0.1182696E+00
          1   -1    0    0  501    0  0.00000000000E+00  0.00000000000E+00  0.69343623834E+03  0.69343623834E+03  0.00000000000E+00 0. -1.
         -1   -1    0    0    0  501 -0.00000000000E+00 -0.00000000000E+00 -0.47090628338E+02  0.47090628338E+02  0.00000000000E+00 0.  1.
         25    2    1    2    0    0  0.10804404040E+03 -0.81330125695E+02  0.44316243967E+03  0.47992645283E+03  0.12509335784E+03 0.  0.
          5    1    3    3  502    0 -0.94002237912E+01 -0.63232027254E+02  0.18271820508E+03  0.19362352219E+03  0.41800000000E+01 0. -1.
         -5    1    3    3    0  502  0.11744426419E+03 -0.18098098442E+02  0.26044423460E+03  0.28630293064E+03  0.41800000000E+01 0. -1.
        -11    1    1    2    0    0 -0.75572327408E+02  0.86670028104E+02  0.19549493869E+03  0.22680639650E+03  0.00000000000E+00 0. -1.
         11    1    1    2    0    0 -0.32471712995E+02 -0.53399024090E+01  0.76882316395E+01  0.33794017345E+02  0.00000000000E+00 0.  1.
</event>
<event>
 7    1  0.2420569E-009  0.1056818E+03  0.7561462E-02  0.1268782E+00
         -1   -1    0    0    0  501 -0.00000000000E+00  0.00000000000E+00  0.28329582270E+02  0.28329582270E+02  0.00000000000E+00 0. -1.
          1   -1    0    0  501    0  0.00000000000E+00 -0.00000000000E+00 -0.58354000947E+03  0.58354000947E+03  0.00000000000E+00 0.  1.
         25    2    1    2    0    0 -0.65539097678E+02  0.18234703728E+02 -0.29032286058E+03  0.32336085399E+03  0.12508797213E+03 0.  0.
          5    1    3    3  502    0 -0.77584619646E+02  0.48917288649E+02 -0.12711700930E+03  0.15680714520E+03  0.41800000000E+01 0.  1.
         -5    1    3    3    0  502  0.12045521967E+02 -0.30682584921E+02 -0.16320585128E+03  0.16655370878E+03  0.41800000000E+01 0.  1.
        -11    1    1    2    0    0  0.68019492132E+01  0.16665582825E+02 -0.34975225928E+01  0.18336870733E+02  0.00000000000E+00 0. -1.
         11    1    1    2    0    0  0.58737148465E+02 -0.34900286553E+02 -0.26139004403E+03  0.27017186702E+03  0.00000000000E+00 0.  1.
</event>
<event>
 7    1  0.2420569E-009  0.1125003E+03  0.7561462E-02  0.1256008E+00
         -1   -1    0    0    0  501 -0.00000000000E+00  0.00000000000E+00  0.20890157248E+02  0.20890157248E+02  0.00000000000E+00 0.  1.
          1   -1    0    0  501    0  0.00000000000E+00 -0.00000000000E+00 -0.75504897501E+03  0.75504897501E+03  0.00000000000E+00 0. -1.
         25    2    1    2    0    0 -0.47400071058E+02 -0.20246906778E+02 -0.48017835163E+03  0.49887429812E+03  0.12509041521E+03 0.  0.
          5    1    3    3  502    0  0.29404021621E+02 -0.36186119627E+02 -0.96727941616E+02  0.10746068505E+03  0.41800000000E+01 0.  1.
         -5    1    3    3    0  502 -0.76804092678E+02  0.15939212849E+02 -0.38345041002E+03  0.39141361308E+03  0.41800000000E+01 0.  1.
        -11    1    1    2    0    0 -0.13317464294E+02  0.34745843053E+02 -0.42136536962E+02  0.56214910938E+02  0.00000000000E+00 0.  1.
         11    1    1    2    0    0  0.60717535352E+02 -0.14498936275E+02 -0.21184392917E+03  0.22084992320E+03  0.00000000000E+00 0. -1.
</event>
<event>
 7    1  0.2420569E-009  0.1812667E+03  0.7561462E-02  0.1166583E+00
         -2   -1    0    0    0  501 -0.00000000000E+00  0.00000000000E+00  0.53573638188E+03  0.53573638188E+03  0.00000000000E+00 0.  1.
          2   -1    0    0  501    0  0.00000000000E+00 -0.00000000000E+00 -0.11065898680E+03  0.11065898680E+03  0.00000000000E+00 0. -1.
         25    2    1    2    0    0 -0.45135740350E+02  0.14842233254E+03  0.42197066248E+03  0.46666225272E+03  0.12509194325E+03 0.  0.
          5    1    3    3  502    0  0.33683221275E+02  0.71940024730E+02  0.25197166057E+03  0.26422928809E+03  0.41800000000E+01 0. -1.
         -5    1    3    3    0  502 -0.78818961625E+02  0.76482307806E+02  0.16999900191E+03  0.20243296463E+03  0.41800000000E+01 0. -1.
        -11    1    1    2    0    0  0.57787736939E+02 -0.58340593861E+02  0.25625131583E+02  0.86021478720E+02  0.00000000000E+00 0.  1.
         11    1    1    2    0    0 -0.12651996589E+02 -0.90081738675E+02 -0.22518398988E+02  0.93711637235E+02  0.00000000000E+00 0. -1.
</event>
<event>
 7    1  0.2420569E-009  0.2072960E+03  0.7561462E-02  0.1143725E+00
          1   -1    0    0  501    0  0.00000000000E+00  0.00000000000E+00  0.84777684361E+03  0.84777684361E+03  0.00000000000E+00 0. -1.
         -1   -1    0    0    0  501 -0.00000000000E+00 -0.00000000000E+00 -0.56495071689E+02  0.56495071689E+02  0.00000000000E+00 0.  1.
         25    2    1    2    0    0  0.18327286572E+03 -0.22068833772E+02  0.31091211087E+03  0.38260936101E+03  0.12509039016E+03 0.  0.
          5    1    3    3  502    0  0.11106104257E+03  0.38473741166E+02  0.11173183187E+03  0.16222286703E+03  0.41800000000E+01 0.  1.
         -5    1    3    3    0  502  0.72211823149E+02 -0.60542574937E+02  0.19918027900E+03  0.22038649398E+03  0.41800000000E+01 0.  1.
        -11    1    1    2    0    0 -0.14417308786E+03 -0.19617449097E+02  0.32385641051E+03  0.35504041770E+03  0.00000000000E+00 0. -1.
         11    1    1    2    0    0 -0.39099777856E+02  0.41686282869E+02  0.15651325054E+03  0.16662213659E+03  0.00000000000E+00 0.  1.
</event>
<event>
 7    1  0.2420569E-009  0.1160689E+03  0.7561462E-02  0.1249727E+00
         -1   -1    0    0    0  501 -0.00000000000E+00  0.00000000000E+00  0.54720772058E+02  0.54720772058E+02  0.00000000000E+00 0.  1.
          1   -1    0    0  501    0  0.00000000000E+00 -0.00000000000E+00 -0.33086715484E+03  0.33086715484E+03  0.00000000000E+00 0. -1.
         25    2    1    2    0    0  0.40662260310E+02 -0.64913177219E+02 -0.12657868306E+03  0.19374368660E+03  0.12508922057E+03 0.  0.
          5    1    3    3  502    0  0.80306979236E+02 -0.50282584015E+02 -0.11627017350E+03  0.15004590902E+03  0.41800000000E+01 0. -1.
         -5    1    3    3    0  502 -0.39644718926E+02 -0.14630593203E+02 -0.10308509564E+02  0.43697777583E+02  0.41800000000E+01 0. -1.
        -11    1    1    2    0    0 -0.21111087877E+02  0.71223971057E+02 -0.48518074726E+02  0.88727310675E+02  0.00000000000E+00 0.  1.
         11    1    1    2    0    0 -0.19551172433E+02 -0.63107938382E+01 -0.10104962500E+03  0.10311692962E+03  0.00000000000E+00 0. -1.
</event>
<event>
 7    1  0.2420569E-009  0.7482433E+02  0.7561462E-02  0.1344416E+00
          4   -1    0    0  501    0  0.00000000000E+00  0.00000000000E+00  0.66252847448E+02  0.66252847448E+02  0.00000000000E+00 0. -1.
         -4   -1    0    0    0  501 -0.00000000000E+00 -0.00000000000E+00 -0.25061947730E+03  0.25061947730E+03  0.00000000000E+00 0.  1.
         25    2    1    2    0    0  0.55060444658E+02 -0.27114593933E+02 -0.14109561095E+03  0.19829817762E+03  0.12508933627E+03 0.  0.
          5    1    3    3  502    0  0.13340731006E+02  0.10228226049E+02 -0.14109172248E+03  0.14215111067E+03  0.41800000000E+01 0.  1.
         -5    1    3    3    0  502  0.41719713652E+02 -0.37342819982E+02 -0.38884630004E-02  0.56147066945E+02  0.41800000000E+01 0.  1.
        -11    1    1    2    0    0  0.68046411051E+01  0.98110320624E+01 -0.52351794273E+02  0.53696087887E+02  0.00000000000E+00 0.  1.
         11    1    1    2    0    0 -0.61865085763E+02  0.17303561871E+02  0.90807753684E+01  0.64878059244E+02  0.00000000000E+00 0. -1.
</event>
<event>
 7    1  0.2420569E-009  0.9545140E+02  0.7561462E-02  0.1290163E+00
          1   -1    0    0  501    0  0.00000000000E+00  0.00000000000E+00  0.36535354033E+03  0.36535354033E+03  0.00000000000E+00 0. -1.
         -1   -1    0    0    0  501 -0.00000000000E+00 -0.00000000000E+00 -0.41968150628E+02  0.41968150628E+02  0.00000000000E+00 0.  1.
         25    2    1    2    0    0 -0.42633244760E+02  0.37251568209E+02  0.17489267339E+03  0.22235149429E+03  0.12508983537E+03 0.  0.
          5    1    3    3  502    0 -0.39104543495E+02  0.52463381824E+02  0.18952561580E+03  0.20054676063E+03  0.41800000000E+01 0. -1.
         -5    1    3    3    0  502 -0.35287012656E+01 -0.15211813615E+02 -0.14632942412E+02  0.21804733654E+02  0.41800000000E+01 0. -1.
        -11    1    1    2    0    0  0.47068348887E+02  0.20435320989E+02  0.83008266221E+02  0.97587929949E+02  0.00000000000E+00 0. -1.
         11    1    1    2    0    0 -0.44351041265E+01 -0.57686889198E+02  0.65484450091E+02  0.87382266723E+02  0.00000000000E+00 0.  1.
</event>
<event>
 7    1  0.2420569E-009  0.1338924E+03  0.7561462E-02  0.1221792E+00
          1   -1    0    0  501    0  0.00000000000E+00  0.00000000000E+00  0.69884623272E+03  0.69884623272E+03  0.00000000000E+00 0. -1.
         -1   -1    0    0    0  501 -0.00000000000E+00 -0.00000000000E+00 -0.51051338187E+02  0.51051338187E+02  0.00000000000E+00 0.  1.
         25    2    1    2    0    0 -0.49378355997E+02 -0.10887664862E+03  0.15018249941E+03  0.22911659134E+03  0.12508909882E+03 0.  0.
          5    1    3    3  502    0 -0.25316255326E+02 -0.87520962171E+02  0.16868936332E+03  0.19176653854E+03  0.41800000000E+01 0. -1.
         -5    1    3    3    0  502 -0.24062100671E+02 -0.21355686452E+02 -0.18506863919E+02  0.37350052806E+02  0.41800000000E+01 0. -1.
        -11    1    1    2    0    0 -0.11564653100E+02  0.71963997961E+02  0.16129313358E+03  0.17699726874E+03  0.00000000000E+00 0.  1.
         11    1    1    2    0    0  0.60943009097E+02  0.36912650661E+02  0.33631926155E+03  0.34378371082E+03  0.00000000000E+00 0. -1.
</event>
<event>
 7    1  0.2420569E-009  0.1073922E+03  0.7561462E-02  0.1265477E+00
         -1   -1    0    0    0  501 -0.00000000000E+00  0.00000000000E+00  0.21171348014E+02  0.21171348014E+02  0.00000000000E+00 0.  1.
          1   -1    0    0  501    0  0.00000000000E+00 -0.00000000000E+00 -0.74514369362E+03  0.74514369362E+03  0.00000000000E+00 0. -1.
         25    2    1    2    0    0 -0.57702095855E+02  0.25943455127E+02 -0.37110611124E+03  0.39669577931E+03  0.12508077708E+03 0.  0.
          5    1    3    3  502    0 -0.45541407151E+02  0.57022105175E+02 -0.10195059530E+03  0.12544694706E+03  0.41800000000E+01 0.  1.
         -5    1    3    3    0  502 -0.12160688704E+02 -0.31078650049E+02 -0.26915551594E+03  0.27124883226E+03  0.41800000000E+01 0.  1.
        -11    1    1    2    0    0  0.46915367581E+01 -0.49730866008E+02 -0.12893704380E+03  0.13827483797E+03  0.00000000000E+00 0.  1.
         11    1    1    2    0    0  0.53010559097E+02  0.23787410881E+02 -0.22392919056E+03  0.23134442435E+03  0.00000000000E+00 0. -1.
</event>
<event>
 7    1  0.2420569E-009  0.1085581E+03  0.7561462E-02  0.1263264E+00
          1   -1    0    0  501    0  0.00000000000E+00  0.00000000000E+00  0.18959809490E+03  0.18959809490E+03  0.00000000000E+00 0. -1.
         -1   -1    0    0    0  501 -0.00000000000E+00 -0.00000000000E+00 -0.10992057066E+03  0.10992057066E+03  0.00000000000E+00 0.  1.
         25    2    1    2    0    0  0.44931316374E+02  0.32564155300E+02 -0.27528041917E+02  0.13958564081E+03  0.12508841124E+03 0.  0.
          5    1    3    3  502    0 -0.14006232837E+02 -0.32557277696E+02  0.18649115553E+02  0.40266770421E+02  0.41800000000E+01 0. -1.
         -5    1    3    3    0  502  0.58937549211E+02  0.65121432996E+02 -0.46177157470E+02  0.99318870384E+02  0.41800000000E+01 0. -1.
        -11    1    1    2    0    0 -0.20825603615E+02  0.24140063943E+02 -0.46604473479E+01  0.32220617973E+02  0.00000000000E+00 0.  1.
         11    1    1    2    0    0 -0.24105712759E+02 -0.56704219243E+02  0.11186601351E+03  0.12771240678E+03  0.00000000000E+00 0. -1.
</event>
<event>
 7    1  0.2420569E-009  0.2263654E+03  0.7561462E-02  0.1129224E+00
          4   -1    0    0  501    0  0.00000000000E+00  0.00000000000E+00  0.34912540439E+03  0.34912540439E+03  0.00000000000E+00 0. -1.
         -4   -1    0    0    0  501 -0.00000000000E+00 -0.00000000000E+00 -0.19534025776E+03  0.19534025776E+03  0.00000000000E+00 0.  1.
         25    2    1    2    0    0 -0.20387693901E+02 -0.22200899531E+03 -0.54836374904E+01  0.25569785377E+03  0.12509064745E+03 0.  0.
          5    1    3    3  502    0  0.11896682277E+00 -0.18761793556E+03 -0.51454685869E+02  0.19459075260E+03  0.41800000000E+01 0. -1.
         -5    1    3    3    0  502 -0.20506660724E+02 -0.34391059746E+02  0.45971048379E+02  0.61107101171E+02  0.41800000000E+01 0. -1.
        -11    1    1    2    0    0  0.55453288401E+01  0.18279157119E+03  0.16516850257E+03  0.24642269257E+03  0.00000000000E+00 0. -1.
         11    1    1    2    0    0  0.14842365061E+02  0.39217424117E+02 -0.58997184591E+01  0.42345115809E+02  0.00000000000E+00 0.  1.
</event>
<event>
 7    1  0.2420569E-009  0.9697616E+02  0.7561462E-02  0.1286786E+00
         -1   -1    0    0    0  501 -0.00000000000E+00  0.00000000000E+00  0.52239533803E+02  0.52239533803E+02  0.00000000000E+00 0.  1.
          1   -1    0    0  501    0  0.00000000000E+00 -0.00000000000E+00 -0.28976964336E+03  0.28976964336E+03  0.00000000000E+00 0. -1.
         25    2    1    2    0    0  0.35976700175E+02  0.46834005755E+02 -0.12385535938E+03  0.18567342147E+03  0.12508685919E+03 0.  0.
          5    1    3    3  502    0  0.73566435836E+02  0.47447076876E+02 -0.11862420647E+03  0.14748701755E+03  0.41800000000E+01 0.  1.
         -5    1    3    3    0  502 -0.37589735661E+02 -0.61307112068E+00 -0.52311529090E+01  0.38186403916E+02  0.41800000000E+01 0.  1.
        -11    1    1    2    0    0 -0.31087800487E+02 -0.12020052861E+02 -0.11639681207E+03  0.12107498036E+03  0.00000000000E+00 0. -1.
         11    1    1    2    0    0 -0.48888996881E+01 -0.34813952894E+02  0.27220618899E+01  0.35260775335E+02  0.00000000000E+00 0.  1.
</event>
<event>
 7    1  0.2420569E-009  0.2666871E+03  0.7561462E-02  0.1103191E+00
         -2   -1    0    0    0  501 -0.00000000000E+00  0.00000000000E+00  0.60133610514E+03  0.60133610514E+03  0.00000000000E+00 0.  1.
          2   -1    0    0  501    0  0.00000000000E+00 -0.00000000000E+00 -0.17863127552E+03  0.17863127552E+03  0.00000000000E+00 0. -1.
         25    2    1    2    0    0 -0.20912663824E+03 -0.14973636781E+03  0.41829313586E+03  0.50672622973E+03  0.12508954281E+03 0.  0.
          5    1    3    3  502    0 -0.12352156652E+03 -0.49634644890E+02  0.11471228757E+03  0.17577700842E+03  0.41800000000E+01 0. -1.
         -5    1    3    3    0  502 -0.85605071713E+02 -0.10010172292E+03  0.30358084829E+03  0.33094922131E+03  0.41800000000E+01 0. -1.
        -11    1    1    2    0    0  0.11637496677E+03  0.36355375752E+02 -0.23377986727E+02  0.12414256523E+03  0.00000000000E+00 0. -1.
         11    1    1    2    0    0  0.92751671463E+02  0.11338099206E+03  0.27789680485E+02  0.14909858571E+03  0.00000000000E+00 0.  1.
</event>
<event>
 7    1  0.2420569E-009  0.8384393E+02  0.7561462E-02  0.1318484E+00
          3   -1    0    0  501    0  0.00000000000E+00  0.00000000000E+00  0.17730352435E+03  0.17730352435E+03  0.00000000000E+00 0. -1.
         -3   -1    0    0    0  501 -0.00000000000E+00 -0.00000000000E+00 -0.85959266134E+02  0.85959266134E+02  0.00000000000E+00 0.  1.
         25    2    1    2    0    0 -0.57168613195E+02  0.30674474538E+02  0.49118871815E+02  0.14921841729E+03  0.12507717124E+03 0.  0.
          5    1    3    3  502    0 -0.62358697481E+02  0.91339470032E+01 -0.27838943412E+02  0.69025468558E+02  0.41800000000E+01 0.  1.
         -5    1    3    3    0  502  0.51900842856E+01  0.21540527534E+02  0.76957815227E+02  0.80192948729E+02  0.41800000000E+01 0.  1.
        -11    1    1    2    0    0  0.56174994635E+00 -0.25089493878E+02 -0.18243527320E+02  0.31026191438E+02  0.00000000000E+00 0.  1.
         11    1    1    2    0    0  0.56606863249E+02 -0.55849806595E+01  0.60468913718E+02  0.83018181756E+02  0.00000000000E+00 0. -1.
</event>
<event>
 7    1  0.2420569E-009  0.1381498E+03  0.7561462E-02  0.1215840E+00
          1   -1    0    0  501    0  0.00000000000E+00  0.00000000000E+00  0.37780179874E+03  0.37780179874E+03  0.00000000000E+00 0. -1.
         -1   -1    0    0    0  501 -0.00000000000E+00 -0.00000000000E+00 -0.64602114979E+02  0.64602114979E+02  0.00000000000E+00 0.  1.
         25    2    1    2    0    0  0.11244079501E+03 -0.11027405497E+02  0.15017449413E+03  0.22575227414E+03  0.12508866671E+03 0.  0.
          5    1    3    3  502    0 -0.21293807175E+02  0.14987951910E+02  0.54223121911E+01  0.26924687481E+02  0.41800000000E+01 0. -1.
         -5    1    3    3    0  502  0.13373460218E+03 -0.26015357408E+02  0.14475218194E+03  0.19882758666E+03  0.41800000000E+01 0. -1.
        -11    1    1    2    0    0 -0.15219750910E+02  0.57068098078E+01 -0.92962551847E+01  0.18725086285E+02  0.00000000000E+00 0.  1.
         11    1    1    2    0    0 -0.97221044098E+02  0.53205956897E+01  0.17232144482E+03  0.19792655329E+03  0.00000000000E+00 0. -1.
</event>
<event>
 7    1  0.2420569E-009  0.2436523E+03  0.7561462E-02  0.1117383E+00
          2   -1    0    0  501    0  0.00000000000E+00  0.00000000000E+00  0.21948792675E+03  0.21948792675E+03  0.00000000000E+00 0. -1.
         -2   -1    0    0    0  501 -0.00000000000E+00 -0.00000000000E+00 -0.31189550200E+03  0.31189550200E+03  0.00000000000E+00 0.  1.
         25    2    1    2    0    0 -0.21989782652E+03  0.87820961411E+02 -0.19507193093E+02  0.26850649016E+03  0.12509048448E+03 0.  0.
          5    1    3    3  502    0 -0.83222990198E+00 -0.55697080207E+01 -0.29299040769E+02  0.30126739684E+02  0.41800000000E+01 0.  1.
         -5    1    3    3    0  502 -0.21906559661E+03  0.93390669432E+02  0.97918476753E+01  0.23837975048E+03  0.41800000000E+01 0.  1.
        -11    1    1    2    0    0  0.20614804364E+03 -0.66249546068E+02 -0.87362022652E+02  0.23349120166E+03  0.00000000000E+00 0.  1.
         11    1    1    2    0    0  0.13749782879E+02 -0.21571415343E+02  0.14461640502E+02  0.29385736934E+02  0.00000000000E+00 0. -1.
</event>
<event>
 7    1  0.2420569E-009  0.7185820E+02  0.7561462E-02  0.1353886E+00
         -4   -1    0    0    0  501 -0.00000000000E+00  0.00000000000E+00  0.86674614959E+02  0.86674614959E+02  0.00000000000E+00 0.  1.
          4   -1    0    0  501    0  0.00000000000E+00 -0.00000000000E+00 -0.15306914789E+03  0.15306914789E+03  0.00000000000E+00 0. -1.
         25    2    1    2    0    0 -0.82615856663E+01  0.37201833167E+02 -0.48230217694E+02  0.13936856801E+03  0.12508082851E+03 0.  0.
          5    1    3    3  502    0  0.31458831199E+02 -0.30938762683E+01  0.29295214231E+02  0.43300255283E+02  0.41800000000E+01 0.  1.
         -5    1    3    3    0  502 -0.39720416865E+02  0.40295709436E+02 -0.77525431925E+02  0.96068312726E+02  0.41800000000E+01 0.  1.
        -11    1    1    2    0    0  0.23921891728E+02 -0.16174507813E+02  0.32410393098E+02  0.43408584262E+02  0.00000000000E+00 0.  1.
         11    1    1    2    0    0 -0.15660306062E+02 -0.21027325355E+02 -0.50574708339E+02  0.56966610582E+02  0.00000000000E+00 0. -1.
</event>
<event>
 7    1  0.2420569E-009  0.8509604E+02  0.7561462E-02  0.1315182E+00
         -1   -1    0    0    0  501 -0.00000000000E+00  0.00000000000E+00  0.93712871335E+02  0.93712871335E+02  0.00000000000E+00 0.  1.
          1   -1    0    0  501    0  0.00000000000E+00 -0.00000000000E+00 -0.20003447497E+03  0.20003447497E+03  0.00000000000E+00 0. -1.
         25    2    1    2    0    0 -0.29905929719E+02 -0.34291208150E+02 -0.13415608879E+03  0.18898444737E+03  0.12508802342E+03 0.  0.
          5    1    3    3  502    0 -0.42078120636E+00 -0.46225369448E+02  0.45295433572E+01  0.46636369932E+02  0.41800000000E+01 0.  1.
         -5    1    3    3    0  502 -0.29485148512E+02  0.11934161298E+02 -0.13868563214E+03  0.14234807744E+03  0.41800000000E+01 0.  1.
        -11    1    1    2    0    0  0.26755365104E+02 -0.22412802231E+02 -0.10258787411E+02  0.36378922261E+02  0.00000000000E+00 0. -1.
         11    1    1    2    0    0  0.31505646148E+01  0.56704010381E+02  0.38093272562E+02  0.68383976670E+02  0.00000000000E+00 0.  1.
</event>
<event>
 7    1  0.2420569E-009  0.6414384E+02  0.7561462E-02  0.1381221E+00
         -1   -1    0    0    0  501 -0.00000000000E+00  0.00000000000E+00  0.30001697822E+03  0.30001697822E+03  0.00000000000E+00 0.  1.
          1   -1    0    0  501    0  0.00000000000E+00 -0.00000000000E+00 -0.44488178113E+02  0.44488178113E+02  0.00000000000E+00 0. -1.
         25    2    1    2    0    0  0.25606331090E+02 -0.15874547145E+02  0.18720508161E+03  0.22715780979E+03  0.12508893847E+03 0.  0.
          5    1    3    3  502    0  0.80639865848E+01 -0.48650265630E+02  0.16149178337E+02  0.52059049035E+02  0.41800000000E+01 0.  1.
         -5    1    3    3    0  502  0.17542344505E+02  0.32775718485E+02  0.17105590327E+03  0.17509876075E+03  0.41800000000E+01 0.  1.
        -11    1    1    2    0    0  0.75896911992E+00  0.14988113721E+02  0.84883714823E+02  0.86200142860E+02  0.00000000000E+00 0.  1.
         11    1    1    2    0    0 -0.26365300210E+02  0.88643342388E+00 -0.16559996322E+02  0.31147203688E+02  0.00000000000E+00 0. -1.
</event>
<event>
 7    1  0.2420569E-009  0.1449547E+03  0.7561462E-02  0.1206813E+00
         -1   -1    0    0    0  501 -0.00000000000E+00  0.00000000000E+00  0.96739831302E+02  0.96739831302E+02  0.00000000000E+00 0.  1.
          1   -1    0    0  501    0  0.00000000000E+00 -0.00000000000E+00 -0.28113681527E+03  0.28113681527E+03  0.00000000000E+00 0. -1.
         25    2    1    2    0    0 -0.11155742785E+03  0.23663173537E+02 -0.14885100892E+03  0.22540911916E+03  0.12509053782E+03 0.  0.
          5    1    3    3  502    0 -0.82427471602E+02 -0.26234963309E+02 -0.14300667138E+03  0.16718535173E+03  0.41800000000E+01 0. -1.
         -5    1    3    3    0  502 -0.29129956252E+02  0.49898136846E+02 -0.58443375338E+01  0.58223767425E+02  0.41800000000E+01 0. -1.
        -11    1    1    2    0    0  0.10970236813E+03 -0.48874778459E+02 -0.17404268363E+02  0.12135181127E+03  0.00000000000E+00 0.  1.
         11    1    1    2    0    0  0.18550597264E+01  0.25211604922E+02 -0.18141706693E+02  0.31115716142E+02  0.00000000000E+00 0. -1.
</event>
<event>
 7    1  0.2420569E-009  0.1244441E+03  0.7561462E-02  0.1235941E+00
         -1   -1    0    0    0  501 -0.00000000000E+00  0.00000000000E+00  0.26876915040E+02  0.26876915040E+02  0.00000000000E+00 0.  1.
          1   -1    0    0  501    0  0.00000000000E+00 -0.00000000000E+00 -0.61099838796E+03  0.61099838796E+03  0.00000000000E+00 0. -1.
         25    2    1    2    0    0  0.63779421302E+02  0.54552379087E+01 -0.25227572496E+03  0.28876933852E+03  0.12508842977E+03 0.  0.
          5    1    3    3  502    0  0.51066947516E+02  0.63123972012E+02 -0.14793093793E+03  0.16880018889E+03  0.41800000000E+01 0. -1.
         -5    1    3    3    0  502  0.12712473786E+02 -0.57668734103E+02 -0.10434478703E+03  0.11996914963E+03  0.41800000000E+01 0. -1.
        -11    1    1    2    0    0 -0.76619960840E+02  0.20597654555E+02 -0.23940631189E+03  0.25221075303E+03  0.00000000000E+00 0.  1.
         11    1    1    2    0    0  0.12840539538E+02 -0.26052892464E+02 -0.92439436070E+02  0.96895211451E+02  0.00000000000E+00 0. -1.
</event>
<event>
 7    1  0.2420569E-009  0.1122032E+03  0.7561462E-02  0.1256544E+00
         -2   -1    0    0    0  501 -0.00000000000E+00  0.00000000000E+00  0.56635685850E+02  0.56635685850E+02  0.00000000000E+00 0.  1.
          2   -1    0    0  501    0  0.00000000000E+00 -0.00000000000E+00 -0.30204402766E+03  0.30204402766E+03  0.00000000000E+00 0. -1.
         25    2    1    2    0    0  0.34505670413E+02 -0.38601269097E+02 -0.65338056965E+02  0.15032443029E+03  0.12509066067E+03 0.  0.
          5    1    3    3  502    0 -0.25126204471E+02 -0.54770472225E+02 -0.64534417122E+02  0.88392840050E+02  0.41800000000E+01 0. -1.
         -5    1    3    3    0  502  0.59631874884E+02  0.16169203127E+02 -0.80363984259E+00  0.61931590235E+02  0.41800000000E+01 0. -1.
        -11    1    1    2    0    0  0.18635887659E+02  0.44850909192E+02 -0.10954453938E+03  0.11982865464E+03  0.00000000000E+00 0. -1.
         11    1    1    2    0    0 -0.53141558072E+02 -0.62496400945E+01 -0.70525745459E+02  0.88526628583E+02  0.00000000000E+00 0.  1.
</event>
<event>
 7    1  0.2420569E-009  0.2383304E+03  0.7561462E-02  0.1120910E+00
         -2   -1    0    0    0  501 -0.00000000000E+00  0.00000000000E+00  0.10247378080E+03  0.10247378080E+03  0.00000000000E+00 0.  1.
          2   -1    0    0  501    0  0.00000000000E+00 -0.00000000000E+00 -0.69954870948E+03  0.69954870948E+03  0.00000000000E+00 0. -1.
         25    2    1    2    0    0 -0.12274573654E+03  0.20388202159E+03 -0.38033071682E+03  0.46576113833E+03  0.12509032439E+03 0.  0.
          5    1    3    3  502    0 -0.11112948727E+03  0.18870449763E+03 -0.24342073990E+03  0.32746034780E+03  0.41800000000E+01 0. -1.
         -5    1    3    3    0  502 -0.11616249266E+02  0.15177523952E+02 -0.13690997692E+03  0.13830079052E+03  0.41800000000E+01 0. -1.
        -11    1    1    2    0    0  0.89946827789E+02 -0.15460100827E+03 -0.98901839589E+02  0.20438560972E+03  0.00000000000E+00 0.  1.
         11    1    1    2    0    0  0.32798908750E+02 -0.49281013316E+02 -0.11784237226E+03  0.13187574223E+03  0.00000000000E+00 0. -1.
</event>
<event>
 7    1  0.2420569E-009  0.8568623E+02  0.7561462E-02  0.1313648E+00
         -2   -1    0    0    0  501 -0.00000000000E+00  0.00000000000E+00  0.30023026415E+02  0.30023026415E+02  0.00000000000E+00 0.  1.
          2   -1    0    0  501    0  0.00000000000E+00 -0.00000000000E+00 -0.42646697139E+03  0.42646697139E+03  0.00000000000E+00 0. -1.
         25    2    1    2    0    0  0.26048253463E+02 -0.11001069876E+02 -0.18705166973E+03  0.22679430126E+03  0.12509113833E+03 0.  0.
          5    1    3    3  502    0  0.56064304683E+01 -0.45994070893E+02 -0.13380834008E+02  0.48408736181E+02  0.41800000000E+01 0.  1.
         -5    1    3    3    0  502  0.20441822994E+02  0.34993001017E+02 -0.17367083572E+03  0.17838556508E+03  0.41800000000E+01 0.  1.
        -11    1    1    2    0    0 -0.28165783213E+02  0.43346623798E+02 -0.17482622238E+03  0.18230866455E+03  0.00000000000E+00 0.  1.
         11    1    1    2    0    0  0.21175297498E+01 -0.32345553922E+02 -0.34566052862E+02  0.47387031994E+02  0.00000000000E+00 0. -1.
</event>
<event>
 7    1  0.2420569E-009  0.9947267E+02  0.7561462E-02  0.1281409E+00
          1   -1    0    0  501    0  0.00000000000E+00  0.00000000000E+00  0.78704059075E+03  0.78704059075E+03  0.00000000000E+00 0. -1.
         -1   -1    0    0    0  501 -0.00000000000E+00 -0.00000000000E+00 -0.33563272004E+02  0.33563272004E+02  0.00000000000E+00 0.  1.
         25    2    1    2    0    0 -0.26539165388E+02  0.34674112001E+02  0.70917324449E+03  0.72144294303E+03  0.12508640220E+03 0.  0.
          5    1    3    3  502    0  0.12845062544E+02 -0.31520782634E+02  0.73501565026E+02  0.81108001029E+02  0.41800000000E+01 0. -1.
         -5    1    3    3    0  502 -0.39384227931E+02  0.66194894635E+02  0.63567167946E+03  0.64033494200E+03  0.41800000000E+01 0. -1.
        -11    1    1    2    0    0  0.48549465938E+02 -0.42124019429E+02  0.39465688661E+02  0.75425620563E+02  0.00000000000E+00 0.  1.
         11    1    1    2    0    0 -0.22010300551E+02  0.74499074282E+01  0.48383856029E+01  0.23735299161E+02  0.00000000000E+00 0. -1.
</event>
<event>
 7    1  0.2420569E-009  0.9857210E+02  0.7561462E-02  0.1283328E+00
         -2   -1    0    0    0  501 -0.00000000000E+00  0.00000000000E+00  0.44905194680E+02  0.44905194680E+02  0.00000000000E+00 0.  1.
          2   -1    0    0  501    0  0.00000000000E+00 -0.00000000000E+00 -0.29911268689E+03  0.29911268689E+03  0.00000000000E+00 0. -1.
         25    2    1    2    0    0  0.39122624380E+02 -0.11751664482E+02 -0.12698705260E+03  0.18287419756E+03  0.12509428144E+03 0.  0.
          5    1    3    3  502    0  0.57443957802E+02 -0.52857535890E+02 -0.10921087510E+03  0.13430642214E+03  0.41800000000E+01 0.  1.
         -5    1    3    3    0  502 -0.18321333422E+02  0.41105871409E+02 -0.17776177501E+02  0.48567775419E+02  0.41800000000E+01 0.  1.
        -11    1    1    2    0    0 -0.21846898790E+02  0.37124981399E+02 -0.12279350293E+03  0.13012991813E+03  0.00000000000E+00 0. -1.
         11    1    1    2    0    0 -0.17275725590E+02 -0.25373316918E+02 -0.44269366889E+01  0.31013765888E+02  0.00000000000E+00 0.  1.
</event>
<event>
 7    1  0.2420569E-009  0.9981242E+02  0.7561462E-02  0.1280691E+00
          2   -1    0    0  501    0  0.00000000000E+00  0.00000000000E+00  0.69397034770E+02  0.69397034770E+02  0.00000000000E+00 0. -1.
         -2   -1    0    0    0  501 -0.00000000000E+00 -0.00000000000E+00 -0.35767375547E+03  0.35767375547E+03  0.00000000000E+00 0.  1.
         25    2    1    2    0    0  0.90469046350E+02  0.23562039856E+02 -0.68106578374E+02  0.17035857101E+03  0.12507485211E+03 0.  0.
          5    1    3    3  502    0  0.89296556983E+02  0.24512579377E+02 -0.10104510918E+03  0.13712158155E+03  0.41800000000E+01 0. -1.
         -5    1    3    3    0  502  0.11724893662E+01 -0.95053952095E+00  0.32938530809E+02  0.33236989463E+02  0.41800000000E+01 0. -1.
        -11    1    1    2    0    0 -0.23763175422E+02  0.12293466394E+02 -0.15350320788E+03  0.15581736954E+03  0.00000000000E+00 0.  1.
         11    1    1    2    0    0 -0.66705870928E+02 -0.35855506249E+02 -0.66666934447E+02  0.10089484969E+03  0.00000000000E+00 0. -1.
</event>
<event>
 7    1  0.2420569E-009  0.1407642E+03  0.7561462E-02  0.1212304E+00
          1   -1    0    0  501    0  0.00000000000E+00  0.00000000000E+00  0.70924466540E+03  0.70924466540E+03  0.00000000000E+00 0. -1.
         -1   -1    0    0    0  501 -0.00000000000E+00 -0.00000000000E+00 -0.76936562699E+02  0.76936562699E+02  0.00000000000E+00 0.  1.
         25    2    1    2    0    0 -0.58985610638E+02  0.56758807367E+02  0.62959374398E+03  0.64709850640E+03  0.12508928828E+03 0.  0.
          5    1    3    3  502    0 -0.48005271348E+02  0.95605989794E+02  0.49844662250E+03  0.50981518146E+03  0.41800000000E+01 0. -1.
         -5    1    3    3    0  502 -0.10980339289E+02 -0.38847182427E+02  0.13114712148E+03  0.13728332494E+03  0.41800000000E+01 0. -1.
        -11    1    1    2    0    0  0.14586674631E+02 -0.81675411825E+02 -0.16631701358E+02  0.84618304543E+02  0.00000000000E+00 0.  1.
         11    1    1    2    0    0  0.44398936006E+02  0.24916604458E+02  0.19346060077E+02  0.54464417162E+02  0.00000000000E+00 0. -1.
</event>
<event>
 7    1  0.2420569E-009  0.1032218E+03  0.7561462E-02  0.1273663E+00
         -1   -1    0    0    0  501 -0.00000000000E+00  0.00000000000E+00  0.88215404358E+02  0.88215404358E+02  0.00000000000E+00 0.  1.
          1   -1    0    0  501    0  0.00000000000E+00 -0.00000000000E+00 -0.14960262682E+03  0.14960262682E+03  0.00000000000E+00 0. -1.
         25    2    1    2    0    0  0.12389743440E+02  0.14991808265E+02 -0.40432459162E+00  0.12657655583E+03  0.12507278261E+03 0.  0.
          5    1    3    3  502    0 -0.35408375779E+02 -0.30908737982E+02 -0.27777344905E+02  0.54755423923E+02  0.41800000000E+01 0.  1.
         -5    1    3    3    0  502  0.47798119219E+02  0.45900546247E+02  0.27373020314E+02  0.71821131902E+02  0.41800000000E+01 0.  1.
        -11    1    1    2    0    0  0.20798272897E+02  0.30272837566E+02 -0.20767904454E+02  0.42193823069E+02  0.00000000000E+00 0. -1.
         11    1    1    2    0    0 -0.33188016337E+02 -0.45264645831E+02 -0.40214993419E+02  0.69047652287E+02  0.00000000000E+00 0.  1.
</event>
<event>
 7    1  0.2420569E-009  0.1691107E+03  0.7561462E-02  0.1178778E+00
          4   -1    0    0  501    0  0.00000000000E+00  0.00000000000E+00  0.30505451794E+02  0.30505451794E+02  0.00000000000E+00 0. -1.
         -4   -1    0    0    0  501 -0.00000000000E+00 -0.00000000000E+00 -0.12689561181E+04  0.12689561181E+04  0.00000000000E+00 0.  1.
         25    2    1    2    0    0 -0.14034708787E+03  0.25023912749E+02 -0.91239913086E+03  0.93190320328E+03  0.12509158641E+03 0.  0.
          5    1    3    3  502    0 -0.14928908574E+03 -0.13060793182E+02 -0.74619994803E+03  0.76111080026E+03  0.41800000000E+01 0. -1.
         -5    1    3    3    0  502  0.89419978644E+01  0.38084705931E+02 -0.16619918284E+03  0.17079240302E+03  0.41800000000E+01 0. -1.
        -11    1    1    2    0    0  0.35112687345E+02  0.12448046657E+02 -0.17929462567E+03  0.18312404941E+03  0.00000000000E+00 0.  1.
         11    1    1    2    0    0  0.10523440053E+03 -0.37471959405E+02 -0.14675690975E+03  0.18443431718E+03  0.00000000000E+00 0. -1.
</event>
<event>
 7    1  0.2420569E-009  0.1196003E+03  0.7561462E-02  0.1243758E+00
          2   -1    0    0  501    0  0.00000000000E+00  0.00000000000E+00  0.72612092327E+03  0.72612092327E+03  0.00000000000E+00 0. -1.
         -2   -1    0    0    0  501 -0.00000000000E+00 -0.00000000000E+00 -0.22581216547E+02  0.22581216547E+02  0.00000000000E+00 0.  1.
         25    2    1    2    0    0  0.26046631212E+02  0.48520577837E+02  0.28697558764E+03  0.31785998505E+03  0.12508920306E+03 0.  0.
          5    1    3    3  502    0  0.34632693183E+02  0.88670198765E+02  0.19403747756E+03  0.21617086456E+03  0.41800000000E+01 0.  1.
         -5    1    3    3    0  502 -0.85860619705E+01 -0.40149620928E+02  0.92938110081E+02  0.10168912049E+03  0.41800000000E+01 0.  1.
        -11    1    1    2    0    0  0.31366776599E+02 -0.26813854134E+02  0.96615364662E+02  0.10505896505E+03  0.00000000000E+00 0. -1.
         11    1    1    2    0    0 -0.57413407812E+02 -0.21706723703E+02  0.31994875442E+03  0.32578318972E+03  0.00000000000E+00 0.  1.
</event>
<event>
 7    1  0.2420569E-009  0.1367386E+03  0.7561462E-02  0.1217786E+00
          2   -1    0    0  501    0  0.00000000000E+00  0.00000000000E+00  0.22859303253E+03  0.22859303253E+03  0.00000000000E+00 0. -1.
         -2   -1    0    0    0  501 -0.00000000000E+00 -0.00000000000E+00 -0.10812405603E+03  0.10812405603E+03  0.00000000000E+00 0.  1.
         25    2    1    2    0    0 -0.22027744800E+01  0.11344889472E+03  0.34894975276E+02  0.17245658001E+03  0.12509240090E+03 0.  0.
          5    1    3    3  502    0 -0.14583687963E+02  0.13367852430E+03  0.50563974406E+02  0.14372480552E+03  0.41800000000E+01 0. -1.
         -5    1    3    3    0  502  0.12380913483E+02 -0.20229629585E+02 -0.15668999130E+02  0.28731774494E+02  0.41800000000E+01 0. -1.
        -11    1    1    2    0    0  0.97046590730E+01 -0.47361466081E+02 -0.84613022698E+01  0.49080367900E+02  0.00000000000E+00 0.  1.
         11    1    1    2    0    0 -0.75018845930E+01 -0.66087428634E+02  0.94035303496E+02  0.11518014065E+03  0.00000000000E+00 0. -1.
</event>
<event>
 7    1  0.2420569E-009  0.2550272E+03  0.7561462E-02  0.1110168E+00
         -2   -1    0    0    0  501 -0.00000000000E+00  0.00000000000E+00  0.97572260326E+02  0.97572260326E+02  0.00000000000E+00 0.  1.
          2   -1    0    0  501    0  0.00000000000E+00 -0.00000000000E+00 -0.80921642422E+03  0.80921642422E+03  0.00000000000E+00 0. -1.
         25    2    1    2    0    0  0.22145547730E+03 -0.10163762501E+03 -0.22231514019E+03  0.35276717669E+03  0.12509166300E+03 0.  0.
          5    1    3    3  502    0  0.22001235133E+03 -0.11761809987E+03 -0.22498929982E+03  0.33597188810E+03  0.41800000000E+01 0.  1.
         -5    1    3    3    0  502  0.14431259628E+01  0.15980474859E+02  0.26741596345E+01  0.16795288596E+02  0.41800000000E+01 0.  1.
        -11    1    1    2    0    0 -0.19501589760E+03  0.85104946874E+02 -0.33713177153E+03  0.39866261886E+03  0.00000000000E+00 0.  1.
         11    1    1    2    0    0 -0.26439579701E+02  0.16532678133E+02 -0.15219725217E+03  0.15535888899E+03  0.00000000000E+00 0. -1.
</event>
<event>
 7    1  0.2420569E-009  0.8262224E+02  0.7561462E-02  0.1321770E+00
          2   -1    0    0  501    0  0.00000000000E+00  0.00000000000E+00  0.15892534632E+03  0.15892534632E+03  0.00000000000E+00 0. -1.
         -2   -1    0    0    0  501 -0.00000000000E+00 -0.00000000000E+00 -0.89862508509E+02  0.89862508509E+02  0.00000000000E+00 0.  1.
         25    2    1    2    0    0  0.16046293942E+02 -0.45418378068E+02  0.51229569509E+02  0.14349948588E+03  0.12508925229E+03 0.  0.
          5    1    3    3  502    0 -0.34863703227E+02 -0.14607129081E+02 -0.25885433229E+02  0.46004065865E+02  0.41800000000E+01 0. -1.
         -5    1    3    3    0  502  0.50909997169E+02 -0.30811248987E+02  0.77115002738E+02  0.97495420011E+02  0.41800000000E+01 0. -1.
        -11    1    1    2    0    0  0.14778254483E+02  0.29205038946E+02 -0.31150386890E+02  0.45184927894E+02  0.00000000000E+00 0.  1.
         11    1    1    2    0    0 -0.30824548425E+02  0.16213339122E+02  0.48983655194E+02  0.60103441060E+02  0.00000000000E+00 0. -1.
</event>
<event>
 7    1  0.2420569E-009  0.1211041E+03  0.7561462E-02  0.1241287E+00
          2   -1    0    0  501    0  0.00000000000E+00  0.00000000000E+00  0.78649312962E+03  0.78649312962E+03  0.00000000000E+00 0.  1.
         -2   -1    0    0    0  501 -0.00000000000E+00 -0.00000000000E+00 -0.22545824167E+02  0.22545824167E+02  0.00000000000E+00 0. -1.
         25    2    1    2    0    0 -0.39459464683E+02  0.67106893071E+02  0.42744659018E+03  0.45212668802E+03  0.12509024790E+03 0.  0.
          5    1    3    3  502    0  0.28105778030E+01 -0.23133063817E+02  0.15545865290E+02  0.28322858556E+02  0.41800000000E+01 0. -1.
         -5    1    3    3    0  502 -0.42270042486E+02  0.90239956888E+02  0.41190072489E+03  0.42380382947E+03  0.41800000000E+01 0. -1.
        -11    1    1    2    0    0  0.28449270065E+02 -0.89462060969E+02  0.27346965317E+03  0.28913400444E+03  0.00000000000E+00 0.  1.
         11    1    1    2    0    0  0.11010194618E+02  0.22355167898E+02  0.63031062114E+02  0.67778261327E+02  0.00000000000E+00 0. -1.
</event>
<event>
 7    1  0.2420569E-009  0.2678097E+03  0.7561462E-02  0.1102540E+00
         -1   -1    0    0    0  501 -0.00000000000E+00  0.00000000000E+00  0.40278142587E+02  0.40278142587E+02  0.00000000000E+00 0.  1.
          1   -1    0    0  501    0  0.00000000000E+00 -0.00000000000E+00 -0.18207564746E+04  0.18207564746E+04  0.00000000000E+00 0. -1.
         25    2    1    2    0    0  0.20517283283E+02  0.24782157678E+03 -0.93218153056E+03  0.97285493727E+03  0.12509128756E+03 0.  0.
          5    1    3    3  502    0  0.61720024932E+02  0.68867636231E+02 -0.25827385361E+03  0.27436284124E+03  0.41800000000E+01 0.  1.
         -5    1    3    3    0  502 -0.41202741649E+02  0.17895394054E+03 -0.67390767696E+03  0.69849209603E+03  0.41800000000E+01 0.  1.
        -11    1    1    2    0    0  0.26851286567E+02 -0.61330423610E+02 -0.15875054987E+03  0.17229088639E+03  0.00000000000E+00 0.  1.
         11    1    1    2    0    0 -0.47368569850E+02 -0.18649115317E+03 -0.68954625154E+03  0.71588879348E+03  0.00000000000E+00 0. -1.
</event>
<event>
 7    1  0.2420569E-009  0.1283668E+03  0.7561462E-02  0.1229899E+00
          2   -1    0    0  501    0  0.00000000000E+00  0.00000000000E+00  0.23309375123E+03  0.23309375123E+03  0.00000000000E+00 0. -1.
         -2   -1    0    0    0  501 -0.00000000000E+00 -0.00000000000E+00 -0.10360681732E+03  0.10360681732E+03  0.00000000000E+00 0.  1.
         25    2    1    2    0    0 -0.58575885027E+02 -0.96085191036E+02  0.58499933344E+02  0.17813791118E+03  0.12508946781E+03 0.  0.
          5    1    3    3  502    0 -0.28247828253E+02 -0.15255906464E+02 -0.37112247473E+02  0.49249099439E+02  0.41800000000E+01 0. -1.
         -5    1    3    3    0  502 -0.30328056774E+02 -0.80829284573E+02  0.95612180817E+02  0.12888881174E+03  0.41800000000E+01 0. -1.
        -11    1    1    2    0    0  0.57511394695E+01  0.83401366445E+02  0.24646181653E+02  0.87156742712E+02  0.00000000000E+00 0.  1.
         11    1    1    2    0    0  0.52824745558E+02  0.12683824592E+02  0.46340818920E+02  0.71405914655E+02  0.00000000000E+00 0. -1.
</event>
<event>
 7    1  0.2420569E-009  0.1063749E+03  0.7561462E-02  0.1267434E+00
         -1   -1    0    0    0  501 -0.00000000000E+00  0.00000000000E+00  0.28168659594E+02  0.28168659594E+02  0.00000000000E+00 0.  1.
          1   -1    0    0  501    0  0.00000000000E+00 -0.00000000000E+00 -0.51621404313E+03  0.51621404313E+03  0.00000000000E+00 0. -1.
         25    2    1    2    0    0 -0.82021608154E+01 -0.51211003079E+02 -0.27687462736E+03  0.30821453596E+03  0.12508716411E+03 0.  0.
          5    1    3    3  502    0 -0.50646402118E+02 -0.14826058001E+02 -0.44448945268E+02  0.69123448835E+02  0.41800000000E+01 0.  1.
         -5    1    3    3    0  502  0.42444241303E+02 -0.36384945079E+02 -0.23242568209E+03  0.23909108712E+03  0.41800000000E+01 0.  1.
        -11    1    1    2    0    0  0.29521664170E+02  0.69596751365E+02 -0.17246769269E+03  0.18830916462E+03  0.00000000000E+00 0.  1.
         11    1    1    2    0    0 -0.21319503355E+02 -0.18385748285E+02 -0.38703063487E+02  0.47859002148E+02  0.00000000000E+00 0. -1.
</event>
<event>
 7    1  0.2420569E-009  0.7528083E+02  0.7561462E-02  0.1343004E+00
         -1   -1    0    0    0  501 -0.00000000000E+00  0.00000000000E+00  0.80709719818E+02  0.80709719818E+02  0.00000000000E+00 0.  1.
          1   -1    0    0  501    0  0.00000000000E+00 -0.00000000000E+00 -0.21589325414E+03  0.21589325414E+03  0.00000000000E+00 0. -1.
         25    2    1    2    0    0  0.34647737844E+02  0.20651205476E+02 -0.48684582030E+01  0.13150958033E+03  0.12507649582E+03 0.  0.
          5    1    3    3  502    0  0.33338754803E+02  0.40314342554E+02 -0.55882566775E+02  0.76661936166E+02  0.41800000000E+01 0. -1.
         -5    1    3    3    0  502  0.13089830411E+01 -0.19663137078E+02  0.51014108572E+02  0.54847644159E+02  0.41800000000E+01 0. -1.
        -11    1    1    2    0    0  0.15165486572E+02  0.11162461553E+02  0.31814956869E+01  0.19097498414E+02  0.00000000000E+00 0.  1.
         11    1    1    2    0    0 -0.49813224416E+02 -0.31813667029E+02 -0.13349657181E+03  0.14599589522E+03  0.00000000000E+00 0. -1.
</event>
<event>
 7    1  0.2420569E-009  0.1011980E+03  0.7561462E-02  0.1277797E+00
         -2   -1    0    0    0  501 -0.00000000000E+00  0.00000000000E+00  0.73050525330E+02  0.73050525330E+02  0.00000000000E+00 0.  1.
          2   -1    0    0  501    0  0.00000000000E+00 -0.00000000000E+00 -0.20166595901E+03  0.20166595901E+03  0.00000000000E+00 0. -1.
         25    2    1    2    0    0 -0.36624410029E+02 -0.38484804758E+02 -0.97743997587E+02  0.16740415335E+03  0.12509130220E+03 0.  0.
          5    1    3    3  502    0 -0.82117800801E+02 -0.35473288708E+02 -0.71803049234E+02  0.11478169584E+03  0.41800000000E+01 0.  1.
         -5    1    3    3    0  502  0.45493390772E+02 -0.30115160493E+01 -0.25940948353E+02  0.52622457509E+02  0.41800000000E+01 0.  1.
        -11    1    1    2    0    0 -0.86724643042E+01  0.11262469974E+02 -0.49327502260E+02  0.51334757681E+02  0.00000000000E+00 0. -1.
         11    1    1    2    0    0  0.45296874333E+02  0.27222334783E+02  0.18456066168E+02  0.55977573311E+02  0.00000000000E+00 0.  1.
</event>
<event>
 7    1  0.2420569E-009  0.1215393E+03  0.7561462E-02  0.1240579E+00
          2   -1    0    0  501    0  0.00000000000E+00  0.00000000000E+00  0.11182135818E+04  0.11182135818E+04  0.00000000000E+00 0. -1.
         -2   -1    0    0    0  501 -0.00000000000E+00 -0.00000000000E+00 -0.24341724869E+02  0.24341724869E+02  0.00000000000E+00 0.  1.
         25    2    1    2    0    0  0.47393485594E+02 -0.11174171828E+03  0.64768309304E+03  0.67072487316E+03  0.12508442101E+03 0.  0.
          5    1    3    3  502    0  0.18060917341E+02 -0.41289144525E+02  0.47185463561E+02  0.65382953147E+02  0.41800000000E+01 0. -1.
         -5    1    3    3    0  502  0.29332568254E+02 -0.70452573752E+02  0.60049762948E+03  0.60534192001E+03  0.41800000000E+01 0. -1.
        -11    1    1    2    0    0 -0.11157061399E+02  0.28233679291E+02  0.20775050985E+02  0.36786185027E+02  0.00000000000E+00 0.  1.
         11    1    1    2    0    0 -0.36236424195E+02  0.83508038986E+02  0.42541371288E+03  0.43504424846E+03  0.00000000000E+00 0. -1.
</event>
<event>
 7    1  0.2420569E-009  0.2479606E+03  0.7561462E-02  0.1114600E+00
         -2   -1    0    0    0  501 -0.00000000000E+00  0.00000000000E+00  0.38023705060E+03  0.38023705060E+03  0.00000000000E+00 0.  1.
          2   -1    0    0  501    0  0.00000000000E+00 -0.00000000000E+00 -0.21406241524E+03  0.21406241524E+03  0.00000000000E+00 0. -1.
         25    2    1    2    0    0 -0.16944401116E+03 -0.16560599365E+03 -0.37112272414E+02  0.27048310958E+03  0.12508866356E+03 0.  0.
          5    1    3    3  502    0  0.12617012258E+02 -0.13392022526E+02 -0.26978187993E+02  0.32921577925E+02  0.41800000000E+01 0.  1.
         -5    1    3    3    0  502 -0.18206102341E+03 -0.15221397113E+03 -0.10134084421E+02  0.23756153165E+03  0.41800000000E+01 0.  1.
        -11    1    1    2    0    0  0.46899833195E+02  0.70100286689E+02  0.26381224222E+02  0.88372017851E+02  0.00000000000E+00 0.  1.
         11    1    1    2    0    0  0.12254417796E+03  0.95505706965E+02  0.17690568355E+03  0.23544433841E+03  0.00000000000E+00 0. -1.
</event>
<event>
 7    1  0.2420569E-009  0.9366502E+02  0.7561462E-02  0.1294211E+00
         -1   -1    0    0    0  501 -0.00000000000E+00  0.00000000000E+00  0.10584487022E+03  0.10584487022E+03  0.00000000000E+00 0.  1.
          1   -1    0    0  501    0  0.00000000000E+00 -0.00000000000E+00 -0.16135451410E+03  0.16135451410E+03  0.00000000000E+00 0. -1.
         25    2    1    2    0    0 -0.47445252517E+02  0.27419416103E+01  0.26795114939E+02  0.13646921854E+03  0.12508916498E+03 0.  0.
          5    1    3    3  502    0 -0.33260149799E+02  0.59617631315E+02  0.35502263512E+02  0.77060902167E+02  0.41800000000E+01 0.  1.
         -5    1    3    3    0  502 -0.14185102719E+02 -0.56875689705E+02 -0.87071485734E+01  0.59408316377E+02  0.41800000000E+01 0.  1.
        -11    1    1    2    0    0  0.42440325301E+02  0.12404216229E+02  0.26457275871E+01  0.44294984664E+02  0.00000000000E+00 0.  1.
         11    1    1    2    0    0  0.50049272163E+01 -0.15146157839E+02 -0.84950486405E+02  0.86435181114E+02  0.00000000000E+00 0. -1.
</event>
<event>
 7    1  0.2420569E-009  0.1732707E+03  0.7561462E-02  0.1174479E+00
         -2   -1    0    0    0  501 -0.00000000000E+00  0.00000000000E+00  0.19362475900E+04  0.19362475900E+04  0.00000000000E+00 0. -1.
          2   -1    0    0  501    0  0.00000000000E+00 -0.00000000000E+00 -0.24927842256E+02  0.24927842256E+02  0.00000000000E+00 0.  1.
         25    2    1    2    0    0 -0.15953618454E+03  0.72844305461E+01  0.14541129622E+04  0.14681952296E+04  0.12509144031E+03 0.  0.
          5    1    3    3  502    0 -0.11576720558E+03 -0.32666441546E+02  0.59619785681E+03  0.60822569755E+03  0.41800000000E+01 0. -1.
         -5    1    3    3    0  502 -0.43768978967E+02  0.39950872092E+02  0.85791510538E+03  0.85996953209E+03  0.41800000000E+01 0. -1.
        -11    1    1    2    0    0  0.19433078255E+02 -0.17697386378E+02  0.18013774715E+02  0.31864370299E+02  0.00000000000E+00 0.  1.
         11    1    1    2    0    0  0.14010310629E+03  0.10412955832E+02  0.43919301089E+03  0.46111583236E+03  0.00000000000E+00 0. -1.
</event>
<event>
 7    1  0.2420569E-009  0.9182218E+02  0.7561462E-02  0.1298498E+00
         -2   -1    0    0    0  501 -0.00000000000E+00  0.00000000000E+00  0.59945346237E+02  0.59945346237E+02  0.00000000000E+00 0.  1.
          2   -1    0    0  501    0  0.00000000000E+00 -0.00000000000E+00 -0.25117047957E+03  0.25117047957E+03  0.00000000000E+00 0. -1.
         25    2    1    2    0    0  0.23557857175E+02 -0.51836489093E+02 -0.11762903873E+03  0.18090346522E+03  0.12508988265E+03 0.  0.
          5    1    3    3  502    0  0.21798791238E+02  0.15114444408E+02 -0.11015878784E+03  0.11338458743E+03  0.41800000000E+01 0.  1.
         -5    1    3    3    0  502  0.17590659366E+01 -0.66950933501E+02 -0.74702508876E+01  0.67518877789E+02  0.41800000000E+01 0.  1.
        -11    1    1    2    0    0 -0.24687013125E+02 -0.10866981598E+02  0.72151786659E+01  0.27921294907E+02  0.00000000000E+00 0.  1.
         11    1    1    2    0    0  0.11291559504E+01  0.62703470690E+02 -0.80811273277E+02  0.10229106568E+03  0.00000000000E+00 0. -1.
</event>
<event>
 7    1  0.2420569E-009  0.9744079E+02  0.7561462E-02  0.1285772E+00
          2   -1    0    0  501    0  0.00000000000E+00  0.00000000000E+00  0.96944838911E+03  0.96944838911E+03  0.00000000000E+00 0. -1.
         -2   -1    0    0    0  501 -0.00000000000E+00 -0.00000000000E+00 -0.19828122210E+02  0.19828122210E+02  0.00000000000E+00 0.  1.
         25    2    1    2    0    0 -0.41359514295E+02  0.33539100844E+02  0.75675554505E+03  0.76887321702E+03  0.12510630749E+03 0.  0.
          5    1    3    3  502    0 -0.76442320101E+01  0.70811093645E+02  0.26154426561E+03  0.27110057274E+03  0.41800000000E+01 0.  1.
         -5    1    3    3    0  502 -0.33715282285E+02 -0.37271992801E+02  0.49521127944E+03  0.49777264428E+03  0.41800000000E+01 0.  1.
        -11    1    1    2    0    0  0.29889030516E+02 -0.46825523417E+02  0.19496546592E+03  0.20272522460E+03  0.00000000000E+00 0. -1.
         11    1    1    2    0    0  0.11470483778E+02  0.13286422572E+02 -0.21007440648E+01  0.17678069705E+02  0.00000000000E+00 0.  1.
</event>
<event>
 7    1  0.2420569E-009  0.1127497E+03  0.7561462E-02  0.1255561E+00
         -1   -1    0    0    0  501 -0.00000000000E+00  0.00000000000E+00  0.40383702407E+02  0.40383702407E+02  0.00000000000E+00 0.  1.
          1   -1    0    0  501    0  0.00000000000E+00 -0.00000000000E+00 -0.34976278808E+03  0.34976278808E+03  0.00000000000E+00 0. -1.
         25    2    1    2    0    0  0.35188136891E+02  0.23360462653E+02 -0.14534011275E+03  0.19635342232E+03  0.12508797660E+03 0.  0.
          5    1    3    3  502    0  0.25851790494E+02 -0.50367902717E+02 -0.73851316196E+02  0.93148966713E+02  0.41800000000E+01 0. -1.
         -5    1    3    3    0  502  0.93363463977E+01  0.73728365370E+02 -0.71488796550E+02  0.10320445560E+03  0.41800000000E+01 0. -1.
        -11    1    1    2    0    0 -0.55627698084E+02 -0.39522668124E+02 -0.14856556232E+03  0.16348763989E+03  0.00000000000E+00 0. -1.
         11    1    1    2    0    0  0.20439561193E+02  0.16162205471E+02 -0.15473410607E+02  0.30305428280E+02  0.00000000000E+00 0.  1.
</event>
<event>
 7    1  0.2420569E-009  0.1179624E+03  0.7561462E-02  0.1246497E+00
         -2   -1    0    0    0  501 -0.00000000000E+00  0.00000000000E+00  0.13074325164E+03  0.13074325164E+03  0.00000000000E+00 0.  1.
          2   -1    0    0  501    0  0.00000000000E+00 -0.00000000000E+00 -0.12599664102E+03  0.12599664102E+03  0.00000000000E+00 0. -1.
         25    2    1    2    0    0 -0.33758970576E+01  0.50111128490E+02  0.45890923195E+02  0.14239663878E+03  0.12509318137E+03 0.  0.
          5    1    3    3  502    0 -0.37420822935E+02 -0.28135202461E+02  0.38021816314E+01  0.47157571946E+02  0.41800000000E+01 0.  1.
         -5    1    3    3    0  502  0.34044925877E+02  0.78246330952E+02  0.42088741564E+02  0.95239066836E+02  0.41800000000E+01 0.  1.
        -11    1    1    2    0    0  0.46009636076E+02 -0.36510671792E+02 -0.36961018275E+02  0.69397641448E+02  0.00000000000E+00 0. -1.
         11    1    1    2    0    0 -0.42633739019E+02 -0.13600456698E+02 -0.41832942952E+01  0.44945612425E+02  0.00000000000E+00 0.  1.
</event>
<event>
 7    1  0.2420569E-009  0.1204608E+03  0.7561462E-02  0.1242339E+00
         -2   -1    0    0    0  501 -0.00000000000E+00  0.00000000000E+00  0.20173682260E+03  0.20173682260E+03  0.00000000000E+00 0.  1.
          2   -1    0    0  501    0  0.00000000000E+00 -0.00000000000E+00 -0.82091743060E+02  0.82091743060E+02  0.00000000000E+00 0. -1.
         25    2    1    2    0    0 -0.50545554829E+02 -0.27987613841E+02  0.10931791854E+03  0.17588548145E+03  0.12508851118E+03 0.  0.
          5    1    3    3  502    0  0.41823000665E+02 -0.13200361784E+02  0.38027246873E+02  0.58197567308E+02  0.41800000000E+01 0. -1.
         -5    1    3    3    0  502 -0.92368555495E+02 -0.14787252058E+02  0.71290671671E+02  0.11768791414E+03  0.41800000000E+01 0. -1.
        -11    1    1    2    0    0  0.20454158381E+02  0.57530512250E+02  0.20779447417E+02  0.64497425296E+02  0.00000000000E+00 0. -1.
         11    1    1    2    0    0  0.30091396449E+02 -0.29542898409E+02 -0.10452286426E+02  0.43445658910E+02  0.00000000000E+00 0.  1.
</event>
<event>
 7    1  0.2420569E-009  0.8127860E+02  0.7561462E-02  0.1325462E+00
          1   -1    0    0  501    0  0.00000000000E+00  0.00000000000E+00  0.67483231085E+02  0.67483231085E+02  0.00000000000E+00 0. -1.
         -1   -1    0    0    0  501 -0.00000000000E+00 -0.00000000000E+00 -0.19018513389E+03  0.19018513389E+03  0.00000000000E+00 0.  1.
         25    2    1    2    0    0  0.21159848381E+02 -0.32487776213E+02 -0.76588571022E+02  0.15171161229E+03  0.12508960510E+03 0.  0.
          5    1    3    3  502    0  0.24848029072E+02  0.42010153259E+02 -0.55622971606E+02  0.74119261302E+02  0.41800000000E+01 0.  1.
         -5    1    3    3    0  502 -0.36881806917E+01 -0.74497929472E+02 -0.20965599416E+02  0.77592350984E+02  0.41800000000E+01 0.  1.
        -11    1    1    2    0    0 -0.12762447280E+02  0.17149563361E+02 -0.71782147725E+02  0.74897692328E+02  0.00000000000E+00 0.  1.
         11    1    1    2    0    0 -0.83974011005E+01  0.15338212852E+02  0.25668815941E+02  0.31059060362E+02  0.00000000000E+00 0. -1.
</event>
<event>
 7    1  0.2725257E-009  0.9777209E+02  0.7561462E-02  0.1285052E+00
          1   -1    0    0  501    0  0.00000000000E+00  0.00000000000E+00  0.33992985954E+03  0.33992985954E+03  0.00000000000E+00 0. -1.
         -1   -1    0    0    0  501 -0.00000000000E+00 -0.00000000000E+00 -0.40526864053E+02  0.40526864053E+02  0.00000000000E+00 0.  1.
         25    2    1    2    0    0 -0.38939420824E+02  0.29601920965E+01  0.13314391584E+03  0.18680743137E+03  0.12507866668E+03 0.  0.
          5    1    3    3  502    0  0.18475608267E+02 -0.47157691957E+02  0.31849159400E+02  0.59975306303E+02  0.41800000000E+01 0. -1.
         -5    1    3    3    0  502 -0.57415029090E+02  0.50117884054E+02  0.10129475644E+03  0.12683212507E+03  0.41800000000E+01 0. -1.
        -11    1    1    2    0    0 -0.54394622313E+00 -0.23762959367E+02  0.24794832615E+01  0.23898157934E+02  0.00000000000E+00 0.  1.
         11    1    1    2    0    0  0.39483367047E+02  0.20802767271E+02  0.16377959639E+03  0.16975113429E+03  0.00000000000E+00 0. -1.
</event>
<event>
 7    1  0.2420569E-009  0.1343930E+03  0.7561462E-02  0.1221079E+00
          3   -1    0    0  501    0  0.00000000000E+00  0.00000000000E+00  0.53249760443E+02  0.53249760443E+02  0.00000000000E+00 0. -1.
         -3   -1    0    0    0  501 -0.00000000000E+00 -0.00000000000E+00 -0.41504958345E+03  0.41504958345E+03  0.00000000000E+00 0.  1.
         25    2    1    2    0    0  0.68358441374E+02  0.57945763791E+02 -0.26849708938E+03  0.30946552559E+03  0.12509051313E+03 0.  0.
          5    1    3    3  502    0 -0.28957060181E+02  0.37108483452E+02 -0.13408068087E+03  0.14216417362E+03  0.41800000000E+01 0. -1.
         -5    1    3    3    0  502  0.97315501554E+02  0.20837280340E+02 -0.13441640850E+03  0.16730135196E+03  0.41800000000E+01 0. -1.
        -11    1    1    2    0    0 -0.32728875831E+02 -0.75436761090E+02 -0.85033518395E+02  0.11829025103E+03  0.00000000000E+00 0.  1.
         11    1    1    2    0    0 -0.35629565542E+02  0.17490997298E+02 -0.82692152364E+01  0.40543567281E+02  0.00000000000E+00 0. -1.
</event>
<event>
 7    1  0.2420569E-009  0.1107574E+03  0.7561462E-02  0.1259174E+00
         -2   -1    0    0    0  501 -0.00000000000E+00  0.00000000000E+00  0.72735310803E+02  0.72735310803E+02  0.00000000000E+00 0.  1.
          2   -1    0    0  501    0  0.00000000000E+00 -0.00000000000E+00 -0.25322799100E+03  0.25322799100E+03  0.00000000000E+00 0. -1.
         25    2    1    2    0    0 -0.53718781113E+02  0.32496119575E+02 -0.31439969396E+02  0.14345111488E+03  0.12509214784E+03 0.  0.
          5    1    3    3  502    0 -0.80445336867E+02 -0.86137313111E+01  0.65561166615E+01  0.81277940774E+02  0.41800000000E+01 0. -1.
         -5    1    3    3    0  502  0.26726555754E+02  0.41109850886E+02 -0.37996086058E+02  0.62173174103E+02  0.41800000000E+01 0. -1.
        -11    1    1    2    0    0  0.33949775563E+01 -0.40231943432E+02 -0.11335227803E+03  0.12032819320E+03  0.00000000000E+00 0. -1.
         11    1    1    2    0    0  0.50323803557E+02  0.77358238567E+01 -0.35700432766E+02  0.62183993719E+02  0.00000000000E+00 0.  1.
</event>
<event>
 7    1  0.2420569E-009  0.9962691E+02  0.7561462E-02  0.1281082E+00
         -1   -1    0    0    0  501 -0.00000000000E+00  0.00000000000E+00  0.85344344765E+02  0.85344344765E+02  0.00000000000E+00 0.  1.
          1   -1    0    0  501    0  0.00000000000E+00 -0.00000000000E+00 -0.26300389061E+03  0.26300389061E+03  0.00000000000E+00 0. -1.
         25    2    1    2    0    0  0.31383338802E+02 -0.34173972502E+02 -0.20590254896E+03  0.24535041965E+03  0.12509274319E+03 0.  0.
          5    1    3    3  502    0  0.75972913080E+02 -0.36284791310E+02 -0.16189581269E+03  0.18252724774E+03  0.41800000000E+01 0.  1.
         -5    1    3    3    0  502 -0.44589574279E+02  0.21108188080E+01 -0.44006736275E+02  0.62823171903E+02  0.41800000000E+01 0.  1.
        -11    1    1    2    0    0  0.60410030704E+01  0.32075216692E+02  0.49960865619E+02  0.59677477639E+02  0.00000000000E+00 0.  1.
         11    1    1    2    0    0 -0.37424341872E+02  0.20987558103E+01 -0.21717862500E+02  0.43320338088E+02  0.00000000000E+00 0. -1.
</event>
<event>
 7    1  0.2420569E-009  0.1366670E+03  0.7561462E-02  0.1217885E+00
          1   -1    0    0  501    0  0.00000000000E+00  0.00000000000E+00  0.18246735565E+03  0.18246735565E+03  0.00000000000E+00 0. -1.
         -1   -1    0    0    0  501 -0.00000000000E+00 -0.00000000000E+00 -0.10355268103E+03  0.10355268103E+03  0.00000000000E+00 0.  1.
         25    2    1    2    0    0  0.76449918883E+02 -0.37291145303E+02  0.50759373710E+02  0.15955999129E+03  0.12509059591E+03 0.  0.
          5    1    3    3  502    0  0.56476200854E+02  0.41262722522E+02  0.25368318202E+02  0.74519779262E+02  0.41800000000E+01 0. -1.
         -5    1    3    3    0  502  0.19973718030E+02 -0.78553867826E+02  0.25391055508E+02  0.85040212030E+02  0.41800000000E+01 0. -1.
        -11    1    1    2    0    0  0.17551302169E+02  0.19853197572E+02  0.13495598832E+02  0.29737667183E+02  0.00000000000E+00 0.  1.
         11    1    1    2    0    0 -0.94001221052E+02  0.17437947731E+02  0.14659702082E+02  0.96722378205E+02  0.00000000000E+00 0. -1.
</event>
<event>
 7    1  0.2420569E-009  0.1634761E+03  0.7561462E-02  0.1184827E+00
          2   -1    0    0  501    0  0.00000000000E+00  0.00000000000E+00  0.15950354968E+04  0.15950354968E+04  0.00000000000E+00 0.  1.
         -2   -1    0    0    0  501 -0.00000000000E+00 -0.00000000000E+00 -0.20920467376E+02  0.20920467376E+02  0.00000000000E+00 0. -1.
         25    2    1    2    0    0 -0.12602827047E+03  0.34654639985E+02  0.11307655008E+04  0.11451469332E+04  0.12508721672E+03 0.  0.
          5    1    3    3  502    0 -0.15021709067E+03  0.20495551221E+02  0.90683846756E+03  0.91943391313E+03  0.41800000000E+01 0. -1.
         -5    1    3    3    0  502  0.24188820201E+02  0.14159088764E+02  0.22392703319E+03  0.22571302003E+03  0.41800000000E+01 0. -1.
        -11    1    1    2    0    0  0.11967301472E+03 -0.84364083507E+01  0.41360470910E+03  0.43065259645E+03  0.00000000000E+00 0.  1.
         11    1    1    2    0    0  0.63552557563E+01 -0.26218231635E+02  0.29744819538E+02  0.40156434542E+02  0.00000000000E+00 0. -1.
</event>
<event>
 7    1  0.2420569E-009  0.9443489E+02  0.7561462E-02  0.1292454E+00
         -1   -1    0    0    0  501 -0.00000000000E+00  0.00000000000E+00  0.22909852871E+02  0.22909852871E+02  0.00000000000E+00 0.  1.
          1   -1    0    0  501    0  0.00000000000E+00 -0.00000000000E+00 -0.58854553023E+03  0.58854553023E+03  0.00000000000E+00 0. -1.
         25    2    1    2    0    0  0.11150007964E+02  0.19771198597E+01 -0.42146616579E+03  0.43978437358E+03  0.12509330380E+03 0.  0.
          5    1    3    3  502    0 -0.22405699123E+02 -0.46288245153E+02 -0.30418097144E+03  0.30852577328E+03  0.41800000000E+01 0.  1.
         -5    1    3    3    0  502  0.33555707086E+02  0.48265365012E+02 -0.11728519435E+03  0.13125860030E+03  0.41800000000E+01 0.  1.
        -11    1    1    2    0    0  0.28893110196E+02  0.17535348725E+02 -0.18913260689E+02  0.38729984529E+02  0.00000000000E+00 0.  1.
         11    1    1    2    0    0 -0.40043118160E+02 -0.19512468584E+02 -0.12525625088E+03  0.13294102499E+03  0.00000000000E+00 0. -1.
</event>
<event>
 7    1  0.2420569E-009  0.1841645E+03  0.7561462E-02  0.1163832E+00
         -2   -1    0    0    0  501 -0.00000000000E+00  0.00000000000E+00  0.71322200977E+02  0.71322200977E+02  0.00000000000E+00 0.  1.
          2   -1    0    0  501    0  0.00000000000E+00 -0.00000000000E+00 -0.54038893184E+03  0.54038893184E+03  0.00000000000E+00 0. -1.
         25    2    1    2    0    0 -0.11872433900E+03  0.11162454817E+03 -0.24765039730E+03  0.32176673238E+03  0.12509037675E+03 0.  0.
          5    1    3    3  502    0 -0.13616411958E+03  0.12180931979E+03 -0.23453690541E+03  0.29732677351E+03  0.41800000000E+01 0.  1.
         -5    1    3    3    0  502  0.17439780582E+02 -0.10184771620E+02 -0.13113491896E+02  0.24439958867E+02  0.41800000000E+01 0.  1.
        -11    1    1    2    0    0  0.61663166632E+02 -0.40493490311E+02 -0.33396496378E+02  0.80977742911E+02  0.00000000000E+00 0.  1.
         11    1    1    2    0    0  0.57061172371E+02 -0.71131057858E+02 -0.18801983718E+03  0.20896665753E+03  0.00000000000E+00 0. -1.
</event>
<event>
 7    1  0.2420569E-009  0.8328565E+02  0.7561462E-02  0.1319978E+00
         -1   -1    0    0    0  501 -0.00000000000E+00  0.00000000000E+00  0.29444741152E+03  0.29444741152E+03  0.00000000000E+00 0.  1.
          1   -1    0    0  501    0  0.00000000000E+00 -0.00000000000E+00 -0.52421263374E+02  0.52421263374E+02  0.00000000000E+00 0. -1.
         25    2    1    2    0    0 -0.25867142617E+02  0.22336036043E+02  0.21545408932E+03  0.25146821452E+03  0.12509112972E+03 0.  0.
          5    1    3    3  502    0 -0.27677539332E+02  0.72965403005E+02  0.11762174459E+03  0.14121736232E+03  0.41800000000E+01 0.  1.
         -5    1    3    3    0  502  0.18103967149E+01 -0.50629366962E+02  0.97832344734E+02  0.11025085220E+03  0.41800000000E+01 0.  1.
        -11    1    1    2    0    0  0.10566054137E+02 -0.64865948809E-01  0.55101804361E+02  0.56105744371E+02  0.00000000000E+00 0.  1.
         11    1    1    2    0    0  0.15301088480E+02 -0.22271170095E+02 -0.28529745533E+02  0.39294716009E+02  0.00000000000E+00 0. -1.
</event>
<event>
 7    1  0.2420569E-009  0.8716984E+02  0.7561462E-02  0.1309854E+00
          1   -1    0    0  501    0  0.00000000000E+00  0.00000000000E+00  0.37673559111E+03  0.37673559111E+03  0.00000000000E+00 0. -1.
         -1   -1    0    0    0  501 -0.00000000000E+00 -0.00000000000E+00 -0.42192129214E+02  0.42192129214E+02  0.00000000000E+00 0.  1.
         25    2    1    2    0    0 -0.39775851156E+02  0.44777629158E+02  0.15824349764E+03  0.21041562810E+03  0.12508628061E+03 0.  0.
          5    1    3    3  502    0 -0.22205650502E+02  0.40206057333E+02 -0.47468248939E+01  0.46364023845E+02  0.41800000000E+01 0.  1.
         -5    1    3    3    0  502 -0.17570200655E+02  0.45715718245E+01  0.16299032253E+03  0.16405160425E+03  0.41800000000E+01 0.  1.
        -11    1    1    2    0    0 -0.10010844907E+02  0.23235850009E+02  0.57778942714E+02  0.63075573422E+02  0.00000000000E+00 0.  1.
         11    1    1    2    0    0  0.49786696063E+02 -0.68013479167E+02  0.11852102155E+03  0.14543651880E+03  0.00000000000E+00 0. -1.
</event>
<event>
 7    1  0.2420569E-009  0.1105268E+03  0.7561462E-02  0.1259597E+00
         -2   -1    0    0    0  501 -0.00000000000E+00  0.00000000000E+00  0.98462655511E+02  0.98462655511E+02  0.00000000000E+00 0. -1.
          2   -1    0    0  501    0  0.00000000000E+00 -0.00000000000E+00 -0.16231827774E+03  0.16231827774E+03  0.00000000000E+00 0.  1.
         25    2    1    2    0    0  0.25547373756E+02  0.76202225604E+00  0.26312536305E+02  0.13035834377E+03  0.12509076400E+03 0.  0.
          5    1    3    3  502    0  0.45219862463E+02 -0.53269084357E+02  0.13194185427E+02  0.71231946755E+02  0.41800000000E+01 0.  1.
         -5    1    3    3    0  502 -0.19672488707E+02  0.54031106613E+02  0.13118350877E+02  0.59126397011E+02  0.41800000000E+01 0.  1.
        -11    1    1    2    0    0  0.30394721644E+02  0.16849664205E+02 -0.42110375013E+02  0.54598845879E+02  0.00000000000E+00 0. -1.
         11    1    1    2    0    0 -0.55942095400E+02 -0.17611686461E+02 -0.48057783524E+02  0.75823743610E+02  0.00000000000E+00 0.  1.
</event>
<event>
 7    1  0.2420569E-009  0.1098170E+03  0.7561462E-02  0.1260909E+00
         -1   -1    0    0    0  501 -0.00000000000E+00  0.00000000000E+00  0.23758895094E+02  0.23758895094E+02  0.00000000000E+00 0.  1.
          1   -1    0    0  501    0  0.00000000000E+00 -0.00000000000E+00 -0.60500934143E+03  0.60500934143E+03  0.00000000000E+00 0. -1.
         25    2    1    2    0    0  0.16021770680E+02 -0.24470229726E+02 -0.45527409015E+03  0.47305082682E+03  0.12508836200E+03 0.  0.
          5    1    3    3  502    0  0.64984314269E+01  0.51313858861E+02 -0.17610129426E+03  0.18358779906E+03  0.41800000000E+01 0. -1.
         -5    1    3    3    0  502  0.95233392533E+01 -0.75784088587E+02 -0.27917279589E+03  0.28946302776E+03  0.41800000000E+01 0. -1.
        -11    1    1    2    0    0 -0.14326489978E+02  0.56949425945E+02 -0.86829357311E+02  0.10482281584E+03  0.00000000000E+00 0. -1.
         11    1    1    2    0    0 -0.16952807024E+01 -0.32479196219E+02 -0.39146998868E+02  0.50894593859E+02  0.00000000000E+00 0.  1.
</event>
<event>
 7    1  0.2420569E-009  0.1458415E+03  0.7561462E-02  0.1205678E+00
         -1   -1    0    0    0  501 -0.00000000000E+00  0.00000000000E+00  0.18912267967E+02  0.18912267967E+02  0.00000000000E+00 0.  1.
          1   -1    0    0  501    0  0.00000000000E+00 -0.00000000000E+00 -0.11621236501E+04  0.11621236501E+04  0.00000000000E+00 0. -1.
         25    2    1    2    0    0  0.74906493283E+02  0.68495307225E+02 -0.53549576618E+03  0.55920083640E+03  0.12508904826E+03 0.  0.
          5    1    3    3  502    0  0.82197116151E+02 -0.88564017351E+01 -0.29808024334E+03  0.30936080169E+03  0.41800000000E+01 0. -1.
         -5    1    3    3    0  502 -0.72906228673E+01  0.77351708960E+02 -0.23741552284E+03  0.24984003471E+03  0.41800000000E+01 0. -1.
        -11    1    1    2    0    0 -0.40761885032E+02 -0.84174858730E+02 -0.46042482255E+03  0.46982758043E+03  0.00000000000E+00 0. -1.
         11    1    1    2    0    0 -0.34144608252E+02  0.15679551505E+02 -0.14729079339E+03  0.15200750121E+03  0.00000000000E+00 0.  1.
</event>
<event>
 7    1  0.2420569E-009  0.1458139E+03  0.7561462E-02  0.1205713E+00
         -3   -1    0    0    0  501 -0.00000000000E+00  0.00000000000E+00  0.12936021299E+03  0.12936021299E+03  0.00000000000E+00 0.  1.
          3   -1    0    0  501    0  0.00000000000E+00 -0.00000000000E+00 -0.18979974424E+03  0.18979974424E+03  0.00000000000E+00 0. -1.
         25    2    1    2    0    0  0.11623767299E+02 -0.10131001614E+03  0.16216608180E+02  0.16220224118E+03  0.12509099619E+03 0.  0.
          5    1    3    3  502    0 -0.62957030281E+01 -0.12757191977E+03  0.21834029874E+02  0.12964732103E+03  0.41800000000E+01 0. -1.
         -5    1    3    3    0  502  0.17919470327E+02  0.26261903634E+02 -0.56174216942E+01  0.32554920147E+02  0.41800000000E+01 0. -1.
        -11    1    1    2    0    0 -0.38250539138E+02  0.97667772688E+02 -0.76935741080E+02  0.13008153528E+03  0.00000000000E+00 0. -1.
         11    1    1    2    0    0  0.26626771839E+02  0.36422434478E+01  0.27960164597E+00  0.26876180773E+02  0.00000000000E+00 0.  1.
</event>
<event>
 7    1  0.2420569E-009  0.1052897E+03  0.7561462E-02  0.1269550E+00
          1   -1    0    0  501    0  0.00000000000E+00  0.00000000000E+00  0.41276751391E+03  0.41276751391E+03  0.00000000000E+00 0. -1.
         -1   -1    0    0    0  501 -0.00000000000E+00 -0.00000000000E+00 -0.31014665828E+02  0.31014665828E+02  0.00000000000E+00 0.  1.
         25    2    1    2    0    0 -0.26280813473E+02 -0.17917012998E+02  0.23261238684E+03  0.26602258845E+03  0.12509114494E+03 0.  0.
          5    1    3    3  502    0  0.47020752959E+02 -0.14886846136E+02  0.56039303209E+02  0.74769280462E+02  0.41800000000E+01 0. -1.
         -5    1    3    3    0  502 -0.73301566433E+02 -0.30301668615E+01  0.17657308363E+03  0.19125330799E+03  0.41800000000E+01 0. -1.
        -11    1    1    2    0    0  0.37577152967E+02  0.44779534732E+02  0.59124515605E+02  0.83144197040E+02  0.00000000000E+00 0.  1.
         11    1    1    2    0    0 -0.11296339494E+02 -0.26862521734E+02  0.90015945642E+02  0.94615394253E+02  0.00000000000E+00 0. -1.
</event>
<event>
 7    1  0.2420569E-009  0.1377615E+03  0.7561462E-02  0.1216373E+00
          1   -1    0    0  501    0  0.00000000000E+00  0.00000000000E+00  0.10140583812E+04  0.10140583812E+04  0.00000000000E+00 0. -1.
         -1   -1    0    0    0  501 -0.00000000000E+00 -0.00000000000E+00 -0.23705094934E+02  0.23705094934E+02  0.00000000000E+00 0.  1.
         25    2    1    2    0    0  0.26429997571E+02  0.83940979269E+02  0.30486920139E+03  0.34108329796E+03  0.12509177999E+03 0.  0.
          5    1    3    3  502    0 -0.47334993574E+02  0.13550290311E+02  0.12275291599E+03  0.13232521592E+03  0.41800000000E+01 0. -1.
         -5    1    3    3    0  502  0.73764991145E+02  0.70390688959E+02  0.18211628540E+03  0.20875808205E+03  0.41800000000E+01 0. -1.
        -11    1    1    2    0    0  0.22961290813E+02 -0.68604388001E+02  0.42463042831E+03  0.43074909585E+03  0.00000000000E+00 0.  1.
         11    1    1    2    0    0 -0.49391288384E+02 -0.15336591269E+02  0.26085365653E+03  0.26593108229E+03  0.00000000000E+00 0. -1.
</event>
<event>
 7    1  0.2420569E-009  0.1107142E+03  0.7561462E-02  0.1259253E+00
         -2   -1    0    0    0  501 -0.00000000000E+00  0.00000000000E+00  0.19894311265E+03  0.19894311265E+03  0.00000000000E+00 0.  1.
          2   -1    0    0  501    0  0.00000000000E+00 -0.00000000000E+00 -0.67496793438E+02  0.67496793438E+02  0.00000000000E+00 0. -1.
         25    2    1    2    0    0  0.28906978052E+02 -0.18196561264E+02  0.45279100614E+02  0.13734586491E+03  0.12508781489E+03 0.  0.
          5    1    3    3  502    0 -0.46866534459E+02  0.98975444511E+01  0.23646145755E+02  0.53582142990E+02  0.41800000000E+01 0. -1.
         -5    1    3    3    0  502  0.75773512511E+02 -0.28094105715E+02  0.21632954859E+02  0.83763721921E+02  0.41800000000E+01 0. -1.
        -11    1    1    2    0    0 -0.11716241480E+02 -0.34794649228E+02  0.17504375717E+02  0.40673592152E+02  0.00000000000E+00 0. -1.
         11    1    1    2    0    0 -0.17190736572E+02  0.52991210492E+02  0.68662842884E+02  0.88420449027E+02  0.00000000000E+00 0.  1.
</event>
<event>
 7    1  0.2420569E-009  0.1126459E+03  0.7561462E-02  0.1255747E+00
          2   -1    0    0  501    0  0.00000000000E+00  0.00000000000E+00  0.10466081639E+04  0.10466081639E+04  0.00000000000E+00 0. -1.
         -2   -1    0    0    0  501 -0.00000000000E+00 -0.00000000000E+00 -0.15354362051E+02  0.15354362051E+02  0.00000000000E+00 0.  1.
         25    2    1    2    0    0  0.15734475206E+02 -0.61527429547E+02  0.59991709974E+03  0.61610284174E+03  0.12509591018E+03 0.  0.
          5    1    3    3  502    0  0.23343956363E+02  0.20460782871E+02  0.43458108485E+02  0.53569240497E+02  0.41800000000E+01 0.  1.
         -5    1    3    3    0  502 -0.76094811566E+01 -0.81988212418E+02  0.55645899126E+03  0.56253360125E+03  0.41800000000E+01 0.  1.
        -11    1    1    2    0    0 -0.14816246286E+02 -0.22799910248E+02  0.13738766224E+03  0.14005258583E+03  0.00000000000E+00 0. -1.
         11    1    1    2    0    0 -0.91822891999E+00  0.84327339795E+02  0.29394903987E+03  0.30580709839E+03  0.00000000000E+00 0.  1.
</event>
<event>
 7    1  0.2420569E-009  0.1969994E+03  0.7561462E-02  0.1152296E+00
         -2   -1    0    0    0  501 -0.00000000000E+00  0.00000000000E+00  0.23160446370E+02  0.23160446370E+02  0.00000000000E+00 0.  1.
          2   -1    0    0  501    0  0.00000000000E+00 -0.00000000000E+00 -0.26369341930E+04  0.26369341930E+04  0.00000000000E+00 0. -1.
         25    2    1    2    0    0  0.15601133015E+03  0.81997808104E+02 -0.20779492091E+04  0.20891586238E+04  0.12509062210E+03 0.  0.
          5    1    3    3  502    0  0.17770009427E+03  0.70832126570E+02 -0.18277876422E+04  0.18377757347E+04  0.41800000000E+01 0.  1.
         -5    1    3    3    0  502 -0.21688764120E+02  0.11165681534E+02 -0.25016156690E+03  0.25138288901E+03  0.41800000000E+01 0.  1.
        -11    1    1    2    0    0 -0.95031417901E+02 -0.36401476908E+02 -0.17742591178E+03  0.20453848557E+03  0.00000000000E+00 0.  1.
         11    1    1    2    0    0 -0.60979912251E+02 -0.45596331195E+02 -0.35839862568E+03  0.36639753002E+03  0.00000000000E+00 0. -1.
</event>
<event>
 7    1  0.2420569E-009  0.2422514E+03  0.7561462E-02  0.1118302E+00
          2   -1    0    0  501    0  0.00000000000E+00  0.00000000000E+00  0.15155212577E+04  0.15155212577E+04  0.00000000000E+00 0. -1.
         -2   -1    0    0    0  501 -0.00000000000E+00 -0.00000000000E+00 -0.39472046755E+02  0.39472046755E+02  0.00000000000E+00 0.  1.
         25    2    1    2    0    0  0.18876447651E+03 -0.11140986455E+03  0.78134946621E+03  0.82109563328E+03  0.12508742999E+03 0.  0.
          5    1    3    3  502    0 -0.11608868860E+02 -0.36302392700E+02  0.11800432754E+03  0.12407708600E+03  0.41800000000E+01 0.  1.
         -5    1    3    3    0  502  0.20037334537E+03 -0.75107471846E+02  0.66334513867E+03  0.69701854728E+03  0.41800000000E+01 0.  1.
        -11    1    1    2    0    0 -0.13358700855E+03  0.35383695191E+02  0.48108599713E+03  0.50054093876E+03  0.00000000000E+00 0.  1.
         11    1    1    2    0    0 -0.55177467963E+02  0.76026169355E+02  0.21361374763E+03  0.23335673244E+03  0.00000000000E+00 0. -1.
</event>
<event>
 7    1  0.2420569E-009  0.1926531E+03  0.7561462E-02  0.1156090E+00
          2   -1    0    0  501    0  0.00000000000E+00  0.00000000000E+00  0.21932891601E+03  0.21932891601E+03  0.00000000000E+00 0. -1.
         -2   -1    0    0    0  501 -0.00000000000E+00 -0.00000000000E+00 -0.27861288531E+03  0.27861288531E+03  0.00000000000E+00 0.  1.
         25    2    1    2    0    0 -0.78620694838E+02 -0.16440264085E+03 -0.15701857066E+03  0.27112955430E+03  0.12508781597E+03 0.  0.
          5    1    3    3  502    0 -0.14874595773E+02 -0.10346744936E+03 -0.17563973830E+02  0.10607889636E+03  0.41800000000E+01 0.  1.
         -5    1    3    3    0  502 -0.63746099065E+02 -0.60935191496E+02 -0.13945459683E+03  0.16505065794E+03  0.41800000000E+01 0.  1.
        -11    1    1    2    0    0 -0.10627648511E+02  0.20056582144E+02  0.42778147615E+02  0.48427092764E+02  0.00000000000E+00 0. -1.
         11    1    1    2    0    0  0.89248343348E+02  0.14434605871E+03  0.54956453745E+02  0.17838515427E+03  0.00000000000E+00 0.  1.
</event>
<event>
 7    1  0.2420569E-009  0.1382268E+03  0.7561462E-02  0.1215735E+00
          1   -1    0    0  501    0  0.00000000000E+00  0.00000000000E+00  0.16565023760E+03  0.16565023760E+03  0.00000000000E+00 0. -1.
         -1   -1    0    0    0  501 -0.00000000000E+00 -0.00000000000E+00 -0.22900002629E+03  0.22900002629E+03  0.00000000000E+00 0.  1.
         25    2    1    2    0    0  0.95837357127E+01 -0.10612033813E+03 -0.15452290208E+03  0.22556365592E+03  0.12509301121E+03 0.  0.
          5    1    3    3  502    0 -0.10107330847E+02 -0.12062520628E+03 -0.75470428642E+02  0.14270899245E+03  0.41800000000E+01 0.  1.
         -5    1    3    3    0  502  0.19691066559E+02  0.14504868158E+02 -0.79052473434E+02  0.82854663469E+02  0.41800000000E+01 0.  1.
        -11    1    1    2    0    0 -0.39706457781E+02  0.33673417616E+02  0.71057959382E+02  0.88089360509E+02  0.00000000000E+00 0. -1.
         11    1    1    2    0    0  0.30122722068E+02  0.72446920510E+02  0.20115154002E+02  0.80997247464E+02  0.00000000000E+00 0.  1.
</event>
<event>
 7    1  0.2420569E-009  0.1898100E+03  0.7561462E-02  0.1158633E+00
          1   -1    0    0  501    0  0.00000000000E+00  0.00000000000E+00  0.18183358821E+04  0.18183358821E+04  0.00000000000E+00 0. -1.
         -1   -1    0    0    0  501 -0.00000000000E+00 -0.00000000000E+00 -0.26676902967E+02  0.26676902967E+02  0.00000000000E+00 0.  1.
         25    2    1    2    0    0 -0.10116671875E+03  0.15108720013E+03  0.11783882252E+04  0.11988780401E+04  0.12509076150E+03 0.  0.
          5    1    3    3  502    0 -0.70537924382E+02  0.14472369137E+03  0.65390888886E+03  0.67344996321E+03  0.41800000000E+01 0.  1.
         -5    1    3    3    0  502 -0.30628794370E+02  0.63635087596E+01  0.52447933636E+03  0.52542807686E+03  0.41800000000E+01 0.  1.
        -11    1    1    2    0    0  0.49117518294E+02 -0.36636656749E+02  0.33800013343E+03  0.34350962930E+03  0.00000000000E+00 0. -1.
         11    1    1    2    0    0  0.52049200459E+02 -0.11445054338E+03  0.27527062047E+03  0.30262511568E+03  0.00000000000E+00 0.  1.
</event>
<event>
 7    1  0.2420569E-009  0.1019289E+03  0.7561462E-02  0.1276291E+00
         -2   -1    0    0    0  501 -0.00000000000E+00  0.00000000000E+00  0.52695749114E+02  0.52695749114E+02  0.00000000000E+00 0.  1.
          2   -1    0    0  501    0  0.00000000000E+00 -0.00000000000E+00 -0.67358898380E+03  0.67358898380E+03  0.00000000000E+00 0. -1.
         25    2    1    2    0    0 -0.50500010045E+02  0.53618580025E+02 -0.58800210347E+03  0.60565690067E+03  0.12509438238E+03 0.  0.
          5    1    3    3  502    0 -0.10274878872E+02 -0.16540841452E+02 -0.40557266862E+03  0.40606136790E+03  0.41800000000E+01 0.  1.
         -5    1    3    3    0  502 -0.40225131174E+02  0.70159421477E+02 -0.18242943486E+03  0.19959553277E+03  0.41800000000E+01 0.  1.
        -11    1    1    2    0    0 -0.67661930782E+01 -0.44454418210E+02  0.12848905659E+02  0.46766131375E+02  0.00000000000E+00 0.  1.
         11    1    1    2    0    0  0.57266203123E+02 -0.91641618143E+01 -0.45740036871E+02  0.73861700867E+02  0.00000000000E+00 0. -1.
</event>
<event>
 7    1  0.4054032E-009  0.1078513E+03  0.7561462E-02  0.1264602E+00
          1   -1    0    0  501    0  0.00000000000E+00  0.00000000000E+00  0.40333038099E+03  0.40333038099E+03  0.00000000000E+00 0. -1.
         -1   -1    0    0    0  501 -0.00000000000E+00 -0.00000000000E+00 -0.51477534070E+02  0.51477534070E+02  0.00000000000E+00 0.  1.
         25    2    1    2    0    0 -0.37498971398E+02  0.71748292796E+02  0.26835094503E+03  0.30694263389E+03  0.12509020915E+03 0.  0.
          5    1    3    3  502    0  0.23139359791E+02 -0.13600202741E+02  0.11418132340E+02  0.29465940207E+02  0.41800000000E+01 0.  1.
         -5    1    3    3    0  502 -0.60638331189E+02  0.85348495538E+02  0.25693281269E+03  0.27747669369E+03  0.41800000000E+01 0.  1.
        -11    1    1    2    0    0  0.33600316224E+02 -0.42144179791E+02 -0.53177364160E+01  0.54160792657E+02  0.00000000000E+00 0. -1.
         11    1    1    2    0    0  0.38986551737E+01 -0.29604113005E+02  0.88819638301E+02  0.93704488510E+02  0.00000000000E+00 0.  1.
</event>
<event>
 7    1  0.2420569E-009  0.1043935E+03  0.7561462E-02  0.1271319E+00
         -1   -1    0    0    0  501 -0.00000000000E+00  0.00000000000E+00  0.21565000466E+03  0.21565000466E+03  0.00000000000E+00 0.  1.
          1   -1    0    0  501    0  0.00000000000E+00 -0.00000000000E+00 -0.81495475558E+02  0.81495475558E+02  0.00000000000E+00 0. -1.
         25    2    1    2    0    0 -0.47631267376E+02  0.52043090646E+02  0.41837215704E+02  0.14958217718E+03  0.12508898511E+03 0.  0.
          5    1    3    3  502    0  0.15453963310E+02  0.25644139858E+02 -0.35256990867E+02  0.46443241661E+02  0.41800000000E+01 0. -1.
         -5    1    3    3    0  502 -0.63085230686E+02  0.26398950788E+02  0.77094206570E+02  0.10313893552E+03  0.41800000000E+01 0. -1.
        -11    1    1    2    0    0  0.27476792646E+02 -0.74774209309E+02  0.45464370032E+02  0.91723309220E+02  0.00000000000E+00 0. -1.
         11    1    1    2    0    0  0.20154474730E+02  0.22731118663E+02  0.46852943364E+02  0.55839993814E+02  0.00000000000E+00 0.  1.
</event>
<event>
 7    1  0.2420569E-009  0.1641054E+03  0.7561462E-02  0.1184138E+00
         -2   -1    0    0    0  501 -0.00000000000E+00  0.00000000000E+00  0.20634243586E+02  0.20634243586E+02  0.00000000000E+00 0. -1.
          2   -1    0    0  501    0  0.00000000000E+00 -0.00000000000E+00 -0.13799655384E+04  0.13799655384E+04  0.00000000000E+00 0.  1.
         25    2    1    2    0    0 -0.27695659311E+02 -0.12318303738E+03 -0.83290874682E+03  0.85166104368E+03  0.12509373502E+03 0.  0.
          5    1    3    3  502    0 -0.74586455055E+02 -0.58120965924E+02 -0.37480202698E+03  0.38656851629E+03  0.41800000000E+01 0.  1.
         -5    1    3    3    0  502  0.46890795745E+02 -0.65062071453E+02 -0.45810671985E+03  0.46509252739E+03  0.41800000000E+01 0.  1.
        -11    1    1    2    0    0 -0.29997884989E+02  0.23614755818E+02 -0.93770414262E+02  0.10124435978E+03  0.00000000000E+00 0. -1.
         11    1    1    2    0    0  0.57693544299E+02  0.99568281559E+02 -0.43265213372E+03  0.44769437852E+03  0.00000000000E+00 0.  1.
</event>
<event>
 7    1  0.2420569E-009  0.8880034E+02  0.7561462E-02  0.1305783E+00
          2   -1    0    0  501    0  0.00000000000E+00  0.00000000000E+00  0.71143357729E+02  0.71143357729E+02  0.00000000000E+00 0. -1.
         -2   -1    0    0    0  501 -0.00000000000E+00 -0.00000000000E+00 -0.17862724969E+03  0.17862724969E+03  0.00000000000E+00 0.  1.
         25    2    1    2    0    0 -0.15935167607E+02 -0.17634673142E+02 -0.37827548404E+02  0.13282857191E+03  0.12509034668E+03 0.  0.
          5    1    3    3  502    0 -0.80433951895E+01 -0.68874680468E+02 -0.16803893620E+01  0.69488948216E+02  0.41800000000E+01 0. -1.
         -5    1    3    3    0  502 -0.78917724177E+01  0.51240007326E+02 -0.36147159042E+02  0.63339623693E+02  0.41800000000E+01 0. -1.
        -11    1    1    2    0    0 -0.17302381161E+02 -0.21560897554E+01 -0.75794870632E+02  0.77774568665E+02  0.00000000000E+00 0.  1.
         11    1    1    2    0    0  0.33237548768E+02  0.19790762897E+02  0.61385270792E+01  0.39167466843E+02  0.00000000000E+00 0. -1.
</event>
<event>
 7    1  0.2420569E-009  0.1357523E+03  0.7561462E-02  0.1219162E+00
          1   -1    0    0  501    0  0.00000000000E+00  0.00000000000E+00  0.56478983666E+02  0.56478983666E+02  0.00000000000E+00 0. -1.
         -1   -1    0    0    0  501 -0.00000000000E+00 -0.00000000000E+00 -0.47305381932E+03  0.47305381932E+03  0.00000000000E+00 0.  1.
         25    2    1    2    0    0 -0.26604113046E+02  0.11593635149E+03 -0.26951101821E+03  0.32004947414E+03  0.12508581268E+03 0.  0.
          5    1    3    3  502    0 -0.46363715260E+02  0.28294299622E+02 -0.19737775954E+03  0.20475745125E+03  0.41800000000E+01 0.  1.
         -5    1    3    3    0  502  0.19759602215E+02  0.87642051865E+02 -0.72133258675E+02  0.11529202289E+03  0.41800000000E+01 0.  1.
        -11    1    1    2    0    0  0.32694422349E+02 -0.43597024568E+02 -0.12037885572E+03  0.13213892200E+03  0.00000000000E+00 0.  1.
         11    1    1    2    0    0 -0.60903093036E+01 -0.72339326919E+02 -0.26684961715E+02  0.77344406832E+02  0.00000000000E+00 0. -1.
</event>
<event>
 7    1  0.2420569E-009  0.2097856E+03  0.7561462E-02  0.1141736E+00
         -1   -1    0    0    0  501 -0.00000000000E+00  0.00000000000E+00  0.10103688477E+03  0.10103688477E+03  0.00000000000E+00 0.  1.
          1   -1    0    0  501    0  0.00000000000E+00 -0.00000000000E+00 -0.64274067650E+03  0.64274067650E+03  0.00000000000E+00 0. -1.
         25    2    1    2    0    0  0.13471357880E+03  0.15330098519E+03 -0.12202229337E+03  0.26867442129E+03  0.12509022424E+03 0.  0.
          5    1    3    3  502    0  0.52857245145E+02  0.10238937271E+03 -0.28507981485E+01  0.11533894164E+03  0.41800000000E+01 0. -1.
         -5    1    3    3    0  502  0.81856333656E+02  0.50911612482E+02 -0.11917149522E+03  0.15333547965E+03  0.41800000000E+01 0. -1.
        -11    1    1    2    0    0 -0.12062304522E+03 -0.11376781198E+03 -0.38974975598E+03  0.42355390019E+03  0.00000000000E+00 0. -1.
         11    1    1    2    0    0 -0.14090533584E+02 -0.39533173215E+02 -0.29931742378E+02  0.51549239790E+02  0.00000000000E+00 0.  1.
</event>
<event>
 7    1  0.2420569E-009  0.1004595E+03  0.7561462E-02  0.1279333E+00
          2   -1    0    0  501    0  0.00000000000E+00  0.00000000000E+00  0.60051405228E+03  0.60051405228E+03  0.00000000000E+00 0. -1.
         -2   -1    0    0    0  501 -0.00000000000E+00 -0.00000000000E+00 -0.23012603758E+02  0.23012603758E+02  0.00000000000E+00 0.  1.
         25    2    1    2    0    0 -0.93685952628E+01 -0.35522105055E+02  0.25554397698E+03  0.28687856742E+03  0.12508796005E+03 0.  0.
          5    1    3    3  502    0 -0.35764991159E+02 -0.57576229531E+02  0.67788854701E+02  0.95952894804E+02  0.41800000000E+01 0.  1.
         -5    1    3    3    0  502  0.26396395896E+02  0.22054124476E+02  0.18775512228E+03  0.19092567261E+03  0.41800000000E+01 0.  1.
        -11    1    1    2    0    0 -0.95416233566E+01 -0.29311171977E+02  0.10218145243E+03  0.10672973625E+03  0.00000000000E+00 0. -1.
         11    1    1    2    0    0  0.18910218619E+02  0.64833277032E+02  0.21977601912E+03  0.22991835237E+03  0.00000000000E+00 0.  1.
</event>
<event>
 7    1  0.2420569E-009  0.8422825E+02  0.7561462E-02  0.1317463E+00
         -2   -1    0    0    0  501 -0.00000000000E+00  0.00000000000E+00  0.10479859930E+03  0.10479859930E+03  0.00000000000E+00 0. -1.
          2   -1    0    0  501    0  0.00000000000E+00 -0.00000000000E+00 -0.14779927367E+03  0.14779927367E+03  0.00000000000E+00 0.  1.
         25    2    1    2    0    0 -0.40233480988E+02  0.29690583121E+02 -0.66384415038E+02  0.15018630162E+03  0.12509504753E+03 0.  0.
          5    1    3    3  502    0 -0.54982908907E+02  0.27397628032E+02 -0.97562492388E+02  0.11536751109E+03  0.41800000000E+01 0. -1.
         -5    1    3    3    0  502  0.14749427919E+02  0.22929550881E+01  0.31178077350E+02  0.34818790534E+02  0.41800000000E+01 0. -1.
        -11    1    1    2    0    0  0.31591172487E+01  0.25061263100E+02  0.25982660495E+02  0.36237350571E+02  0.00000000000E+00 0. -1.
         11    1    1    2    0    0  0.37074363739E+02 -0.54751846221E+02 -0.25989198215E+01  0.66174220777E+02  0.00000000000E+00 0.  1.
</event>
<event>
 7    1  0.2420569E-009  0.1328815E+03  0.7561462E-02  0.1223242E+00
         -1   -1    0    0    0  501 -0.00000000000E+00  0.00000000000E+00  0.38594311838E+02  0.38594311838E+02  0.00000000000E+00 0.  1.
          1   -1    0    0  501    0  0.00000000000E+00 -0.00000000000E+00 -0.67358888520E+03  0.67358888520E+03  0.00000000000E+00 0. -1.
         25    2    1    2    0    0 -0.56791706111E+02 -0.10200548365E+03 -0.37286523937E+03  0.41025157561E+03  0.12508977567E+03 0.  0.
          5    1    3    3  502    0 -0.28635122782E+02 -0.77720564309E+02 -0.36187133275E+03  0.37125300031E+03  0.41800000000E+01 0. -1.
         -5    1    3    3    0  502 -0.28156583329E+02 -0.24284919345E+02 -0.10993906622E+02  0.38998575297E+02  0.41800000000E+01 0. -1.
        -11    1    1    2    0    0  0.61156549114E+02  0.21554837787E+02 -0.81505664189E+02  0.10415329004E+03  0.00000000000E+00 0.  1.
         11    1    1    2    0    0 -0.43648430035E+01  0.80450645867E+02 -0.18062366980E+03  0.19777833139E+03  0.00000000000E+00 0. -1.
</event>
<event>
 7    1  0.3186107E-009  0.6903434E+02  0.7561462E-02  0.1363408E+00
          1   -1    0    0  501    0  0.00000000000E+00  0.00000000000E+00  0.36496453336E+03  0.36496453336E+03  0.00000000000E+00 0. -1.
         -1   -1    0    0    0  501 -0.00000000000E+00 -0.00000000000E+00 -0.36436600980E+02  0.36436600980E+02  0.00000000000E+00 0.  1.
         25    2    1    2    0    0 -0.10868003916E+02  0.13558653304E+02  0.24648863764E+03  0.27695796315E+03  0.12508842584E+03 0.  0.
          5    1    3    3  502    0 -0.36387089277E+01 -0.41588766173E+02  0.25630252869E+02  0.49165515725E+02  0.41800000000E+01 0.  1.
         -5    1    3    3    0  502 -0.72292949882E+01  0.55147419477E+02  0.22085838477E+03  0.22779244742E+03  0.41800000000E+01 0.  1.
        -11    1    1    2    0    0  0.20640759336E+02  0.32479956094E+01 -0.14842552485E+02  0.25629900228E+02  0.00000000000E+00 0.  1.
         11    1    1    2    0    0 -0.97727554199E+01 -0.16806648913E+02  0.96881847232E+02  0.98813270968E+02  0.00000000000E+00 0. -1.
</event>
<event>
 7    1  0.2420569E-009  0.1436172E+03  0.7561462E-02  0.1208543E+00
         -2   -1    0    0    0  501 -0.00000000000E+00  0.00000000000E+00  0.19274370094E+02  0.19274370094E+02  0.00000000000E+00 0.  1.
          2   -1    0    0  501    0  0.00000000000E+00 -0.00000000000E+00 -0.14071695919E+04  0.14071695919E+04  0.00000000000E+00 0. -1.
         25    2    1    2    0    0 -0.44145121174E+02  0.10645054774E+03 -0.94900196740E+03  0.96412255234E+03  0.12508817273E+03 0.  0.
          5    1    3    3  502    0 -0.42276757424E+01  0.12428252887E+03 -0.75735093450E+03  0.76750370071E+03  0.41800000000E+01 0.  1.
         -5    1    3    3    0  502 -0.39917445432E+02 -0.17831981132E+02 -0.19165103291E+03  0.19661885163E+03  0.41800000000E+01 0.  1.
        -11    1    1    2    0    0  0.47973041018E+02 -0.89851090335E+02 -0.43216474739E+03  0.44400563058E+03  0.00000000000E+00 0. -1.
         11    1    1    2    0    0 -0.38279198441E+01 -0.16599457403E+02 -0.67285070087E+01  0.18315779071E+02  0.00000000000E+00 0.  1.
</event>
<event>
 7    1  0.2420569E-009  0.1601229E+03  0.7561462E-02  0.1188558E+00
         -1   -1    0    0    0  501 -0.00000000000E+00  0.00000000000E+00  0.64779015303E+02  0.64779015303E+02  0.00000000000E+00 0.  1.
          1   -1    0    0  501    0  0.00000000000E+00 -0.00000000000E+00 -0.57008659997E+03  0.57008659997E+03  0.00000000000E+00 0. -1.
         25    2    1    2    0    0 -0.15138937279E+03 -0.65704715950E+01 -0.18989830466E+03  0.27325812989E+03  0.12508687440E+03 0.  0.
          5    1    3    3  502    0 -0.92727724443E+02  0.25096366804E+02 -0.18220769789E+03  0.20602275621E+03  0.41800000000E+01 0.  1.
         -5    1    3    3    0  502 -0.58661648346E+02 -0.31666838399E+02 -0.76906067690E+01  0.67235373675E+02  0.41800000000E+01 0.  1.
        -11    1    1    2    0    0  0.25954403831E+02 -0.15065077039E+02 -0.11533897417E+02  0.32149936455E+02  0.00000000000E+00 0.  1.
         11    1    1    2    0    0  0.12543496896E+03  0.21635548634E+02 -0.30387538259E+03  0.32945754893E+03  0.00000000000E+00 0. -1.
</event>
<event>
 7    1  0.2420569E-009  0.1540038E+03  0.7561462E-02  0.1195638E+00
         -1   -1    0    0    0  501 -0.00000000000E+00  0.00000000000E+00  0.64127153783E+02  0.64127153783E+02  0.00000000000E+00 0.  1.
          1   -1    0    0  501    0  0.00000000000E+00 -0.00000000000E+00 -0.50829715120E+03  0.50829715120E+03  0.00000000000E+00 0. -1.
         25    2    1    2    0    0  0.53189838947E+01 -0.14061734259E+03 -0.19038563957E+03  0.26775999144E+03  0.12508873905E+03 0.  0.
          5    1    3    3  502    0 -0.41348490355E+02 -0.68016342191E+02 -0.29225476383E+02  0.84897122033E+02  0.41800000000E+01 0.  1.
         -5    1    3    3    0  502  0.46667474250E+02 -0.72601000399E+02 -0.16116016318E+03  0.18286286941E+03  0.41800000000E+01 0.  1.
        -11    1    1    2    0    0 -0.12145120919E+02  0.88278260934E+02 -0.23021388362E+03  0.24685823367E+03  0.00000000000E+00 0. -1.
         11    1    1    2    0    0  0.68261370245E+01  0.52339081657E+02 -0.23570474232E+02  0.57806079878E+02  0.00000000000E+00 0.  1.
</event>
<event>
 7    1  0.2420569E-009  0.8385498E+02  0.7561462E-02  0.1318454E+00
          1   -1    0    0  501    0  0.00000000000E+00  0.00000000000E+00  0.23174356746E+03  0.23174356746E+03  0.00000000000E+00 0. -1.
         -1   -1    0    0    0  501 -0.00000000000E+00 -0.00000000000E+00 -0.70424435677E+02  0.70424435677E+02  0.00000000000E+00 0.  1.
         25    2    1    2    0    0  0.12597281382E+02 -0.53870469990E+02  0.44539866336E+02  0.14384418901E+03  0.12508649801E+03 0.  0.
          5    1    3    3  502    0  0.50764855496E+02 -0.81298917978E+01 -0.20536124994E+02  0.55519100532E+02  0.41800000000E+01 0.  1.
         -5    1    3    3    0  502 -0.38167574113E+02 -0.45740578193E+02  0.65075991330E+02  0.88325088478E+02  0.41800000000E+01 0.  1.
        -11    1    1    2    0    0  0.19061327690E+01  0.10669105129E+02 -0.15217187102E+02  0.18682235671E+02  0.00000000000E+00 0.  1.
         11    1    1    2    0    0 -0.14503414151E+02  0.43201364861E+02  0.13199645255E+03  0.13964157846E+03  0.00000000000E+00 0. -1.
</event>
<event>
 7    1  0.2420569E-009  0.1016923E+03  0.7561462E-02  0.1276777E+00
          2   -1    0    0  501    0  0.00000000000E+00  0.00000000000E+00  0.22430316431E+03  0.22430316431E+03  0.00000000000E+00 0.  1.
         -2   -1    0    0    0  501 -0.00000000000E+00 -0.00000000000E+00 -0.97611103684E+02  0.97611103684E+02  0.00000000000E+00 0. -1.
         25    2    1    2    0    0  0.23622762961E+02 -0.92766664683E+01 -0.37001088559E+02  0.13288609143E+03  0.12508213810E+03 0.  0.
          5    1    3    3  502    0  0.66540484617E+02  0.25984179512E+02 -0.25825354368E+02  0.76073878607E+02  0.41800000000E+01 0.  1.
         -5    1    3    3    0  502 -0.42917721656E+02 -0.35260845980E+02 -0.11175734190E+02  0.56812212825E+02  0.41800000000E+01 0.  1.
        -11    1    1    2    0    0 -0.30272531139E+01 -0.30863050687E+02  0.16605653116E+02  0.35177263602E+02  0.00000000000E+00 0.  1.
         11    1    1    2    0    0 -0.20595509847E+02  0.40139717155E+02  0.14708749607E+03  0.15385091296E+03  0.00000000000E+00 0. -1.
</event>
<event>
 7    1  0.2420569E-009  0.1061686E+03  0.7561462E-02  0.1267834E+00
          1   -1    0    0  501    0  0.00000000000E+00  0.00000000000E+00  0.66543063347E+03  0.66543063347E+03  0.00000000000E+00 0. -1.
         -1   -1    0    0    0  501 -0.00000000000E+00 -0.00000000000E+00 -0.24567404701E+02  0.24567404701E+02  0.00000000000E+00 0.  1.
         25    2    1    2    0    0 -0.20513071405E+02  0.43428935888E+02  0.48169147940E+03  0.49998116636E+03  0.12509047453E+03 0.  0.
          5    1    3    3  502    0 -0.68913845523E+02  0.20146279191E+02  0.18596148758E+03  0.19938439742E+03  0.41800000000E+01 0. -1.
         -5    1    3    3    0  502  0.48400774118E+02  0.23282656698E+02  0.29572999182E+03  0.30059676894E+03  0.41800000000E+01 0. -1.
        -11    1    1    2    0    0 -0.27173174745E+02 -0.15589639321E+02  0.11533498119E+03  0.11951391620E+03  0.00000000000E+00 0. -1.
         11    1    1    2    0    0  0.47686246150E+02 -0.27839296567E+02  0.43836768180E+02  0.70502955610E+02  0.00000000000E+00 0.  1.
</event>
<event>
 7    1  0.2420569E-009  0.1395084E+03  0.7561462E-02  0.1213992E+00
         -1   -1    0    0    0  501 -0.00000000000E+00  0.00000000000E+00  0.37798949683E+02  0.37798949683E+02  0.00000000000E+00 0.  1.
          1   -1    0    0  501    0  0.00000000000E+00 -0.00000000000E+00 -0.63047633897E+03  0.63047633897E+03  0.00000000000E+00 0. -1.
         25    2    1    2    0    0 -0.30483724159E+02  0.10113787571E+03 -0.37897676483E+03  0.41282963962E+03  0.12508715255E+03 0.  0.
          5    1    3    3  502    0  0.30525856411E+02  0.72775205782E+02 -0.10943992585E+03  0.13499121548E+03  0.41800000000E+01 0. -1.
         -5    1    3    3    0  502 -0.61009580570E+02  0.28362669924E+02 -0.26953683897E+03  0.27783842414E+03  0.41800000000E+01 0. -1.
        -11    1    1    2    0    0  0.57258244422E+02 -0.80433951131E+02 -0.11755361848E+03  0.15351540726E+03  0.00000000000E+00 0.  1.
         11    1    1    2    0    0 -0.26774520263E+02 -0.20703924575E+02 -0.96147005979E+02  0.10193024177E+03  0.00000000000E+00 0. -1.
</event>
<event>
 7    1  0.2420569E-009  0.1074169E+03  0.7561462E-02  0.1265429E+00
         -1   -1    0    0    0  501 -0.00000000000E+00  0.00000000000E+00  0.45236240287E+02  0.45236240287E+02  0.00000000000E+00 0.  1.
          1   -1    0    0  501    0  0.00000000000E+00 -0.00000000000E+00 -0.34484981823E+03  0.34484981823E+03  0.00000000000E+00 0. -1.
         25    2    1    2    0    0 -0.56113241746E+02  0.24299565238E+02 -0.17699653296E+03  0.22519721209E+03  0.12508735700E+03 0.  0.
          5    1    3    3  502    0  0.30194320933E+02  0.39540250614E+02 -0.80934975118E+02  0.95095063134E+02  0.41800000000E+01 0. -1.
         -5    1    3    3    0  502 -0.86307562679E+02 -0.15240685377E+02 -0.96061557847E+02  0.13010214895E+03  0.41800000000E+01 0. -1.
        -11    1    1    2    0    0  0.34127150089E+01 -0.24225661534E+02 -0.10723353050E+03  0.10998890565E+03  0.00000000000E+00 0. -1.
         11    1    1    2    0    0  0.52700526737E+02 -0.73903703857E-01 -0.15383514469E+02  0.54899940779E+02  0.00000000000E+00 0.  1.
</event>
<event>
 7    1  0.2420569E-009  0.1345931E+03  0.7561462E-02  0.1220795E+00
          1   -1    0    0  501    0  0.00000000000E+00  0.00000000000E+00  0.88656548786E+02  0.88656548786E+02  0.00000000000E+00 0. -1.
         -1   -1    0    0    0  501 -0.00000000000E+00 -0.00000000000E+00 -0.23281473609E+03  0.23281473609E+03  0.00000000000E+00 0.  1.
         25    2    1    2    0    0  0.29474301650E+02 -0.75572292852E+02 -0.29689424584E+02  0.15201081262E+03  0.12508364927E+03 0.  0.
          5    1    3    3  502    0 -0.43040601400E+02  0.11085646286E+01 -0.12260614033E+02  0.44961287135E+02  0.41800000000E+01 0.  1.
         -5    1    3    3    0  502  0.72514903050E+02 -0.76680857481E+02 -0.17428810550E+02  0.10704952548E+03  0.41800000000E+01 0.  1.
        -11    1    1    2    0    0  0.30316278799E+02  0.41806048293E+02 -0.27046737994E+02  0.58295355478E+02  0.00000000000E+00 0.  1.
         11    1    1    2    0    0 -0.59790580449E+02  0.33766244559E+02 -0.87422024722E+02  0.11116511678E+03  0.00000000000E+00 0. -1.
</event>
<event>
 7    1  0.2760283E-009  0.1979377E+03  0.7561462E-02  0.1151491E+00
          2   -1    0    0  501    0  0.00000000000E+00  0.00000000000E+00  0.84816458210E+03  0.84816458210E+03  0.00000000000E+00 0. -1.
         -2   -1    0    0    0  501 -0.00000000000E+00 -0.00000000000E+00 -0.49689653910E+02  0.49689653910E+02  0.00000000000E+00 0.  1.
         25    2    1    2    0    0  0.51402700356E+02 -0.15682650774E+03  0.53519833370E+03  0.57386575162E+03  0.12509137998E+03 0.  0.
          5    1    3    3  502    0 -0.39226592227E+02 -0.23865008030E+02  0.11632826779E+03  0.12513194010E+03  0.41800000000E+01 0.  1.
         -5    1    3    3    0  502  0.90629292583E+02 -0.13296149971E+03  0.41887006591E+03  0.44873381152E+03  0.41800000000E+01 0.  1.
        -11    1    1    2    0    0  0.19163831585E+02  0.88599501806E+02  0.12414234931E+03  0.15371547435E+03  0.00000000000E+00 0. -1.
         11    1    1    2    0    0 -0.70566531941E+02  0.68227005937E+02  0.13913424517E+03  0.17027301004E+03  0.00000000000E+00 0.  1.
</event>
<event>
 7    1  0.2420569E-009  0.1334870E+03  0.7561462E-02  0.1222371E+00
          2   -1    0    0  501    0  0.00000000000E+00  0.00000000000E+00  0.16133947037E+03  0.16133947037E+03  0.00000000000E+00 0. -1.
         -2   -1    0    0    0  501 -0.00000000000E+00 -0.00000000000E+00 -0.14265508395E+03  0.14265508395E+03  0.00000000000E+00 0.  1.
         25    2    1    2    0    0  0.98151287851E+02 -0.25499247046E+02 -0.17505319827E+02  0.16198079197E+03  0.12508978310E+03 0.  0.
          5    1    3    3  502    0  0.15455761646E+02 -0.59823235434E+02 -0.34291601831E+02  0.70789027554E+02  0.41800000000E+01 0.  1.
         -5    1    3    3    0  502  0.82695526205E+02  0.34323988389E+02  0.16786282003E+02  0.91191764412E+02  0.41800000000E+01 0.  1.
        -11    1    1    2    0    0 -0.90510379702E+02  0.18182782231E+01 -0.84345841915E+01  0.90920719201E+02  0.00000000000E+00 0.  1.
         11    1    1    2    0    0 -0.76409081485E+01  0.23680968823E+02  0.44624290435E+02  0.51093043152E+02  0.00000000000E+00 0. -1.
</event>
<event>
 7    1  0.2420569E-009  0.1969043E+03  0.7561462E-02  0.1152377E+00
          2   -1    0    0  501    0  0.00000000000E+00  0.00000000000E+00  0.93216343451E+03  0.93216343451E+03  0.00000000000E+00 0. -1.
         -2   -1    0    0    0  501 -0.00000000000E+00 -0.00000000000E+00 -0.48260179065E+02  0.48260179065E+02  0.00000000000E+00 0.  1.
         25    2    1    2    0    0 -0.52769385943E+02  0.16948897999E+03  0.54234713013E+03  0.58420851192E+03  0.12509217967E+03 0.  0.
          5    1    3    3  502    0 -0.61571873868E+02  0.17738834898E+02  0.18603453048E+03  0.19680467689E+03  0.41800000000E+01 0.  1.
         -5    1    3    3    0  502  0.88024879250E+01  0.15175014509E+03  0.35631259965E+03  0.38740383503E+03  0.41800000000E+01 0.  1.
        -11    1    1    2    0    0  0.78088293886E+01 -0.22071446641E+02  0.22177016974E+01  0.23516904007E+02  0.00000000000E+00 0.  1.
         11    1    1    2    0    0  0.44960556554E+02 -0.14741753335E+03  0.33933842362E+03  0.37269819765E+03  0.00000000000E+00 0. -1.
</event>
<event>
 7    1  0.2420569E-009  0.1209935E+03  0.7561462E-02  0.1241467E+00
         -1   -1    0    0    0  501 -0.00000000000E+00  0.00000000000E+00  0.19146687570E+03  0.19146687570E+03  0.00000000000E+00 0.  1.
          1   -1    0    0  501    0  0.00000000000E+00 -0.00000000000E+00 -0.10352083712E+03  0.10352083712E+03  0.00000000000E+00 0. -1.
         25    2    1    2    0    0 -0.81550322904E+02 -0.10546558511E+02  0.11722132365E+02  0.15015473844E+03  0.12508937616E+03 0.  0.
          5    1    3    3  502    0  0.21776615479E+02 -0.46945378146E+01  0.37135183111E+02  0.43505791473E+02  0.41800000000E+01 0. -1.
         -5    1    3    3    0  502 -0.10332693838E+03 -0.58520206960E+01 -0.25413050745E+02  0.10664894697E+03  0.41800000000E+01 0. -1.
        -11    1    1    2    0    0 -0.73561981436E+01  0.24651788199E+02 -0.16863503412E+01  0.25781157654E+02  0.00000000000E+00 0. -1.
         11    1    1    2    0    0  0.88906521048E+02 -0.14105229688E+02  0.77910256549E+02  0.11905181672E+03  0.00000000000E+00 0.  1.
</event>
<event>
 7    1  0.2420569E-009  0.1137930E+03  0.7561462E-02  0.1253703E+00
         -3   -1    0    0    0  501 -0.00000000000E+00  0.00000000000E+00  0.13990973894E+03  0.13990973894E+03  0.00000000000E+00 0.  1.
          3   -1    0    0  501    0  0.00000000000E+00 -0.00000000000E+00 -0.11681073949E+03  0.11681073949E+03  0.00000000000E+00 0. -1.
         25    2    1    2    0    0  0.15556506190E+01  0.36456966000E+02  0.68783026606E+02  0.14734052850E+03  0.12508635485E+03 0.  0.
          5    1    3    3  502    0 -0.33674681147E+02 -0.35132686267E+02  0.37322936383E+02  0.61471650172E+02  0.41800000000E+01 0. -1.
         -5    1    3    3    0  502  0.35230331766E+02  0.71589652266E+02  0.31460090224E+02  0.85868878325E+02  0.41800000000E+01 0. -1.
        -11    1    1    2    0    0 -0.43666261872E+02 -0.36218924851E+02 -0.31811743300E+02  0.65042601078E+02  0.00000000000E+00 0.  1.
         11    1    1    2    0    0  0.42110611253E+02 -0.23804114895E+00 -0.13872283856E+02  0.44337348850E+02  0.00000000000E+00 0. -1.
</event>
<event>
 7    1  0.2420569E-009  0.1860726E+03  0.7561462E-02  0.1162052E+00
         -1   -1    0    0    0  501 -0.00000000000E+00  0.00000000000E+00  0.30746776770E+03  0.30746776770E+03  0.00000000000E+00 0.  1.
          1   -1    0    0  501    0  0.00000000000E+00 -0.00000000000E+00 -0.14022120244E+03  0.14022120244E+03  0.00000000000E+00 0. -1.
         25    2    1    2    0    0 -0.41179160811E+02 -0.15638753239E+03  0.16851497051E+03  0.26494810623E+03  0.12508964841E+03 0.  0.
          5    1    3    3  502    0 -0.36261369145E+02 -0.17804574153E+03  0.15244776384E+03  0.23721923630E+03  0.41800000000E+01 0. -1.
         -5    1    3    3    0  502 -0.49177916663E+01  0.21658209137E+02  0.16067206667E+02  0.27728869937E+02  0.41800000000E+01 0. -1.
        -11    1    1    2    0    0  0.50373509179E+02  0.11760178113E+03  0.30788753029E+02  0.13158881664E+03  0.00000000000E+00 0.  1.
         11    1    1    2    0    0 -0.91943483678E+01  0.38785751263E+02 -0.32057158269E+02  0.51152047263E+02  0.00000000000E+00 0. -1.
</event>
<event>
 7    1  0.2420569E-009  0.9237575E+02  0.7561462E-02  0.1297198E+00
          2   -1    0    0  501    0  0.00000000000E+00  0.00000000000E+00  0.56111007907E+02  0.56111007907E+02  0.00000000000E+00 0. -1.
         -2   -1    0    0    0  501 -0.00000000000E+00 -0.00000000000E+00 -0.26724025397E+03  0.26724025397E+03  0.00000000000E+00 0.  1.
         25    2    1    2    0    0 -0.50946876907E+02 -0.23588420096E+02 -0.10009468737E+03  0.16975833097E+03  0.12508775586E+03 0.  0.
          5    1    3    3  502    0 -0.49359716448E+02 -0.48983255362E+02 -0.34690614287E+01  0.69751327592E+02  0.41800000000E+01 0.  1.
         -5    1    3    3    0  502 -0.15871604590E+01  0.25394835266E+02 -0.96625625941E+02  0.10000700338E+03  0.41800000000E+01 0.  1.
        -11    1    1    2    0    0 -0.17590403748E+02  0.50415454761E+01  0.36968817940E+01  0.18668326647E+02  0.00000000000E+00 0. -1.
         11    1    1    2    0    0  0.68537280655E+02  0.18546874620E+02 -0.11473144048E+03  0.13492460425E+03  0.00000000000E+00 0.  1.
</event>
<event>
 7    1  0.2420569E-009  0.1278918E+03  0.7561462E-02  0.1230618E+00
          1   -1    0    0  501    0  0.00000000000E+00  0.00000000000E+00  0.23174153020E+03  0.23174153020E+03  0.00000000000E+00 0. -1.
         -1   -1    0    0    0  501 -0.00000000000E+00 -0.00000000000E+00 -0.10473955707E+03  0.10473955707E+03  0.00000000000E+00 0.  1.
         25    2    1    2    0    0 -0.67498956175E+02 -0.85928748503E+02  0.42631380140E+02  0.17147911741E+03  0.12509114369E+03 0.  0.
          5    1    3    3  502    0 -0.67383089499E+02 -0.39975217332E+02 -0.31182291447E+02  0.84429298535E+02  0.41800000000E+01 0.  1.
         -5    1    3    3    0  502 -0.11586667544E+00 -0.45953531171E+02  0.73813671587E+02  0.87049818870E+02  0.41800000000E+01 0.  1.
        -11    1    1    2    0    0 -0.17772036259E+01  0.55478795667E+02  0.56274818144E+01  0.55791789477E+02  0.00000000000E+00 0.  1.
         11    1    1    2    0    0  0.69276159801E+02  0.30449952836E+02  0.78743111174E+02  0.10921018039E+03  0.00000000000E+00 0. -1.
</event>
<event>
 7    1  0.2420569E-009  0.2574512E+03  0.7561462E-02  0.1108684E+00
          2   -1    0    0  501    0  0.00000000000E+00  0.00000000000E+00  0.66930674854E+03  0.66930674854E+03  0.00000000000E+00 0. -1.
         -2   -1    0    0    0  501 -0.00000000000E+00 -0.00000000000E+00 -0.10824074330E+03  0.10824074330E+03  0.00000000000E+00 0.  1.
         25    2    1    2    0    0 -0.22566192065E+03  0.87546876218E+02  0.33953356928E+03  0.43533707373E+03  0.12509022796E+03 0.  0.
          5    1    3    3  502    0 -0.19234032832E+03  0.10174753323E+03  0.21636689019E+03  0.30688673152E+03  0.41800000000E+01 0. -1.
         -5    1    3    3    0  502 -0.33321592332E+02 -0.14200657013E+02  0.12316667909E+03  0.12845034221E+03  0.41800000000E+01 0. -1.
        -11    1    1    2    0    0  0.11792090502E+03  0.60664713512E+01  0.10252492854E+03  0.15637615831E+03  0.00000000000E+00 0.  1.
         11    1    1    2    0    0  0.10774101563E+03 -0.93613347569E+02  0.11900750742E+03  0.18583425980E+03  0.00000000000E+00 0. -1.
</event>
<event>
 7    1  0.2420569E-009  0.9720552E+02  0.7561462E-02  0.1286285E+00
         -2   -1    0    0    0  501 -0.00000000000E+00  0.00000000000E+00  0.38305508863E+03  0.38305508863E+03  0.00000000000E+00 0.  1.
          2   -1    0    0  501    0  0.00000000000E+00 -0.00000000000E+00 -0.84522818332E+02  0.84522818332E+02  0.00000000000E+00 0. -1.
         25    2    1    2    0    0 -0.78620917898E+02  0.34672299948E+02  0.30800209771E+03  0.34336047220E+03  0.12509078528E+03 0.  0.
          5    1    3    3  502    0 -0.88268796618E+02  0.29511399139E+02  0.31582213607E+03  0.32927708266E+03  0.41800000000E+01 0. -1.
         -5    1    3    3    0  502  0.96478787200E+01  0.51609008092E+01 -0.78200383582E+01  0.14083389538E+02  0.41800000000E+01 0. -1.
        -11    1    1    2    0    0  0.24139220770E+02  0.14197010106E+01  0.36877939195E+02  0.44098752019E+02  0.00000000000E+00 0.  1.
         11    1    1    2    0    0  0.54481697128E+02 -0.36092000959E+02 -0.46347766606E+02  0.80118682744E+02  0.00000000000E+00 0. -1.
</event>
<event>
 7    1  0.2420569E-009  0.1711773E+03  0.7561462E-02  0.1176626E+00
          1   -1    0    0  501    0  0.00000000000E+00  0.00000000000E+00  0.62875163752E+03  0.62875163752E+03  0.00000000000E+00 0. -1.
         -1   -1    0    0    0  501 -0.00000000000E+00 -0.00000000000E+00 -0.13100162705E+03  0.13100162705E+03  0.00000000000E+00 0.  1.
         25    2    1    2    0    0  0.69021746194E+01 -0.13316554546E+03 -0.49499602721E+02  0.18942570449E+03  0.12510469351E+03 0.  0.
          5    1    3    3  502    0  0.44159302734E+02 -0.95998971420E+00 -0.34683431988E+01  0.44502442661E+02  0.41800000000E+01 0. -1.
         -5    1    3    3    0  502 -0.37257128115E+02 -0.13220555575E+03 -0.46031259523E+02  0.14492326183E+03  0.41800000000E+01 0. -1.
        -11    1    1    2    0    0 -0.31730499533E+02  0.76745607130E+01  0.11560530356E+03  0.12012622400E+03  0.00000000000E+00 0. -1.
         11    1    1    2    0    0  0.24828324914E+02  0.12549098475E+03  0.43164430963E+03  0.45020133608E+03  0.00000000000E+00 0.  1.
</event>
<event>
 7    1  0.2420569E-009  0.9355982E+02  0.7561462E-02  0.1294453E+00
          3   -1    0    0  501    0  0.00000000000E+00  0.00000000000E+00  0.17878564667E+03  0.17878564667E+03  0.00000000000E+00 0. -1.
         -3   -1    0    0    0  501 -0.00000000000E+00 -0.00000000000E+00 -0.10793664954E+03  0.10793664954E+03  0.00000000000E+00 0.  1.
         25    2    1    2    0    0  0.77996676147E+02 -0.44363579671E+01  0.97969798785E+00  0.14748482382E+03  0.12509056994E+03 0.  0.
          5    1    3    3  502    0  0.79543776759E+01  0.23088197079E+02 -0.50472416481E+02  0.56225209595E+02  0.41800000000E+01 0. -1.
         -5    1    3    3    0  502  0.70042298471E+02 -0.27524555046E+02  0.51452114468E+02  0.91259614227E+02  0.41800000000E+01 0. -1.
        -11    1    1    2    0    0 -0.56193321918E+02  0.20579311388E+02 -0.45615315107E+01  0.60016706467E+02  0.00000000000E+00 0.  1.
         11    1    1    2    0    0 -0.21803354229E+02 -0.16142953421E+02  0.74430830656E+02  0.79220765920E+02  0.00000000000E+00 0. -1.
</event>
<event>
 7    1  0.2420569E-009  0.9732138E+02  0.7561462E-02  0.1286032E+00
          2   -1    0    0  501    0  0.00000000000E+00  0.00000000000E+00  0.13330996831E+03  0.13330996831E+03  0.00000000000E+00 0. -1.
         -2   -1    0    0    0  501 -0.00000000000E+00 -0.00000000000E+00 -0.17835027193E+03  0.17835027193E+03  0.00000000000E+00 0.  1.
         25    2    1    2    0    0  0.75424652358E+02 -0.13617375124E+02 -0.40624786295E+02  0.15222389824E+03  0.12508969120E+03 0.  0.
          5    1    3    3  502    0  0.23745040896E+02 -0.46073737869E+02 -0.67670169172E+02  0.85342489324E+02  0.41800000000E+01 0. -1.
         -5    1    3    3    0  502  0.51679611463E+02  0.32456362744E+02  0.27045382877E+02  0.66881408915E+02  0.41800000000E+01 0. -1.
        -11    1    1    2    0    0 -0.10864208934E+02  0.12956826474E+02 -0.67250410386E+02  0.69343551143E+02  0.00000000000E+00 0.  1.
         11    1    1    2    0    0 -0.64560443425E+02  0.66054865027E+00  0.62834893057E+02  0.90092790861E+02  0.00000000000E+00 0. -1.
</event>
<event>
 7    1  0.2420569E-009  0.1571021E+03  0.7561462E-02  0.1192008E+00
          2   -1    0    0  501    0  0.00000000000E+00  0.00000000000E+00  0.41091095968E+02  0.41091095968E+02  0.00000000000E+00 0. -1.
         -2   -1    0    0    0  501 -0.00000000000E+00 -0.00000000000E+00 -0.81513851224E+03  0.81513851224E+03  0.00000000000E+00 0.  1.
         25    2    1    2    0    0  0.12961633031E+03  0.66296598019E+02 -0.43023445904E+03  0.47111151119E+03  0.12509490093E+03 0.  0.
          5    1    3    3  502    0  0.23898954688E+02  0.15787802349E+02 -0.42110419160E+01  0.29250983098E+02  0.41800000000E+01 0.  1.
         -5    1    3    3    0  502  0.10571737562E+03  0.50508795669E+02 -0.42602341712E+03  0.44186052809E+03  0.41800000000E+01 0.  1.
        -11    1    1    2    0    0 -0.27868087210E+02 -0.59906359185E+02 -0.18453949528E+03  0.19601078408E+03  0.00000000000E+00 0.  1.
         11    1    1    2    0    0 -0.10174824310E+03 -0.63902388337E+01 -0.15927346195E+03  0.18910731294E+03  0.00000000000E+00 0. -1.
</event>
<event>
 7    1  0.2420569E-009  0.1069650E+03  0.7561462E-02  0.1266296E+00
         -2   -1    0    0    0  501 -0.00000000000E+00  0.00000000000E+00  0.51771079004E+02  0.51771079004E+02  0.00000000000E+00 0.  1.
          2   -1    0    0  501    0  0.00000000000E+00 -0.00000000000E+00 -0.32543258467E+03  0.32543258467E+03  0.00000000000E+00 0. -1.
         25    2    1    2    0    0  0.50313056871E+02 -0.86250426575E+01 -0.22918687792E+03  0.26604561378E+03  0.12509136080E+03 0.  0.
          5    1    3    3  502    0 -0.33055027966E+02 -0.33261110839E+02 -0.65562740459E+02  0.80714817132E+02  0.41800000000E+01 0.  1.
         -5    1    3    3    0  502  0.83368084836E+02  0.24636068182E+02 -0.16362413746E+03  0.18533079664E+03  0.41800000000E+01 0.  1.
        -11    1    1    2    0    0 -0.34225819719E+02 -0.25106836120E+02 -0.57597982164E+02  0.71549196395E+02  0.00000000000E+00 0. -1.
         11    1    1    2    0    0 -0.16087237152E+02  0.33731878777E+02  0.13123354414E+02  0.39608853507E+02  0.00000000000E+00 0.  1.
</event>
<event>
 7    1  0.2420569E-009  0.9015585E+02  0.7561462E-02  0.1302475E+00
          4   -1    0    0  501    0  0.00000000000E+00  0.00000000000E+00  0.36230184013E+02  0.36230184013E+02  0.00000000000E+00 0. -1.
         -4   -1    0    0    0  501 -0.00000000000E+00 -0.00000000000E+00 -0.65693932689E+03  0.65693932689E+03  0.00000000000E+00 0.  1.
         25    2    1    2    0    0 -0.51190187910E+02 -0.22613358378E+02 -0.54189747842E+03  0.55895621055E+03  0.12508944354E+03 0.  0.
          5    1    3    3  502    0  0.10056577770E+02 -0.69440604349E+01  0.44663996123E+00  0.12923877863E+02  0.41800000000E+01 0.  1.
         -5    1    3    3    0  502 -0.61246765680E+02 -0.15669297943E+02 -0.54234411838E+03  0.54603233269E+03  0.41800000000E+01 0.  1.
        -11    1    1    2    0    0  0.67900527341E+02 -0.87884473902E+01 -0.69243991841E+02  0.97377866206E+02  0.00000000000E+00 0.  1.
         11    1    1    2    0    0 -0.16710339431E+02  0.31401805768E+02 -0.95676726237E+01  0.36835434147E+02  0.00000000000E+00 0. -1.
</event>
<event>
 7    1  0.2420569E-009  0.1171721E+03  0.7561462E-02  0.1247836E+00
          1   -1    0    0  501    0  0.00000000000E+00  0.00000000000E+00  0.42136343724E+02  0.42136343724E+02  0.00000000000E+00 0. -1.
         -1   -1    0    0    0  501 -0.00000000000E+00 -0.00000000000E+00 -0.45900188101E+03  0.45900188101E+03  0.00000000000E+00 0.  1.
         25    2    1    2    0    0  0.43430671474E+02 -0.27436541960E+02 -0.10349500466E+03  0.17028739137E+03  0.12509033779E+03 0.  0.
          5    1    3    3  502    0  0.40870979033E+02  0.43313128410E+02 -0.25634303690E+02  0.64969638643E+02  0.41800000000E+01 0.  1.
         -5    1    3    3    0  502  0.25596924407E+01 -0.70749670370E+02 -0.77860700971E+02  0.10531775272E+03  0.41800000000E+01 0.  1.
        -11    1    1    2    0    0  0.17798490321E+02  0.37655611430E+02 -0.92930043234E+02  0.10183675302E+03  0.00000000000E+00 0.  1.
         11    1    1    2    0    0 -0.61229161795E+02 -0.10219069469E+02 -0.22044048939E+03  0.22901408035E+03  0.00000000000E+00 0. -1.
</event>
<event>
 7    1  0.2420569E-009  0.1759004E+03  0.7561462E-02  0.1171831E+00
          1   -1    0    0  501    0  0.00000000000E+00  0.00000000000E+00  0.11230511323E+03  0.11230511323E+03  0.00000000000E+00 0. -1.
         -1   -1    0    0    0  501 -0.00000000000E+00 -0.00000000000E+00 -0.36747449908E+03  0.36747449908E+03  0.00000000000E+00 0.  1.
         25    2    1    2    0    0 -0.13561277496E+03 -0.90799942157E+02 -0.72223138953E+02  0.21794299933E+03  0.12509002729E+03 0.  0.
          5    1    3    3  502    0 -0.11679212467E+03 -0.45846349709E+02 -0.10106085670E+03  0.16116158762E+03  0.41800000000E+01 0.  1.
         -5    1    3    3    0  502 -0.18820650291E+02 -0.44953592448E+02  0.28837717745E+02  0.56781411713E+02  0.41800000000E+01 0.  1.
        -11    1    1    2    0    0  0.41345761215E+02  0.69245087989E+02 -0.42063159921E+02  0.90959681197E+02  0.00000000000E+00 0.  1.
         11    1    1    2    0    0  0.94267013748E+02  0.21554854169E+02 -0.14088308698E+03  0.17087693178E+03  0.00000000000E+00 0. -1.
</event>
<event>
 7    1  0.2420569E-009  0.1250860E+03  0.7561462E-02  0.1234935E+00
         -2   -1    0    0    0  501 -0.00000000000E+00  0.00000000000E+00  0.27515647853E+02  0.27515647853E+02  0.00000000000E+00 0.  1.
          2   -1    0    0  501    0  0.00000000000E+00 -0.00000000000E+00 -0.69141535001E+03  0.69141535001E+03  0.00000000000E+00 0. -1.
         25    2    1    2    0    0  0.83168261728E+02  0.13406920857E+02 -0.37946294981E+03  0.40833545221E+03  0.12509598703E+03 0.  0.
          5    1    3    3  502    0  0.28378177900E+02  0.62463323111E+02 -0.25111246977E+03  0.26034963528E+03  0.41800000000E+01 0.  1.
         -5    1    3    3    0  502  0.54790083828E+02 -0.49056402254E+02 -0.12835048004E+03  0.14798581694E+03  0.41800000000E+01 0.  1.
        -11    1    1    2    0    0 -0.36294559395E+02  0.27521075701E+02 -0.48268587923E+02  0.66366868463E+02  0.00000000000E+00 0.  1.
         11    1    1    2    0    0 -0.46873702333E+02 -0.40927996557E+02 -0.23616816443E+03  0.24422867719E+03  0.00000000000E+00 0. -1.
</event>
<event>
 7    1  0.2420569E-009  0.1154982E+03  0.7561462E-02  0.1250714E+00
         -1   -1    0    0    0  501 -0.00000000000E+00  0.00000000000E+00  0.78234481590E+02  0.78234481590E+02  0.00000000000E+00 0.  1.
          1   -1    0    0  501    0  0.00000000000E+00 -0.00000000000E+00 -0.45292450606E+03  0.45292450606E+03  0.00000000000E+00 0. -1.
         25    2    1    2    0    0 -0.31512314548E+02 -0.66844151040E+02 -0.38772470760E+03  0.41405248472E+03  0.12509134554E+03 0.  0.
          5    1    3    3  502    0 -0.69458395329E+02 -0.57733930138E+02 -0.16738174961E+03  0.19024141997E+03  0.41800000000E+01 0. -1.
         -5    1    3    3    0  502  0.37946080781E+02 -0.91102209024E+01 -0.22034295798E+03  0.22381106475E+03  0.41800000000E+01 0. -1.
        -11    1    1    2    0    0 -0.22321775074E+02  0.19229251108E+02 -0.22366894428E+02  0.36990589439E+02  0.00000000000E+00 0. -1.
         11    1    1    2    0    0  0.53834089622E+02  0.47614899932E+02  0.35401577551E+02  0.80115913488E+02  0.00000000000E+00 0.  1.
</event>
<event>
 7    1  0.2420569E-009  0.1301247E+03  0.7561462E-02  0.1227271E+00
         -2   -1    0    0    0  501 -0.00000000000E+00  0.00000000000E+00  0.11425181303E+03  0.11425181303E+03  0.00000000000E+00 0.  1.
          2   -1    0    0  501    0  0.00000000000E+00 -0.00000000000E+00 -0.24366598705E+03  0.24366598705E+03  0.00000000000E+00 0. -1.
         25    2    1    2    0    0  0.11528754637E+03 -0.45711271187E+01 -0.12506985882E+03  0.21119346708E+03  0.12509235550E+03 0.  0.
          5    1    3    3  502    0  0.68407140958E+02 -0.35870407647E+02 -0.38580991516E+01  0.77450502954E+02  0.41800000000E+01 0. -1.
         -5    1    3    3    0  502  0.46880405412E+02  0.31299280528E+02 -0.12121175966E+03  0.13374296413E+03  0.41800000000E+01 0. -1.
        -11    1    1    2    0    0 -0.64063247062E+02  0.28157277915E+02  0.34724190936E+02  0.78119788530E+02  0.00000000000E+00 0.  1.
         11    1    1    2    0    0 -0.51224299308E+02 -0.23586150797E+02 -0.39068506147E+02  0.68604544467E+02  0.00000000000E+00 0. -1.
</event>
<event>
 7    1  0.2527305E-009  0.2042745E+03  0.7561462E-02  0.1146182E+00
          2   -1    0    0  501    0  0.00000000000E+00  0.00000000000E+00  0.13225409809E+04  0.13225409809E+04  0.00000000000E+00 0. -1.
         -2   -1    0    0    0  501 -0.00000000000E+00 -0.00000000000E+00 -0.41799294386E+02  0.41799294386E+02  0.00000000000E+00 0.  1.
         25    2    1    2    0    0 -0.10786505811E+03  0.14061357877E+03  0.34494359538E+03  0.40747976389E+03  0.12508646886E+03 0.  0.
          5    1    3    3  502    0 -0.37452070039E+02  0.13581951183E+03  0.18474709301E+03  0.23237589832E+03  0.41800000000E+01 0.  1.
         -5    1    3    3    0  502 -0.70412988069E+02  0.47940669421E+01  0.16019650237E+03  0.17510386557E+03  0.41800000000E+01 0.  1.
        -11    1    1    2    0    0  0.37400730645E+02 -0.11660547317E+03  0.65582611167E+03  0.66716080504E+03  0.00000000000E+00 0. -1.
         11    1    1    2    0    0  0.70464327463E+02 -0.24008105598E+02  0.27997197941E+03  0.28969970631E+03  0.00000000000E+00 0.  1.
</event>
<event>
 7    1  0.2420569E-009  0.1827937E+03  0.7561462E-02  0.1165126E+00
          1   -1    0    0  501    0  0.00000000000E+00  0.00000000000E+00  0.11441619085E+04  0.11441619085E+04  0.00000000000E+00 0. -1.
         -1   -1    0    0    0  501 -0.00000000000E+00 -0.00000000000E+00 -0.76468119553E+02  0.76468119553E+02  0.00000000000E+00 0.  1.
         25    2    1    2    0    0 -0.13521834413E+03 -0.10461494039E+03  0.10091217756E+03  0.23464614845E+03  0.12508901254E+03 0.  0.
          5    1    3    3  502    0 -0.13804062445E+03 -0.90738063575E+02  0.37379731304E+02  0.16942056218E+03  0.41800000000E+01 0.  1.
         -5    1    3    3    0  502  0.28222803103E+01 -0.13876876817E+02  0.63532446257E+02  0.65225586266E+02  0.41800000000E+01 0.  1.
        -11    1    1    2    0    0  0.34304111179E+01  0.37549683622E+02  0.10404530849E+03  0.11066694483E+03  0.00000000000E+00 0.  1.
         11    1    1    2    0    0  0.13178793302E+03  0.67065256770E+02  0.86273630292E+03  0.87531693479E+03  0.00000000000E+00 0. -1.
</event>
<event>
 7    1  0.2420569E-009  0.9209971E+02  0.7561462E-02  0.1297845E+00
         -1   -1    0    0    0  501 -0.00000000000E+00  0.00000000000E+00  0.27937289520E+02  0.27937289520E+02  0.00000000000E+00 0.  1.
          1   -1    0    0  501    0  0.00000000000E+00 -0.00000000000E+00 -0.52682185765E+03  0.52682185765E+03  0.00000000000E+00 0. -1.
         25    2    1    2    0    0 -0.40018851943E+02  0.35603344154E+02 -0.28405964751E+03  0.31497072456E+03  0.12509023686E+03 0.  0.
          5    1    3    3  502    0 -0.58299407061E+02  0.77850894994E+01 -0.27352275779E+03  0.27980636145E+03  0.41800000000E+01 0.  1.
         -5    1    3    3    0  502  0.18280555119E+02  0.27818254655E+02 -0.10536889726E+02  0.35164363105E+02  0.41800000000E+01 0.  1.
        -11    1    1    2    0    0  0.37127623022E+02  0.15692920976E+02 -0.37087374318E+02  0.54774095098E+02  0.00000000000E+00 0.  1.
         11    1    1    2    0    0  0.28912289206E+01 -0.51296265130E+02 -0.17773754630E+03  0.18501432752E+03  0.00000000000E+00 0. -1.
</event>
<event>
 7    1  0.2420569E-009  0.9650370E+02  0.7561462E-02  0.1287825E+00
         -2   -1    0    0    0  501 -0.00000000000E+00  0.00000000000E+00  0.23839722452E+02  0.23839722452E+02  0.00000000000E+00 0.  1.
          2   -1    0    0  501    0  0.00000000000E+00 -0.00000000000E+00 -0.81242631424E+03  0.81242631424E+03  0.00000000000E+00 0. -1.
         25    2    1    2    0    0  0.39127582233E+02  0.43546676958E+02 -0.62584565623E+03  0.64090701557E+03  0.12510689995E+03 0.  0.
          5    1    3    3  502    0  0.59872841351E+02  0.74018038880E+02 -0.52215534658E+03  0.53077971474E+03  0.41800000000E+01 0.  1.
         -5    1    3    3    0  502 -0.20745259118E+02 -0.30471361922E+02 -0.10369030965E+03  0.11012730083E+03  0.41800000000E+01 0.  1.
        -11    1    1    2    0    0 -0.19297374213E+02 -0.10225734989E+02  0.56525047554E+01  0.22558925453E+02  0.00000000000E+00 0.  1.
         11    1    1    2    0    0 -0.19830208021E+02 -0.33320941969E+02 -0.16839344030E+03  0.17280009566E+03  0.00000000000E+00 0. -1.
</event>
<event>
 7    1  0.2420569E-009  0.1328229E+03  0.7561462E-02  0.1223326E+00
          2   -1    0    0  501    0  0.00000000000E+00  0.00000000000E+00  0.70403387476E+03  0.70403387476E+03  0.00000000000E+00 0. -1.
         -2   -1    0    0    0  501 -0.00000000000E+00 -0.00000000000E+00 -0.29407317516E+02  0.29407317516E+02  0.00000000000E+00 0.  1.
         25    2    1    2    0    0 -0.41353540043E+02 -0.82221405898E+02  0.39758910036E+03  0.42684395403E+03  0.12509273964E+03 0.  0.
          5    1    3    3  502    0 -0.83198534742E+02 -0.72284495444E+02  0.31287098109E+03  0.33174201976E+03  0.41800000000E+01 0. -1.
         -5    1    3    3    0  502  0.41844994699E+02 -0.99369104538E+01  0.84718119260E+02  0.95101934269E+02  0.41800000000E+01 0. -1.
        -11    1    1    2    0    0 -0.63285615575E+01  0.58579322079E+02  0.22338706948E+03  0.23102677438E+03  0.00000000000E+00 0. -1.
         11    1    1    2    0    0  0.47682101600E+02  0.23642083818E+02  0.53650387402E+02  0.75570463865E+02  0.00000000000E+00 0.  1.
</event>
<event>
 7    1  0.2420569E-009  0.8363065E+02  0.7561462E-02  0.1319053E+00
          1   -1    0    0  501    0  0.00000000000E+00  0.00000000000E+00  0.86805966128E+02  0.86805966128E+02  0.00000000000E+00 0. -1.
         -1   -1    0    0    0  501 -0.00000000000E+00 -0.00000000000E+00 -0.13928662559E+03  0.13928662559E+03  0.00000000000E+00 0.  1.
         25    2    1    2    0    0  0.17945755874E+02 -0.86519370496E+01 -0.27567192422E+02  0.12963132962E+03  0.12508966925E+03 0.  0.
          5    1    3    3  502    0  0.15159415718E+02 -0.61806314376E+02  0.97156214770E+01  0.64511193465E+02  0.41800000000E+01 0.  1.
         -5    1    3    3    0  502  0.27863401561E+01  0.53154377326E+02 -0.37282813899E+02  0.65120136153E+02  0.41800000000E+01 0.  1.
        -11    1    1    2    0    0  0.14916931065E+02 -0.30222404976E+01 -0.50798747818E+02  0.53029817555E+02  0.00000000000E+00 0.  1.
         11    1    1    2    0    0 -0.32862686938E+02  0.11674177547E+02  0.25885280778E+02  0.43431444544E+02  0.00000000000E+00 0. -1.
</event>
<event>
 7    1  0.2420569E-009  0.7703322E+02  0.7561462E-02  0.1337688E+00
          2   -1    0    0  501    0  0.00000000000E+00  0.00000000000E+00  0.23944067629E+03  0.23944067629E+03  0.00000000000E+00 0. -1.
         -2   -1    0    0    0  501 -0.00000000000E+00 -0.00000000000E+00 -0.57683384941E+02  0.57683384941E+02  0.00000000000E+00 0.  1.
         25    2    1    2    0    0  0.28757726279E+02  0.22961621388E+02  0.13997906480E+03  0.19129236516E+03  0.12507752600E+03 0.  0.
          5    1    3    3  502    0  0.33287236922E+02  0.55259378949E+02  0.14430969993E+03  0.15812779957E+03  0.41800000000E+01 0.  1.
         -5    1    3    3    0  502 -0.45295106437E+01 -0.32297757561E+02 -0.43306351274E+01  0.33164565590E+02  0.41800000000E+01 0.  1.
        -11    1    1    2    0    0 -0.38806666513E+02 -0.98810850758E+01 -0.17938173150E+02  0.43879052680E+02  0.00000000000E+00 0.  1.
         11    1    1    2    0    0  0.10048940235E+02 -0.13080536312E+02  0.59716399699E+02  0.61952643391E+02  0.00000000000E+00 0. -1.
</event>
<event>
 7    1  0.2420569E-009  0.9188906E+02  0.7561462E-02  0.1298340E+00
         -1   -1    0    0    0  501 -0.00000000000E+00  0.00000000000E+00  0.98125107936E+02  0.98125107936E+02  0.00000000000E+00 0.  1.
          1   -1    0    0  501    0  0.00000000000E+00 -0.00000000000E+00 -0.17136325508E+03  0.17136325508E+03  0.00000000000E+00 0. -1.
         25    2    1    2    0    0  0.33009571539E+02 -0.48723177740E+02 -0.81612532010E+02  0.16053286405E+03  0.12508643091E+03 0.  0.
          5    1    3    3  502    0 -0.11693082347E+02 -0.15869845025E+02  0.29816640266E+02  0.35987283764E+02  0.41800000000E+01 0.  1.
         -5    1    3    3    0  502  0.44702653886E+02 -0.32853332715E+02 -0.11142917228E+03  0.12454558029E+03  0.41800000000E+01 0.  1.
        -11    1    1    2    0    0 -0.15312516018E+02  0.74870410562E+02  0.11282944159E+02  0.77248665706E+02  0.00000000000E+00 0.  1.
         11    1    1    2    0    0 -0.17697055521E+02 -0.26147232821E+02 -0.29085592963E+01  0.31706833262E+02  0.00000000000E+00 0. -1.
</event>
<event>
 7    1  0.2420569E-009  0.1100882E+03  0.7561462E-02  0.1260407E+00
          1   -1    0    0  501    0  0.00000000000E+00  0.00000000000E+00  0.19101032059E+03  0.19101032059E+03  0.00000000000E+00 0. -1.
         -1   -1    0    0    0  501 -0.00000000000E+00 -0.00000000000E+00 -0.16713498599E+03  0.16713498599E+03  0.00000000000E+00 0.  1.
         25    2    1    2    0    0  0.44309624490E+02  0.72336639936E+02  0.13366650037E+03  0.20176802342E+03  0.12509064575E+03 0.  0.
          5    1    3    3  502    0 -0.10362902271E+02  0.53033511413E+02  0.13301595414E+03  0.14363376877E+03  0.41800000000E+01 0.  1.
         -5    1    3    3    0  502  0.54672526761E+02  0.19303128524E+02  0.65054623150E+00  0.58134254649E+02  0.41800000000E+01 0.  1.
        -11    1    1    2    0    0  0.16827539677E+02 -0.65997116296E+01 -0.35557553512E+02  0.39888117240E+02  0.00000000000E+00 0.  1.
         11    1    1    2    0    0 -0.61137164167E+02 -0.65736928307E+02 -0.74233612262E+02  0.11648916591E+03  0.00000000000E+00 0. -1.
</event>
<event>
 7    1  0.2420569E-009  0.1171109E+03  0.7561462E-02  0.1247941E+00
         -1   -1    0    0    0  501 -0.00000000000E+00  0.00000000000E+00  0.35923309812E+02  0.35923309812E+02  0.00000000000E+00 0.  1.
          1   -1    0    0  501    0  0.00000000000E+00 -0.00000000000E+00 -0.57522537249E+03  0.57522537249E+03  0.00000000000E+00 0. -1.
         25    2    1    2    0    0  0.76853946576E+02  0.29398174329E+02 -0.37914584300E+03  0.40764360339E+03  0.12510377834E+03 0.  0.
          5    1    3    3  502    0  0.38306105129E+02  0.73521380517E+02 -0.28348899707E+03  0.29539166363E+03  0.41800000000E+01 0.  1.
         -5    1    3    3    0  502  0.38547841447E+02 -0.44123206188E+02 -0.95656845938E+02  0.11225193976E+03  0.41800000000E+01 0.  1.
        -11    1    1    2    0    0 -0.22082819519E+02  0.10754941174E+02  0.48793428950E+01  0.25042517139E+02  0.00000000000E+00 0.  1.
         11    1    1    2    0    0 -0.54771127058E+02 -0.40153115503E+02 -0.16503556257E+03  0.17846256178E+03  0.00000000000E+00 0. -1.
</event>
<event>
 7    1  0.2420569E-009  0.1280492E+03  0.7561462E-02  0.1230379E+00
          1   -1    0    0  501    0  0.00000000000E+00  0.00000000000E+00  0.22205246910E+03  0.22205246910E+03  0.00000000000E+00 0. -1.
         -1   -1    0    0    0  501 -0.00000000000E+00 -0.00000000000E+00 -0.21354069196E+03  0.21354069196E+03  0.00000000000E+00 0.  1.
         25    2    1    2    0    0 -0.51294591228E+02 -0.97145327382E+02  0.15743841028E+03  0.22913395273E+03  0.12508863074E+03 0.  0.
          5    1    3    3  502    0 -0.34337021701E+01 -0.36729257650E+02 -0.15128923119E+02  0.40089716797E+02  0.41800000000E+01 0.  1.
         -5    1    3    3    0  502 -0.47860889058E+02 -0.60416069732E+02  0.17256733340E+03  0.18904423593E+03  0.41800000000E+01 0.  1.
        -11    1    1    2    0    0 -0.11809868523E+02  0.73423840133E+02 -0.91422343332E+02  0.11784981186E+03  0.00000000000E+00 0.  1.
         11    1    1    2    0    0  0.63104459751E+02  0.23721487249E+02 -0.57504289808E+02  0.88609396477E+02  0.00000000000E+00 0. -1.
</event>
<event>
 7    1  0.2420569E-009  0.9931064E+02  0.7561462E-02  0.1281752E+00
         -1   -1    0    0    0  501 -0.00000000000E+00  0.00000000000E+00  0.12463880481E+03  0.12463880481E+03  0.00000000000E+00 0.  1.
          1   -1    0    0  501    0  0.00000000000E+00 -0.00000000000E+00 -0.16958077904E+03  0.16958077904E+03  0.00000000000E+00 0. -1.
         25    2    1    2    0    0  0.51916397007E+02 -0.20848154880E+02 -0.10312758803E+03  0.17150115235E+03  0.12508951996E+03 0.  0.
          5    1    3    3  502    0  0.62960599621E+02  0.29261895204E+02 -0.17718152991E+02  0.71775350650E+02  0.41800000000E+01 0.  1.
         -5    1    3    3    0  502 -0.11044202614E+02 -0.50110050085E+02 -0.85409435041E+02  0.99725801701E+02  0.41800000000E+01 0.  1.
        -11    1    1    2    0    0 -0.62368390254E+02  0.11211574501E+02  0.76626320760E+02  0.99433940578E+02  0.00000000000E+00 0.  1.
         11    1    1    2    0    0  0.10451993247E+02  0.96365803793E+01 -0.18440706957E+02  0.23284490918E+02  0.00000000000E+00 0. -1.
</event>
<event>
 7    1  0.2420569E-009  0.7627931E+02  0.7561462E-02  0.1339955E+00
          1   -1    0    0  501    0  0.00000000000E+00  0.00000000000E+00  0.98325984320E+02  0.98325984320E+02  0.00000000000E+00 0. -1.
         -1   -1    0    0    0  501 -0.00000000000E+00 -0.00000000000E+00 -0.12839108079E+03  0.12839108079E+03  0.00000000000E+00 0.  1.
         25    2    1    2    0    0  0.67624319480E+01 -0.32002672644E+02 -0.17495317550E+02  0.13047057846E+03  0.12508630687E+03 0.  0.
          5    1    3    3  502    0 -0.38018103445E+02  0.22432611168E+02 -0.36405386921E+02  0.57370923212E+02  0.41800000000E+01 0.  1.
         -5    1    3    3    0  502  0.44780535393E+02 -0.54435283812E+02  0.18910069371E+02  0.73099655248E+02  0.41800000000E+01 0.  1.
        -11    1    1    2    0    0 -0.10929180778E+02  0.87962242529E+01 -0.50043363205E+02  0.51972673151E+02  0.00000000000E+00 0.  1.
         11    1    1    2    0    0  0.41667488298E+01  0.23206448391E+02  0.37473584284E+02  0.44273813500E+02  0.00000000000E+00 0. -1.
</event>
<event>
 7    1  0.2420569E-009  0.1743455E+03  0.7561462E-02  0.1173391E+00
          1   -1    0    0  501    0  0.00000000000E+00  0.00000000000E+00  0.20733143920E+03  0.20733143920E+03  0.00000000000E+00 0. -1.
         -1   -1    0    0    0  501 -0.00000000000E+00 -0.00000000000E+00 -0.31202454967E+03  0.31202454967E+03  0.00000000000E+00 0.  1.
         25    2    1    2    0    0 -0.11093722584E+03  0.90288325102E+02 -0.23697121944E+03  0.30374644705E+03  0.12508994974E+03 0.  0.
          5    1    3    3  502    0 -0.84981032163E+02  0.12180306522E+03 -0.17729218375E+03  0.23131742983E+03  0.41800000000E+01 0. -1.
         -5    1    3    3    0  502 -0.25956193680E+02 -0.31514740115E+02 -0.59679035693E+02  0.72429017225E+02  0.41800000000E+01 0. -1.
        -11    1    1    2    0    0  0.83254088230E+02 -0.23092215971E+02  0.10943442652E+03  0.13942878954E+03  0.00000000000E+00 0. -1.
         11    1    1    2    0    0  0.27683137614E+02 -0.67196109131E+02  0.22843682450E+02  0.76180752283E+02  0.00000000000E+00 0.  1.
</event>
<event>
 7    1  0.2420569E-009  0.1629539E+03  0.7561462E-02  0.1185402E+00
         -1   -1    0    0    0  501 -0.00000000000E+00  0.00000000000E+00  0.14541192955E+03  0.14541192955E+03  0.00000000000E+00 0.  1.
          1   -1    0    0  501    0  0.00000000000E+00 -0.00000000000E+00 -0.25373059213E+03  0.25373059213E+03  0.00000000000E+00 0. -1.
         25    2    1    2    0    0 -0.15068629489E+03  0.18850547726E+02 -0.10543910457E+02  0.19702957730E+03  0.12509107748E+03 0.  0.
          5    1    3    3  502    0 -0.37623192104E+02  0.47680742212E+01  0.53920167808E+02  0.66053735794E+02  0.41800000000E+01 0.  1.
         -5    1    3    3    0  502 -0.11306310278E+03  0.14082473505E+02 -0.64464078265E+02  0.13097584150E+03  0.41800000000E+01 0.  1.
        -11    1    1    2    0    0  0.37484403022E+02  0.32335506025E+02 -0.45805615803E+02  0.67444939462E+02  0.00000000000E+00 0. -1.
         11    1    1    2    0    0  0.11320189186E+03 -0.51186053751E+02 -0.51969136321E+02  0.13466800492E+03  0.00000000000E+00 0.  1.
</event>
<event>
 7    1  0.2420569E-009  0.1251650E+03  0.7561462E-02  0.1234812E+00
          2   -1    0    0  501    0  0.00000000000E+00  0.00000000000E+00  0.75986723408E+03  0.75986723408E+03  0.00000000000E+00 0.  1.
         -2   -1    0    0    0  501 -0.00000000000E+00 -0.00000000000E+00 -0.24194904010E+02  0.24194904010E+02  0.00000000000E+00 0. -1.
         25    2    1    2    0    0 -0.78504608287E+02  0.15213891884E+02  0.44776577334E+03  0.47173774602E+03  0.12509147537E+03 0.  0.
          5    1    3    3  502    0 -0.10869795756E+03  0.18393464573E+02  0.40041123467E+03  0.41533142762E+03  0.41800000000E+01 0.  1.
         -5    1    3    3    0  502  0.30193349268E+02 -0.31795726890E+01  0.47354538668E+02  0.56406318396E+02  0.41800000000E+01 0.  1.
        -11    1    1    2    0    0  0.96053508836E+01  0.26931790359E+02  0.27467707248E+02  0.39649199727E+02  0.00000000000E+00 0. -1.
         11    1    1    2    0    0  0.68899257404E+02 -0.42145682244E+02  0.26043884948E+03  0.27267519235E+03  0.00000000000E+00 0.  1.
</event>
<event>
 7    1  0.2420569E-009  0.1299857E+03  0.7561462E-02  0.1227477E+00
          2   -1    0    0  501    0  0.00000000000E+00  0.00000000000E+00  0.17611459178E+03  0.17611459178E+03  0.00000000000E+00 0. -1.
         -2   -1    0    0    0  501 -0.00000000000E+00 -0.00000000000E+00 -0.10833035072E+03  0.10833035072E+03  0.00000000000E+00 0.  1.
         25    2    1    2    0    0 -0.97250773892E+01  0.86205006415E+02  0.35547954491E+02  0.15631377944E+03  0.12507781702E+03 0.  0.
          5    1    3    3  502    0 -0.23166389888E+02 -0.19068112774E+02  0.39800958875E+02  0.50018629256E+02  0.41800000000E+01 0.  1.
         -5    1    3    3    0  502  0.13441312499E+02  0.10527311919E+03 -0.42530043845E+01  0.10629515018E+03  0.41800000000E+01 0.  1.
        -11    1    1    2    0    0  0.48734483782E+02 -0.55215216407E+02  0.25077451795E+02  0.77798770048E+02  0.00000000000E+00 0.  1.
         11    1    1    2    0    0 -0.39009406393E+02 -0.30989790007E+02  0.71588347767E+01  0.50332393021E+02  0.00000000000E+00 0. -1.
</event>
<event>
 7    1  0.2420569E-009  0.1212344E+03  0.7561462E-02  0.1241074E+00
         -2   -1    0    0    0  501 -0.00000000000E+00  0.00000000000E+00  0.11854547270E+03  0.11854547270E+03  0.00000000000E+00 0.  1.
          2   -1    0    0  501    0  0.00000000000E+00 -0.00000000000E+00 -0.16193130614E+03  0.16193130614E+03  0.00000000000E+00 0. -1.
         25    2    1    2    0    0  0.55891040675E+02  0.14116493954E+02  0.40113822868E+02  0.14345346760E+03  0.12508674891E+03 0.  0.
          5    1    3    3  502    0  0.48287096375E+02  0.65770561205E+02  0.40247502366E+02  0.91075486517E+02  0.41800000000E+01 0.  1.
         -5    1    3    3    0  502  0.76039442999E+01 -0.51654067251E+02 -0.13367949875E+00  0.52377981087E+02  0.41800000000E+01 0.  1.
        -11    1    1    2    0    0 -0.40947229656E+02  0.36967701358E+02 -0.47151413064E+02  0.72570946763E+02  0.00000000000E+00 0.  1.
         11    1    1    2    0    0 -0.14943811019E+02 -0.51084195312E+02 -0.36348243250E+02  0.64452364470E+02  0.00000000000E+00 0. -1.
</event>
<event>
 7    1  0.2420569E-009  0.1871484E+03  0.7561462E-02  0.1161059E+00
          2   -1    0    0  501    0  0.00000000000E+00  0.00000000000E+00  0.79568893187E+03  0.79568893187E+03  0.00000000000E+00 0. -1.
         -2   -1    0    0    0  501 -0.00000000000E+00 -0.00000000000E+00 -0.56085626825E+02  0.56085626825E+02  0.00000000000E+00 0.  1.
         25    2    1    2    0    0  0.26418609338E+02  0.17747731699E+03  0.33323572882E+03  0.39861070248E+03  0.12509316609E+03 0.  0.
          5    1    3    3  502    0  0.52581184910E+02  0.11449508179E+03  0.29383901186E+03  0.31973855265E+03  0.41800000000E+01 0. -1.
         -5    1    3    3    0  502 -0.26162575572E+02  0.62982235204E+02  0.39396716966E+02  0.78872149835E+02  0.41800000000E+01 0. -1.
        -11    1    1    2    0    0 -0.19581466458E+02 -0.87183547434E+02  0.10196167187E+03  0.13557502462E+03  0.00000000000E+00 0.  1.
         11    1    1    2    0    0 -0.68371428801E+01 -0.90293769560E+02  0.30440590435E+03  0.31758883159E+03  0.00000000000E+00 0. -1.
</event>
<event>
 7    1  0.2420569E-009  0.9993344E+02  0.7561462E-02  0.1280436E+00
         -1   -1    0    0    0  501 -0.00000000000E+00  0.00000000000E+00  0.64573939837E+02  0.64573939837E+02  0.00000000000E+00 0.  1.
          1   -1    0    0  501    0  0.00000000000E+00 -0.00000000000E+00 -0.35365814397E+03  0.35365814397E+03  0.00000000000E+00 0. -1.
         25    2    1    2    0    0 -0.64861909356E+02 -0.19445787715E+01 -0.40830985502E+02  0.14671424188E+03  0.12508817179E+03 0.  0.
          5    1    3    3  502    0 -0.71908949941E+02  0.18211524528E+02  0.24200945108E+02  0.78139073781E+02  0.41800000000E+01 0.  1.
         -5    1    3    3    0  502  0.70470405845E+01 -0.20156103299E+02 -0.65031930610E+02  0.68575168101E+02  0.41800000000E+01 0.  1.
        -11    1    1    2    0    0 -0.10484318848E+02  0.23255961647E+02 -0.10714691738E+03  0.11014182947E+03  0.00000000000E+00 0. -1.
         11    1    1    2    0    0  0.75346228204E+02 -0.21311382876E+02 -0.14110630125E+03  0.16137601246E+03  0.00000000000E+00 0.  1.
</event>
<event>
 7    1  0.2420569E-009  0.8826268E+02  0.7561462E-02  0.1307114E+00
         -3   -1    0    0    0  501 -0.00000000000E+00  0.00000000000E+00  0.91110456484E+02  0.91110456484E+02  0.00000000000E+00 0.  1.
          3   -1    0    0  501    0  0.00000000000E+00 -0.00000000000E+00 -0.14790487174E+03  0.14790487174E+03  0.00000000000E+00 0. -1.
         25    2    1    2    0    0 -0.31941001244E+02 -0.15470886334E+02 -0.95160214809E+01  0.13037485940E+03  0.12508986136E+03 0.  0.
          5    1    3    3  502    0 -0.28794768479E+01  0.41061570070E+02 -0.41924831162E+02  0.58902527887E+02  0.41800000000E+01 0. -1.
         -5    1    3    3    0  502 -0.29061524396E+02 -0.56532456404E+02  0.32408809682E+02  0.71472331516E+02  0.41800000000E+01 0. -1.
        -11    1    1    2    0    0  0.75589902206E+00 -0.22387630834E+02 -0.54629704916E+02  0.59043899404E+02  0.00000000000E+00 0. -1.
         11    1    1    2    0    0  0.31185102222E+02  0.37858517169E+02  0.73513111368E+01  0.49596569420E+02  0.00000000000E+00 0.  1.
</event>
<event>
 7    1  0.2420569E-009  0.1221725E+03  0.7561462E-02  0.1239556E+00
          1   -1    0    0  501    0  0.00000000000E+00  0.00000000000E+00  0.89451185165E+03  0.89451185165E+03  0.00000000000E+00 0. -1.
         -1   -1    0    0    0  501 -0.00000000000E+00 -0.00000000000E+00 -0.18466508343E+02  0.18466508343E+02  0.00000000000E+00 0.  1.
         25    2    1    2    0    0  0.68057441990E+02  0.85604015534E+01  0.47686504827E+03  0.49774808177E+03  0.12509109787E+03 0.  0.
          5    1    3    3  502    0  0.19625398411E+02  0.63909565461E+02  0.18581992066E+03  0.19752494560E+03  0.41800000000E+01 0. -1.
         -5    1    3    3    0  502  0.48432043579E+02 -0.55349163908E+02  0.29104512761E+03  0.30022313618E+03  0.41800000000E+01 0. -1.
        -11    1    1    2    0    0 -0.28991484795E+01  0.28557676413E+02  0.46345621224E+02  0.54514792035E+02  0.00000000000E+00 0.  1.
         11    1    1    2    0    0 -0.65158293510E+02 -0.37118077967E+02  0.35283467382E+03  0.36071548619E+03  0.00000000000E+00 0. -1.
</event>
<event>
 7    1  0.2420569E-009  0.1167777E+03  0.7561462E-02  0.1248510E+00
          2   -1    0    0  501    0  0.00000000000E+00  0.00000000000E+00  0.23915656681E+02  0.23915656681E+02  0.00000000000E+00 0. -1.
         -2   -1    0    0    0  501 -0.00000000000E+00 -0.00000000000E+00 -0.57602922187E+03  0.57602922187E+03  0.00000000000E+00 0.  1.
         25    2    1    2    0    0  0.14531915106E+02 -0.42142392104E+02 -0.29055687239E+03  0.31945719628E+03  0.12506976611E+03 0.  0.
          5    1    3    3  502    0 -0.16148887144E+02  0.40871279661E+02 -0.99935408679E+02  0.10925111608E+03  0.41800000000E+01 0. -1.
         -5    1    3    3    0  502  0.30680802250E+02 -0.83013671764E+02 -0.19062146371E+03  0.21020608020E+03  0.41800000000E+01 0. -1.
        -11    1    1    2    0    0  0.33254497429E+02 -0.50655560110E+01 -0.74716227729E+02  0.81939222250E+02  0.00000000000E+00 0. -1.
         11    1    1    2    0    0 -0.47786412534E+02  0.47207948114E+02 -0.18684046508E+03  0.19854846003E+03  0.00000000000E+00 0.  1.
</event>
<event>
 7    1  0.2420569E-009  0.1238126E+03  0.7561462E-02  0.1236937E+00
          1   -1    0    0  501    0  0.00000000000E+00  0.00000000000E+00  0.42611831521E+03  0.42611831521E+03  0.00000000000E+00 0. -1.
         -1   -1    0    0    0  501 -0.00000000000E+00 -0.00000000000E+00 -0.44653244115E+02  0.44653244115E+02  0.00000000000E+00 0.  1.
         25    2    1    2    0    0  0.75756172110E+02 -0.33527787847E+02  0.19284061638E+03  0.24433215990E+03  0.12509033082E+03 0.  0.
          5    1    3    3  502    0  0.58477353757E+02 -0.64199619551E+02  0.57043319216E+02  0.10398367526E+03  0.41800000000E+01 0.  1.
         -5    1    3    3    0  502  0.17278818353E+02  0.30671831705E+02  0.13579729717E+03  0.14034848465E+03  0.41800000000E+01 0.  1.
        -11    1    1    2    0    0 -0.61339014155E+02 -0.24044576459E+02  0.10238141040E+03  0.12174797539E+03  0.00000000000E+00 0.  1.
         11    1    1    2    0    0 -0.14417157955E+02  0.57572364306E+02  0.86243044312E+02  0.10469142404E+03  0.00000000000E+00 0. -1.
</event>
<event>
 7    1  0.2420569E-009  0.1052913E+03  0.7561462E-02  0.1269547E+00
          2   -1    0    0  501    0  0.00000000000E+00  0.00000000000E+00  0.17485324980E+03  0.17485324980E+03  0.00000000000E+00 0. -1.
         -2   -1    0    0    0  501 -0.00000000000E+00 -0.00000000000E+00 -0.82964091473E+02  0.82964091473E+02  0.00000000000E+00 0.  1.
         25    2    1    2    0    0  0.45055603277E+01 -0.16716881314E+02  0.10425415918E+03  0.16375705068E+03  0.12509071807E+03 0.  0.
          5    1    3    3  502    0  0.36878939676E+02 -0.55963651544E+02  0.29761273011E+02  0.73451972451E+02  0.41800000000E+01 0. -1.
         -5    1    3    3    0  502 -0.32373379349E+02  0.39246770229E+02  0.74492886172E+02  0.90305078230E+02  0.41800000000E+01 0. -1.
        -11    1    1    2    0    0 -0.47681523139E+02  0.86601531733E+01 -0.11122439545E+00  0.48461719664E+02  0.00000000000E+00 0.  1.
         11    1    1    2    0    0  0.43175962812E+02  0.80567281411E+01 -0.12253776461E+02  0.45598570927E+02  0.00000000000E+00 0. -1.
</event>
<event>
 7    1  0.2420569E-009  0.2018313E+03  0.7561462E-02  0.1148203E+00
          1   -1    0    0  501    0  0.00000000000E+00  0.00000000000E+00  0.32164764854E+03  0.32164764854E+03  0.00000000000E+00 0.  1.
         -1   -1    0    0    0  501 -0.00000000000E+00 -0.00000000000E+00 -0.17487588804E+03  0.17487588804E+03  0.00000000000E+00 0. -1.
         25    2    1    2    0    0 -0.15574161304E+03 -0.11369154374E+03 -0.16799868941E+02  0.23045794474E+03  0.12508961407E+03 0.  0.
          5    1    3    3  502    0 -0.44081898658E+02  0.67331741549E+01 -0.45325062434E+02  0.63721135489E+02  0.41800000000E+01 0.  1.
         -5    1    3    3    0  502 -0.11165971438E+03 -0.12042471790E+03  0.28525193492E+02  0.16673680925E+03  0.41800000000E+01 0.  1.
        -11    1    1    2    0    0  0.10131317082E+03  0.88897801315E+02  0.15538550393E+03  0.20569840177E+03  0.00000000000E+00 0.  1.
         11    1    1    2    0    0  0.54428442217E+02  0.24793742427E+02  0.81861255034E+01  0.60367190066E+02  0.00000000000E+00 0. -1.
</event>
<event>
 7    1  0.2429014E-009  0.1019211E+03  0.7561462E-02  0.1276307E+00
         -2   -1    0    0    0  501 -0.00000000000E+00  0.00000000000E+00  0.30231626134E+02  0.30231626134E+02  0.00000000000E+00 0. -1.
          2   -1    0    0  501    0  0.00000000000E+00 -0.00000000000E+00 -0.83305566455E+03  0.83305566455E+03  0.00000000000E+00 0.  1.
         25    2    1    2    0    0 -0.64599631919E+02  0.15204497445E+02 -0.68646283899E+03  0.70091578842E+03  0.12508966368E+03 0.  0.
          5    1    3    3  502    0 -0.10487919197E+02 -0.50609940478E+02 -0.18004669035E+03  0.18736500642E+03  0.41800000000E+01 0.  1.
         -5    1    3    3    0  502 -0.54111712722E+02  0.65814437923E+02 -0.50641614864E+03  0.51355078200E+03  0.41800000000E+01 0.  1.
        -11    1    1    2    0    0  0.45201510991E+02 -0.75452145968E+01 -0.17310532674E+01  0.45859605369E+02  0.00000000000E+00 0. -1.
         11    1    1    2    0    0  0.19398120928E+02 -0.76592828481E+01 -0.11463014616E+03  0.11651189689E+03  0.00000000000E+00 0.  1.
</event>
<event>
 7    1  0.2420569E-009  0.1182711E+03  0.7561462E-02  0.1245977E+00
          1   -1    0    0  501    0  0.00000000000E+00  0.00000000000E+00  0.32484766143E+03  0.32484766143E+03  0.00000000000E+00 0. -1.
         -1   -1    0    0    0  501 -0.00000000000E+00 -0.00000000000E+00 -0.43680601641E+02  0.43680601641E+02  0.00000000000E+00 0.  1.
         25    2    1    2    0    0  0.40088755691E+02 -0.36836478279E+02  0.16706584231E+03  0.21569138101E+03  0.12509093376E+03 0.  0.
          5    1    3    3  502    0 -0.20161791785E+02  0.35654325991E+02  0.62567929868E+02  0.74899579824E+02  0.41800000000E+01 0. -1.
         -5    1    3    3    0  502  0.60250547476E+02 -0.72490804270E+02  0.10449791244E+03  0.14079180118E+03  0.41800000000E+01 0. -1.
        -11    1    1    2    0    0  0.22066807098E+02 -0.89544974129E+01  0.19843267456E+02  0.30998100954E+02  0.00000000000E+00 0.  1.
         11    1    1    2    0    0 -0.62155562789E+02  0.45790975692E+02  0.94257950020E+02  0.12183878111E+03  0.00000000000E+00 0. -1.
</event>
<event>
 7    1  0.2420569E-009  0.7964533E+02  0.7561462E-02  0.1330061E+00
          1   -1    0    0  501    0  0.00000000000E+00  0.00000000000E+00  0.14102031607E+02  0.14102031607E+02  0.00000000000E+00 0. -1.
         -1   -1    0    0    0  501 -0.00000000000E+00 -0.00000000000E+00 -0.92606471628E+03  0.92606471628E+03  0.00000000000E+00 0.  1.
         25    2    1    2    0    0 -0.18893877501E+02 -0.18172665306E+02 -0.62625161789E+03  0.63916003771E+03  0.12508893048E+03 0.  0.
          5    1    3    3  502    0 -0.26529097544E+02  0.15144295858E+02 -0.58327519629E+03  0.58408952201E+03  0.41800000000E+01 0.  1.
         -5    1    3    3    0  502  0.76352200421E+01 -0.33316961164E+02 -0.42976421598E+02  0.55070515702E+02  0.41800000000E+01 0.  1.
        -11    1    1    2    0    0 -0.17469327567E+02  0.45368238698E+02 -0.12928679027E+03  0.13812504706E+03  0.00000000000E+00 0. -1.
         11    1    1    2    0    0  0.36363205068E+02 -0.27195573392E+02 -0.15642427651E+03  0.16288166311E+03  0.00000000000E+00 0.  1.
</event>
<event>
 7    1  0.2420569E-009  0.7485405E+02  0.7561462E-02  0.1344324E+00
          2   -1    0    0  501    0  0.00000000000E+00  0.00000000000E+00  0.40608813809E+02  0.40608813809E+02  0.00000000000E+00 0. -1.
         -2   -1    0    0    0  501 -0.00000000000E+00 -0.00000000000E+00 -0.43369745720E+03  0.43369745720E+03  0.00000000000E+00 0.  1.
         25    2    1    2    0    0  0.24560097997E+02 -0.57728308341E+02 -0.29448278303E+03  0.32604143945E+03  0.12508858758E+03 0.  0.
          5    1    3    3  502    0  0.11009769921E+02 -0.59876101559E+02 -0.44202323320E+02  0.75350383930E+02  0.41800000000E+01 0. -1.
         -5    1    3    3    0  502  0.13550328076E+02  0.21477932179E+01 -0.25028045971E+03  0.25069105552E+03  0.41800000000E+01 0. -1.
        -11    1    1    2    0    0  0.55315276760E+01  0.37909462899E+02 -0.10490942237E+03  0.11168577384E+03  0.00000000000E+00 0.  1.
         11    1    1    2    0    0 -0.30091625673E+02  0.19818845442E+02  0.63035619997E+01  0.36579057727E+02  0.00000000000E+00 0. -1.
</event>
<event>
 7    1  0.2420569E-009  0.7373618E+02  0.7561462E-02  0.1347830E+00
         -2   -1    0    0    0  501 -0.00000000000E+00  0.00000000000E+00  0.56565657699E+02  0.56565657699E+02  0.00000000000E+00 0.  1.
          2   -1    0    0  501    0  0.00000000000E+00 -0.00000000000E+00 -0.31188669907E+03  0.31188669907E+03  0.00000000000E+00 0. -1.
         25    2    1    2    0    0 -0.27548008449E+02 -0.56746210231E+02 -0.20115775365E+03  0.24513398301E+03  0.12508877900E+03 0.  0.
          5    1    3    3  502    0 -0.12739778703E+02 -0.14213930889E+02 -0.19888962232E+03  0.19984717176E+03  0.41800000000E+01 0.  1.
         -5    1    3    3    0  502 -0.14808229747E+02 -0.42532279341E+02 -0.22681313251E+01  0.45286811258E+02  0.41800000000E+01 0.  1.
        -11    1    1    2    0    0  0.24617033944E+02 -0.12342146976E+01 -0.60103149150E+02  0.64960835769E+02  0.00000000000E+00 0. -1.
         11    1    1    2    0    0  0.29309745051E+01  0.57980424928E+02  0.59398614198E+01  0.58357537989E+02  0.00000000000E+00 0.  1.
</event>
<event>
 7    1  0.2420569E-009  0.1752392E+03  0.7561462E-02  0.1172492E+00
         -1   -1    0    0    0  501 -0.00000000000E+00  0.00000000000E+00  0.58779136004E+02  0.58779136004E+02  0.00000000000E+00 0.  1.
          1   -1    0    0  501    0  0.00000000000E+00 -0.00000000000E+00 -0.53160732012E+03  0.53160732012E+03  0.00000000000E+00 0. -1.
         25    2    1    2    0    0 -0.74327794749E+02  0.11849630330E+03 -0.24491845366E+03  0.30854269634E+03  0.12509017367E+03 0.  0.
          5    1    3    3  502    0 -0.11464957832E+02  0.12334556948E+03 -0.17282774991E+03  0.21267928509E+03  0.41800000000E+01 0.  1.
         -5    1    3    3    0  502 -0.62862836917E+02 -0.48492661749E+01 -0.72090703755E+02  0.95863411245E+02  0.41800000000E+01 0.  1.
        -11    1    1    2    0    0  0.51482473324E+02 -0.99712974790E+01 -0.97038613552E+02  0.11030124366E+03  0.00000000000E+00 0. -1.
         11    1    1    2    0    0  0.22845321425E+02 -0.10852500583E+03 -0.13087111690E+03  0.17154251612E+03  0.00000000000E+00 0.  1.
</event>
<event>
 7    1  0.2420569E-009  0.1770440E+03  0.7561462E-02  0.1170695E+00
         -1   -1    0    0    0  501 -0.00000000000E+00  0.00000000000E+00  0.10145236897E+03  0.10145236897E+03  0.00000000000E+00 0.  1.
          1   -1    0    0  501    0  0.00000000000E+00 -0.00000000000E+00 -0.38156910784E+03  0.38156910784E+03  0.00000000000E+00 0. -1.
         25    2    1    2    0    0  0.41450314391E+01  0.15839358577E+03 -0.20329899212E+03  0.28650216691E+03  0.12508917680E+03 0.  0.
          5    1    3    3  502    0  0.41970871412E+02  0.62788366942E+02 -0.15575123936E+03  0.17314691460E+03  0.41800000000E+01 0.  1.
         -5    1    3    3    0  502 -0.37825839973E+02  0.95605218826E+02 -0.47547752754E+02  0.11335525232E+03  0.41800000000E+01 0.  1.
        -11    1    1    2    0    0 -0.36062061097E+02 -0.12162148239E+03 -0.33150938649E+02  0.13111537653E+03  0.00000000000E+00 0.  1.
         11    1    1    2    0    0  0.31917029658E+02 -0.36772103382E+02 -0.43666808107E+02  0.65403933365E+02  0.00000000000E+00 0. -1.
</event>
<event>
 7    1  0.2420569E-009  0.1612552E+03  0.7561462E-02  0.1187287E+00
         -2   -1    0    0    0  501 -0.00000000000E+00  0.00000000000E+00  0.27029175103E+02  0.27029175103E+02  0.00000000000E+00 0.  1.
          2   -1    0    0  501    0  0.00000000000E+00 -0.00000000000E+00 -0.12876040503E+04  0.12876040503E+04  0.00000000000E+00 0. -1.
         25    2    1    2    0    0 -0.14091136486E+03 -0.46871032355E+02 -0.76316480493E+03  0.78747767075E+03  0.12509059123E+03 0.  0.
          5    1    3    3  502    0 -0.39343773254E+02  0.21621926467E+02 -0.68006091453E+02  0.81594981909E+02  0.41800000000E+01 0. -1.
         -5    1    3    3    0  502 -0.10156759160E+03 -0.68492958822E+02 -0.69515871348E+03  0.70588268884E+03  0.41800000000E+01 0. -1.
        -11    1    1    2    0    0  0.10397648316E+03  0.54104090259E+02 -0.45759242046E+03  0.47236552043E+03  0.00000000000E+00 0. -1.
         11    1    1    2    0    0  0.36934881703E+02 -0.72330579046E+01 -0.39817649767E+02  0.54790034185E+02  0.00000000000E+00 0.  1.
</event>
<event>
 7    1  0.2420569E-009  0.9366580E+02  0.7561462E-02  0.1294210E+00
         -3   -1    0    0    0  501 -0.00000000000E+00  0.00000000000E+00  0.21361428174E+03  0.21361428174E+03  0.00000000000E+00 0.  1.
          3   -1    0    0  501    0  0.00000000000E+00 -0.00000000000E+00 -0.63979436895E+02  0.63979436895E+02  0.00000000000E+00 0. -1.
         25    2    1    2    0    0 -0.31746230804E+02  0.46100925105E+01  0.88677310693E+02  0.15666083205E+03  0.12509945941E+03 0.  0.
          5    1    3    3  502    0 -0.52469520056E+02 -0.45124137928E+02  0.72353097257E+02  0.10020819049E+03  0.41800000000E+01 0.  1.
         -5    1    3    3    0  502  0.20723289253E+02  0.49734230438E+02  0.16324213436E+02  0.56452641560E+02  0.41800000000E+01 0.  1.
        -11    1    1    2    0    0  0.22918904573E+02  0.24495440546E+02  0.78819485326E+02  0.85661041678E+02  0.00000000000E+00 0.  1.
         11    1    1    2    0    0  0.88273262311E+01 -0.29105533057E+02 -0.17861951178E+02  0.35271844902E+02  0.00000000000E+00 0. -1.
</event>
<event>
 7    1  0.2420569E-009  0.1887817E+03  0.7561462E-02  0.1159565E+00
         -1   -1    0    0    0  501 -0.00000000000E+00  0.00000000000E+00  0.26111729521E+03  0.26111729521E+03  0.00000000000E+00 0.  1.
          1   -1    0    0  501    0  0.00000000000E+00 -0.00000000000E+00 -0.17262481168E+03  0.17262481168E+03  0.00000000000E+00 0. -1.
         25    2    1    2    0    0  0.14345117994E+03  0.61546528346E+02 -0.49707768792E+02  0.20612110563E+03  0.12509529060E+03 0.  0.
          5    1    3    3  502    0  0.22962447867E+02  0.73889232491E+02 -0.77601961501E+01  0.77875450140E+02  0.41800000000E+01 0.  1.
         -5    1    3    3    0  502  0.12048873207E+03 -0.12342704145E+02 -0.41947572642E+02  0.12824565549E+03  0.41800000000E+01 0.  1.
        -11    1    1    2    0    0 -0.15468121628E+03 -0.63984266392E+02  0.13652546342E+03  0.21600802572E+03  0.00000000000E+00 0.  1.
         11    1    1    2    0    0  0.11230036336E+02  0.24377380458E+01  0.16747888964E+01  0.11612975533E+02  0.00000000000E+00 0. -1.
</event>
<event>
 7    1  0.2420569E-009  0.1126334E+03  0.7561462E-02  0.1255770E+00
         -2   -1    0    0    0  501 -0.00000000000E+00  0.00000000000E+00  0.19968209053E+03  0.19968209053E+03  0.00000000000E+00 0.  1.
          2   -1    0    0  501    0  0.00000000000E+00 -0.00000000000E+00 -0.73148236145E+02  0.73148236145E+02  0.00000000000E+00 0. -1.
         25    2    1    2    0    0  0.39157754113E+02  0.19178713327E+01  0.33860404753E+02  0.13537865093E+03  0.12507535401E+03 0.  0.
          5    1    3    3  502    0 -0.33030707515E+02 -0.35647469804E+02  0.20022413224E+02  0.52727025079E+02  0.41800000000E+01 0.  1.
         -5    1    3    3    0  502  0.72188461628E+02  0.37565341136E+02  0.13837991530E+02  0.82651625855E+02  0.41800000000E+01 0.  1.
        -11    1    1    2    0    0  0.36334995852E+01 -0.38522046772E+02  0.62653126885E+02  0.73638065668E+02  0.00000000000E+00 0.  1.
         11    1    1    2    0    0 -0.42791253699E+02  0.36604175440E+02  0.30020322745E+02  0.63813610072E+02  0.00000000000E+00 0. -1.
</event>
<event>
 7    1  0.2420569E-009  0.9258534E+02  0.7561462E-02  0.1296709E+00
          2   -1    0    0  501    0  0.00000000000E+00  0.00000000000E+00  0.33494773753E+02  0.33494773753E+02  0.00000000000E+00 0.  1.
         -2   -1    0    0    0  501 -0.00000000000E+00 -0.00000000000E+00 -0.49064511220E+03  0.49064511220E+03  0.00000000000E+00 0. -1.
         25    2    1    2    0    0  0.15512745693E+02 -0.38850422891E+02 -0.14819815373E+03  0.19839592393E+03  0.12509296233E+03 0.  0.
          5    1    3    3  502    0 -0.12869128246E+02 -0.71439724565E+02 -0.42718977167E+02  0.84330493405E+02  0.41800000000E+01 0.  1.
         -5    1    3    3    0  502  0.28381873939E+02  0.32589301675E+02 -0.10547917656E+03  0.11406543052E+03  0.41800000000E+01 0.  1.
        -11    1    1    2    0    0  0.66651362795E+01 -0.11910832542E+02 -0.19539098035E+01  0.13788028756E+02  0.00000000000E+00 0.  1.
         11    1    1    2    0    0 -0.22177881973E+02  0.50761255433E+02 -0.30699827492E+03  0.31195593327E+03  0.00000000000E+00 0. -1.
</event>
<event>
 7    1  0.2420569E-009  0.1693746E+03  0.7561462E-02  0.1178502E+00
         -1   -1    0    0    0  501 -0.00000000000E+00  0.00000000000E+00  0.47042360606E+02  0.47042360606E+02  0.00000000000E+00 0.  1.
          1   -1    0    0  501    0  0.00000000000E+00 -0.00000000000E+00 -0.69279129322E+03  0.69279129322E+03  0.00000000000E+00 0. -1.
         25    2    1    2    0    0  0.52518863322E+02  0.12926335113E+03 -0.41224297735E+03  0.45283118000E+03  0.12507821655E+03 0.  0.
          5    1    3    3  502    0  0.40936075225E+02  0.14567245451E+03 -0.27363920318E+03  0.31271730392E+03  0.41800000000E+01 0. -1.
         -5    1    3    3    0  502  0.11582788097E+02 -0.16409103382E+02 -0.13860377418E+03  0.14011387608E+03  0.41800000000E+01 0. -1.
        -11    1    1    2    0    0 -0.71743893649E+02 -0.55702459444E+02 -0.12566112373E+03  0.15505053460E+03  0.00000000000E+00 0. -1.
         11    1    1    2    0    0  0.19225030327E+02 -0.73560891683E+02 -0.10784483154E+03  0.13195193923E+03  0.00000000000E+00 0.  1.
</event>
<event>
 7    1  0.2420569E-009  0.9637435E+02  0.7561462E-02  0.1288110E+00
         -2   -1    0    0    0  501 -0.00000000000E+00  0.00000000000E+00  0.59451895023E+02  0.59451895023E+02  0.00000000000E+00 0.  1.
          2   -1    0    0  501    0  0.00000000000E+00 -0.00000000000E+00 -0.26553118788E+03  0.26553118788E+03  0.00000000000E+00 0. -1.
         25    2    1    2    0    0 -0.51114454175E+02 -0.37268562159E+02 -0.10830768582E+03  0.17714339479E+03  0.12509034479E+03 0.  0.
          5    1    3    3  502    0 -0.46058026553E+02  0.30083846746E+02 -0.92415452712E+02  0.10763116623E+03  0.41800000000E+01 0. -1.
         -5    1    3    3    0  502 -0.50564276227E+01 -0.67352408905E+02 -0.15892233103E+02  0.69512228554E+02  0.41800000000E+01 0. -1.
        -11    1    1    2    0    0  0.26834875971E+01  0.17322148828E+02  0.15273779308E+02  0.23249651181E+02  0.00000000000E+00 0.  1.
         11    1    1    2    0    0  0.48430966578E+02  0.19946413331E+02 -0.11304538635E+03  0.12459003694E+03  0.00000000000E+00 0. -1.
</event>
<event>
 7    1  0.2420569E-009  0.1480684E+03  0.7561462E-02  0.1202867E+00
         -1   -1    0    0    0  501 -0.00000000000E+00  0.00000000000E+00  0.98400622807E+02  0.98400622807E+02  0.00000000000E+00 0.  1.
          1   -1    0    0  501    0  0.00000000000E+00 -0.00000000000E+00 -0.32074709575E+03  0.32074709575E+03  0.00000000000E+00 0. -1.
         25    2    1    2    0    0  0.10080459281E+03  0.79188332331E+02 -0.18215739030E+03  0.25546470292E+03  0.12509413133E+03 0.  0.
          5    1    3    3  502    0  0.19426914149E+02  0.82869548146E+02 -0.46254368426E+02  0.96962394781E+02  0.41800000000E+01 0. -1.
         -5    1    3    3    0  502  0.81377678658E+02 -0.36812158145E+01 -0.13590302187E+03  0.15850230814E+03  0.41800000000E+01 0. -1.
        -11    1    1    2    0    0 -0.69120634995E+02 -0.43701352922E+02  0.22660690281E+02  0.84858572421E+02  0.00000000000E+00 0.  1.
         11    1    1    2    0    0 -0.31683957813E+02 -0.35486979409E+02 -0.62849772929E+02  0.78824443211E+02  0.00000000000E+00 0. -1.
</event>
<event>
 7    1  0.2420569E-009  0.9781109E+02  0.7561462E-02  0.1284967E+00
          2   -1    0    0  501    0  0.00000000000E+00  0.00000000000E+00  0.48686390151E+02  0.48686390151E+02  0.00000000000E+00 0. -1.
         -2   -1    0    0    0  501 -0.00000000000E+00 -0.00000000000E+00 -0.33471373376E+03  0.33471373376E+03  0.00000000000E+00 0.  1.
         25    2    1    2    0    0  0.27928102851E+02 -0.39132518993E+02 -0.22590187885E+03  0.26266012704E+03  0.12508937002E+03 0.  0.
          5    1    3    3  502    0  0.26666794444E+02  0.26299019030E+02 -0.12964196076E+02  0.39853470460E+02  0.41800000000E+01 0. -1.
         -5    1    3    3    0  502  0.12613084071E+01 -0.65431538023E+02 -0.21293768278E+03  0.22280665658E+03  0.41800000000E+01 0. -1.
        -11    1    1    2    0    0 -0.55777692829E+02  0.24892495057E+02 -0.64873012588E+02  0.89102722123E+02  0.00000000000E+00 0.  1.
         11    1    1    2    0    0  0.27849589978E+02  0.14240023936E+02  0.47475478291E+01  0.31637274757E+02  0.00000000000E+00 0. -1.
</event>
<event>
 7    1  0.2792302E-009  0.1515180E+03  0.7561462E-02  0.1198620E+00
          2   -1    0    0  501    0  0.00000000000E+00  0.00000000000E+00  0.98544998884E+03  0.98544998884E+03  0.00000000000E+00 0. -1.
         -2   -1    0    0    0  501 -0.00000000000E+00 -0.00000000000E+00 -0.33716769749E+02  0.33716769749E+02  0.00000000000E+00 0.  1.
         25    2    1    2    0    0  0.10885335704E+03 -0.87432878890E+02  0.62376886754E+03  0.65132806606E+03  0.12508832027E+03 0.  0.
          5    1    3    3  502    0  0.11371523658E+03 -0.95367877530E+02  0.38951256154E+03  0.41684972723E+03  0.41800000000E+01 0.  1.
         -5    1    3    3    0  502 -0.48618795402E+01  0.79349986398E+01  0.23425630600E+03  0.23447833883E+03  0.41800000000E+01 0.  1.
        -11    1    1    2    0    0 -0.80454745244E+02  0.83047445077E+02  0.31639574570E+03  0.33686215588E+03  0.00000000000E+00 0. -1.
         11    1    1    2    0    0 -0.28398611798E+02  0.43854338130E+01  0.11568605849E+02  0.30976536653E+02  0.00000000000E+00 0.  1.
</event>
<event>
 7    1  0.2420569E-009  0.2091051E+03  0.7561462E-02  0.1142277E+00
          2   -1    0    0  501    0  0.00000000000E+00  0.00000000000E+00  0.19650794008E+04  0.19650794008E+04  0.00000000000E+00 0. -1.
         -2   -1    0    0    0  501 -0.00000000000E+00 -0.00000000000E+00 -0.39325651895E+02  0.39325651895E+02  0.00000000000E+00 0.  1.
         25    2    1    2    0    0  0.12327510996E+01 -0.19729140455E+03  0.15658405246E+04  0.15831708693E+04  0.12509210679E+03 0.  0.
          5    1    3    3  502    0  0.38101156804E+02 -0.67065738529E+02  0.28812170240E+03  0.29829699835E+03  0.41800000000E+01 0.  1.
         -5    1    3    3    0  502 -0.36868405705E+02 -0.13022566602E+03  0.12777188222E+04  0.12848738710E+04  0.41800000000E+01 0.  1.
        -11    1    1    2    0    0 -0.29027267430E+02  0.11856622032E+03  0.13856238721E+03  0.18466203185E+03  0.00000000000E+00 0.  1.
         11    1    1    2    0    0  0.27794516330E+02  0.78725184230E+02  0.22135083710E+03  0.23657215148E+03  0.00000000000E+00 0. -1.
</event>
<event>
 7    1  0.2420569E-009  0.1300836E+03  0.7561462E-02  0.1227332E+00
         -1   -1    0    0    0  501 -0.00000000000E+00  0.00000000000E+00  0.58935643680E+02  0.58935643680E+02  0.00000000000E+00 0.  1.
          1   -1    0    0  501    0  0.00000000000E+00 -0.00000000000E+00 -0.30393690514E+03  0.30393690514E+03  0.00000000000E+00 0. -1.
         25    2    1    2    0    0  0.42951727779E+02  0.61987032036E+02 -0.15628767760E+03  0.21391510594E+03  0.12508633547E+03 0.  0.
          5    1    3    3  502    0  0.87189705424E+02  0.36462829703E+02 -0.10687706284E+03  0.14272968031E+03  0.41800000000E+01 0. -1.
         -5    1    3    3    0  502 -0.44237977644E+02  0.25524202333E+02 -0.49410614760E+02  0.71185425627E+02  0.41800000000E+01 0. -1.
        -11    1    1    2    0    0  0.21648433343E+01  0.20334590246E+02 -0.98782596529E+00  0.20473346264E+02  0.00000000000E+00 0. -1.
         11    1    1    2    0    0 -0.45116571114E+02 -0.82321622281E+02 -0.87725757896E+02  0.12848409661E+03  0.00000000000E+00 0.  1.
</event>
<event>
 7    1  0.3420505E-009  0.1636332E+03  0.7561462E-02  0.1184655E+00
         -2   -1    0    0    0  501 -0.00000000000E+00  0.00000000000E+00  0.23114368601E+02  0.23114368601E+02  0.00000000000E+00 0.  1.
          2   -1    0    0  501    0  0.00000000000E+00 -0.00000000000E+00 -0.12021499375E+04  0.12021499375E+04  0.00000000000E+00 0. -1.
         25    2    1    2    0    0 -0.19115435276E+02 -0.12449091208E+03 -0.64687020197E+03  0.67078481647E+03  0.12509126570E+03 0.  0.
          5    1    3    3  502    0  0.49562298993E+02 -0.74394714326E+02 -0.27078363020E+03  0.28518808143E+03  0.41800000000E+01 0. -1.
         -5    1    3    3    0  502 -0.68677734270E+02 -0.50096197749E+02 -0.37608657176E+03  0.38559673504E+03  0.41800000000E+01 0. -1.
        -11    1    1    2    0    0  0.52163622602E+02  0.94970210043E+02 -0.42314003674E+03  0.43679271401E+03  0.00000000000E+00 0. -1.
         11    1    1    2    0    0 -0.33048187325E+02  0.29520702032E+02 -0.10902533022E+03  0.11768677565E+03  0.00000000000E+00 0.  1.
</event>
<event>
 7    1  0.2420569E-009  0.1242932E+03  0.7561462E-02  0.1236178E+00
          1   -1    0    0  501    0  0.00000000000E+00  0.00000000000E+00  0.72953958430E+03  0.72953958430E+03  0.00000000000E+00 0. -1.
         -1   -1    0    0    0  501 -0.00000000000E+00 -0.00000000000E+00 -0.22853596891E+02  0.22853596891E+02  0.00000000000E+00 0.  1.
         25    2    1    2    0    0  0.68689904626E+02 -0.14779708176E+02  0.37709740706E+03  0.40346935413E+03  0.12509325538E+03 0.  0.
          5    1    3    3  502    0 -0.10693250985E+02  0.37844417305E+02  0.56269763408E+02  0.68777207065E+02  0.41800000000E+01 0.  1.
         -5    1    3    3    0  502  0.79383155612E+02 -0.52624125481E+02  0.32082764365E+03  0.33469214707E+03  0.41800000000E+01 0.  1.
        -11    1    1    2    0    0 -0.78497815926E+02  0.38943418532E+02  0.23498339819E+03  0.25079014011E+03  0.00000000000E+00 0.  1.
         11    1    1    2    0    0  0.98079112994E+01 -0.24163710356E+02  0.94605182160E+02  0.98133686947E+02  0.00000000000E+00 0. -1.
</event>
<event>
 7    1  0.2420569E-009  0.1252605E+03  0.7561462E-02  0.1234663E+00
         -2   -1    0    0    0  501 -0.00000000000E+00  0.00000000000E+00  0.15730505635E+03  0.15730505635E+03  0.00000000000E+00 0.  1.
          2   -1    0    0  501    0  0.00000000000E+00 -0.00000000000E+00 -0.12379791900E+03  0.12379791900E+03  0.00000000000E+00 0. -1.
         25    2    1    2    0    0  0.69723124040E+02 -0.50441729044E+02  0.28645493922E+02  0.15450929885E+03  0.12508747761E+03 0.  0.
          5    1    3    3  502    0  0.53993324430E+02  0.35005954410E+02  0.69261149512E+01  0.64854756152E+02  0.41800000000E+01 0. -1.
         -5    1    3    3    0  502  0.15729799610E+02 -0.85447683455E+02  0.21719378971E+02  0.89654542698E+02  0.41800000000E+01 0. -1.
        -11    1    1    2    0    0  0.65172856158E+01  0.12032659644E+02  0.33790593963E+02  0.36456332102E+02  0.00000000000E+00 0.  1.
         11    1    1    2    0    0 -0.76240409656E+02  0.38409069400E+02 -0.28928950538E+02  0.90137344402E+02  0.00000000000E+00 0. -1.
</event>
<event>
 7    1  0.2420569E-009  0.1980260E+03  0.7561462E-02  0.1151415E+00
         -1   -1    0    0    0  501 -0.00000000000E+00  0.00000000000E+00  0.27243282041E+02  0.27243282041E+02  0.00000000000E+00 0.  1.
          1   -1    0    0  501    0  0.00000000000E+00 -0.00000000000E+00 -0.17060702425E+04  0.17060702425E+04  0.00000000000E+00 0. -1.
         25    2    1    2    0    0  0.33359104958E+02  0.17711750249E+03 -0.68080298974E+03  0.71527869441E+03  0.12508980878E+03 0.  0.
          5    1    3    3  502    0  0.47337935114E+02  0.57012226911E+02 -0.43529789141E+03  0.44158011819E+03  0.41800000000E+01 0. -1.
         -5    1    3    3    0  502 -0.13978830156E+02  0.12010527558E+03 -0.24550509833E+03  0.27369857622E+03  0.41800000000E+01 0. -1.
        -11    1    1    2    0    0  0.21323481021E+02 -0.11957710318E+03 -0.60922557817E+03  0.62121588804E+03  0.00000000000E+00 0.  1.
         11    1    1    2    0    0 -0.54682585979E+02 -0.57540399314E+02 -0.38879839257E+03  0.39681894212E+03  0.00000000000E+00 0. -1.
</event>
<event>
 7    1  0.2420569E-009  0.1956620E+03  0.7561462E-02  0.1153451E+00
          1   -1    0    0  501    0  0.00000000000E+00  0.00000000000E+00  0.31724068122E+04  0.31724068122E+04  0.00000000000E+00 0. -1.
         -1   -1    0    0    0  501 -0.00000000000E+00 -0.00000000000E+00 -0.15596073671E+02  0.15596073671E+02  0.00000000000E+00 0.  1.
         25    2    1    2    0    0 -0.18113734778E+03  0.39596523270E+02  0.20586733425E+04  0.20707871360E+04  0.12507920681E+03 0.  0.
          5    1    3    3  502    0 -0.12880166283E+03  0.35876417974E+02  0.80733914836E+03  0.81834647832E+03  0.41800000000E+01 0.  1.
         -5    1    3    3    0  502 -0.52335684952E+02  0.37201052958E+01  0.12513341942E+04  0.12524406577E+04  0.41800000000E+01 0.  1.
        -11    1    1    2    0    0  0.86365818391E+02  0.25374234695E+02  0.43823598774E+03  0.44738539015E+03  0.00000000000E+00 0.  1.
         11    1    1    2    0    0  0.94771529390E+02 -0.64970757964E+02  0.65990140829E+03  0.66983035975E+03  0.00000000000E+00 0. -1.
</event>
<event>
 7    1  0.2420569E-009  0.1137718E+03  0.7561462E-02  0.1253740E+00
          2   -1    0    0  501    0  0.00000000000E+00  0.00000000000E+00  0.54612396964E+03  0.54612396964E+03  0.00000000000E+00 0. -1.
         -2   -1    0    0    0  501 -0.00000000000E+00 -0.00000000000E+00 -0.29427360379E+02  0.29427360379E+02  0.00000000000E+00 0.  1.
         25    2    1    2    0    0  0.32941561749E+00  0.37342634669E+02  0.16483281535E+03  0.21026547018E+03  0.12508848889E+03 0.  0.
          5    1    3    3  502    0  0.58566819228E+02 -0.26581737380E+01  0.62012324418E+02  0.85440850779E+02  0.41800000000E+01 0. -1.
         -5    1    3    3    0  502 -0.58237403610E+02  0.40000808407E+02  0.10282049093E+03  0.12482461940E+03  0.41800000000E+01 0. -1.
        -11    1    1    2    0    0 -0.39407994406E+02 -0.43203481219E+02  0.20110920389E+03  0.20943839834E+03  0.00000000000E+00 0.  1.
         11    1    1    2    0    0  0.39078578789E+02  0.58608465504E+01  0.15075459003E+03  0.15584746150E+03  0.00000000000E+00 0. -1.
</event>
<event>
 7    1  0.2420569E-009  0.2239307E+03  0.7561462E-02  0.1130986E+00
         -1   -1    0    0    0  501 -0.00000000000E+00  0.00000000000E+00  0.13976845981E+03  0.13976845981E+03  0.00000000000E+00 0.  1.
          1   -1    0    0  501    0  0.00000000000E+00 -0.00000000000E+00 -0.72624191729E+03  0.72624191729E+03  0.00000000000E+00 0. -1.
         25    2    1    2    0    0 -0.13559755234E+03  0.16445473897E+03 -0.12913631993E+02  0.24747807471E+03  0.12508628302E+03 0.  0.
          5    1    3    3  502    0 -0.62390831700E+02  0.35694692741E+02  0.48783505847E+02  0.86971431015E+02  0.41800000000E+01 0.  1.
         -5    1    3    3    0  502 -0.73206720637E+02  0.12876004623E+03 -0.61697137840E+02  0.16050664369E+03  0.41800000000E+01 0.  1.
        -11    1    1    2    0    0  0.86722971527E+02 -0.43068013899E+02 -0.18973763396E+03  0.21301665980E+03  0.00000000000E+00 0. -1.
         11    1    1    2    0    0  0.48874580810E+02 -0.12138672507E+03 -0.38382219154E+03  0.40551564260E+03  0.00000000000E+00 0.  1.
</event>
<event>
 7    1  0.2420569E-009  0.1068525E+03  0.7561462E-02  0.1266512E+00
         -1   -1    0    0    0  501 -0.00000000000E+00  0.00000000000E+00  0.11668061733E+03  0.11668061733E+03  0.00000000000E+00 0.  1.
          1   -1    0    0  501    0  0.00000000000E+00 -0.00000000000E+00 -0.14777113465E+03  0.14777113465E+03  0.00000000000E+00 0. -1.
         25    2    1    2    0    0  0.10587586609E+02  0.39859840239E+02  0.43857221876E+02  0.13882372778E+03  0.12509063766E+03 0.  0.
          5    1    3    3  502    0 -0.33472192293E+02 -0.27734337233E+02  0.37878461827E+02  0.57808575393E+02  0.41800000000E+01 0.  1.
         -5    1    3    3    0  502  0.44059778902E+02  0.67594177471E+02  0.59787600493E+01  0.81015152389E+02  0.41800000000E+01 0.  1.
        -11    1    1    2    0    0 -0.29733341094E+02 -0.56518501867E+02 -0.23117157211E+02  0.67917711854E+02  0.00000000000E+00 0.  1.
         11    1    1    2    0    0  0.19145754485E+02  0.16658661629E+02 -0.51830581982E+02  0.57710312342E+02  0.00000000000E+00 0. -1.
</event>
<event>
 7    1  0.2420569E-009  0.2162629E+03  0.7561462E-02  0.1136700E+00
          1   -1    0    0  501    0  0.00000000000E+00  0.00000000000E+00  0.55816089289E+03  0.55816089289E+03  0.00000000000E+00 0. -1.
         -1   -1    0    0    0  501 -0.00000000000E+00 -0.00000000000E+00 -0.90829393749E+02  0.90829393749E+02  0.00000000000E+00 0.  1.
         25    2    1    2    0    0 -0.19327130893E+03  0.52493419553E+00  0.29454660069E+03  0.37384474257E+03  0.12509243445E+03 0.  0.
          5    1    3    3  502    0 -0.37229976973E+02 -0.42645382717E+02  0.13523816758E+03  0.14666810908E+03  0.41800000000E+01 0.  1.
         -5    1    3    3    0  502 -0.15604133196E+03  0.43170316913E+02  0.15930843311E+03  0.22717663349E+03  0.41800000000E+01 0.  1.
        -11    1    1    2    0    0  0.97686191874E+02  0.45445284095E+02  0.79520734324E+02  0.13390822647E+03  0.00000000000E+00 0. -1.
         11    1    1    2    0    0  0.95585117056E+02 -0.45970218291E+02  0.93264164132E+02  0.14123731760E+03  0.00000000000E+00 0.  1.
</event>
<event>
 7    1  0.2420569E-009  0.1503094E+03  0.7561462E-02  0.1200093E+00
          1   -1    0    0  501    0  0.00000000000E+00  0.00000000000E+00  0.52790240014E+02  0.52790240014E+02  0.00000000000E+00 0. -1.
         -1   -1    0    0    0  501 -0.00000000000E+00 -0.00000000000E+00 -0.52004636123E+03  0.52004636123E+03  0.00000000000E+00 0.  1.
         25    2    1    2    0    0  0.35909752349E+02  0.11409366555E+03 -0.31665852533E+03  0.36086946712E+03  0.12508907147E+03 0.  0.
          5    1    3    3  502    0  0.63941140438E+02  0.47413939567E+02 -0.25006187374E+03  0.26245945249E+03  0.41800000000E+01 0. -1.
         -5    1    3    3    0  502 -0.28031388089E+02  0.66679725986E+02 -0.66596651597E+02  0.98410014631E+02  0.41800000000E+01 0. -1.
        -11    1    1    2    0    0 -0.59181253933E+02 -0.41660572829E+02 -0.83776268053E+02  0.11070902056E+03  0.00000000000E+00 0. -1.
         11    1    1    2    0    0  0.23271501584E+02 -0.72433092724E+02 -0.66821327825E+02  0.10125811355E+03  0.00000000000E+00 0.  1.
</event>
<event>
 7    1  0.2420569E-009  0.1091414E+03  0.7561462E-02  0.1262168E+00
          1   -1    0    0  501    0  0.00000000000E+00  0.00000000000E+00  0.19351877755E+03  0.19351877755E+03  0.00000000000E+00 0. -1.
         -1   -1    0    0    0  501 -0.00000000000E+00 -0.00000000000E+00 -0.10978635763E+03  0.10978635763E+03  0.00000000000E+00 0.  1.
         25    2    1    2    0    0  0.79997162985E+01 -0.15077718839E+02 -0.53700911387E+02  0.13719586873E+03  0.12509030916E+03 0.  0.
          5    1    3    3  502    0 -0.45575610983E+02  0.30107259447E+02 -0.14016968256E+02  0.56546716854E+02  0.41800000000E+01 0. -1.
         -5    1    3    3    0  502  0.53575327282E+02 -0.45184978286E+02 -0.39683943132E+02  0.80649151877E+02  0.41800000000E+01 0. -1.
        -11    1    1    2    0    0  0.20066143436E+02 -0.32416026891E+02  0.57130970457E+02  0.68683307267E+02  0.00000000000E+00 0. -1.
         11    1    1    2    0    0 -0.28065859735E+02  0.47493745731E+02  0.80302360850E+02  0.97425959190E+02  0.00000000000E+00 0.  1.
</event>
<event>
 7    1  0.3157745E-009  0.1088061E+03  0.7561462E-02  0.1262797E+00
         -2   -1    0    0    0  501 -0.00000000000E+00  0.00000000000E+00  0.28743858570E+02  0.28743858570E+02  0.00000000000E+00 0.  1.
          2   -1    0    0  501    0  0.00000000000E+00 -0.00000000000E+00 -0.51313225744E+03  0.51313225744E+03  0.00000000000E+00 0. -1.
         25    2    1    2    0    0 -0.48710967364E+02 -0.80162073959E+01 -0.22090076546E+03  0.25861545014E+03  0.12509110660E+03 0.  0.
          5    1    3    3  502    0 -0.77321944190E+01 -0.55403493127E+02 -0.16595973656E+03  0.17518401879E+03  0.41800000000E+01 0.  1.
         -5    1    3    3    0  502 -0.40978772945E+02  0.47387285731E+02 -0.54941028902E+02  0.83431431354E+02  0.41800000000E+01 0.  1.
        -11    1    1    2    0    0 -0.24829300718E+02  0.92078545081E+00 -0.33574383966E+02  0.41768185006E+02  0.00000000000E+00 0.  1.
         11    1    1    2    0    0  0.73540268082E+02  0.70954219451E+01 -0.22991324945E+03  0.24149248086E+03  0.00000000000E+00 0. -1.
</event>
<event>
 7    1  0.2420569E-009  0.7410717E+02  0.7561462E-02  0.1346658E+00
         -2   -1    0    0    0  501 -0.00000000000E+00  0.00000000000E+00  0.11462188782E+03  0.11462188782E+03  0.00000000000E+00 0.  1.
          2   -1    0    0  501    0  0.00000000000E+00 -0.00000000000E+00 -0.11481652364E+03  0.11481652364E+03  0.00000000000E+00 0. -1.
         25    2    1    2    0    0 -0.58704161050E+01 -0.14734016532E+02 -0.33875898750E+02  0.13056143130E+03  0.12508859979E+03 0.  0.
          5    1    3    3  502    0  0.32733094944E+02 -0.12510383126E+02 -0.69418723851E+02  0.77874237150E+02  0.41800000000E+01 0.  1.
         -5    1    3    3    0  502 -0.38603511049E+02 -0.22236334056E+01  0.35542825101E+02  0.52687194146E+02  0.41800000000E+01 0.  1.
        -11    1    1    2    0    0 -0.28789654468E+02 -0.11044327323E+02  0.44694814193E+02  0.54299611289E+02  0.00000000000E+00 0.  1.
         11    1    1    2    0    0  0.34660070573E+02  0.25778343855E+02 -0.11013551263E+02  0.44577368871E+02  0.00000000000E+00 0. -1.
</event>
<event>
 7    1  0.2420569E-009  0.1568309E+03  0.7561462E-02  0.1192322E+00
          1   -1    0    0  501    0  0.00000000000E+00  0.00000000000E+00  0.31817487489E+03  0.31817487489E+03  0.00000000000E+00 0.  1.
         -1   -1    0    0    0  501 -0.00000000000E+00 -0.00000000000E+00 -0.12929410533E+03  0.12929410533E+03  0.00000000000E+00 0. -1.
         25    2    1    2    0    0 -0.14161649698E+03 -0.40591908551E+02  0.19419033992E+03  0.27397099543E+03  0.12508910007E+03 0.  0.
          5    1    3    3  502    0 -0.13252811140E+03 -0.10351453895E+02  0.79516048460E+02  0.15495524280E+03  0.41800000000E+01 0.  1.
         -5    1    3    3    0  502 -0.90883855852E+01 -0.30240454656E+02  0.11467429146E+03  0.11901575262E+03  0.41800000000E+01 0.  1.
        -11    1    1    2    0    0  0.12301088503E+03  0.27458598951E+02 -0.39794832485E+02  0.13217140835E+03  0.00000000000E+00 0. -1.
         11    1    1    2    0    0  0.18605611953E+02  0.13133309600E+02  0.34485262121E+02  0.41326576446E+02  0.00000000000E+00 0.  1.
</event>
<event>
 7    1  0.2420569E-009  0.5927850E+02  0.7561462E-02  0.1400885E+00
         -1   -1    0    0    0  501 -0.00000000000E+00  0.00000000000E+00  0.92309261747E+02  0.92309261747E+02  0.00000000000E+00 0.  1.
          1   -1    0    0  501    0  0.00000000000E+00 -0.00000000000E+00 -0.15035071246E+03  0.15035071246E+03  0.00000000000E+00 0. -1.
         25    2    1    2    0    0 -0.33147184050E+01  0.35187692562E+02 -0.86014951582E+01  0.13027218975E+03  0.12509075360E+03 0.  0.
          5    1    3    3  502    0  0.29809252034E+02  0.38372300893E+02  0.45447537504E+02  0.66663153600E+02  0.41800000000E+01 0.  1.
         -5    1    3    3    0  502 -0.33123970439E+02 -0.31846083311E+01 -0.54049032662E+02  0.63609036147E+02  0.41800000000E+01 0.  1.
        -11    1    1    2    0    0 -0.16525794454E+01 -0.23388372174E+02  0.26495787321E+02  0.35380414322E+02  0.00000000000E+00 0.  1.
         11    1    1    2    0    0  0.49672978504E+01 -0.11799320388E+02 -0.75935742875E+02  0.77007370138E+02  0.00000000000E+00 0. -1.
</event>
<event>
 7    1  0.2420569E-009  0.6991610E+02  0.7561462E-02  0.1360379E+00
          1   -1    0    0  501    0  0.00000000000E+00  0.00000000000E+00  0.13731223164E+03  0.13731223164E+03  0.00000000000E+00 0. -1.
         -1   -1    0    0    0  501 -0.00000000000E+00 -0.00000000000E+00 -0.12176010417E+03  0.12176010417E+03  0.00000000000E+00 0.  1.
         25    2    1    2    0    0 -0.11839876914E+02 -0.46630238638E+02 -0.45472473118E+02  0.14152737689E+03  0.12509073010E+03 0.  0.
          5    1    3    3  502    0 -0.34481341773E+02 -0.34091617345E+02  0.32992936728E+02  0.58798023586E+02  0.41800000000E+01 0.  1.
         -5    1    3    3    0  502  0.22641464860E+02 -0.12538621292E+02 -0.78465409846E+02  0.82729353299E+02  0.41800000000E+01 0.  1.
        -11    1    1    2    0    0  0.22872516227E+02  0.71658270294E+01  0.71365271123E+02  0.75282820073E+02  0.00000000000E+00 0. -1.
         11    1    1    2    0    0 -0.11032639313E+02  0.39464411608E+02 -0.10340670534E+02  0.42262138859E+02  0.00000000000E+00 0.  1.
</event>
<event>
 7    1  0.2420569E-009  0.7867739E+02  0.7561462E-02  0.1332847E+00
         -1   -1    0    0    0  501 -0.00000000000E+00  0.00000000000E+00  0.27616756672E+02  0.27616756672E+02  0.00000000000E+00 0.  1.
          1   -1    0    0  501    0  0.00000000000E+00 -0.00000000000E+00 -0.57467187203E+03  0.57467187203E+03  0.00000000000E+00 0. -1.
         25    2    1    2    0    0  0.69237152420E+01  0.53718371525E+02 -0.40110160953E+03  0.42363174246E+03  0.12509096999E+03 0.  0.
          5    1    3    3  502    0  0.22338205418E+01 -0.21284555988E+02 -0.77470074594E+01  0.23141106335E+02  0.41800000000E+01 0.  1.
         -5    1    3    3    0  502  0.46898947002E+01  0.75002927513E+02 -0.39335460207E+03  0.40049063612E+03  0.41800000000E+01 0.  1.
        -11    1    1    2    0    0 -0.16183899703E+02 -0.43894781896E+02 -0.15532845834E+03  0.16222083855E+03  0.00000000000E+00 0. -1.
         11    1    1    2    0    0  0.92601844605E+01 -0.98235896285E+01  0.93749525158E+01  0.16436047703E+02  0.00000000000E+00 0.  1.
</event>
<event>
 7    1  0.2494518E-009  0.1325275E+03  0.7561462E-02  0.1223753E+00
         -1   -1    0    0    0  501 -0.00000000000E+00  0.00000000000E+00  0.66018573432E+02  0.66018573432E+02  0.00000000000E+00 0.  1.
          1   -1    0    0  501    0  0.00000000000E+00 -0.00000000000E+00 -0.41363673790E+03  0.41363673790E+03  0.00000000000E+00 0. -1.
         25    2    1    2    0    0 -0.40212582587E+02  0.91146879671E+02 -0.77628493917E+02  0.17775897307E+03  0.12508902416E+03 0.  0.
          5    1    3    3  502    0 -0.49420859394E+02  0.82230128726E+01  0.15541658358E+02  0.52621809437E+02  0.41800000000E+01 0.  1.
         -5    1    3    3    0  502  0.92082768069E+01  0.82923866799E+02 -0.93170152275E+02  0.12513716363E+03  0.41800000000E+01 0.  1.
        -11    1    1    2    0    0  0.64279793521E+02 -0.42766914902E+02 -0.12229232287E+03  0.14462473198E+03  0.00000000000E+00 0.  1.
         11    1    1    2    0    0 -0.24067210934E+02 -0.48379964769E+02 -0.14769734768E+03  0.15727160629E+03  0.00000000000E+00 0. -1.
</event>
<event>
 7    1  0.2420569E-009  0.1731631E+03  0.7561462E-02  0.1174589E+00
          1   -1    0    0  501    0  0.00000000000E+00  0.00000000000E+00  0.31289538396E+03  0.31289538396E+03  0.00000000000E+00 0. -1.
         -1   -1    0    0    0  501 -0.00000000000E+00 -0.00000000000E+00 -0.11198161591E+03  0.11198161591E+03  0.00000000000E+00 0.  1.
         25    2    1    2    0    0 -0.65060553957E+02 -0.11709095901E+03  0.17618885625E+03  0.25423208827E+03  0.12509305847E+03 0.  0.
          5    1    3    3  502    0 -0.77007932170E+02 -0.13653428162E+03  0.16753131136E+03  0.22946904881E+03  0.41800000000E+01 0.  1.
         -5    1    3    3    0  502  0.11947378213E+02  0.19443322605E+02  0.86575448926E+01  0.24763039467E+02  0.41800000000E+01 0.  1.
        -11    1    1    2    0    0  0.74110027486E+02  0.31963840771E+02  0.26712869731E+02  0.85015061608E+02  0.00000000000E+00 0. -1.
         11    1    1    2    0    0 -0.90494735295E+01  0.85127118239E+02 -0.19879579367E+01  0.85629849980E+02  0.00000000000E+00 0.  1.
</event>
<event>
 7    1  0.2420569E-009  0.1279730E+03  0.7561462E-02  0.1230495E+00
         -1   -1    0    0    0  501 -0.00000000000E+00  0.00000000000E+00  0.89384652576E+02  0.89384652576E+02  0.00000000000E+00 0.  1.
          1   -1    0    0  501    0  0.00000000000E+00 -0.00000000000E+00 -0.25874326895E+03  0.25874326895E+03  0.00000000000E+00 0. -1.
         25    2    1    2    0    0  0.43504609761E+02  0.72416226097E+02 -0.18138018749E+02  0.15202825529E+03  0.12508733673E+03 0.  0.
          5    1    3    3  502    0 -0.29273944434E+02 -0.11311082305E+02  0.16542795641E+02  0.35721714590E+02  0.41800000000E+01 0. -1.
         -5    1    3    3    0  502  0.72778554195E+02  0.83727308402E+02 -0.34680814389E+02  0.11630654070E+03  0.41800000000E+01 0. -1.
        -11    1    1    2    0    0 -0.23263934290E+02  0.12198482425E+02 -0.62103059842E+01  0.26992249120E+02  0.00000000000E+00 0.  1.
         11    1    1    2    0    0 -0.20240675471E+02 -0.84614708522E+02 -0.14501029164E+03  0.16910741711E+03  0.00000000000E+00 0. -1.
</event>
<event>
 7    1  0.2420569E-009  0.1670832E+03  0.7561462E-02  0.1180924E+00
          1   -1    0    0  501    0  0.00000000000E+00  0.00000000000E+00  0.96840703597E+03  0.96840703597E+03  0.00000000000E+00 0. -1.
         -1   -1    0    0    0  501 -0.00000000000E+00 -0.00000000000E+00 -0.47503037672E+02  0.47503037672E+02  0.00000000000E+00 0.  1.
         25    2    1    2    0    0  0.98319357074E+02  0.94232172495E+02  0.18420706398E+03  0.26100958981E+03  0.12508942899E+03 0.  0.
          5    1    3    3  502    0  0.60030530131E+02 -0.76505259653E+01  0.12029202043E+03  0.13472133340E+03  0.41800000000E+01 0.  1.
         -5    1    3    3    0  502  0.38288826943E+02  0.10188269846E+03  0.63915043548E+02  0.12628825641E+03  0.41800000000E+01 0.  1.
        -11    1    1    2    0    0 -0.11254345428E+03 -0.60048934333E+02  0.55520478072E+03  0.56967030127E+03  0.00000000000E+00 0.  1.
         11    1    1    2    0    0  0.14224097211E+02 -0.34183238162E+02  0.18149215361E+03  0.18523018257E+03  0.00000000000E+00 0. -1.
</event>
<event>
 7    1  0.2420569E-009  0.2045315E+03  0.7561462E-02  0.1145971E+00
         -1   -1    0    0    0  501 -0.00000000000E+00  0.00000000000E+00  0.35156705614E+02  0.35156705614E+02  0.00000000000E+00 0.  1.
          1   -1    0    0  501    0  0.00000000000E+00 -0.00000000000E+00 -0.15638548450E+04  0.15638548450E+04  0.00000000000E+00 0. -1.
         25    2    1    2    0    0 -0.92219548245E+02 -0.16946104766E+03 -0.53799568124E+03  0.58507149755E+03  0.12509121659E+03 0.  0.
          5    1    3    3  502    0 -0.16452933325E+02 -0.32818066467E+02 -0.28714193404E+03  0.28950939049E+03  0.41800000000E+01 0. -1.
         -5    1    3    3    0  502 -0.75766614921E+02 -0.13664298119E+03 -0.25085374720E+03  0.29556210706E+03  0.41800000000E+01 0. -1.
        -11    1    1    2    0    0  0.43041460895E+02  0.16006098330E+03 -0.76597939904E+03  0.78370691300E+03  0.00000000000E+00 0.  1.
         11    1    1    2    0    0  0.49178087351E+02  0.94000643561E+01 -0.22472305907E+03  0.23023314002E+03  0.00000000000E+00 0. -1.
</event>
<event>
 7    1  0.2420569E-009  0.1266877E+03  0.7561462E-02  0.1232455E+00
         -1   -1    0    0    0  501 -0.00000000000E+00  0.00000000000E+00  0.92138886712E+02  0.92138886712E+02  0.00000000000E+00 0.  1.
          1   -1    0    0  501    0  0.00000000000E+00 -0.00000000000E+00 -0.39245396333E+03  0.39245396333E+03  0.00000000000E+00 0. -1.
         25    2    1    2    0    0 -0.88128706001E+02  0.41731426344E+02 -0.30684728230E+03  0.34541555321E+03  0.12509384069E+03 0.  0.
          5    1    3    3  502    0 -0.80239863132E+02 -0.17603676767E+02 -0.24834724175E+03  0.26161450640E+03  0.41800000000E+01 0.  1.
         -5    1    3    3    0  502 -0.78888428686E+01  0.59335103111E+02 -0.58500040550E+02  0.83801046815E+02  0.41800000000E+01 0.  1.
        -11    1    1    2    0    0  0.23326680306E+02 -0.39985650789E+02 -0.38529275911E+02  0.60228659169E+02  0.00000000000E+00 0. -1.
         11    1    1    2    0    0  0.64802025695E+02 -0.17457755550E+01  0.45061481589E+02  0.78948637667E+02  0.00000000000E+00 0.  1.
</event>
<event>
 7    1  0.2420569E-009  0.8161994E+02  0.7561462E-02  0.1324516E+00
         -1   -1    0    0    0  501 -0.00000000000E+00  0.00000000000E+00  0.18453714003E+02  0.18453714003E+02  0.00000000000E+00 0.  1.
          1   -1    0    0  501    0  0.00000000000E+00 -0.00000000000E+00 -0.92517161510E+03  0.92517161510E+03  0.00000000000E+00 0. -1.
         25    2    1    2    0    0  0.51624765826E+02 -0.48472464960E+02 -0.48211234190E+03  0.50308504255E+03  0.12509018152E+03 0.  0.
          5    1    3    3  502    0  0.48612855629E+02 -0.45427981674E+02 -0.95727855820E+02  0.11665421566E+03  0.41800000000E+01 0. -1.
         -5    1    3    3    0  502  0.30119101969E+01 -0.30444832859E+01 -0.38638448608E+03  0.38643082689E+03  0.41800000000E+01 0. -1.
        -11    1    1    2    0    0  0.99731603744E+01  0.20787024731E+02 -0.20565262948E+02  0.30894892218E+02  0.00000000000E+00 0.  1.
         11    1    1    2    0    0 -0.61597926201E+02  0.27685440229E+02 -0.40404029625E+03  0.40964539434E+03  0.00000000000E+00 0. -1.
</event>
<event>
 7    1  0.2420569E-009  0.8531763E+02  0.7561462E-02  0.1314604E+00
          2   -1    0    0  501    0  0.00000000000E+00  0.00000000000E+00  0.42771562171E+03  0.42771562171E+03  0.00000000000E+00 0. -1.
         -2   -1    0    0    0  501 -0.00000000000E+00 -0.00000000000E+00 -0.29060212045E+02  0.29060212045E+02  0.00000000000E+00 0.  1.
         25    2    1    2    0    0 -0.91506268151E+01 -0.10632630206E+02  0.28828557758E+03  0.31456785194E+03  0.12509025716E+03 0.  0.
          5    1    3    3  502    0 -0.49964203824E+02  0.37513210155E+02  0.14329272716E+03  0.15637755803E+03  0.41800000000E+01 0.  1.
         -5    1    3    3    0  502  0.40813577009E+02 -0.48145840360E+02  0.14499285043E+03  0.15819029391E+03  0.41800000000E+01 0.  1.
        -11    1    1    2    0    0 -0.15535824655E+02 -0.40277721737E+01 -0.97000572896E+01  0.18753023964E+02  0.00000000000E+00 0.  1.
         11    1    1    2    0    0  0.24686451470E+02  0.14660402379E+02  0.12006988937E+03  0.12345495785E+03  0.00000000000E+00 0. -1.
</event>
<event>
 7    1  0.2420569E-009  0.9354339E+02  0.7561462E-02  0.1294491E+00
          2   -1    0    0  501    0  0.00000000000E+00  0.00000000000E+00  0.23999296919E+03  0.23999296919E+03  0.00000000000E+00 0. -1.
         -2   -1    0    0    0  501 -0.00000000000E+00 -0.00000000000E+00 -0.69466023234E+02  0.69466023234E+02  0.00000000000E+00 0.  1.
         25    2    1    2    0    0 -0.53698473227E+02  0.17548483863E+02  0.43636142060E+02  0.14402466679E+03  0.12509003333E+03 0.  0.
          5    1    3    3  502    0 -0.10082158288E+02 -0.32157059218E+02  0.65890400700E+02  0.74126538283E+02  0.41800000000E+01 0.  1.
         -5    1    3    3    0  502 -0.43616314938E+02  0.49705543081E+02 -0.22254258640E+02  0.69898128511E+02  0.41800000000E+01 0.  1.
        -11    1    1    2    0    0  0.63715776860E+02  0.32325995646E+01  0.39468533833E+02  0.75019431374E+02  0.00000000000E+00 0.  1.
         11    1    1    2    0    0 -0.10017303633E+02 -0.20781083427E+02  0.87422270060E+02  0.90414894254E+02  0.00000000000E+00 0. -1.
</event>
<event>
 7    1  0.2420569E-009  0.1376357E+03  0.7561462E-02  0.1216546E+00
          1   -1    0    0  501    0  0.00000000000E+00  0.00000000000E+00  0.30725273567E+03  0.30725273567E+03  0.00000000000E+00 0. -1.
         -1   -1    0    0    0  501 -0.00000000000E+00 -0.00000000000E+00 -0.79716679355E+02  0.79716679355E+02  0.00000000000E+00 0.  1.
         25    2    1    2    0    0  0.45516218406E+01  0.11288905685E+03  0.12714980328E+03  0.21113534930E+03  0.12508559801E+03 0.  0.
          5    1    3    3  502    0 -0.35343197785E+02  0.19864098672E+02 -0.86959128117E+01  0.41675116621E+02  0.41800000000E+01 0. -1.
         -5    1    3    3    0  502  0.39894819626E+02  0.93024958181E+02  0.13584571610E+03  0.16946023268E+03  0.41800000000E+01 0. -1.
        -11    1    1    2    0    0  0.29627364675E+02 -0.24512829833E+02  0.92861263164E+00  0.38464553623E+02  0.00000000000E+00 0. -1.
         11    1    1    2    0    0 -0.34178986515E+02 -0.88376227021E+02  0.99457640398E+02  0.13736951210E+03  0.00000000000E+00 0.  1.
</event>
<event>
 7    1  0.2420569E-009  0.1113026E+03  0.7561462E-02  0.1258177E+00
         -1   -1    0    0    0  501 -0.00000000000E+00  0.00000000000E+00  0.43037247052E+02  0.43037247052E+02  0.00000000000E+00 0.  1.
          1   -1    0    0  501    0  0.00000000000E+00 -0.00000000000E+00 -0.55892831245E+03  0.55892831245E+03  0.00000000000E+00 0. -1.
         25    2    1    2    0    0 -0.33302904427E+02 -0.19216535667E+02 -0.40616297647E+03  0.42672352570E+03  0.12508495210E+03 0.  0.
          5    1    3    3  502    0  0.15241433054E+02  0.45483395019E+02 -0.11944704525E+03  0.12878707048E+03  0.41800000000E+01 0. -1.
         -5    1    3    3    0  502 -0.48544337481E+02 -0.64699930686E+02 -0.28671593122E+03  0.29793645522E+03  0.41800000000E+01 0. -1.
        -11    1    1    2    0    0  0.59104277718E+02  0.29038039377E+02 -0.40051633991E+01  0.65973969938E+02  0.00000000000E+00 0.  1.
         11    1    1    2    0    0 -0.25801373291E+02 -0.98215037099E+01 -0.10572292553E+03  0.10926806387E+03  0.00000000000E+00 0. -1.
</event>
<event>
 7    1  0.2420569E-009  0.1007755E+03  0.7561462E-02  0.1278674E+00
          4   -1    0    0  501    0  0.00000000000E+00  0.00000000000E+00  0.12797170566E+03  0.12797170566E+03  0.00000000000E+00 0.  1.
         -4   -1    0    0    0  501 -0.00000000000E+00 -0.00000000000E+00 -0.13364843555E+03  0.13364843555E+03  0.00000000000E+00 0. -1.
         25    2    1    2    0    0 -0.57049226797E+01 -0.72297947684E+02 -0.14100176002E+02  0.14527863872E+03  0.12509008163E+03 0.  0.
          5    1    3    3  502    0 -0.31718526726E+02  0.91672602860E+01  0.33580003844E+02  0.47277824157E+02  0.41800000000E+01 0.  1.
         -5    1    3    3    0  502  0.26013604046E+02 -0.81465207970E+02 -0.47680179846E+02  0.98000814564E+02  0.41800000000E+01 0.  1.
        -11    1    1    2    0    0  0.22538858082E+02  0.48711431768E+02  0.44744299353E+02  0.69877435794E+02  0.00000000000E+00 0.  1.
         11    1    1    2    0    0 -0.16833935402E+02  0.23586515916E+02 -0.36320853242E+02  0.46464066701E+02  0.00000000000E+00 0. -1.
</event>
<event>
 7    1  0.2420569E-009  0.1232758E+03  0.7561462E-02  0.1237789E+00
         -1   -1    0    0    0  501 -0.00000000000E+00  0.00000000000E+00  0.20000306414E+03  0.20000306414E+03  0.00000000000E+00 0.  1.
          1   -1    0    0  501    0  0.00000000000E+00 -0.00000000000E+00 -0.12649111126E+03  0.12649111126E+03  0.00000000000E+00 0. -1.
         25    2    1    2    0    0  0.42946135972E+02  0.35107983355E+02  0.14090002978E+03  0.19640885675E+03  0.12508668805E+03 0.  0.
          5    1    3    3  502    0 -0.39667583900E+02  0.35424815306E+02  0.45269144608E+02  0.69965724505E+02  0.41800000000E+01 0. -1.
         -5    1    3    3    0  502  0.82613719872E+02 -0.31683195152E+00  0.95630885171E+02  0.12644313225E+03  0.41800000000E+01 0. -1.
        -11    1    1    2    0    0 -0.28225964621E+01 -0.62076024534E+02 -0.30186154828E+02  0.69084034451E+02  0.00000000000E+00 0.  1.
         11    1    1    2    0    0 -0.40123539510E+02  0.26968041179E+02 -0.37201922071E+02  0.61001284196E+02  0.00000000000E+00 0. -1.
</event>
<event>
 7    1  0.2420569E-009  0.1542220E+03  0.7561462E-02  0.1195379E+00
         -1   -1    0    0    0  501 -0.00000000000E+00  0.00000000000E+00  0.16890549694E+03  0.16890549694E+03  0.00000000000E+00 0.  1.
          1   -1    0    0  501    0  0.00000000000E+00 -0.00000000000E+00 -0.19896752318E+03  0.19896752318E+03  0.00000000000E+00 0. -1.
         25    2    1    2    0    0  0.75727531514E+02  0.10647543415E+03  0.55325512698E+02  0.18915469373E+03  0.12508760409E+03 0.  0.
          5    1    3    3  502    0  0.65642845562E+02  0.78914206111E+01  0.60660916048E+02  0.89824700548E+02  0.41800000000E+01 0.  1.
         -5    1    3    3    0  502  0.10084685952E+02  0.98584013538E+02 -0.53354033504E+01  0.99329993179E+02  0.41800000000E+01 0.  1.
        -11    1    1    2    0    0 -0.68240794872E+02 -0.46519984937E+02 -0.84689845999E+02  0.11829321662E+03  0.00000000000E+00 0. -1.
         11    1    1    2    0    0 -0.74867366417E+01 -0.59955449212E+02 -0.69769293967E+00  0.60425109774E+02  0.00000000000E+00 0.  1.
</event>
<event>
 7    1  0.2420569E-009  0.1577568E+03  0.7561462E-02  0.1191253E+00
         -2   -1    0    0    0  501 -0.00000000000E+00  0.00000000000E+00  0.12519397809E+03  0.12519397809E+03  0.00000000000E+00 0.  1.
          2   -1    0    0  501    0  0.00000000000E+00 -0.00000000000E+00 -0.35155096533E+03  0.35155096533E+03  0.00000000000E+00 0. -1.
         25    2    1    2    0    0  0.14523336729E+03 -0.11412853551E+02 -0.23769715613E+03  0.30556625783E+03  0.12509122947E+03 0.  0.
          5    1    3    3  502    0  0.14717589220E+03 -0.29666198243E+02 -0.13754123993E+03  0.20365630765E+03  0.41800000000E+01 0.  1.
         -5    1    3    3    0  502 -0.19425249128E+01  0.18253344692E+02 -0.10015591620E+03  0.10190995018E+03  0.41800000000E+01 0.  1.
        -11    1    1    2    0    0 -0.60762737439E+02 -0.28368902141E+01  0.48504726657E+02  0.77800171692E+02  0.00000000000E+00 0. -1.
         11    1    1    2    0    0 -0.84470629851E+02  0.14249743765E+02 -0.37164557758E+02  0.93378513900E+02  0.00000000000E+00 0.  1.
</event>
<event>
 7    1  0.2420569E-009  0.8765330E+02  0.7561462E-02  0.1308636E+00
          3   -1    0    0  501    0  0.00000000000E+00  0.00000000000E+00  0.54085579464E+02  0.54085579464E+02  0.00000000000E+00 0. -1.
         -3   -1    0    0    0  501 -0.00000000000E+00 -0.00000000000E+00 -0.23031035234E+03  0.23031035234E+03  0.00000000000E+00 0.  1.
         25    2    1    2    0    0 -0.38926163977E+01  0.40185597638E+01 -0.10009732661E+03  0.16030699557E+03  0.12509019445E+03 0.  0.
          5    1    3    3  502    0  0.39882179628E+02 -0.39053942290E+02 -0.75576521649E+02  0.94048294428E+02  0.41800000000E+01 0. -1.
         -5    1    3    3    0  502 -0.43774796026E+02  0.43072502053E+02 -0.24520804966E+02  0.66258701137E+02  0.41800000000E+01 0. -1.
        -11    1    1    2    0    0 -0.86351642559E+01  0.24849637305E+02 -0.86925082847E+02  0.90818723642E+02  0.00000000000E+00 0.  1.
         11    1    1    2    0    0  0.12527780654E+02 -0.28868197069E+02  0.10797636589E+02  0.33270212593E+02  0.00000000000E+00 0. -1.
</event>
<event>
 7    1  0.2420569E-009  0.9291486E+02  0.7561462E-02  0.1295943E+00
          1   -1    0    0  501    0  0.00000000000E+00  0.00000000000E+00  0.69789428264E+02  0.69789428264E+02  0.00000000000E+00 0. -1.
         -1   -1    0    0    0  501 -0.00000000000E+00 -0.00000000000E+00 -0.17182179527E+03  0.17182179527E+03  0.00000000000E+00 0.  1.
         25    2    1    2    0    0 -0.98090528550E+00  0.20841636266E+02 -0.68505029627E+02  0.14413808779E+03  0.12509002074E+03 0.  0.
          5    1    3    3  502    0 -0.31708567424E+02 -0.43723591719E+02 -0.38608832586E+02  0.66522928939E+02  0.41800000000E+01 0.  1.
         -5    1    3    3    0  502  0.30727662139E+02  0.64565227986E+02 -0.29896197041E+02  0.77615158847E+02  0.41800000000E+01 0.  1.
        -11    1    1    2    0    0 -0.24568899062E+02  0.34095264809E+01  0.21038092388E+02  0.32524713731E+02  0.00000000000E+00 0. -1.
         11    1    1    2    0    0  0.25549804348E+02 -0.24251162747E+02 -0.54565429767E+02  0.64948422017E+02  0.00000000000E+00 0.  1.
</event>
<event>
 7    1  0.2420569E-009  0.1187357E+03  0.7561462E-02  0.1245197E+00
          2   -1    0    0  501    0  0.00000000000E+00  0.00000000000E+00  0.14513408354E+03  0.14513408354E+03  0.00000000000E+00 0. -1.
         -2   -1    0    0    0  501 -0.00000000000E+00 -0.00000000000E+00 -0.15436316803E+03  0.15436316803E+03  0.00000000000E+00 0.  1.
         25    2    1    2    0    0 -0.73542666878E+02 -0.37814006654E+02 -0.67048447633E+02  0.16426044108E+03  0.12509026830E+03 0.  0.
          5    1    3    3  502    0  0.28152814710E+02 -0.30287087437E+01  0.11733234022E+02  0.30933723238E+02  0.41800000000E+01 0.  1.
         -5    1    3    3    0  502 -0.10169548159E+03 -0.34785297910E+02 -0.78781681655E+02  0.13332671784E+03  0.41800000000E+01 0.  1.
        -11    1    1    2    0    0  0.67005346827E+01  0.33655955875E+02  0.59001110191E+02  0.68255047686E+02  0.00000000000E+00 0. -1.
         11    1    1    2    0    0  0.66842132195E+02  0.41580507786E+01 -0.11817470520E+01  0.66981762807E+02  0.00000000000E+00 0.  1.
</event>
<event>
 7    1  0.2420569E-009  0.1513410E+03  0.7561462E-02  0.1198835E+00
          2   -1    0    0  501    0  0.00000000000E+00  0.00000000000E+00  0.65146782748E+03  0.65146782748E+03  0.00000000000E+00 0. -1.
         -2   -1    0    0    0  501 -0.00000000000E+00 -0.00000000000E+00 -0.45343447708E+02  0.45343447708E+02  0.00000000000E+00 0.  1.
         25    2    1    2    0    0 -0.89559193135E+02 -0.90454285277E+02  0.23183313212E+03  0.29256888156E+03  0.12508845874E+03 0.  0.
          5    1    3    3  502    0 -0.85564279567E+02 -0.31798037772E+02  0.56122192950E+02  0.10723588059E+03  0.41800000000E+01 0. -1.
         -5    1    3    3    0  502 -0.39949135682E+01 -0.58656247505E+02  0.17571093917E+03  0.18533300097E+03  0.41800000000E+01 0. -1.
        -11    1    1    2    0    0  0.22497912601E+02 -0.15251621570E+02  0.56991215994E+02  0.63140848366E+02  0.00000000000E+00 0. -1.
         11    1    1    2    0    0  0.67061280534E+02  0.10570590685E+03  0.31730003166E+03  0.34110154526E+03  0.00000000000E+00 0.  1.
</event>
<event>
 7    1  0.2420569E-009  0.1228303E+03  0.7561462E-02  0.1238500E+00
         -2   -1    0    0    0  501 -0.00000000000E+00  0.00000000000E+00  0.42981020310E+02  0.42981020310E+02  0.00000000000E+00 0.  1.
          2   -1    0    0  501    0  0.00000000000E+00 -0.00000000000E+00 -0.49597362109E+03  0.49597362109E+03  0.00000000000E+00 0. -1.
         25    2    1    2    0    0  0.61679506708E+02  0.43327262082E+02 -0.35932399363E+03  0.38786901718E+03  0.12508808457E+03 0.  0.
          5    1    3    3  502    0  0.70842137218E+02  0.72063002605E+02 -0.18440631435E+03  0.21032081666E+03  0.41800000000E+01 0. -1.
         -5    1    3    3    0  502 -0.91626305096E+01 -0.28735740522E+02 -0.17491767928E+03  0.17754820052E+03  0.41800000000E+01 0. -1.
        -11    1    1    2    0    0 -0.45107008076E+02  0.19466351528E+02 -0.20448512102E+02  0.53213933012E+02  0.00000000000E+00 0.  1.
         11    1    1    2    0    0 -0.16572498632E+02 -0.62793613610E+02 -0.73220095046E+02  0.97871691207E+02  0.00000000000E+00 0. -1.
</event>
<event>
 7    1  0.2420569E-009  0.1150590E+03  0.7561462E-02  0.1251478E+00
         -1   -1    0    0    0  501 -0.00000000000E+00  0.00000000000E+00  0.23440281176E+02  0.23440281176E+02  0.00000000000E+00 0.  1.
          1   -1    0    0  501    0  0.00000000000E+00 -0.00000000000E+00 -0.74978879377E+03  0.74978879377E+03  0.00000000000E+00 0. -1.
         25    2    1    2    0    0  0.38860343969E+02  0.16172212056E+02 -0.58621667963E+03  0.60089020383E+03  0.12508946719E+03 0.  0.
          5    1    3    3  502    0  0.82863678688E+02  0.24364665138E+02 -0.35881207279E+03  0.36908481699E+03  0.41800000000E+01 0. -1.
         -5    1    3    3    0  502 -0.44003334719E+02 -0.81924530821E+01 -0.22740460684E+03  0.23180538684E+03  0.41800000000E+01 0. -1.
        -11    1    1    2    0    0 -0.16059650593E+02 -0.52998255488E+02 -0.63011369539E+02  0.83887783099E+02  0.00000000000E+00 0.  1.
         11    1    1    2    0    0 -0.22800693376E+02  0.36826043432E+02 -0.77120463419E+02  0.88451088017E+02  0.00000000000E+00 0. -1.
</event>
<event>
 7    1  0.2420569E-009  0.1249640E+03  0.7561462E-02  0.1235126E+00
         -2   -1    0    0    0  501 -0.00000000000E+00  0.00000000000E+00  0.15330350294E+03  0.15330350294E+03  0.00000000000E+00 0.  1.
          2   -1    0    0  501    0  0.00000000000E+00 -0.00000000000E+00 -0.47950560597E+03  0.47950560597E+03  0.00000000000E+00 0. -1.
         25    2    1    2    0    0  0.95074366909E+02  0.12947284811E+01  0.10021738166E+03  0.18636457642E+03  0.12508964862E+03 0.  0.
          5    1    3    3  502    0 -0.90065829172E+01  0.21552520254E+02 -0.16283341044E+02  0.28779320018E+02  0.41800000000E+01 0. -1.
         -5    1    3    3    0  502  0.10408094983E+03 -0.20257791773E+02  0.11650072270E+03  0.15758525640E+03  0.41800000000E+01 0. -1.
        -11    1    1    2    0    0 -0.45632780746E+02  0.36022790687E+02 -0.11428238751E+03  0.12822034247E+03  0.00000000000E+00 0.  1.
         11    1    1    2    0    0 -0.49441586163E+02 -0.37317519168E+02 -0.31213709718E+03  0.31822419003E+03  0.00000000000E+00 0. -1.
</event>
<event>
 7    1  0.2420569E-009  0.1577748E+03  0.7561462E-02  0.1191232E+00
          4   -1    0    0  501    0  0.00000000000E+00  0.00000000000E+00  0.40410202006E+03  0.40410202006E+03  0.00000000000E+00 0. -1.
         -4   -1    0    0    0  501 -0.00000000000E+00 -0.00000000000E+00 -0.98807870786E+02  0.98807870786E+02  0.00000000000E+00 0.  1.
         25    2    1    2    0    0  0.18217200298E+02  0.13131257472E+03  0.31776127492E+03  0.36632624786E+03  0.12509130014E+03 0.  0.
          5    1    3    3  502    0  0.63417896460E+02  0.11701910073E+03  0.21203975392E+03  0.25038695886E+03  0.41800000000E+01 0.  1.
         -5    1    3    3    0  502 -0.45200696162E+02  0.14293473994E+02  0.10572152100E+03  0.11593928900E+03  0.41800000000E+01 0.  1.
        -11    1    1    2    0    0  0.55230198180E+01 -0.42746533284E+02 -0.12547048401E+02  0.44890959884E+02  0.00000000000E+00 0. -1.
         11    1    1    2    0    0 -0.23740220116E+02 -0.88566041436E+02  0.79922762628E-01  0.91692683102E+02  0.00000000000E+00 0.  1.
</event>
<event>
 7    1  0.2420569E-009  0.1072498E+03  0.7561462E-02  0.1265749E+00
          2   -1    0    0  501    0  0.00000000000E+00  0.00000000000E+00  0.91537579978E+03  0.91537579978E+03  0.00000000000E+00 0. -1.
         -2   -1    0    0    0  501 -0.00000000000E+00 -0.00000000000E+00 -0.14294833817E+02  0.14294833817E+02  0.00000000000E+00 0.  1.
         25    2    1    2    0    0 -0.25297082629E+02  0.23858284051E+02  0.58224190493E+03  0.59654164721E+03  0.12508853221E+03 0.  0.
          5    1    3    3  502    0 -0.75964389629E+02  0.14470237294E+02  0.37863312068E+03  0.38647184727E+03  0.41800000000E+01 0.  1.
         -5    1    3    3    0  502  0.50667307001E+02  0.93880467571E+01  0.20360878425E+03  0.21006979994E+03  0.41800000000E+01 0.  1.
        -11    1    1    2    0    0  0.34143438935E+02 -0.48422098962E+02  0.28086068523E+03  0.28704215474E+03  0.00000000000E+00 0.  1.
         11    1    1    2    0    0 -0.88463563066E+01  0.24563814911E+02  0.37978375809E+02  0.46086831655E+02  0.00000000000E+00 0. -1.
</event>
<event>
 7    1  0.2420569E-009  0.6655129E+03  0.7561462E-02  0.9778098E-01
         -1   -1    0    0    0  501 -0.00000000000E+00  0.00000000000E+00  0.10256995274E+04  0.10256995274E+04  0.00000000000E+00 0.  1.
          1   -1    0    0  501    0  0.00000000000E+00 -0.00000000000E+00 -0.44286749023E+03  0.44286749023E+03  0.00000000000E+00 0. -1.
         25    2    1    2    0    0  0.46126193039E+03 -0.46267869458E+03  0.21446275222E+03  0.69890904716E+03  0.12508173836E+03 0.  0.
          5    1    3    3  502    0  0.42190424314E+03 -0.39371285579E+03  0.22355312300E+03  0.61887516867E+03  0.41800000000E+01 0. -1.
         -5    1    3    3    0  502  0.39357687251E+02 -0.68965838788E+02 -0.90903707812E+01  0.80033878492E+02  0.41800000000E+01 0. -1.
        -11    1    1    2    0    0 -0.21093862811E+03  0.99238904676E+02  0.10436538037E+03  0.25541260276E+03  0.00000000000E+00 0.  1.
         11    1    1    2    0    0 -0.25032330228E+03  0.36343978990E+03  0.26400390455E+03  0.51424536767E+03  0.00000000000E+00 0. -1.
</event>
<event>
 7    1  0.2420569E-009  0.1881715E+03  0.7561462E-02  0.1160121E+00
         -4   -1    0    0    0  501 -0.00000000000E+00  0.00000000000E+00  0.12071724598E+04  0.12071724598E+04  0.00000000000E+00 0. -1.
          4   -1    0    0  501    0  0.00000000000E+00 -0.00000000000E+00 -0.43723640295E+02  0.43723640295E+02  0.00000000000E+00 0.  1.
         25    2    1    2    0    0  0.16957116218E+03 -0.41112044249E+02  0.32476314201E+03  0.38931130257E+03  0.12509041800E+03 0.  0.
          5    1    3    3  502    0  0.30221296729E+02 -0.23487698016E+02  0.19257372107E+03  0.19638510427E+03  0.41800000000E+01 0. -1.
         -5    1    3    3    0  502  0.13934986545E+03 -0.17624346234E+02  0.13218942095E+03  0.19292619830E+03  0.41800000000E+01 0. -1.
        -11    1    1    2    0    0 -0.87662008104E+02  0.68177403920E+02  0.47318872238E+03  0.48604562858E+03  0.00000000000E+00 0. -1.
         11    1    1    2    0    0 -0.81909154077E+02 -0.27065359671E+02  0.36549695509E+03  0.37553916893E+03  0.00000000000E+00 0.  1.
</event>
<event>
 7    1  0.4885339E-009  0.9575497E+02  0.7561462E-02  0.1289485E+00
          1   -1    0    0  501    0  0.00000000000E+00  0.00000000000E+00  0.37886494264E+03  0.37886494264E+03  0.00000000000E+00 0. -1.
         -1   -1    0    0    0  501 -0.00000000000E+00 -0.00000000000E+00 -0.55948507214E+02  0.55948507214E+02  0.00000000000E+00 0.  1.
         25    2    1    2    0    0 -0.88887407225E+02  0.33244054076E+02  0.14940578112E+03  0.21674170281E+03  0.12509492401E+03 0.  0.
          5    1    3    3  502    0 -0.31621989832E+02  0.96252389753E+01  0.15100337212E+03  0.15463533315E+03  0.41800000000E+01 0. -1.
         -5    1    3    3    0  502 -0.57265417393E+02  0.23618815100E+02 -0.15975910037E+01  0.62106369665E+02  0.41800000000E+01 0. -1.
        -11    1    1    2    0    0  0.44938520838E+02 -0.87150921207E+01  0.98188485588E+01  0.46817019051E+02  0.00000000000E+00 0.  1.
         11    1    1    2    0    0  0.43948886387E+02 -0.24528961955E+02  0.16369180575E+03  0.17125472799E+03  0.00000000000E+00 0. -1.
</event>
<event>
 7    1  0.2420569E-009  0.8474235E+02  0.7561462E-02  0.1316108E+00
         -1   -1    0    0    0  501 -0.00000000000E+00  0.00000000000E+00  0.77773482340E+02  0.77773482340E+02  0.00000000000E+00 0.  1.
          1   -1    0    0  501    0  0.00000000000E+00 -0.00000000000E+00 -0.15726477017E+03  0.15726477017E+03  0.00000000000E+00 0. -1.
         25    2    1    2    0    0 -0.18015927910E+02 -0.12493886479E+02 -0.56914810188E+02  0.13916553470E+03  0.12508828711E+03 0.  0.
          5    1    3    3  502    0 -0.41711354353E+02  0.31254960988E+02  0.12400809619E+02  0.53739763188E+02  0.41800000000E+01 0. -1.
         -5    1    3    3    0  502  0.23695426443E+02 -0.43748847467E+02 -0.69315619807E+02  0.85425771511E+02  0.41800000000E+01 0. -1.
        -11    1    1    2    0    0  0.15054898916E+02 -0.25254811526E+02  0.22485548909E+02  0.37014259365E+02  0.00000000000E+00 0.  1.
         11    1    1    2    0    0  0.29610289938E+01  0.37748698005E+02 -0.45062026552E+02  0.58858458447E+02  0.00000000000E+00 0. -1.
</event>
<event>
 7    1  0.2420569E-009  0.8850143E+02  0.7561462E-02  0.1306522E+00
          2   -1    0    0  501    0  0.00000000000E+00  0.00000000000E+00  0.50354378385E+03  0.50354378385E+03  0.00000000000E+00 0. -1.
         -2   -1    0    0    0  501 -0.00000000000E+00 -0.00000000000E+00 -0.25873298978E+02  0.25873298978E+02  0.00000000000E+00 0.  1.
         25    2    1    2    0    0  0.74346935747E+00  0.20570958879E+02  0.38108115072E+03  0.40161481732E+03  0.12509157031E+03 0.  0.
          5    1    3    3  502    0  0.10435798465E+01 -0.47847571303E+02  0.24002233680E+03  0.24478291137E+03  0.41800000000E+01 0. -1.
         -5    1    3    3    0  502 -0.30011048905E+00  0.68418530182E+02  0.14105881392E+03  0.15683190595E+03  0.41800000000E+01 0. -1.
        -11    1    1    2    0    0  0.15578634211E+01  0.19858772445E+02  0.82585807883E+02  0.84954184388E+02  0.00000000000E+00 0. -1.
         11    1    1    2    0    0 -0.23013327786E+01 -0.40429731324E+02  0.14003526271E+02  0.42848081118E+02  0.00000000000E+00 0.  1.
</event>
<event>
 7    1  0.2420569E-009  0.1436871E+03  0.7561462E-02  0.1208452E+00
          2   -1    0    0  501    0  0.00000000000E+00  0.00000000000E+00  0.14860778228E+04  0.14860778228E+04  0.00000000000E+00 0. -1.
         -2   -1    0    0    0  501 -0.00000000000E+00 -0.00000000000E+00 -0.20951755995E+02  0.20951755995E+02  0.00000000000E+00 0.  1.
         25    2    1    2    0    0  0.85060930969E+02 -0.54831989346E+02  0.11877315425E+04  0.11985807127E+04  0.12509036221E+03 0.  0.
          5    1    3    3  502    0  0.11484783798E+03 -0.44593322221E+02  0.10510677111E+04  0.10582718913E+04  0.41800000000E+01 0.  1.
         -5    1    3    3    0  502 -0.29786907007E+02 -0.10238667125E+02  0.13666383146E+03  0.14030882140E+03  0.41800000000E+01 0.  1.
        -11    1    1    2    0    0 -0.80091102723E+02  0.28839177339E+01  0.19611805373E+03  0.21186125818E+03  0.00000000000E+00 0. -1.
         11    1    1    2    0    0 -0.49698282460E+01  0.51948071612E+02  0.81276470511E+02  0.96587607879E+02  0.00000000000E+00 0.  1.
</event>
<event>
 7    1  0.2420569E-009  0.1060481E+03  0.7561462E-02  0.1268068E+00
         -2   -1    0    0    0  501 -0.00000000000E+00  0.00000000000E+00  0.22058114681E+02  0.22058114681E+02  0.00000000000E+00 0.  1.
          2   -1    0    0  501    0  0.00000000000E+00 -0.00000000000E+00 -0.96193940533E+03  0.96193940533E+03  0.00000000000E+00 0. -1.
         25    2    1    2    0    0  0.22143216897E+02  0.26471732148E+02 -0.82353944333E+03  0.83370009594E+03  0.12509020981E+03 0.  0.
          5    1    3    3  502    0  0.35893119959E+01  0.71714988453E+02 -0.62758088770E+03  0.63168913695E+03  0.41800000000E+01 0.  1.
         -5    1    3    3    0  502  0.18553904901E+02 -0.45243256306E+02 -0.19595855562E+03  0.20201095899E+03  0.41800000000E+01 0.  1.
        -11    1    1    2    0    0  0.17606314466E+02 -0.44192742067E+02 -0.82239847838E+02  0.95007227793E+02  0.00000000000E+00 0. -1.
         11    1    1    2    0    0 -0.39749531363E+02  0.17721009920E+02 -0.34101999485E+02  0.55290196283E+02  0.00000000000E+00 0.  1.
</event>
<event>
 7    1  0.2420569E-009  0.1444937E+03  0.7561462E-02  0.1207407E+00
         -2   -1    0    0    0  501 -0.00000000000E+00  0.00000000000E+00  0.10702313185E+03  0.10702313185E+03  0.00000000000E+00 0.  1.
          2   -1    0    0  501    0  0.00000000000E+00 -0.00000000000E+00 -0.24625547490E+03  0.24625547490E+03  0.00000000000E+00 0. -1.
         25    2    1    2    0    0  0.11305931204E+03 -0.25743399551E+02 -0.10790045293E+03  0.20183113727E+03  0.12509264395E+03 0.  0.
          5    1    3    3  502    0  0.12239779343E+03 -0.10411878264E+02 -0.12598465149E+03  0.17600918117E+03  0.41800000000E+01 0.  1.
         -5    1    3    3    0  502 -0.93384813887E+01 -0.15331521287E+02  0.18084198554E+02  0.25821956102E+02  0.41800000000E+01 0.  1.
        -11    1    1    2    0    0 -0.12419847465E+03  0.52379309729E+01 -0.30971156022E+02  0.12810897522E+03  0.00000000000E+00 0.  1.
         11    1    1    2    0    0  0.11139162608E+02  0.20505468578E+02 -0.36073410181E+00  0.23338494259E+02  0.00000000000E+00 0. -1.
</event>
<event>
 7    1  0.2420569E-009  0.1014533E+03  0.7561462E-02  0.1277269E+00
         -2   -1    0    0    0  501 -0.00000000000E+00  0.00000000000E+00  0.59585737534E+03  0.59585737534E+03  0.00000000000E+00 0. -1.
          2   -1    0    0  501    0  0.00000000000E+00 -0.00000000000E+00 -0.23607997435E+02  0.23607997435E+02  0.00000000000E+00 0.  1.
         25    2    1    2    0    0  0.35207758991E+02 -0.31058378044E+02  0.34316648814E+03  0.36825926627E+03  0.12508972567E+03 0.  0.
          5    1    3    3  502    0 -0.31711569274E+02  0.26631175243E+02  0.73618137699E+02  0.84569177121E+02  0.41800000000E+01 0.  1.
         -5    1    3    3    0  502  0.66919328265E+02 -0.57689553286E+02  0.26954835044E+03  0.28369008915E+03  0.41800000000E+01 0.  1.
        -11    1    1    2    0    0 -0.20417908295E+01  0.38736630142E+02  0.29481017445E+02  0.48721923342E+02  0.00000000000E+00 0.  1.
         11    1    1    2    0    0 -0.33165968161E+02 -0.76782520987E+01  0.19960187232E+03  0.20248418317E+03  0.00000000000E+00 0. -1.
</event>
<event>
 7    1  0.2420569E-009  0.1133884E+03  0.7561462E-02  0.1254421E+00
         -1   -1    0    0    0  501 -0.00000000000E+00  0.00000000000E+00  0.20616481501E+03  0.20616481501E+03  0.00000000000E+00 0.  1.
          1   -1    0    0  501    0  0.00000000000E+00 -0.00000000000E+00 -0.69681866262E+02  0.69681866262E+02  0.00000000000E+00 0. -1.
         25    2    1    2    0    0  0.20365926762E+02 -0.36625760014E+02  0.92848414750E+02  0.16132081337E+03  0.12508940577E+03 0.  0.
          5    1    3    3  502    0  0.58964162980E+01  0.45635774694E+02  0.19752571329E+02  0.50249658021E+02  0.41800000000E+01 0.  1.
         -5    1    3    3    0  502  0.14469510464E+02 -0.82261534708E+02  0.73095843421E+02  0.11107115535E+03  0.41800000000E+01 0.  1.
        -11    1    1    2    0    0 -0.66949987555E+01 -0.29074722530E+02  0.36346237070E+02  0.47023520155E+02  0.00000000000E+00 0.  1.
         11    1    1    2    0    0 -0.13670928006E+02  0.65700482544E+02  0.72882969286E+01  0.67502347746E+02  0.00000000000E+00 0. -1.
</event>
<event>
 7    1  0.2420569E-009  0.1016646E+03  0.7561462E-02  0.1276834E+00
         -2   -1    0    0    0  501 -0.00000000000E+00  0.00000000000E+00  0.10589348739E+03  0.10589348739E+03  0.00000000000E+00 0.  1.
          2   -1    0    0  501    0  0.00000000000E+00 -0.00000000000E+00 -0.16959225739E+03  0.16959225739E+03  0.00000000000E+00 0. -1.
         25    2    1    2    0    0  0.85353689191E+02 -0.27011202524E+02 -0.73337954900E+02  0.17041389492E+03  0.12509029791E+03 0.  0.
          5    1    3    3  502    0  0.47151269769E+02  0.95746986604E+01 -0.99985199651E+02  0.11103796488E+03  0.41800000000E+01 0. -1.
         -5    1    3    3    0  502  0.38202419421E+02 -0.36585901184E+02  0.26647244751E+02  0.59375930038E+02  0.41800000000E+01 0. -1.
        -11    1    1    2    0    0 -0.98055083968E+01  0.24493986649E+02 -0.77675833024E+01  0.27503431190E+02  0.00000000000E+00 0. -1.
         11    1    1    2    0    0 -0.75548180794E+02  0.25172158752E+01  0.17406768205E+02  0.77568418679E+02  0.00000000000E+00 0.  1.
</event>
<event>
 7    1  0.2420569E-009  0.1403023E+03  0.7561462E-02  0.1212923E+00
         -2   -1    0    0    0  501 -0.00000000000E+00  0.00000000000E+00  0.94140848908E+01  0.94140848908E+01  0.00000000000E+00 0. -1.
          2   -1    0    0  501    0  0.00000000000E+00 -0.00000000000E+00 -0.25002262282E+04  0.25002262282E+04  0.00000000000E+00 0.  1.
         25    2    1    2    0    0 -0.86316780176E+02  0.33654696613E+02 -0.17697984211E+04  0.17766303702E+04  0.12508315580E+03 0.  0.
          5    1    3    3  502    0  0.25097974895E+02 -0.11911230009E+02 -0.17012853224E+03  0.17243252485E+03  0.41800000000E+01 0. -1.
         -5    1    3    3    0  502 -0.11141475507E+03  0.45565926621E+02 -0.15996698888E+04  0.16041978453E+04  0.41800000000E+01 0. -1.
        -11    1    1    2    0    0  0.26565203998E+02 -0.60865467463E+02 -0.35931365383E+03  0.36539925701E+03  0.00000000000E+00 0.  1.
         11    1    1    2    0    0  0.59751576178E+02  0.27210770850E+02 -0.36170006837E+03  0.36761068586E+03  0.00000000000E+00 0. -1.
</event>
<event>
 7    1  0.2420569E-009  0.8677703E+02  0.7561462E-02  0.1310850E+00
         -4   -1    0    0    0  501 -0.00000000000E+00  0.00000000000E+00  0.47677060530E+02  0.47677060530E+02  0.00000000000E+00 0.  1.
          4   -1    0    0  501    0  0.00000000000E+00 -0.00000000000E+00 -0.27798389880E+03  0.27798389880E+03  0.00000000000E+00 0. -1.
         25    2    1    2    0    0  0.36902786583E+02  0.16583024662E+02 -0.15796156282E+03  0.20551259573E+03  0.12508700696E+03 0.  0.
          5    1    3    3  502    0 -0.14135073282E+02 -0.22895700659E+02  0.71823074963E+01  0.28161522444E+02  0.41800000000E+01 0.  1.
         -5    1    3    3    0  502  0.51037859865E+02  0.39478725321E+02 -0.16514387032E+03  0.17735107329E+03  0.41800000000E+01 0.  1.
        -11    1    1    2    0    0  0.21523187602E+02 -0.51264038105E+01 -0.53183520378E+02  0.57602208815E+02  0.00000000000E+00 0. -1.
         11    1    1    2    0    0 -0.58425974185E+02 -0.11456620851E+02 -0.19161755070E+02  0.62546154784E+02  0.00000000000E+00 0.  1.
</event>
<event>
 7    1  0.2420569E-009  0.1109676E+03  0.7561462E-02  0.1258788E+00
          2   -1    0    0  501    0  0.00000000000E+00  0.00000000000E+00  0.13146129012E+03  0.13146129012E+03  0.00000000000E+00 0. -1.
         -2   -1    0    0    0  501 -0.00000000000E+00 -0.00000000000E+00 -0.13604727371E+03  0.13604727371E+03  0.00000000000E+00 0.  1.
         25    2    1    2    0    0  0.55002465202E+02  0.46154753879E+02 -0.21710047521E+02  0.14585954233E+03  0.12509255550E+03 0.  0.
          5    1    3    3  502    0 -0.36976449045E+02  0.20785534721E+02 -0.26577284197E+02  0.50230674621E+02  0.41800000000E+01 0.  1.
         -5    1    3    3    0  502  0.91978914248E+02  0.25369219158E+02  0.48672366752E+01  0.95628867711E+02  0.41800000000E+01 0.  1.
        -11    1    1    2    0    0  0.10943933010E+00 -0.24646308800E+02 -0.34996511776E+02  0.42804302948E+02  0.00000000000E+00 0.  1.
         11    1    1    2    0    0 -0.55111904533E+02 -0.21508445079E+02  0.52120575702E+02  0.78844718545E+02  0.00000000000E+00 0. -1.
</event>
<event>
 7    1  0.2420569E-009  0.1884594E+03  0.7561462E-02  0.1159858E+00
          1   -1    0    0  501    0  0.00000000000E+00  0.00000000000E+00  0.56362252561E+03  0.56362252561E+03  0.00000000000E+00 0. -1.
         -1   -1    0    0    0  501 -0.00000000000E+00 -0.00000000000E+00 -0.70629465124E+02  0.70629465124E+02  0.00000000000E+00 0.  1.
         25    2    1    2    0    0 -0.62471472232E+02  0.15118084262E+03  0.20105227377E+03  0.28779910019E+03  0.12509185929E+03 0.  0.
          5    1    3    3  502    0 -0.25486063648E+02  0.15914742774E+03  0.18775126120E+03  0.24747818425E+03  0.41800000000E+01 0. -1.
         -5    1    3    3    0  502 -0.36985408585E+02 -0.79665851158E+01  0.13301012566E+02  0.40320915935E+02  0.41800000000E+01 0. -1.
        -11    1    1    2    0    0  0.41201196660E+02 -0.15082597858E+03  0.21010414114E+03  0.26189647677E+03  0.00000000000E+00 0.  1.
         11    1    1    2    0    0  0.21270275572E+02 -0.35486404493E+00  0.81836645581E+02  0.84556413780E+02  0.00000000000E+00 0. -1.
</event>
<event>
 7    1  0.2420569E-009  0.1335353E+03  0.7561462E-02  0.1222302E+00
         -3   -1    0    0    0  501 -0.00000000000E+00  0.00000000000E+00  0.11210547970E+03  0.11210547970E+03  0.00000000000E+00 0.  1.
          3   -1    0    0  501    0  0.00000000000E+00 -0.00000000000E+00 -0.20538334295E+03  0.20538334295E+03  0.00000000000E+00 0. -1.
         25    2    1    2    0    0 -0.68998534334E+02 -0.50991071463E+02 -0.95606920195E+02  0.17930059678E+03  0.12508850350E+03 0.  0.
          5    1    3    3  502    0  0.12332159824E+02  0.26497354037E+02  0.31209009776E+01  0.29688454991E+02  0.41800000000E+01 0.  1.
         -5    1    3    3    0  502 -0.81330694158E+02 -0.77488425500E+02 -0.98727821172E+02  0.14961214179E+03  0.41800000000E+01 0.  1.
        -11    1    1    2    0    0 -0.76277801634E+01  0.47838525245E+02  0.29626115612E+02  0.56783926019E+02  0.00000000000E+00 0.  1.
         11    1    1    2    0    0  0.76626314498E+02  0.31525462175E+01 -0.27297058676E+02  0.81404299846E+02  0.00000000000E+00 0. -1.
</event>
<event>
 7    1  0.2420569E-009  0.1031840E+03  0.7561462E-02  0.1273739E+00
         -1   -1    0    0    0  501 -0.00000000000E+00  0.00000000000E+00  0.40879190568E+03  0.40879190568E+03  0.00000000000E+00 0.  1.
          1   -1    0    0  501    0  0.00000000000E+00 -0.00000000000E+00 -0.44039058076E+02  0.44039058076E+02  0.00000000000E+00 0. -1.
         25    2    1    2    0    0 -0.36786773705E+02  0.63060063433E+02  0.15040207281E+03  0.20880066822E+03  0.12508835767E+03 0.  0.
          5    1    3    3  502    0 -0.58543364388E+02  0.48591932570E+02  0.16267239789E+03  0.17963374644E+03  0.41800000000E+01 0. -1.
         -5    1    3    3    0  502  0.21756590683E+02  0.14468130863E+02 -0.12270325081E+02  0.29166921785E+02  0.41800000000E+01 0. -1.
        -11    1    1    2    0    0  0.59060826759E+02 -0.52660801587E+02  0.20109247989E+03  0.21610073288E+03  0.00000000000E+00 0.  1.
         11    1    1    2    0    0 -0.22274053054E+02 -0.10399261846E+02  0.13258294905E+02  0.27929562657E+02  0.00000000000E+00 0. -1.
</event>
<event>
 7    1  0.2420569E-009  0.1572285E+03  0.7561462E-02  0.1191862E+00
          3   -1    0    0  501    0  0.00000000000E+00  0.00000000000E+00  0.24006188521E+03  0.24006188521E+03  0.00000000000E+00 0. -1.
         -3   -1    0    0    0  501 -0.00000000000E+00 -0.00000000000E+00 -0.12633930186E+03  0.12633930186E+03  0.00000000000E+00 0.  1.
         25    2    1    2    0    0  0.12000714700E+03 -0.48177104436E+02  0.18545178666E+02  0.18086993941E+03  0.12508901874E+03 0.  0.
          5    1    3    3  502    0  0.11121329902E+03  0.48070239293E+01  0.45863818404E+02  0.12046770354E+03  0.41800000000E+01 0. -1.
         -5    1    3    3    0  502  0.87938479777E+01 -0.52984128365E+02 -0.27318639738E+02  0.60402235869E+02  0.41800000000E+01 0. -1.
        -11    1    1    2    0    0 -0.21773058771E+02  0.46044333041E+02  0.65335125574E+02  0.82842171188E+02  0.00000000000E+00 0. -1.
         11    1    1    2    0    0 -0.98234088227E+02  0.21327713952E+01  0.29842279115E+02  0.10268907647E+03  0.00000000000E+00 0.  1.
</event>
<event>
 7    1  0.2420569E-009  0.7336369E+02  0.7561462E-02  0.1349014E+00
         -3   -1    0    0    0  501 -0.00000000000E+00  0.00000000000E+00  0.78156227744E+02  0.78156227744E+02  0.00000000000E+00 0.  1.
          3   -1    0    0  501    0  0.00000000000E+00 -0.00000000000E+00 -0.16847669331E+03  0.16847669331E+03  0.00000000000E+00 0. -1.
         25    2    1    2    0    0  0.31403821017E+01 -0.40744224887E+02 -0.50942415926E+02  0.14111630737E+03  0.12509487840E+03 0.  0.
          5    1    3    3  502    0  0.59087893373E+01  0.11414021798E+02  0.36641556199E+02  0.39054701711E+02  0.41800000000E+01 0. -1.
         -5    1    3    3    0  502 -0.27684072356E+01 -0.52158246685E+02 -0.87583972125E+02  0.10206160566E+03  0.41800000000E+01 0. -1.
        -11    1    1    2    0    0 -0.33860133283E+02  0.36524527275E+02 -0.52031015480E+02  0.72026219465E+02  0.00000000000E+00 0. -1.
         11    1    1    2    0    0  0.30719751181E+02  0.42196976126E+01  0.12652965840E+02  0.33490394222E+02  0.00000000000E+00 0.  1.
</event>
<event>
 7    1  0.2420569E-009  0.1757535E+03  0.7561462E-02  0.1171977E+00
          2   -1    0    0  501    0  0.00000000000E+00  0.00000000000E+00  0.11168021919E+04  0.11168021919E+04  0.00000000000E+00 0. -1.
         -2   -1    0    0    0  501 -0.00000000000E+00 -0.00000000000E+00 -0.49453796742E+02  0.49453796742E+02  0.00000000000E+00 0.  1.
         25    2    1    2    0    0  0.11846716078E+03 -0.10741976063E+03  0.89345651583E+03  0.91623494427E+03  0.12509378188E+03 0.  0.
          5    1    3    3  502    0  0.25964547422E+02 -0.84094378431E+02  0.23659995527E+03  0.25247382724E+03  0.41800000000E+01 0.  1.
         -5    1    3    3    0  502  0.92502613358E+02 -0.23325382201E+02  0.65685656056E+03  0.66376111703E+03  0.41800000000E+01 0.  1.
        -11    1    1    2    0    0 -0.41577261722E+02  0.81948610008E+01  0.99322955005E+01  0.43525566430E+02  0.00000000000E+00 0.  1.
         11    1    1    2    0    0 -0.76889899058E+02  0.99224899632E+02  0.16395958386E+03  0.20649547797E+03  0.00000000000E+00 0. -1.
</event>
<event>
 7    1  0.2420569E-009  0.1140063E+03  0.7561462E-02  0.1253326E+00
         -1   -1    0    0    0  501 -0.00000000000E+00  0.00000000000E+00  0.67266499268E+03  0.67266499268E+03  0.00000000000E+00 0.  1.
          1   -1    0    0  501    0  0.00000000000E+00 -0.00000000000E+00 -0.26256192315E+02  0.26256192315E+02  0.00000000000E+00 0. -1.
         25    2    1    2    0    0 -0.76179068461E+02 -0.38831018226E+01  0.36368210160E+03  0.39208518918E+03  0.12509114917E+03 0.  0.
          5    1    3    3  502    0 -0.10527313448E+03 -0.11209440482E+02  0.20741213815E+03  0.23290631561E+03  0.41800000000E+01 0. -1.
         -5    1    3    3    0  502  0.29094066017E+02  0.73263386596E+01  0.15626996345E+03  0.15917887357E+03  0.41800000000E+01 0. -1.
        -11    1    1    2    0    0  0.76834240125E+02 -0.10344138614E+02  0.28212242122E+03  0.29258086440E+03  0.00000000000E+00 0.  1.
         11    1    1    2    0    0 -0.65517166385E+00  0.14227240436E+02  0.60427755259E+00  0.14255131417E+02  0.00000000000E+00 0. -1.
</event>
<event>
 7    1  0.2420569E-009  0.1123628E+03  0.7561462E-02  0.1256256E+00
         -2   -1    0    0    0  501 -0.00000000000E+00  0.00000000000E+00  0.66295700332E+02  0.66295700332E+02  0.00000000000E+00 0.  1.
          2   -1    0    0  501    0  0.00000000000E+00 -0.00000000000E+00 -0.22009754396E+03  0.22009754396E+03  0.00000000000E+00 0. -1.
         25    2    1    2    0    0 -0.32139264464E+02 -0.18677973414E-01 -0.38458034700E+02  0.13475796644E+03  0.12509099254E+03 0.  0.
          5    1    3    3  502    0 -0.79749625872E+02 -0.94990243760E+01 -0.24627758083E+02  0.84108460687E+02  0.41800000000E+01 0. -1.
         -5    1    3    3    0  502  0.47610361408E+02  0.94803464025E+01 -0.13830276617E+02  0.50649505749E+02  0.41800000000E+01 0. -1.
        -11    1    1    2    0    0  0.48065291122E+00 -0.42536443125E+02 -0.33676108815E+02  0.54255509635E+02  0.00000000000E+00 0.  1.
         11    1    1    2    0    0  0.31658611553E+02  0.42555121098E+02 -0.81667700116E+02  0.97379768224E+02  0.00000000000E+00 0. -1.
</event>
<event>
 7    1  0.2420569E-009  0.1846362E+03  0.7561462E-02  0.1163390E+00
          2   -1    0    0  501    0  0.00000000000E+00  0.00000000000E+00  0.10895969170E+03  0.10895969170E+03  0.00000000000E+00 0.  1.
         -2   -1    0    0    0  501 -0.00000000000E+00 -0.00000000000E+00 -0.33307209315E+03  0.33307209315E+03  0.00000000000E+00 0. -1.
         25    2    1    2    0    0 -0.14985358475E+03 -0.31862823955E+02 -0.14261439075E+03  0.24384008498E+03  0.12509111151E+03 0.  0.
          5    1    3    3  502    0 -0.79951792920E+02 -0.72564590832E+02 -0.45131919352E+02  0.11709940896E+03  0.41800000000E+01 0. -1.
         -5    1    3    3    0  502 -0.69901791834E+02  0.40701766877E+02 -0.97482471395E+02  0.12674067602E+03  0.41800000000E+01 0. -1.
        -11    1    1    2    0    0  0.16338536031E+03  0.32853565319E+02 -0.78850001906E+02  0.18436771821E+03  0.00000000000E+00 0. -1.
         11    1    1    2    0    0 -0.13531775559E+02 -0.99074136409E+00 -0.26480087992E+01  0.13823981657E+02  0.00000000000E+00 0.  1.
</event>
<event>
 7    1  0.2420569E-009  0.1196527E+03  0.7561462E-02  0.1243671E+00
         -2   -1    0    0    0  501 -0.00000000000E+00  0.00000000000E+00  0.15386342282E+03  0.15386342282E+03  0.00000000000E+00 0.  1.
          2   -1    0    0  501    0  0.00000000000E+00 -0.00000000000E+00 -0.11523083040E+03  0.11523083040E+03  0.00000000000E+00 0. -1.
         25    2    1    2    0    0  0.56562343443E+02 -0.20280803278E+02  0.70727810362E+02  0.15576249092E+03  0.12509564638E+03 0.  0.
          5    1    3    3  502    0 -0.78252881052E+01 -0.59888810306E+02  0.16865626292E+02  0.62847645016E+02  0.41800000000E+01 0. -1.
         -5    1    3    3    0  502  0.64387631548E+02  0.39608007028E+02  0.53862184070E+02  0.92914845907E+02  0.41800000000E+01 0. -1.
        -11    1    1    2    0    0 -0.78780582489E+02  0.16995140944E+02 -0.89629741812E+01  0.81089764454E+02  0.00000000000E+00 0.  1.
         11    1    1    2    0    0  0.22218239046E+02  0.32856623343E+01 -0.23132243764E+02  0.32241997842E+02  0.00000000000E+00 0. -1.
</event>
<event>
 7    1  0.2420569E-009  0.1304606E+03  0.7561462E-02  0.1226774E+00
         -2   -1    0    0    0  501 -0.00000000000E+00  0.00000000000E+00  0.15991245879E+02  0.15991245879E+02  0.00000000000E+00 0.  1.
          2   -1    0    0  501    0  0.00000000000E+00 -0.00000000000E+00 -0.10818042526E+04  0.10818042526E+04  0.00000000000E+00 0. -1.
         25    2    1    2    0    0  0.48217159879E+02  0.55362689391E+02 -0.53175031617E+03  0.55117621044E+03  0.12508754665E+03 0.  0.
          5    1    3    3  502    0  0.56971857173E+02 -0.26231532841E+02 -0.22697300651E+03  0.23551667437E+03  0.41800000000E+01 0.  1.
         -5    1    3    3    0  502 -0.87546972936E+01  0.81594222233E+02 -0.30477730966E+03  0.31565953607E+03  0.41800000000E+01 0.  1.
        -11    1    1    2    0    0 -0.28665835303E+02 -0.79686145278E+02 -0.36445286395E+03  0.37416240044E+03  0.00000000000E+00 0.  1.
         11    1    1    2    0    0 -0.19551324577E+02  0.24323455887E+02 -0.16960982658E+03  0.17245688757E+03  0.00000000000E+00 0. -1.
</event>
<event>
 7    1  0.2420569E-009  0.1357436E+03  0.7561462E-02  0.1219174E+00
         -1   -1    0    0    0  501 -0.00000000000E+00  0.00000000000E+00  0.10349588234E+03  0.10349588234E+03  0.00000000000E+00 0.  1.
          1   -1    0    0  501    0  0.00000000000E+00 -0.00000000000E+00 -0.25697649467E+03  0.25697649467E+03  0.00000000000E+00 0. -1.
         25    2    1    2    0    0 -0.62992547800E+02 -0.74151235520E+02 -0.42755722086E+00  0.15847621351E+03  0.12509220853E+03 0.  0.
          5    1    3    3  502    0 -0.13028423485E+02 -0.89415050912E+02  0.33029004198E+02  0.96297345064E+02  0.41800000000E+01 0. -1.
         -5    1    3    3    0  502 -0.49964124315E+02  0.15263815392E+02 -0.33456561419E+02  0.62178868443E+02  0.41800000000E+01 0. -1.
        -11    1    1    2    0    0  0.35849228809E+02  0.90217406163E+02 -0.94451847260E+02  0.13544555745E+03  0.00000000000E+00 0.  1.
         11    1    1    2    0    0  0.27143318991E+02 -0.16066170643E+02 -0.58601207850E+02  0.66550606057E+02  0.00000000000E+00 0. -1.
</event>
<event>
 7    1  0.2420569E-009  0.2666651E+03  0.7561462E-02  0.1103204E+00
          2   -1    0    0  501    0  0.00000000000E+00  0.00000000000E+00  0.33635356184E+04  0.33635356184E+04  0.00000000000E+00 0. -1.
         -2   -1    0    0    0  501 -0.00000000000E+00 -0.00000000000E+00 -0.22987713231E+02  0.22987713231E+02  0.00000000000E+00 0.  1.
         25    2    1    2    0    0  0.92086787153E+02  0.22530972438E+03  0.21848196954E+04  0.22018921755E+04  0.12509037785E+03 0.  0.
          5    1    3    3  502    0  0.12267196247E+03  0.16327759749E+03  0.16041769323E+04  0.16171298918E+04  0.41800000000E+01 0. -1.
         -5    1    3    3    0  502 -0.30585175315E+02  0.62032126889E+02  0.58064276307E+03  0.58476228369E+03  0.41800000000E+01 0. -1.
        -11    1    1    2    0    0 -0.11021761997E+03 -0.18127504577E+03  0.92060787363E+03  0.94473669504E+03  0.00000000000E+00 0.  1.
         11    1    1    2    0    0  0.18130832821E+02 -0.44034678606E+02  0.23512033614E+03  0.23989446114E+03  0.00000000000E+00 0. -1.
</event>
<event>
 7    1  0.2420569E-009  0.1005160E+03  0.7561462E-02  0.1279215E+00
         -1   -1    0    0    0  501 -0.00000000000E+00  0.00000000000E+00  0.71156584876E+02  0.71156584876E+02  0.00000000000E+00 0.  1.
          1   -1    0    0  501    0  0.00000000000E+00 -0.00000000000E+00 -0.19023891874E+03  0.19023891874E+03  0.00000000000E+00 0. -1.
         25    2    1    2    0    0 -0.32710456746E+02 -0.13729091613E+02 -0.53208068947E+02  0.14048940798E+03  0.12509081987E+03 0.  0.
          5    1    3    3  502    0 -0.27565811162E+02 -0.54177294141E+02  0.13300451249E+02  0.62365275185E+02  0.41800000000E+01 0.  1.
         -5    1    3    3    0  502 -0.51446455838E+01  0.40448202528E+02 -0.66508520196E+02  0.78124132793E+02  0.41800000000E+01 0.  1.
        -11    1    1    2    0    0  0.48640145646E+02 -0.26822519376E+02 -0.24106719241E+02  0.60551178574E+02  0.00000000000E+00 0.  1.
         11    1    1    2    0    0 -0.15929688900E+02  0.40551610989E+02 -0.41767545677E+02  0.60354917066E+02  0.00000000000E+00 0. -1.
</event>
<event>
 7    1  0.2420569E-009  0.7612473E+02  0.7561462E-02  0.1340423E+00
         -2   -1    0    0    0  501 -0.00000000000E+00  0.00000000000E+00  0.74202820941E+02  0.74202820941E+02  0.00000000000E+00 0.  1.
          2   -1    0    0  501    0  0.00000000000E+00 -0.00000000000E+00 -0.22873514071E+03  0.22873514071E+03  0.00000000000E+00 0. -1.
         25    2    1    2    0    0 -0.61641723173E+02  0.30653772169E+02 -0.42469880207E+02  0.14896356532E+03  0.12508835791E+03 0.  0.
          5    1    3    3  502    0 -0.38214874023E+01 -0.87458615688E+01 -0.72111911013E+02  0.72860784861E+02  0.41800000000E+01 0. -1.
         -5    1    3    3    0  502 -0.57820235770E+02  0.39399633738E+02  0.29642030806E+02  0.76102780458E+02  0.41800000000E+01 0. -1.
        -11    1    1    2    0    0  0.51821440682E+02 -0.16259812546E+02 -0.12226278810E+03  0.13378352878E+03  0.00000000000E+00 0. -1.
         11    1    1    2    0    0  0.98202824909E+01 -0.14393959623E+02  0.10200348546E+02  0.20190867547E+02  0.00000000000E+00 0.  1.
</event>
<event>
 7    1  0.2420569E-009  0.1536517E+03  0.7561462E-02  0.1196056E+00
         -1   -1    0    0    0  501 -0.00000000000E+00  0.00000000000E+00  0.51884212300E+02  0.51884212300E+02  0.00000000000E+00 0.  1.
          1   -1    0    0  501    0  0.00000000000E+00 -0.00000000000E+00 -0.63911959349E+03  0.63911959349E+03  0.00000000000E+00 0. -1.
         25    2    1    2    0    0  0.13202792147E+03 -0.53731753221E+02 -0.37452354394E+03  0.41980293554E+03  0.12509255123E+03 0.  0.
          5    1    3    3  502    0  0.72670564564E+02  0.73654168427E+01 -0.62151690956E+02  0.95997736473E+02  0.41800000000E+01 0. -1.
         -5    1    3    3    0  502  0.59357356908E+02 -0.61097170064E+02 -0.31237185298E+03  0.32380519907E+03  0.41800000000E+01 0. -1.
        -11    1    1    2    0    0 -0.18400074927E+02 -0.73935533588E+01  0.27910959062E+01  0.20025423965E+02  0.00000000000E+00 0.  1.
         11    1    1    2    0    0 -0.11362784654E+03  0.61125306580E+02 -0.21550293316E+03  0.25117544628E+03  0.00000000000E+00 0. -1.
</event>
<event>
 7    1  0.2420569E-009  0.1413703E+03  0.7561462E-02  0.1211497E+00
         -1   -1    0    0    0  501 -0.00000000000E+00  0.00000000000E+00  0.23924901930E+02  0.23924901930E+02  0.00000000000E+00 0.  1.
          1   -1    0    0  501    0  0.00000000000E+00 -0.00000000000E+00 -0.10060198481E+04  0.10060198481E+04  0.00000000000E+00 0. -1.
         25    2    1    2    0    0 -0.10545032706E+03  0.34161916488E+01 -0.65060724053E+03  0.67087127917E+03  0.12508816869E+03 0.  0.
          5    1    3    3  502    0  0.27067512209E+02  0.34615715265E+01 -0.17358863848E+03  0.17577007853E+03  0.41800000000E+01 0.  1.
         -5    1    3    3    0  502 -0.13251783927E+03 -0.45379877715E-01 -0.47701860204E+03  0.49510120064E+03  0.41800000000E+01 0.  1.
        -11    1    1    2    0    0  0.35072494669E+02  0.28578221801E+02 -0.51223278185E+02  0.68341926162E+02  0.00000000000E+00 0.  1.
         11    1    1    2    0    0  0.70377832388E+02 -0.31994413450E+02 -0.28026442746E+03  0.29073154470E+03  0.00000000000E+00 0. -1.
</event>
<event>
 7    1  0.2420569E-009  0.4116322E+03  0.7561462E-02  0.1039825E+00
          1   -1    0    0  501    0  0.00000000000E+00  0.00000000000E+00  0.15111593467E+04  0.15111593467E+04  0.00000000000E+00 0. -1.
         -1   -1    0    0    0  501 -0.00000000000E+00 -0.00000000000E+00 -0.11626609031E+03  0.11626609031E+03  0.00000000000E+00 0.  1.
         25    2    1    2    0    0  0.31512158231E+03  0.25087977179E+03  0.79468985459E+03  0.89967869604E+03  0.12509004595E+03 0.  0.
          5    1    3    3  502    0  0.27370315976E+03  0.26030179091E+03  0.69016860582E+03  0.78677863397E+03  0.41800000000E+01 0. -1.
         -5    1    3    3    0  502  0.41418422547E+02 -0.94220191275E+01  0.10452124877E+03  0.11290006207E+03  0.41800000000E+01 0. -1.
        -11    1    1    2    0    0 -0.72366242829E+02 -0.54258633345E+02  0.20437248947E+03  0.22349269976E+03  0.00000000000E+00 0.  1.
         11    1    1    2    0    0 -0.24275533948E+03 -0.19662113844E+03  0.39583091238E+03  0.50425404126E+03  0.00000000000E+00 0. -1.
</event>
<event>
 7    1  0.2420569E-009  0.1736478E+03  0.7561462E-02  0.1174096E+00
         -1   -1    0    0    0  501 -0.00000000000E+00  0.00000000000E+00  0.59508403704E+03  0.59508403704E+03  0.00000000000E+00 0.  1.
          1   -1    0    0  501    0  0.00000000000E+00 -0.00000000000E+00 -0.69281104558E+02  0.69281104558E+02  0.00000000000E+00 0. -1.
         25    2    1    2    0    0 -0.58640674650E+02 -0.12993977334E+03  0.12407940340E+03  0.22664201507E+03  0.12509129158E+03 0.  0.
          5    1    3    3  502    0  0.36303790035E+02 -0.25527817284E+02  0.50750776446E+02  0.67548118671E+02  0.41800000000E+01 0. -1.
         -5    1    3    3    0  502 -0.94944464685E+02 -0.10441195606E+03  0.73328626951E+02  0.15909389640E+03  0.41800000000E+01 0. -1.
        -11    1    1    2    0    0 -0.15425287775E+01  0.88379129185E+02  0.13666782732E+03  0.16276161985E+03  0.00000000000E+00 0.  1.
         11    1    1    2    0    0  0.60183203428E+02  0.41560644154E+02  0.26505570176E+03  0.27496150668E+03  0.00000000000E+00 0. -1.
</event>
<event>
 7    1  0.2420569E-009  0.7354419E+02  0.7561462E-02  0.1348439E+00
          2   -1    0    0  501    0  0.00000000000E+00  0.00000000000E+00  0.10557318195E+04  0.10557318195E+04  0.00000000000E+00 0. -1.
         -2   -1    0    0    0  501 -0.00000000000E+00 -0.00000000000E+00 -0.13689900672E+02  0.13689900672E+02  0.00000000000E+00 0.  1.
         25    2    1    2    0    0  0.77300347675E+00  0.30426440300E+02  0.76826756793E+03  0.77897985227E+03  0.12509271963E+03 0.  0.
          5    1    3    3  502    0 -0.19672958283E+02  0.42694513114E+02  0.10328314941E+03  0.11355495625E+03  0.41800000000E+01 0.  1.
         -5    1    3    3    0  502  0.20445961760E+02 -0.12268072813E+02  0.66498441852E+03  0.66542489602E+03  0.41800000000E+01 0.  1.
        -11    1    1    2    0    0 -0.34962488915E+02 -0.17862621388E+02  0.23076372544E+03  0.23407978523E+03  0.00000000000E+00 0.  1.
         11    1    1    2    0    0  0.34189485439E+02 -0.12563818912E+02  0.43010625428E+02  0.56362082643E+02  0.00000000000E+00 0. -1.
</event>
<event>
 7    1  0.2420569E-009  0.1392557E+03  0.7561462E-02  0.1214334E+00
          3   -1    0    0  501    0  0.00000000000E+00  0.00000000000E+00  0.15688285298E+03  0.15688285298E+03  0.00000000000E+00 0. -1.
         -3   -1    0    0    0  501 -0.00000000000E+00 -0.00000000000E+00 -0.15793245934E+03  0.15793245934E+03  0.00000000000E+00 0.  1.
         25    2    1    2    0    0 -0.83825258422E+02  0.58620995841E+02  0.46563714605E+02  0.16816421969E+03  0.12509168703E+03 0.  0.
          5    1    3    3  502    0 -0.16420102150E+02  0.75636708687E+02 -0.10379473913E+02  0.78203179823E+02  0.41800000000E+01 0. -1.
         -5    1    3    3    0  502 -0.67405156272E+02 -0.17015712846E+02  0.56943188517E+02  0.89961039868E+02  0.41800000000E+01 0. -1.
        -11    1    1    2    0    0  0.47153959779E+02  0.14685252176E+02  0.43848461899E+01  0.49582047461E+02  0.00000000000E+00 0.  1.
         11    1    1    2    0    0  0.36671298642E+02 -0.73306248017E+02 -0.51998167155E+02  0.97069045169E+02  0.00000000000E+00 0. -1.
</event>
<event>
 7    1  0.2420569E-009  0.1108737E+03  0.7561462E-02  0.1258960E+00
          2   -1    0    0  501    0  0.00000000000E+00  0.00000000000E+00  0.11189634156E+03  0.11189634156E+03  0.00000000000E+00 0. -1.
         -2   -1    0    0    0  501 -0.00000000000E+00 -0.00000000000E+00 -0.15256900877E+03  0.15256900877E+03  0.00000000000E+00 0.  1.
         25    2    1    2    0    0  0.44137751232E+02 -0.27811120514E+02  0.29761271456E+02  0.13876536135E+03  0.12509393559E+03 0.  0.
          5    1    3    3  502    0  0.26676915353E+02 -0.77602876361E+02  0.23534238528E+02  0.85470445274E+02  0.41800000000E+01 0. -1.
         -5    1    3    3    0  502  0.17460835879E+02  0.49791755847E+02  0.62270329275E+01  0.53294916071E+02  0.41800000000E+01 0. -1.
        -11    1    1    2    0    0 -0.15371271974E+02 -0.23351054875E+02 -0.59851714648E+02  0.66058879132E+02  0.00000000000E+00 0.  1.
         11    1    1    2    0    0 -0.28766479258E+02  0.51162175390E+02 -0.10582224015E+02  0.59641109854E+02  0.00000000000E+00 0. -1.
</event>
<event>
 7    1  0.2420569E-009  0.1277819E+03  0.7561462E-02  0.1230785E+00
         -1   -1    0    0    0  501 -0.00000000000E+00  0.00000000000E+00  0.32514651671E+02  0.32514651671E+02  0.00000000000E+00 0.  1.
          1   -1    0    0  501    0  0.00000000000E+00 -0.00000000000E+00 -0.56266370024E+03  0.56266370024E+03  0.00000000000E+00 0. -1.
         25    2    1    2    0    0  0.44381633868E+02 -0.64520883946E+02 -0.24436515802E+03  0.28546679355E+03  0.12507711972E+03 0.  0.
          5    1    3    3  502    0  0.34639032313E+02  0.31277916522E+02 -0.11470735383E+03  0.12390891834E+03  0.41800000000E+01 0.  1.
         -5    1    3    3    0  502  0.97426015556E+01 -0.95798800468E+02 -0.12965780419E+03  0.16155787521E+03  0.41800000000E+01 0.  1.
        -11    1    1    2    0    0 -0.18526134212E+02 -0.18009304272E+02 -0.11972316162E+03  0.12247933751E+03  0.00000000000E+00 0.  1.
         11    1    1    2    0    0 -0.25855499656E+02  0.82530188218E+02 -0.16606072893E+03  0.18723222084E+03  0.00000000000E+00 0. -1.
</event>
<event>
 7    1  0.2420569E-009  0.1085831E+03  0.7561462E-02  0.1263217E+00
          1   -1    0    0  501    0  0.00000000000E+00  0.00000000000E+00  0.13273937165E+03  0.13273937165E+03  0.00000000000E+00 0. -1.
         -1   -1    0    0    0  501 -0.00000000000E+00 -0.00000000000E+00 -0.12020910962E+03  0.12020910962E+03  0.00000000000E+00 0.  1.
         25    2    1    2    0    0  0.36258499017E+02  0.53155528404E+02  0.21809041207E+02  0.14234847846E+03  0.12508903266E+03 0.  0.
          5    1    3    3  502    0  0.63313143427E+02  0.45798377891E+01 -0.26170293859E+02  0.68788703473E+02  0.41800000000E+01 0.  1.
         -5    1    3    3    0  502 -0.27054644410E+02  0.48575690614E+02  0.47979335066E+02  0.73559774987E+02  0.41800000000E+01 0.  1.
        -11    1    1    2    0    0 -0.50218256927E+02 -0.84083493733E+01  0.20694404627E+02  0.54962096493E+02  0.00000000000E+00 0.  1.
         11    1    1    2    0    0  0.13959757910E+02 -0.44747179030E+02 -0.29973183800E+02  0.55637906316E+02  0.00000000000E+00 0. -1.
</event>
<event>
 7    1  0.2420569E-009  0.9169184E+02  0.7561462E-02  0.1298806E+00
          3   -1    0    0  501    0  0.00000000000E+00  0.00000000000E+00  0.27956901977E+02  0.27956901977E+02  0.00000000000E+00 0. -1.
         -3   -1    0    0    0  501 -0.00000000000E+00 -0.00000000000E+00 -0.57740405109E+03  0.57740405109E+03  0.00000000000E+00 0.  1.
         25    2    1    2    0    0  0.99086176696E+00  0.34031801605E+02 -0.47520412671E+03  0.49257060734E+03  0.12509075047E+03 0.  0.
          5    1    3    3  502    0 -0.83003390517E+01  0.74563727072E+02 -0.39549337388E+03  0.40256816343E+03  0.41800000000E+01 0. -1.
         -5    1    3    3    0  502  0.92912008187E+01 -0.40531925467E+02 -0.79710752826E+02  0.90002443916E+02  0.41800000000E+01 0. -1.
        -11    1    1    2    0    0  0.14126162253E+02 -0.45392795045E+02 -0.13865526287E+02  0.49520774642E+02  0.00000000000E+00 0. -1.
         11    1    1    2    0    0 -0.15117024020E+02  0.11360993439E+02 -0.60377496116E+02  0.63269571078E+02  0.00000000000E+00 0.  1.
</event>
<event>
 7    1  0.2420569E-009  0.1174594E+03  0.7561462E-02  0.1247348E+00
          3   -1    0    0  501    0  0.00000000000E+00  0.00000000000E+00  0.38719317870E+02  0.38719317870E+02  0.00000000000E+00 0. -1.
         -3   -1    0    0    0  501 -0.00000000000E+00 -0.00000000000E+00 -0.55458578134E+03  0.55458578134E+03  0.00000000000E+00 0.  1.
         25    2    1    2    0    0  0.74098908310E+02  0.54688140986E+02 -0.21042846282E+03  0.26155623148E+03  0.12510029292E+03 0.  0.
          5    1    3    3  502    0  0.34335468466E+02 -0.16199972523E+02 -0.25106275844E+01  0.38277136197E+02  0.41800000000E+01 0.  1.
         -5    1    3    3    0  502  0.39763439844E+02  0.70888113510E+02 -0.20791783523E+03  0.22327909529E+03  0.41800000000E+01 0.  1.
        -11    1    1    2    0    0  0.41896573512E+01 -0.34141917721E+02 -0.17416028988E+03  0.17752473164E+03  0.00000000000E+00 0.  1.
         11    1    1    2    0    0 -0.78288565662E+02 -0.20546223266E+02 -0.13127771077E+03  0.15422413608E+03  0.00000000000E+00 0. -1.
</event>
<event>
 7    1  0.2420569E-009  0.1571903E+03  0.7561462E-02  0.1191906E+00
          1   -1    0    0  501    0  0.00000000000E+00  0.00000000000E+00  0.95028808705E+03  0.95028808705E+03  0.00000000000E+00 0. -1.
         -1   -1    0    0    0  501 -0.00000000000E+00 -0.00000000000E+00 -0.37599016065E+02  0.37599016065E+02  0.00000000000E+00 0.  1.
         25    2    1    2    0    0  0.18190097761E+02 -0.14908906324E+03  0.38762149531E+03  0.43411673887E+03  0.12509392835E+03 0.  0.
          5    1    3    3  502    0  0.32864403313E+02 -0.78517239370E+02  0.33258623486E+03  0.34333089273E+03  0.41800000000E+01 0. -1.
         -5    1    3    3    0  502 -0.14674305552E+02 -0.70571823868E+02  0.55035260452E+02  0.90785846146E+02  0.41800000000E+01 0. -1.
        -11    1    1    2    0    0 -0.32315373166E+02  0.77140346620E+02  0.40122966489E+03  0.40985382810E+03  0.00000000000E+00 0.  1.
         11    1    1    2    0    0  0.14125275406E+02  0.71948716617E+02  0.12383791079E+03  0.14391653615E+03  0.00000000000E+00 0. -1.
</event>
<event>
 7    1  0.2420569E-009  0.1301084E+03  0.7561462E-02  0.1227295E+00
         -2   -1    0    0    0  501 -0.00000000000E+00  0.00000000000E+00  0.99795644941E+02  0.99795644941E+02  0.00000000000E+00 0.  1.
          2   -1    0    0  501    0  0.00000000000E+00 -0.00000000000E+00 -0.17365082728E+03  0.17365082728E+03  0.00000000000E+00 0. -1.
         25    2    1    2    0    0 -0.50061214050E+02 -0.54102891058E+02 -0.57319995798E+02  0.15609731066E+03  0.12509012952E+03 0.  0.
          5    1    3    3  502    0 -0.87976392422E+02 -0.13709857114E+02 -0.28978618869E+02  0.93728536515E+02  0.41800000000E+01 0. -1.
         -5    1    3    3    0  502  0.37915178372E+02 -0.40393033944E+02 -0.28341376929E+02  0.62368774145E+02  0.41800000000E+01 0. -1.
        -11    1    1    2    0    0  0.52295264423E+02 -0.84127009860E+01 -0.13790840667E+02  0.54733495277E+02  0.00000000000E+00 0.  1.
         11    1    1    2    0    0 -0.22340503730E+01  0.62515592044E+02 -0.27443458729E+01  0.62615666282E+02  0.00000000000E+00 0. -1.
</event>
<event>
 7    1  0.2420569E-009  0.8822947E+02  0.7561462E-02  0.1307197E+00
          1   -1    0    0  501    0  0.00000000000E+00  0.00000000000E+00  0.45500416710E+02  0.45500416710E+02  0.00000000000E+00 0. -1.
         -1   -1    0    0    0  501 -0.00000000000E+00 -0.00000000000E+00 -0.31728962087E+03  0.31728962087E+03  0.00000000000E+00 0.  1.
         25    2    1    2    0    0 -0.20966838976E+02 -0.47694240578E+02 -0.15918758639E+03  0.20905358651E+03  0.12509342689E+03 0.  0.
          5    1    3    3  502    0  0.96882567869E+01 -0.46995577227E+02 -0.16967443151E+03  0.17637837653E+03  0.41800000000E+01 0. -1.
         -5    1    3    3    0  502 -0.30655095763E+02 -0.69866335101E+00  0.10486845122E+02  0.32675209982E+02  0.41800000000E+01 0. -1.
        -11    1    1    2    0    0 -0.31868073543E+02  0.15075586927E+02 -0.70176783139E+02  0.78534249371E+02  0.00000000000E+00 0.  1.
         11    1    1    2    0    0  0.52834912519E+02  0.32618653651E+02 -0.42424834637E+02  0.75202201702E+02  0.00000000000E+00 0. -1.
</event>
<event>
 7    1  0.2420569E-009  0.1231148E+03  0.7561462E-02  0.1238045E+00
          2   -1    0    0  501    0  0.00000000000E+00  0.00000000000E+00  0.35035909851E+03  0.35035909851E+03  0.00000000000E+00 0. -1.
         -2   -1    0    0    0  501 -0.00000000000E+00 -0.00000000000E+00 -0.47514390028E+02  0.47514390028E+02  0.00000000000E+00 0.  1.
         25    2    1    2    0    0 -0.24692705211E+02 -0.63361540056E+02  0.15283340282E+03  0.20887830353E+03  0.12509069597E+03 0.  0.
          5    1    3    3  502    0 -0.42869544465E+02 -0.92020516578E+02  0.13857353388E+03  0.17183035240E+03  0.41800000000E+01 0. -1.
         -5    1    3    3    0  502  0.18176839254E+02  0.28658976522E+02  0.14259868941E+02  0.37047951128E+02  0.41800000000E+01 0. -1.
        -11    1    1    2    0    0 -0.31840244814E+02  0.11917293938E+02  0.24005703252E+02  0.41618467935E+02  0.00000000000E+00 0.  1.
         11    1    1    2    0    0  0.56532950026E+02  0.51444246118E+02  0.12600560240E+03  0.14737671707E+03  0.00000000000E+00 0. -1.
</event>
<event>
 7    1  0.2420569E-009  0.8045329E+02  0.7561462E-02  0.1327770E+00
         -1   -1    0    0    0  501 -0.00000000000E+00  0.00000000000E+00  0.69950230481E+03  0.69950230481E+03  0.00000000000E+00 0.  1.
          1   -1    0    0  501    0  0.00000000000E+00 -0.00000000000E+00 -0.72423323354E+02  0.72423323354E+02  0.00000000000E+00 0. -1.
         25    2    1    2    0    0 -0.34448175699E+02 -0.26416637772E+02  0.65433398728E+03  0.66759574566E+03  0.12508635879E+03 0.  0.
          5    1    3    3  502    0  0.18200599538E+02  0.81274091956E+01  0.50581570132E+03  0.50622555517E+03  0.41800000000E+01 0.  1.
         -5    1    3    3    0  502 -0.52648775237E+02 -0.34544046968E+02  0.14851828596E+03  0.16137019049E+03  0.41800000000E+01 0.  1.
        -11    1    1    2    0    0 -0.17175386328E+02 -0.38338949604E+01  0.21045515120E+02  0.27433671879E+02  0.00000000000E+00 0.  1.
         11    1    1    2    0    0  0.51623562027E+02  0.30250532732E+02 -0.48300520937E+02  0.76896210633E+02  0.00000000000E+00 0. -1.
</event>
<event>
 7    1  0.3741124E-009  0.1124200E+03  0.7561462E-02  0.1256153E+00
          2   -1    0    0  501    0  0.00000000000E+00  0.00000000000E+00  0.93876952734E+03  0.93876952734E+03  0.00000000000E+00 0. -1.
         -2   -1    0    0    0  501 -0.00000000000E+00 -0.00000000000E+00 -0.22671650844E+02  0.22671650844E+02  0.00000000000E+00 0.  1.
         25    2    1    2    0    0  0.88270425213E+02  0.39781001138E+02  0.53882754727E+03  0.56156645987E+03  0.12509023597E+03 0.  0.
          5    1    3    3  502    0  0.65970130753E+00  0.27377001367E+02  0.17500450210E+02  0.32766958468E+02  0.41800000000E+01 0. -1.
         -5    1    3    3    0  502  0.87610723905E+02  0.12403999771E+02  0.52132709706E+03  0.52879950140E+03  0.41800000000E+01 0. -1.
        -11    1    1    2    0    0 -0.62195895690E+02 -0.14711363254E+01  0.32102451299E+03  0.32699729605E+03  0.00000000000E+00 0. -1.
         11    1    1    2    0    0 -0.26074529523E+02 -0.38309864813E+02  0.56245816227E+02  0.72877422257E+02  0.00000000000E+00 0.  1.
</event>
<event>
 7    1  0.2420569E-009  0.1284915E+03  0.7561462E-02  0.1229711E+00
         -2   -1    0    0    0  501 -0.00000000000E+00  0.00000000000E+00  0.14022022378E+02  0.14022022378E+02  0.00000000000E+00 0.  1.
          2   -1    0    0  501    0  0.00000000000E+00 -0.00000000000E+00 -0.14619152702E+04  0.14619152702E+04  0.00000000000E+00 0. -1.
         25    2    1    2    0    0 -0.59436641058E+02  0.70615291501E+02 -0.87721381653E+03  0.89088144868E+03  0.12508573859E+03 0.  0.
          5    1    3    3  502    0 -0.46276750446E+01 -0.31199005457E+02 -0.95732407341E+02  0.10088091759E+03  0.41800000000E+01 0. -1.
         -5    1    3    3    0  502 -0.54808966013E+02  0.10181429696E+03 -0.78148140919E+03  0.79000053109E+03  0.41800000000E+01 0. -1.
        -11    1    1    2    0    0  0.15526649962E+02  0.94285254308E+01 -0.20657328009E+02  0.27508165176E+02  0.00000000000E+00 0.  1.
         11    1    1    2    0    0  0.43909991095E+02 -0.80043816932E+02 -0.55002210327E+03  0.55754767871E+03  0.00000000000E+00 0. -1.
</event>
<event>
 7    1  0.2420569E-009  0.1203681E+03  0.7561462E-02  0.1242491E+00
         -1   -1    0    0    0  501 -0.00000000000E+00  0.00000000000E+00  0.13987673506E+03  0.13987673506E+03  0.00000000000E+00 0.  1.
          1   -1    0    0  501    0  0.00000000000E+00 -0.00000000000E+00 -0.20210980875E+03  0.20210980875E+03  0.00000000000E+00 0. -1.
         25    2    1    2    0    0 -0.84604435082E+02  0.18976132468E+02 -0.12882063148E+03  0.19939017128E+03  0.12507470275E+03 0.  0.
          5    1    3    3  502    0 -0.11009500075E+01 -0.26513182786E+02 -0.94444893038E+02  0.98190993342E+02  0.41800000000E+01 0. -1.
         -5    1    3    3    0  502 -0.83503485075E+02  0.45489315254E+02 -0.34375738441E+02  0.10119917794E+03  0.41800000000E+01 0. -1.
        -11    1    1    2    0    0  0.47006642647E+01 -0.36571953734E+02  0.44613077949E+02  0.57878586442E+02  0.00000000000E+00 0.  1.
         11    1    1    2    0    0  0.79903770817E+02  0.17595821266E+02  0.21974479841E+02  0.84717786097E+02  0.00000000000E+00 0. -1.
</event>
<event>
 7    1  0.2420569E-009  0.1377271E+03  0.7561462E-02  0.1216420E+00
          2   -1    0    0  501    0  0.00000000000E+00  0.00000000000E+00  0.88272977133E+03  0.88272977133E+03  0.00000000000E+00 0. -1.
         -2   -1    0    0    0  501 -0.00000000000E+00 -0.00000000000E+00 -0.34264555491E+02  0.34264555491E+02  0.00000000000E+00 0.  1.
         25    2    1    2    0    0 -0.80499434757E+02  0.81659850880E+02  0.64036960300E+03  0.66247281732E+03  0.12509402461E+03 0.  0.
          5    1    3    3  502    0 -0.41673739111E+02 -0.12089047684E+02  0.65359409637E+02  0.78563162064E+02  0.41800000000E+01 0.  1.
         -5    1    3    3    0  502 -0.38825695646E+02  0.93748898565E+02  0.57501019336E+03  0.58390965525E+03  0.41800000000E+01 0.  1.
        -11    1    1    2    0    0  0.85077055622E+02 -0.50762818328E+02  0.95245910138E+02  0.13742908177E+03  0.00000000000E+00 0.  1.
         11    1    1    2    0    0 -0.45776208650E+01 -0.30897032553E+02  0.11284970270E+03  0.11709242774E+03  0.00000000000E+00 0. -1.
</event>
<event>
 7    1  0.2420569E-009  0.1274371E+03  0.7561462E-02  0.1231309E+00
         -4   -1    0    0    0  501 -0.00000000000E+00  0.00000000000E+00  0.18662882160E+03  0.18662882160E+03  0.00000000000E+00 0. -1.
          4   -1    0    0  501    0  0.00000000000E+00 -0.00000000000E+00 -0.12423583103E+03  0.12423583103E+03  0.00000000000E+00 0.  1.
         25    2    1    2    0    0  0.95900993473E+02  0.30472037676E+02 -0.86002291653E+00  0.16054315635E+03  0.12509124582E+03 0.  0.
          5    1    3    3  502    0  0.71093122046E+02 -0.37825188789E+02  0.23161555401E+02  0.83898194008E+02  0.41800000000E+01 0.  1.
         -5    1    3    3    0  502  0.24807871427E+02  0.68297226465E+02 -0.24021578317E+02  0.76644962342E+02  0.41800000000E+01 0.  1.
        -11    1    1    2    0    0 -0.25835713459E+02 -0.23058095773E+01 -0.23713810777E+02  0.35144639268E+02  0.00000000000E+00 0.  1.
         11    1    1    2    0    0 -0.70065280014E+02 -0.28166228099E+02  0.86966824260E+02  0.11517685701E+03  0.00000000000E+00 0. -1.
</event>
<event>
 7    1  0.2420569E-009  0.1621409E+03  0.7561462E-02  0.1186301E+00
         -1   -1    0    0    0  501 -0.00000000000E+00  0.00000000000E+00  0.82101141894E+02  0.82101141894E+02  0.00000000000E+00 0.  1.
          1   -1    0    0  501    0  0.00000000000E+00 -0.00000000000E+00 -0.34793323024E+03  0.34793323024E+03  0.00000000000E+00 0. -1.
         25    2    1    2    0    0  0.73284421269E+02 -0.10322056273E+03 -0.11138284520E+03  0.20995180043E+03  0.12509408190E+03 0.  0.
          5    1    3    3  502    0  0.81400707168E+02 -0.15874670466E+02 -0.83618841170E+02  0.11784593030E+03  0.41800000000E+01 0. -1.
         -5    1    3    3    0  502 -0.81162858995E+01 -0.87345892265E+02 -0.27764004028E+02  0.92105870128E+02  0.41800000000E+01 0. -1.
        -11    1    1    2    0    0  0.20048502760E+02  0.21057897201E+02 -0.13296863794E+02  0.31971613726E+02  0.00000000000E+00 0. -1.
         11    1    1    2    0    0 -0.93332924029E+02  0.82162665530E+02 -0.14115237936E+03  0.18811095798E+03  0.00000000000E+00 0.  1.
</event>
<event>
 7    1  0.2420569E-009  0.1371403E+03  0.7561462E-02  0.1217229E+00
          2   -1    0    0  501    0  0.00000000000E+00  0.00000000000E+00  0.23729681428E+03  0.23729681428E+03  0.00000000000E+00 0.  1.
         -2   -1    0    0    0  501 -0.00000000000E+00 -0.00000000000E+00 -0.10888916011E+03  0.10888916011E+03  0.00000000000E+00 0. -1.
         25    2    1    2    0    0  0.47436271577E+02 -0.88159189622E+02  0.13477877777E+03  0.20936736553E+03  0.12508849761E+03 0.  0.
          5    1    3    3  502    0  0.67334626024E+02 -0.51632155632E+01  0.29601369028E+02  0.73853396030E+02  0.41800000000E+01 0. -1.
         -5    1    3    3    0  502 -0.19898354447E+02 -0.82995974058E+02  0.10517740874E+03  0.13551396950E+03  0.41800000000E+01 0. -1.
        -11    1    1    2    0    0  0.17315381457E+02  0.27159528527E+02  0.26774824632E+02  0.41885005180E+02  0.00000000000E+00 0.  1.
         11    1    1    2    0    0 -0.64751653034E+02  0.60999661095E+02 -0.33145948228E+02  0.94933603683E+02  0.00000000000E+00 0. -1.
</event>
<event>
 7    1  0.2420569E-009  0.1225759E+03  0.7561462E-02  0.1238907E+00
         -1   -1    0    0    0  501 -0.00000000000E+00  0.00000000000E+00  0.18475289140E+03  0.18475289140E+03  0.00000000000E+00 0.  1.
          1   -1    0    0  501    0  0.00000000000E+00 -0.00000000000E+00 -0.95475390119E+02  0.95475390119E+02  0.00000000000E+00 0. -1.
         25    2    1    2    0    0 -0.81199267918E+02  0.37330586231E+01  0.72179924489E+02  0.16573596346E+03  0.12510480106E+03 0.  0.
          5    1    3    3  502    0 -0.95971685681E+02 -0.34516026858E+02  0.71300066184E+02  0.12451141474E+03  0.41800000000E+01 0. -1.
         -5    1    3    3    0  502  0.14772417763E+02  0.38249085481E+02  0.87985830568E+00  0.41224548722E+02  0.41800000000E+01 0. -1.
        -11    1    1    2    0    0  0.12992603277E+02 -0.26862538001E+02 -0.17498916987E+02  0.34592134706E+02  0.00000000000E+00 0. -1.
         11    1    1    2    0    0  0.68206664641E+02  0.23129479378E+02  0.34596493777E+02  0.79900183351E+02  0.00000000000E+00 0.  1.
</event>
<event>
 7    1  0.3779647E-009  0.1655891E+03  0.7561462E-02  0.1182527E+00
          2   -1    0    0  501    0  0.00000000000E+00  0.00000000000E+00  0.11354080928E+04  0.11354080928E+04  0.00000000000E+00 0. -1.
         -2   -1    0    0    0  501 -0.00000000000E+00 -0.00000000000E+00 -0.28506720477E+02  0.28506720477E+02  0.00000000000E+00 0.  1.
         25    2    1    2    0    0 -0.12646601893E+03  0.31075724461E+02  0.39187443483E+03  0.43147591938E+03  0.12508613726E+03 0.  0.
          5    1    3    3  502    0 -0.14737758741E+03  0.45969535478E+02  0.34078320597E+03  0.37414438033E+03  0.41800000000E+01 0.  1.
         -5    1    3    3    0  502  0.20911568480E+02 -0.14893811017E+02  0.51091228860E+02  0.57331539045E+02  0.41800000000E+01 0.  1.
        -11    1    1    2    0    0  0.38398214314E+02 -0.47566720299E+02  0.18354346042E+03  0.19345598364E+03  0.00000000000E+00 0.  1.
         11    1    1    2    0    0  0.88067804612E+02  0.16490995837E+02  0.53148347707E+03  0.53898291026E+03  0.00000000000E+00 0. -1.
</event>
<event>
 7    1  0.2420569E-009  0.1015720E+03  0.7561462E-02  0.1277025E+00
         -1   -1    0    0    0  501 -0.00000000000E+00  0.00000000000E+00  0.61909124106E+03  0.61909124106E+03  0.00000000000E+00 0.  1.
          1   -1    0    0  501    0  0.00000000000E+00 -0.00000000000E+00 -0.20965417731E+02  0.20965417731E+02  0.00000000000E+00 0. -1.
         25    2    1    2    0    0  0.20783366464E+02 -0.26184138417E+02  0.32634195718E+03  0.35108953969E+03  0.12508890612E+03 0.  0.
          5    1    3    3  502    0  0.65910162148E+02 -0.14675188022E+02  0.10532958842E+03  0.12518508383E+03  0.41800000000E+01 0. -1.
         -5    1    3    3    0  502 -0.45126795684E+02 -0.11508950396E+02  0.22101236876E+03  0.22590445585E+03  0.41800000000E+01 0. -1.
        -11    1    1    2    0    0  0.15422136617E+02 -0.22979872450E+02  0.15222303637E+03  0.15471835585E+03  0.00000000000E+00 0.  1.
         11    1    1    2    0    0 -0.36205503082E+02  0.49164010867E+02  0.11956082978E+03  0.13424876326E+03  0.00000000000E+00 0. -1.
</event>
<event>
 7    1  0.2420569E-009  0.1042743E+03  0.7561462E-02  0.1271556E+00
         -2   -1    0    0    0  501 -0.00000000000E+00  0.00000000000E+00  0.44060088615E+02  0.44060088615E+02  0.00000000000E+00 0.  1.
          2   -1    0    0  501    0  0.00000000000E+00 -0.00000000000E+00 -0.31643206072E+03  0.31643206072E+03  0.00000000000E+00 0. -1.
         25    2    1    2    0    0  0.87578299924E+01 -0.12780359628E+02 -0.21819878704E+03  0.25198899536E+03  0.12509079080E+03 0.  0.
          5    1    3    3  502    0  0.30959108159E+02 -0.57846267271E+02 -0.72763397774E+02  0.98064476090E+02  0.41800000000E+01 0. -1.
         -5    1    3    3    0  502 -0.22201278167E+02  0.45065907643E+02 -0.14543538926E+03  0.15392451927E+03  0.41800000000E+01 0. -1.
        -11    1    1    2    0    0  0.18418791944E+02  0.45955378989E+02 -0.38957036984E+02  0.62998408593E+02  0.00000000000E+00 0. -1.
         11    1    1    2    0    0 -0.27176621937E+02 -0.33175019361E+02 -0.15216148086E+02  0.45504745380E+02  0.00000000000E+00 0.  1.
</event>
<event>
 7    1  0.2420569E-009  0.3498126E+03  0.7561462E-02  0.1062692E+00
          2   -1    0    0  501    0  0.00000000000E+00  0.00000000000E+00  0.96901190415E+03  0.96901190415E+03  0.00000000000E+00 0. -1.
         -2   -1    0    0    0  501 -0.00000000000E+00 -0.00000000000E+00 -0.12845538337E+03  0.12845538337E+03  0.00000000000E+00 0.  1.
         25    2    1    2    0    0 -0.12643377332E+02  0.33569253347E+03  0.44796218155E+03  0.57373130557E+03  0.12509261721E+03 0.  0.
          5    1    3    3  502    0 -0.45453020080E+02  0.30928392715E+03  0.41751770272E+03  0.52159469813E+03  0.41800000000E+01 0.  1.
         -5    1    3    3    0  502  0.32809642748E+02  0.26408606311E+02  0.30444478830E+02  0.52136607444E+02  0.41800000000E+01 0.  1.
        -11    1    1    2    0    0  0.45116836949E+02 -0.21493511537E+03  0.22260476588E+03  0.31270675494E+03  0.00000000000E+00 0. -1.
         11    1    1    2    0    0 -0.32473459617E+02 -0.12075741810E+03  0.16998957334E+03  0.21102922701E+03  0.00000000000E+00 0.  1.
</event>
<event>
 7    1  0.2420569E-009  0.8209881E+02  0.7561462E-02  0.1323199E+00
          1   -1    0    0  501    0  0.00000000000E+00  0.00000000000E+00  0.20308040467E+03  0.20308040467E+03  0.00000000000E+00 0. -1.
         -1   -1    0    0    0  501 -0.00000000000E+00 -0.00000000000E+00 -0.61018775559E+02  0.61018775559E+02  0.00000000000E+00 0.  1.
         25    2    1    2    0    0  0.38148300290E+01  0.70924509727E+01  0.11076874489E+03  0.16727887979E+03  0.12509057914E+03 0.  0.
          5    1    3    3  502    0 -0.67593403523E+01  0.63925490244E+02  0.40087341230E+02  0.75872421286E+02  0.41800000000E+01 0.  1.
         -5    1    3    3    0  502  0.10574170381E+02 -0.56833039271E+02  0.70681403663E+02  0.91406458502E+02  0.41800000000E+01 0.  1.
        -11    1    1    2    0    0  0.20841302369E+00 -0.24223081862E+02 -0.26797325632E+02  0.36123369055E+02  0.00000000000E+00 0.  1.
         11    1    1    2    0    0 -0.40232430527E+01  0.17130630889E+02  0.58090209845E+02  0.60696931382E+02  0.00000000000E+00 0. -1.
</event>
<event>
 7    1  0.2420569E-009  0.1076630E+03  0.7561462E-02  0.1264960E+00
         -2   -1    0    0    0  501 -0.00000000000E+00  0.00000000000E+00  0.99734904522E+01  0.99734904522E+01  0.00000000000E+00 0.  1.
          2   -1    0    0  501    0  0.00000000000E+00 -0.00000000000E+00 -0.11915951549E+04  0.11915951549E+04  0.00000000000E+00 0. -1.
         25    2    1    2    0    0 -0.13041018279E+02 -0.75070253010E+00 -0.75131382385E+03  0.76176755544E+03  0.12508682946E+03 0.  0.
          5    1    3    3  502    0  0.10583661392E+02  0.59431749193E+02 -0.39571743556E+03  0.40031725907E+03  0.41800000000E+01 0. -1.
         -5    1    3    3    0  502 -0.23624679672E+02 -0.60182451723E+02 -0.35559638829E+03  0.36145029637E+03  0.41800000000E+01 0. -1.
        -11    1    1    2    0    0  0.26520263823E+02 -0.39500960093E+02 -0.19706816465E+03  0.20273014517E+03  0.00000000000E+00 0.  1.
         11    1    1    2    0    0 -0.13479245543E+02  0.40251662623E+02 -0.23323967595E+03  0.23707094475E+03  0.00000000000E+00 0. -1.
</event>
<event>
 7    1  0.2420569E-009  0.8594498E+02  0.7561462E-02  0.1312980E+00
         -1   -1    0    0    0  501 -0.00000000000E+00  0.00000000000E+00  0.10191025733E+03  0.10191025733E+03  0.00000000000E+00 0.  1.
          1   -1    0    0  501    0  0.00000000000E+00 -0.00000000000E+00 -0.19982797038E+03  0.19982797038E+03  0.00000000000E+00 0. -1.
         25    2    1    2    0    0 -0.51327122522E+02 -0.55020666134E+02  0.57534182244E+01  0.14608216159E+03  0.12508056966E+03 0.  0.
          5    1    3    3  502    0 -0.46657925126E+02 -0.62046573775E+02 -0.48093955416E+02  0.91417942669E+02  0.41800000000E+01 0. -1.
         -5    1    3    3    0  502 -0.46691973960E+01  0.70259076412E+01  0.53847373640E+02  0.54664218923E+02  0.41800000000E+01 0. -1.
        -11    1    1    2    0    0  0.51615234668E+02  0.29983885340E+02 -0.12339288661E+02  0.60954276918E+02  0.00000000000E+00 0.  1.
         11    1    1    2    0    0 -0.28811214596E+00  0.25036780794E+02 -0.91331842612E+02  0.94701789192E+02  0.00000000000E+00 0. -1.
</event>
<event>
 7    1  0.2420569E-009  0.1549874E+03  0.7561462E-02  0.1194475E+00
          2   -1    0    0  501    0  0.00000000000E+00  0.00000000000E+00  0.35652055224E+03  0.35652055224E+03  0.00000000000E+00 0. -1.
         -2   -1    0    0    0  501 -0.00000000000E+00 -0.00000000000E+00 -0.13417127352E+03  0.13417127352E+03  0.00000000000E+00 0.  1.
         25    2    1    2    0    0 -0.11574358368E+03 -0.33619603319E+02 -0.46623985002E+02  0.17985772211E+03  0.12509256307E+03 0.  0.
          5    1    3    3  502    0 -0.44571500101E+02  0.38969284313E+02  0.14587684987E+02  0.61118709855E+02  0.41800000000E+01 0.  1.
         -5    1    3    3    0  502 -0.71172083580E+02 -0.72588887632E+02 -0.61211669989E+02  0.11873901226E+03  0.41800000000E+01 0.  1.
        -11    1    1    2    0    0 -0.11579031610E+02 -0.89413878932E+01  0.64740157039E+01  0.15997977054E+02  0.00000000000E+00 0.  1.
         11    1    1    2    0    0  0.12732261529E+03  0.42560991212E+02  0.26249924802E+03  0.29483612660E+03  0.00000000000E+00 0. -1.
</event>
<event>
 7    1  0.2420569E-009  0.1300730E+03  0.7561462E-02  0.1227347E+00
         -1   -1    0    0    0  501 -0.00000000000E+00  0.00000000000E+00  0.57878984659E+03  0.57878984659E+03  0.00000000000E+00 0.  1.
          1   -1    0    0  501    0  0.00000000000E+00 -0.00000000000E+00 -0.44874606003E+02  0.44874606003E+02  0.00000000000E+00 0. -1.
         25    2    1    2    0    0  0.27926469073E+02  0.11563475538E+03  0.28786755104E+03  0.33565832315E+03  0.12508996214E+03 0.  0.
          5    1    3    3  502    0  0.14748273944E+02  0.41156473964E+02  0.66525522760E+01  0.44419542830E+02  0.41800000000E+01 0.  1.
         -5    1    3    3    0  502  0.13178195129E+02  0.74478281418E+02  0.28121499876E+03  0.29123878032E+03  0.41800000000E+01 0.  1.
        -11    1    1    2    0    0  0.96287025276E+01 -0.98890187513E+02  0.21376867347E+03  0.23573083561E+03  0.00000000000E+00 0.  1.
         11    1    1    2    0    0 -0.37555171601E+02 -0.16744567869E+02  0.32279016073E+02  0.52275293836E+02  0.00000000000E+00 0. -1.
</event>
<event>
 7    1  0.2420569E-009  0.1478357E+03  0.7561462E-02  0.1203158E+00
         -1   -1    0    0    0  501 -0.00000000000E+00  0.00000000000E+00  0.34950425602E+02  0.34950425602E+02  0.00000000000E+00 0.  1.
          1   -1    0    0  501    0  0.00000000000E+00 -0.00000000000E+00 -0.73139540799E+03  0.73139540799E+03  0.00000000000E+00 0. -1.
         25    2    1    2    0    0  0.11284941592E+03  0.29000618912E+02 -0.33895718750E+03  0.37962587272E+03  0.12509117359E+03 0.  0.
          5    1    3    3  502    0  0.74663964944E+02  0.73808304446E+02 -0.26456255941E+03  0.28466329884E+03  0.41800000000E+01 0. -1.
         -5    1    3    3    0  502  0.38185450973E+02 -0.44807685533E+02 -0.74394628094E+02  0.94962573881E+02  0.41800000000E+01 0. -1.
        -11    1    1    2    0    0 -0.56694066392E+02 -0.45891845932E+02 -0.10724892741E+03  0.12970200892E+03  0.00000000000E+00 0.  1.
         11    1    1    2    0    0 -0.56155349525E+02  0.16891227019E+02 -0.25023886747E+03  0.25701795195E+03  0.00000000000E+00 0. -1.
</event>
<event>
 7    1  0.2420569E-009  0.2074419E+03  0.7561462E-02  0.1143608E+00
          2   -1    0    0  501    0  0.00000000000E+00  0.00000000000E+00  0.66458266863E+03  0.66458266863E+03  0.00000000000E+00 0.  1.
         -2   -1    0    0    0  501 -0.00000000000E+00 -0.00000000000E+00 -0.76392161481E+02  0.76392161481E+02  0.00000000000E+00 0. -1.
         25    2    1    2    0    0  0.14340167143E+03  0.12372064682E+03  0.39726360658E+03  0.45753170439E+03  0.12508416999E+03 0.  0.
          5    1    3    3  502    0  0.35454501264E+02 -0.23086954575E+02  0.52536910706E+02  0.67584232761E+02  0.41800000000E+01 0.  1.
         -5    1    3    3    0  502  0.10794717017E+03  0.14680760140E+03  0.34472669588E+03  0.38994747162E+03  0.41800000000E+01 0.  1.
        -11    1    1    2    0    0 -0.99817843360E+02 -0.95711391687E+02  0.76982692596E+02  0.15827383647E+03  0.00000000000E+00 0. -1.
         11    1    1    2    0    0 -0.43583828074E+02 -0.28009255134E+02  0.11394420797E+03  0.12516928925E+03  0.00000000000E+00 0.  1.
</event>
<event>
 7    1  0.2420569E-009  0.1142356E+03  0.7561462E-02  0.1252921E+00
         -1   -1    0    0    0  501 -0.00000000000E+00  0.00000000000E+00  0.87177670664E+03  0.87177670664E+03  0.00000000000E+00 0.  1.
          1   -1    0    0  501    0  0.00000000000E+00 -0.00000000000E+00 -0.19912672637E+02  0.19912672637E+02  0.00000000000E+00 0. -1.
         25    2    1    2    0    0  0.39532864132E+02  0.46156353479E+02  0.32266450868E+03  0.35135839126E+03  0.12508827939E+03 0.  0.
          5    1    3    3  502    0 -0.29741701177E+02 -0.95803702703E+01  0.23743639894E+02  0.39466252911E+02  0.41800000000E+01 0. -1.
         -5    1    3    3    0  502  0.69274565309E+02  0.55736723749E+02  0.29892086878E+03  0.31189213835E+03  0.41800000000E+01 0. -1.
        -11    1    1    2    0    0  0.11145054279E+02  0.21016966776E+02  0.86841714917E+02  0.90041149354E+02  0.00000000000E+00 0. -1.
         11    1    1    2    0    0 -0.50677918411E+02 -0.67173320255E+02  0.44235781041E+03  0.45028983866E+03  0.00000000000E+00 0.  1.
</event>
<event>
 7    1  0.2420569E-009  0.1029302E+03  0.7561462E-02  0.1274252E+00
         -2   -1    0    0    0  501 -0.00000000000E+00  0.00000000000E+00  0.17056752164E+03  0.17056752164E+03  0.00000000000E+00 0.  1.
          2   -1    0    0  501    0  0.00000000000E+00 -0.00000000000E+00 -0.29099624148E+03  0.29099624148E+03  0.00000000000E+00 0. -1.
         25    2    1    2    0    0 -0.41406980576E+02 -0.58401092597E+02 -0.24954865143E+03  0.28817990594E+03  0.12509157884E+03 0.  0.
          5    1    3    3  502    0 -0.25623929462E+02 -0.92708302061E+02 -0.12387301884E+03  0.15688662221E+03  0.41800000000E+01 0. -1.
         -5    1    3    3    0  502 -0.15783051113E+02  0.34307209464E+02 -0.12567563259E+03  0.13129328373E+03  0.41800000000E+01 0. -1.
        -11    1    1    2    0    0  0.23065719356E+02  0.32724561230E+02 -0.43771385097E+00  0.40038929937E+02  0.00000000000E+00 0.  1.
         11    1    1    2    0    0  0.18341261220E+02  0.25676531367E+02  0.12955764545E+03  0.13334492724E+03  0.00000000000E+00 0. -1.
</event>
<event>
 7    1  0.2420569E-009  0.1747871E+03  0.7561462E-02  0.1172946E+00
         -2   -1    0    0    0  501 -0.00000000000E+00  0.00000000000E+00  0.30689797728E+02  0.30689797728E+02  0.00000000000E+00 0.  1.
          2   -1    0    0  501    0  0.00000000000E+00 -0.00000000000E+00 -0.12624102604E+04  0.12624102604E+04  0.00000000000E+00 0. -1.
         25    2    1    2    0    0  0.15951053414E+03  0.17028073396E+02 -0.71644816015E+03  0.74476779954E+03  0.12509014056E+03 0.  0.
          5    1    3    3  502    0  0.28999318838E+02  0.20532110221E+02 -0.41108510899E+03  0.41263902782E+03  0.41800000000E+01 0.  1.
         -5    1    3    3    0  502  0.13051121531E+03 -0.35040368241E+01 -0.30536305116E+03  0.33212877172E+03  0.41800000000E+01 0.  1.
        -11    1    1    2    0    0 -0.36314049752E+02 -0.44007531081E+02 -0.21950595293E+03  0.22679999201E+03  0.00000000000E+00 0. -1.
         11    1    1    2    0    0 -0.12319648439E+03  0.26979457685E+02 -0.29576634962E+03  0.32153226661E+03  0.00000000000E+00 0.  1.
</event>
<event>
 7    1  0.2420569E-009  0.9595069E+02  0.7561462E-02  0.1289049E+00
         -2   -1    0    0    0  501 -0.00000000000E+00  0.00000000000E+00  0.51334887052E+02  0.51334887052E+02  0.00000000000E+00 0.  1.
          2   -1    0    0  501    0  0.00000000000E+00 -0.00000000000E+00 -0.32161867418E+03  0.32161867418E+03  0.00000000000E+00 0. -1.
         25    2    1    2    0    0 -0.16898120664E+02  0.20029579759E+02 -0.24301464405E+03  0.27457162699E+03  0.12508689211E+03 0.  0.
          5    1    3    3  502    0  0.41743441554E+02 -0.24364620271E+02 -0.13811559573E+03  0.14638831858E+03  0.41800000000E+01 0. -1.
         -5    1    3    3    0  502 -0.58641562218E+02  0.44394200030E+02 -0.10489904833E+03  0.12818330841E+03  0.41800000000E+01 0. -1.
        -11    1    1    2    0    0  0.15381564904E+02 -0.43530555226E+02  0.16212838643E+02  0.48932176674E+02  0.00000000000E+00 0.  1.
         11    1    1    2    0    0  0.15165557601E+01  0.23500975467E+02 -0.43481981714E+02  0.49449757563E+02  0.00000000000E+00 0. -1.
</event>
<event>
 7    1  0.2420569E-009  0.1327556E+03  0.7561462E-02  0.1223423E+00
          1   -1    0    0  501    0  0.00000000000E+00  0.00000000000E+00  0.55896821692E+03  0.55896821692E+03  0.00000000000E+00 0. -1.
         -1   -1    0    0    0  501 -0.00000000000E+00 -0.00000000000E+00 -0.38200008412E+02  0.38200008412E+02  0.00000000000E+00 0.  1.
         25    2    1    2    0    0 -0.32240037357E+02 -0.77461392143E+02  0.18071255314E+03  0.23525368860E+03  0.12509030281E+03 0.  0.
          5    1    3    3  502    0  0.41991115071E+02 -0.45720680326E+02  0.11627073005E+03  0.13187110912E+03  0.41800000000E+01 0. -1.
         -5    1    3    3    0  502 -0.74231152428E+02 -0.31740711818E+02  0.64441823094E+02  0.10338257949E+03  0.41800000000E+01 0. -1.
        -11    1    1    2    0    0  0.45280800850E+02  0.92232557949E+02  0.26243764503E+03  0.28183454934E+03  0.00000000000E+00 0.  1.
         11    1    1    2    0    0 -0.13040763493E+02 -0.14771165806E+02  0.77618010339E+02  0.80079987392E+02  0.00000000000E+00 0. -1.
</event>
<event>
 7    1  0.2420569E-009  0.2518380E+03  0.7561462E-02  0.1112149E+00
         -1   -1    0    0    0  501 -0.00000000000E+00  0.00000000000E+00  0.31737194849E+03  0.31737194849E+03  0.00000000000E+00 0.  1.
          1   -1    0    0  501    0  0.00000000000E+00 -0.00000000000E+00 -0.25434155106E+03  0.25434155106E+03  0.00000000000E+00 0. -1.
         25    2    1    2    0    0 -0.10061514311E+03 -0.21618955319E+03  0.14439919025E+03  0.30554740885E+03  0.12508702162E+03 0.  0.
          5    1    3    3  502    0  0.34340926026E+01 -0.10239968868E+03  0.10410301789E+03  0.14612460425E+03  0.41800000000E+01 0. -1.
         -5    1    3    3    0  502 -0.10404923572E+03 -0.11378986451E+03  0.40296172355E+02  0.15942280460E+03  0.41800000000E+01 0. -1.
        -11    1    1    2    0    0  0.42641651607E+01  0.79710836890E+02  0.11540078379E+01  0.79833153241E+02  0.00000000000E+00 0. -1.
         11    1    1    2    0    0  0.96350977954E+02  0.13647871630E+03 -0.82522800659E+02  0.18633293746E+03  0.00000000000E+00 0.  1.
</event>
<event>
 7    1  0.2420569E-009  0.9776601E+02  0.7561462E-02  0.1285065E+00
          1   -1    0    0  501    0  0.00000000000E+00  0.00000000000E+00  0.52159515922E+03  0.52159515922E+03  0.00000000000E+00 0. -1.
         -1   -1    0    0    0  501 -0.00000000000E+00 -0.00000000000E+00 -0.25210404649E+02  0.25210404649E+02  0.00000000000E+00 0.  1.
         25    2    1    2    0    0  0.26763513734E+02 -0.44280809363E+01  0.35142370232E+03  0.37400811769E+03  0.12509020735E+03 0.  0.
          5    1    3    3  502    0  0.45906163603E+02  0.42600682314E+02  0.27560602963E+03  0.28266296177E+03  0.41800000000E+01 0.  1.
         -5    1    3    3    0  502 -0.19142649870E+02 -0.47028763250E+02  0.75817672692E+02  0.91345155916E+02  0.41800000000E+01 0.  1.
        -11    1    1    2    0    0  0.12866847124E+02  0.31363756444E+02  0.20952007941E+02  0.39852573442E+02  0.00000000000E+00 0.  1.
         11    1    1    2    0    0 -0.39630360858E+02 -0.26935675508E+02  0.12400904431E+03  0.13294487274E+03  0.00000000000E+00 0. -1.
</event>
<event>
 7    1  0.2420569E-009  0.1930463E+03  0.7561462E-02  0.1155742E+00
          2   -1    0    0  501    0  0.00000000000E+00  0.00000000000E+00  0.43125462151E+03  0.43125462151E+03  0.00000000000E+00 0. -1.
         -2   -1    0    0    0  501 -0.00000000000E+00 -0.00000000000E+00 -0.10676751823E+03  0.10676751823E+03  0.00000000000E+00 0.  1.
         25    2    1    2    0    0 -0.57324953405E+02 -0.17554386433E+03  0.19193658697E+03  0.29425939894E+03  0.12508853608E+03 0.  0.
          5    1    3    3  502    0 -0.20588089816E+02 -0.17176911820E+02  0.10779004060E+03  0.11115341198E+03  0.41800000000E+01 0. -1.
         -5    1    3    3    0  502 -0.36736863589E+02 -0.15836695251E+03  0.84146546367E+02  0.18310598696E+03  0.41800000000E+01 0. -1.
        -11    1    1    2    0    0 -0.26632872663E+01  0.99209148049E+02  0.32697431571E+02  0.10449244081E+03  0.00000000000E+00 0.  1.
         11    1    1    2    0    0  0.59988240672E+02  0.76334716281E+02  0.99853084736E+02  0.13927029999E+03  0.00000000000E+00 0. -1.
</event>
<event>
 7    1  0.2420569E-009  0.1435545E+03  0.7561462E-02  0.1208625E+00
         -1   -1    0    0    0  501 -0.00000000000E+00  0.00000000000E+00  0.18997380874E+03  0.18997380874E+03  0.00000000000E+00 0.  1.
          1   -1    0    0  501    0  0.00000000000E+00 -0.00000000000E+00 -0.11041001335E+03  0.11041001335E+03  0.00000000000E+00 0. -1.
         25    2    1    2    0    0 -0.96035659893E+02  0.79378843993E+01  0.38647201922E+02  0.16257097236E+03  0.12509938792E+03 0.  0.
          5    1    3    3  502    0  0.97419090323E+01 -0.39064124030E+02  0.20365444971E+02  0.45311525319E+02  0.41800000000E+01 0. -1.
         -5    1    3    3    0  502 -0.10577756893E+03  0.47002008429E+02  0.18281756951E+02  0.11725944705E+03  0.41800000000E+01 0. -1.
        -11    1    1    2    0    0  0.31892814382E+02 -0.46184640487E+02  0.25065169944E+02  0.61468978927E+02  0.00000000000E+00 0.  1.
         11    1    1    2    0    0  0.64142845512E+02  0.38246756087E+02  0.15851423526E+02  0.76343870804E+02  0.00000000000E+00 0. -1.
</event>
<event>
 7    1  0.2420569E-009  0.1039091E+03  0.7561462E-02  0.1272284E+00
          1   -1    0    0  501    0  0.00000000000E+00  0.00000000000E+00  0.10002525117E+03  0.10002525117E+03  0.00000000000E+00 0. -1.
         -1   -1    0    0    0  501 -0.00000000000E+00 -0.00000000000E+00 -0.12230508193E+03  0.12230508193E+03  0.00000000000E+00 0.  1.
         25    2    1    2    0    0  0.26269763942E+02 -0.13154807058E+02 -0.10863653566E+02  0.12895171949E+03  0.12508947815E+03 0.  0.
          5    1    3    3  502    0  0.42029865738E+02 -0.61364615174E+02 -0.20254756934E+02  0.77200085414E+02  0.41800000000E+01 0. -1.
         -5    1    3    3    0  502 -0.15760101796E+02  0.48209808117E+02  0.93911033676E+01  0.51751634078E+02  0.41800000000E+01 0. -1.
        -11    1    1    2    0    0  0.47393869548E+01 -0.29397907282E+02  0.16225650223E+02  0.33911214464E+02  0.00000000000E+00 0. -1.
         11    1    1    2    0    0 -0.31009150897E+02  0.42552714340E+02 -0.27641827416E+02  0.59467399135E+02  0.00000000000E+00 0.  1.
</event>
<event>
 7    1  0.2420569E-009  0.1879145E+03  0.7561462E-02  0.1160356E+00
          2   -1    0    0  501    0  0.00000000000E+00  0.00000000000E+00  0.42999644448E+03  0.42999644448E+03  0.00000000000E+00 0. -1.
         -2   -1    0    0    0  501 -0.00000000000E+00 -0.00000000000E+00 -0.86644564605E+02  0.86644564605E+02  0.00000000000E+00 0.  1.
         25    2    1    2    0    0 -0.27735767560E+02 -0.15167526201E+03  0.23147743723E+03  0.30496464804E+03  0.12508786791E+03 0.  0.
          5    1    3    3  502    0  0.47005083447E+02 -0.32263113656E+02  0.76295806583E+02  0.95335769125E+02  0.41800000000E+01 0.  1.
         -5    1    3    3    0  502 -0.74740851006E+02 -0.11941214836E+03  0.15518163065E+03  0.20962887891E+03  0.41800000000E+01 0.  1.
        -11    1    1    2    0    0  0.46212450286E+02  0.31001628461E+02  0.50002637308E+02  0.74812801487E+02  0.00000000000E+00 0. -1.
         11    1    1    2    0    0 -0.18476682726E+02  0.12067363355E+03  0.61871805335E+02  0.13686355956E+03  0.00000000000E+00 0.  1.
</event>
<event>
 7    1  0.2420569E-009  0.1228797E+03  0.7561462E-02  0.1238421E+00
         -1   -1    0    0    0  501 -0.00000000000E+00  0.00000000000E+00  0.58589910590E+02  0.58589910590E+02  0.00000000000E+00 0.  1.
          1   -1    0    0  501    0  0.00000000000E+00 -0.00000000000E+00 -0.30786839703E+03  0.30786839703E+03  0.00000000000E+00 0. -1.
         25    2    1    2    0    0 -0.60622080388E+02  0.13270546161E+02 -0.69220136835E+02  0.15585102436E+03  0.12508785083E+03 0.  0.
          5    1    3    3  502    0 -0.75076191193E+02 -0.39354240530E+02 -0.40408651343E+02  0.93997458663E+02  0.41800000000E+01 0. -1.
         -5    1    3    3    0  502  0.14454110805E+02  0.52624786691E+02 -0.28811485492E+02  0.61853565699E+02  0.41800000000E+01 0. -1.
        -11    1    1    2    0    0  0.82725884032E+02 -0.62333538229E+01 -0.15869693451E+03  0.17907301196E+03  0.00000000000E+00 0.  1.
         11    1    1    2    0    0 -0.22103803645E+02 -0.70371923378E+01 -0.21361415096E+02  0.31534271300E+02  0.00000000000E+00 0. -1.
</event>
<event>
 7    1  0.2420569E-009  0.1067011E+03  0.7561462E-02  0.1266804E+00
          1   -1    0    0  501    0  0.00000000000E+00  0.00000000000E+00  0.24417047736E+03  0.24417047736E+03  0.00000000000E+00 0. -1.
         -1   -1    0    0    0  501 -0.00000000000E+00 -0.00000000000E+00 -0.89168721048E+02  0.89168721048E+02  0.00000000000E+00 0.  1.
         25    2    1    2    0    0 -0.33883887868E+02  0.60576572011E+02  0.16346497163E+03  0.21722397518E+03  0.12509124472E+03 0.  0.
          5    1    3    3  502    0 -0.57828871533E+02  0.35612412074E+02  0.21970297362E+02  0.71502368092E+02  0.41800000000E+01 0. -1.
         -5    1    3    3    0  502  0.23944983665E+02  0.24964159937E+02  0.14149467427E+03  0.14572160709E+03  0.41800000000E+01 0. -1.
        -11    1    1    2    0    0 -0.13673226513E+02 -0.61447735785E+02  0.12425939507E+02  0.64165296922E+02  0.00000000000E+00 0. -1.
         11    1    1    2    0    0  0.47557114381E+02  0.87116377427E+00 -0.20889154825E+02  0.51949926312E+02  0.00000000000E+00 0.  1.
</event>
<event>
 7    1  0.2420569E-009  0.1198771E+03  0.7561462E-02  0.1243300E+00
         -2   -1    0    0    0  501 -0.00000000000E+00  0.00000000000E+00  0.20117725805E+02  0.20117725805E+02  0.00000000000E+00 0. -1.
          2   -1    0    0  501    0  0.00000000000E+00 -0.00000000000E+00 -0.76792820922E+03  0.76792820922E+03  0.00000000000E+00 0.  1.
         25    2    1    2    0    0 -0.19485265463E+02 -0.47283302088E+02 -0.51518998159E+03  0.53261919191E+03  0.12508836969E+03 0.  0.
          5    1    3    3  502    0  0.50191163002E+02 -0.41112287070E+02 -0.24067040896E+03  0.24929719441E+03  0.41800000000E+01 0.  1.
         -5    1    3    3    0  502 -0.69676428464E+02 -0.61710150182E+01 -0.27451957263E+03  0.28332199749E+03  0.41800000000E+01 0.  1.
        -11    1    1    2    0    0  0.70697366044E+01 -0.27737804822E+02 -0.50122098665E+02  0.57719942538E+02  0.00000000000E+00 0. -1.
         11    1    1    2    0    0  0.12415528858E+02  0.75021106910E+02 -0.18249840316E+03  0.19770680058E+03  0.00000000000E+00 0.  1.
</event>
<event>
 7    1  0.2420569E-009  0.7785403E+02  0.7561462E-02  0.1335254E+00
          2   -1    0    0  501    0  0.00000000000E+00  0.00000000000E+00  0.24907432480E+03  0.24907432480E+03  0.00000000000E+00 0. -1.
         -2   -1    0    0    0  501 -0.00000000000E+00 -0.00000000000E+00 -0.54100080811E+02  0.54100080811E+02  0.00000000000E+00 0.  1.
         25    2    1    2    0    0  0.12141022834E+02 -0.43640284941E+02  0.10943630445E+03  0.17226618012E+03  0.12508978047E+03 0.  0.
          5    1    3    3  502    0 -0.10449880813E+02 -0.62533161638E+01  0.12503370496E+03  0.12569488354E+03  0.41800000000E+01 0.  1.
         -5    1    3    3    0  502  0.22590903648E+02 -0.37386968777E+02 -0.15597400517E+02  0.46571296577E+02  0.41800000000E+01 0.  1.
        -11    1    1    2    0    0  0.38008276152E+02  0.12939448623E+02  0.38221700844E+02  0.55434256576E+02  0.00000000000E+00 0. -1.
         11    1    1    2    0    0 -0.50149298986E+02  0.30700836318E+02  0.47316238698E+02  0.75473968916E+02  0.00000000000E+00 0.  1.
</event>
<event>
 7    1  0.2420569E-009  0.1251964E+03  0.7561462E-02  0.1234763E+00
          2   -1    0    0  501    0  0.00000000000E+00  0.00000000000E+00  0.87652397818E+02  0.87652397818E+02  0.00000000000E+00 0.  1.
         -2   -1    0    0    0  501 -0.00000000000E+00 -0.00000000000E+00 -0.29947204301E+03  0.29947204301E+03  0.00000000000E+00 0. -1.
         25    2    1    2    0    0 -0.18338772494E+02 -0.69163246256E+02 -0.22800088571E+03  0.26972473820E+03  0.12508862980E+03 0.  0.
          5    1    3    3  502    0 -0.39028039490E+02  0.19619527833E+02 -0.34623678151E+02  0.55896200475E+02  0.41800000000E+01 0.  1.
         -5    1    3    3    0  502  0.20689266996E+02 -0.88782774089E+02 -0.19337720756E+03  0.21382853773E+03  0.41800000000E+01 0.  1.
        -11    1    1    2    0    0  0.54093559808E+02  0.53946499802E+02  0.18040498940E+02  0.78497118772E+02  0.00000000000E+00 0.  1.
         11    1    1    2    0    0 -0.35754787314E+02  0.15216746454E+02 -0.18592584219E+01  0.38902583852E+02  0.00000000000E+00 0. -1.
</event>
<event>
 7    1  0.2420569E-009  0.1130229E+03  0.7561462E-02  0.1255072E+00
          3   -1    0    0  501    0  0.00000000000E+00  0.00000000000E+00  0.86043336295E+02  0.86043336295E+02  0.00000000000E+00 0. -1.
         -3   -1    0    0    0  501 -0.00000000000E+00 -0.00000000000E+00 -0.16432039098E+03  0.16432039098E+03  0.00000000000E+00 0.  1.
         25    2    1    2    0    0  0.19130078925E+02 -0.39661386447E+02 -0.33469974075E+02  0.13676930498E+03  0.12508644262E+03 0.  0.
          5    1    3    3  502    0  0.31864236125E+02  0.40072005727E+02 -0.79041104423E+01  0.51971555189E+02  0.41800000000E+01 0. -1.
         -5    1    3    3    0  502 -0.12734157200E+02 -0.79733392174E+02 -0.25565863633E+02  0.84797749796E+02  0.41800000000E+01 0. -1.
        -11    1    1    2    0    0 -0.52009012189E+02  0.21624739662E+02 -0.50517370499E+02  0.75660897671E+02  0.00000000000E+00 0.  1.
         11    1    1    2    0    0  0.32878933264E+02  0.18036646785E+02  0.57102898838E+01  0.37933524623E+02  0.00000000000E+00 0. -1.
</event>
<event>
 7    1  0.2420569E-009  0.3989950E+03  0.7561462E-02  0.1044128E+00
         -1   -1    0    0    0  501 -0.00000000000E+00  0.00000000000E+00  0.14163059050E+03  0.14163059050E+03  0.00000000000E+00 0.  1.
          1   -1    0    0  501    0  0.00000000000E+00 -0.00000000000E+00 -0.15846934995E+04  0.15846934995E+04  0.00000000000E+00 0. -1.
         25    2    1    2    0    0 -0.22584091392E+03  0.32436035358E+03 -0.29509405116E+03  0.50886369854E+03  0.12509199530E+03 0.  0.
          5    1    3    3  502    0 -0.22541101791E+03  0.28875907735E+03 -0.22442749570E+03  0.42962437661E+03  0.41800000000E+01 0. -1.
         -5    1    3    3    0  502 -0.42989600454E+00  0.35601276229E+02 -0.70666555458E+02  0.79239321931E+02  0.41800000000E+01 0. -1.
        -11    1    1    2    0    0  0.76367011249E+02 -0.92796385181E+02 -0.48102513394E+03  0.49581071892E+03  0.00000000000E+00 0.  1.
         11    1    1    2    0    0  0.14947390267E+03 -0.23156396840E+03 -0.66694372391E+03  0.72164967256E+03  0.00000000000E+00 0. -1.
</event>
<event>
 7    1  0.2420569E-009  0.8631187E+02  0.7561462E-02  0.1312037E+00
          2   -1    0    0  501    0  0.00000000000E+00  0.00000000000E+00  0.88938819851E+03  0.88938819851E+03  0.00000000000E+00 0. -1.
         -2   -1    0    0    0  501 -0.00000000000E+00 -0.00000000000E+00 -0.16238351259E+02  0.16238351259E+02  0.00000000000E+00 0.  1.
         25    2    1    2    0    0  0.19408223048E+02  0.30834546661E+02  0.59960753782E+03  0.61359955676E+03  0.12509103987E+03 0.  0.
          5    1    3    3  502    0 -0.58441144496E+01 -0.38475891832E+02  0.83363712764E+02  0.92095216661E+02  0.41800000000E+01 0.  1.
         -5    1    3    3    0  502  0.25252337498E+02  0.69310438493E+02  0.51624382506E+03  0.52150434010E+03  0.41800000000E+01 0.  1.
        -11    1    1    2    0    0  0.76219620817E+01  0.87879172479E+01 -0.24582915610E+01  0.11889701129E+02  0.00000000000E+00 0.  1.
         11    1    1    2    0    0 -0.27030185130E+02 -0.39622463909E+02  0.27600060098E+03  0.28013729187E+03  0.00000000000E+00 0. -1.
</event>
<event>
 7    1  0.2420569E-009  0.1425595E+03  0.7561462E-02  0.1209926E+00
          1   -1    0    0  501    0  0.00000000000E+00  0.00000000000E+00  0.74943065065E+02  0.74943065065E+02  0.00000000000E+00 0. -1.
         -1   -1    0    0    0  501 -0.00000000000E+00 -0.00000000000E+00 -0.34776478687E+03  0.34776478687E+03  0.00000000000E+00 0.  1.
         25    2    1    2    0    0  0.54062946756E+02 -0.87063157151E+02 -0.65640997302E+02  0.17452729765E+03  0.12509293167E+03 0.  0.
          5    1    3    3  502    0  0.20444463023E+02 -0.11174327171E+03 -0.25516751273E+02  0.11650369881E+03  0.41800000000E+01 0. -1.
         -5    1    3    3    0  502  0.33618483732E+02  0.24680114559E+02 -0.40124246029E+02  0.58023598841E+02  0.41800000000E+01 0. -1.
        -11    1    1    2    0    0 -0.73419456035E+02  0.53713541948E+02 -0.17773632784E+03  0.19966412634E+03  0.00000000000E+00 0.  1.
         11    1    1    2    0    0  0.19356509279E+02  0.33349615204E+02 -0.29444396662E+02  0.48516427944E+02  0.00000000000E+00 0. -1.
</event>
<event>
 7    1  0.2420569E-009  0.1018881E+03  0.7561462E-02  0.1276375E+00
          3   -1    0    0  501    0  0.00000000000E+00  0.00000000000E+00  0.65104161212E+02  0.65104161212E+02  0.00000000000E+00 0. -1.
         -3   -1    0    0    0  501 -0.00000000000E+00 -0.00000000000E+00 -0.25544912317E+03  0.25544912317E+03  0.00000000000E+00 0.  1.
         25    2    1    2    0    0  0.46831755782E+02  0.51214799317E+02 -0.10311262781E+03  0.17633920081E+03  0.12508849152E+03 0.  0.
          5    1    3    3  502    0  0.61079872638E+02  0.45424864264E+02 -0.12670333712E+03  0.14786945990E+03  0.41800000000E+01 0.  1.
         -5    1    3    3    0  502 -0.14248116856E+02  0.57899350530E+01  0.23590709309E+02  0.28469740912E+02  0.41800000000E+01 0.  1.
        -11    1    1    2    0    0 -0.34046219678E+01 -0.65728201611E+02 -0.34273388323E+02  0.74205478807E+02  0.00000000000E+00 0.  1.
         11    1    1    2    0    0 -0.43427133814E+02  0.14513402295E+02 -0.52958945825E+02  0.70008604760E+02  0.00000000000E+00 0. -1.
</event>
<event>
 7    1  0.2420569E-009  0.7978766E+02  0.7561462E-02  0.1329655E+00
          2   -1    0    0  501    0  0.00000000000E+00  0.00000000000E+00  0.13068569288E+03  0.13068569288E+03  0.00000000000E+00 0. -1.
         -2   -1    0    0    0  501 -0.00000000000E+00 -0.00000000000E+00 -0.11366534835E+03  0.11366534835E+03  0.00000000000E+00 0.  1.
         25    2    1    2    0    0 -0.46714117405E+02  0.31277675153E+02  0.21354903331E+02  0.13879428514E+03  0.12508924799E+03 0.  0.
          5    1    3    3  502    0 -0.47913555891E+02  0.34141616971E+02  0.69052431994E+02  0.90813377933E+02  0.41800000000E+01 0. -1.
         -5    1    3    3    0  502  0.11994384864E+01 -0.28639418172E+01 -0.47697528662E+02  0.47980907202E+02  0.41800000000E+01 0. -1.
        -11    1    1    2    0    0 -0.16355419485E+02 -0.27759108681E+02  0.19934608353E+02  0.37887418380E+02  0.00000000000E+00 0. -1.
         11    1    1    2    0    0  0.63069536889E+02 -0.35185664722E+01 -0.24269167155E+02  0.67669337723E+02  0.00000000000E+00 0.  1.
</event>
<event>
 7    1  0.2420569E-009  0.1246343E+03  0.7561462E-02  0.1235642E+00
         -1   -1    0    0    0  501 -0.00000000000E+00  0.00000000000E+00  0.38683412245E+02  0.38683412245E+02  0.00000000000E+00 0.  1.
          1   -1    0    0  501    0  0.00000000000E+00 -0.00000000000E+00 -0.41179052769E+03  0.41179052769E+03  0.00000000000E+00 0. -1.
         25    2    1    2    0    0 -0.37962339636E+02 -0.50921832649E+02 -0.18171234064E+03  0.22956506065E+03  0.12508625048E+03 0.  0.
          5    1    3    3  502    0 -0.43454364517E+01  0.40979957083E+02 -0.42473927339E+02  0.59327452364E+02  0.41800000000E+01 0.  1.
         -5    1    3    3    0  502 -0.33616903184E+02 -0.91901789731E+02 -0.13923841330E+03  0.17023760828E+03  0.41800000000E+01 0.  1.
        -11    1    1    2    0    0  0.66559793286E+02  0.24379341353E+02 -0.13236093304E+03  0.15014651165E+03  0.00000000000E+00 0.  1.
         11    1    1    2    0    0 -0.28597453651E+02  0.26542491295E+02 -0.59033841773E+02  0.70762367639E+02  0.00000000000E+00 0. -1.
</event>
<event>
 7    1  0.2420569E-009  0.1407512E+03  0.7561462E-02  0.1212322E+00
         -1   -1    0    0    0  501 -0.00000000000E+00  0.00000000000E+00  0.57740336745E+02  0.57740336745E+02  0.00000000000E+00 0.  1.
          1   -1    0    0  501    0  0.00000000000E+00 -0.00000000000E+00 -0.50299473276E+03  0.50299473276E+03  0.00000000000E+00 0. -1.
         25    2    1    2    0    0  0.11648992684E+03  0.27770249684E+02 -0.32444497834E+03  0.36776659737E+03  0.12508651547E+03 0.  0.
          5    1    3    3  502    0  0.12406624591E+03  0.41792652702E+02 -0.18123999860E+03  0.22361678982E+03  0.41800000000E+01 0.  1.
         -5    1    3    3    0  502 -0.75763190767E+01 -0.14022403018E+02 -0.14320497974E+03  0.14414980756E+03  0.41800000000E+01 0.  1.
        -11    1    1    2    0    0 -0.73269518010E+02 -0.46669344021E+02 -0.11688796563E+03  0.14563394676E+03  0.00000000000E+00 0. -1.
         11    1    1    2    0    0 -0.43220408827E+02  0.18899094337E+02 -0.39214520490E+01  0.47334525371E+02  0.00000000000E+00 0.  1.
</event>
<event>
 7    1  0.2420569E-009  0.1065106E+03  0.7561462E-02  0.1267172E+00
         -2   -1    0    0    0  501 -0.00000000000E+00  0.00000000000E+00  0.32360979268E+02  0.32360979268E+02  0.00000000000E+00 0.  1.
          2   -1    0    0  501    0  0.00000000000E+00 -0.00000000000E+00 -0.39294620973E+03  0.39294620973E+03  0.00000000000E+00 0. -1.
         25    2    1    2    0    0 -0.53387101893E+01  0.20775748205E+02 -0.25200452346E+03  0.28215967777E+03  0.12509064862E+03 0.  0.
          5    1    3    3  502    0  0.10590483567E+02  0.71985080490E+02 -0.15356649918E+03  0.16998279980E+03  0.41800000000E+01 0. -1.
         -5    1    3    3    0  502 -0.15929193756E+02 -0.51209332285E+02 -0.98438024281E+02  0.11217687797E+03  0.41800000000E+01 0. -1.
        -11    1    1    2    0    0 -0.35968228138E+02  0.69047740811E+01 -0.74041580979E+02  0.82604752008E+02  0.00000000000E+00 0. -1.
         11    1    1    2    0    0  0.41306938327E+02 -0.27680522286E+02 -0.34539126018E+02  0.60542759221E+02  0.00000000000E+00 0.  1.
</event>
<event>
 7    1  0.2420569E-009  0.1338924E+03  0.7561462E-02  0.1221792E+00
          2   -1    0    0  501    0  0.00000000000E+00  0.00000000000E+00  0.86954632022E+03  0.86954632022E+03  0.00000000000E+00 0.  1.
         -2   -1    0    0    0  501 -0.00000000000E+00 -0.00000000000E+00 -0.31511883028E+02  0.31511883028E+02  0.00000000000E+00 0. -1.
         25    2    1    2    0    0 -0.91897336418E+02  0.42912409160E+02  0.25404448055E+03  0.30078640288E+03  0.12508903532E+03 0.  0.
          5    1    3    3  502    0 -0.70896166214E+02 -0.12067572878E+02  0.22252032094E+03  0.23389026985E+03  0.41800000000E+01 0. -1.
         -5    1    3    3    0  502 -0.21001170204E+02  0.54979982039E+02  0.31524159612E+02  0.66896133028E+02  0.41800000000E+01 0. -1.
        -11    1    1    2    0    0  0.87002647401E+02  0.63553597608E+01  0.31989489868E+03  0.33157593015E+03  0.00000000000E+00 0.  1.
         11    1    1    2    0    0  0.48946890173E+01 -0.49267768921E+02  0.26409505796E+03  0.26869587022E+03  0.00000000000E+00 0. -1.
</event>
<event>
 7    1  0.2420569E-009  0.1523412E+03  0.7561462E-02  0.1197625E+00
          2   -1    0    0  501    0  0.00000000000E+00  0.00000000000E+00  0.10787301574E+04  0.10787301574E+04  0.00000000000E+00 0. -1.
         -2   -1    0    0    0  501 -0.00000000000E+00 -0.00000000000E+00 -0.31765786090E+02  0.31765786090E+02  0.00000000000E+00 0.  1.
         25    2    1    2    0    0 -0.14327425386E+03  0.19788743490E+02  0.44723017914E+03  0.48639630782E+03  0.12508968362E+03 0.  0.
          5    1    3    3  502    0 -0.56040502230E+02  0.21382399078E+02  0.35230161233E+03  0.35739563977E+03  0.41800000000E+01 0.  1.
         -5    1    3    3    0  502 -0.87233751628E+02 -0.15936555878E+01  0.94928566810E+02  0.12900066805E+03  0.41800000000E+01 0.  1.
        -11    1    1    2    0    0  0.54588305243E+02 -0.38204911102E+02  0.38987441038E+03  0.39552693229E+03  0.00000000000E+00 0. -1.
         11    1    1    2    0    0  0.88685948614E+02  0.18416167612E+02  0.20985978178E+03  0.22857270335E+03  0.00000000000E+00 0.  1.
</event>
<event>
 7    1  0.2420569E-009  0.8233808E+02  0.7561462E-02  0.1322544E+00
          1   -1    0    0  501    0  0.00000000000E+00  0.00000000000E+00  0.95220406540E+03  0.95220406540E+03  0.00000000000E+00 0. -1.
         -1   -1    0    0    0  501 -0.00000000000E+00 -0.00000000000E+00 -0.15477081708E+02  0.15477081708E+02  0.00000000000E+00 0.  1.
         25    2    1    2    0    0  0.11298423670E+02  0.38645450018E+02  0.67375159369E+03  0.68644762342E+03  0.12509198419E+03 0.  0.
          5    1    3    3  502    0  0.78748520220E+00 -0.15218230738E+02  0.67561982205E+01  0.17185263866E+02  0.41800000000E+01 0. -1.
         -5    1    3    3    0  502  0.10510938468E+02  0.53863680755E+02  0.66699539547E+03  0.66926235955E+03  0.41800000000E+01 0. -1.
        -11    1    1    2    0    0 -0.46902658886E+02 -0.34000575830E+02  0.20510573124E+03  0.21312967779E+03  0.00000000000E+00 0. -1.
         11    1    1    2    0    0  0.35604235216E+02 -0.46448741877E+01  0.57869658758E+02  0.68103845900E+02  0.00000000000E+00 0.  1.
</event>
<event>
 7    1  0.2420569E-009  0.1334900E+03  0.7561462E-02  0.1222367E+00
         -2   -1    0    0    0  501 -0.00000000000E+00  0.00000000000E+00  0.67814861545E+02  0.67814861545E+02  0.00000000000E+00 0.  1.
          2   -1    0    0  501    0  0.00000000000E+00 -0.00000000000E+00 -0.45263754731E+03  0.45263754731E+03  0.00000000000E+00 0. -1.
         25    2    1    2    0    0 -0.78362048276E+02  0.82188163489E+02 -0.32003419073E+03  0.36189416260E+03  0.12509994748E+03 0.  0.
          5    1    3    3  502    0  0.33569468606E+00  0.63954306889E+02 -0.23881227497E+03  0.24726310105E+03  0.41800000000E+01 0.  1.
         -5    1    3    3    0  502 -0.78697742962E+02  0.18233856600E+02 -0.81221915755E+02  0.11463106155E+03  0.41800000000E+01 0.  1.
        -11    1    1    2    0    0  0.37738867893E+02 -0.98006672454E+01 -0.64712307002E+02  0.75551028490E+02  0.00000000000E+00 0.  1.
         11    1    1    2    0    0  0.40623180383E+02 -0.72387496244E+02 -0.76188035576E-01  0.83007217767E+02  0.00000000000E+00 0. -1.
</event>
<event>
 7    1  0.2420569E-009  0.1524474E+03  0.7561462E-02  0.1197498E+00
          2   -1    0    0  501    0  0.00000000000E+00  0.00000000000E+00  0.24122562832E+03  0.24122562832E+03  0.00000000000E+00 0. -1.
         -2   -1    0    0    0  501 -0.00000000000E+00 -0.00000000000E+00 -0.13940092765E+03  0.13940092765E+03  0.00000000000E+00 0.  1.
         25    2    1    2    0    0  0.65817799388E+02 -0.12857198327E+03  0.85907164471E+02  0.20950105504E+03  0.12509162064E+03 0.  0.
          5    1    3    3  502    0  0.19189102616E+02  0.36121583114E+01  0.64657169596E+02  0.67670461259E+02  0.41800000000E+01 0. -1.
         -5    1    3    3    0  502  0.46628696773E+02 -0.13218414159E+03  0.21249994874E+02  0.14183059378E+03  0.41800000000E+01 0. -1.
        -11    1    1    2    0    0 -0.48714320970E+02  0.10290545817E+03  0.50704994903E+02  0.12463392354E+03  0.00000000000E+00 0. -1.
         11    1    1    2    0    0 -0.17103478418E+02  0.25666525105E+02 -0.34787458712E+02  0.46491577394E+02  0.00000000000E+00 0.  1.
</event>
<event>
 7    1  0.2420569E-009  0.1009851E+03  0.7561462E-02  0.1278238E+00
          1   -1    0    0  501    0  0.00000000000E+00  0.00000000000E+00  0.16841650558E+02  0.16841650558E+02  0.00000000000E+00 0. -1.
         -1   -1    0    0    0  501 -0.00000000000E+00 -0.00000000000E+00 -0.84006442874E+03  0.84006442874E+03  0.00000000000E+00 0.  1.
         25    2    1    2    0    0 -0.31854121975E+02  0.36834073004E+02 -0.49720320137E+03  0.51500459852E+03  0.12508908437E+03 0.  0.
          5    1    3    3  502    0 -0.30227709883E+02  0.66051451723E+02 -0.46739657510E+03  0.47302593960E+03  0.41800000000E+01 0.  1.
         -5    1    3    3    0  502 -0.16264120925E+01 -0.29217378720E+02 -0.29806626268E+02  0.41978658924E+02  0.41800000000E+01 0.  1.
        -11    1    1    2    0    0  0.83265750453E+01 -0.63526279190E+02 -0.16511540935E+03  0.17711018719E+03  0.00000000000E+00 0. -1.
         11    1    1    2    0    0  0.23527546930E+02  0.26692206186E+02 -0.16090416746E+03  0.16479129359E+03  0.00000000000E+00 0.  1.
</event>
<event>
 7    1  0.3138216E-009  0.7842702E+02  0.7561462E-02  0.1333576E+00
          1   -1    0    0  501    0  0.00000000000E+00  0.00000000000E+00  0.32290858378E+03  0.32290858378E+03  0.00000000000E+00 0. -1.
         -1   -1    0    0    0  501 -0.00000000000E+00 -0.00000000000E+00 -0.45493868475E+02  0.45493868475E+02  0.00000000000E+00 0.  1.
         25    2    1    2    0    0  0.44739289961E+02  0.60644782923E+01  0.10927773601E+03  0.17213141187E+03  0.12509683211E+03 0.  0.
          5    1    3    3  502    0 -0.97302455484E+01  0.57807147731E+00 -0.24948946735E+02  0.27109669645E+02  0.41800000000E+01 0.  1.
         -5    1    3    3    0  502  0.54469535509E+02  0.54864068149E+01  0.13422668274E+03  0.14502174222E+03  0.41800000000E+01 0.  1.
        -11    1    1    2    0    0 -0.19995460641E+02  0.36781979685E+02  0.36144211527E+02  0.55309461241E+02  0.00000000000E+00 0.  1.
         11    1    1    2    0    0 -0.24743829320E+02 -0.42846457978E+02  0.13199276777E+03  0.14096157914E+03  0.00000000000E+00 0. -1.
</event>
<event>
 7    1  0.2420569E-009  0.8410427E+02  0.7561462E-02  0.1317792E+00
          2   -1    0    0  501    0  0.00000000000E+00  0.00000000000E+00  0.49232546663E+03  0.49232546663E+03  0.00000000000E+00 0. -1.
         -2   -1    0    0    0  501 -0.00000000000E+00 -0.00000000000E+00 -0.25519966665E+02  0.25519966665E+02  0.00000000000E+00 0.  1.
         25    2    1    2    0    0 -0.10052058413E+02 -0.24278849527E+01  0.33667785519E+03  0.35931446403E+03  0.12509183580E+03 0.  0.
          5    1    3    3  502    0  0.44512914787E+02  0.36880742354E+02  0.14608259251E+03  0.15715974349E+03  0.41800000000E+01 0.  1.
         -5    1    3    3    0  502 -0.54564973200E+02 -0.39308627307E+02  0.19059526268E+03  0.20215472054E+03  0.41800000000E+01 0.  1.
        -11    1    1    2    0    0 -0.60253361397E+01 -0.16776675691E+02 -0.69879855737E+01  0.19146630649E+02  0.00000000000E+00 0.  1.
         11    1    1    2    0    0  0.16077394553E+02  0.19204560644E+02  0.13711563035E+03  0.13938433862E+03  0.00000000000E+00 0. -1.
</event>
<event>
 7    1  0.2420569E-009  0.8400960E+02  0.7561462E-02  0.1318043E+00
          1   -1    0    0  501    0  0.00000000000E+00  0.00000000000E+00  0.10809975476E+04  0.10809975476E+04  0.00000000000E+00 0.  1.
         -1   -1    0    0    0  501 -0.00000000000E+00 -0.00000000000E+00 -0.21233005917E+02  0.21233005917E+02  0.00000000000E+00 0. -1.
         25    2    1    2    0    0  0.23372526550E+02  0.26276621380E+02  0.92631217057E+03  0.93538159827E+03  0.12509101171E+03 0.  0.
          5    1    3    3  502    0 -0.13074589660E+02  0.62144760554E+02  0.28495897770E+03  0.29197946422E+03  0.41800000000E+01 0. -1.
         -5    1    3    3    0  502  0.36447116210E+02 -0.35868139175E+02  0.64135319287E+03  0.64340213404E+03  0.41800000000E+01 0. -1.
        -11    1    1    2    0    0  0.10992838469E+02 -0.24788018082E+01 -0.11433633133E+02  0.16053501881E+02  0.00000000000E+00 0. -1.
         11    1    1    2    0    0 -0.34365365019E+02 -0.23797819571E+02  0.14488600426E+03  0.15079545338E+03  0.00000000000E+00 0.  1.
</event>
<event>
 7    1  0.2420569E-009  0.7325871E+02  0.7561462E-02  0.1349350E+00
          1   -1    0    0  501    0  0.00000000000E+00  0.00000000000E+00  0.52083825611E+03  0.52083825611E+03  0.00000000000E+00 0. -1.
         -1   -1    0    0    0  501 -0.00000000000E+00 -0.00000000000E+00 -0.31106536194E+02  0.31106536194E+02  0.00000000000E+00 0.  1.
         25    2    1    2    0    0  0.60225299819E+01  0.52955953607E+02  0.35924882183E+03  0.38412149282E+03  0.12509596865E+03 0.  0.
          5    1    3    3  502    0  0.21983938338E+02  0.22244236589E+02  0.34503068585E+03  0.34647041170E+03  0.41800000000E+01 0.  1.
         -5    1    3    3    0  502 -0.15961408356E+02  0.30711717019E+02  0.14218135979E+02  0.37651081122E+02  0.41800000000E+01 0.  1.
        -11    1    1    2    0    0  0.79149039975E+01 -0.62634793947E+02  0.13603382064E+03  0.14996987523E+03  0.00000000000E+00 0. -1.
         11    1    1    2    0    0 -0.13937433979E+02  0.96788403400E+01 -0.55509225541E+01  0.17853424250E+02  0.00000000000E+00 0.  1.
</event>
<event>
 7    1  0.2420569E-009  0.1086457E+03  0.7561462E-02  0.1263099E+00
          3   -1    0    0  501    0  0.00000000000E+00  0.00000000000E+00  0.37631722104E+02  0.37631722104E+02  0.00000000000E+00 0. -1.
         -3   -1    0    0    0  501 -0.00000000000E+00 -0.00000000000E+00 -0.89910380967E+03  0.89910380967E+03  0.00000000000E+00 0.  1.
         25    2    1    2    0    0  0.48522200539E+01 -0.72661612601E+02 -0.78213989253E+03  0.79542030714E+03  0.12508956602E+03 0.  0.
          5    1    3    3  502    0  0.50188301531E+02  0.88179533305E+01 -0.25366503321E+03  0.25876638766E+03  0.41800000000E+01 0.  1.
         -5    1    3    3    0  502 -0.45336081477E+02 -0.81479565931E+02 -0.52847485932E+03  0.53665391947E+03  0.41800000000E+01 0.  1.
        -11    1    1    2    0    0 -0.14681244515E+01  0.26673542872E+02 -0.90087747463E+02  0.93965076075E+02  0.00000000000E+00 0.  1.
         11    1    1    2    0    0 -0.33840956024E+01  0.45988069729E+02  0.10755552433E+02  0.47350148559E+02  0.00000000000E+00 0. -1.
</event>
<event>
 7    1  0.2420569E-009  0.1525437E+03  0.7561462E-02  0.1197382E+00
         -3   -1    0    0    0  501 -0.00000000000E+00  0.00000000000E+00  0.10847141628E+04  0.10847141628E+04  0.00000000000E+00 0.  1.
          3   -1    0    0  501    0  0.00000000000E+00 -0.00000000000E+00 -0.23691185404E+02  0.23691185404E+02  0.00000000000E+00 0. -1.
         25    2    1    2    0    0 -0.89199004505E+02  0.73433071551E+02  0.66134679055E+03  0.68291594644E+03  0.12508290906E+03 0.  0.
          5    1    3    3  502    0 -0.96419284958E+02  0.92470999331E+01  0.49530357350E+03  0.50470316988E+03  0.41800000000E+01 0.  1.
         -5    1    3    3    0  502  0.72202804536E+01  0.64185971618E+02  0.16604321705E+03  0.17821277656E+03  0.41800000000E+01 0.  1.
        -11    1    1    2    0    0  0.10516189371E+03 -0.53858803841E+02  0.35528068112E+03  0.37441174797E+03  0.00000000000E+00 0.  1.
         11    1    1    2    0    0 -0.15962889206E+02 -0.19574267710E+02  0.44395505766E+02  0.51077653827E+02  0.00000000000E+00 0. -1.
</event>
<event>
 7    1  0.2420569E-009  0.1062581E+03  0.7561462E-02  0.1267660E+00
          1   -1    0    0  501    0  0.00000000000E+00  0.00000000000E+00  0.39227467926E+02  0.39227467926E+02  0.00000000000E+00 0. -1.
         -1   -1    0    0    0  501 -0.00000000000E+00 -0.00000000000E+00 -0.31997466846E+03  0.31997466846E+03  0.00000000000E+00 0.  1.
         25    2    1    2    0    0  0.29832725665E+02 -0.42387671632E+00 -0.15707174002E+03  0.20299786484E+03  0.12508569233E+03 0.  0.
          5    1    3    3  502    0  0.75225438251E+02  0.71510784930E+01 -0.64110487578E+02  0.99184835036E+02  0.41800000000E+01 0.  1.
         -5    1    3    3    0  502 -0.45392712586E+02 -0.75749552093E+01 -0.92961252441E+02  0.10381302981E+03  0.41800000000E+01 0.  1.
        -11    1    1    2    0    0 -0.24709469967E+02  0.42003370358E+02 -0.41676252164E+02  0.64122936785E+02  0.00000000000E+00 0.  1.
         11    1    1    2    0    0 -0.51232556980E+01 -0.41579493642E+02 -0.81999208348E+02  0.92081334755E+02  0.00000000000E+00 0. -1.
</event>
<event>
 7    1  0.2420569E-009  0.1250875E+03  0.7561462E-02  0.1234933E+00
         -1   -1    0    0    0  501 -0.00000000000E+00  0.00000000000E+00  0.13276502492E+03  0.13276502492E+03  0.00000000000E+00 0.  1.
          1   -1    0    0  501    0  0.00000000000E+00 -0.00000000000E+00 -0.24011266165E+03  0.24011266165E+03  0.00000000000E+00 0. -1.
         25    2    1    2    0    0  0.44458479848E+02  0.70311507738E+02  0.63647407134E+02  0.16315134792E+03  0.12508839011E+03 0.  0.
          5    1    3    3  502    0  0.49707937884E+02  0.10369460257E+03  0.40546288200E+02  0.12200378509E+03  0.41800000000E+01 0.  1.
         -5    1    3    3    0  502 -0.52494580360E+01 -0.33383094830E+02  0.23101118933E+02  0.41147562821E+02  0.41800000000E+01 0.  1.
        -11    1    1    2    0    0 -0.18427076070E+01 -0.56102645110E+02 -0.34169100850E+02  0.65714760994E+02  0.00000000000E+00 0.  1.
         11    1    1    2    0    0 -0.42615772241E+02 -0.14208862629E+02 -0.13682594301E+03  0.14401157766E+03  0.00000000000E+00 0. -1.
</event>
<event>
 7    1  0.2420569E-009  0.1490010E+03  0.7561462E-02  0.1201706E+00
         -2   -1    0    0    0  501 -0.00000000000E+00  0.00000000000E+00  0.84938934122E+02  0.84938934122E+02  0.00000000000E+00 0.  1.
          2   -1    0    0  501    0  0.00000000000E+00 -0.00000000000E+00 -0.35083222682E+03  0.35083222682E+03  0.00000000000E+00 0. -1.
         25    2    1    2    0    0  0.11648643909E+03 -0.65956817127E+02 -0.12730625175E+03  0.22310137583E+03  0.12509176609E+03 0.  0.
          5    1    3    3  502    0  0.18832190877E+02 -0.51828188890E+02  0.76931247647E+01  0.55834300797E+02  0.41800000000E+01 0.  1.
         -5    1    3    3    0  502  0.97654248215E+02 -0.14128628238E+02 -0.13499937651E+03  0.16726707503E+03  0.41800000000E+01 0.  1.
        -11    1    1    2    0    0 -0.41396407977E+02  0.53784020164E+02 -0.18209132779E+02  0.70270590825E+02  0.00000000000E+00 0. -1.
         11    1    1    2    0    0 -0.75090031115E+02  0.12172796964E+02 -0.12037790817E+03  0.14239919429E+03  0.00000000000E+00 0.  1.
</event>
<event>
 7    1  0.2420569E-009  0.1951907E+03  0.7561462E-02  0.1153861E+00
          1   -1    0    0  501    0  0.00000000000E+00  0.00000000000E+00  0.19439083610E+03  0.19439083610E+03  0.00000000000E+00 0. -1.
         -1   -1    0    0    0  501 -0.00000000000E+00 -0.00000000000E+00 -0.26039275914E+03  0.26039275914E+03  0.00000000000E+00 0.  1.
         25    2    1    2    0    0  0.16129438056E+03 -0.72794701397E+02  0.51101644957E+02  0.22265980057E+03  0.12510420824E+03 0.  0.
          5    1    3    3  502    0  0.34172346990E+02 -0.73963552723E+02 -0.88148775977E+01  0.82058094648E+02  0.41800000000E+01 0.  1.
         -5    1    3    3    0  502  0.12712203357E+03  0.11688513268E+01  0.59916522555E+02  0.14060170592E+03  0.41800000000E+01 0.  1.
        -11    1    1    2    0    0 -0.10580511944E+03  0.68291496747E+02 -0.12313432085E+03  0.17612641142E+03  0.00000000000E+00 0.  1.
         11    1    1    2    0    0 -0.55489261115E+02  0.45032046493E+01  0.60307528504E+01  0.55997383252E+02  0.00000000000E+00 0. -1.
</event>
<event>
 7    1  0.2420569E-009  0.1226420E+03  0.7561462E-02  0.1238801E+00
          2   -1    0    0  501    0  0.00000000000E+00  0.00000000000E+00  0.10031775205E+03  0.10031775205E+03  0.00000000000E+00 0. -1.
         -2   -1    0    0    0  501 -0.00000000000E+00 -0.00000000000E+00 -0.15381173849E+03  0.15381173849E+03  0.00000000000E+00 0.  1.
         25    2    1    2    0    0 -0.43562444663E+02 -0.40175436048E+02 -0.20099518004E+02  0.13986932797E+03  0.12509071123E+03 0.  0.
          5    1    3    3  502    0 -0.85086501953E+02 -0.85668006247E+01 -0.17902080744E+02  0.87470336587E+02  0.41800000000E+01 0. -1.
         -5    1    3    3    0  502  0.41524057290E+02 -0.31608635423E+02 -0.21974372598E+01  0.52398991380E+02  0.41800000000E+01 0. -1.
        -11    1    1    2    0    0  0.40856242257E+02 -0.21095921441E+02 -0.37314342490E+01  0.46132353444E+02  0.00000000000E+00 0.  1.
         11    1    1    2    0    0  0.27062024066E+01  0.61271357489E+02 -0.29663034189E+02  0.68127809133E+02  0.00000000000E+00 0. -1.
</event>
<event>
 7    1  0.2420569E-009  0.9399890E+02  0.7561462E-02  0.1293447E+00
         -2   -1    0    0    0  501 -0.00000000000E+00  0.00000000000E+00  0.20614457680E+03  0.20614457680E+03  0.00000000000E+00 0. -1.
          2   -1    0    0  501    0  0.00000000000E+00 -0.00000000000E+00 -0.81621825274E+02  0.81621825274E+02  0.00000000000E+00 0.  1.
         25    2    1    2    0    0  0.18350039184E+02  0.55267826188E+02  0.24721382792E+02  0.14018948973E+03  0.12510271665E+03 0.  0.
          5    1    3    3  502    0  0.47943728411E+02 -0.16495399955E+02  0.35034195972E+02  0.61770272794E+02  0.41800000000E+01 0.  1.
         -5    1    3    3    0  502 -0.29593689227E+02  0.71763226143E+02 -0.10312813179E+02  0.78419216932E+02  0.41800000000E+01 0.  1.
        -11    1    1    2    0    0 -0.48187041151E+01 -0.32842518506E+02 -0.10021603769E+02  0.34673959585E+02  0.00000000000E+00 0.  1.
         11    1    1    2    0    0 -0.13531335069E+02 -0.22425307682E+02  0.10982297250E+03  0.11290295276E+03  0.00000000000E+00 0. -1.
</event>
<event>
 7    1  0.2420569E-009  0.1235233E+03  0.7561462E-02  0.1237395E+00
          1   -1    0    0  501    0  0.00000000000E+00  0.00000000000E+00  0.29625649923E+03  0.29625649923E+03  0.00000000000E+00 0. -1.
         -1   -1    0    0    0  501 -0.00000000000E+00 -0.00000000000E+00 -0.54808042225E+02  0.54808042225E+02  0.00000000000E+00 0.  1.
         25    2    1    2    0    0 -0.61781508787E+02 -0.25617365387E+02  0.12910407271E+03  0.19180752127E+03  0.12509620053E+03 0.  0.
          5    1    3    3  502    0 -0.61190280501E+02  0.37866974267E+02  0.96111081340E+02  0.12013729864E+03  0.41800000000E+01 0. -1.
         -5    1    3    3    0  502 -0.59122828555E+00 -0.63484339654E+02  0.32992991374E+02  0.71670222631E+02  0.41800000000E+01 0. -1.
        -11    1    1    2    0    0  0.25321488128E+02 -0.33434248621E+02  0.29990217187E+02  0.51560060791E+02  0.00000000000E+00 0. -1.
         11    1    1    2    0    0  0.36460020659E+02  0.59051614008E+02  0.82354167107E+02  0.10769695940E+03  0.00000000000E+00 0.  1.
</event>
<event>
 7    1  0.2420569E-009  0.9318510E+02  0.7561462E-02  0.1295317E+00
         -2   -1    0    0    0  501 -0.00000000000E+00  0.00000000000E+00  0.21544186165E+03  0.21544186165E+03  0.00000000000E+00 0.  1.
          2   -1    0    0  501    0  0.00000000000E+00 -0.00000000000E+00 -0.63559566217E+02  0.63559566217E+02  0.00000000000E+00 0. -1.
         25    2    1    2    0    0  0.17654276259E+02 -0.26148895629E+02  0.13509328883E+03  0.18679674291E+03  0.12508952099E+03 0.  0.
          5    1    3    3  502    0 -0.65669465869E+01  0.41987048271E+02  0.94650070820E+02  0.10383710953E+03  0.41800000000E+01 0.  1.
         -5    1    3    3    0  502  0.24221222846E+02 -0.68135943900E+02  0.40443218013E+02  0.82959633380E+02  0.41800000000E+01 0.  1.
        -11    1    1    2    0    0  0.14811097556E+02 -0.13464472504E+02 -0.20652708311E+02  0.28760997744E+02  0.00000000000E+00 0. -1.
         11    1    1    2    0    0 -0.32465373815E+02  0.39613368132E+02  0.37441714916E+02  0.63443687216E+02  0.00000000000E+00 0.  1.
</event>
<event>
 7    1  0.2420569E-009  0.1025558E+03  0.7561462E-02  0.1275011E+00
         -1   -1    0    0    0  501 -0.00000000000E+00  0.00000000000E+00  0.23539176792E+02  0.23539176792E+02  0.00000000000E+00 0.  1.
          1   -1    0    0  501    0  0.00000000000E+00 -0.00000000000E+00 -0.95695080446E+03  0.95695080446E+03  0.00000000000E+00 0. -1.
         25    2    1    2    0    0 -0.60167881744E+02 -0.12166999551E+02 -0.77827033448E+03  0.79064571464E+03  0.12509085768E+03 0.  0.
          5    1    3    3  502    0 -0.21140639102E+02 -0.47666318179E+02 -0.64696382696E+03  0.64907524240E+03  0.41800000000E+01 0. -1.
         -5    1    3    3    0  502 -0.39027242642E+02  0.35499318627E+02 -0.13130650752E+03  0.14157047224E+03  0.41800000000E+01 0. -1.
        -11    1    1    2    0    0 -0.96514753040E+01  0.26849294953E+02 -0.85535113441E+02  0.90168127664E+02  0.00000000000E+00 0. -1.
         11    1    1    2    0    0  0.69819357048E+02 -0.14682295402E+02 -0.69606179749E+02  0.99676138950E+02  0.00000000000E+00 0.  1.
</event>
<event>
 7    1  0.2420569E-009  0.9495769E+02  0.7561462E-02  0.1291271E+00
         -1   -1    0    0    0  501 -0.00000000000E+00  0.00000000000E+00  0.12864174421E+03  0.12864174421E+03  0.00000000000E+00 0.  1.
          1   -1    0    0  501    0  0.00000000000E+00 -0.00000000000E+00 -0.14368096464E+03  0.14368096464E+03  0.00000000000E+00 0. -1.
         25    2    1    2    0    0  0.43504628554E+02 -0.17371691847E+02  0.58801539557E+02  0.14594377725E+03  0.12509011424E+03 0.  0.
          5    1    3    3  502    0 -0.11947811995E+02 -0.49587967599E+02  0.63439157579E+02  0.81508992488E+02  0.41800000000E+01 0. -1.
         -5    1    3    3    0  502  0.55452440549E+02  0.32216275752E+02 -0.46376180227E+01  0.64434784761E+02  0.41800000000E+01 0. -1.
        -11    1    1    2    0    0  0.13640015901E+02  0.98662095103E+01  0.13607215961E+02  0.21645979998E+02  0.00000000000E+00 0.  1.
         11    1    1    2    0    0 -0.57144644455E+02  0.75054823362E+01 -0.87447975948E+02  0.10473295161E+03  0.00000000000E+00 0. -1.
</event>
<event>
 7    1  0.2420569E-009  0.3247856E+03  0.7561462E-02  0.1073468E+00
         -2   -1    0    0    0  501 -0.00000000000E+00  0.00000000000E+00  0.54258438929E+03  0.54258438929E+03  0.00000000000E+00 0.  1.
          2   -1    0    0  501    0  0.00000000000E+00 -0.00000000000E+00 -0.20786325809E+03  0.20786325809E+03  0.00000000000E+00 0. -1.
         25    2    1    2    0    0 -0.31082836966E+03  0.20662294228E+02  0.23905162412E+03  0.41211027000E+03  0.12509192563E+03 0.  0.
          5    1    3    3  502    0 -0.45626542076E+02  0.47946202399E+02  0.69865162904E+02  0.96328775836E+02  0.41800000000E+01 0. -1.
         -5    1    3    3    0  502 -0.26520182759E+03 -0.27283908171E+02  0.16918646122E+03  0.31578149417E+03  0.41800000000E+01 0. -1.
        -11    1    1    2    0    0  0.86021017419E+02  0.19621950574E+02 -0.58040719891E+01  0.88421284959E+02  0.00000000000E+00 0.  1.
         11    1    1    2    0    0  0.22480735224E+03 -0.40284244802E+02  0.10147357906E+03  0.24991609242E+03  0.00000000000E+00 0. -1.
</event>
<event>
 7    1  0.2420569E-009  0.1050945E+03  0.7561462E-02  0.1269934E+00
         -2   -1    0    0    0  501 -0.00000000000E+00  0.00000000000E+00  0.43202820478E+02  0.43202820478E+02  0.00000000000E+00 0.  1.
          2   -1    0    0  501    0  0.00000000000E+00 -0.00000000000E+00 -0.37364972710E+03  0.37364972710E+03  0.00000000000E+00 0. -1.
         25    2    1    2    0    0 -0.24850740086E+02 -0.85607471809E+01 -0.79969516504E+02  0.15076608138E+03  0.12507774402E+03 0.  0.
          5    1    3    3  502    0 -0.10503207598E+02 -0.63327882232E+02 -0.66289714574E+02  0.92371731045E+02  0.41800000000E+01 0.  1.
         -5    1    3    3    0  502 -0.14347532488E+02  0.54767135052E+02 -0.13679801930E+02  0.58394350336E+02  0.41800000000E+01 0.  1.
        -11    1    1    2    0    0  0.48145375603E+02  0.30580097522E+02 -0.17577905732E+03  0.18480096468E+03  0.00000000000E+00 0.  1.
         11    1    1    2    0    0 -0.23294635517E+02 -0.22019350342E+02 -0.74698332800E+02  0.81285501514E+02  0.00000000000E+00 0. -1.
</event>
<event>
 7    1  0.3015411E-009  0.9082406E+02  0.7561462E-02  0.1300868E+00
          1   -1    0    0  501    0  0.00000000000E+00  0.00000000000E+00  0.27393252384E+03  0.27393252384E+03  0.00000000000E+00 0. -1.
         -1   -1    0    0    0  501 -0.00000000000E+00 -0.00000000000E+00 -0.66892517052E+02  0.66892517052E+02  0.00000000000E+00 0.  1.
         25    2    1    2    0    0 -0.54732800312E+02  0.57582399664E+02  0.13230326639E+03  0.19865369300E+03  0.12509086004E+03 0.  0.
          5    1    3    3  502    0 -0.56411475405E+01  0.52149167284E+02 -0.48262062575E+01  0.52840541829E+02  0.41800000000E+01 0. -1.
         -5    1    3    3    0  502 -0.49091652771E+02  0.54332323804E+01  0.13712947265E+03  0.14581315117E+03  0.41800000000E+01 0. -1.
        -11    1    1    2    0    0  0.25561267896E+02 -0.25736259089E+02 -0.17537811508E+02  0.40290300084E+02  0.00000000000E+00 0.  1.
         11    1    1    2    0    0  0.29171532416E+02 -0.31846140575E+02  0.92274551900E+02  0.10188104780E+03  0.00000000000E+00 0. -1.
</event>
<event>
 7    1  0.2420569E-009  0.2857026E+03  0.7561462E-02  0.1092614E+00
         -2   -1    0    0    0  501 -0.00000000000E+00  0.00000000000E+00  0.42538833773E+03  0.42538833773E+03  0.00000000000E+00 0.  1.
          2   -1    0    0  501    0  0.00000000000E+00 -0.00000000000E+00 -0.19236161885E+03  0.19236161885E+03  0.00000000000E+00 0. -1.
         25    2    1    2    0    0 -0.11395929169E+03 -0.23854863328E+03  0.13003826787E+03  0.32007620237E+03  0.12508658445E+03 0.  0.
          5    1    3    3  502    0  0.22907094238E+02 -0.77884384895E+02  0.39528578444E+02  0.90391887306E+02  0.41800000000E+01 0. -1.
         -5    1    3    3    0  502 -0.13686638593E+03 -0.16066424838E+03  0.90509689427E+02  0.22968431506E+03  0.41800000000E+01 0. -1.
        -11    1    1    2    0    0 -0.13811210946E+02  0.45202512470E+02  0.12556194419E+02  0.48904751300E+02  0.00000000000E+00 0.  1.
         11    1    1    2    0    0  0.12777050264E+03  0.19334612081E+03  0.90432256598E+02  0.24876900291E+03  0.00000000000E+00 0. -1.
</event>
<event>
 7    1  0.2468367E-009  0.1069483E+03  0.7561462E-02  0.1266328E+00
          2   -1    0    0  501    0  0.00000000000E+00  0.00000000000E+00  0.55268235101E+03  0.55268235101E+03  0.00000000000E+00 0. -1.
         -2   -1    0    0    0  501 -0.00000000000E+00 -0.00000000000E+00 -0.40846782569E+02  0.40846782569E+02  0.00000000000E+00 0.  1.
         25    2    1    2    0    0 -0.94872436526E+02  0.21420460519E+02  0.34915933137E+03  0.38343391865E+03  0.12509882472E+03 0.  0.
          5    1    3    3  502    0 -0.15739281065E+02 -0.12533303086E+02 -0.30967993663E+01  0.20781511519E+02  0.41800000000E+01 0. -1.
         -5    1    3    3    0  502 -0.79133155461E+02  0.33953763605E+02  0.35225613074E+03  0.36265240713E+03  0.41800000000E+01 0. -1.
        -11    1    1    2    0    0  0.54814277460E+02  0.10628013488E+02  0.21404438467E+02  0.59797237982E+02  0.00000000000E+00 0.  1.
         11    1    1    2    0    0  0.40058159066E+02 -0.32048474006E+02  0.14127179860E+03  0.15029797694E+03  0.00000000000E+00 0. -1.
</event>
<event>
 7    1  0.2420569E-009  0.1180018E+03  0.7561462E-02  0.1246430E+00
         -3   -1    0    0    0  501 -0.00000000000E+00  0.00000000000E+00  0.10901886693E+03  0.10901886693E+03  0.00000000000E+00 0.  1.
          3   -1    0    0  501    0  0.00000000000E+00 -0.00000000000E+00 -0.16844398836E+03  0.16844398836E+03  0.00000000000E+00 0. -1.
         25    2    1    2    0    0 -0.59007002075E+02 -0.39637449459E+02 -0.66923527949E+02  0.15867948310E+03  0.12508983200E+03 0.  0.
          5    1    3    3  502    0 -0.12858224403E+02 -0.65868483961E+02  0.69675164113E+01  0.67601847601E+02  0.41800000000E+01 0. -1.
         -5    1    3    3    0  502 -0.46148777672E+02  0.26231034502E+02 -0.73891044360E+02  0.91077635500E+02  0.41800000000E+01 0. -1.
        -11    1    1    2    0    0  0.33745770279E+02  0.68982525730E+02 -0.77164685930E+01  0.77181019399E+02  0.00000000000E+00 0.  1.
         11    1    1    2    0    0  0.25261231796E+02 -0.29345076271E+02  0.15214875117E+02  0.41602352794E+02  0.00000000000E+00 0. -1.
</event>
<event>
 7    1  0.2420569E-009  0.7031039E+02  0.7561462E-02  0.1359041E+00
          1   -1    0    0  501    0  0.00000000000E+00  0.00000000000E+00  0.25389425892E+03  0.25389425892E+03  0.00000000000E+00 0. -1.
         -1   -1    0    0    0  501 -0.00000000000E+00 -0.00000000000E+00 -0.62537869250E+02  0.62537869250E+02  0.00000000000E+00 0.  1.
         25    2    1    2    0    0 -0.44738811442E+02 -0.41441624829E+01  0.16474622215E+03  0.21168195247E+03  0.12509674639E+03 0.  0.
          5    1    3    3  502    0 -0.51017111902E+02 -0.18370534386E+02  0.90226053265E+01  0.55128051365E+02  0.41800000000E+01 0. -1.
         -5    1    3    3    0  502  0.62783004599E+01  0.14226371903E+02  0.15572361682E+03  0.15655390110E+03  0.41800000000E+01 0. -1.
        -11    1    1    2    0    0  0.24182909148E+02  0.29077571688E+02 -0.23935781412E+02  0.44757568097E+02  0.00000000000E+00 0. -1.
         11    1    1    2    0    0  0.20555902294E+02 -0.24933409205E+02  0.50545948930E+02  0.59992607602E+02  0.00000000000E+00 0.  1.
</event>
<event>
 7    1  0.2420569E-009  0.1051701E+03  0.7561462E-02  0.1269785E+00
          1   -1    0    0  501    0  0.00000000000E+00  0.00000000000E+00  0.22632927475E+02  0.22632927475E+02  0.00000000000E+00 0. -1.
         -1   -1    0    0    0  501 -0.00000000000E+00 -0.00000000000E+00 -0.74774168159E+03  0.74774168159E+03  0.00000000000E+00 0.  1.
         25    2    1    2    0    0  0.51232760887E+02  0.21008437789E+02 -0.44361811161E+03  0.46423090646E+03  0.12508858990E+03 0.  0.
          5    1    3    3  502    0  0.74225272619E+02  0.64026975062E+01 -0.42371956413E+03  0.43023961586E+03  0.41800000000E+01 0.  1.
         -5    1    3    3    0  502 -0.22992511731E+02  0.14605740282E+02 -0.19898547476E+02  0.33991290599E+02  0.41800000000E+01 0.  1.
        -11    1    1    2    0    0 -0.35572569671E+01 -0.51466756305E+02 -0.68419056662E+02  0.85689254847E+02  0.00000000000E+00 0. -1.
         11    1    1    2    0    0 -0.47675503920E+02  0.30458318516E+02 -0.21307158585E+03  0.22045444776E+03  0.00000000000E+00 0.  1.
</event>
<event>
 7    1  0.2420569E-009  0.1579420E+03  0.7561462E-02  0.1191040E+00
         -2   -1    0    0    0  501 -0.00000000000E+00  0.00000000000E+00  0.51875965478E+02  0.51875965478E+02  0.00000000000E+00 0.  1.
          2   -1    0    0  501    0  0.00000000000E+00 -0.00000000000E+00 -0.51619226127E+03  0.51619226127E+03  0.00000000000E+00 0. -1.
         25    2    1    2    0    0 -0.28774034378E+02  0.12668629676E+03 -0.21875072893E+03  0.28350825201E+03  0.12509070592E+03 0.  0.
          5    1    3    3  502    0 -0.39212153767E+02 -0.79181707634E+01 -0.25124283977E+02  0.47423543485E+02  0.41800000000E+01 0.  1.
         -5    1    3    3    0  502  0.10438119389E+02  0.13460446752E+03 -0.19362644495E+03  0.23608470853E+03  0.41800000000E+01 0.  1.
        -11    1    1    2    0    0 -0.89504217450E+01 -0.80310396476E+02 -0.16981552771E+03  0.18806164756E+03  0.00000000000E+00 0.  1.
         11    1    1    2    0    0  0.37724456123E+02 -0.46375900285E+02 -0.75750039153E+02  0.96498327181E+02  0.00000000000E+00 0. -1.
</event>
<event>
 7    1  0.2420569E-009  0.1493261E+03  0.7561462E-02  0.1201304E+00
          1   -1    0    0  501    0  0.00000000000E+00  0.00000000000E+00  0.86916204747E+02  0.86916204747E+02  0.00000000000E+00 0. -1.
         -1   -1    0    0    0  501 -0.00000000000E+00 -0.00000000000E+00 -0.69053868444E+03  0.69053868444E+03  0.00000000000E+00 0.  1.
         25    2    1    2    0    0  0.10934718183E+03 -0.43211993555E+02 -0.17631979936E+02  0.17257478312E+03  0.12508831476E+03 0.  0.
          5    1    3    3  502    0  0.11829087813E+03 -0.67476134223E+02 -0.35585254165E+02  0.14081741104E+03  0.41800000000E+01 0. -1.
         -5    1    3    3    0  502 -0.89436962971E+01  0.24264140668E+02  0.17953274228E+02  0.31757372078E+02  0.41800000000E+01 0. -1.
        -11    1    1    2    0    0 -0.96446016993E+02  0.57826645515E+01 -0.51126784078E+03  0.52031728630E+03  0.00000000000E+00 0.  1.
         11    1    1    2    0    0 -0.12901164835E+02  0.37429329004E+02 -0.74722658975E+02  0.84562819774E+02  0.00000000000E+00 0. -1.
</event>
<event>
 7    1  0.2420569E-009  0.1617065E+03  0.7561462E-02  0.1186783E+00
          3   -1    0    0  501    0  0.00000000000E+00  0.00000000000E+00  0.15137582285E+03  0.15137582285E+03  0.00000000000E+00 0. -1.
         -3   -1    0    0    0  501 -0.00000000000E+00 -0.00000000000E+00 -0.29656601005E+03  0.29656601005E+03  0.00000000000E+00 0.  1.
         25    2    1    2    0    0  0.55826076299E+02 -0.12364487355E+03  0.52071143462E+02  0.19173603012E+03  0.12508675276E+03 0.  0.
          5    1    3    3  502    0 -0.17388794444E+02 -0.97118514056E+02  0.14488272560E+01  0.98762074933E+02  0.41800000000E+01 0.  1.
         -5    1    3    3    0  502  0.73214870743E+02 -0.26526359490E+02  0.50622316206E+02  0.92973955190E+02  0.41800000000E+01 0.  1.
        -11    1    1    2    0    0  0.77495350801E+01  0.44452564135E+02 -0.12119501107E+03  0.12932252882E+03  0.00000000000E+00 0.  1.
         11    1    1    2    0    0 -0.63575611379E+02  0.79192309411E+02 -0.76066319590E+02  0.12688327395E+03  0.00000000000E+00 0. -1.
</event>
<event>
 7    1  0.2420569E-009  0.1500934E+03  0.7561462E-02  0.1200358E+00
         -1   -1    0    0    0  501 -0.00000000000E+00  0.00000000000E+00  0.33751947873E+02  0.33751947873E+02  0.00000000000E+00 0.  1.
          1   -1    0    0  501    0  0.00000000000E+00 -0.00000000000E+00 -0.10384431153E+04  0.10384431153E+04  0.00000000000E+00 0. -1.
         25    2    1    2    0    0 -0.23555340868E+02 -0.10593600504E+03 -0.83288945648E+03  0.84919150654E+03  0.12507628394E+03 0.  0.
          5    1    3    3  502    0  0.46441730773E+02 -0.11701194087E+02 -0.25212582844E+03  0.25666838150E+03  0.41800000000E+01 0. -1.
         -5    1    3    3    0  502 -0.69997071641E+02 -0.94234810950E+02 -0.58076362805E+03  0.59252312503E+03  0.41800000000E+01 0. -1.
        -11    1    1    2    0    0  0.12576203904E+02  0.11780908681E+03 -0.16930147433E+03  0.20664010029E+03  0.00000000000E+00 0. -1.
         11    1    1    2    0    0  0.10979136964E+02 -0.11873081774E+02 -0.25002365781E+01  0.16363456305E+02  0.00000000000E+00 0.  1.
</event>
<event>
 7    1  0.2420569E-009  0.2658899E+03  0.7561462E-02  0.1103655E+00
          1   -1    0    0  501    0  0.00000000000E+00  0.00000000000E+00  0.45676235805E+02  0.45676235805E+02  0.00000000000E+00 0. -1.
         -1   -1    0    0    0  501 -0.00000000000E+00 -0.00000000000E+00 -0.17279615547E+04  0.17279615547E+04  0.00000000000E+00 0.  1.
         25    2    1    2    0    0  0.23026742746E+03 -0.80240198614E+02 -0.10730265984E+04  0.11074726898E+04  0.12509236711E+03 0.  0.
          5    1    3    3  502    0  0.16558680135E+03 -0.10512651568E+03 -0.89796677732E+03  0.91914763703E+03  0.41800000000E+01 0. -1.
         -5    1    3    3    0  502  0.64680626110E+02  0.24886317064E+02 -0.17505982103E+03  0.18832505280E+03  0.41800000000E+01 0. -1.
        -11    1    1    2    0    0 -0.49804042754E+02  0.69343026281E+02 -0.24619196169E+03  0.26057509469E+03  0.00000000000E+00 0.  1.
         11    1    1    2    0    0 -0.18046338470E+03  0.10897172332E+02 -0.36306675884E+03  0.40559000599E+03  0.00000000000E+00 0. -1.
</event>
<event>
 7    1  0.2420569E-009  0.1087162E+03  0.7561462E-02  0.1262966E+00
         -1   -1    0    0    0  501 -0.00000000000E+00  0.00000000000E+00  0.22778429845E+02  0.22778429845E+02  0.00000000000E+00 0.  1.
          1   -1    0    0  501    0  0.00000000000E+00 -0.00000000000E+00 -0.53044616354E+03  0.53044616354E+03  0.00000000000E+00 0. -1.
         25    2    1    2    0    0 -0.18532339460E+02  0.68150127956E+01 -0.28629812577E+03  0.31305517439E+03  0.12508810249E+03 0.  0.
          5    1    3    3  502    0 -0.72098672069E+02  0.22734551046E+01 -0.17699786764E+03  0.19117820132E+03  0.41800000000E+01 0. -1.
         -5    1    3    3    0  502  0.53566332608E+02  0.45415576910E+01 -0.10930025814E+03  0.12187697307E+03  0.41800000000E+01 0. -1.
        -11    1    1    2    0    0  0.54285783423E+02 -0.10572448658E+02 -0.10965245172E+03  0.12281035429E+03  0.00000000000E+00 0.  1.
         11    1    1    2    0    0 -0.35753443963E+02  0.37574358625E+01 -0.11171715620E+03  0.11735906471E+03  0.00000000000E+00 0. -1.
</event>
<event>
 7    1  0.2420569E-009  0.2016528E+03  0.7561462E-02  0.1148352E+00
         -2   -1    0    0    0  501 -0.00000000000E+00  0.00000000000E+00  0.15989636666E+04  0.15989636666E+04  0.00000000000E+00 0.  1.
          2   -1    0    0  501    0  0.00000000000E+00 -0.00000000000E+00 -0.30814359188E+02  0.30814359188E+02  0.00000000000E+00 0. -1.
         25    2    1    2    0    0  0.19207761586E+03 -0.23769419762E+00  0.73801352735E+03  0.77278946689E+03  0.12508287877E+03 0.  0.
          5    1    3    3  502    0  0.53552395467E+02 -0.13104675866E+02  0.64092898985E+02  0.84646108535E+02  0.41800000000E+01 0. -1.
         -5    1    3    3    0  502  0.13852522039E+03  0.12866981668E+02  0.67392062837E+03  0.68814335835E+03  0.41800000000E+01 0. -1.
        -11    1    1    2    0    0 -0.96627344279E+02 -0.40856571827E+02  0.49981196659E+03  0.51070353932E+03  0.00000000000E+00 0. -1.
         11    1    1    2    0    0 -0.95450271576E+02  0.41094266025E+02  0.33032381342E+03  0.34628501954E+03  0.00000000000E+00 0.  1.
</event>
<event>
 7    1  0.2420569E-009  0.2498328E+03  0.7561462E-02  0.1113411E+00
         -2   -1    0    0    0  501 -0.00000000000E+00  0.00000000000E+00  0.11341745565E+03  0.11341745565E+03  0.00000000000E+00 0.  1.
          2   -1    0    0  501    0  0.00000000000E+00 -0.00000000000E+00 -0.60873297565E+03  0.60873297565E+03  0.00000000000E+00 0. -1.
         25    2    1    2    0    0 -0.13564473960E+03  0.19144807655E+03 -0.31349639802E+03  0.41107052580E+03  0.12508846553E+03 0.  0.
          5    1    3    3  502    0 -0.10049788089E+03  0.38029883589E+02 -0.14411770115E+03  0.17981512810E+03  0.41800000000E+01 0. -1.
         -5    1    3    3    0  502 -0.35146858708E+02  0.15341819296E+03 -0.16937869687E+03  0.23125539770E+03  0.41800000000E+01 0. -1.
        -11    1    1    2    0    0  0.17410020578E+02 -0.27527045220E+02  0.82881051649E+01  0.33608625713E+02  0.00000000000E+00 0.  1.
         11    1    1    2    0    0  0.11823471902E+03 -0.16392103133E+03 -0.19010722715E+03  0.27747127979E+03  0.00000000000E+00 0. -1.
</event>
<event>
 7    1  0.2962935E-009  0.1213929E+03  0.7561462E-02  0.1240817E+00
          1   -1    0    0  501    0  0.00000000000E+00  0.00000000000E+00  0.25854917258E+03  0.25854917258E+03  0.00000000000E+00 0.  1.
         -1   -1    0    0    0  501 -0.00000000000E+00 -0.00000000000E+00 -0.85302493692E+02  0.85302493692E+02  0.00000000000E+00 0. -1.
         25    2    1    2    0    0  0.51732519855E+02 -0.51906066532E+02  0.17410445760E+03  0.22655894752E+03  0.12508437630E+03 0.  0.
          5    1    3    3  502    0 -0.23516878128E+02 -0.44273291740E+02  0.12884455376E+03  0.13831688021E+03  0.41800000000E+01 0. -1.
         -5    1    3    3    0  502  0.75249397983E+02 -0.76327747917E+01  0.45259903837E+02  0.88242067310E+02  0.41800000000E+01 0. -1.
        -11    1    1    2    0    0  0.57263558920E+01  0.58602586047E+02 -0.61569828921E+01  0.59202725288E+02  0.00000000000E+00 0.  1.
         11    1    1    2    0    0 -0.57458875747E+02 -0.66965195153E+01  0.52992041892E+01  0.58089993465E+02  0.00000000000E+00 0. -1.
</event>
<event>
 7    1  0.2420569E-009  0.8369548E+02  0.7561462E-02  0.1318880E+00
         -2   -1    0    0    0  501 -0.00000000000E+00  0.00000000000E+00  0.24073593054E+03  0.24073593054E+03  0.00000000000E+00 0.  1.
          2   -1    0    0  501    0  0.00000000000E+00 -0.00000000000E+00 -0.71226639960E+02  0.71226639960E+02  0.00000000000E+00 0. -1.
         25    2    1    2    0    0  0.13023155072E+02  0.67261318816E+02  0.61087806477E+02  0.15515258043E+03  0.12508763143E+03 0.  0.
          5    1    3    3  502    0  0.29153788235E+02  0.66367668931E+02 -0.17602511755E+02  0.74712326078E+02  0.41800000000E+01 0.  1.
         -5    1    3    3    0  502 -0.16130633163E+02  0.89364988460E+00  0.78690318232E+02  0.80440254349E+02  0.41800000000E+01 0.  1.
        -11    1    1    2    0    0 -0.25806186681E+02 -0.35767335903E+02  0.97530867654E+00  0.44115902072E+02  0.00000000000E+00 0. -1.
         11    1    1    2    0    0  0.12783031609E+02 -0.31493982913E+02  0.10744617543E+03  0.11269408800E+03  0.00000000000E+00 0.  1.
</event>
<event>
 7    1  0.2420569E-009  0.1196054E+03  0.7561462E-02  0.1243749E+00
         -2   -1    0    0    0  501 -0.00000000000E+00  0.00000000000E+00  0.50824735019E+02  0.50824735019E+02  0.00000000000E+00 0.  1.
          2   -1    0    0  501    0  0.00000000000E+00 -0.00000000000E+00 -0.32991928619E+03  0.32991928619E+03  0.00000000000E+00 0. -1.
         25    2    1    2    0    0 -0.46235804899E+02  0.34391523005E+02 -0.10006168986E+03  0.17022459132E+03  0.12507415083E+03 0.  0.
          5    1    3    3  502    0 -0.48130118430E+02 -0.40221209836E+02 -0.48839548513E+02  0.79605451571E+02  0.41800000000E+01 0. -1.
         -5    1    3    3    0  502  0.18943135305E+01  0.74612732841E+02 -0.51222141345E+02  0.90619139754E+02  0.41800000000E+01 0. -1.
        -11    1    1    2    0    0  0.70886613085E+02 -0.27065147931E+02 -0.16407135556E+03  0.18076737499E+03  0.00000000000E+00 0.  1.
         11    1    1    2    0    0 -0.24650808185E+02 -0.73263750732E+01 -0.14961505757E+02  0.29752054894E+02  0.00000000000E+00 0. -1.
</event>
<event>
 7    1  0.2420569E-009  0.8576681E+02  0.7561462E-02  0.1313439E+00
          1   -1    0    0  501    0  0.00000000000E+00  0.00000000000E+00  0.12561538048E+03  0.12561538048E+03  0.00000000000E+00 0. -1.
         -1   -1    0    0    0  501 -0.00000000000E+00 -0.00000000000E+00 -0.11245142579E+03  0.11245142579E+03  0.00000000000E+00 0.  1.
         25    2    1    2    0    0 -0.32940730167E+00  0.39594597651E+02 -0.19708830775E+02  0.13268234775E+03  0.12509327208E+03 0.  0.
          5    1    3    3  502    0 -0.22726354494E+02  0.72031645756E+02  0.18230408667E+02  0.77813015486E+02  0.41800000000E+01 0. -1.
         -5    1    3    3    0  502  0.22396947193E+02 -0.32437048105E+02 -0.37939239442E+02  0.54869332261E+02  0.41800000000E+01 0. -1.
        -11    1    1    2    0    0  0.19838257660E+02 -0.15090153672E+02  0.59349656112E+02  0.64371196086E+02  0.00000000000E+00 0. -1.
         11    1    1    2    0    0 -0.19508850358E+02 -0.24504443980E+02 -0.26476870642E+02  0.41013262441E+02  0.00000000000E+00 0.  1.
</event>
<event>
 7    1  0.2420569E-009  0.9635908E+02  0.7561462E-02  0.1288144E+00
         -1   -1    0    0    0  501 -0.00000000000E+00  0.00000000000E+00  0.24770023072E+02  0.24770023072E+02  0.00000000000E+00 0.  1.
          1   -1    0    0  501    0  0.00000000000E+00 -0.00000000000E+00 -0.65356824850E+03  0.65356824850E+03  0.00000000000E+00 0. -1.
         25    2    1    2    0    0 -0.22068371190E+02 -0.40880121820E+02 -0.24483799958E+03  0.27883943549E+03  0.12509031690E+03 0.  0.
          5    1    3    3  502    0 -0.39791349837E+02 -0.22899581623E+01 -0.23029906155E+03  0.23375997429E+03  0.41800000000E+01 0. -1.
         -5    1    3    3    0  502  0.17722978647E+02 -0.38590163658E+02 -0.14538938028E+02  0.45079461202E+02  0.41800000000E+01 0. -1.
        -11    1    1    2    0    0 -0.39267989533E+02  0.25215169474E+02 -0.17913883024E+03  0.18511753098E+03  0.00000000000E+00 0.  1.
         11    1    1    2    0    0  0.61336360723E+02  0.15664952346E+02 -0.20482139561E+03  0.21438130510E+03  0.00000000000E+00 0. -1.
</event>
<event>
 7    1  0.2420569E-009  0.2632208E+03  0.7561462E-02  0.1105223E+00
         -2   -1    0    0    0  501 -0.00000000000E+00  0.00000000000E+00  0.65955238093E+02  0.65955238093E+02  0.00000000000E+00 0.  1.
          2   -1    0    0  501    0  0.00000000000E+00 -0.00000000000E+00 -0.15640534415E+04  0.15640534415E+04  0.00000000000E+00 0. -1.
         25    2    1    2    0    0 -0.15545289149E+03 -0.19621646728E+03 -0.11793355649E+04  0.12120834525E+04  0.12508963855E+03 0.  0.
          5    1    3    3  502    0  0.13252278557E+01 -0.78738016827E+02 -0.24345939207E+03  0.25591283577E+03  0.41800000000E+01 0.  1.
         -5    1    3    3    0  502 -0.15677811935E+03 -0.11747845045E+03 -0.93587617282E+03  0.95617061673E+03  0.41800000000E+01 0.  1.
        -11    1    1    2    0    0  0.85632160962E+02  0.12808222706E+03 -0.11580974717E+03  0.19274288942E+03  0.00000000000E+00 0.  1.
         11    1    1    2    0    0  0.69820730532E+02  0.68134240214E+02 -0.20295289133E+03  0.22518233768E+03  0.00000000000E+00 0. -1.
</event>
<event>
 7    1  0.2420569E-009  0.1720517E+03  0.7561462E-02  0.1175725E+00
          2   -1    0    0  501    0  0.00000000000E+00  0.00000000000E+00  0.72523894963E+03  0.72523894963E+03  0.00000000000E+00 0. -1.
         -2   -1    0    0    0  501 -0.00000000000E+00 -0.00000000000E+00 -0.52939547636E+02  0.52939547636E+02  0.00000000000E+00 0.  1.
         25    2    1    2    0    0  0.73338562432E+02 -0.12759298658E+03  0.21464113916E+03  0.28874737031E+03  0.12508281368E+03 0.  0.
          5    1    3    3  502    0  0.97524283082E+02 -0.82464786830E+02  0.19624563481E+03  0.23418208394E+03  0.41800000000E+01 0. -1.
         -5    1    3    3    0  502 -0.24185720649E+02 -0.45128199752E+02  0.18395504349E+02  0.54565286368E+02  0.41800000000E+01 0. -1.
        -11    1    1    2    0    0  0.77366727556E+01  0.56771376885E+02  0.93170314975E+02  0.10937802764E+03  0.00000000000E+00 0.  1.
         11    1    1    2    0    0 -0.81075235188E+02  0.70821609698E+02  0.36448794786E+03  0.38005309931E+03  0.00000000000E+00 0. -1.
</event>
<event>
 7    1  0.2420569E-009  0.9642376E+02  0.7561462E-02  0.1288001E+00
          2   -1    0    0  501    0  0.00000000000E+00  0.00000000000E+00  0.28134042463E+03  0.28134042463E+03  0.00000000000E+00 0. -1.
         -2   -1    0    0    0  501 -0.00000000000E+00 -0.00000000000E+00 -0.53408030342E+02  0.53408030342E+02  0.00000000000E+00 0.  1.
         25    2    1    2    0    0 -0.52774543994E+02 -0.83499977327E+01  0.16108155296E+03  0.21083237121E+03  0.12509255410E+03 0.  0.
          5    1    3    3  502    0  0.16906890533E+02  0.56828280789E+01 -0.13191303349E+02  0.22574772790E+02  0.41800000000E+01 0.  1.
         -5    1    3    3    0  502 -0.69681434527E+02 -0.14032825812E+02  0.17427285630E+03  0.18825759842E+03  0.41800000000E+01 0.  1.
        -11    1    1    2    0    0 -0.16351978298E+02 -0.22345432597E+02  0.10568307421E+02  0.29637723832E+02  0.00000000000E+00 0.  1.
         11    1    1    2    0    0  0.69126522293E+02  0.30695430330E+02  0.56282533909E+02  0.94278359927E+02  0.00000000000E+00 0. -1.
</event>
<event>
 7    1  0.2420569E-009  0.1014771E+03  0.7561462E-02  0.1277220E+00
          1   -1    0    0  501    0  0.00000000000E+00  0.00000000000E+00  0.82346097408E+02  0.82346097408E+02  0.00000000000E+00 0. -1.
         -1   -1    0    0    0  501 -0.00000000000E+00 -0.00000000000E+00 -0.21265296437E+03  0.21265296437E+03  0.00000000000E+00 0.  1.
         25    2    1    2    0    0  0.74919986334E+02 -0.12046568885E+02 -0.66596972146E+02  0.16075204504E+03  0.12509172280E+03 0.  0.
          5    1    3    3  502    0  0.98605120214E+02 -0.70979402530E+01 -0.84696616513E+02  0.13024722545E+03  0.41800000000E+01 0.  1.
         -5    1    3    3    0  502 -0.23685133880E+02 -0.49486286322E+01  0.18099644367E+02  0.30504819594E+02  0.41800000000E+01 0.  1.
        -11    1    1    2    0    0 -0.29509073133E+02  0.16522285655E+02 -0.79151621576E+02  0.86074098999E+02  0.00000000000E+00 0.  1.
         11    1    1    2    0    0 -0.45410913201E+02 -0.44757167696E+01  0.15441726756E+02  0.48172917740E+02  0.00000000000E+00 0. -1.
</event>
<event>
 7    1  0.2420569E-009  0.1402028E+03  0.7561462E-02  0.1213056E+00
          1   -1    0    0  501    0  0.00000000000E+00  0.00000000000E+00  0.60924972779E+03  0.60924972779E+03  0.00000000000E+00 0. -1.
         -1   -1    0    0    0  501 -0.00000000000E+00 -0.00000000000E+00 -0.34985608598E+02  0.34985608598E+02  0.00000000000E+00 0.  1.
         25    2    1    2    0    0 -0.18694427636E+02 -0.89132703107E+02  0.39187253505E+03  0.42131040622E+03  0.12507699339E+03 0.  0.
          5    1    3    3  502    0 -0.49775796637E+02  0.86051559479E+01  0.15723893979E+03  0.16520664402E+03  0.41800000000E+01 0. -1.
         -5    1    3    3    0  502  0.31081369001E+02 -0.97737859055E+02  0.23463359526E+03  0.25610376221E+03  0.41800000000E+01 0. -1.
        -11    1    1    2    0    0 -0.19571701589E+01  0.10247010355E+03  0.13456540006E+03  0.16915022769E+03  0.00000000000E+00 0. -1.
         11    1    1    2    0    0  0.20651597795E+02 -0.13337400443E+02  0.47826184084E+02  0.53774702473E+02  0.00000000000E+00 0.  1.
</event>
<event>
 7    1  0.2420569E-009  0.1506142E+03  0.7561462E-02  0.1199720E+00
          2   -1    0    0  501    0  0.00000000000E+00  0.00000000000E+00  0.55285172359E+03  0.55285172359E+03  0.00000000000E+00 0. -1.
         -2   -1    0    0    0  501 -0.00000000000E+00 -0.00000000000E+00 -0.44128645157E+02  0.44128645157E+02  0.00000000000E+00 0.  1.
         25    2    1    2    0    0  0.19712243963E+02 -0.11058782502E+03  0.29610065995E+03  0.34050003186E+03  0.12508569570E+03 0.  0.
          5    1    3    3  502    0 -0.36399092713E+02 -0.25466332298E+01  0.12624683657E+03  0.13148047549E+03  0.41800000000E+01 0.  1.
         -5    1    3    3    0  502  0.56111336676E+02 -0.10804119179E+03  0.16985382338E+03  0.20901955637E+03  0.41800000000E+01 0.  1.
        -11    1    1    2    0    0  0.34885075296E+02  0.34741914497E+02  0.61256596573E+02  0.78589692232E+02  0.00000000000E+00 0.  1.
         11    1    1    2    0    0 -0.54597319259E+02  0.75845910527E+02  0.15136582191E+03  0.17789064466E+03  0.00000000000E+00 0. -1.
</event>
<event>
 7    1  0.2420569E-009  0.8596166E+02  0.7561462E-02  0.1312937E+00
          1   -1    0    0  501    0  0.00000000000E+00  0.00000000000E+00  0.28931551779E+03  0.28931551779E+03  0.00000000000E+00 0. -1.
         -1   -1    0    0    0  501 -0.00000000000E+00 -0.00000000000E+00 -0.59174851497E+02  0.59174851497E+02  0.00000000000E+00 0.  1.
         25    2    1    2    0    0 -0.34787768962E+02  0.10916847823E+02  0.21067407018E+03  0.24770759474E+03  0.12508446030E+03 0.  0.
          5    1    3    3  502    0  0.22101994673E+02  0.76472083900E+00  0.18140315780E+03  0.18279403991E+03  0.41800000000E+01 0.  1.
         -5    1    3    3    0  502 -0.56889763635E+02  0.10152126984E+02  0.29270912381E+02  0.64913554827E+02  0.41800000000E+01 0.  1.
        -11    1    1    2    0    0  0.45670803507E+02  0.26299668264E+02  0.29947154054E+02  0.60616226208E+02  0.00000000000E+00 0. -1.
         11    1    1    2    0    0 -0.10883034545E+02 -0.37216516087E+02 -0.10480557945E+02  0.40166548339E+02  0.00000000000E+00 0.  1.
</event>
<event>
 7    1  0.2420569E-009  0.1072708E+03  0.7561462E-02  0.1265709E+00
          1   -1    0    0  501    0  0.00000000000E+00  0.00000000000E+00  0.12884951270E+03  0.12884951270E+03  0.00000000000E+00 0. -1.
         -1   -1    0    0    0  501 -0.00000000000E+00 -0.00000000000E+00 -0.32387447193E+03  0.32387447193E+03  0.00000000000E+00 0.  1.
         25    2    1    2    0    0  0.60157689065E+02  0.32378019052E+02  0.67871830518E+02  0.15786462164E+03  0.12508944686E+03 0.  0.
          5    1    3    3  502    0 -0.15169123281E+02 -0.56456212208E+01  0.71377392660E+02  0.73308798401E+02  0.41800000000E+01 0.  1.
         -5    1    3    3    0  502  0.75326812345E+02  0.38023640273E+02 -0.35055621421E+01  0.84555823239E+02  0.41800000000E+01 0.  1.
        -11    1    1    2    0    0  0.81014598107E+01 -0.43442750495E+02 -0.18714542568E+03  0.19229226863E+03  0.00000000000E+00 0.  1.
         11    1    1    2    0    0 -0.68259148875E+02  0.11064731443E+02 -0.75751364064E+02  0.10256709436E+03  0.00000000000E+00 0. -1.
</event>
<event>
 7    1  0.2420569E-009  0.1262868E+03  0.7561462E-02  0.1233072E+00
         -4   -1    0    0    0  501 -0.00000000000E+00  0.00000000000E+00  0.81634108562E+02  0.81634108562E+02  0.00000000000E+00 0. -1.
          4   -1    0    0  501    0  0.00000000000E+00 -0.00000000000E+00 -0.26935535713E+03  0.26935535713E+03  0.00000000000E+00 0.  1.
         25    2    1    2    0    0 -0.90154055214E+02 -0.50103290107E+01 -0.47477989297E+02  0.16141390200E+03  0.12508969271E+03 0.  0.
          5    1    3    3  502    0 -0.11952270977E+03 -0.18163325067E+02 -0.30328846829E+02  0.12471125001E+03  0.41800000000E+01 0. -1.
         -5    1    3    3    0  502  0.29368654559E+02  0.13152996056E+02 -0.17149142468E+02  0.36702651992E+02  0.41800000000E+01 0. -1.
        -11    1    1    2    0    0  0.20692337038E+02  0.19236921099E+02 -0.10809123182E+03  0.11172263129E+03  0.00000000000E+00 0.  1.
         11    1    1    2    0    0  0.69461718176E+02 -0.14226592088E+02 -0.32152027449E+02  0.77852932401E+02  0.00000000000E+00 0. -1.
</event>
<event>
 7    1  0.2420569E-009  0.2852569E+03  0.7561462E-02  0.1092852E+00
          2   -1    0    0  501    0  0.00000000000E+00  0.00000000000E+00  0.36332521674E+03  0.36332521674E+03  0.00000000000E+00 0.  1.
         -2   -1    0    0    0  501 -0.00000000000E+00 -0.00000000000E+00 -0.22993421583E+03  0.22993421583E+03  0.00000000000E+00 0. -1.
         25    2    1    2    0    0 -0.20934924723E+03  0.16623010717E+03  0.74947683828E+02  0.30450814198E+03  0.12509395419E+03 0.  0.
          5    1    3    3  502    0 -0.12962760448E+03  0.16559771353E+03  0.28820061948E+02  0.21230635163E+03  0.41800000000E+01 0. -1.
         -5    1    3    3    0  502 -0.79721642747E+02  0.63239364236E+00  0.46127621880E+02  0.92201790353E+02  0.41800000000E+01 0. -1.
        -11    1    1    2    0    0  0.17355806238E+03 -0.17169340077E+03  0.37707697391E+02  0.24702812659E+03  0.00000000000E+00 0. -1.
         11    1    1    2    0    0  0.35791184850E+02  0.54632935977E+01  0.20735619685E+02  0.41723163994E+02  0.00000000000E+00 0.  1.
</event>
<event>
 7    1  0.2420569E-009  0.1050840E+03  0.7561462E-02  0.1269954E+00
          1   -1    0    0  501    0  0.00000000000E+00  0.00000000000E+00  0.54151905020E+03  0.54151905020E+03  0.00000000000E+00 0. -1.
         -1   -1    0    0    0  501 -0.00000000000E+00 -0.00000000000E+00 -0.27236663771E+02  0.27236663771E+02  0.00000000000E+00 0.  1.
         25    2    1    2    0    0 -0.56277338805E+01 -0.41762645057E+02  0.36587804073E+03  0.38895945694E+03  0.12508768340E+03 0.  0.
          5    1    3    3  502    0  0.26910085072E+02 -0.75214860936E+02  0.27914243082E+03  0.29037802442E+03  0.41800000000E+01 0. -1.
         -5    1    3    3    0  502 -0.32537818952E+02  0.33452215879E+02  0.86735609914E+02  0.98581432515E+02  0.41800000000E+01 0. -1.
        -11    1    1    2    0    0 -0.29131697188E+02  0.19022481578E+00  0.94136449813E+01  0.30615497356E+02  0.00000000000E+00 0.  1.
         11    1    1    2    0    0  0.34759431069E+02  0.41572420241E+02  0.13899070072E+03  0.14918075968E+03  0.00000000000E+00 0. -1.
</event>
<event>
 7    1  0.2420569E-009  0.1166816E+03  0.7561462E-02  0.1248674E+00
          1   -1    0    0  501    0  0.00000000000E+00  0.00000000000E+00  0.10004390777E+03  0.10004390777E+03  0.00000000000E+00 0. -1.
         -1   -1    0    0    0  501 -0.00000000000E+00 -0.00000000000E+00 -0.34007445033E+03  0.34007445033E+03  0.00000000000E+00 0.  1.
         25    2    1    2    0    0 -0.21025112895E+02  0.84171084795E+02  0.23204835140E+02  0.15398504674E+03  0.12508438495E+03 0.  0.
          5    1    3    3  502    0  0.99456371813E+01  0.92615048742E+02 -0.24432523033E+02  0.96389229347E+02  0.41800000000E+01 0.  1.
         -5    1    3    3    0  502 -0.30970750076E+02 -0.84439639467E+01  0.47637358173E+02  0.57595817393E+02  0.41800000000E+01 0.  1.
        -11    1    1    2    0    0  0.18092795727E+01 -0.88114825489E+02 -0.17741933646E+03  0.19810380338E+03  0.00000000000E+00 0. -1.
         11    1    1    2    0    0  0.19215833322E+02  0.39437406943E+01 -0.85816041244E+02  0.88029507983E+02  0.00000000000E+00 0.  1.
</event>
<event>
 7    1  0.2420569E-009  0.1799973E+03  0.7561462E-02  0.1167806E+00
          2   -1    0    0  501    0  0.00000000000E+00  0.00000000000E+00  0.18099265552E+03  0.18099265552E+03  0.00000000000E+00 0. -1.
         -2   -1    0    0    0  501 -0.00000000000E+00 -0.00000000000E+00 -0.23074460610E+03  0.23074460610E+03  0.00000000000E+00 0.  1.
         25    2    1    2    0    0  0.23240587179E+02 -0.17189050884E+03 -0.25584790190E+02  0.21537880196E+03  0.12508786881E+03 0.  0.
          5    1    3    3  502    0  0.30044013400E+02 -0.11439131663E+03  0.42646263090E+02  0.12579424556E+03  0.41800000000E+01 0. -1.
         -5    1    3    3    0  502 -0.68034262211E+01 -0.57499192205E+02 -0.68231053280E+02  0.89584556394E+02  0.41800000000E+01 0. -1.
        -11    1    1    2    0    0 -0.11160099577E+02  0.17113105003E+03 -0.40322882850E+02  0.17617127742E+03  0.00000000000E+00 0.  1.
         11    1    1    2    0    0 -0.12080487603E+02  0.75945880303E+00  0.16155722464E+02  0.20187182238E+02  0.00000000000E+00 0. -1.
</event>
<event>
 7    1  0.2420569E-009  0.2297026E+03  0.7561462E-02  0.1126849E+00
          1   -1    0    0  501    0  0.00000000000E+00  0.00000000000E+00  0.54689896756E+02  0.54689896756E+02  0.00000000000E+00 0. -1.
         -1   -1    0    0    0  501 -0.00000000000E+00 -0.00000000000E+00 -0.11647492528E+04  0.11647492528E+04  0.00000000000E+00 0.  1.
         25    2    1    2    0    0 -0.21890511744E+03  0.60628940502E+01 -0.42203753276E+03  0.49165086506E+03  0.12509470382E+03 0.  0.
          5    1    3    3  502    0 -0.44804046966E+02  0.38046895938E+02 -0.19513089927E+03  0.20383451416E+03  0.41800000000E+01 0. -1.
         -5    1    3    3    0  502 -0.17410107048E+03 -0.31984001888E+02 -0.22690663350E+03  0.28781635089E+03  0.41800000000E+01 0. -1.
        -11    1    1    2    0    0  0.12242811708E+03  0.18603391320E+02 -0.25518670657E+03  0.28364587998E+03  0.00000000000E+00 0. -1.
         11    1    1    2    0    0  0.96477000360E+02 -0.24666285370E+02 -0.43283511676E+03  0.44414240456E+03  0.00000000000E+00 0.  1.
</event>
<event>
 7    1  0.3214924E-009  0.1287019E+03  0.7561462E-02  0.1229395E+00
          1   -1    0    0  501    0  0.00000000000E+00  0.00000000000E+00  0.83147828142E+03  0.83147828142E+03  0.00000000000E+00 0. -1.
         -1   -1    0    0    0  501 -0.00000000000E+00 -0.00000000000E+00 -0.30013414693E+02  0.30013414693E+02  0.00000000000E+00 0.  1.
         25    2    1    2    0    0 -0.63763198524E+02 -0.58623112383E+02  0.63580512048E+03  0.65375551731E+03  0.12508281411E+03 0.  0.
          5    1    3    3  502    0 -0.66028747616E+00 -0.72350758720E+02  0.47367308831E+03  0.47918549150E+03  0.41800000000E+01 0. -1.
         -5    1    3    3    0  502 -0.63102911047E+02  0.13727646337E+02  0.16213203217E+03  0.17457002581E+03  0.41800000000E+01 0. -1.
        -11    1    1    2    0    0  0.77299960705E+02  0.20809583748E+02  0.80231617847E+02  0.11333770424E+03  0.00000000000E+00 0.  1.
         11    1    1    2    0    0 -0.13536762182E+02  0.37813528635E+02  0.85428128402E+02  0.94398474566E+02  0.00000000000E+00 0. -1.
</event>
<event>
 7    1  0.2420569E-009  0.1632501E+03  0.7561462E-02  0.1185075E+00
          3   -1    0    0  501    0  0.00000000000E+00  0.00000000000E+00  0.14365858806E+03  0.14365858806E+03  0.00000000000E+00 0. -1.
         -3   -1    0    0    0  501 -0.00000000000E+00 -0.00000000000E+00 -0.20906055286E+03  0.20906055286E+03  0.00000000000E+00 0.  1.
         25    2    1    2    0    0  0.11912336343E+03 -0.50068499720E+02 -0.71158127505E+02  0.19341195697E+03  0.12508987013E+03 0.  0.
          5    1    3    3  502    0  0.46985128128E+02  0.41709821600E+02 -0.22367022527E+02  0.66821161167E+02  0.41800000000E+01 0. -1.
         -5    1    3    3    0  502  0.72138235298E+02 -0.91778321319E+02 -0.48791104978E+02  0.12659079580E+03  0.41800000000E+01 0. -1.
        -11    1    1    2    0    0 -0.18646220948E+02  0.41963775489E+02  0.30983257615E+02  0.55394966029E+02  0.00000000000E+00 0.  1.
         11    1    1    2    0    0 -0.10047714248E+03  0.81047242304E+01 -0.25227094914E+02  0.10391221792E+03  0.00000000000E+00 0. -1.
</event>
<event>
 7    1  0.2420569E-009  0.9328500E+02  0.7561462E-02  0.1295086E+00
          2   -1    0    0  501    0  0.00000000000E+00  0.00000000000E+00  0.16312332241E+03  0.16312332241E+03  0.00000000000E+00 0. -1.
         -2   -1    0    0    0  501 -0.00000000000E+00 -0.00000000000E+00 -0.14430692937E+03  0.14430692937E+03  0.00000000000E+00 0.  1.
         25    2    1    2    0    0 -0.65755597295E+02 -0.51500794516E+02 -0.58836124718E+02  0.16151599024E+03  0.12509834180E+03 0.  0.
          5    1    3    3  502    0 -0.63064051490E+01 -0.41989511314E+02  0.31388688077E+02  0.52968027577E+02  0.41800000000E+01 0.  1.
         -5    1    3    3    0  502 -0.59449192146E+02 -0.95112832022E+01 -0.90224812794E+02  0.10854796267E+03  0.41800000000E+01 0.  1.
        -11    1    1    2    0    0  0.46993340713E+02  0.38095684651E+02 -0.44273371921E+01  0.60656875744E+02  0.00000000000E+00 0.  1.
         11    1    1    2    0    0  0.18762256581E+02  0.13405109865E+02  0.82079854953E+02  0.85257385789E+02  0.00000000000E+00 0. -1.
</event>
<event>
 7    1  0.2420569E-009  0.5951470E+02  0.7561462E-02  0.1399880E+00
          1   -1    0    0  501    0  0.00000000000E+00  0.00000000000E+00  0.38379727459E+03  0.38379727459E+03  0.00000000000E+00 0. -1.
         -1   -1    0    0    0  501 -0.00000000000E+00 -0.00000000000E+00 -0.66441444774E+02  0.66441444774E+02  0.00000000000E+00 0.  1.
         25    2    1    2    0    0  0.22869146770E+02  0.15530181644E+02  0.32980850261E+03  0.35381583112E+03  0.12509120490E+03 0.  0.
          5    1    3    3  502    0  0.38657320489E+02  0.28500641251E+02  0.32944809225E+03  0.33295674324E+03  0.41800000000E+01 0.  1.
         -5    1    3    3    0  502 -0.15788173720E+02 -0.12970459607E+02  0.36041035942E+00  0.20859087886E+02  0.41800000000E+01 0.  1.
        -11    1    1    2    0    0 -0.27634123498E+02  0.56913443589E+01 -0.47457689166E+02  0.55211126081E+02  0.00000000000E+00 0.  1.
         11    1    1    2    0    0  0.47649767284E+01 -0.21221526003E+02  0.35005016368E+02  0.41211762157E+02  0.00000000000E+00 0. -1.
</event>
<event>
 7    1  0.2420569E-009  0.3406037E+03  0.7561462E-02  0.1066539E+00
         -1   -1    0    0    0  501 -0.00000000000E+00  0.00000000000E+00  0.16258763714E+03  0.16258763714E+03  0.00000000000E+00 0.  1.
          1   -1    0    0  501    0  0.00000000000E+00 -0.00000000000E+00 -0.78348708417E+03  0.78348708417E+03  0.00000000000E+00 0. -1.
         25    2    1    2    0    0  0.27515976177E+03 -0.19584634715E+03 -0.26550261289E+03  0.44744530139E+03  0.12508786551E+03 0.  0.
          5    1    3    3  502    0  0.12485595370E+02  0.32507221700E+01  0.10795618029E+02  0.17334216307E+02  0.41800000000E+01 0.  1.
         -5    1    3    3    0  502  0.26267416640E+03 -0.19909706932E+03 -0.27629823091E+03  0.43011108509E+03  0.41800000000E+01 0.  1.
        -11    1    1    2    0    0 -0.96697201377E+02  0.60889670465E+02 -0.63128334182E+02  0.13054917579E+03  0.00000000000E+00 0.  1.
         11    1    1    2    0    0 -0.17846256040E+03  0.13495667669E+03 -0.29226849996E+03  0.36808024413E+03  0.00000000000E+00 0. -1.
</event>
<event>
 7    1  0.2420569E-009  0.1670065E+03  0.7561462E-02  0.1181006E+00
          2   -1    0    0  501    0  0.00000000000E+00  0.00000000000E+00  0.15393036739E+03  0.15393036739E+03  0.00000000000E+00 0. -1.
         -2   -1    0    0    0  501 -0.00000000000E+00 -0.00000000000E+00 -0.26627246178E+03  0.26627246178E+03  0.00000000000E+00 0.  1.
         25    2    1    2    0    0 -0.13684379412E+03  0.42962784775E+02 -0.15700358482E+03  0.24671759128E+03  0.12508964520E+03 0.  0.
          5    1    3    3  502    0 -0.12048207847E+03 -0.54837857265E+01 -0.55174815702E+02  0.13269414390E+03  0.41800000000E+01 0.  1.
         -5    1    3    3    0  502 -0.16361715655E+02  0.48446570502E+02 -0.10182876912E+03  0.11402344738E+03  0.41800000000E+01 0.  1.
        -11    1    1    2    0    0  0.12795542879E+03 -0.10516666040E+02  0.16172458682E+02  0.12940147002E+03  0.00000000000E+00 0.  1.
         11    1    1    2    0    0  0.88883653268E+01 -0.32446118736E+02  0.28489031754E+02  0.44083767869E+02  0.00000000000E+00 0. -1.
</event>
<event>
 7    1  0.2420569E-009  0.9868114E+02  0.7561462E-02  0.1283094E+00
          2   -1    0    0  501    0  0.00000000000E+00  0.00000000000E+00  0.23662318221E+03  0.23662318221E+03  0.00000000000E+00 0. -1.
         -2   -1    0    0    0  501 -0.00000000000E+00 -0.00000000000E+00 -0.53050051227E+02  0.53050051227E+02  0.00000000000E+00 0.  1.
         25    2    1    2    0    0  0.30755312345E+01 -0.15967996273E+02  0.13800618846E+03  0.18696654024E+03  0.12508534414E+03 0.  0.
          5    1    3    3  502    0  0.53958838722E+02 -0.30374475030E+02  0.35373517765E+02  0.71434747628E+02  0.41800000000E+01 0. -1.
         -5    1    3    3    0  502 -0.50883307488E+02  0.14406478757E+02  0.10263267069E+03  0.11553179261E+03  0.41800000000E+01 0. -1.
        -11    1    1    2    0    0  0.36560578426E+02  0.21215730072E+02  0.24692891478E+00  0.42271078425E+02  0.00000000000E+00 0.  1.
         11    1    1    2    0    0 -0.39636109661E+02 -0.52477337989E+01  0.45320013617E+02  0.60435614776E+02  0.00000000000E+00 0. -1.
</event>
<event>
 7    1  0.2420569E-009  0.1302785E+03  0.7561462E-02  0.1227043E+00
          1   -1    0    0  501    0  0.00000000000E+00  0.00000000000E+00  0.92019801871E+03  0.92019801871E+03  0.00000000000E+00 0. -1.
         -1   -1    0    0    0  501 -0.00000000000E+00 -0.00000000000E+00 -0.28004186302E+02  0.28004186302E+02  0.00000000000E+00 0.  1.
         25    2    1    2    0    0 -0.15859751961E+02  0.35863039151E+02  0.60603917738E+03  0.62005421969E+03  0.12508421775E+03 0.  0.
          5    1    3    3  502    0  0.37371109471E+02  0.58275981220E+02  0.25466166178E+03  0.26393697011E+03  0.41800000000E+01 0. -1.
         -5    1    3    3    0  502 -0.53230861432E+02 -0.22412942070E+02  0.35137751559E+03  0.35611724958E+03  0.41800000000E+01 0. -1.
        -11    1    1    2    0    0  0.58189943131E+02  0.21472297045E+02  0.44857800056E+02  0.76546399313E+02  0.00000000000E+00 0.  1.
         11    1    1    2    0    0 -0.42330191169E+02 -0.57335336196E+02  0.24129685497E+03  0.25160158601E+03  0.00000000000E+00 0. -1.
</event>
<event>
 7    1  0.2420569E-009  0.1381236E+03  0.7561462E-02  0.1215876E+00
         -2   -1    0    0    0  501 -0.00000000000E+00  0.00000000000E+00  0.12647521577E+04  0.12647521577E+04  0.00000000000E+00 0.  1.
          2   -1    0    0  501    0  0.00000000000E+00 -0.00000000000E+00 -0.26660671202E+02  0.26660671202E+02  0.00000000000E+00 0. -1.
         25    2    1    2    0    0  0.74972671291E+02  0.48208617891E+02  0.10692885892E+04  0.10802640031E+04  0.12508899672E+03 0.  0.
          5    1    3    3  502    0 -0.32514573738E+02  0.26058785134E+02  0.22519667141E+03  0.22905735309E+03  0.41800000000E+01 0. -1.
         -5    1    3    3    0  502  0.10748724503E+03  0.22149832757E+02  0.84409191782E+03  0.85120665004E+03  0.41800000000E+01 0. -1.
        -11    1    1    2    0    0 -0.55705595760E+02  0.15633890492E+02  0.98597175947E+02  0.11431944295E+03  0.00000000000E+00 0.  1.
         11    1    1    2    0    0 -0.19267075531E+02 -0.63842508383E+02  0.70205721362E+02  0.96829382875E+02  0.00000000000E+00 0. -1.
</event>
<event>
 7    1  0.2420569E-009  0.1443627E+03  0.7561462E-02  0.1207576E+00
          1   -1    0    0  501    0  0.00000000000E+00  0.00000000000E+00  0.12055273027E+03  0.12055273027E+03  0.00000000000E+00 0. -1.
         -1   -1    0    0    0  501 -0.00000000000E+00 -0.00000000000E+00 -0.20464746945E+03  0.20464746945E+03  0.00000000000E+00 0.  1.
         25    2    1    2    0    0  0.48654597256E+02  0.90745239714E+02  0.31711783533E+01  0.16204783227E+03  0.12508986853E+03 0.  0.
          5    1    3    3  502    0 -0.26731864326E+02 -0.15604246737E+02 -0.36359902596E+01  0.31444839191E+02  0.41800000000E+01 0.  1.
         -5    1    3    3    0  502  0.75386461581E+02  0.10634948645E+03  0.68071686130E+01  0.13060299308E+03  0.41800000000E+01 0.  1.
        -11    1    1    2    0    0 -0.62722379114E+02 -0.39963975894E+02 -0.81197642979E+02  0.11011027852E+03  0.00000000000E+00 0.  1.
         11    1    1    2    0    0  0.14067781858E+02 -0.50781263820E+02 -0.60682745566E+01  0.53042088927E+02  0.00000000000E+00 0. -1.
</event>
<event>
 7    1  0.2420569E-009  0.8617383E+02  0.7561462E-02  0.1312391E+00
          2   -1    0    0  501    0  0.00000000000E+00  0.00000000000E+00  0.60490851457E+03  0.60490851457E+03  0.00000000000E+00 0.  1.
         -2   -1    0    0    0  501 -0.00000000000E+00 -0.00000000000E+00 -0.33588287936E+02  0.33588287936E+02  0.00000000000E+00 0. -1.
         25    2    1    2    0    0  0.53841916831E+02  0.45119141299E+02  0.44851333309E+03  0.47089933892E+03  0.12508912228E+03 0.  0.
          5    1    3    3  502    0  0.43973329609E+02  0.17317537576E+02  0.43601434697E+03  0.43858811428E+03  0.41800000000E+01 0.  1.
         -5    1    3    3    0  502  0.98685872222E+01  0.27801603723E+02  0.12498986120E+02  0.32311224635E+02  0.41800000000E+01 0.  1.
        -11    1    1    2    0    0 -0.39781398686E+02  0.76381944992E+01  0.10097184030E+03  0.10879436672E+03  0.00000000000E+00 0.  1.
         11    1    1    2    0    0 -0.14060518145E+02 -0.52757335798E+02  0.21835053240E+02  0.58803096866E+02  0.00000000000E+00 0. -1.
</event>
<event>
 7    1  0.2420569E-009  0.1285111E+03  0.7561462E-02  0.1229682E+00
          1   -1    0    0  501    0  0.00000000000E+00  0.00000000000E+00  0.26085097491E+03  0.26085097491E+03  0.00000000000E+00 0. -1.
         -1   -1    0    0    0  501 -0.00000000000E+00 -0.00000000000E+00 -0.90898922080E+02  0.90898922080E+02  0.00000000000E+00 0.  1.
         25    2    1    2    0    0 -0.96858809738E+02 -0.25049434490E+02  0.42132059667E+02  0.16562582303E+03  0.12509076548E+03 0.  0.
          5    1    3    3  502    0 -0.76509805194E+02  0.30333974447E+02  0.62107602577E+02  0.10319266929E+03  0.41800000000E+01 0. -1.
         -5    1    3    3    0  502 -0.20349004543E+02 -0.55383408937E+02 -0.19975542910E+02  0.62433153740E+02  0.41800000000E+01 0. -1.
        -11    1    1    2    0    0  0.89647484448E+02  0.40529651192E+02  0.57916934031E+02  0.11416521073E+03  0.00000000000E+00 0.  1.
         11    1    1    2    0    0  0.72113252899E+01 -0.15480216703E+02  0.69903059131E+02  0.71958863230E+02  0.00000000000E+00 0. -1.
</event>
<event>
 7    1  0.2420569E-009  0.1097287E+03  0.7561462E-02  0.1261073E+00
          4   -1    0    0  501    0  0.00000000000E+00  0.00000000000E+00  0.10979620770E+03  0.10979620770E+03  0.00000000000E+00 0. -1.
         -4   -1    0    0    0  501 -0.00000000000E+00 -0.00000000000E+00 -0.16532623245E+03  0.16532623245E+03  0.00000000000E+00 0.  1.
         25    2    1    2    0    0 -0.71684128011E+02  0.86360442994E+01 -0.67693590902E+02  0.15950848825E+03  0.12508932850E+03 0.  0.
          5    1    3    3  502    0  0.33768519738E+02  0.17139371485E+01 -0.34915548909E+02  0.48783383046E+02  0.41800000000E+01 0. -1.
         -5    1    3    3    0  502 -0.10545264775E+03  0.69221071509E+01 -0.32778041994E+02  0.11072510520E+03  0.41800000000E+01 0. -1.
        -11    1    1    2    0    0  0.36928344043E+02  0.12453927472E+02  0.47715037755E+02  0.61607854461E+02  0.00000000000E+00 0.  1.
         11    1    1    2    0    0  0.34755783968E+02 -0.21089971772E+02 -0.35551471604E+02  0.54006097450E+02  0.00000000000E+00 0. -1.
</event>
<event>
 7    1  0.2420569E-009  0.1516656E+03  0.7561462E-02  0.1198441E+00
         -3   -1    0    0    0  501 -0.00000000000E+00  0.00000000000E+00  0.43610744307E+03  0.43610744307E+03  0.00000000000E+00 0.  1.
          3   -1    0    0  501    0  0.00000000000E+00 -0.00000000000E+00 -0.89506660820E+02  0.89506660820E+02  0.00000000000E+00 0. -1.
         25    2    1    2    0    0 -0.73749334920E+02 -0.12955381139E+03  0.88509858608E+02  0.21378610278E+03  0.12508936095E+03 0.  0.
          5    1    3    3  502    0 -0.39442626157E+02 -0.49157998623E+02 -0.27149439548E+02  0.68751684013E+02  0.41800000000E+01 0. -1.
         -5    1    3    3    0  502 -0.34306708763E+02 -0.80395812767E+02  0.11565929816E+03  0.14503441877E+03  0.41800000000E+01 0. -1.
        -11    1    1    2    0    0  0.17701107469E+02  0.64034255731E+02  0.19206166154E+03  0.20322745127E+03  0.00000000000E+00 0.  1.
         11    1    1    2    0    0  0.56048227452E+02  0.65519555658E+02  0.66029262102E+02  0.10860054985E+03  0.00000000000E+00 0. -1.
</event>
<event>
 7    1  0.2420569E-009  0.1750472E+03  0.7561462E-02  0.1172684E+00
          1   -1    0    0  501    0  0.00000000000E+00  0.00000000000E+00  0.54952162052E+03  0.54952162052E+03  0.00000000000E+00 0. -1.
         -1   -1    0    0    0  501 -0.00000000000E+00 -0.00000000000E+00 -0.72592909083E+02  0.72592909083E+02  0.00000000000E+00 0.  1.
         25    2    1    2    0    0 -0.73171499883E+02 -0.15012408519E+03  0.26426666541E+03  0.33671199144E+03  0.12508711119E+03 0.  0.
          5    1    3    3  502    0 -0.69378857616E+02 -0.13563063523E+03  0.12647901178E+03  0.19804925629E+03  0.41800000000E+01 0. -1.
         -5    1    3    3    0  502 -0.37926422674E+01 -0.14493449964E+02  0.13778765363E+03  0.13866273515E+03  0.41800000000E+01 0. -1.
        -11    1    1    2    0    0  0.50767162603E+02  0.15141252620E+03  0.15099235569E+03  0.21977658967E+03  0.00000000000E+00 0.  1.
         11    1    1    2    0    0  0.22404337280E+02 -0.12884410051E+01  0.61669690338E+02  0.65625948493E+02  0.00000000000E+00 0. -1.
</event>
<event>
 7    1  0.2420569E-009  0.1610836E+03  0.7561462E-02  0.1187479E+00
          1   -1    0    0  501    0  0.00000000000E+00  0.00000000000E+00  0.35759884889E+03  0.35759884889E+03  0.00000000000E+00 0. -1.
         -1   -1    0    0    0  501 -0.00000000000E+00 -0.00000000000E+00 -0.10303313544E+03  0.10303313544E+03  0.00000000000E+00 0.  1.
         25    2    1    2    0    0  0.10319583020E+03 -0.76101407723E+02  0.24502807906E+03  0.30352237759E+03  0.12508505323E+03 0.  0.
          5    1    3    3  502    0  0.42649439667E+02  0.23948895848E+02  0.26876575917E+02  0.55967374865E+02  0.41800000000E+01 0. -1.
         -5    1    3    3    0  502  0.60546390533E+02 -0.10005030357E+03  0.21815150315E+03  0.24755500273E+03  0.41800000000E+01 0. -1.
        -11    1    1    2    0    0 -0.58805057715E+02  0.91759243178E+02  0.13754418800E+02  0.10984979544E+03  0.00000000000E+00 0.  1.
         11    1    1    2    0    0 -0.44390772485E+02 -0.15657835455E+02 -0.42167844070E+01  0.47259811296E+02  0.00000000000E+00 0. -1.
</event>
<event>
 7    1  0.2420569E-009  0.1509843E+03  0.7561462E-02  0.1199269E+00
          1   -1    0    0  501    0  0.00000000000E+00  0.00000000000E+00  0.56305955521E+03  0.56305955521E+03  0.00000000000E+00 0. -1.
         -1   -1    0    0    0  501 -0.00000000000E+00 -0.00000000000E+00 -0.46911419147E+02  0.46911419147E+02  0.00000000000E+00 0.  1.
         25    2    1    2    0    0 -0.18479330741E+01 -0.12035418579E+03  0.24283545478E+03  0.29850190884E+03  0.12508311872E+03 0.  0.
          5    1    3    3  502    0 -0.90615446162E+00 -0.13643109830E+03  0.24621867994E+03  0.28152331422E+03  0.41800000000E+01 0.  1.
         -5    1    3    3    0  502 -0.94177861253E+00  0.16076912510E+02 -0.33832251580E+01  0.16978594620E+02  0.41800000000E+01 0.  1.
        -11    1    1    2    0    0 -0.37716360460E+02  0.94026251255E+02  0.19806567860E+03  0.22247128536E+03  0.00000000000E+00 0.  1.
         11    1    1    2    0    0  0.39564293534E+02  0.26327934534E+02  0.75247002682E+02  0.88997780153E+02  0.00000000000E+00 0. -1.
</event>
<event>
 7    1  0.2420569E-009  0.1034655E+03  0.7561462E-02  0.1273173E+00
          1   -1    0    0  501    0  0.00000000000E+00  0.00000000000E+00  0.28840096252E+03  0.28840096252E+03  0.00000000000E+00 0. -1.
         -1   -1    0    0    0  501 -0.00000000000E+00 -0.00000000000E+00 -0.44317956115E+02  0.44317956115E+02  0.00000000000E+00 0.  1.
         25    2    1    2    0    0  0.16449904320E+02 -0.52634758577E+01  0.95930635748E+02  0.15858239691E+03  0.12508951277E+03 0.  0.
          5    1    3    3  502    0  0.64661613581E+02 -0.15032300511E+02  0.85148204055E+02  0.10804991154E+03  0.41800000000E+01 0.  1.
         -5    1    3    3    0  502 -0.48211709261E+02  0.97688246528E+01  0.10782431693E+02  0.50532485375E+02  0.41800000000E+01 0.  1.
        -11    1    1    2    0    0  0.36599955320E+02 -0.52164286737E+01  0.68929303067E+02  0.78217751686E+02  0.00000000000E+00 0. -1.
         11    1    1    2    0    0 -0.53049859640E+02  0.10479904531E+02  0.79223067593E+02  0.95918770038E+02  0.00000000000E+00 0.  1.
</event>
<event>
 7    1  0.2420569E-009  0.1063273E+03  0.7561462E-02  0.1267526E+00
         -2   -1    0    0    0  501 -0.00000000000E+00  0.00000000000E+00  0.14879430197E+02  0.14879430197E+02  0.00000000000E+00 0.  1.
          2   -1    0    0  501    0  0.00000000000E+00 -0.00000000000E+00 -0.13348917453E+04  0.13348917453E+04  0.00000000000E+00 0. -1.
         25    2    1    2    0    0  0.19689893499E+02 -0.84867829843E+02 -0.81672697926E+03  0.83083144932E+03  0.12509075937E+03 0.  0.
          5    1    3    3  502    0 -0.11880797319E+02 -0.29721571981E+02 -0.39554997514E+02  0.51054827532E+02  0.41800000000E+01 0. -1.
         -5    1    3    3    0  502  0.31570690818E+02 -0.55146257861E+02 -0.77717198175E+03  0.77977662179E+03  0.41800000000E+01 0. -1.
        -11    1    1    2    0    0  0.15943683057E+02 -0.75521540373E+01 -0.25581947517E+02  0.31075265063E+02  0.00000000000E+00 0. -1.
         11    1    1    2    0    0 -0.35633576555E+02  0.92419983880E+02 -0.47770338827E+03  0.48786446106E+03  0.00000000000E+00 0.  1.
</event>
<event>
 7    1  0.2420569E-009  0.4995537E+02  0.7561462E-02  0.1445582E+00
          1   -1    0    0  501    0  0.00000000000E+00  0.00000000000E+00  0.82596336042E+02  0.82596336042E+02  0.00000000000E+00 0. -1.
         -1   -1    0    0    0  501 -0.00000000000E+00 -0.00000000000E+00 -0.14988993288E+03  0.14988993288E+03  0.00000000000E+00 0.  1.
         25    2    1    2    0    0  0.14484724598E+02  0.21833091610E+02 -0.49362708445E+02  0.13700539338E+03  0.12508920695E+03 0.  0.
          5    1    3    3  502    0  0.15501649971E+01  0.23066745850E+01 -0.89879512637E+02  0.90019569822E+02  0.41800000000E+01 0.  1.
         -5    1    3    3    0  502  0.12934559601E+02  0.19526417025E+02  0.40516804191E+02  0.46985823562E+02  0.41800000000E+01 0.  1.
        -11    1    1    2    0    0  0.11465408203E+02 -0.38557895121E+02  0.21332986405E+02  0.45533099722E+02  0.00000000000E+00 0. -1.
         11    1    1    2    0    0 -0.25950132801E+02  0.16724803511E+02 -0.39263874798E+02  0.49947775817E+02  0.00000000000E+00 0.  1.
</event>
<event>
 7    1  0.2420569E-009  0.1743300E+03  0.7561462E-02  0.1173406E+00
         -1   -1    0    0    0  501 -0.00000000000E+00  0.00000000000E+00  0.47797720038E+02  0.47797720038E+02  0.00000000000E+00 0.  1.
          1   -1    0    0  501    0  0.00000000000E+00 -0.00000000000E+00 -0.78865961194E+03  0.78865961194E+03  0.00000000000E+00 0. -1.
         25    2    1    2    0    0 -0.74370053186E+02  0.13908998127E+03 -0.44712344565E+03  0.49035301649E+03  0.12509907048E+03 0.  0.
          5    1    3    3  502    0 -0.82649094408E+02  0.74911338816E+02 -0.38385590385E+03  0.39975668701E+03  0.41800000000E+01 0.  1.
         -5    1    3    3    0  502  0.82790412218E+01  0.64178642450E+02 -0.63267541800E+02  0.90596329483E+02  0.41800000000E+01 0.  1.
        -11    1    1    2    0    0  0.17395578988E+02 -0.10363473403E+03 -0.23296699856E+03  0.25557070780E+03  0.00000000000E+00 0. -1.
         11    1    1    2    0    0  0.56974474198E+02 -0.35455247240E+02 -0.60771447696E+02  0.90533607694E+02  0.00000000000E+00 0.  1.
</event>
<event>
 7    1  0.2420569E-009  0.9202924E+02  0.7561462E-02  0.1298011E+00
         -3   -1    0    0    0  501 -0.00000000000E+00  0.00000000000E+00  0.80734375737E+02  0.80734375737E+02  0.00000000000E+00 0.  1.
          3   -1    0    0  501    0  0.00000000000E+00 -0.00000000000E+00 -0.19481987113E+03  0.19481987113E+03  0.00000000000E+00 0. -1.
         25    2    1    2    0    0  0.57219338826E+02  0.21035946386E+02 -0.81259065719E+02  0.16112925385E+03  0.12507212683E+03 0.  0.
          5    1    3    3  502    0  0.42058709036E+02  0.61620826234E+02 -0.89749066386E+02  0.11678368272E+03  0.41800000000E+01 0.  1.
         -5    1    3    3    0  502  0.15160629790E+02 -0.40584879848E+02  0.84900006672E+01  0.44345571134E+02  0.41800000000E+01 0.  1.
        -11    1    1    2    0    0 -0.23480656514E+02  0.39713935813E+01  0.30341416758E+02  0.38570905722E+02  0.00000000000E+00 0.  1.
         11    1    1    2    0    0 -0.33738682313E+02 -0.25007339968E+02 -0.63167846432E+02  0.75854087295E+02  0.00000000000E+00 0. -1.
</event>
<event>
 7    1  0.2420569E-009  0.1647551E+03  0.7561462E-02  0.1183430E+00
         -1   -1    0    0    0  501 -0.00000000000E+00  0.00000000000E+00  0.54729278444E+02  0.54729278444E+02  0.00000000000E+00 0.  1.
          1   -1    0    0  501    0  0.00000000000E+00 -0.00000000000E+00 -0.52159212534E+03  0.52159212534E+03  0.00000000000E+00 0. -1.
         25    2    1    2    0    0 -0.60872177985E+02  0.11085473939E+03 -0.30585048525E+03  0.35381637958E+03  0.12508923149E+03 0.  0.
          5    1    3    3  502    0 -0.46235204227E+02  0.13808996692E+03 -0.23649257024E+03  0.27776382279E+03  0.41800000000E+01 0.  1.
         -5    1    3    3    0  502 -0.14636973758E+02 -0.27235227531E+02 -0.69357915012E+02  0.76052556789E+02  0.41800000000E+01 0.  1.
        -11    1    1    2    0    0  0.80300391856E+02 -0.10528833154E+03 -0.14737603489E+03  0.19812491350E+03  0.00000000000E+00 0.  1.
         11    1    1    2    0    0 -0.19428213871E+02 -0.55664078471E+01 -0.13636326753E+02  0.24380110702E+02  0.00000000000E+00 0. -1.
</event>
<event>
 7    1  0.2420569E-009  0.1054251E+03  0.7561462E-02  0.1269284E+00
          1   -1    0    0  501    0  0.00000000000E+00  0.00000000000E+00  0.32019291369E+03  0.32019291369E+03  0.00000000000E+00 0. -1.
         -1   -1    0    0    0  501 -0.00000000000E+00 -0.00000000000E+00 -0.44790492644E+02  0.44790492644E+02  0.00000000000E+00 0.  1.
         25    2    1    2    0    0 -0.67874064865E+01  0.48620549810E+02  0.16477486991E+03  0.21262205627E+03  0.12508938528E+03 0.  0.
          5    1    3    3  502    0 -0.27282773819E+02 -0.36140573240E+02  0.41508192751E+02  0.61570230199E+02  0.41800000000E+01 0. -1.
         -5    1    3    3    0  502  0.20495367332E+02  0.84761123051E+02  0.12326667716E+03  0.15105182607E+03  0.41800000000E+01 0. -1.
        -11    1    1    2    0    0 -0.17582959252E+02 -0.50651450017E+02  0.11557950825E+03  0.12741017452E+03  0.00000000000E+00 0. -1.
         11    1    1    2    0    0  0.24370365738E+02  0.20309002067E+01 -0.49519571041E+01  0.24951175544E+02  0.00000000000E+00 0.  1.
</event>
<event>
 7    1  0.2420569E-009  0.1155591E+03  0.7561462E-02  0.1250608E+00
          2   -1    0    0  501    0  0.00000000000E+00  0.00000000000E+00  0.20120408498E+03  0.20120408498E+03  0.00000000000E+00 0. -1.
         -2   -1    0    0    0  501 -0.00000000000E+00 -0.00000000000E+00 -0.14467059301E+03  0.14467059301E+03  0.00000000000E+00 0.  1.
         25    2    1    2    0    0  0.49237328059E+02  0.31541060364E+02 -0.88578370509E+02  0.16405516790E+03  0.12509523344E+03 0.  0.
          5    1    3    3  502    0  0.18645341519E+02 -0.47510633331E+02 -0.20126717508E+02  0.55022415410E+02  0.41800000000E+01 0. -1.
         -5    1    3    3    0  502  0.30591986540E+02  0.79051693695E+02 -0.68451653001E+02  0.10903275249E+03  0.41800000000E+01 0. -1.
        -11    1    1    2    0    0  0.13677568015E+01  0.21609627531E+02  0.29771849365E+01  0.21856586899E+02  0.00000000000E+00 0.  1.
         11    1    1    2    0    0 -0.50605084861E+02 -0.53150687896E+02  0.14213467754E+03  0.15996292320E+03  0.00000000000E+00 0. -1.
</event>
<event>
 7    1  0.2420569E-009  0.1058363E+03  0.7561462E-02  0.1268481E+00
         -1   -1    0    0    0  501 -0.00000000000E+00  0.00000000000E+00  0.37779303498E+02  0.37779303498E+02  0.00000000000E+00 0.  1.
          1   -1    0    0  501    0  0.00000000000E+00 -0.00000000000E+00 -0.55411260774E+03  0.55411260774E+03  0.00000000000E+00 0. -1.
         25    2    1    2    0    0  0.46338892457E+02 -0.70269895494E+02 -0.30307266120E+03  0.33850493746E+03  0.12508958211E+03 0.  0.
          5    1    3    3  502    0  0.61710558440E+02 -0.63098173641E+02 -0.95144666061E+02  0.12984433919E+03  0.41800000000E+01 0.  1.
         -5    1    3    3    0  502 -0.15371665983E+02 -0.71717218531E+01 -0.20792799514E+03  0.20866059827E+03  0.41800000000E+01 0.  1.
        -11    1    1    2    0    0 -0.15336882767E+02 -0.10992956482E+02  0.40655555741E+01  0.19302689122E+02  0.00000000000E+00 0.  1.
         11    1    1    2    0    0 -0.31002009690E+02  0.81262851976E+02 -0.21732619861E+03  0.23408428465E+03  0.00000000000E+00 0. -1.
</event>
<event>
 7    1  0.2420569E-009  0.1168897E+03  0.7561462E-02  0.1248318E+00
         -2   -1    0    0    0  501 -0.00000000000E+00  0.00000000000E+00  0.63589218899E+02  0.63589218899E+02  0.00000000000E+00 0.  1.
          2   -1    0    0  501    0  0.00000000000E+00 -0.00000000000E+00 -0.50901941468E+03  0.50901941468E+03  0.00000000000E+00 0. -1.
         25    2    1    2    0    0 -0.70393906625E+02 -0.46827564316E+02 -0.51825250950E+02  0.15962893048E+03  0.12508963162E+03 0.  0.
          5    1    3    3  502    0 -0.89556288868E+02  0.85206963460E+01 -0.17921699842E+02  0.91823694476E+02  0.41800000000E+01 0.  1.
         -5    1    3    3    0  502  0.19162382243E+02 -0.55348260662E+02 -0.33903551108E+02  0.67805236002E+02  0.41800000000E+01 0.  1.
        -11    1    1    2    0    0  0.93631211924E+01  0.10095698183E+02 -0.82604306503E+00  0.13793966341E+02  0.00000000000E+00 0.  1.
         11    1    1    2    0    0  0.61030785433E+02  0.36731866133E+02 -0.39277890177E+03  0.39918573676E+03  0.00000000000E+00 0. -1.
</event>
<event>
 7    1  0.2420569E-009  0.9674379E+02  0.7561462E-02  0.1287296E+00
          1   -1    0    0  501    0  0.00000000000E+00  0.00000000000E+00  0.15320093838E+03  0.15320093838E+03  0.00000000000E+00 0. -1.
         -1   -1    0    0    0  501 -0.00000000000E+00 -0.00000000000E+00 -0.82395807648E+02  0.82395807648E+02  0.00000000000E+00 0.  1.
         25    2    1    2    0    0  0.26490177274E+02  0.14221093510E+02  0.55902630770E+02  0.14026870904E+03  0.12508492162E+03 0.  0.
          5    1    3    3  502    0  0.64124960850E+02  0.23640739247E+02  0.70807136800E+02  0.98498823232E+02  0.41800000000E+01 0.  1.
         -5    1    3    3    0  502 -0.37634783577E+02 -0.94196457375E+01 -0.14904506030E+02  0.41769885811E+02  0.41800000000E+01 0.  1.
        -11    1    1    2    0    0 -0.24644945361E+02 -0.47050613222E+02 -0.10042438712E+02  0.54055380044E+02  0.00000000000E+00 0.  1.
         11    1    1    2    0    0 -0.18452319127E+01  0.32829519712E+02  0.24944938671E+02  0.41272656937E+02  0.00000000000E+00 0. -1.
</event>
<event>
 7    1  0.2420569E-009  0.1540698E+03  0.7561462E-02  0.1195559E+00
         -2   -1    0    0    0  501 -0.00000000000E+00  0.00000000000E+00  0.13459689600E+02  0.13459689600E+02  0.00000000000E+00 0.  1.
          2   -1    0    0  501    0  0.00000000000E+00 -0.00000000000E+00 -0.24280748723E+04  0.24280748723E+04  0.00000000000E+00 0. -1.
         25    2    1    2    0    0 -0.91160104467E+02  0.79569819902E+02 -0.18064635616E+04  0.18148277552E+04  0.12509060940E+03 0.  0.
          5    1    3    3  502    0 -0.96281078050E+02  0.10596865132E+02 -0.13055047093E+04  0.13090998273E+04  0.41800000000E+01 0.  1.
         -5    1    3    3    0  502  0.51209735831E+01  0.68972954770E+02 -0.50095885236E+03  0.50572792786E+03  0.41800000000E+01 0.  1.
        -11    1    1    2    0    0  0.15265160784E+02 -0.62193131132E+02 -0.38670500171E+03  0.39197164316E+03  0.00000000000E+00 0. -1.
         11    1    1    2    0    0  0.75894943684E+02 -0.17376688770E+02 -0.22144661935E+03  0.23473516356E+03  0.00000000000E+00 0.  1.
</event>
<event>
 7    1  0.2420569E-009  0.1787256E+03  0.7561462E-02  0.1169042E+00
          2   -1    0    0  501    0  0.00000000000E+00  0.00000000000E+00  0.20808418144E+03  0.20808418144E+03  0.00000000000E+00 0. -1.
         -2   -1    0    0    0  501 -0.00000000000E+00 -0.00000000000E+00 -0.18472115779E+03  0.18472115779E+03  0.00000000000E+00 0.  1.
         25    2    1    2    0    0 -0.12997689445E+03 -0.97903140902E+02  0.22744191967E+02  0.20650319984E+03  0.12508898908E+03 0.  0.
          5    1    3    3  502    0  0.14834577268E+00 -0.50221330065E+02 -0.29433467168E+02  0.58360992019E+02  0.41800000000E+01 0. -1.
         -5    1    3    3    0  502 -0.13012524022E+03 -0.47681810837E+02  0.52177659135E+02  0.14814220783E+03  0.41800000000E+01 0. -1.
        -11    1    1    2    0    0  0.11460859319E+03  0.64199620398E+02 -0.33901142894E+02  0.13566874505E+03  0.00000000000E+00 0.  1.
         11    1    1    2    0    0  0.15368301254E+02  0.33703520504E+02  0.34519974572E+02  0.50633394338E+02  0.00000000000E+00 0. -1.
</event>
<event>
 7    1  0.2420569E-009  0.2257187E+03  0.7561462E-02  0.1129690E+00
         -3   -1    0    0    0  501 -0.00000000000E+00  0.00000000000E+00  0.53802762449E+03  0.53802762449E+03  0.00000000000E+00 0.  1.
          3   -1    0    0  501    0  0.00000000000E+00 -0.00000000000E+00 -0.11090823126E+03  0.11090823126E+03  0.00000000000E+00 0. -1.
         25    2    1    2    0    0  0.79327068385E+02  0.20025200294E+03  0.16922667302E+03  0.30113003266E+03  0.12509189122E+03 0.  0.
          5    1    3    3  502    0  0.10595514073E+02  0.14449808128E+03  0.51575844240E+02  0.15384895359E+03  0.41800000000E+01 0. -1.
         -5    1    3    3    0  502  0.68731554312E+02  0.55753921654E+02  0.11765082878E+03  0.14728107907E+03  0.41800000000E+01 0. -1.
        -11    1    1    2    0    0 -0.71718991353E+02 -0.14139270155E+03  0.23648979023E+03  0.28471552584E+03  0.00000000000E+00 0.  1.
         11    1    1    2    0    0 -0.76080770318E+01 -0.58859301382E+02  0.21402929981E+02  0.63090297250E+02  0.00000000000E+00 0. -1.
</event>
<event>
 7    1  0.2420569E-009  0.8457887E+02  0.7561462E-02  0.1316538E+00
         -2   -1    0    0    0  501 -0.00000000000E+00  0.00000000000E+00  0.15643350009E+02  0.15643350009E+02  0.00000000000E+00 0.  1.
          2   -1    0    0  501    0  0.00000000000E+00 -0.00000000000E+00 -0.79413949883E+03  0.79413949883E+03  0.00000000000E+00 0. -1.
         25    2    1    2    0    0  0.11622212817E+02  0.18129046203E+01 -0.52996214000E+03  0.54465129089E+03  0.12508715514E+03 0.  0.
          5    1    3    3  502    0 -0.40398196671E+02  0.68619811014E+01 -0.42819417713E+03  0.43017069496E+03  0.41800000000E+01 0. -1.
         -5    1    3    3    0  502  0.52020409488E+02 -0.50490764811E+01 -0.10176796287E+03  0.11448059593E+03  0.41800000000E+01 0. -1.
        -11    1    1    2    0    0  0.13345557156E+02  0.31322706424E+02 -0.40081841806E+02  0.52590587334E+02  0.00000000000E+00 0.  1.
         11    1    1    2    0    0 -0.24967769973E+02 -0.33135611044E+02 -0.20845216702E+03  0.21254097062E+03  0.00000000000E+00 0. -1.
</event>
<event>
 7    1  0.2420569E-009  0.9289798E+02  0.7561462E-02  0.1295982E+00
          1   -1    0    0  501    0  0.00000000000E+00  0.00000000000E+00  0.38172872671E+02  0.38172872671E+02  0.00000000000E+00 0. -1.
         -1   -1    0    0    0  501 -0.00000000000E+00 -0.00000000000E+00 -0.36768310984E+03  0.36768310984E+03  0.00000000000E+00 0.  1.
         25    2    1    2    0    0  0.47009133874E+02 -0.92368201653E+01 -0.18224695751E+03  0.22617877218E+03  0.12509079083E+03 0.  0.
          5    1    3    3  502    0  0.54032526971E+02 -0.43353920446E+02 -0.17773884828E+03  0.19080787976E+03  0.41800000000E+01 0.  1.
         -5    1    3    3    0  502 -0.70233930968E+01  0.34117100281E+02 -0.45081092293E+01  0.35370892426E+02  0.41800000000E+01 0.  1.
        -11    1    1    2    0    0 -0.63846034870E+02  0.89706721034E+01 -0.51700512705E+02  0.82642193464E+02  0.00000000000E+00 0. -1.
         11    1    1    2    0    0  0.16836900996E+02  0.26614806186E+00 -0.95562766948E+02  0.97035016858E+02  0.00000000000E+00 0.  1.
</event>
<event>
 7    1  0.2420569E-009  0.1475806E+03  0.7561462E-02  0.1203478E+00
          1   -1    0    0  501    0  0.00000000000E+00  0.00000000000E+00  0.35009316447E+02  0.35009316447E+02  0.00000000000E+00 0. -1.
         -1   -1    0    0    0  501 -0.00000000000E+00 -0.00000000000E+00 -0.72980941844E+03  0.72980941844E+03  0.00000000000E+00 0.  1.
         25    2    1    2    0    0 -0.10648465290E+03  0.19856530744E+02 -0.26523411673E+03  0.31261795616E+03  0.12509031424E+03 0.  0.
          5    1    3    3  502    0 -0.12970491690E+03  0.21587669487E+02 -0.25480951562E+03  0.28676602761E+03  0.41800000000E+01 0. -1.
         -5    1    3    3    0  502  0.23220263994E+02 -0.17311387435E+01 -0.10424601112E+02  0.25851928548E+02  0.41800000000E+01 0. -1.
        -11    1    1    2    0    0 -0.27982289061E+01 -0.30060600028E+02 -0.12048911457E+03  0.12421391423E+03  0.00000000000E+00 0.  1.
         11    1    1    2    0    0  0.10928288181E+03  0.10204069284E+02 -0.30907687069E+03  0.32798686450E+03  0.00000000000E+00 0. -1.
</event>
<event>
 7    1  0.2420569E-009  0.1170279E+03  0.7561462E-02  0.1248082E+00
         -1   -1    0    0    0  501 -0.00000000000E+00  0.00000000000E+00  0.44581474058E+02  0.44581474058E+02  0.00000000000E+00 0.  1.
          1   -1    0    0  501    0  0.00000000000E+00 -0.00000000000E+00 -0.36028618580E+03  0.36028618580E+03  0.00000000000E+00 0. -1.
         25    2    1    2    0    0  0.27467169525E+02  0.60934446915E+02 -0.18122272493E+03  0.23012116770E+03  0.12508646437E+03 0.  0.
          5    1    3    3  502    0  0.42754364532E+02 -0.22769696101E+02 -0.31727151577E+02  0.58055829115E+02  0.41800000000E+01 0. -1.
         -5    1    3    3    0  502 -0.15287195007E+02  0.83704143016E+02 -0.14949557335E+03  0.17206533858E+03  0.41800000000E+01 0. -1.
        -11    1    1    2    0    0 -0.33307768821E+02 -0.76598824537E+02 -0.72673036701E+02  0.11071656447E+03  0.00000000000E+00 0.  1.
         11    1    1    2    0    0  0.58405992953E+01  0.15664377622E+02 -0.61808950109E+02  0.64029927690E+02  0.00000000000E+00 0. -1.
</event>
<event>
 7    1  0.2420569E-009  0.8036500E+02  0.7561462E-02  0.1328019E+00
         -2   -1    0    0    0  501 -0.00000000000E+00  0.00000000000E+00  0.39736363507E+02  0.39736363507E+02  0.00000000000E+00 0.  1.
          2   -1    0    0  501    0  0.00000000000E+00 -0.00000000000E+00 -0.37270341539E+03  0.37270341539E+03  0.00000000000E+00 0. -1.
         25    2    1    2    0    0 -0.32454766321E+02 -0.13375964070E+01 -0.11515782253E+03  0.17309868163E+03  0.12508688368E+03 0.  0.
          5    1    3    3  502    0  0.11904502938E+02 -0.10396047151E+02 -0.12542551523E+03  0.12648647065E+03  0.41800000000E+01 0. -1.
         -5    1    3    3    0  502 -0.44359269260E+02  0.90584507439E+01  0.10267692696E+02  0.46612210980E+02  0.41800000000E+01 0. -1.
        -11    1    1    2    0    0  0.54607240880E+02 -0.28622598009E+02 -0.12660130108E+03  0.14081581342E+03  0.00000000000E+00 0. -1.
         11    1    1    2    0    0 -0.22152474559E+02  0.29960194416E+02 -0.91207928278E+02  0.98525283858E+02  0.00000000000E+00 0.  1.
</event>
<event>
 7    1  0.2420569E-009  0.1021318E+03  0.7561462E-02  0.1275876E+00
         -1   -1    0    0    0  501 -0.00000000000E+00  0.00000000000E+00  0.64535530088E+02  0.64535530088E+02  0.00000000000E+00 0.  1.
          1   -1    0    0  501    0  0.00000000000E+00 -0.00000000000E+00 -0.27519271836E+03  0.27519271836E+03  0.00000000000E+00 0. -1.
         25    2    1    2    0    0  0.10883759185E+02  0.72073945481E+02 -0.84570385754E+02  0.16766822521E+03  0.12508946305E+03 0.  0.
          5    1    3    3  502    0 -0.81866390650E+01  0.72603746853E+02 -0.11212460059E+03  0.13389444938E+03  0.41800000000E+01 0. -1.
         -5    1    3    3    0  502  0.19070398250E+02 -0.52980137170E+00  0.27554214835E+02  0.33773775834E+02  0.41800000000E+01 0. -1.
        -11    1    1    2    0    0  0.34844386248E+02 -0.13803194664E+02 -0.19459108437E+02  0.42229330294E+02  0.00000000000E+00 0.  1.
         11    1    1    2    0    0 -0.45728145433E+02 -0.58270750817E+02 -0.10662769408E+03  0.12983069294E+03  0.00000000000E+00 0. -1.
</event>
<event>
 7    1  0.2420569E-009  0.1611389E+03  0.7561462E-02  0.1187417E+00
          1   -1    0    0  501    0  0.00000000000E+00  0.00000000000E+00  0.65207177622E+03  0.65207177622E+03  0.00000000000E+00 0. -1.
         -1   -1    0    0    0  501 -0.00000000000E+00 -0.00000000000E+00 -0.54625280498E+02  0.54625280498E+02  0.00000000000E+00 0.  1.
         25    2    1    2    0    0 -0.33625335907E+02 -0.13275693751E+03  0.44494048768E+03  0.48205229197E+03  0.12508919595E+03 0.  0.
          5    1    3    3  502    0 -0.78255281948E+02 -0.10875227321E+03  0.33903310010E+03  0.36457079072E+03  0.41800000000E+01 0.  1.
         -5    1    3    3    0  502  0.44629946041E+02 -0.24004664295E+02  0.10590738758E+03  0.11748150125E+03  0.41800000000E+01 0.  1.
        -11    1    1    2    0    0  0.17835146149E+01  0.23862608005E+02 -0.10427184823E+02  0.26102321133E+02  0.00000000000E+00 0.  1.
         11    1    1    2    0    0  0.31841821292E+02  0.10889432950E+03  0.16293319287E+03  0.19854244362E+03  0.00000000000E+00 0. -1.
</event>
<event>
 7    1  0.2420569E-009  0.1245351E+03  0.7561462E-02  0.1235798E+00
          2   -1    0    0  501    0  0.00000000000E+00  0.00000000000E+00  0.55124462125E+03  0.55124462125E+03  0.00000000000E+00 0. -1.
         -2   -1    0    0    0  501 -0.00000000000E+00 -0.00000000000E+00 -0.66824461619E+02  0.66824461619E+02  0.00000000000E+00 0.  1.
         25    2    1    2    0    0  0.10473960385E+03 -0.63133425659E+02  0.41286271656E+03  0.44839713145E+03  0.12509256859E+03 0.  0.
          5    1    3    3  502    0  0.96617078191E+00 -0.87273057658E-01 -0.86866391604E+01  0.96887152125E+01  0.41800000000E+01 0. -1.
         -5    1    3    3    0  502  0.10377343307E+03 -0.63046152601E+02  0.42154935572E+03  0.43870841624E+03  0.41800000000E+01 0. -1.
        -11    1    1    2    0    0 -0.37898857958E+02  0.14311802822E+02 -0.20893441815E+02  0.45581652508E+02  0.00000000000E+00 0.  1.
         11    1    1    2    0    0 -0.66840745890E+02  0.48821622837E+02  0.92450884882E+02  0.12409029891E+03  0.00000000000E+00 0. -1.
</event>
<event>
 7    1  0.2420569E-009  0.1098842E+03  0.7561462E-02  0.1260785E+00
          1   -1    0    0  501    0  0.00000000000E+00  0.00000000000E+00  0.23330100006E+03  0.23330100006E+03  0.00000000000E+00 0. -1.
         -1   -1    0    0    0  501 -0.00000000000E+00 -0.00000000000E+00 -0.56985707577E+02  0.56985707577E+02  0.00000000000E+00 0.  1.
         25    2    1    2    0    0  0.33301416368E+02  0.17368180174E+02  0.77960154642E+02  0.15210861247E+03  0.12509438941E+03 0.  0.
          5    1    3    3  502    0 -0.26696530219E+02 -0.35149929212E+02  0.62245948072E+01  0.44770975306E+02  0.41800000000E+01 0. -1.
         -5    1    3    3    0  502  0.59997946587E+02  0.52518109386E+02  0.71735559835E+02  0.10733763717E+03  0.41800000000E+01 0. -1.
        -11    1    1    2    0    0  0.27729689476E+02 -0.20484821769E+02  0.24375368850E+02  0.42222295153E+02  0.00000000000E+00 0.  1.
         11    1    1    2    0    0 -0.61031105844E+02  0.31166415953E+01  0.73979768986E+02  0.95955800005E+02  0.00000000000E+00 0. -1.
</event>
<event>
 7    1  0.2420569E-009  0.1228998E+03  0.7561462E-02  0.1238389E+00
         -3   -1    0    0    0  501 -0.00000000000E+00  0.00000000000E+00  0.13052478919E+03  0.13052478919E+03  0.00000000000E+00 0.  1.
          3   -1    0    0  501    0  0.00000000000E+00 -0.00000000000E+00 -0.14392348885E+03  0.14392348885E+03  0.00000000000E+00 0. -1.
         25    2    1    2    0    0  0.42244825172E+02  0.55653817582E+02 -0.51312518307E+02  0.15219235902E+03  0.12509023521E+03 0.  0.
          5    1    3    3  502    0  0.84296355815E+02  0.32147858035E+02 -0.14620046150E+02  0.91490865825E+02  0.41800000000E+01 0. -1.
         -5    1    3    3    0  502 -0.42051530643E+02  0.23505959547E+02 -0.36692472157E+02  0.60701493200E+02  0.41800000000E+01 0. -1.
        -11    1    1    2    0    0 -0.15141174715E+02  0.20962553581E+02  0.31470465572E+02  0.40731732441E+02  0.00000000000E+00 0.  1.
         11    1    1    2    0    0 -0.27103650457E+02 -0.76616371162E+02  0.64433530688E+01  0.81524186576E+02  0.00000000000E+00 0. -1.
</event>
<event>
 7    1  0.2420569E-009  0.1048742E+03  0.7561462E-02  0.1270368E+00
          2   -1    0    0  501    0  0.00000000000E+00  0.00000000000E+00  0.94062824908E+03  0.94062824908E+03  0.00000000000E+00 0. -1.
         -2   -1    0    0    0  501 -0.00000000000E+00 -0.00000000000E+00 -0.17243711547E+02  0.17243711547E+02  0.00000000000E+00 0.  1.
         25    2    1    2    0    0 -0.25194393768E+02 -0.62715394529E+02  0.56621224520E+03  0.58379064017E+03  0.12508887537E+03 0.  0.
          5    1    3    3  502    0 -0.67190822634E+01  0.17263335533E+02  0.98556077490E+01  0.21395659006E+02  0.41800000000E+01 0.  1.
         -5    1    3    3    0  502 -0.18475311504E+02 -0.79978730061E+02  0.55635663746E+03  0.56239498116E+03  0.41800000000E+01 0.  1.
        -11    1    1    2    0    0 -0.62240879720E+01  0.74686008448E+02  0.20583637443E+03  0.21905559150E+03  0.00000000000E+00 0.  1.
         11    1    1    2    0    0  0.31418481740E+02 -0.11970613920E+02  0.15133591790E+03  0.15502572895E+03  0.00000000000E+00 0. -1.
</event>
<event>
 7    1  0.2420569E-009  0.1143105E+03  0.7561462E-02  0.1252789E+00
          2   -1    0    0  501    0  0.00000000000E+00  0.00000000000E+00  0.36652193846E+03  0.36652193846E+03  0.00000000000E+00 0. -1.
         -2   -1    0    0    0  501 -0.00000000000E+00 -0.00000000000E+00 -0.66792911872E+02  0.66792911872E+02  0.00000000000E+00 0.  1.
         25    2    1    2    0    0 -0.57950790770E+02  0.47045969854E+02  0.28496274278E+03  0.32003564900E+03  0.12508970554E+03 0.  0.
          5    1    3    3  502    0  0.38525369797E+02  0.16386924786E+02  0.59693853751E+02  0.73031253566E+02  0.41800000000E+01 0. -1.
         -5    1    3    3    0  502 -0.96476160567E+02  0.30659045069E+02  0.22526888903E+03  0.24700439544E+03  0.41800000000E+01 0. -1.
        -11    1    1    2    0    0  0.43623909899E+02 -0.89542250330E+01  0.44439316938E+02  0.62913246226E+02  0.00000000000E+00 0. -1.
         11    1    1    2    0    0  0.14326880871E+02 -0.38091744821E+02 -0.29673033123E+02  0.50365955106E+02  0.00000000000E+00 0.  1.
</event>
<event>
 7    1  0.2420569E-009  0.1080158E+03  0.7561462E-02  0.1264289E+00
          1   -1    0    0  501    0  0.00000000000E+00  0.00000000000E+00  0.10201141029E+04  0.10201141029E+04  0.00000000000E+00 0. -1.
         -1   -1    0    0    0  501 -0.00000000000E+00 -0.00000000000E+00 -0.21580346080E+02  0.21580346080E+02  0.00000000000E+00 0.  1.
         25    2    1    2    0    0  0.25901270844E+02 -0.38676842594E+02  0.84899027472E+03  0.85941708521E+03  0.12508583378E+03 0.  0.
          5    1    3    3  502    0 -0.37372990513E+02  0.91173963640E+01  0.11929271398E+03  0.12541168743E+03  0.41800000000E+01 0.  1.
         -5    1    3    3    0  502  0.63274261357E+02 -0.47794238958E+02  0.72969756074E+03  0.73400539778E+03  0.41800000000E+01 0.  1.
        -11    1    1    2    0    0 -0.22164019655E+02 -0.25418948687E+02  0.24403889478E+02  0.41628314177E+02  0.00000000000E+00 0.  1.
         11    1    1    2    0    0 -0.37372511888E+01  0.64095791281E+02  0.12513959259E+03  0.14064904956E+03  0.00000000000E+00 0. -1.
</event>
<event>
 7    1  0.2420569E-009  0.1458865E+03  0.7561462E-02  0.1205621E+00
         -2   -1    0    0    0  501 -0.00000000000E+00  0.00000000000E+00  0.95213182523E+02  0.95213182523E+02  0.00000000000E+00 0.  1.
          2   -1    0    0  501    0  0.00000000000E+00 -0.00000000000E+00 -0.46064190084E+03  0.46064190084E+03  0.00000000000E+00 0. -1.
         25    2    1    2    0    0  0.92516568955E+02 -0.78633205720E+02 -0.36369041713E+03  0.40331234384E+03  0.12509048968E+03 0.  0.
          5    1    3    3  502    0  0.70737934688E+02 -0.10888228913E+03 -0.22674522057E+03  0.26132369916E+03  0.41800000000E+01 0.  1.
         -5    1    3    3    0  502  0.21778634267E+02  0.30249083411E+02 -0.13694519655E+03  0.14198864468E+03  0.41800000000E+01 0.  1.
        -11    1    1    2    0    0 -0.46141468646E+02  0.21885315051E+02  0.42930237493E+02  0.66715870938E+02  0.00000000000E+00 0.  1.
         11    1    1    2    0    0 -0.46375100309E+02  0.56747890669E+02 -0.44668538687E+02  0.85826868593E+02  0.00000000000E+00 0. -1.
</event>
<event>
 7    1  0.2420569E-009  0.1030272E+03  0.7561462E-02  0.1274056E+00
          2   -1    0    0  501    0  0.00000000000E+00  0.00000000000E+00  0.41100066637E+03  0.41100066637E+03  0.00000000000E+00 0. -1.
         -2   -1    0    0    0  501 -0.00000000000E+00 -0.00000000000E+00 -0.62581332757E+02  0.62581332757E+02  0.00000000000E+00 0.  1.
         25    2    1    2    0    0  0.55177970862E+02 -0.50602525378E+02  0.53265695797E+02  0.15519834513E+03  0.12507624850E+03 0.  0.
          5    1    3    3  502    0  0.42214056365E+02  0.28230782343E+02 -0.11535288638E+02  0.52244989333E+02  0.41800000000E+01 0. -1.
         -5    1    3    3    0  502  0.12963914497E+02 -0.78833307720E+02  0.64800984436E+02  0.10295335579E+03  0.41800000000E+01 0. -1.
        -11    1    1    2    0    0 -0.44949896244E+02  0.37950020433E+02  0.29629078993E+03  0.30207437729E+03  0.00000000000E+00 0. -1.
         11    1    1    2    0    0 -0.10228074618E+02  0.12652504944E+02 -0.11371521097E+01  0.16309276706E+02  0.00000000000E+00 0.  1.
</event>
<event>
 7    1  0.2420569E-009  0.1817631E+03  0.7561462E-02  0.1166108E+00
         -2   -1    0    0    0  501 -0.00000000000E+00  0.00000000000E+00  0.96251306886E+02  0.96251306886E+02  0.00000000000E+00 0.  1.
          2   -1    0    0  501    0  0.00000000000E+00 -0.00000000000E+00 -0.42973171613E+03  0.42973171613E+03  0.00000000000E+00 0. -1.
         25    2    1    2    0    0 -0.11532322593E+02  0.15525113728E+03 -0.80887790621E+02  0.21546599595E+03  0.12508737206E+03 0.  0.
          5    1    3    3  502    0  0.29323374715E+02  0.15317911933E+01  0.11111173396E+02  0.31672342243E+02  0.41800000000E+01 0.  1.
         -5    1    3    3    0  502 -0.40855697307E+02  0.15371934608E+03 -0.91998964017E+02  0.18379365371E+03  0.41800000000E+01 0.  1.
        -11    1    1    2    0    0 -0.34315670602E+02 -0.69969405567E+02 -0.15248629679E+03  0.17124647054E+03  0.00000000000E+00 0. -1.
         11    1    1    2    0    0  0.45847993195E+02 -0.85281731710E+02 -0.10010632183E+03  0.13927055652E+03  0.00000000000E+00 0.  1.
</event>
<event>
 7    1  0.2420569E-009  0.1395700E+03  0.7561462E-02  0.1213909E+00
          1   -1    0    0  501    0  0.00000000000E+00  0.00000000000E+00  0.68100307258E+02  0.68100307258E+02  0.00000000000E+00 0. -1.
         -1   -1    0    0    0  501 -0.00000000000E+00 -0.00000000000E+00 -0.30169340606E+03  0.30169340606E+03  0.00000000000E+00 0.  1.
         25    2    1    2    0    0  0.87528291009E+02 -0.27947020552E+02 -0.10379222456E+03  0.18671587918E+03  0.12509099077E+03 0.  0.
          5    1    3    3  502    0  0.11965287077E+03 -0.27258928332E+02 -0.83239294900E+02  0.14834456941E+03  0.41800000000E+01 0. -1.
         -5    1    3    3    0  502 -0.32124579760E+02 -0.68809221961E+00 -0.20552929663E+02  0.38371309769E+02  0.41800000000E+01 0. -1.
        -11    1    1    2    0    0 -0.30166024097E+02 -0.29905620900E+02 -0.70511744058E+02  0.82317927703E+02  0.00000000000E+00 0.  1.
         11    1    1    2    0    0 -0.57362266912E+02  0.57852641452E+02 -0.59289130184E+02  0.10075990644E+03  0.00000000000E+00 0. -1.
</event>
<event>
 7    1  0.2420569E-009  0.1316343E+03  0.7561462E-02  0.1225051E+00
         -1   -1    0    0    0  501 -0.00000000000E+00  0.00000000000E+00  0.12625251948E+03  0.12625251948E+03  0.00000000000E+00 0.  1.
          1   -1    0    0  501    0  0.00000000000E+00 -0.00000000000E+00 -0.17652330523E+03  0.17652330523E+03  0.00000000000E+00 0. -1.
         25    2    1    2    0    0 -0.81881208948E+02 -0.50745969715E+02  0.65532006409E+01  0.15802132840E+03  0.12509240572E+03 0.  0.
          5    1    3    3  502    0 -0.10431599007E+03 -0.36976734162E+02 -0.28138561456E+02  0.11427316262E+03  0.41800000000E+01 0. -1.
         -5    1    3    3    0  502  0.22434781122E+02 -0.13769235553E+02  0.34691762097E+02  0.43748165780E+02  0.41800000000E+01 0. -1.
        -11    1    1    2    0    0  0.60125076903E+02 -0.10347849653E+02 -0.40505143012E+01  0.61143352305E+02  0.00000000000E+00 0. -1.
         11    1    1    2    0    0  0.21756132046E+02  0.61093819368E+02 -0.52773472083E+02  0.83611144008E+02  0.00000000000E+00 0.  1.
</event>
<event>
 7    1  0.2420569E-009  0.8654237E+02  0.7561462E-02  0.1311448E+00
         -2   -1    0    0    0  501 -0.00000000000E+00  0.00000000000E+00  0.68249568712E+02  0.68249568712E+02  0.00000000000E+00 0.  1.
          2   -1    0    0  501    0  0.00000000000E+00 -0.00000000000E+00 -0.23373935482E+03  0.23373935482E+03  0.00000000000E+00 0. -1.
         25    2    1    2    0    0 -0.17620665956E+02 -0.43708248288E+02 -0.14897332142E+03  0.20015851449E+03  0.12509788804E+03 0.  0.
          5    1    3    3  502    0 -0.33631575842E+02 -0.10394130288E+02  0.10047667248E+02  0.36844929844E+02  0.41800000000E+01 0. -1.
         -5    1    3    3    0  502  0.16010909886E+02 -0.33314118000E+02 -0.15902098867E+03  0.16331358465E+03  0.41800000000E+01 0. -1.
        -11    1    1    2    0    0 -0.24630468611E+01  0.68493608619E+02 -0.12658329786E+02  0.69697018117E+02  0.00000000000E+00 0. -1.
         11    1    1    2    0    0  0.20083712817E+02 -0.24785360330E+02 -0.38581349010E+01  0.32133390922E+02  0.00000000000E+00 0.  1.
</event>
<event>
 7    1  0.2420569E-009  0.1431461E+03  0.7561462E-02  0.1209157E+00
          1   -1    0    0  501    0  0.00000000000E+00  0.00000000000E+00  0.24764002655E+03  0.24764002655E+03  0.00000000000E+00 0. -1.
         -1   -1    0    0    0  501 -0.00000000000E+00 -0.00000000000E+00 -0.94181915431E+02  0.94181915431E+02  0.00000000000E+00 0.  1.
         25    2    1    2    0    0 -0.44090785971E+01  0.10295688649E+03  0.81695769761E+02  0.18149747644E+03  0.12509026624E+03 0.  0.
          5    1    3    3  502    0 -0.40785908337E+02 -0.31904506179E+01  0.50169951001E+02  0.64870375962E+02  0.41800000000E+01 0.  1.
         -5    1    3    3    0  502  0.36376829740E+02  0.10614733711E+03  0.31525818760E+02  0.11662710048E+03  0.41800000000E+01 0.  1.
        -11    1    1    2    0    0  0.23479885072E+02 -0.11005698126E+03  0.34220078365E+02  0.11762167270E+03  0.00000000000E+00 0.  1.
         11    1    1    2    0    0 -0.19070806475E+02  0.71000947621E+01  0.37542262990E+02  0.42702792832E+02  0.00000000000E+00 0. -1.
</event>
<event>
 7    1  0.2420569E-009  0.1676108E+03  0.7561462E-02  0.1180363E+00
          2   -1    0    0  501    0  0.00000000000E+00  0.00000000000E+00  0.68174785375E+03  0.68174785375E+03  0.00000000000E+00 0. -1.
         -2   -1    0    0    0  501 -0.00000000000E+00 -0.00000000000E+00 -0.43807231909E+02  0.43807231909E+02  0.00000000000E+00 0.  1.
         25    2    1    2    0    0 -0.12106162898E+03  0.60345304454E+02  0.36930372848E+03  0.41271111240E+03  0.12509094552E+03 0.  0.
          5    1    3    3  502    0 -0.13035862244E+03  0.83170140920E+02  0.27901521108E+03  0.31902602276E+03  0.41800000000E+01 0. -1.
         -5    1    3    3    0  502  0.92969934579E+01 -0.22824836466E+02  0.90288517397E+02  0.93685089640E+02  0.41800000000E+01 0. -1.
        -11    1    1    2    0    0  0.31921952062E+02  0.18185646818E+02  0.35015460342E+02  0.50752450548E+02  0.00000000000E+00 0. -1.
         11    1    1    2    0    0  0.89139676921E+02 -0.78530951272E+02  0.23362143301E+03  0.26209152270E+03  0.00000000000E+00 0.  1.
</event>
<event>
 7    1  0.2420569E-009  0.1135708E+03  0.7561462E-02  0.1254097E+00
         -2   -1    0    0    0  501 -0.00000000000E+00  0.00000000000E+00  0.15554133696E+02  0.15554133696E+02  0.00000000000E+00 0.  1.
          2   -1    0    0  501    0  0.00000000000E+00 -0.00000000000E+00 -0.88869271613E+03  0.88869271613E+03  0.00000000000E+00 0. -1.
         25    2    1    2    0    0 -0.37458237524E+02  0.22701138305E+02 -0.53460588397E+03  0.55079009793E+03  0.12509124492E+03 0.  0.
          5    1    3    3  502    0 -0.70216850495E+02 -0.23588013767E+02 -0.34261807844E+03  0.35055872626E+03  0.41800000000E+01 0.  1.
         -5    1    3    3    0  502  0.32758612970E+02  0.46289152072E+02 -0.19198780554E+03  0.20023137166E+03  0.41800000000E+01 0.  1.
        -11    1    1    2    0    0  0.65345568987E+02 -0.18270499148E+02 -0.28463157662E+03  0.29260722639E+03  0.00000000000E+00 0. -1.
         11    1    1    2    0    0 -0.27887331462E+02 -0.44306391568E+01 -0.53901121837E+02  0.60849525510E+02  0.00000000000E+00 0.  1.
</event>
<event>
 7    1  0.2420569E-009  0.2179316E+03  0.7561462E-02  0.1135435E+00
         -2   -1    0    0    0  501 -0.00000000000E+00  0.00000000000E+00  0.13859896905E+03  0.13859896905E+03  0.00000000000E+00 0. -1.
          2   -1    0    0  501    0  0.00000000000E+00 -0.00000000000E+00 -0.44985495630E+03  0.44985495630E+03  0.00000000000E+00 0.  1.
         25    2    1    2    0    0 -0.12005137648E+03  0.17119408287E+03 -0.63756813026E+02  0.25185908686E+03  0.12509325090E+03 0.  0.
          5    1    3    3  502    0 -0.91829183276E+02  0.72082185909E+02 -0.87587710174E+02  0.14600520470E+03  0.41800000000E+01 0.  1.
         -5    1    3    3    0  502 -0.28222193204E+02  0.99111896964E+02  0.23830897149E+02  0.10585388216E+03  0.41800000000E+01 0.  1.
        -11    1    1    2    0    0  0.94782481967E+02 -0.89361389354E+02 -0.93381550663E+02  0.16027879086E+03  0.00000000000E+00 0. -1.
         11    1    1    2    0    0  0.25268894513E+02 -0.81832693519E+02 -0.15411762356E+03  0.17631604763E+03  0.00000000000E+00 0.  1.
</event>
<event>
 7    1  0.2420569E-009  0.7163803E+02  0.7561462E-02  0.1354610E+00
         -4   -1    0    0    0  501 -0.00000000000E+00  0.00000000000E+00  0.18353577504E+03  0.18353577504E+03  0.00000000000E+00 0.  1.
          4   -1    0    0  501    0  0.00000000000E+00 -0.00000000000E+00 -0.76019219771E+02  0.76019219771E+02  0.00000000000E+00 0. -1.
         25    2    1    2    0    0 -0.42064694018E+02 -0.98014289527E+00  0.37581676777E+02  0.13722431800E+03  0.12509089439E+03 0.  0.
          5    1    3    3  502    0  0.62069333591E+01  0.75354391964E+01 -0.42188399356E+02  0.43504509029E+02  0.41800000000E+01 0. -1.
         -5    1    3    3    0  502 -0.48271627377E+02 -0.85155820916E+01  0.79770076133E+02  0.93719808974E+02  0.41800000000E+01 0. -1.
        -11    1    1    2    0    0 -0.17710046419E+02  0.13648298957E+02  0.55084811968E+02  0.59449628411E+02  0.00000000000E+00 0.  1.
         11    1    1    2    0    0  0.59774740436E+02 -0.12668156061E+02  0.14850066529E+02  0.62881048402E+02  0.00000000000E+00 0. -1.
</event>
<event>
 7    1  0.2420569E-009  0.1151363E+03  0.7561462E-02  0.1251343E+00
          1   -1    0    0  501    0  0.00000000000E+00  0.00000000000E+00  0.88702865050E+03  0.88702865050E+03  0.00000000000E+00 0. -1.
         -1   -1    0    0    0  501 -0.00000000000E+00 -0.00000000000E+00 -0.41090138583E+02  0.41090138583E+02  0.00000000000E+00 0.  1.
         25    2    1    2    0    0 -0.92640118736E+02  0.50276237722E+02  0.71946987675E+03  0.73783156553E+03  0.12509445977E+03 0.  0.
          5    1    3    3  502    0 -0.54768508086E+01  0.10877656746E+02  0.89612293865E+00  0.12907158765E+02  0.41800000000E+01 0.  1.
         -5    1    3    3    0  502 -0.87163267928E+02  0.39398580977E+02  0.71857375381E+03  0.72492440676E+03  0.41800000000E+01 0.  1.
        -11    1    1    2    0    0  0.29792311726E+02 -0.50696243468E+02  0.11092103975E+03  0.12554349047E+03  0.00000000000E+00 0. -1.
         11    1    1    2    0    0  0.62847807010E+02  0.42000574585E+00  0.15547595421E+02  0.64743733088E+02  0.00000000000E+00 0.  1.
</event>
<event>
 7    1  0.2420569E-009  0.1203444E+03  0.7561462E-02  0.1242530E+00
         -3   -1    0    0    0  501 -0.00000000000E+00  0.00000000000E+00  0.29836450715E+02  0.29836450715E+02  0.00000000000E+00 0.  1.
          3   -1    0    0  501    0  0.00000000000E+00 -0.00000000000E+00 -0.62301855556E+03  0.62301855556E+03  0.00000000000E+00 0. -1.
         25    2    1    2    0    0 -0.75096338932E+02  0.26281078342E+02 -0.38583714253E+03  0.41333575148E+03  0.12508392260E+03 0.  0.
          5    1    3    3  502    0 -0.29747917012E+02  0.64274072981E+02 -0.10785914963E+03  0.12910136940E+03  0.41800000000E+01 0. -1.
         -5    1    3    3    0  502 -0.45348421920E+02 -0.37992994638E+02 -0.27797799291E+03  0.28423438208E+03  0.41800000000E+01 0. -1.
        -11    1    1    2    0    0 -0.14203522507E+02 -0.14606123505E+02 -0.10214060301E+02  0.22790478786E+02  0.00000000000E+00 0.  1.
         11    1    1    2    0    0  0.89299861438E+02 -0.11674954837E+02 -0.19713090201E+03  0.21672877601E+03  0.00000000000E+00 0. -1.
</event>
<event>
 7    1  0.2420569E-009  0.1307605E+03  0.7561462E-02  0.1226332E+00
          1   -1    0    0  501    0  0.00000000000E+00  0.00000000000E+00  0.76766756698E+02  0.76766756698E+02  0.00000000000E+00 0. -1.
         -1   -1    0    0    0  501 -0.00000000000E+00 -0.00000000000E+00 -0.37846357771E+03  0.37846357771E+03  0.00000000000E+00 0.  1.
         25    2    1    2    0    0  0.97269606605E+02  0.67002856923E+02 -0.85275445609E+02  0.19201067262E+03  0.12508172357E+03 0.  0.
          5    1    3    3  502    0  0.13963741083E+02  0.54811596152E+02 -0.91317810887E+02  0.10749749822E+03  0.41800000000E+01 0.  1.
         -5    1    3    3    0  502  0.83305865522E+02  0.12191260770E+02  0.60423652777E+01  0.84513174403E+02  0.41800000000E+01 0.  1.
        -11    1    1    2    0    0 -0.28055154059E+02 -0.33241208573E+02 -0.12525372962E+02  0.45265379535E+02  0.00000000000E+00 0. -1.
         11    1    1    2    0    0 -0.69214452546E+02 -0.33761648350E+02 -0.20389600244E+03  0.21795428225E+03  0.00000000000E+00 0.  1.
</event>
<event>
 7    1  0.2562823E-009  0.1259691E+03  0.7561462E-02  0.1233563E+00
         -2   -1    0    0    0  501 -0.00000000000E+00  0.00000000000E+00  0.55891366021E+02  0.55891366021E+02  0.00000000000E+00 0.  1.
          2   -1    0    0  501    0  0.00000000000E+00 -0.00000000000E+00 -0.49905367762E+03  0.49905367762E+03  0.00000000000E+00 0. -1.
         25    2    1    2    0    0 -0.26957271469E+02 -0.11008606734E+03 -0.14385485744E+03  0.22178191602E+03  0.12508941425E+03 0.  0.
          5    1    3    3  502    0 -0.20141157280E+01 -0.98280306331E+02 -0.27548832179E+02  0.10217380207E+03  0.41800000000E+01 0. -1.
         -5    1    3    3    0  502 -0.24943155741E+02 -0.11805761009E+02 -0.11630602526E+03  0.11960811395E+03  0.41800000000E+01 0. -1.
        -11    1    1    2    0    0 -0.55583132291E+01  0.83367592400E+02 -0.10416539568E+03  0.13353456468E+03  0.00000000000E+00 0.  1.
         11    1    1    2    0    0  0.32515584698E+02  0.26718474940E+02 -0.19514205848E+03  0.19962856294E+03  0.00000000000E+00 0. -1.
</event>
<event>
 7    1  0.2420569E-009  0.2586661E+03  0.7561462E-02  0.1107947E+00
         -2   -1    0    0    0  501 -0.00000000000E+00  0.00000000000E+00  0.32482057538E+02  0.32482057538E+02  0.00000000000E+00 0. -1.
          2   -1    0    0  501    0  0.00000000000E+00 -0.00000000000E+00 -0.22007443644E+04  0.22007443644E+04  0.00000000000E+00 0.  1.
         25    2    1    2    0    0  0.23656795108E+03 -0.51400918335E+02 -0.11788590499E+04  0.12099432913E+04  0.12509060225E+03 0.  0.
          5    1    3    3  502    0  0.85674054245E+02 -0.81178927490E+02 -0.47464635731E+03  0.48911828707E+03  0.41800000000E+01 0. -1.
         -5    1    3    3    0  502  0.15089389684E+03  0.29778009156E+02 -0.70421269261E+03  0.72082500426E+03  0.41800000000E+01 0. -1.
        -11    1    1    2    0    0 -0.21644918740E+02 -0.68350448956E+01 -0.26149125974E+02  0.34626538019E+02  0.00000000000E+00 0. -1.
         11    1    1    2    0    0 -0.21492303234E+03  0.58235963231E+02 -0.96325413102E+03  0.98865659264E+03  0.00000000000E+00 0.  1.
</event>
<event>
 7    1  0.2420569E-009  0.1502588E+03  0.7561462E-02  0.1200155E+00
         -2   -1    0    0    0  501 -0.00000000000E+00  0.00000000000E+00  0.22000964773E+02  0.22000964773E+02  0.00000000000E+00 0.  1.
          2   -1    0    0  501    0  0.00000000000E+00 -0.00000000000E+00 -0.15592972419E+04  0.15592972419E+04  0.00000000000E+00 0. -1.
         25    2    1    2    0    0 -0.12432828970E+03 -0.57177373343E+02 -0.10711218524E+04  0.10870494209E+04  0.12509054756E+03 0.  0.
          5    1    3    3  502    0 -0.22474560076E+02 -0.10400251956E+02 -0.67196054396E+03  0.67242971092E+03  0.41800000000E+01 0.  1.
         -5    1    3    3    0  502 -0.10185372962E+03 -0.46777121386E+02 -0.39916130842E+03  0.41461970993E+03  0.41800000000E+01 0.  1.
        -11    1    1    2    0    0 -0.11641995709E+02  0.18536448013E+02 -0.82821189266E+02  0.85664959934E+02  0.00000000000E+00 0. -1.
         11    1    1    2    0    0  0.13597028541E+03  0.38640925330E+02 -0.38335323551E+03  0.40858382592E+03  0.00000000000E+00 0.  1.
</event>
<event>
 7    1  0.2420569E-009  0.8949358E+02  0.7561462E-02  0.1304083E+00
         -1   -1    0    0    0  501 -0.00000000000E+00  0.00000000000E+00  0.11696809387E+03  0.11696809387E+03  0.00000000000E+00 0.  1.
          1   -1    0    0  501    0  0.00000000000E+00 -0.00000000000E+00 -0.20382080157E+03  0.20382080157E+03  0.00000000000E+00 0. -1.
         25    2    1    2    0    0 -0.34295784091E+02 -0.36230765260E+02  0.54867282811E+02  0.14541849163E+03  0.12508896765E+03 0.  0.
          5    1    3    3  502    0 -0.22666658597E+02 -0.65659372645E+02 -0.12658407034E+02  0.70729331233E+02  0.41800000000E+01 0.  1.
         -5    1    3    3    0  502 -0.11629125495E+02  0.29428607385E+02  0.67525689845E+02  0.74689160401E+02  0.41800000000E+01 0.  1.
        -11    1    1    2    0    0  0.33110996352E+02 -0.73237241360E+01 -0.81545292340E+01  0.34877949505E+02  0.00000000000E+00 0.  1.
         11    1    1    2    0    0  0.11847877397E+01  0.43554489396E+02 -0.13356546128E+03  0.14049245430E+03  0.00000000000E+00 0. -1.
</event>
<event>
 7    1  0.2420569E-009  0.8134768E+02  0.7561462E-02  0.1325270E+00
         -2   -1    0    0    0  501 -0.00000000000E+00  0.00000000000E+00  0.41945450830E+03  0.41945450830E+03  0.00000000000E+00 0. -1.
          2   -1    0    0  501    0  0.00000000000E+00 -0.00000000000E+00 -0.33473645342E+02  0.33473645342E+02  0.00000000000E+00 0.  1.
         25    2    1    2    0    0 -0.28828286513E+02  0.26664506117E+02  0.20552445276E+03  0.24377838597E+03  0.12508211219E+03 0.  0.
          5    1    3    3  502    0  0.87333283752E+01  0.35896182318E+02  0.20123193110E+03  0.20463765398E+03  0.41800000000E+01 0. -1.
         -5    1    3    3    0  502 -0.37561614888E+02 -0.92316762012E+01  0.42925216612E+01  0.39140731990E+02  0.41800000000E+01 0. -1.
        -11    1    1    2    0    0 -0.25248560305E+02  0.21448315439E+01  0.86999119844E+01  0.26791389817E+02  0.00000000000E+00 0.  1.
         11    1    1    2    0    0  0.54076846818E+02 -0.28809337661E+02  0.17175649821E+03  0.18235837786E+03  0.00000000000E+00 0. -1.
</event>
<event>
 7    1  0.2420569E-009  0.6256371E+02  0.7561462E-02  0.1387377E+00
         -2   -1    0    0    0  501 -0.00000000000E+00  0.00000000000E+00  0.15226958891E+03  0.15226958891E+03  0.00000000000E+00 0.  1.
          2   -1    0    0  501    0  0.00000000000E+00 -0.00000000000E+00 -0.88237635820E+02  0.88237635820E+02  0.00000000000E+00 0. -1.
         25    2    1    2    0    0  0.40943816459E+02  0.23861539722E+01  0.26991843232E+02  0.13438219219E+03  0.12509166295E+03 0.  0.
          5    1    3    3  502    0  0.42862870016E+02  0.31052220733E+02 -0.36593210225E+02  0.64482567202E+02  0.41800000000E+01 0.  1.
         -5    1    3    3    0  502 -0.19190535573E+01 -0.28666066761E+02  0.63585053457E+02  0.69899624986E+02  0.41800000000E+01 0.  1.
        -11    1    1    2    0    0 -0.27726937566E+02  0.45130057116E+01 -0.27842234896E+02  0.39551742456E+02  0.00000000000E+00 0. -1.
         11    1    1    2    0    0 -0.13216878893E+02 -0.68991596838E+01  0.64882344756E+02  0.66573290088E+02  0.00000000000E+00 0.  1.
</event>
<event>
 7    1  0.2420569E-009  0.9408097E+02  0.7561462E-02  0.1293259E+00
          2   -1    0    0  501    0  0.00000000000E+00  0.00000000000E+00  0.48999140723E+03  0.48999140723E+03  0.00000000000E+00 0. -1.
         -2   -1    0    0    0  501 -0.00000000000E+00 -0.00000000000E+00 -0.29131779325E+02  0.29131779325E+02  0.00000000000E+00 0.  1.
         25    2    1    2    0    0  0.47667316282E+02 -0.74482761399E+01  0.23167344925E+03  0.26767125415E+03  0.12509062057E+03 0.  0.
          5    1    3    3  502    0  0.77837736357E+02  0.46923509765E+01  0.77392705367E+02  0.10994468883E+03  0.41800000000E+01 0.  1.
         -5    1    3    3    0  502 -0.30170420075E+02 -0.12140627116E+02  0.15428074388E+03  0.15772656532E+03  0.41800000000E+01 0.  1.
        -11    1    1    2    0    0 -0.18167928496E+02 -0.26612396862E+02  0.18690291516E+03  0.18966020401E+03  0.00000000000E+00 0. -1.
         11    1    1    2    0    0 -0.29499387787E+02  0.34060673002E+02  0.42283263504E+02  0.61791728392E+02  0.00000000000E+00 0.  1.
</event>
<event>
 7    1  0.2420569E-009  0.7365484E+02  0.7561462E-02  0.1348088E+00
         -2   -1    0    0    0  501 -0.00000000000E+00  0.00000000000E+00  0.33965469298E+03  0.33965469298E+03  0.00000000000E+00 0.  1.
          2   -1    0    0  501    0  0.00000000000E+00 -0.00000000000E+00 -0.41906316028E+02  0.41906316028E+02  0.00000000000E+00 0. -1.
         25    2    1    2    0    0 -0.17721246489E+02 -0.39516446470E+02  0.14693883729E+03  0.19777415742E+03  0.12509197944E+03 0.  0.
          5    1    3    3  502    0  0.31592191353E+02 -0.15944384448E+02 -0.52458877387E+01  0.36017796825E+02  0.41800000000E+01 0. -1.
         -5    1    3    3    0  502 -0.49313437842E+02 -0.23572062022E+02  0.15218472503E+03  0.16175636059E+03  0.41800000000E+01 0. -1.
        -11    1    1    2    0    0 -0.99600482375E+01  0.21869745565E+02 -0.50092718245E+01  0.24547528107E+02  0.00000000000E+00 0. -1.
         11    1    1    2    0    0  0.27681294726E+02  0.17646700905E+02  0.15581881149E+03  0.15923932349E+03  0.00000000000E+00 0.  1.
</event>
<event>
 7    1  0.2420569E-009  0.7989454E+02  0.7561462E-02  0.1329351E+00
         -1   -1    0    0    0  501 -0.00000000000E+00  0.00000000000E+00  0.28267675224E+02  0.28267675224E+02  0.00000000000E+00 0. -1.
          1   -1    0    0  501    0  0.00000000000E+00 -0.00000000000E+00 -0.52279997762E+03  0.52279997762E+03  0.00000000000E+00 0.  1.
         25    2    1    2    0    0 -0.22966932144E+02 -0.22942505438E+02 -0.18469668733E+03  0.22541994389E+03  0.12508975284E+03 0.  0.
          5    1    3    3  502    0  0.93038183741E+01  0.17500168881E+02 -0.17037116196E+03  0.17157104119E+03  0.41800000000E+01 0. -1.
         -5    1    3    3    0  502 -0.32270750518E+02 -0.40442674320E+02 -0.14325525370E+02  0.53848902703E+02  0.41800000000E+01 0. -1.
        -11    1    1    2    0    0 -0.28204031877E+02  0.23095824979E+02 -0.56813551873E+02  0.67503068241E+02  0.00000000000E+00 0. -1.
         11    1    1    2    0    0  0.51170964021E+02 -0.15331954076E+00 -0.25302206320E+03  0.25814464072E+03  0.00000000000E+00 0.  1.
</event>
<event>
 7    1  0.2420569E-009  0.2159285E+03  0.7561462E-02  0.1136955E+00
          1   -1    0    0  501    0  0.00000000000E+00  0.00000000000E+00  0.19585086182E+03  0.19585086182E+03  0.00000000000E+00 0. -1.
         -1   -1    0    0    0  501 -0.00000000000E+00 -0.00000000000E+00 -0.25774654843E+03  0.25774654843E+03  0.00000000000E+00 0.  1.
         25    2    1    2    0    0  0.14184806715E+03 -0.12501925941E+03  0.25347034370E+02  0.22812471691E+03  0.12509086671E+03 0.  0.
          5    1    3    3  502    0 -0.10173874719E+01 -0.73861085136E+02  0.17980264822E+02  0.76139722207E+02  0.41800000000E+01 0. -1.
         -5    1    3    3    0  502  0.14286545462E+03 -0.51158174272E+02  0.73667695485E+01  0.15198499470E+03  0.41800000000E+01 0. -1.
        -11    1    1    2    0    0 -0.20861126784E+02 -0.11360199886E+02 -0.20345255012E+02  0.31275711881E+02  0.00000000000E+00 0.  1.
         11    1    1    2    0    0 -0.12098694037E+03  0.13637945929E+03 -0.66897465962E+02  0.19419698146E+03  0.00000000000E+00 0. -1.
</event>
<event>
 7    1  0.2420569E-009  0.8855631E+02  0.7561462E-02  0.1306386E+00
          2   -1    0    0  501    0  0.00000000000E+00  0.00000000000E+00  0.62657525091E+02  0.62657525091E+02  0.00000000000E+00 0. -1.
         -2   -1    0    0    0  501 -0.00000000000E+00 -0.00000000000E+00 -0.18926977175E+03  0.18926977175E+03  0.00000000000E+00 0.  1.
         25    2    1    2    0    0  0.84064947361E+01  0.13786912762E+02 -0.88197477282E+02  0.15390667800E+03  0.12509085664E+03 0.  0.
          5    1    3    3  502    0 -0.55370752285E+02 -0.12654818426E+02 -0.40742855381E+02  0.70025119083E+02  0.41800000000E+01 0.  1.
         -5    1    3    3    0  502  0.63777247021E+02  0.26441731188E+02 -0.47454621902E+02  0.83881558913E+02  0.41800000000E+01 0.  1.
        -11    1    1    2    0    0  0.13783147590E+02  0.11065800904E+02 -0.57133395803E+02  0.59805117031E+02  0.00000000000E+00 0.  1.
         11    1    1    2    0    0 -0.22189642326E+02 -0.24852713666E+02  0.18718626431E+02  0.38215501810E+02  0.00000000000E+00 0. -1.
</event>
<event>
 7    1  0.3013759E-009  0.1310085E+03  0.7561462E-02  0.1225967E+00
          1   -1    0    0  501    0  0.00000000000E+00  0.00000000000E+00  0.41092886158E+03  0.41092886158E+03  0.00000000000E+00 0. -1.
         -1   -1    0    0    0  501 -0.00000000000E+00 -0.00000000000E+00 -0.57355854617E+02  0.57355854617E+02  0.00000000000E+00 0.  1.
         25    2    1    2    0    0 -0.52068630629E+02 -0.86690662766E+02  0.13192344925E+03  0.20803464782E+03  0.12509278526E+03 0.  0.
          5    1    3    3  502    0 -0.93072450866E+02 -0.51290887878E+02  0.91826608605E+02  0.14050919805E+03  0.41800000000E+01 0.  1.
         -5    1    3    3    0  502  0.41003820237E+02 -0.35399774888E+02  0.40096840649E+02  0.67525449767E+02  0.41800000000E+01 0.  1.
        -11    1    1    2    0    0  0.41021843408E+02  0.62775934646E+02  0.22156016429E+03  0.23390706703E+03  0.00000000000E+00 0. -1.
         11    1    1    2    0    0  0.11046787221E+02  0.23914728120E+02  0.89393423507E-01  0.26343001350E+02  0.00000000000E+00 0.  1.
</event>
<event>
 7    1  0.2420569E-009  0.1189969E+03  0.7561462E-02  0.1244761E+00
         -3   -1    0    0    0  501 -0.00000000000E+00  0.00000000000E+00  0.15207840229E+03  0.15207840229E+03  0.00000000000E+00 0. -1.
          3   -1    0    0  501    0  0.00000000000E+00 -0.00000000000E+00 -0.11267859095E+03  0.11267859095E+03  0.00000000000E+00 0.  1.
         25    2    1    2    0    0  0.25016417256E+00 -0.71835640451E+02  0.42860723563E+02  0.15048837946E+03  0.12509711790E+03 0.  0.
          5    1    3    3  502    0 -0.40865147433E+02 -0.13292555833E+00 -0.20829889950E+02  0.46057948926E+02  0.41800000000E+01 0. -1.
         -5    1    3    3    0  502  0.41115311606E+02 -0.71702714893E+02  0.63690613513E+02  0.10443043053E+03  0.41800000000E+01 0. -1.
        -11    1    1    2    0    0  0.18234701486E+02  0.87835120500E+02 -0.42496288121E+01  0.89808530088E+02  0.00000000000E+00 0.  1.
         11    1    1    2    0    0 -0.18484865658E+02 -0.15999480049E+02  0.78871659355E+00  0.24460083690E+02  0.00000000000E+00 0. -1.
</event>
<event>
 7    1  0.2420569E-009  0.7041417E+02  0.7561462E-02  0.1358690E+00
         -2   -1    0    0    0  501 -0.00000000000E+00  0.00000000000E+00  0.87623032348E+02  0.87623032348E+02  0.00000000000E+00 0.  1.
          2   -1    0    0  501    0  0.00000000000E+00 -0.00000000000E+00 -0.14961956168E+03  0.14961956168E+03  0.00000000000E+00 0. -1.
         25    2    1    2    0    0  0.26390406408E+02  0.18175807116E+02 -0.15742055537E+02  0.13008326537E+03  0.12508808937E+03 0.  0.
          5    1    3    3  502    0 -0.13967421996E+02  0.40176570599E+02 -0.54886213561E+02  0.69564463208E+02  0.41800000000E+01 0. -1.
         -5    1    3    3    0  502  0.40357828403E+02 -0.22000763483E+02  0.39144158024E+02  0.60518802158E+02  0.41800000000E+01 0. -1.
        -11    1    1    2    0    0 -0.31770506868E+02  0.12313620842E+01  0.20234622143E+02  0.37687150231E+02  0.00000000000E+00 0.  1.
         11    1    1    2    0    0  0.53801004604E+01 -0.19407169201E+02 -0.66489095934E+02  0.69472178427E+02  0.00000000000E+00 0. -1.
</event>
<event>
 7    1  0.2420569E-009  0.3318045E+03  0.7561462E-02  0.1070341E+00
          2   -1    0    0  501    0  0.00000000000E+00  0.00000000000E+00  0.42132771794E+03  0.42132771794E+03  0.00000000000E+00 0. -1.
         -2   -1    0    0    0  501 -0.00000000000E+00 -0.00000000000E+00 -0.38660650619E+03  0.38660650619E+03  0.00000000000E+00 0.  1.
         25    2    1    2    0    0  0.20183470998E+03 -0.23944141250E+03  0.24733672712E+03  0.41819975522E+03  0.12508452546E+03 0.  0.
          5    1    3    3  502    0  0.13330633586E+02 -0.10373659969E+03  0.69650756840E+02  0.12572862934E+03  0.41800000000E+01 0.  1.
         -5    1    3    3    0  502  0.18850407639E+03 -0.13570481280E+03  0.17768597028E+03  0.29247112587E+03  0.41800000000E+01 0.  1.
        -11    1    1    2    0    0 -0.50056970834E+02  0.13058182038E+03 -0.90222505448E+02  0.16642539660E+03  0.00000000000E+00 0. -1.
         11    1    1    2    0    0 -0.15177773915E+03  0.10885959212E+03 -0.12239300993E+03  0.22330907231E+03  0.00000000000E+00 0.  1.
</event>
<event>
 7    1  0.2420569E-009  0.8582524E+02  0.7561462E-02  0.1313288E+00
         -1   -1    0    0    0  501 -0.00000000000E+00  0.00000000000E+00  0.14178777879E+02  0.14178777879E+02  0.00000000000E+00 0.  1.
          1   -1    0    0  501    0  0.00000000000E+00 -0.00000000000E+00 -0.11772478791E+04  0.11772478791E+04  0.00000000000E+00 0. -1.
         25    2    1    2    0    0 -0.31637705037E+02  0.61835972824E+01 -0.91863877934E+03  0.92767617000E+03  0.12508672282E+03 0.  0.
          5    1    3    3  502    0 -0.57623598737E+02 -0.17444851892E+02 -0.21956817594E+03  0.22771134859E+03  0.41800000000E+01 0.  1.
         -5    1    3    3    0  502  0.25985893700E+02  0.23628449175E+02 -0.69907060340E+03  0.69996482141E+03  0.41800000000E+01 0.  1.
        -11    1    1    2    0    0 -0.49453917760E+01 -0.31213508711E+02 -0.26161969453E+02  0.41026682434E+02  0.00000000000E+00 0.  1.
         11    1    1    2    0    0  0.36583096813E+02  0.25029911429E+02 -0.21826835240E+03  0.22272380451E+03  0.00000000000E+00 0. -1.
</event>
<event>
 7    1  0.2420569E-009  0.1482663E+03  0.7561462E-02  0.1202620E+00
          2   -1    0    0  501    0  0.00000000000E+00  0.00000000000E+00  0.12269200606E+04  0.12269200606E+04  0.00000000000E+00 0. -1.
         -2   -1    0    0    0  501 -0.00000000000E+00 -0.00000000000E+00 -0.21978822669E+02  0.21978822669E+02  0.00000000000E+00 0.  1.
         25    2    1    2    0    0  0.10308653530E+03  0.50535935050E+02  0.63421296408E+03  0.65654750082E+03  0.12509125683E+03 0.  0.
          5    1    3    3  502    0  0.26144255301E+02  0.61052891168E+02  0.12672500890E+03  0.14313517348E+03  0.41800000000E+01 0. -1.
         -5    1    3    3    0  502  0.76942279999E+02 -0.10516956118E+02  0.50748795518E+03  0.51341232735E+03  0.41800000000E+01 0. -1.
        -11    1    1    2    0    0 -0.79043917532E+02 -0.81153663768E+02  0.34039434783E+03  0.35875084679E+03  0.00000000000E+00 0. -1.
         11    1    1    2    0    0 -0.24042617768E+02  0.30617728719E+02  0.23033392599E+03  0.23360053562E+03  0.00000000000E+00 0.  1.
</event>
<event>
 7    1  0.2420569E-009  0.1011973E+03  0.7561462E-02  0.1277798E+00
          1   -1    0    0  501    0  0.00000000000E+00  0.00000000000E+00  0.51699139705E+03  0.51699139705E+03  0.00000000000E+00 0. -1.
         -1   -1    0    0    0  501 -0.00000000000E+00 -0.00000000000E+00 -0.27622687037E+02  0.27622687037E+02  0.00000000000E+00 0.  1.
         25    2    1    2    0    0  0.21015970747E+01 -0.68987779460E+00  0.16246171804E+03  0.20505307085E+03  0.12509220357E+03 0.  0.
          5    1    3    3  502    0  0.12402444880E+02 -0.59275619982E+02  0.53840059117E+02  0.81139658176E+02  0.41800000000E+01 0.  1.
         -5    1    3    3    0  502 -0.10300847805E+02  0.58585742187E+02  0.10862165893E+03  0.12391341268E+03  0.41800000000E+01 0.  1.
        -11    1    1    2    0    0 -0.12241342237E+02  0.39808848324E+02  0.89208889686E+02  0.98452124729E+02  0.00000000000E+00 0.  1.
         11    1    1    2    0    0  0.10139745162E+02 -0.39118970530E+02  0.23769810229E+03  0.24110888851E+03  0.00000000000E+00 0. -1.
</event>
<event>
 7    1  0.2420569E-009  0.1030507E+03  0.7561462E-02  0.1274008E+00
          1   -1    0    0  501    0  0.00000000000E+00  0.00000000000E+00  0.91038105521E+03  0.91038105521E+03  0.00000000000E+00 0. -1.
         -1   -1    0    0    0  501 -0.00000000000E+00 -0.00000000000E+00 -0.18452565909E+02  0.18452565909E+02  0.00000000000E+00 0.  1.
         25    2    1    2    0    0  0.57162687365E+02 -0.25705225680E+02  0.37546872030E+03  0.40069017070E+03  0.12509005362E+03 0.  0.
          5    1    3    3  502    0  0.75993910940E+01 -0.42960127933E+02  0.34760226030E+02  0.55938082293E+02  0.41800000000E+01 0. -1.
         -5    1    3    3    0  502  0.49563296271E+02  0.17254902254E+02  0.34070849427E+03  0.34475208841E+03  0.41800000000E+01 0. -1.
        -11    1    1    2    0    0 -0.33219083910E+02 -0.32633300004E+02  0.25226053310E+03  0.25652254553E+03  0.00000000000E+00 0.  1.
         11    1    1    2    0    0 -0.23943603455E+02  0.58338525683E+02  0.26419923590E+03  0.27162090489E+03  0.00000000000E+00 0. -1.
</event>
<event>
 7    1  0.2420569E-009  0.8315925E+02  0.7561462E-02  0.1320318E+00
          2   -1    0    0  501    0  0.00000000000E+00  0.00000000000E+00  0.92109362216E+02  0.92109362216E+02  0.00000000000E+00 0. -1.
         -2   -1    0    0    0  501 -0.00000000000E+00 -0.00000000000E+00 -0.15718445057E+03  0.15718445057E+03  0.00000000000E+00 0.  1.
         25    2    1    2    0    0  0.36891065090E+02 -0.86123189593E+00  0.32719507674E+01  0.13045958854E+03  0.12508919288E+03 0.  0.
          5    1    3    3  502    0  0.23828674128E+02 -0.36263232224E+02 -0.49173809563E+02  0.65714257730E+02  0.41800000000E+01 0.  1.
         -5    1    3    3    0  502  0.13062390962E+02  0.35402000329E+02  0.52445760330E+02  0.64745330809E+02  0.41800000000E+01 0.  1.
        -11    1    1    2    0    0 -0.74497508923E+01 -0.36466259157E+02 -0.20796474613E+01  0.37277496949E+02  0.00000000000E+00 0. -1.
         11    1    1    2    0    0 -0.29441314197E+02  0.37327491053E+02 -0.66267391655E+02  0.81556727293E+02  0.00000000000E+00 0.  1.
</event>
<event>
 7    1  0.2420569E-009  0.7048446E+02  0.7561462E-02  0.1358453E+00
          1   -1    0    0  501    0  0.00000000000E+00  0.00000000000E+00  0.37914568297E+03  0.37914568297E+03  0.00000000000E+00 0. -1.
         -1   -1    0    0    0  501 -0.00000000000E+00 -0.00000000000E+00 -0.30880367612E+02  0.30880367612E+02  0.00000000000E+00 0.  1.
         25    2    1    2    0    0  0.95611340827E+01 -0.13226911338E+02  0.17702490704E+03  0.21737372780E+03  0.12508858204E+03 0.  0.
          5    1    3    3  502    0 -0.11152718866E+02 -0.30975804389E+02 -0.47421021421E+01  0.33523775568E+02  0.41800000000E+01 0.  1.
         -5    1    3    3    0  502  0.20713852949E+02  0.17748893051E+02  0.18176700918E+03  0.18384995223E+03  0.41800000000E+01 0.  1.
        -11    1    1    2    0    0  0.11897967671E+01  0.45835383221E+02  0.55839960427E+02  0.72252329733E+02  0.00000000000E+00 0. -1.
         11    1    1    2    0    0 -0.10750930850E+02 -0.32608471883E+02  0.11540044790E+03  0.12039999305E+03  0.00000000000E+00 0.  1.
</event>
<event>
 7    1  0.2420569E-009  0.1123700E+03  0.7561462E-02  0.1256243E+00
          2   -1    0    0  501    0  0.00000000000E+00  0.00000000000E+00  0.29334701139E+03  0.29334701139E+03  0.00000000000E+00 0. -1.
         -2   -1    0    0    0  501 -0.00000000000E+00 -0.00000000000E+00 -0.59853049988E+02  0.59853049988E+02  0.00000000000E+00 0.  1.
         25    2    1    2    0    0  0.72459138061E+02  0.61896515387E+01  0.98372116816E+02  0.17496456337E+03  0.12508751574E+03 0.  0.
          5    1    3    3  502    0  0.70628239106E+02 -0.26636633429E+02  0.48630916704E+01  0.75756058901E+02  0.41800000000E+01 0.  1.
         -5    1    3    3    0  502  0.18308989548E+01  0.32826284967E+02  0.93509025145E+02  0.99208504471E+02  0.41800000000E+01 0.  1.
        -11    1    1    2    0    0 -0.57344451115E+02  0.38335003121E+02  0.85851975974E+02  0.11012956150E+03  0.00000000000E+00 0. -1.
         11    1    1    2    0    0 -0.15114686946E+02 -0.44524654660E+02  0.49269868613E+02  0.68105936505E+02  0.00000000000E+00 0.  1.
</event>
<event>
 7    1  0.2420569E-009  0.1390415E+03  0.7561462E-02  0.1214625E+00
          3   -1    0    0  501    0  0.00000000000E+00  0.00000000000E+00  0.13755850025E+03  0.13755850025E+03  0.00000000000E+00 0. -1.
         -3   -1    0    0    0  501 -0.00000000000E+00 -0.00000000000E+00 -0.18087101665E+03  0.18087101665E+03  0.00000000000E+00 0.  1.
         25    2    1    2    0    0 -0.71649504928E+02  0.85662140410E+02 -0.48478178950E+02  0.17455489022E+03  0.12509045531E+03 0.  0.
          5    1    3    3  502    0 -0.89954122014E+02  0.31281070809E+02  0.57390281555E+01  0.95502137685E+02  0.41800000000E+01 0. -1.
         -5    1    3    3    0  502  0.18304617086E+02  0.54381069601E+02 -0.54217207105E+02  0.79052752539E+02  0.41800000000E+01 0. -1.
        -11    1    1    2    0    0  0.65457078339E+02 -0.35084143927E+02  0.37831813612E+02  0.83347299782E+02  0.00000000000E+00 0. -1.
         11    1    1    2    0    0  0.61924265896E+01 -0.50577996483E+02 -0.32666151067E+02  0.60527326893E+02  0.00000000000E+00 0.  1.
</event>
<event>
 7    1  0.2420569E-009  0.2396981E+03  0.7561462E-02  0.1119994E+00
         -2   -1    0    0    0  501 -0.00000000000E+00  0.00000000000E+00  0.35583314386E+03  0.35583314386E+03  0.00000000000E+00 0.  1.
          2   -1    0    0  501    0  0.00000000000E+00 -0.00000000000E+00 -0.22492450245E+03  0.22492450245E+03  0.00000000000E+00 0. -1.
         25    2    1    2    0    0 -0.11815593929E+03 -0.19905553421E+03  0.19102036660E+03  0.32514564705E+03  0.12508788772E+03 0.  0.
          5    1    3    3  502    0 -0.13848468805E+02  0.73393787153E+01  0.53842262086E+02  0.56232625358E+02  0.41800000000E+01 0.  1.
         -5    1    3    3    0  502 -0.10430747048E+03 -0.20639491292E+03  0.13717810452E+03  0.26891302170E+03  0.41800000000E+01 0.  1.
        -11    1    1    2    0    0  0.32993805580E+02  0.68092517553E+02  0.22442061874E+02  0.78922926292E+02  0.00000000000E+00 0.  1.
         11    1    1    2    0    0  0.85162133707E+02  0.13096301665E+03 -0.82553787065E+02  0.17668907297E+03  0.00000000000E+00 0. -1.
</event>
<event>
 7    1  0.2420569E-009  0.9143411E+02  0.7561462E-02  0.1299415E+00
          2   -1    0    0  501    0  0.00000000000E+00  0.00000000000E+00  0.76751169416E+02  0.76751169416E+02  0.00000000000E+00 0. -1.
         -2   -1    0    0    0  501 -0.00000000000E+00 -0.00000000000E+00 -0.17431082253E+03  0.17431082253E+03  0.00000000000E+00 0.  1.
         25    2    1    2    0    0  0.37105975846E+02  0.73310698377E+01 -0.67347684429E+02  0.14701408416E+03  0.12508729877E+03 0.  0.
          5    1    3    3  502    0 -0.25161168872E+02  0.20630237541E+02  0.20316424549E+02  0.38586534264E+02  0.41800000000E+01 0.  1.
         -5    1    3    3    0  502  0.62267144718E+02 -0.13299167704E+02 -0.87664108978E+02  0.10842754989E+03  0.41800000000E+01 0.  1.
        -11    1    1    2    0    0 -0.28592555304E+02 -0.41859213108E+02 -0.42778747258E+02  0.66330604986E+02  0.00000000000E+00 0.  1.
         11    1    1    2    0    0 -0.85134205420E+01  0.34528143270E+02  0.12566778573E+02  0.37717302803E+02  0.00000000000E+00 0. -1.
</event>
<event>
 7    1  0.2420569E-009  0.1891670E+03  0.7561462E-02  0.1159215E+00
         -1   -1    0    0    0  501 -0.00000000000E+00  0.00000000000E+00  0.39854156908E+02  0.39854156908E+02  0.00000000000E+00 0.  1.
          1   -1    0    0  501    0  0.00000000000E+00 -0.00000000000E+00 -0.10692227079E+04  0.10692227079E+04  0.00000000000E+00 0. -1.
         25    2    1    2    0    0  0.14458137386E+03  0.92555824385E+02 -0.43123264144E+03  0.48070704495E+03  0.12508923907E+03 0.  0.
          5    1    3    3  502    0  0.16374770228E+03  0.89452615732E+02 -0.34531633470E+03  0.39252506146E+03  0.41800000000E+01 0. -1.
         -5    1    3    3    0  502 -0.19166328422E+02  0.31032086535E+01 -0.85916306734E+02  0.88181983488E+02  0.41800000000E+01 0. -1.
        -11    1    1    2    0    0 -0.67735987356E+02 -0.38857175099E+02 -0.41869946303E+03  0.42591934023E+03  0.00000000000E+00 0. -1.
         11    1    1    2    0    0 -0.76845386503E+02 -0.53698649286E+02 -0.17943644657E+03  0.20245047967E+03  0.00000000000E+00 0.  1.
</event>
<event>
 7    1  0.2420569E-009  0.6807203E+02  0.7561462E-02  0.1366775E+00
         -2   -1    0    0    0  501 -0.00000000000E+00  0.00000000000E+00  0.39506398912E+02  0.39506398912E+02  0.00000000000E+00 0. -1.
          2   -1    0    0  501    0  0.00000000000E+00 -0.00000000000E+00 -0.53278666072E+03  0.53278666072E+03  0.00000000000E+00 0.  1.
         25    2    1    2    0    0 -0.35182710356E+01 -0.11667017144E+02 -0.45314573659E+03  0.47025259922E+03  0.12509177015E+03 0.  0.
          5    1    3    3  502    0 -0.31121475356E+02  0.14226652667E+02 -0.30904670051E+02  0.46298109091E+02  0.41800000000E+01 0.  1.
         -5    1    3    3    0  502  0.27603204320E+02 -0.25893669812E+02 -0.42224106654E+03  0.42395449013E+03  0.41800000000E+01 0.  1.
        -11    1    1    2    0    0 -0.28874475518E+02  0.11819936447E+02 -0.57401383207E+02  0.65332725552E+02  0.00000000000E+00 0.  1.
         11    1    1    2    0    0  0.32392746553E+02 -0.15291930291E+00  0.17266857993E+02  0.36707734860E+02  0.00000000000E+00 0. -1.
</event>
<event>
 7    1  0.2420569E-009  0.6800459E+02  0.7561462E-02  0.1367013E+00
          2   -1    0    0  501    0  0.00000000000E+00  0.00000000000E+00  0.13257463238E+04  0.13257463238E+04  0.00000000000E+00 0. -1.
         -2   -1    0    0    0  501 -0.00000000000E+00 -0.00000000000E+00 -0.96636943145E+01  0.96636943145E+01  0.00000000000E+00 0.  1.
         25    2    1    2    0    0  0.10064040904E+02 -0.27884902483E+02  0.85373686479E+03  0.86336212033E+03  0.12509461947E+03 0.  0.
          5    1    3    3  502    0  0.13550791187E+02 -0.19711511401E+01  0.82158637895E+03  0.82171111703E+03  0.41800000000E+01 0. -1.
         -5    1    3    3    0  502 -0.34867502839E+01 -0.25913751343E+02  0.32150485838E+02  0.41651003299E+02  0.41800000000E+01 0. -1.
        -11    1    1    2    0    0  0.27937171991E+02 -0.19796781913E+02  0.16534539536E+03  0.16885348063E+03  0.00000000000E+00 0. -1.
         11    1    1    2    0    0 -0.38001212894E+02  0.47681684396E+02  0.29700036935E+03  0.30319441717E+03  0.00000000000E+00 0.  1.
</event>
<event>
 7    1  0.2420569E-009  0.1003396E+03  0.7561462E-02  0.1279583E+00
          1   -1    0    0  501    0  0.00000000000E+00  0.00000000000E+00  0.18195900188E+02  0.18195900188E+02  0.00000000000E+00 0. -1.
         -1   -1    0    0    0  501 -0.00000000000E+00 -0.00000000000E+00 -0.74568111670E+03  0.74568111670E+03  0.00000000000E+00 0.  1.
         25    2    1    2    0    0  0.79497227520E+01 -0.44012699799E+02 -0.40093101954E+03  0.42236868003E+03  0.12509717664E+03 0.  0.
          5    1    3    3  502    0 -0.52207712974E+02 -0.34607073344E+02 -0.27950097581E+03  0.28646389423E+03  0.41800000000E+01 0. -1.
         -5    1    3    3    0  502  0.60157435726E+02 -0.94056264553E+01 -0.12143004373E+03  0.13590478579E+03  0.41800000000E+01 0. -1.
        -11    1    1    2    0    0 -0.22261272212E+02  0.54669830781E+02 -0.31446000688E+03  0.31995226295E+03  0.00000000000E+00 0.  1.
         11    1    1    2    0    0  0.14311549460E+02 -0.10657130982E+02 -0.12094190101E+02  0.21556073922E+02  0.00000000000E+00 0. -1.
</event>
<event>
 7    1  0.2420569E-009  0.1030645E+03  0.7561462E-02  0.1273981E+00
         -2   -1    0    0    0  501 -0.00000000000E+00  0.00000000000E+00  0.88829588845E+01  0.88829588845E+01  0.00000000000E+00 0.  1.
          2   -1    0    0  501    0  0.00000000000E+00 -0.00000000000E+00 -0.21957769112E+04  0.21957769112E+04  0.00000000000E+00 0. -1.
         25    2    1    2    0    0  0.48988529597E+02  0.14750088279E+02 -0.17663277450E+04  0.17714904801E+04  0.12508947565E+03 0.  0.
          5    1    3    3  502    0  0.76506292082E+02  0.16559555136E+02 -0.63517393751E+03  0.63999283971E+03  0.41800000000E+01 0. -1.
         -5    1    3    3    0  502 -0.27517762485E+02 -0.18094668574E+01 -0.11311538075E+04  0.11314976404E+04  0.41800000000E+01 0. -1.
        -11    1    1    2    0    0 -0.10105371172E+01 -0.43765994633E+02 -0.12801300070E+03  0.13529158074E+03  0.00000000000E+00 0.  1.
         11    1    1    2    0    0 -0.47977992479E+02  0.29015906354E+02 -0.29255320658E+03  0.29787780929E+03  0.00000000000E+00 0. -1.
</event>
<event>
 7    1  0.2420569E-009  0.9835013E+02  0.7561462E-02  0.1283804E+00
          1   -1    0    0  501    0  0.00000000000E+00  0.00000000000E+00  0.43865906189E+03  0.43865906189E+03  0.00000000000E+00 0. -1.
         -1   -1    0    0    0  501 -0.00000000000E+00 -0.00000000000E+00 -0.27449847148E+02  0.27449847148E+02  0.00000000000E+00 0.  1.
         25    2    1    2    0    0  0.16901802939E+00 -0.30701134725E+01  0.23163745508E+03  0.26327352255E+03  0.12509029905E+03 0.  0.
          5    1    3    3  502    0  0.54078327617E+02  0.28171045108E+02  0.93874824482E+02  0.11201798236E+03  0.41800000000E+01 0.  1.
         -5    1    3    3    0  502 -0.53909309588E+02 -0.31241158580E+02  0.13776263060E+03  0.15125554019E+03  0.41800000000E+01 0.  1.
        -11    1    1    2    0    0  0.14745698995E+02  0.34952194308E+02  0.27788532212E+02  0.47024398436E+02  0.00000000000E+00 0.  1.
         11    1    1    2    0    0 -0.14914717024E+02 -0.31882080835E+02  0.15178322745E+03  0.15581098805E+03  0.00000000000E+00 0. -1.
</event>
<event>
 7    1  0.2420569E-009  0.9933764E+02  0.7561462E-02  0.1281695E+00
         -1   -1    0    0    0  501 -0.00000000000E+00  0.00000000000E+00  0.20387113569E+02  0.20387113569E+02  0.00000000000E+00 0.  1.
          1   -1    0    0  501    0  0.00000000000E+00 -0.00000000000E+00 -0.59349740411E+03  0.59349740411E+03  0.00000000000E+00 0. -1.
         25    2    1    2    0    0  0.18016184899E+01 -0.21482933907E+02 -0.32238362515E+03  0.34647265391E+03  0.12508931155E+03 0.  0.
          5    1    3    3  502    0  0.31200397343E+02  0.41499599611E+02 -0.18849738577E+03  0.19556180201E+03  0.41800000000E+01 0.  1.
         -5    1    3    3    0  502 -0.29398778853E+02 -0.62982533518E+02 -0.13388623938E+03  0.15091085190E+03  0.41800000000E+01 0.  1.
        -11    1    1    2    0    0  0.26587959116E+02 -0.15156629983E+02 -0.33835780142E+02  0.45623491977E+02  0.00000000000E+00 0.  1.
         11    1    1    2    0    0 -0.28389577606E+02  0.36639563890E+02 -0.21689088524E+03  0.22178837179E+03  0.00000000000E+00 0. -1.
</event>
<event>
 7    1  0.2420569E-009  0.1590507E+03  0.7561462E-02  0.1189773E+00
          2   -1    0    0  501    0  0.00000000000E+00  0.00000000000E+00  0.12356588251E+03  0.12356588251E+03  0.00000000000E+00 0. -1.
         -2   -1    0    0    0  501 -0.00000000000E+00 -0.00000000000E+00 -0.32813839198E+03  0.32813839198E+03  0.00000000000E+00 0.  1.
         25    2    1    2    0    0 -0.10248416728E+03 -0.10631730145E+03 -0.19628274741E+03  0.27565173398E+03  0.12510231167E+03 0.  0.
          5    1    3    3  502    0 -0.65026354224E+02 -0.17761747152E+02 -0.15844410870E+03  0.17223795862E+03  0.41800000000E+01 0. -1.
         -5    1    3    3    0  502 -0.37457813052E+02 -0.88555554302E+02 -0.37838638707E+02  0.10341377537E+03  0.41800000000E+01 0. -1.
        -11    1    1    2    0    0  0.41048201586E+02  0.74678843056E+02  0.37554165297E+02  0.93124646495E+02  0.00000000000E+00 0. -1.
         11    1    1    2    0    0  0.61435965690E+02  0.31638458399E+02 -0.45843927357E+02  0.82927894014E+02  0.00000000000E+00 0.  1.
</event>
<event>
 7    1  0.2420569E-009  0.1592422E+03  0.7561462E-02  0.1189555E+00
          2   -1    0    0  501    0  0.00000000000E+00  0.00000000000E+00  0.33005574615E+03  0.33005574615E+03  0.00000000000E+00 0. -1.
         -2   -1    0    0    0  501 -0.00000000000E+00 -0.00000000000E+00 -0.10264397488E+03  0.10264397488E+03  0.00000000000E+00 0.  1.
         25    2    1    2    0    0  0.57066917835E+02 -0.98797871615E+02  0.12136846716E+02  0.16974298413E+03  0.12509086724E+03 0.  0.
          5    1    3    3  502    0 -0.24759945537E+02 -0.80591690618E+02  0.15127641142E+02  0.85757760151E+02  0.41800000000E+01 0. -1.
         -5    1    3    3    0  502  0.81826863372E+02 -0.18206180997E+02 -0.29907944263E+01  0.83985223981E+02  0.41800000000E+01 0. -1.
        -11    1    1    2    0    0  0.27494242243E+02  0.16095903419E+02  0.57927443651E+02  0.66110514983E+02  0.00000000000E+00 0.  1.
         11    1    1    2    0    0 -0.84561160079E+02  0.82701968197E+02  0.15734748090E+03  0.19684622192E+03  0.00000000000E+00 0. -1.
</event>
<event>
 7    1  0.2420569E-009  0.1039186E+03  0.7561462E-02  0.1272265E+00
          2   -1    0    0  501    0  0.00000000000E+00  0.00000000000E+00  0.31200453456E+03  0.31200453456E+03  0.00000000000E+00 0. -1.
         -2   -1    0    0    0  501 -0.00000000000E+00 -0.00000000000E+00 -0.52395671485E+02  0.52395671485E+02  0.00000000000E+00 0.  1.
         25    2    1    2    0    0 -0.85234573936E+01  0.63519439648E+02  0.11500239540E+03  0.18161018618E+03  0.12509732306E+03 0.  0.
          5    1    3    3  502    0 -0.53807295564E+02 -0.91896735628E+01  0.42393062044E+02  0.69241022996E+02  0.41800000000E+01 0.  1.
         -5    1    3    3    0  502  0.45283838170E+02  0.72709113211E+02  0.72609333360E+02  0.11236916318E+03  0.41800000000E+01 0.  1.
        -11    1    1    2    0    0  0.12574476947E+02 -0.20004282115E+02 -0.72933961519E+01  0.24728170188E+02  0.00000000000E+00 0.  1.
         11    1    1    2    0    0 -0.40510195533E+01 -0.43515157533E+02  0.15189986382E+03  0.15806184968E+03  0.00000000000E+00 0. -1.
</event>
<event>
 7    1  0.2420569E-009  0.1133771E+03  0.7561462E-02  0.1254441E+00
          2   -1    0    0  501    0  0.00000000000E+00  0.00000000000E+00  0.71789466478E+03  0.71789466478E+03  0.00000000000E+00 0.  1.
         -2   -1    0    0    0  501 -0.00000000000E+00 -0.00000000000E+00 -0.19957931561E+02  0.19957931561E+02  0.00000000000E+00 0. -1.
         25    2    1    2    0    0 -0.16297060646E+02 -0.49826343279E+02  0.37466795524E+03  0.39845666454E+03  0.12507349106E+03 0.  0.
          5    1    3    3  502    0 -0.64594242141E+02 -0.36156125740E+02  0.13975242617E+03  0.15820206878E+03  0.41800000000E+01 0.  1.
         -5    1    3    3    0  502  0.48297181495E+02 -0.13670217540E+02  0.23491552906E+03  0.24025459576E+03  0.41800000000E+01 0.  1.
        -11    1    1    2    0    0  0.52660808358E+02  0.25645614434E+02  0.15987318740E+03  0.17026536443E+03  0.00000000000E+00 0. -1.
         11    1    1    2    0    0 -0.36363747712E+02  0.24180728846E+02  0.16339559059E+03  0.16913056737E+03  0.00000000000E+00 0.  1.
</event>
<event>
 7    1  0.2420569E-009  0.8681311E+02  0.7561462E-02  0.1310758E+00
         -1   -1    0    0    0  501 -0.00000000000E+00  0.00000000000E+00  0.22233210877E+03  0.22233210877E+03  0.00000000000E+00 0.  1.
          1   -1    0    0  501    0  0.00000000000E+00 -0.00000000000E+00 -0.77965587159E+02  0.77965587159E+02  0.00000000000E+00 0. -1.
         25    2    1    2    0    0  0.33689523544E+02  0.29629467177E+02  0.14814765755E+03  0.19901773233E+03  0.12508972788E+03 0.  0.
          5    1    3    3  502    0 -0.93504673363E+01  0.27415686079E+02 -0.13095105105E+02  0.32062521116E+02  0.41800000000E+01 0. -1.
         -5    1    3    3    0  502  0.43039990881E+02  0.22137810980E+01  0.16124276266E+03  0.16695521121E+03  0.41800000000E+01 0. -1.
        -11    1    1    2    0    0 -0.56779745341E+02  0.75653556601E+01  0.57695807265E+00  0.57284439143E+02  0.00000000000E+00 0.  1.
         11    1    1    2    0    0  0.23090221797E+02 -0.37194822837E+02 -0.43580940180E+01  0.43995524454E+02  0.00000000000E+00 0. -1.
</event>
<event>
 7    1  0.2420569E-009  0.1098665E+03  0.7561462E-02  0.1260817E+00
         -1   -1    0    0    0  501 -0.00000000000E+00  0.00000000000E+00  0.10647727954E+03  0.10647727954E+03  0.00000000000E+00 0.  1.
          1   -1    0    0  501    0  0.00000000000E+00 -0.00000000000E+00 -0.19752164028E+03  0.19752164028E+03  0.00000000000E+00 0. -1.
         25    2    1    2    0    0 -0.23634469326E+02 -0.88090496549E+02 -0.84425367925E+02  0.17633519850E+03  0.12509170938E+03 0.  0.
          5    1    3    3  502    0 -0.98611383355E+01 -0.70115182091E+02  0.16494688496E+02  0.72821205411E+02  0.41800000000E+01 0.  1.
         -5    1    3    3    0  502 -0.13773330991E+02 -0.17975314458E+02 -0.10092005642E+03  0.10351399309E+03  0.41800000000E+01 0.  1.
        -11    1    1    2    0    0  0.56085809330E+02  0.45434775568E+02 -0.14110046574E+02  0.73546109710E+02  0.00000000000E+00 0. -1.
         11    1    1    2    0    0 -0.32451340004E+02  0.42655720981E+02  0.74910537518E+01  0.54117611614E+02  0.00000000000E+00 0.  1.
</event>
<event>
 7    1  0.2420569E-009  0.1145854E+03  0.7561462E-02  0.1252307E+00
          1   -1    0    0  501    0  0.00000000000E+00  0.00000000000E+00  0.20014467770E+03  0.20014467770E+03  0.00000000000E+00 0. -1.
         -1   -1    0    0    0  501 -0.00000000000E+00 -0.00000000000E+00 -0.12358827131E+03  0.12358827131E+03  0.00000000000E+00 0.  1.
         25    2    1    2    0    0  0.73912011729E+02  0.89447045319E+01 -0.46982226282E+02  0.15296767773E+03  0.12509511432E+03 0.  0.
          5    1    3    3  502    0  0.88449278396E+02  0.40765531947E+02 -0.42366904134E+01  0.97573179662E+02  0.41800000000E+01 0.  1.
         -5    1    3    3    0  502 -0.14537266668E+02 -0.31820827415E+02 -0.42745535868E+02  0.55394498068E+02  0.41800000000E+01 0.  1.
        -11    1    1    2    0    0 -0.37380044837E+02 -0.35297230324E+02  0.11352068485E+03  0.12461985439E+03  0.00000000000E+00 0. -1.
         11    1    1    2    0    0 -0.36531966891E+02  0.26352525792E+02  0.10017947825E+02  0.46145416882E+02  0.00000000000E+00 0.  1.
</event>
<event>
 7    1  0.2420569E-009  0.1521108E+03  0.7561462E-02  0.1197903E+00
          1   -1    0    0  501    0  0.00000000000E+00  0.00000000000E+00  0.19332648731E+04  0.19332648731E+04  0.00000000000E+00 0. -1.
         -1   -1    0    0    0  501 -0.00000000000E+00 -0.00000000000E+00 -0.13127393932E+02  0.13127393932E+02  0.00000000000E+00 0.  1.
         25    2    1    2    0    0 -0.86594743177E+02  0.62271766607E+02  0.12810705682E+04  0.12915748492E+04  0.12508944046E+03 0.  0.
          5    1    3    3  502    0 -0.60522668815E+02  0.99082239289E+02  0.80271761588E+03  0.81108157840E+03  0.41800000000E+01 0.  1.
         -5    1    3    3    0  502 -0.26072074362E+02 -0.36810472682E+02  0.47835295228E+03  0.48049327083E+03  0.41800000000E+01 0.  1.
        -11    1    1    2    0    0  0.23817467195E+02  0.25458362267E+02  0.16034478119E+03  0.16409097723E+03  0.00000000000E+00 0.  1.
         11    1    1    2    0    0  0.62777275982E+02 -0.87730128875E+02  0.47872212979E+03  0.49072644054E+03  0.00000000000E+00 0. -1.
</event>
<event>
 7    1  0.2420569E-009  0.1222683E+03  0.7561462E-02  0.1239401E+00
         -1   -1    0    0    0  501 -0.00000000000E+00  0.00000000000E+00  0.12498354500E+03  0.12498354500E+03  0.00000000000E+00 0.  1.
          1   -1    0    0  501    0  0.00000000000E+00 -0.00000000000E+00 -0.16184943027E+03  0.16184943027E+03  0.00000000000E+00 0. -1.
         25    2    1    2    0    0  0.50728340278E+02 -0.33268646316E+02 -0.90047898899E+02  0.16563952461E+03  0.12509060988E+03 0.  0.
          5    1    3    3  502    0 -0.34547614348E+02 -0.40122848980E+02 -0.39425432383E+02  0.66145429063E+02  0.41800000000E+01 0. -1.
         -5    1    3    3    0  502  0.85275954626E+02  0.68542026643E+01 -0.50622466516E+02  0.99494095542E+02  0.41800000000E+01 0. -1.
        -11    1    1    2    0    0 -0.39282223077E+02 -0.24885859217E+02  0.92394883296E+01  0.47410623107E+02  0.00000000000E+00 0.  1.
         11    1    1    2    0    0 -0.11446117201E+02  0.58154505533E+02  0.43942525299E+02  0.73782827558E+02  0.00000000000E+00 0. -1.
</event>
<event>
 7    1  0.2420569E-009  0.1386555E+03  0.7561462E-02  0.1215150E+00
         -2   -1    0    0    0  501 -0.00000000000E+00  0.00000000000E+00  0.53545490853E+02  0.53545490853E+02  0.00000000000E+00 0.  1.
          2   -1    0    0  501    0  0.00000000000E+00 -0.00000000000E+00 -0.48099462772E+03  0.48099462772E+03  0.00000000000E+00 0. -1.
         25    2    1    2    0    0  0.97421546478E+02  0.34883499288E+02 -0.32687152204E+03  0.36496408901E+03  0.12508388427E+03 0.  0.
          5    1    3    3  502    0  0.12698754353E+03  0.30212088914E+02 -0.28310276760E+03  0.31177436705E+03  0.41800000000E+01 0.  1.
         -5    1    3    3    0  502 -0.29565997052E+02  0.46714103746E+01 -0.43768754439E+02  0.53189721955E+02  0.41800000000E+01 0.  1.
        -11    1    1    2    0    0 -0.36309253659E+01 -0.21433285274E+02  0.10023986373E+02  0.23938455244E+02  0.00000000000E+00 0.  1.
         11    1    1    2    0    0 -0.93790621112E+02 -0.13450214014E+02 -0.11060160120E+03  0.14563757432E+03  0.00000000000E+00 0. -1.
</event>
<event>
 7    1  0.2420569E-009  0.1168211E+03  0.7561462E-02  0.1248435E+00
          1   -1    0    0  501    0  0.00000000000E+00  0.00000000000E+00  0.71424895976E+03  0.71424895976E+03  0.00000000000E+00 0. -1.
         -1   -1    0    0    0  501 -0.00000000000E+00 -0.00000000000E+00 -0.20851566033E+02  0.20851566033E+02  0.00000000000E+00 0.  1.
         25    2    1    2    0    0 -0.43335406951E+02 -0.36198891317E+02  0.34448619019E+03  0.37081910369E+03  0.12509098769E+03 0.  0.
          5    1    3    3  502    0 -0.33929949150E+02 -0.78607857454E+02  0.16306460778E+03  0.18422262460E+03  0.41800000000E+01 0.  1.
         -5    1    3    3    0  502 -0.94054578016E+01  0.42408966137E+02  0.18142158241E+03  0.18659647909E+03  0.41800000000E+01 0.  1.
        -11    1    1    2    0    0  0.60343584278E+02  0.53044618089E+02  0.25438256876E+03  0.26676875935E+03  0.00000000000E+00 0.  1.
         11    1    1    2    0    0 -0.17008177327E+02 -0.16845726773E+02  0.94528634776E+02  0.97512662763E+02  0.00000000000E+00 0. -1.
</event>
<event>
 7    1  0.2420569E-009  0.1395472E+03  0.7561462E-02  0.1213940E+00
          3   -1    0    0  501    0  0.00000000000E+00  0.00000000000E+00  0.55093602264E+03  0.55093602264E+03  0.00000000000E+00 0. -1.
         -3   -1    0    0    0  501 -0.00000000000E+00 -0.00000000000E+00 -0.41026749303E+02  0.41026749303E+02  0.00000000000E+00 0.  1.
         25    2    1    2    0    0 -0.98948927320E+02  0.31389458019E+02  0.31963255118E+03  0.35859214428E+03  0.12508864805E+03 0.  0.
          5    1    3    3  502    0 -0.94597054996E+02 -0.26168109017E+02  0.24633564019E+03  0.26520198486E+03  0.41800000000E+01 0. -1.
         -5    1    3    3    0  502 -0.43518723241E+01  0.57557567037E+02  0.73296910992E+02  0.93390159422E+02  0.41800000000E+01 0. -1.
        -11    1    1    2    0    0  0.50664691110E+02 -0.50050502902E+02  0.59779616599E+02  0.92981537558E+02  0.00000000000E+00 0.  1.
         11    1    1    2    0    0  0.48284236210E+02  0.18661044882E+02  0.13049710556E+03  0.14038909011E+03  0.00000000000E+00 0. -1.
</event>
<event>
 7    1  0.2420569E-009  0.1745796E+03  0.7561462E-02  0.1173154E+00
          2   -1    0    0  501    0  0.00000000000E+00  0.00000000000E+00  0.56784797233E+03  0.56784797233E+03  0.00000000000E+00 0.  1.
         -2   -1    0    0    0  501 -0.00000000000E+00 -0.00000000000E+00 -0.76110920230E+02  0.76110920230E+02  0.00000000000E+00 0. -1.
         25    2    1    2    0    0  0.12857938895E+03 -0.11396478567E+03  0.32563447561E+03  0.38885144595E+03  0.12508798375E+03 0.  0.
          5    1    3    3  502    0  0.11396132699E+03 -0.79544504758E+02  0.32237647506E+03  0.35108200803E+03  0.41800000000E+01 0. -1.
         -5    1    3    3    0  502  0.14618061954E+02 -0.34420280915E+02  0.32580005452E+01  0.37769437924E+02  0.41800000000E+01 0. -1.
        -11    1    1    2    0    0 -0.57264912696E+02  0.40745674915E+02  0.13699654894E+02  0.71604195369E+02  0.00000000000E+00 0. -1.
         11    1    1    2    0    0 -0.71314476252E+02  0.73219110758E+02  0.15240292160E+03  0.18350325124E+03  0.00000000000E+00 0.  1.
</event>
<event>
 7    1  0.2420569E-009  0.9356211E+02  0.7561462E-02  0.1294448E+00
          2   -1    0    0  501    0  0.00000000000E+00  0.00000000000E+00  0.18447526165E+03  0.18447526165E+03  0.00000000000E+00 0. -1.
         -2   -1    0    0    0  501 -0.00000000000E+00 -0.00000000000E+00 -0.74956274568E+02  0.74956274568E+02  0.00000000000E+00 0.  1.
         25    2    1    2    0    0  0.10774569125E+02 -0.46682102422E+02  0.56067181374E+02  0.14521186943E+03  0.12509055987E+03 0.  0.
          5    1    3    3  502    0  0.16280340915E+01 -0.68793308587E+02 -0.14615617936E+02  0.70471685725E+02  0.41800000000E+01 0.  1.
         -5    1    3    3    0  502  0.91465350334E+01  0.22111206165E+02  0.70682799310E+02  0.74740183700E+02  0.41800000000E+01 0.  1.
        -11    1    1    2    0    0  0.23668606277E+02 -0.11474435240E+02 -0.25724383060E+01  0.26428829448E+02  0.00000000000E+00 0.  1.
         11    1    1    2    0    0 -0.34443175402E+02  0.58156537662E+02  0.56024244014E+02  0.87790837346E+02  0.00000000000E+00 0. -1.
</event>
<event>
 7    1  0.2420569E-009  0.1069443E+03  0.7561462E-02  0.1266336E+00
          1   -1    0    0  501    0  0.00000000000E+00  0.00000000000E+00  0.23399488169E+03  0.23399488169E+03  0.00000000000E+00 0. -1.
         -1   -1    0    0    0  501 -0.00000000000E+00 -0.00000000000E+00 -0.54868320943E+02  0.54868320943E+02  0.00000000000E+00 0.  1.
         25    2    1    2    0    0 -0.14796199281E+02  0.15955742083E+02  0.68445785440E+02  0.14424726494E+03  0.12509570208E+03 0.  0.
          5    1    3    3  502    0 -0.20517337311E+02  0.69196525499E+02  0.30396983980E+02  0.78425565389E+02  0.41800000000E+01 0.  1.
         -5    1    3    3    0  502  0.57211380295E+01 -0.53240783417E+02  0.38048801460E+02  0.65821699551E+02  0.41800000000E+01 0.  1.
        -11    1    1    2    0    0 -0.14845065091E+02 -0.44391367119E+02  0.34784780073E+02  0.58317667623E+02  0.00000000000E+00 0. -1.
         11    1    1    2    0    0  0.29641264372E+02  0.28435625036E+02  0.75895995234E+02  0.86298270071E+02  0.00000000000E+00 0.  1.
</event>
<event>
 7    1  0.2420569E-009  0.1182749E+03  0.7561462E-02  0.1245970E+00
         -1   -1    0    0    0  501 -0.00000000000E+00  0.00000000000E+00  0.43512392114E+02  0.43512392114E+02  0.00000000000E+00 0.  1.
          1   -1    0    0  501    0  0.00000000000E+00 -0.00000000000E+00 -0.42993647572E+03  0.42993647572E+03  0.00000000000E+00 0. -1.
         25    2    1    2    0    0 -0.42768284976E+02  0.61447180627E+02 -0.14223028058E+03  0.20366809845E+03  0.12508540843E+03 0.  0.
          5    1    3    3  502    0 -0.31949328153E+02 -0.22787864395E+02 -0.10245875779E+03  0.10979670205E+03  0.41800000000E+01 0. -1.
         -5    1    3    3    0  502 -0.10818956823E+02  0.84235045022E+02 -0.39771522797E+02  0.93871396400E+02  0.41800000000E+01 0. -1.
        -11    1    1    2    0    0  0.67796792683E+02 -0.51426743440E+02 -0.20730469164E+03  0.22409004934E+03  0.00000000000E+00 0.  1.
         11    1    1    2    0    0 -0.25028507707E+02 -0.10020437187E+02 -0.36889111383E+02  0.45690720043E+02  0.00000000000E+00 0. -1.
</event>
<event>
 7    1  0.2420569E-009  0.1233389E+03  0.7561462E-02  0.1237688E+00
          1   -1    0    0  501    0  0.00000000000E+00  0.00000000000E+00  0.51754748305E+03  0.51754748305E+03  0.00000000000E+00 0. -1.
         -1   -1    0    0    0  501 -0.00000000000E+00 -0.00000000000E+00 -0.32698134281E+02  0.32698134281E+02  0.00000000000E+00 0.  1.
         25    2    1    2    0    0  0.29655914254E+02  0.57860342918E+02  0.20378740432E+03  0.24779872179E+03  0.12509039862E+03 0.  0.
          5    1    3    3  502    0  0.76090602445E+02  0.31124191647E+02  0.90058459134E+02  0.12201021903E+03  0.41800000000E+01 0. -1.
         -5    1    3    3    0  502 -0.46434688191E+02  0.26736151272E+02  0.11372894519E+03  0.12578850276E+03  0.41800000000E+01 0. -1.
        -11    1    1    2    0    0  0.28258339885E+01 -0.74202269799E+02  0.16792172467E+03  0.18360737403E+03  0.00000000000E+00 0. -1.
         11    1    1    2    0    0 -0.32481748242E+02  0.16341926881E+02  0.11314021977E+03  0.11883952151E+03  0.00000000000E+00 0.  1.
</event>
<event>
 7    1  0.2420569E-009  0.9117830E+02  0.7561462E-02  0.1300023E+00
          2   -1    0    0  501    0  0.00000000000E+00  0.00000000000E+00  0.15350524315E+03  0.15350524315E+03  0.00000000000E+00 0. -1.
         -2   -1    0    0    0  501 -0.00000000000E+00 -0.00000000000E+00 -0.11457714205E+03  0.11457714205E+03  0.00000000000E+00 0.  1.
         25    2    1    2    0    0  0.33072583551E+02  0.66961610903E+02  0.33291758908E+02  0.14944218433E+03  0.12508785764E+03 0.  0.
          5    1    3    3  502    0 -0.91111704616E+01  0.11538779128E+02 -0.43248909967E+02  0.45870442164E+02  0.41800000000E+01 0. -1.
         -5    1    3    3    0  502  0.42183754013E+02  0.55422831775E+02  0.76540668875E+02  0.10357174217E+03  0.41800000000E+01 0. -1.
        -11    1    1    2    0    0 -0.24660032741E+02  0.47325489609E+01 -0.29179993673E+02  0.38496574721E+02  0.00000000000E+00 0.  1.
         11    1    1    2    0    0 -0.84125508103E+01 -0.71694159864E+02  0.34816335865E+02  0.80143626152E+02  0.00000000000E+00 0. -1.
</event>
<event>
 7    1  0.2420569E-009  0.1513791E+03  0.7561462E-02  0.1198789E+00
          1   -1    0    0  501    0  0.00000000000E+00  0.00000000000E+00  0.12226066627E+03  0.12226066627E+03  0.00000000000E+00 0.  1.
         -1   -1    0    0    0  501 -0.00000000000E+00 -0.00000000000E+00 -0.25695583605E+03  0.25695583605E+03  0.00000000000E+00 0. -1.
         25    2    1    2    0    0 -0.52837018440E+02  0.12424999304E+03 -0.28158065936E+02  0.18619850558E+03  0.12508875055E+03 0.  0.
          5    1    3    3  502    0 -0.62886020880E+02  0.11393392353E+03 -0.65650334956E+02  0.14581848111E+03  0.41800000000E+01 0. -1.
         -5    1    3    3    0  502  0.10049002440E+02  0.10316069518E+02  0.37492269020E+02  0.40380024475E+02  0.41800000000E+01 0. -1.
        -11    1    1    2    0    0 -0.18872240541E+01 -0.95915166373E+02 -0.45121527610E+02  0.10601524894E+03  0.00000000000E+00 0.  1.
         11    1    1    2    0    0  0.54724242494E+02 -0.28334826671E+02 -0.61415576231E+02  0.87002747789E+02  0.00000000000E+00 0. -1.
</event>
<event>
 7    1  0.2420569E-009  0.7341071E+02  0.7561462E-02  0.1348864E+00
          3   -1    0    0  501    0  0.00000000000E+00  0.00000000000E+00  0.17308162423E+03  0.17308162423E+03  0.00000000000E+00 0. -1.
         -3   -1    0    0    0  501 -0.00000000000E+00 -0.00000000000E+00 -0.75107939973E+02  0.75107939973E+02  0.00000000000E+00 0.  1.
         25    2    1    2    0    0  0.63803006963E+01 -0.30689805105E+02  0.39573676594E+02  0.13489410104E+03  0.12509104781E+03 0.  0.
          5    1    3    3  502    0 -0.43485066527E+02 -0.35997766186E+02 -0.17072548826E+02  0.59124736825E+02  0.41800000000E+01 0.  1.
         -5    1    3    3    0  502  0.49865367223E+02  0.53079610809E+01  0.56646225419E+02  0.75769364214E+02  0.41800000000E+01 0.  1.
        -11    1    1    2    0    0 -0.15017412218E+02  0.11715800440E+02  0.80612584433E+02  0.82832188300E+02  0.00000000000E+00 0. -1.
         11    1    1    2    0    0  0.86371115214E+01  0.18974004664E+02 -0.22212576772E+02  0.30463274862E+02  0.00000000000E+00 0.  1.
</event>
<event>
 7    1  0.2420569E-009  0.1002505E+03  0.7561462E-02  0.1279770E+00
          3   -1    0    0  501    0  0.00000000000E+00  0.00000000000E+00  0.12999849649E+03  0.12999849649E+03  0.00000000000E+00 0. -1.
         -3   -1    0    0    0  501 -0.00000000000E+00 -0.00000000000E+00 -0.13086825172E+03  0.13086825172E+03  0.00000000000E+00 0.  1.
         25    2    1    2    0    0  0.47921448627E+02  0.45487568647E+02 -0.32074490534E+02  0.14506040682E+03  0.12509262385E+03 0.  0.
          5    1    3    3  502    0  0.74609170591E+02  0.59687843517E+02  0.65174413556E+01  0.95859879208E+02  0.41800000000E+01 0. -1.
         -5    1    3    3    0  502 -0.26687721964E+02 -0.14200274870E+02 -0.38591931889E+02  0.49200527609E+02  0.41800000000E+01 0. -1.
        -11    1    1    2    0    0 -0.29183598442E+02 -0.47237528199E+02 -0.21729834010E+02  0.59625935418E+02  0.00000000000E+00 0.  1.
         11    1    1    2    0    0 -0.18737850184E+02  0.17499595524E+01  0.52934569308E+02  0.56180405977E+02  0.00000000000E+00 0. -1.
</event>
<event>
 7    1  0.2420569E-009  0.1671013E+03  0.7561462E-02  0.1180905E+00
         -2   -1    0    0    0  501 -0.00000000000E+00  0.00000000000E+00  0.51518413668E+03  0.51518413668E+03  0.00000000000E+00 0.  1.
          2   -1    0    0  501    0  0.00000000000E+00 -0.00000000000E+00 -0.59160385180E+02  0.59160385180E+02  0.00000000000E+00 0. -1.
         25    2    1    2    0    0 -0.59796820993E+02 -0.12436683525E+03  0.25670939155E+03  0.31716005627E+03  0.12509204640E+03 0.  0.
          5    1    3    3  502    0  0.37414059829E+02 -0.50807736182E+02  0.72201688182E+02  0.95978091798E+02  0.41800000000E+01 0.  1.
         -5    1    3    3    0  502 -0.97210880822E+02 -0.73559099065E+02  0.18450770336E+03  0.22118196447E+03  0.41800000000E+01 0.  1.
        -11    1    1    2    0    0  0.42090199257E+02  0.26953536392E+02  0.12109940478E+03  0.13100818232E+03  0.00000000000E+00 0.  1.
         11    1    1    2    0    0  0.17706621736E+02  0.97413298855E+02  0.78214955171E+02  0.12617628327E+03  0.00000000000E+00 0. -1.
</event>
<event>
 7    1  0.2420569E-009  0.1018067E+03  0.7561462E-02  0.1276542E+00
         -1   -1    0    0    0  501 -0.00000000000E+00  0.00000000000E+00  0.13812454580E+03  0.13812454580E+03  0.00000000000E+00 0.  1.
          1   -1    0    0  501    0  0.00000000000E+00 -0.00000000000E+00 -0.12035910894E+03  0.12035910894E+03  0.00000000000E+00 0. -1.
         25    2    1    2    0    0  0.65207007122E+02 -0.41300480831E+00 -0.15794814462E+02  0.14194614687E+03  0.12508840113E+03 0.  0.
          5    1    3    3  502    0  0.31366091187E+01  0.31380350137E+02  0.41010268198E+02  0.51902593280E+02  0.41800000000E+01 0.  1.
         -5    1    3    3    0  502  0.62070398004E+02 -0.31793354945E+02 -0.56805082660E+02  0.90043553589E+02  0.41800000000E+01 0.  1.
        -11    1    1    2    0    0 -0.72587913261E+02  0.24604155956E+02  0.44891080872E+02  0.88823300906E+02  0.00000000000E+00 0.  1.
         11    1    1    2    0    0  0.73809061390E+01 -0.24191151148E+02 -0.11330829546E+02  0.27714206961E+02  0.00000000000E+00 0. -1.
</event>
<event>
 7    1  0.2420569E-009  0.1467145E+03  0.7561462E-02  0.1204569E+00
         -1   -1    0    0    0  501 -0.00000000000E+00  0.00000000000E+00  0.88785545145E+02  0.88785545145E+02  0.00000000000E+00 0.  1.
          1   -1    0    0  501    0  0.00000000000E+00 -0.00000000000E+00 -0.28047559525E+03  0.28047559525E+03  0.00000000000E+00 0. -1.
         25    2    1    2    0    0 -0.89571416168E+02 -0.46526523874E+02 -0.16516322610E+03  0.23046552810E+03  0.12509081649E+03 0.  0.
          5    1    3    3  502    0  0.12883378895E+01 -0.64948723648E+02 -0.89824377836E+02  0.11093190601E+03  0.41800000000E+01 0. -1.
         -5    1    3    3    0  502 -0.90859754057E+02  0.18422199774E+02 -0.75338848266E+02  0.11953362209E+03  0.41800000000E+01 0. -1.
        -11    1    1    2    0    0  0.37150812908E+02  0.69101836863E+02 -0.22305767351E+02  0.81564661556E+02  0.00000000000E+00 0. -1.
         11    1    1    2    0    0  0.52420603260E+02 -0.22575312990E+02 -0.42210566499E+01  0.57230950734E+02  0.00000000000E+00 0.  1.
</event>
<event>
 7    1  0.2420569E-009  0.1039665E+03  0.7561462E-02  0.1272169E+00
          1   -1    0    0  501    0  0.00000000000E+00  0.00000000000E+00  0.15205402391E+03  0.15205402391E+03  0.00000000000E+00 0. -1.
         -1   -1    0    0    0  501 -0.00000000000E+00 -0.00000000000E+00 -0.11838956450E+03  0.11838956450E+03  0.00000000000E+00 0.  1.
         25    2    1    2    0    0  0.11922037619E+02  0.31985398443E+02 -0.52611020722E+02  0.13993063773E+03  0.12508982044E+03 0.  0.
          5    1    3    3  502    0  0.33612707755E+02 -0.33542789242E+02 -0.52318478496E+02  0.70778728619E+02  0.41800000000E+01 0.  1.
         -5    1    3    3    0  502 -0.21690670136E+02  0.65528187685E+02 -0.29254222549E+00  0.69151909107E+02  0.41800000000E+01 0.  1.
        -11    1    1    2    0    0  0.28680821008E+02  0.12143583244E+02  0.84635277850E+01  0.32275182575E+02  0.00000000000E+00 0.  1.
         11    1    1    2    0    0 -0.40602858627E+02 -0.44128981687E+02  0.77811952353E+02  0.98237768106E+02  0.00000000000E+00 0. -1.
</event>
<event>
 7    1  0.2420569E-009  0.9682721E+02  0.7561462E-02  0.1287113E+00
         -2   -1    0    0    0  501 -0.00000000000E+00  0.00000000000E+00  0.29350696428E+02  0.29350696428E+02  0.00000000000E+00 0. -1.
          2   -1    0    0  501    0  0.00000000000E+00 -0.00000000000E+00 -0.59165217938E+03  0.59165217938E+03  0.00000000000E+00 0.  1.
         25    2    1    2    0    0 -0.31976859556E+01  0.69174427569E+02 -0.37206709909E+03  0.39859326237E+03  0.12508931194E+03 0.  0.
          5    1    3    3  502    0 -0.34223196253E+02  0.31214507094E+02 -0.35658104098E+02  0.58604994691E+02  0.41800000000E+01 0. -1.
         -5    1    3    3    0  502  0.31025510297E+02  0.37959920475E+02 -0.33640899499E+03  0.33998826768E+03  0.41800000000E+01 0. -1.
        -11    1    1    2    0    0 -0.14166253358E+02  0.97065080578E+01 -0.16441222074E+01  0.17251149837E+02  0.00000000000E+00 0. -1.
         11    1    1    2    0    0  0.17363939313E+02 -0.78880935627E+02 -0.18859026166E+03  0.20515846360E+03  0.00000000000E+00 0.  1.
</event>
<event>
 7    1  0.2420569E-009  0.8788891E+02  0.7561462E-02  0.1308046E+00
          2   -1    0    0  501    0  0.00000000000E+00  0.00000000000E+00  0.14487021468E+03  0.14487021468E+03  0.00000000000E+00 0. -1.
         -2   -1    0    0    0  501 -0.00000000000E+00 -0.00000000000E+00 -0.12540456120E+03  0.12540456120E+03  0.00000000000E+00 0.  1.
         25    2    1    2    0    0  0.73444698081E+01  0.68227853212E+02 -0.12231376511E+02  0.14319640443E+03  0.12508646002E+03 0.  0.
          5    1    3    3  502    0  0.12991647715E+02  0.10093872540E+02  0.52932612902E+02  0.55587796159E+02  0.41800000000E+01 0.  1.
         -5    1    3    3    0  502 -0.56471779067E+01  0.58133980672E+02 -0.65163989413E+02  0.87608608272E+02  0.41800000000E+01 0.  1.
        -11    1    1    2    0    0  0.11935556695E+01 -0.83093996372E+02  0.53881576114E+02  0.99041713700E+02  0.00000000000E+00 0.  1.
         11    1    1    2    0    0 -0.85380254776E+01  0.14866143160E+02 -0.22184546118E+02  0.28036657753E+02  0.00000000000E+00 0. -1.
</event>
<event>
 7    1  0.2420569E-009  0.1664354E+03  0.7561462E-02  0.1181617E+00
          2   -1    0    0  501    0  0.00000000000E+00  0.00000000000E+00  0.95455467965E+02  0.95455467965E+02  0.00000000000E+00 0. -1.
         -2   -1    0    0    0  501 -0.00000000000E+00 -0.00000000000E+00 -0.32043105953E+03  0.32043105953E+03  0.00000000000E+00 0.  1.
         25    2    1    2    0    0 -0.12788693387E+03  0.32916258653E+02 -0.16541107642E+03  0.24585895237E+03  0.12508897760E+03 0.  0.
          5    1    3    3  502    0 -0.14199976807E+03  0.54962617373E+02 -0.12272257033E+03  0.19560962427E+03  0.41800000000E+01 0. -1.
         -5    1    3    3    0  502  0.14112834193E+02 -0.22046358720E+02 -0.42688506096E+02  0.50249328100E+02  0.41800000000E+01 0. -1.
        -11    1    1    2    0    0  0.13475645039E+03 -0.43341225547E+02 -0.65767277797E+02  0.15608682706E+03  0.00000000000E+00 0.  1.
         11    1    1    2    0    0 -0.68695165150E+01  0.10424966894E+02  0.62027626574E+01  0.13940748060E+02  0.00000000000E+00 0. -1.
</event>
<event>
 7    1  0.2420569E-009  0.9345250E+02  0.7561462E-02  0.1294700E+00
         -3   -1    0    0    0  501 -0.00000000000E+00  0.00000000000E+00  0.21166465768E+03  0.21166465768E+03  0.00000000000E+00 0.  1.
          3   -1    0    0  501    0  0.00000000000E+00 -0.00000000000E+00 -0.77416238927E+02  0.77416238927E+02  0.00000000000E+00 0. -1.
         25    2    1    2    0    0  0.16649681810E+01  0.11756571620E+02 -0.25391536952E+01  0.12567575281E+03  0.12508780295E+03 0.  0.
          5    1    3    3  502    0  0.62954747468E+02  0.10796040289E+02  0.22483997376E+01  0.64049843216E+02  0.41800000000E+01 0. -1.
         -5    1    3    3    0  502 -0.61289779287E+02  0.96053133105E+00 -0.47875534328E+01  0.61625909594E+02  0.41800000000E+01 0. -1.
        -11    1    1    2    0    0  0.13979037980E+02 -0.32555242159E+02  0.14338775581E+02  0.38221169266E+02  0.00000000000E+00 0. -1.
         11    1    1    2    0    0 -0.15644006161E+02  0.20798670539E+02  0.12244879686E+03  0.12518397453E+03  0.00000000000E+00 0.  1.
</event>
<event>
 7    1  0.2420569E-009  0.1509675E+03  0.7561462E-02  0.1199289E+00
         -1   -1    0    0    0  501 -0.00000000000E+00  0.00000000000E+00  0.36453471860E+02  0.36453471860E+02  0.00000000000E+00 0.  1.
          1   -1    0    0  501    0  0.00000000000E+00 -0.00000000000E+00 -0.68037784955E+03  0.68037784955E+03  0.00000000000E+00 0. -1.
         25    2    1    2    0    0  0.58634936423E+02 -0.11194645917E+03 -0.35549488354E+03  0.39748722825E+03  0.12509763748E+03 0.  0.
          5    1    3    3  502    0  0.88535653860E+02 -0.10667075003E+03 -0.23242666811E+03  0.27066000696E+03  0.41800000000E+01 0.  1.
         -5    1    3    3    0  502 -0.29900717437E+02 -0.52757091363E+01 -0.12306821543E+03  0.12682722129E+03  0.41800000000E+01 0.  1.
        -11    1    1    2    0    0 -0.21790557235E+02  0.82795935766E+02 -0.22236533922E+03  0.23827786185E+03  0.00000000000E+00 0. -1.
         11    1    1    2    0    0 -0.36844379188E+02  0.29150523403E+02 -0.66064154926E+02  0.81066231308E+02  0.00000000000E+00 0.  1.
</event>
<event>
 7    1  0.2420569E-009  0.1160814E+03  0.7561462E-02  0.1249705E+00
         -2   -1    0    0    0  501 -0.00000000000E+00  0.00000000000E+00  0.78344251594E+02  0.78344251594E+02  0.00000000000E+00 0.  1.
          2   -1    0    0  501    0  0.00000000000E+00 -0.00000000000E+00 -0.25353510253E+03  0.25353510253E+03  0.00000000000E+00 0. -1.
         25    2    1    2    0    0  0.82636728130E+02 -0.28902121674E+01 -0.64491852068E+02  0.16322832296E+03  0.12508838583E+03 0.  0.
          5    1    3    3  502    0  0.76859825587E+02  0.52753882893E+02 -0.33563976002E+02  0.99168633321E+02  0.41800000000E+01 0.  1.
         -5    1    3    3    0  502  0.57769025424E+01 -0.55644095061E+02 -0.30927876066E+02  0.64059689635E+02  0.41800000000E+01 0.  1.
        -11    1    1    2    0    0 -0.37568026666E+02 -0.26122865073E+00 -0.11713850331E+03  0.12301566496E+03  0.00000000000E+00 0. -1.
         11    1    1    2    0    0 -0.45068701464E+02  0.31514408182E+01  0.64395044487E+01  0.45635366202E+02  0.00000000000E+00 0.  1.
</event>
<event>
 7    1  0.2420569E-009  0.1950908E+03  0.7561462E-02  0.1153948E+00
         -1   -1    0    0    0  501 -0.00000000000E+00  0.00000000000E+00  0.34076094240E+03  0.34076094240E+03  0.00000000000E+00 0.  1.
          1   -1    0    0  501    0  0.00000000000E+00 -0.00000000000E+00 -0.12311435476E+03  0.12311435476E+03  0.00000000000E+00 0. -1.
         25    2    1    2    0    0 -0.12905223341E+03  0.10455643249E+03  0.71292682986E+02  0.21981098812E+03  0.12509075636E+03 0.  0.
          5    1    3    3  502    0 -0.12152154473E+03  0.33581201689E+02  0.77493051161E+02  0.14804670992E+03  0.41800000000E+01 0.  1.
         -5    1    3    3    0  502 -0.75306886796E+01  0.70975230800E+02 -0.62003681754E+01  0.71764278194E+02  0.41800000000E+01 0. -1.
        -11    1    1    2    0    0 -0.29078506557E+00 -0.53475054099E+02  0.59989342839E+02  0.80364091615E+02  0.00000000000E+00 0. -1.
         11    1    1    2    0    0  0.12934301848E+03 -0.51081378390E+02  0.86364561823E+02  0.16370021743E+03  0.00000000000E+00 0.  1.
</event>
<event>
 7    1  0.2420569E-009  0.2427058E+03  0.7561462E-02  0.1118003E+00
         -2   -1    0    0    0  501 -0.00000000000E+00  0.00000000000E+00  0.35170151385E+03  0.35170151385E+03  0.00000000000E+00 0.  1.
          2   -1    0    0  501    0  0.00000000000E+00 -0.00000000000E+00 -0.22433479406E+03  0.22433479406E+03  0.00000000000E+00 0. -1.
         25    2    1    2    0    0 -0.10462200526E+03  0.20688472157E+03 -0.40710446531E+02  0.26655564386E+03  0.12509004282E+03 0.  0.
          5    1    3    3  502    0 -0.10099006411E+03  0.11429283177E+03 -0.71936071821E+02  0.16868347658E+03  0.41800000000E+01 0.  1.
         -5    1    3    3    0  502 -0.36319411553E+01  0.92591889799E+02  0.31225625290E+02  0.97872167279E+02  0.41800000000E+01 0.  1.
        -11    1    1    2    0    0  0.62889855192E+02 -0.58338521095E+02  0.64430373939E+01  0.86023425068E+02  0.00000000000E+00 0.  1.
         11    1    1    2    0    0  0.41732150069E+02 -0.14854620047E+03  0.16163412893E+03  0.22345723899E+03  0.00000000000E+00 0. -1.
</event>
<event>
 7    1  0.2420569E-009  0.8676957E+02  0.7561462E-02  0.1310869E+00
         -2   -1    0    0    0  501 -0.00000000000E+00  0.00000000000E+00  0.63313618329E+02  0.63313618329E+02  0.00000000000E+00 0.  1.
          2   -1    0    0  501    0  0.00000000000E+00 -0.00000000000E+00 -0.22601907374E+03  0.22601907374E+03  0.00000000000E+00 0. -1.
         25    2    1    2    0    0  0.41091528399E+02 -0.90011624128E+01 -0.13394984469E+03  0.18803757718E+03  0.12508411134E+03 0.  0.
          5    1    3    3  502    0 -0.24033899409E+02 -0.45331250464E+01  0.12397347372E+02  0.27737054013E+02  0.41800000000E+01 0.  1.
         -5    1    3    3    0  502  0.65125427808E+02 -0.44680373664E+01 -0.14634719206E+03  0.16030052317E+03  0.41800000000E+01 0.  1.
        -11    1    1    2    0    0  0.40668085165E+01 -0.25914974930E+02  0.14224799195E+02  0.29840740093E+02  0.00000000000E+00 0.  1.
         11    1    1    2    0    0 -0.45158336916E+02  0.34916137343E+02 -0.42980409915E+02  0.71454374789E+02  0.00000000000E+00 0. -1.
</event>
<event>
 7    1  0.2420569E-009  0.1182575E+03  0.7561462E-02  0.1246000E+00
         -2   -1    0    0    0  501 -0.00000000000E+00  0.00000000000E+00  0.31214886141E+02  0.31214886141E+02  0.00000000000E+00 0.  1.
          2   -1    0    0  501    0  0.00000000000E+00 -0.00000000000E+00 -0.65086278058E+03  0.65086278058E+03  0.00000000000E+00 0. -1.
         25    2    1    2    0    0 -0.15382161058E+02 -0.80734723699E+02 -0.43886969046E+03  0.46369049371E+03  0.12509021650E+03 0.  0.
          5    1    3    3  502    0 -0.52797274694E+02 -0.28618745407E+00 -0.97521690066E+02  0.11097561242E+03  0.41800000000E+01 0.  1.
         -5    1    3    3    0  502  0.37415113636E+02 -0.80448536245E+02 -0.34134800039E+03  0.35271488129E+03  0.41800000000E+01 0.  1.
        -11    1    1    2    0    0  0.29940069676E+02  0.31804456829E+02 -0.17057932095E+02  0.46892475876E+02  0.00000000000E+00 0.  1.
         11    1    1    2    0    0 -0.14557908619E+02  0.48930266870E+02 -0.16372027188E+03  0.17149469713E+03  0.00000000000E+00 0. -1.
</event>
<event>
 7    1  0.2420569E-009  0.1930755E+03  0.7561462E-02  0.1155716E+00
         -1   -1    0    0    0  501 -0.00000000000E+00  0.00000000000E+00  0.10011462570E+03  0.10011462570E+03  0.00000000000E+00 0.  1.
          1   -1    0    0  501    0  0.00000000000E+00 -0.00000000000E+00 -0.64569104079E+03  0.64569104079E+03  0.00000000000E+00 0. -1.
         25    2    1    2    0    0  0.13038191035E+03  0.94288575796E+02 -0.52155934049E+03  0.55996595896E+03  0.12509177219E+03 0.  0.
          5    1    3    3  502    0 -0.19806141104E+02  0.34861851769E+02 -0.13793413015E+03  0.14370430959E+03  0.41800000000E+01 0. -1.
         -5    1    3    3    0  502  0.15018805146E+03  0.59426724027E+02 -0.38362521034E+03  0.41626164937E+03  0.41800000000E+01 0. -1.
        -11    1    1    2    0    0 -0.20254921602E+02 -0.68127830340E+02 -0.10402628546E+02  0.71832289373E+02  0.00000000000E+00 0. -1.
         11    1    1    2    0    0 -0.11012698875E+03 -0.26160745456E+02 -0.13614446054E+02  0.11400741816E+03  0.00000000000E+00 0.  1.
</event>
<event>
 7    1  0.2420569E-009  0.1045538E+03  0.7561462E-02  0.1271001E+00
         -2   -1    0    0    0  501 -0.00000000000E+00  0.00000000000E+00  0.30292451266E+02  0.30292451266E+02  0.00000000000E+00 0.  1.
          2   -1    0    0  501    0  0.00000000000E+00 -0.00000000000E+00 -0.53737497467E+03  0.53737497467E+03  0.00000000000E+00 0. -1.
         25    2    1    2    0    0  0.51612462696E+01 -0.14587337547E+02 -0.13708296744E+03  0.18621167470E+03  0.12507445364E+03 0.  0.
          5    1    3    3  502    0  0.41962012122E+02  0.34787586188E+02 -0.29342658015E+02  0.62043940829E+02  0.41800000000E+01 0. -1.
         -5    1    3    3    0  502 -0.36800765852E+02 -0.49374923736E+02 -0.10774030942E+03  0.12416773387E+03  0.41800000000E+01 0. -1.
        -11    1    1    2    0    0  0.29239523484E+02 -0.26270048317E+02 -0.14982362359E+03  0.15489410369E+03  0.00000000000E+00 0.  1.
         11    1    1    2    0    0 -0.34400769753E+02  0.40857385864E+02 -0.22017593238E+03  0.22656164754E+03  0.00000000000E+00 0. -1.
</event>
<event>
 7    1  0.2420569E-009  0.1185409E+03  0.7561462E-02  0.1245524E+00
          2   -1    0    0  501    0  0.00000000000E+00  0.00000000000E+00  0.30006503950E+03  0.30006503950E+03  0.00000000000E+00 0. -1.
         -2   -1    0    0    0  501 -0.00000000000E+00 -0.00000000000E+00 -0.64746552892E+02  0.64746552892E+02  0.00000000000E+00 0.  1.
         25    2    1    2    0    0  0.18167958641E+02 -0.79643241449E+02  0.16404199981E+03  0.22187765546E+03  0.12508715226E+03 0.  0.
          5    1    3    3  502    0  0.44547555987E+02  0.15491717042E+02  0.32818809303E+02  0.57610977125E+02  0.41800000000E+01 0.  1.
         -5    1    3    3    0  502 -0.26379597346E+02 -0.95134958491E+02  0.13122319051E+03  0.16426667833E+03  0.41800000000E+01 0.  1.
        -11    1    1    2    0    0  0.88973661506E+01  0.49974369863E+02 -0.10494400940E+02  0.51833707360E+02  0.00000000000E+00 0.  1.
         11    1    1    2    0    0 -0.27065324791E+02  0.29668871586E+02  0.81770887738E+02  0.91100229575E+02  0.00000000000E+00 0. -1.
</event>
<event>
 7    1  0.2420569E-009  0.1207427E+03  0.7561462E-02  0.1241877E+00
         -2   -1    0    0    0  501 -0.00000000000E+00  0.00000000000E+00  0.12243104225E+03  0.12243104225E+03  0.00000000000E+00 0.  1.
          2   -1    0    0  501    0  0.00000000000E+00 -0.00000000000E+00 -0.49301299366E+03  0.49301299366E+03  0.00000000000E+00 0. -1.
         25    2    1    2    0    0  0.24481351575E+02 -0.13564822594E+02 -0.45553445691E+03  0.47322714216E+03  0.12509574596E+03 0.  0.
          5    1    3    3  502    0  0.64281494300E+02  0.27548580875E+02 -0.22468906646E+03  0.23535862807E+03  0.41800000000E+01 0. -1.
         -5    1    3    3    0  502 -0.39800142725E+02 -0.41113403470E+02 -0.23084539045E+03  0.23786851409E+03  0.41800000000E+01 0. -1.
        -11    1    1    2    0    0  0.12312568879E+02 -0.44022529207E+02  0.34747854274E+02  0.57419472366E+02  0.00000000000E+00 0.  1.
         11    1    1    2    0    0 -0.36793920454E+02  0.57587351801E+02  0.50204651225E+02  0.84797421390E+02  0.00000000000E+00 0. -1.
</event>
<event>
 7    1  0.2420569E-009  0.9947254E+02  0.7561462E-02  0.1281409E+00
          2   -1    0    0  501    0  0.00000000000E+00  0.00000000000E+00  0.22553126854E+03  0.22553126854E+03  0.00000000000E+00 0. -1.
         -2   -1    0    0    0  501 -0.00000000000E+00 -0.00000000000E+00 -0.86177270352E+02  0.86177270352E+02  0.00000000000E+00 0.  1.
         25    2    1    2    0    0 -0.14444487995E+02 -0.65635690063E+02  0.14045982459E+03  0.19973424340E+03  0.12509244030E+03 0.  0.
          5    1    3    3  502    0  0.19160233558E+02 -0.40360460003E+02 -0.78217565853E+01  0.45549243218E+02  0.41800000000E+01 0.  1.
         -5    1    3    3    0  502 -0.33604721553E+02 -0.25275230059E+02  0.14828158117E+03  0.15418500018E+03  0.41800000000E+01 0.  1.
        -11    1    1    2    0    0  0.21378627676E+02 -0.17967316191E+02  0.22539446712E+01  0.28016966985E+02  0.00000000000E+00 0.  1.
         11    1    1    2    0    0 -0.69341396816E+01  0.83603006254E+02 -0.33597710773E+01  0.83957328504E+02  0.00000000000E+00 0. -1.
</event>
<event>
 7    1  0.2420569E-009  0.9952635E+02  0.7561462E-02  0.1281295E+00
         -1   -1    0    0    0  501 -0.00000000000E+00  0.00000000000E+00  0.10860584560E+03  0.10860584560E+03  0.00000000000E+00 0.  1.
          1   -1    0    0  501    0  0.00000000000E+00 -0.00000000000E+00 -0.13128107461E+03  0.13128107461E+03  0.00000000000E+00 0. -1.
         25    2    1    2    0    0  0.76818873959E+01  0.54467152800E+00  0.36328042763E+02  0.13047643258E+03  0.12508023308E+03 0.  0.
          5    1    3    3  502    0  0.43798790424E+01  0.58974791604E+02 -0.37802185732E+01  0.59405149925E+02  0.41800000000E+01 0. -1.
         -5    1    3    3    0  502  0.33020083535E+01 -0.58430120076E+02  0.40108261336E+02  0.71071282658E+02  0.41800000000E+01 0. -1.
        -11    1    1    2    0    0 -0.42489833798E+02  0.11908305542E+02 -0.57407875275E+02  0.72407581514E+02  0.00000000000E+00 0. -1.
         11    1    1    2    0    0  0.34807946402E+02 -0.12452977070E+02 -0.15953965048E+01  0.37002906111E+02  0.00000000000E+00 0.  1.
</event>
<event>
 7    1  0.2420569E-009  0.7464702E+02  0.7561462E-02  0.1344968E+00
         -1   -1    0    0    0  501 -0.00000000000E+00  0.00000000000E+00  0.24937606394E+03  0.24937606394E+03  0.00000000000E+00 0.  1.
          1   -1    0    0  501    0  0.00000000000E+00 -0.00000000000E+00 -0.51662687648E+02  0.51662687648E+02  0.00000000000E+00 0. -1.
         25    2    1    2    0    0  0.31973909475E+02 -0.74135948807E+01  0.12095674700E+03  0.17707413599E+03  0.12508965871E+03 0.  0.
          5    1    3    3  502    0 -0.40545526095E+01 -0.24364311966E+02 -0.19040110110E+02  0.31465175790E+02  0.41800000000E+01 0.  1.
         -5    1    3    3    0  502  0.36028462084E+02  0.16950717086E+02  0.13999685711E+03  0.14560896020E+03  0.41800000000E+01 0.  1.
        -11    1    1    2    0    0 -0.34849906100E+01 -0.33869870219E+02  0.63549013416E+02  0.72095702884E+02  0.00000000000E+00 0.  1.
         11    1    1    2    0    0 -0.28488918865E+02  0.41283465100E+02  0.13207615872E+02  0.51868912710E+02  0.00000000000E+00 0. -1.
</event>
<event>
 7    1  0.2420569E-009  0.1213090E+03  0.7561462E-02  0.1240953E+00
         -1   -1    0    0    0  501 -0.00000000000E+00  0.00000000000E+00  0.42994045218E+02  0.42994045218E+02  0.00000000000E+00 0.  1.
          1   -1    0    0  501    0  0.00000000000E+00 -0.00000000000E+00 -0.46748379820E+03  0.46748379820E+03  0.00000000000E+00 0. -1.
         25    2    1    2    0    0 -0.62075286267E+02 -0.64808657833E+02 -0.27495799595E+03  0.31512432541E+03  0.12509171687E+03 0.  0.
          5    1    3    3  502    0 -0.17487370302E+02  0.36253679807E+02 -0.10341144618E+03  0.11104745391E+03  0.41800000000E+01 0. -1.
         -5    1    3    3    0  502 -0.44587915965E+02 -0.10106233764E+03 -0.17154654977E+03  0.20407687149E+03  0.41800000000E+01 0. -1.
        -11    1    1    2    0    0  0.16432665693E+02  0.30012582215E+02 -0.13046256619E+03  0.13487501166E+03  0.00000000000E+00 0. -1.
         11    1    1    2    0    0  0.45642620575E+02  0.34796075618E+02 -0.19069190836E+02  0.60478506351E+02  0.00000000000E+00 0.  1.
</event>
<event>
 7    1  0.2420569E-009  0.1652738E+03  0.7561462E-02  0.1182868E+00
         -2   -1    0    0    0  501 -0.00000000000E+00  0.00000000000E+00  0.11675111353E+03  0.11675111353E+03  0.00000000000E+00 0.  1.
          2   -1    0    0  501    0  0.00000000000E+00 -0.00000000000E+00 -0.35708109036E+03  0.35708109036E+03  0.00000000000E+00 0. -1.
         25    2    1    2    0    0 -0.13346412562E+03  0.36662103996E+02 -0.24267513940E+03  0.30609555931E+03  0.12508591226E+03 0.  0.
          5    1    3    3  502    0 -0.36720856251E+01 -0.30042908893E+02 -0.89146051005E+02  0.94236677559E+02  0.41800000000E+01 0.  1.
         -5    1    3    3    0  502 -0.12979204000E+03  0.66705012888E+02 -0.15352908840E+03  0.21185888175E+03  0.41800000000E+01 0.  1.
        -11    1    1    2    0    0  0.12657460138E+03 -0.10567095850E+02  0.28478572752E+02  0.13016843832E+03  0.00000000000E+00 0.  1.
         11    1    1    2    0    0  0.68895242479E+01 -0.26095008146E+02 -0.26133410180E+02  0.37568206267E+02  0.00000000000E+00 0. -1.
</event>
<event>
 7    1  0.2420569E-009  0.9406482E+02  0.7561462E-02  0.1293296E+00
         -2   -1    0    0    0  501 -0.00000000000E+00  0.00000000000E+00  0.11639022765E+03  0.11639022765E+03  0.00000000000E+00 0.  1.
          2   -1    0    0  501    0  0.00000000000E+00 -0.00000000000E+00 -0.11272113055E+03  0.11272113055E+03  0.00000000000E+00 0. -1.
         25    2    1    2    0    0 -0.30134121163E+02 -0.16716066639E+02 -0.68756428020E+01  0.12993802920E+03  0.12509646209E+03 0.  0.
          5    1    3    3  502    0 -0.22749383667E+01  0.50150597434E+02 -0.23362923858E+02  0.55529779207E+02  0.41800000000E+01 0. -1.
         -5    1    3    3    0  502 -0.27859182797E+02 -0.66866664073E+02  0.16487281056E+02  0.74408249993E+02  0.41800000000E+01 0. -1.
        -11    1    1    2    0    0 -0.15115399409E+02  0.12745383777E+02 -0.31556914651E+02  0.37239212790E+02  0.00000000000E+00 0. -1.
         11    1    1    2    0    0  0.45249520572E+02  0.39706828619E+01  0.42101654551E+02  0.61934116207E+02  0.00000000000E+00 0.  1.
</event>
<event>
 7    1  0.2420569E-009  0.6974372E+02  0.7561462E-02  0.1360967E+00
          2   -1    0    0  501    0  0.00000000000E+00  0.00000000000E+00  0.31189691206E+03  0.31189691206E+03  0.00000000000E+00 0.  1.
         -2   -1    0    0    0  501 -0.00000000000E+00 -0.00000000000E+00 -0.36741376324E+02  0.36741376324E+02  0.00000000000E+00 0. -1.
         25    2    1    2    0    0 -0.37131845940E+02 -0.39734480811E+01  0.14834234153E+03  0.19760034747E+03  0.12508351113E+03 0.  0.
          5    1    3    3  502    0  0.17882615521E+02  0.14934455998E+02 -0.12316139430E+02  0.26683058375E+02  0.41800000000E+01 0.  1.
         -5    1    3    3    0  502 -0.55014461461E+02 -0.18907904079E+02  0.16065848096E+03  0.17091728909E+03  0.41800000000E+01 0.  1.
        -11    1    1    2    0    0  0.26745968094E+01 -0.16964375326E+02 -0.81407372159E+00  0.17193202561E+02  0.00000000000E+00 0. -1.
         11    1    1    2    0    0  0.34457249131E+02  0.20937823407E+02  0.12762726793E+03  0.13384473836E+03  0.00000000000E+00 0.  1.
</event>
<event>
 7    1  0.2420569E-009  0.1389467E+03  0.7561462E-02  0.1214753E+00
          2   -1    0    0  501    0  0.00000000000E+00  0.00000000000E+00  0.39077996782E+03  0.39077996782E+03  0.00000000000E+00 0. -1.
         -2   -1    0    0    0  501 -0.00000000000E+00 -0.00000000000E+00 -0.98250685448E+02  0.98250685448E+02  0.00000000000E+00 0.  1.
         25    2    1    2    0    0 -0.69591116579E+02 -0.89480721907E+02  0.29889356218E+03  0.34327128909E+03  0.12509233909E+03 0.  0.
          5    1    3    3  502    0  0.18610716520E+02 -0.86179418091E+01  0.15351116301E+03  0.15493152442E+03  0.41800000000E+01 0.  1.
         -5    1    3    3    0  502 -0.88201833099E+02 -0.80862780098E+02  0.14538239917E+03  0.18833976467E+03  0.41800000000E+01 0.  1.
        -11    1    1    2    0    0  0.16797437292E+02  0.82245329743E+02 -0.27647718452E+02  0.88378982228E+02  0.00000000000E+00 0. -1.
         11    1    1    2    0    0  0.52793679287E+02  0.72353921643E+01  0.21283438644E+02  0.57380381952E+02  0.00000000000E+00 0.  1.
</event>
<event>
 7    1  0.2420569E-009  0.1211510E+03  0.7561462E-02  0.1241210E+00
          1   -1    0    0  501    0  0.00000000000E+00  0.00000000000E+00  0.20535406874E+02  0.20535406874E+02  0.00000000000E+00 0. -1.
         -1   -1    0    0    0  501 -0.00000000000E+00 -0.00000000000E+00 -0.75972838246E+03  0.75972838246E+03  0.00000000000E+00 0.  1.
         25    2    1    2    0    0 -0.53770408499E+02  0.19554486569E+02 -0.49660191010E+03  0.51530068952E+03  0.12509080194E+03 0.  0.
          5    1    3    3  502    0 -0.84548709406E+02  0.45079270400E+02 -0.31373812746E+03  0.32806967234E+03  0.41800000000E+01 0. -1.
         -5    1    3    3    0  502  0.30778300907E+02 -0.25524783831E+02 -0.18286378264E+03  0.18723101719E+03  0.41800000000E+01 0. -1.
        -11    1    1    2    0    0 -0.61962007340E+01  0.28612790134E+02 -0.77093077361E+02  0.82464702994E+02  0.00000000000E+00 0. -1.
         11    1    1    2    0    0  0.59966609233E+02 -0.48167276703E+02 -0.16549798812E+03  0.18249839681E+03  0.00000000000E+00 0.  1.
</event>
<event>
 7    1  0.2420569E-009  0.1035272E+03  0.7561462E-02  0.1273049E+00
         -2   -1    0    0    0  501 -0.00000000000E+00  0.00000000000E+00  0.75198439812E+02  0.75198439812E+02  0.00000000000E+00 0. -1.
          2   -1    0    0  501    0  0.00000000000E+00 -0.00000000000E+00 -0.23435070683E+03  0.23435070683E+03  0.00000000000E+00 0.  1.
         25    2    1    2    0    0 -0.25370169312E+02 -0.15009044906E+02 -0.16948411916E+03  0.21269715903E+03  0.12508516256E+03 0.  0.
          5    1    3    3  502    0 -0.67990853583E+02 -0.28395780164E+02 -0.62589937285E+02  0.96768017193E+02  0.41800000000E+01 0. -1.
         -5    1    3    3    0  502  0.42620684270E+02  0.13386735258E+02 -0.10689418188E+03  0.11592914184E+03  0.41800000000E+01 0. -1.
        -11    1    1    2    0    0  0.50564882270E+02 -0.11454599706E+02 -0.13061397845E+02  0.53466019929E+02  0.00000000000E+00 0.  1.
         11    1    1    2    0    0 -0.25194712958E+02  0.26463644611E+02  0.23393249984E+02  0.43385967685E+02  0.00000000000E+00 0. -1.
</event>
<event>
 7    1  0.2420569E-009  0.1157236E+03  0.7561462E-02  0.1250323E+00
         -1   -1    0    0    0  501 -0.00000000000E+00  0.00000000000E+00  0.36495912284E+02  0.36495912284E+02  0.00000000000E+00 0.  1.
          1   -1    0    0  501    0  0.00000000000E+00 -0.00000000000E+00 -0.58428131008E+03  0.58428131008E+03  0.00000000000E+00 0. -1.
         25    2    1    2    0    0 -0.94587105556E+02 -0.79408882657E+00 -0.25618100313E+03  0.30037244378E+03  0.12509015750E+03 0.  0.
          5    1    3    3  502    0 -0.96154436277E+02 -0.32156703853E+02 -0.10543706825E+03  0.14633583628E+03  0.41800000000E+01 0. -1.
         -5    1    3    3    0  502  0.15673307208E+01  0.31362615027E+02 -0.15074393488E+03  0.15403660750E+03  0.41800000000E+01 0. -1.
        -11    1    1    2    0    0  0.23562156621E+02 -0.11489146967E+02 -0.74516223626E+01  0.27252566824E+02  0.00000000000E+00 0.  1.
         11    1    1    2    0    0  0.71024948935E+02  0.12283235793E+02 -0.28415277231E+03  0.29315221177E+03  0.00000000000E+00 0. -1.
</event>
<event>
 7    1  0.2420569E-009  0.1337444E+03  0.7561462E-02  0.1222003E+00
         -1   -1    0    0    0  501 -0.00000000000E+00  0.00000000000E+00  0.16407750619E+03  0.16407750619E+03  0.00000000000E+00 0.  1.
          1   -1    0    0  501    0  0.00000000000E+00 -0.00000000000E+00 -0.20569474692E+03  0.20569474692E+03  0.00000000000E+00 0. -1.
         25    2    1    2    0    0 -0.29103114538E+02  0.73223803396E+02  0.10359764155E+03  0.18052458970E+03  0.12509172432E+03 0.  0.
          5    1    3    3  502    0  0.26871297941E+02  0.85229805828E+02  0.52845988090E+02  0.10390552108E+03  0.41800000000E+01 0. -1.
         -5    1    3    3    0  502 -0.55974412479E+02 -0.12006002432E+02  0.50751653462E+02  0.76619068618E+02  0.41800000000E+01 0. -1.
        -11    1    1    2    0    0  0.40485654145E+02 -0.90953257760E+02 -0.11137827627E+03  0.14938776293E+03  0.00000000000E+00 0.  1.
         11    1    1    2    0    0 -0.11382539607E+02  0.17729454363E+02 -0.33836606005E+02  0.39859900475E+02  0.00000000000E+00 0. -1.
</event>
<event>
 7    1  0.2420569E-009  0.9276995E+02  0.7561462E-02  0.1296279E+00
         -3   -1    0    0    0  501 -0.00000000000E+00  0.00000000000E+00  0.20312899735E+03  0.20312899735E+03  0.00000000000E+00 0.  1.
          3   -1    0    0  501    0  0.00000000000E+00 -0.00000000000E+00 -0.86314442810E+02  0.86314442810E+02  0.00000000000E+00 0. -1.
         25    2    1    2    0    0 -0.46574197064E+02  0.34725545892E+00  0.12849156553E+03  0.18527526616E+03  0.12509022912E+03 0.  0.
          5    1    3    3  502    0  0.10000280346E+02 -0.28083191961E+02 -0.10984202228E+02  0.32043663591E+02  0.41800000000E+01 0. -1.
         -5    1    3    3    0  502 -0.56574477410E+02  0.28430447420E+02  0.13947576776E+03  0.15323160257E+03  0.41800000000E+01 0. -1.
        -11    1    1    2    0    0  0.43983485784E+02 -0.35630907688E+02 -0.30281900765E+02  0.64195810754E+02  0.00000000000E+00 0. -1.
         11    1    1    2    0    0  0.25907112791E+01  0.35283652229E+02  0.18604889767E+02  0.39972363238E+02  0.00000000000E+00 0.  1.
</event>
<event>
 7    1  0.2420569E-009  0.7718170E+02  0.7561462E-02  0.1337245E+00
         -1   -1    0    0    0  501 -0.00000000000E+00  0.00000000000E+00  0.81866841411E+02  0.81866841411E+02  0.00000000000E+00 0.  1.
          1   -1    0    0  501    0  0.00000000000E+00 -0.00000000000E+00 -0.24784579128E+03  0.24784579128E+03  0.00000000000E+00 0. -1.
         25    2    1    2    0    0 -0.24334669954E+02 -0.98234279926E+01 -0.19319581005E+03  0.23164805125E+03  0.12509005848E+03 0.  0.
          5    1    3    3  502    0  0.25737701455E+02  0.14409251865E+02  0.78860285275E+00  0.29801847425E+02  0.41800000000E+01 0. -1.
         -5    1    3    3    0  502 -0.50072371409E+02 -0.24232679857E+02 -0.19398441290E+03  0.20184620383E+03  0.41800000000E+01 0. -1.
        -11    1    1    2    0    0  0.46048194387E+02  0.97720898721E+01  0.48550395703E+02  0.67624484247E+02  0.00000000000E+00 0.  1.
         11    1    1    2    0    0 -0.21713524432E+02  0.51338120517E-01 -0.21333535522E+02  0.30440097187E+02  0.00000000000E+00 0. -1.
</event>
<event>
 7    1  0.2420569E-009  0.1386173E+03  0.7561462E-02  0.1215202E+00
         -1   -1    0    0    0  501 -0.00000000000E+00  0.00000000000E+00  0.23694419174E+02  0.23694419174E+02  0.00000000000E+00 0.  1.
          1   -1    0    0  501    0  0.00000000000E+00 -0.00000000000E+00 -0.11556163849E+04  0.11556163849E+04  0.00000000000E+00 0. -1.
         25    2    1    2    0    0  0.65787090482E+02 -0.88740669439E+02 -0.80069881472E+03  0.81790487091E+03  0.12508772235E+03 0.  0.
          5    1    3    3  502    0 -0.16168134680E+02 -0.82813810224E+02 -0.42153758865E+03  0.42991969807E+03  0.41800000000E+01 0.  1.
         -5    1    3    3    0  502  0.81955225162E+02 -0.59268592147E+01 -0.37916122607E+03  0.38798517285E+03  0.41800000000E+01 0.  1.
        -11    1    1    2    0    0 -0.23973533672E+02  0.31044397997E+02 -0.23902030393E+02  0.45932472398E+02  0.00000000000E+00 0.  1.
         11    1    1    2    0    0 -0.41813556810E+02  0.57696271443E+02 -0.30732112061E+03  0.31547346077E+03  0.00000000000E+00 0. -1.
</event>
<event>
 7    1  0.2420569E-009  0.1689902E+03  0.7561462E-02  0.1178905E+00
         -2   -1    0    0    0  501 -0.00000000000E+00  0.00000000000E+00  0.82626467618E+02  0.82626467618E+02  0.00000000000E+00 0.  1.
          2   -1    0    0  501    0  0.00000000000E+00 -0.00000000000E+00 -0.72148931999E+03  0.72148931999E+03  0.00000000000E+00 0. -1.
         25    2    1    2    0    0 -0.13093134472E+02 -0.14436859074E+03 -0.59769255303E+03  0.62761234304E+03  0.12508854876E+03 0.  0.
          5    1    3    3  502    0 -0.33988668785E+02 -0.15668745748E+03 -0.44656274832E+03  0.47449125337E+03  0.41800000000E+01 0. -1.
         -5    1    3    3    0  502  0.20895534313E+02  0.12318866737E+02 -0.15112980470E+03  0.15312108967E+03  0.41800000000E+01 0. -1.
        -11    1    1    2    0    0 -0.18749164586E+02  0.51897315206E+02 -0.54787973324E+02  0.77759787289E+02  0.00000000000E+00 0. -1.
         11    1    1    2    0    0  0.31842299058E+02  0.92471275534E+02  0.13617673978E+02  0.98743657278E+02  0.00000000000E+00 0.  1.
</event>
<event>
 7    1  0.2420569E-009  0.1132576E+03  0.7561462E-02  0.1254654E+00
          2   -1    0    0  501    0  0.00000000000E+00  0.00000000000E+00  0.93152758325E+03  0.93152758325E+03  0.00000000000E+00 0.  1.
         -2   -1    0    0    0  501 -0.00000000000E+00 -0.00000000000E+00 -0.77428908139E+02  0.77428908139E+02  0.00000000000E+00 0. -1.
         25    2    1    2    0    0  0.58718114336E+02 -0.19685695774E+02  0.88674365571E+03  0.89766190809E+03  0.12508895530E+03 0.  0.
          5    1    3    3  502    0  0.54914707797E+00 -0.56531917465E+02  0.60275514707E+03  0.60541506338E+03  0.41800000000E+01 0. -1.
         -5    1    3    3    0  502  0.58168967258E+02  0.36846221691E+02  0.28398850864E+03  0.29224684471E+03  0.41800000000E+01 0. -1.
        -11    1    1    2    0    0  0.73004796873E+01  0.32741445979E+02  0.54161737027E+01  0.33979909153E+02  0.00000000000E+00 0.  1.
         11    1    1    2    0    0 -0.66018594023E+02 -0.13055750205E+02 -0.38061154302E+02  0.77314674137E+02  0.00000000000E+00 0. -1.
</event>
<event>
 7    1  0.2420569E-009  0.8627427E+02  0.7561462E-02  0.1312133E+00
          1   -1    0    0  501    0  0.00000000000E+00  0.00000000000E+00  0.26355526123E+02  0.26355526123E+02  0.00000000000E+00 0. -1.
         -1   -1    0    0    0  501 -0.00000000000E+00 -0.00000000000E+00 -0.60006125799E+03  0.60006125799E+03  0.00000000000E+00 0.  1.
         25    2    1    2    0    0 -0.83243305674E+01 -0.57359942564E+02 -0.25970773474E+03  0.29403756293E+03  0.12510205210E+03 0.  0.
          5    1    3    3  502    0 -0.18987047237E+02 -0.27686942018E+02 -0.26003786131E+03  0.26222935846E+03  0.41800000000E+01 0.  1.
         -5    1    3    3    0  502  0.10662716670E+02 -0.29673000546E+02  0.33012657232E+00  0.31808204472E+02  0.41800000000E+01 0.  1.
        -11    1    1    2    0    0  0.31237292886E+02  0.72842263466E+02 -0.25843045537E+03  0.27031105060E+03  0.00000000000E+00 0. -1.
         11    1    1    2    0    0 -0.22912962318E+02 -0.15482320901E+02 -0.55567541756E+02  0.62068170583E+02  0.00000000000E+00 0.  1.
</event>
<event>
 7    1  0.2420569E-009  0.1133075E+03  0.7561462E-02  0.1254565E+00
         -1   -1    0    0    0  501 -0.00000000000E+00  0.00000000000E+00  0.23029616100E+02  0.23029616100E+02  0.00000000000E+00 0.  1.
          1   -1    0    0  501    0  0.00000000000E+00 -0.00000000000E+00 -0.81496753041E+03  0.81496753041E+03  0.00000000000E+00 0. -1.
         25    2    1    2    0    0  0.13765014343E+02 -0.64836750205E+02 -0.58269100139E+03  0.59963905150E+03  0.12507961139E+03 0.  0.
          5    1    3    3  502    0  0.11962596351E+01 -0.92801671116E+02 -0.27235710438E+03  0.28776630432E+03  0.41800000000E+01 0.  1.
         -5    1    3    3    0  502  0.12568754708E+02  0.27964920911E+02 -0.31033389702E+03  0.31187274718E+03  0.41800000000E+01 0.  1.
        -11    1    1    2    0    0 -0.27341805975E+02 -0.81491362055E+01 -0.11444525375E+03  0.11794786510E+03  0.00000000000E+00 0. -1.
         11    1    1    2    0    0  0.13576791633E+02  0.72985886411E+02 -0.94801659167E+02  0.12041022991E+03  0.00000000000E+00 0.  1.
</event>
<event>
 7    1  0.2420569E-009  0.1368319E+03  0.7561462E-02  0.1217657E+00
         -2   -1    0    0    0  501 -0.00000000000E+00  0.00000000000E+00  0.16714288506E+03  0.16714288506E+03  0.00000000000E+00 0.  1.
          2   -1    0    0  501    0  0.00000000000E+00 -0.00000000000E+00 -0.21144517630E+03  0.21144517630E+03  0.00000000000E+00 0. -1.
         25    2    1    2    0    0  0.70461031609E+01 -0.11623994671E+03  0.76555648556E+02  0.18726242571E+03  0.12508027812E+03 0.  0.
          5    1    3    3  502    0 -0.43002306565E+02 -0.27028593731E+02 -0.11479272199E+02  0.52239729510E+02  0.41800000000E+01 0. -1.
         -5    1    3    3    0  502  0.50048409726E+02 -0.89211352981E+02  0.88034920755E+02  0.13502269620E+03  0.41800000000E+01 0. -1.
        -11    1    1    2    0    0  0.12007140398E+02  0.42681948752E+02  0.46772807798E+01  0.44584718517E+02  0.00000000000E+00 0.  1.
         11    1    1    2    0    0 -0.19053243559E+02  0.73557997961E+02 -0.12553522058E+03  0.14674091713E+03  0.00000000000E+00 0. -1.
</event>
<event>
 7    1  0.2420569E-009  0.1865022E+03  0.7561462E-02  0.1161654E+00
          4   -1    0    0  501    0  0.00000000000E+00  0.00000000000E+00  0.16801347706E+04  0.16801347706E+04  0.00000000000E+00 0. -1.
         -4   -1    0    0    0  501 -0.00000000000E+00 -0.00000000000E+00 -0.21008306520E+02  0.21008306520E+02  0.00000000000E+00 0.  1.
         25    2    1    2    0    0  0.14042370053E+03  0.58005831907E+02  0.93775029565E+03  0.95817872507E+03  0.12508940798E+03 0.  0.
          5    1    3    3  502    0  0.15548106370E+01  0.57250935668E+02  0.30437165253E+03  0.30974128291E+03  0.41800000000E+01 0.  1.
         -5    1    3    3    0  502  0.13886888990E+03  0.75489623914E+00  0.63337864311E+03  0.64843744216E+03  0.41800000000E+01 0.  1.
        -11    1    1    2    0    0 -0.71306885333E+02  0.18374313236E+02  0.25983371795E+03  0.27006637752E+03  0.00000000000E+00 0.  1.
         11    1    1    2    0    0 -0.69116815199E+02 -0.76380145144E+02  0.46154245047E+03  0.47289797452E+03  0.00000000000E+00 0. -1.
</event>
<event>
 7    1  0.2420569E-009  0.1069366E+03  0.7561462E-02  0.1266350E+00
         -1   -1    0    0    0  501 -0.00000000000E+00  0.00000000000E+00  0.10270913424E+04  0.10270913424E+04  0.00000000000E+00 0.  1.
          1   -1    0    0  501    0  0.00000000000E+00 -0.00000000000E+00 -0.14537536587E+02  0.14537536587E+02  0.00000000000E+00 0. -1.
         25    2    1    2    0    0  0.36871723803E+01 -0.36451534917E+02  0.75645993682E+03  0.76760769573E+03  0.12509048277E+03 0.  0.
          5    1    3    3  502    0 -0.23479129497E+02  0.39680611811E+02  0.19977802936E+03  0.20507206999E+03  0.41800000000E+01 0.  1.
         -5    1    3    3    0  502  0.27166301877E+02 -0.76132146728E+02  0.55668190746E+03  0.56253562573E+03  0.41800000000E+01 0.  1.
        -11    1    1    2    0    0  0.30963391378E+02 -0.63074721103E+01  0.39712836587E+02  0.50750617728E+02  0.00000000000E+00 0. -1.
         11    1    1    2    0    0 -0.34650563758E+02  0.42759007027E+02  0.21638103245E+03  0.22327056558E+03  0.00000000000E+00 0.  1.
</event>
<event>
 7    1  0.2420569E-009  0.1211942E+03  0.7561462E-02  0.1241140E+00
          2   -1    0    0  501    0  0.00000000000E+00  0.00000000000E+00  0.78695809675E+02  0.78695809675E+02  0.00000000000E+00 0. -1.
         -2   -1    0    0    0  501 -0.00000000000E+00 -0.00000000000E+00 -0.19916743092E+03  0.19916743092E+03  0.00000000000E+00 0.  1.
         25    2    1    2    0    0 -0.60311288552E+02  0.19298250042E+02 -0.67561187108E+02  0.15562940891E+03  0.12508447119E+03 0.  0.
          5    1    3    3  502    0 -0.97451732701E+02 -0.69571851526E+00 -0.51476087757E+02  0.11029317405E+03  0.41800000000E+01 0. -1.
         -5    1    3    3    0  502  0.37140444149E+02  0.19993968557E+02 -0.16085099351E+02  0.45336234861E+02  0.41800000000E+01 0. -1.
        -11    1    1    2    0    0  0.38011864515E+02 -0.51056281853E+02 -0.53912403318E+02  0.83415783831E+02  0.00000000000E+00 0.  1.
         11    1    1    2    0    0  0.22299424037E+02  0.31758031811E+02  0.10019691836E+01  0.38818047854E+02  0.00000000000E+00 0. -1.
</event>
<event>
 7    1  0.2420569E-009  0.1490709E+03  0.7561462E-02  0.1201619E+00
          1   -1    0    0  501    0  0.00000000000E+00  0.00000000000E+00  0.42469989757E+03  0.42469989757E+03  0.00000000000E+00 0. -1.
         -1   -1    0    0    0  501 -0.00000000000E+00 -0.00000000000E+00 -0.71722107244E+02  0.71722107244E+02  0.00000000000E+00 0.  1.
         25    2    1    2    0    0  0.62921988702E+02  0.11538506337E+03  0.23813883626E+03  0.29938310671E+03  0.12508896729E+03 0.  0.
          5    1    3    3  502    0  0.48001589373E+02  0.41963813589E+02  0.20956372820E+03  0.21908797961E+03  0.41800000000E+01 0. -1.
         -5    1    3    3    0  502  0.14920399329E+02  0.73421249778E+02  0.28575108063E+02  0.80295127099E+02  0.41800000000E+01 0. -1.
        -11    1    1    2    0    0  0.17361472471E+02  0.14791837232E+01  0.64848311914E+01  0.18591980703E+02  0.00000000000E+00 0.  1.
         11    1    1    2    0    0 -0.80283461173E+02 -0.11686424709E+03  0.10835412287E+03  0.17844691740E+03  0.00000000000E+00 0. -1.
</event>
<event>
 7    1  0.2420569E-009  0.1384695E+03  0.7561462E-02  0.1215403E+00
         -2   -1    0    0    0  501 -0.00000000000E+00  0.00000000000E+00  0.48045277964E+02  0.48045277964E+02  0.00000000000E+00 0.  1.
          2   -1    0    0  501    0  0.00000000000E+00 -0.00000000000E+00 -0.45143576448E+03  0.45143576448E+03  0.00000000000E+00 0. -1.
         25    2    1    2    0    0 -0.59327744467E+02 -0.74674420833E+02 -0.24477557733E+03  0.29095994708E+03  0.12508619892E+03 0.  0.
          5    1    3    3  502    0 -0.97058791788E+02 -0.66330362104E+02 -0.17070590664E+03  0.20731161319E+03  0.41800000000E+01 0. -1.
         -5    1    3    3    0  502  0.37731047321E+02 -0.83440587290E+01 -0.74069670687E+02  0.83648333897E+02  0.41800000000E+01 0. -1.
        -11    1    1    2    0    0  0.73529178295E+02  0.76513904276E+02 -0.92189455921E+02  0.14056960337E+03  0.00000000000E+00 0.  1.
         11    1    1    2    0    0 -0.14201433828E+02 -0.18394834431E+01 -0.66425453268E+02  0.67951491992E+02  0.00000000000E+00 0. -1.
</event>
<event>
 7    1  0.2420569E-009  0.6856210E+02  0.7561462E-02  0.1365052E+00
         -2   -1    0    0    0  501 -0.00000000000E+00  0.00000000000E+00  0.30542402454E+02  0.30542402454E+02  0.00000000000E+00 0. -1.
          2   -1    0    0  501    0  0.00000000000E+00 -0.00000000000E+00 -0.59545539312E+03  0.59545539312E+03  0.00000000000E+00 0.  1.
         25    2    1    2    0    0 -0.29156884335E+02 -0.21225868799E+02 -0.47538577952E+03  0.49288933020E+03  0.12509033153E+03 0.  0.
          5    1    3    3  502    0 -0.35818754017E+02  0.24978338913E+02 -0.41055043091E+03  0.41288742930E+03  0.41800000000E+01 0. -1.
         -5    1    3    3    0  502  0.66618696820E+01 -0.46204207711E+02 -0.64835348613E+02  0.80001900900E+02  0.41800000000E+01 0. -1.
        -11    1    1    2    0    0 -0.23910663291E+01  0.13762954914E+02  0.16857927413E+02  0.21893511432E+02  0.00000000000E+00 0. -1.
         11    1    1    2    0    0  0.31547950664E+02  0.74629138847E+01 -0.10638513856E+03  0.11121495394E+03  0.00000000000E+00 0.  1.
</event>
<event>
 7    1  0.2420569E-009  0.1532345E+03  0.7561462E-02  0.1196554E+00
          2   -1    0    0  501    0  0.00000000000E+00  0.00000000000E+00  0.52986707114E+03  0.52986707114E+03  0.00000000000E+00 0. -1.
         -2   -1    0    0    0  501 -0.00000000000E+00 -0.00000000000E+00 -0.60976672762E+02  0.60976672762E+02  0.00000000000E+00 0.  1.
         25    2    1    2    0    0 -0.11302156805E+03 -0.87923433181E+01  0.39091905833E+03  0.42581307347E+03  0.12509149940E+03 0.  0.
          5    1    3    3  502    0 -0.12913734573E+03 -0.37072547188E+02  0.28877680030E+03  0.31852839843E+03  0.41800000000E+01 0. -1.
         -5    1    3    3    0  502  0.16115777677E+02  0.28280203870E+02  0.10214225803E+03  0.10728467503E+03  0.41800000000E+01 0. -1.
        -11    1    1    2    0    0  0.32467328721E+02 -0.34838743386E+02  0.49515136512E+01  0.47878836268E+02  0.00000000000E+00 0.  1.
         11    1    1    2    0    0  0.80554239334E+02  0.43631086704E+02  0.73019826394E+02  0.11715183417E+03  0.00000000000E+00 0. -1.
</event>
<event>
 7    1  0.2420569E-009  0.1272325E+03  0.7561462E-02  0.1231621E+00
          1   -1    0    0  501    0  0.00000000000E+00  0.00000000000E+00  0.83817024766E+02  0.83817024766E+02  0.00000000000E+00 0. -1.
         -1   -1    0    0    0  501 -0.00000000000E+00 -0.00000000000E+00 -0.20205373829E+03  0.20205373829E+03  0.00000000000E+00 0.  1.
         25    2    1    2    0    0  0.56745481358E+02 -0.35879455834E+02 -0.39983671863E+02  0.14748960910E+03  0.12508839183E+03 0.  0.
          5    1    3    3  502    0 -0.63335622544E-01  0.42968765250E+02 -0.22416273499E+02  0.48644429446E+02  0.41800000000E+01 0.  1.
         -5    1    3    3    0  502  0.56808816981E+02 -0.78848221084E+02 -0.17567398364E+02  0.98845179651E+02  0.41800000000E+01 0.  1.
        -11    1    1    2    0    0 -0.55068363570E+02 -0.19648407239E+02 -0.43144555139E+02  0.72663864551E+02  0.00000000000E+00 0. -1.
         11    1    1    2    0    0 -0.16771177884E+01  0.55527863073E+02 -0.35108486526E+02  0.65717289412E+02  0.00000000000E+00 0.  1.
</event>
<event>
 7    1  0.2420569E-009  0.1022474E+03  0.7561462E-02  0.1275640E+00
          2   -1    0    0  501    0  0.00000000000E+00  0.00000000000E+00  0.74978789887E+02  0.74978789887E+02  0.00000000000E+00 0. -1.
         -2   -1    0    0    0  501 -0.00000000000E+00 -0.00000000000E+00 -0.18359596621E+03  0.18359596621E+03  0.00000000000E+00 0.  1.
         25    2    1    2    0    0  0.33267034566E+02 -0.26118158470E+01 -0.95024366329E+02  0.16059943863E+03  0.12509609235E+03 0.  0.
          5    1    3    3  502    0  0.65973126380E+02 -0.34529128334E+02 -0.85994079491E+02  0.11382955774E+03  0.41800000000E+01 0. -1.
         -5    1    3    3    0  502 -0.32706091814E+02  0.31917312487E+02 -0.90302868386E+01  0.46769880891E+02  0.41800000000E+01 0. -1.
        -11    1    1    2    0    0 -0.60149589319E+01  0.38497311588E+02 -0.30875316084E+02  0.49714262277E+02  0.00000000000E+00 0.  1.
         11    1    1    2    0    0 -0.27252075634E+02 -0.35885495741E+02  0.17282506092E+02  0.48261055187E+02  0.00000000000E+00 0. -1.
</event>
<event>
 7    1  0.2420569E-009  0.1077114E+03  0.7561462E-02  0.1264868E+00
         -4   -1    0    0    0  501 -0.00000000000E+00  0.00000000000E+00  0.38493478684E+03  0.38493478684E+03  0.00000000000E+00 0.  1.
          4   -1    0    0  501    0  0.00000000000E+00 -0.00000000000E+00 -0.43026394951E+02  0.43026394951E+02  0.00000000000E+00 0. -1.
         25    2    1    2    0    0  0.83285078868E+01  0.47570063730E+02  0.10761241414E+03  0.17193139520E+03  0.12509075894E+03 0.  0.
          5    1    3    3  502    0  0.60123539359E+02  0.20263547493E+02  0.90837969081E+02  0.11088038767E+03  0.41800000000E+01 0. -1.
         -5    1    3    3    0  502 -0.51795031472E+02  0.27306516237E+02  0.16774445054E+02  0.61051007535E+02  0.41800000000E+01 0. -1.
        -11    1    1    2    0    0  0.56618213378E+01  0.21721735328E+02  0.11656366495E+03  0.11870542529E+03  0.00000000000E+00 0.  1.
         11    1    1    2    0    0 -0.13990329225E+02 -0.69291799058E+02  0.11773231280E+03  0.13732436130E+03  0.00000000000E+00 0. -1.
</event>
<event>
 7    1  0.2420569E-009  0.1091769E+03  0.7561462E-02  0.1262102E+00
          1   -1    0    0  501    0  0.00000000000E+00  0.00000000000E+00  0.48189217990E+02  0.48189217990E+02  0.00000000000E+00 0. -1.
         -1   -1    0    0    0  501 -0.00000000000E+00 -0.00000000000E+00 -0.27899775110E+03  0.27899775110E+03  0.00000000000E+00 0.  1.
         25    2    1    2    0    0  0.30292648241E+02 -0.25285909876E+02 -0.12270641695E+03  0.17961587399E+03  0.12509186885E+03 0.  0.
          5    1    3    3  502    0  0.71766935759E+02 -0.29013241316E+02 -0.11235476188E+03  0.13650394191E+03  0.41800000000E+01 0. -1.
         -5    1    3    3    0  502 -0.41474287518E+02  0.37273314406E+01 -0.10351655068E+02  0.43111932077E+02  0.41800000000E+01 0. -1.
        -11    1    1    2    0    0 -0.39013667219E+02 -0.26048647582E+02 -0.38737968932E+02  0.60837722736E+02  0.00000000000E+00 0.  1.
         11    1    1    2    0    0  0.87210189780E+01  0.51334557457E+02 -0.69364147233E+02  0.86733372371E+02  0.00000000000E+00 0. -1.
</event>
<event>
 7    1  0.2420569E-009  0.1022986E+03  0.7561462E-02  0.1275535E+00
         -1   -1    0    0    0  501 -0.00000000000E+00  0.00000000000E+00  0.63253799854E+02  0.63253799854E+02  0.00000000000E+00 0.  1.
          1   -1    0    0  501    0  0.00000000000E+00 -0.00000000000E+00 -0.27866805477E+03  0.27866805477E+03  0.00000000000E+00 0. -1.
         25    2    1    2    0    0 -0.43126314407E+01 -0.69844282622E+02 -0.79974386288E+02  0.16413746029E+03  0.12509348825E+03 0.  0.
          5    1    3    3  502    0  0.29263888739E+02 -0.72056727881E+02 -0.98442209879E+02  0.12552644464E+03  0.41800000000E+01 0.  1.
         -5    1    3    3    0  502 -0.33576520180E+02  0.22124452590E+01  0.18467823591E+02  0.38611015651E+02  0.41800000000E+01 0.  1.
        -11    1    1    2    0    0  0.32538707476E+02  0.32456929059E+02 -0.11993538056E+03  0.12843953923E+03  0.00000000000E+00 0. -1.
         11    1    1    2    0    0 -0.28226076035E+02  0.37387353563E+02 -0.15504488064E+02  0.49344855101E+02  0.00000000000E+00 0.  1.
</event>
<event>
 7    1  0.2420569E-009  0.2802505E+03  0.7561462E-02  0.1095552E+00
         -1   -1    0    0    0  501 -0.00000000000E+00  0.00000000000E+00  0.14264016313E+03  0.14264016313E+03  0.00000000000E+00 0.  1.
          1   -1    0    0  501    0  0.00000000000E+00 -0.00000000000E+00 -0.57357885137E+03  0.57357885137E+03  0.00000000000E+00 0. -1.
         25    2    1    2    0    0 -0.87015733909E+02  0.24986949162E+03 -0.22868556886E+03  0.37141779471E+03  0.12509031950E+03 0.  0.
          5    1    3    3  502    0 -0.10685973702E+03  0.18304643949E+03 -0.21159474581E+03  0.29952430830E+03  0.41800000000E+01 0.  1.
         -5    1    3    3    0  502  0.19844003114E+02  0.66823052132E+02 -0.17090823045E+02  0.71893486410E+02  0.41800000000E+01 0.  1.
        -11    1    1    2    0    0  0.10142165274E+03 -0.17361277687E+03 -0.15570218887E+03  0.25430477690E+03  0.00000000000E+00 0. -1.
         11    1    1    2    0    0 -0.14405918832E+02 -0.76256714750E+02 -0.46550930511E+02  0.90496442877E+02  0.00000000000E+00 0.  1.
</event>
<event>
 7    1  0.2420569E-009  0.1137891E+03  0.7561462E-02  0.1253710E+00
          2   -1    0    0  501    0  0.00000000000E+00  0.00000000000E+00  0.32973445357E+02  0.32973445357E+02  0.00000000000E+00 0.  1.
         -2   -1    0    0    0  501 -0.00000000000E+00 -0.00000000000E+00 -0.50254127103E+03  0.50254127103E+03  0.00000000000E+00 0. -1.
         25    2    1    2    0    0  0.36270387149E+02  0.69211913317E+02 -0.26578843654E+03  0.30396654644E+03  0.12508532460E+03 0.  0.
          5    1    3    3  502    0  0.81420427992E+02  0.59787366151E+02 -0.17778071859E+03  0.20451716688E+03  0.41800000000E+01 0. -1.
         -5    1    3    3    0  502 -0.45150040843E+02  0.94245471663E+01 -0.88007717945E+02  0.99449379562E+02  0.41800000000E+01 0. -1.
        -11    1    1    2    0    0 -0.15098775767E+02 -0.12403031561E+02 -0.63500501118E+00  0.19550228974E+02  0.00000000000E+00 0.  1.
         11    1    1    2    0    0 -0.21171611382E+02 -0.56808881756E+02 -0.20314438413E+03  0.21199794098E+03  0.00000000000E+00 0. -1.
</event>
<event>
 7    1  0.2420569E-009  0.1349554E+03  0.7561462E-02  0.1220283E+00
         -3   -1    0    0    0  501 -0.00000000000E+00  0.00000000000E+00  0.23316024775E+03  0.23316024775E+03  0.00000000000E+00 0.  1.
          3   -1    0    0  501    0  0.00000000000E+00 -0.00000000000E+00 -0.95541074075E+02  0.95541074075E+02  0.00000000000E+00 0. -1.
         25    2    1    2    0    0  0.49877585162E+01 -0.10367828775E+03  0.78462719275E+02  0.18049367618E+03  0.12508998256E+03 0.  0.
          5    1    3    3  502    0  0.50809002975E+02 -0.19470347170E+02  0.62912640388E+02  0.83283383233E+02  0.41800000000E+01 0. -1.
         -5    1    3    3    0  502 -0.45821244458E+02 -0.84207940584E+02  0.15550078887E+02  0.97210292945E+02  0.41800000000E+01 0. -1.
        -11    1    1    2    0    0 -0.28938625030E+02  0.82431047959E+02  0.78292760869E+01  0.87713278643E+02  0.00000000000E+00 0. -1.
         11    1    1    2    0    0  0.23950866514E+02  0.21247239795E+02  0.51327178318E+02  0.60494367008E+02  0.00000000000E+00 0.  1.
</event>
<event>
 7    1  0.2420569E-009  0.2020741E+03  0.7561462E-02  0.1148001E+00
          2   -1    0    0  501    0  0.00000000000E+00  0.00000000000E+00  0.17037239812E+03  0.17037239812E+03  0.00000000000E+00 0. -1.
         -2   -1    0    0    0  501 -0.00000000000E+00 -0.00000000000E+00 -0.29354680591E+03  0.29354680591E+03  0.00000000000E+00 0.  1.
         25    2    1    2    0    0 -0.93298866899E+02 -0.16754372956E+03 -0.10098661844E+03  0.25024299915E+03  0.12509069366E+03 0.  0.
          5    1    3    3  502    0 -0.27115622017E+02 -0.57224082568E+02  0.26780018192E+02  0.68880290051E+02  0.41800000000E+01 0.  1.
         -5    1    3    3    0  502 -0.66183244882E+02 -0.11031964700E+03 -0.12776663663E+03  0.18136270910E+03  0.41800000000E+01 0.  1.
        -11    1    1    2    0    0 -0.89495925558E+01 -0.58369636077E+01 -0.45721154406E+01  0.11621944359E+02  0.00000000000E+00 0.  1.
         11    1    1    2    0    0  0.10224845945E+03  0.17338069317E+03 -0.17615673907E+02  0.20205426052E+03  0.00000000000E+00 0. -1.
</event>
<event>
 7    1  0.2420569E-009  0.2083176E+03  0.7561462E-02  0.1142905E+00
          1   -1    0    0  501    0  0.00000000000E+00  0.00000000000E+00  0.15129002950E+03  0.15129002950E+03  0.00000000000E+00 0. -1.
         -1   -1    0    0    0  501 -0.00000000000E+00 -0.00000000000E+00 -0.31265711635E+03  0.31265711635E+03  0.00000000000E+00 0.  1.
         25    2    1    2    0    0 -0.80340492548E+02  0.16160879531E+03 -0.13986969388E+03  0.26035091667E+03  0.12508825316E+03 0.  0.
          5    1    3    3  502    0 -0.17262140925E+02  0.15049803570E+03 -0.11956297739E+03  0.19302957862E+03  0.41800000000E+01 0. -1.
         -5    1    3    3    0  502 -0.63078351623E+02  0.11110759615E+02 -0.20306716491E+02  0.67321338053E+02  0.41800000000E+01 0. -1.
        -11    1    1    2    0    0 -0.18510702140E+02 -0.40852305406E+02  0.56196657927E+01  0.45201079571E+02  0.00000000000E+00 0.  1.
         11    1    1    2    0    0  0.98851194688E+02 -0.12075648991E+03 -0.27117058761E+02  0.15839514962E+03  0.00000000000E+00 0. -1.
</event>
<event>
 7    1  0.2420569E-009  0.3634592E+03  0.7561462E-02  0.1057223E+00
          2   -1    0    0  501    0  0.00000000000E+00  0.00000000000E+00  0.82949414462E+03  0.82949414462E+03  0.00000000000E+00 0. -1.
         -2   -1    0    0    0  501 -0.00000000000E+00 -0.00000000000E+00 -0.20666005290E+03  0.20666005290E+03  0.00000000000E+00 0.  1.
         25    2    1    2    0    0  0.35459870133E+03 -0.44542553345E+02  0.91549890500E+02  0.38955795247E+03  0.12509891221E+03 0.  0.
          5    1    3    3  502    0  0.66506107344E+02  0.10594549995E+02  0.67149601632E+02  0.95193740356E+02  0.41800000000E+01 0.  1.
         -5    1    3    3    0  502  0.28809259399E+03 -0.55137103340E+02  0.24400288868E+02  0.29436421211E+03  0.41800000000E+01 0.  1.
        -11    1    1    2    0    0 -0.15566469598E+03 -0.20014613892E+02  0.19142578610E+03  0.24753972192E+03  0.00000000000E+00 0. -1.
         11    1    1    2    0    0 -0.19893400535E+03  0.64557167238E+02  0.33985841512E+03  0.39905652314E+03  0.00000000000E+00 0.  1.
</event>
<event>
 7    1  0.2420569E-009  0.1496677E+03  0.7561462E-02  0.1200882E+00
          2   -1    0    0  501    0  0.00000000000E+00  0.00000000000E+00  0.21497390115E+03  0.21497390115E+03  0.00000000000E+00 0. -1.
         -2   -1    0    0    0  501 -0.00000000000E+00 -0.00000000000E+00 -0.12272398481E+03  0.12272398481E+03  0.00000000000E+00 0.  1.
         25    2    1    2    0    0  0.54895297537E+02  0.10779707138E+03  0.47388596802E+02  0.18035423312E+03  0.12509303741E+03 0.  0.
          5    1    3    3  502    0  0.57605948870E+02 -0.69705884411E+01  0.70512250475E+01  0.58602274897E+02  0.41800000000E+01 0. -1.
         -5    1    3    3    0  502 -0.27106513329E+01  0.11476765982E+03  0.40337371755E+02  0.12175195822E+03  0.41800000000E+01 0. -1.
        -11    1    1    2    0    0 -0.44675116268E+02 -0.47820991836E+02  0.65991040507E+02  0.92938316646E+02  0.00000000000E+00 0. -1.
         11    1    1    2    0    0 -0.10220181270E+02 -0.59976079540E+02 -0.21129720966E+02  0.64405336195E+02  0.00000000000E+00 0.  1.
</event>
<event>
 7    1  0.2420569E-009  0.1546185E+03  0.7561462E-02  0.1194910E+00
         -2   -1    0    0    0  501 -0.00000000000E+00  0.00000000000E+00  0.36277351106E+02  0.36277351106E+02  0.00000000000E+00 0.  1.
          2   -1    0    0  501    0  0.00000000000E+00 -0.00000000000E+00 -0.10631028308E+04  0.10631028308E+04  0.00000000000E+00 0. -1.
         25    2    1    2    0    0 -0.12023278405E+03 -0.54738346852E+02 -0.26969025306E+03  0.32531931649E+03  0.12509043173E+03 0.  0.
          5    1    3    3  502    0 -0.30937187878E+02  0.17032145586E+02 -0.37956369867E+01  0.35764267604E+02  0.41800000000E+01 0.  1.
         -5    1    3    3    0  502 -0.89295596170E+02 -0.71770492439E+02 -0.26589461607E+03  0.28955504889E+03  0.41800000000E+01 0.  1.
        -11    1    1    2    0    0  0.97774693608E+02 -0.22299889074E+01 -0.40501440385E+03  0.41665517024E+03  0.00000000000E+00 0.  1.
         11    1    1    2    0    0  0.22458090440E+02  0.56968335760E+02 -0.35212082275E+03  0.35740569514E+03  0.00000000000E+00 0. -1.
</event>
<event>
 7    1  0.2455781E-009  0.1006441E+03  0.7561462E-02  0.1278947E+00
         -1   -1    0    0    0  501 -0.00000000000E+00  0.00000000000E+00  0.17355803941E+03  0.17355803941E+03  0.00000000000E+00 0.  1.
          1   -1    0    0  501    0  0.00000000000E+00 -0.00000000000E+00 -0.81346174004E+02  0.81346174004E+02  0.00000000000E+00 0. -1.
         25    2    1    2    0    0  0.16111328966E+02  0.23025294720E+02  0.91511249931E+01  0.12854841149E+03  0.12510480362E+03 0.  0.
          5    1    3    3  502    0 -0.10060561825E+02 -0.48750914528E+02 -0.67293918583E+01  0.50404599853E+02  0.41800000000E+01 0.  1.
         -5    1    3    3    0  502  0.26171890791E+02  0.71776209247E+02  0.15880516851E+02  0.78143811636E+02  0.41800000000E+01 0.  1.
        -11    1    1    2    0    0  0.17842890569E+02 -0.34615648491E+02  0.81636525956E+02  0.90449622633E+02  0.00000000000E+00 0.  1.
         11    1    1    2    0    0 -0.33954219534E+02  0.11590353771E+02  0.14242144592E+01  0.35906179295E+02  0.00000000000E+00 0. -1.
</event>
<event>
 7    1  0.2420569E-009  0.1755733E+03  0.7561462E-02  0.1172157E+00
         -2   -1    0    0    0  501 -0.00000000000E+00  0.00000000000E+00  0.51972828904E+02  0.51972828904E+02  0.00000000000E+00 0.  1.
          2   -1    0    0  501    0  0.00000000000E+00 -0.00000000000E+00 -0.80093575175E+03  0.80093575175E+03  0.00000000000E+00 0. -1.
         25    2    1    2    0    0  0.11569203063E+03 -0.11400723677E+03 -0.27009253646E+03  0.33908734752E+03  0.12509178634E+03 0.  0.
          5    1    3    3  502    0 -0.30582179849E+01 -0.14458258778E+02 -0.12763759709E+03  0.12855824569E+03  0.41800000000E+01 0.  1.
         -5    1    3    3    0  502  0.11875024862E+03 -0.99548977993E+02 -0.14245493937E+03  0.21052910183E+03  0.41800000000E+01 0.  1.
        -11    1    1    2    0    0 -0.71795430484E+02  0.16245027035E+02 -0.25848427629E+03  0.26876124317E+03  0.00000000000E+00 0.  1.
         11    1    1    2    0    0 -0.43896600149E+02  0.97762209736E+02 -0.22038611009E+03  0.24505998996E+03  0.00000000000E+00 0. -1.
</event>
<event>
 7    1  0.2420569E-009  0.2187650E+03  0.7561462E-02  0.1134807E+00
          1   -1    0    0  501    0  0.00000000000E+00  0.00000000000E+00  0.61584600848E+03  0.61584600848E+03  0.00000000000E+00 0. -1.
         -1   -1    0    0    0  501 -0.00000000000E+00 -0.00000000000E+00 -0.10237569699E+03  0.10237569699E+03  0.00000000000E+00 0.  1.
         25    2    1    2    0    0 -0.20752338588E+03 -0.40098327828E+02  0.14752994956E+03  0.28651104910E+03  0.12509861572E+03 0.  0.
          5    1    3    3  502    0 -0.53128777459E+01 -0.21202407578E+02 -0.14593105236E+02  0.26612025054E+02  0.41800000000E+01 0.  1.
         -5    1    3    3    0  502 -0.20221050814E+03 -0.18895920250E+02  0.16212305480E+03  0.25989902405E+03  0.41800000000E+01 0.  1.
        -11    1    1    2    0    0  0.96618062535E+02  0.94483268068E+01  0.25079792300E+03  0.26893106750E+03  0.00000000000E+00 0. -1.
         11    1    1    2    0    0  0.11090532335E+03  0.30650001021E+02  0.11514243893E+03  0.16277958887E+03  0.00000000000E+00 0.  1.
</event>
<event>
 7    1  0.2420569E-009  0.1288507E+03  0.7561462E-02  0.1229171E+00
         -2   -1    0    0    0  501 -0.00000000000E+00  0.00000000000E+00  0.12654000822E+03  0.12654000822E+03  0.00000000000E+00 0.  1.
          2   -1    0    0  501    0  0.00000000000E+00 -0.00000000000E+00 -0.19354755277E+03  0.19354755277E+03  0.00000000000E+00 0. -1.
         25    2    1    2    0    0  0.25148394035E+02 -0.10167412877E+03  0.52182389341E+01  0.16323295617E+03  0.12509075817E+03 0.  0.
          5    1    3    3  502    0  0.59395231336E+02 -0.44158573110E+02 -0.38142640214E+02  0.83367298667E+02  0.41800000000E+01 0.  1.
         -5    1    3    3    0  502 -0.34246837301E+02 -0.57515555657E+02  0.43360879148E+02  0.79865657502E+02  0.41800000000E+01 0.  1.
        -11    1    1    2    0    0  0.10828327854E+02  0.26546943298E+01 -0.47296369448E+02  0.48592660444E+02  0.00000000000E+00 0. -1.
         11    1    1    2    0    0 -0.35976721889E+02  0.99019434438E+02 -0.24929414036E+02  0.10826194437E+03  0.00000000000E+00 0.  1.
</event>
<event>
 7    1  0.2420569E-009  0.1020185E+03  0.7561462E-02  0.1276108E+00
         -3   -1    0    0    0  501 -0.00000000000E+00  0.00000000000E+00  0.40843234438E+03  0.40843234438E+03  0.00000000000E+00 0.  1.
          3   -1    0    0  501    0  0.00000000000E+00 -0.00000000000E+00 -0.34537856833E+02  0.34537856833E+02  0.00000000000E+00 0. -1.
         25    2    1    2    0    0  0.26054881816E+02  0.39444084347E+01  0.28995952428E+03  0.31688764901E+03  0.12508733411E+03 0.  0.
          5    1    3    3  502    0  0.75241829785E+02  0.11796536274E+02  0.15018417249E+03  0.16844360862E+03  0.41800000000E+01 0. -1.
         -5    1    3    3    0  502 -0.49186947969E+02 -0.78521278389E+01  0.13977535178E+03  0.14844404039E+03  0.41800000000E+01 0. -1.
        -11    1    1    2    0    0 -0.35804469153E+02 -0.32033998796E+02  0.13925276397E+02  0.50020499927E+02  0.00000000000E+00 0. -1.
         11    1    1    2    0    0  0.97495873362E+01  0.28089590362E+02  0.70009686874E+02  0.76062052274E+02  0.00000000000E+00 0.  1.
</event>
<event>
 7    1  0.2420569E-009  0.8500825E+02  0.7561462E-02  0.1315411E+00
          2   -1    0    0  501    0  0.00000000000E+00  0.00000000000E+00  0.17011004856E+03  0.17011004856E+03  0.00000000000E+00 0. -1.
         -2   -1    0    0    0  501 -0.00000000000E+00 -0.00000000000E+00 -0.70184459446E+02  0.70184459446E+02  0.00000000000E+00 0.  1.
         25    2    1    2    0    0 -0.10982769736E+02 -0.18581685829E+00  0.46220230618E+02  0.13380671537E+03  0.12508905468E+03 0.  0.
          5    1    3    3  502    0 -0.61017549820E+02 -0.27790231360E+02  0.16123498354E+02  0.69086018443E+02  0.41800000000E+01 0.  1.
         -5    1    3    3    0  502  0.50034780084E+02  0.27604414501E+02  0.30096732264E+02  0.64720696929E+02  0.41800000000E+01 0.  1.
        -11    1    1    2    0    0  0.16810301673E+02 -0.19070834120E+02  0.73797864586E+02  0.78053877379E+02  0.00000000000E+00 0. -1.
         11    1    1    2    0    0 -0.58275319370E+01  0.19256650979E+02 -0.20092506094E+02  0.28433915251E+02  0.00000000000E+00 0.  1.
</event>
<event>
 7    1  0.2420569E-009  0.9559484E+02  0.7561462E-02  0.1289842E+00
          2   -1    0    0  501    0  0.00000000000E+00  0.00000000000E+00  0.95495493973E+02  0.95495493973E+02  0.00000000000E+00 0. -1.
         -2   -1    0    0    0  501 -0.00000000000E+00 -0.00000000000E+00 -0.14915859231E+03  0.14915859231E+03  0.00000000000E+00 0.  1.
         25    2    1    2    0    0  0.50630420726E+02 -0.38718213362E+02 -0.25750528679E+02  0.14273879120E+03  0.12509489692E+03 0.  0.
          5    1    3    3  502    0 -0.16672451173E+02  0.10255799595E+02 -0.51710364892E+02  0.55448952115E+02  0.41800000000E+01 0. -1.
         -5    1    3    3    0  502  0.67302871899E+02 -0.48974012957E+02  0.25959836212E+02  0.87289839083E+02  0.41800000000E+01 0. -1.
        -11    1    1    2    0    0  0.18258072323E+01 -0.13614732066E+02 -0.24075700362E+02  0.27718835639E+02  0.00000000000E+00 0.  1.
         11    1    1    2    0    0 -0.52456227959E+02  0.52332945428E+02 -0.38368693000E+01  0.74196459449E+02  0.00000000000E+00 0. -1.
</event>
<event>
 7    1  0.2420569E-009  0.1159223E+03  0.7561462E-02  0.1249980E+00
          2   -1    0    0  501    0  0.00000000000E+00  0.00000000000E+00  0.35180141202E+03  0.35180141202E+03  0.00000000000E+00 0. -1.
         -2   -1    0    0    0  501 -0.00000000000E+00 -0.00000000000E+00 -0.41547215790E+02  0.41547215790E+02  0.00000000000E+00 0.  1.
         25    2    1    2    0    0  0.27945069875E+02 -0.51198938713E+02  0.15453711503E+03  0.20719980020E+03  0.12509108293E+03 0.  0.
          5    1    3    3  502    0 -0.38616917941E+02  0.15889592954E+02  0.61992523987E+02  0.74861812333E+02  0.41800000000E+01 0. -1.
         -5    1    3    3    0  502  0.66561987816E+02 -0.67088531667E+02  0.92544591038E+02  0.13233798787E+03  0.41800000000E+01 0. -1.
        -11    1    1    2    0    0  0.26130048036E+02  0.19435335964E+02  0.88097556703E+02  0.93923858478E+02  0.00000000000E+00 0. -1.
         11    1    1    2    0    0 -0.54075117911E+02  0.31763602749E+02  0.67619524497E+02  0.92224969124E+02  0.00000000000E+00 0.  1.
</event>
<event>
 7    1  0.2420569E-009  0.9496453E+02  0.7561462E-02  0.1291256E+00
         -2   -1    0    0    0  501 -0.00000000000E+00  0.00000000000E+00  0.28234251013E+03  0.28234251013E+03  0.00000000000E+00 0.  1.
          2   -1    0    0  501    0  0.00000000000E+00 -0.00000000000E+00 -0.67308477230E+02  0.67308477230E+02  0.00000000000E+00 0. -1.
         25    2    1    2    0    0 -0.74550965872E+02 -0.41110860432E+02  0.11625205918E+03  0.19081576503E+03  0.12509262794E+03 0.  0.
          5    1    3    3  502    0 -0.32877336253E+02 -0.40674493445E+02 -0.13744911085E+02  0.54237704937E+02  0.41800000000E+01 0.  1.
         -5    1    3    3    0  502 -0.41673629618E+02 -0.43636698659E+00  0.12999697026E+03  0.13657806010E+03  0.41800000000E+01 0.  1.
        -11    1    1    2    0    0  0.61824762337E+02  0.10877692217E+02  0.92107762445E+01  0.63446543051E+02  0.00000000000E+00 0. -1.
         11    1    1    2    0    0  0.12726203534E+02  0.30233168215E+02  0.89571197480E+02  0.95388679280E+02  0.00000000000E+00 0.  1.
</event>
<event>
 7    1  0.2420569E-009  0.2174455E+03  0.7561462E-02  0.1135802E+00
          1   -1    0    0  501    0  0.00000000000E+00  0.00000000000E+00  0.17125459451E+04  0.17125459451E+04  0.00000000000E+00 0. -1.
         -1   -1    0    0    0  501 -0.00000000000E+00 -0.00000000000E+00 -0.29653768092E+02  0.29653768092E+02  0.00000000000E+00 0.  1.
         25    2    1    2    0    0 -0.41079508572E+02 -0.18870320159E+03  0.10353189007E+04  0.10605795460E+04  0.12508925944E+03 0.  0.
          5    1    3    3  502    0  0.43471166838E+02 -0.75375839836E+02  0.45548731743E+03  0.46374284719E+03  0.41800000000E+01 0. -1.
         -5    1    3    3    0  502 -0.84550675410E+02 -0.11332736176E+03  0.57983158332E+03  0.59683669881E+03  0.41800000000E+01 0. -1.
        -11    1    1    2    0    0  0.20260681350E+02  0.18382801585E+03  0.61831841810E+03  0.64538430473E+03  0.00000000000E+00 0.  1.
         11    1    1    2    0    0  0.20818827222E+02  0.48751857398E+01  0.29254858152E+02  0.36235862462E+02  0.00000000000E+00 0. -1.
</event>
<event>
 7    1  0.2420569E-009  0.1026503E+03  0.7561462E-02  0.1274819E+00
          4   -1    0    0  501    0  0.00000000000E+00  0.00000000000E+00  0.35121469870E+02  0.35121469870E+02  0.00000000000E+00 0. -1.
         -4   -1    0    0    0  501 -0.00000000000E+00 -0.00000000000E+00 -0.33338522558E+03  0.33338522558E+03  0.00000000000E+00 0.  1.
         25    2    1    2    0    0  0.21428439200E+02  0.10911260372E+02 -0.19764627912E+03  0.23513780799E+03  0.12508998156E+03 0.  0.
          5    1    3    3  502    0 -0.43696868664E+01  0.65977021699E+02 -0.10906484285E+03  0.12761141760E+03  0.41800000000E+01 0.  1.
         -5    1    3    3    0  502  0.25798126067E+02 -0.55065761327E+02 -0.88581436264E+02  0.10752639039E+03  0.41800000000E+01 0.  1.
        -11    1    1    2    0    0  0.39374793921E+01  0.29836994744E+02 -0.11635253314E+02  0.32266532491E+02  0.00000000000E+00 0. -1.
         11    1    1    2    0    0 -0.25365918592E+02 -0.40748255116E+02 -0.88982223279E+02  0.10110235497E+03  0.00000000000E+00 0.  1.
</event>
<event>
 7    1  0.2420569E-009  0.1206007E+03  0.7561462E-02  0.1242109E+00
          1   -1    0    0  501    0  0.00000000000E+00  0.00000000000E+00  0.22854041087E+02  0.22854041087E+02  0.00000000000E+00 0. -1.
         -1   -1    0    0    0  501 -0.00000000000E+00 -0.00000000000E+00 -0.14198691309E+04  0.14198691309E+04  0.00000000000E+00 0.  1.
         25    2    1    2    0    0  0.59693839576E+02 -0.23718381466E+02 -0.12528416205E+04  0.12607083689E+04  0.12509016464E+03 0.  0.
          5    1    3    3  502    0  0.96940658310E+02 -0.14062304439E+02 -0.75035594462E+03  0.75673427018E+03  0.41800000000E+01 0. -1.
         -5    1    3    3    0  502 -0.37246818734E+02 -0.96560770276E+01 -0.50248567588E+03  0.50397409874E+03  0.41800000000E+01 0. -1.
        -11    1    1    2    0    0  0.63042811080E+01  0.36659487802E+02 -0.23898386173E+02  0.44213062186E+02  0.00000000000E+00 0. -1.
         11    1    1    2    0    0 -0.65998120684E+02 -0.12941106336E+02 -0.12027508315E+03  0.13780174089E+03  0.00000000000E+00 0.  1.
</event>
<event>
 7    1  0.2420569E-009  0.1327032E+03  0.7561462E-02  0.1223499E+00
          2   -1    0    0  501    0  0.00000000000E+00  0.00000000000E+00  0.55483731343E+02  0.55483731343E+02  0.00000000000E+00 0. -1.
         -2   -1    0    0    0  501 -0.00000000000E+00 -0.00000000000E+00 -0.38749831863E+03  0.38749831863E+03  0.00000000000E+00 0.  1.
         25    2    1    2    0    0 -0.36574988570E+02 -0.78183567842E+02 -0.11063787936E+03  0.18799071390E+03  0.12509743441E+03 0.  0.
          5    1    3    3  502    0  0.36653213971E+02  0.59032259919E+01 -0.12510045842E+02  0.39398982455E+02  0.41800000000E+01 0.  1.
         -5    1    3    3    0  502 -0.73228202541E+02 -0.84086793834E+02 -0.98127833516E+02  0.14859173145E+03  0.41800000000E+01 0.  1.
        -11    1    1    2    0    0 -0.21883983434E+02  0.42963636195E+02 -0.14379125735E+03  0.15165984458E+03  0.00000000000E+00 0.  1.
         11    1    1    2    0    0  0.58458972003E+02  0.35219931648E+02 -0.77585450579E+02  0.10333149149E+03  0.00000000000E+00 0. -1.
</event>
<event>
 7    1  0.2420569E-009  0.1014970E+03  0.7561462E-02  0.1277179E+00
         -1   -1    0    0    0  501 -0.00000000000E+00  0.00000000000E+00  0.80495665251E+02  0.80495665251E+02  0.00000000000E+00 0.  1.
          1   -1    0    0  501    0  0.00000000000E+00 -0.00000000000E+00 -0.19582980745E+03  0.19582980745E+03  0.00000000000E+00 0. -1.
         25    2    1    2    0    0  0.61878124729E+02 -0.14178134098E+01 -0.46615369973E+02  0.14713763903E+03  0.12508229126E+03 0.  0.
          5    1    3    3  502    0 -0.11161435900E+02 -0.50001314459E+02 -0.22154821303E+02  0.55973365148E+02  0.41800000000E+01 0.  1.
         -5    1    3    3    0  502  0.73039560630E+02  0.48583501050E+02 -0.24460548670E+02  0.91164273882E+02  0.41800000000E+01 0.  1.
        -11    1    1    2    0    0 -0.20146416232E+02 -0.67494168208E+01  0.21017603419E+02  0.29885989491E+02  0.00000000000E+00 0.  1.
         11    1    1    2    0    0 -0.41731708498E+02  0.81672302306E+01 -0.89736375645E+02  0.99301844180E+02  0.00000000000E+00 0. -1.
</event>
<event>
 7    1  0.2820452E-009  0.1310129E+03  0.7561462E-02  0.1225961E+00
         -2   -1    0    0    0  501 -0.00000000000E+00  0.00000000000E+00  0.44111324126E+02  0.44111324126E+02  0.00000000000E+00 0.  1.
          2   -1    0    0  501    0  0.00000000000E+00 -0.00000000000E+00 -0.69634859337E+03  0.69634859337E+03  0.00000000000E+00 0. -1.
         25    2    1    2    0    0 -0.12106342559E+03 -0.38743255785E+02 -0.45462081753E+03  0.48834790321E+03  0.12508474710E+03 0.  0.
          5    1    3    3  502    0 -0.76868278911E+02 -0.19439800694E+01 -0.86802547228E+02  0.11603734729E+03  0.41800000000E+01 0. -1.
         -5    1    3    3    0  502 -0.44195146683E+02 -0.36799275716E+02 -0.36781827030E+03  0.37231055592E+03  0.41800000000E+01 0. -1.
        -11    1    1    2    0    0  0.55436956524E+02  0.21885619239E+02 -0.21413943515E+02  0.63330825472E+02  0.00000000000E+00 0.  1.
         11    1    1    2    0    0  0.65626469069E+02  0.16857636546E+02 -0.17620250820E+03  0.18878118881E+03  0.00000000000E+00 0. -1.
</event>
<event>
 7    1  0.2420569E-009  0.1475657E+03  0.7561462E-02  0.1203496E+00
          3   -1    0    0  501    0  0.00000000000E+00  0.00000000000E+00  0.14572467637E+03  0.14572467637E+03  0.00000000000E+00 0. -1.
         -3   -1    0    0    0  501 -0.00000000000E+00 -0.00000000000E+00 -0.19481591660E+03  0.19481591660E+03  0.00000000000E+00 0.  1.
         25    2    1    2    0    0 -0.43088586376E+02 -0.11687344643E+03 -0.58912050873E+02  0.18610366771E+03  0.12509163298E+03 0.  0.
          5    1    3    3  502    0 -0.77071607305E+02 -0.10966693240E+03 -0.67413473676E+02  0.15009636087E+03  0.41800000000E+01 0. -1.
         -5    1    3    3    0  502  0.33983020929E+02 -0.72065140259E+01  0.85014228032E+01  0.36007306836E+02  0.41800000000E+01 0. -1.
        -11    1    1    2    0    0 -0.10238609639E+01  0.14844415118E+02 -0.32303741735E+02  0.35565948344E+02  0.00000000000E+00 0.  1.
         11    1    1    2    0    0  0.44112447339E+02  0.10202903131E+03  0.42124552379E+02  0.11887097692E+03  0.00000000000E+00 0. -1.
</event>
<event>
 7    1  0.2420569E-009  0.1241263E+03  0.7561462E-02  0.1236441E+00
          1   -1    0    0  501    0  0.00000000000E+00  0.00000000000E+00  0.86939902801E+03  0.86939902801E+03  0.00000000000E+00 0. -1.
         -1   -1    0    0    0  501 -0.00000000000E+00 -0.00000000000E+00 -0.29939777124E+02  0.29939777124E+02  0.00000000000E+00 0.  1.
         25    2    1    2    0    0  0.98275205779E+02 -0.51308818745E+02  0.57811853084E+03  0.60179544191E+03  0.12508440054E+03 0.  0.
          5    1    3    3  502    0  0.91550955884E+02 -0.33550945922E+02  0.19381067594E+03  0.21699606909E+03  0.41800000000E+01 0. -1.
         -5    1    3    3    0  502  0.67242498952E+01 -0.17757872823E+02  0.38430785490E+03  0.38479937282E+03  0.41800000000E+01 0. -1.
        -11    1    1    2    0    0 -0.77094755440E+02  0.15216589855E+01  0.20684476860E+03  0.22075025495E+03  0.00000000000E+00 0. -1.
         11    1    1    2    0    0 -0.21180450338E+02  0.49787159760E+02  0.54495951443E+02  0.76793108266E+02  0.00000000000E+00 0.  1.
</event>
<event>
 7    1  0.2420569E-009  0.1087518E+03  0.7561462E-02  0.1262899E+00
         -1   -1    0    0    0  501 -0.00000000000E+00  0.00000000000E+00  0.10298320106E+03  0.10298320106E+03  0.00000000000E+00 0.  1.
          1   -1    0    0  501    0  0.00000000000E+00 -0.00000000000E+00 -0.19373082490E+03  0.19373082490E+03  0.00000000000E+00 0. -1.
         25    2    1    2    0    0  0.79502588929E+02 -0.18881858668E+02 -0.89793626286E+02  0.17432220095E+03  0.12509255849E+03 0.  0.
          5    1    3    3  502    0  0.47665616449E+02  0.28092284550E+02  0.12857338470E+02  0.56955868839E+02  0.41800000000E+01 0. -1.
         -5    1    3    3    0  502  0.31836972480E+02 -0.46974143218E+02 -0.10265096476E+03  0.11736633211E+03  0.41800000000E+01 0. -1.
        -11    1    1    2    0    0 -0.20067636697E+02  0.37756148864E+02  0.30526260534E+02  0.52536553007E+02  0.00000000000E+00 0.  1.
         11    1    1    2    0    0 -0.59434952231E+02 -0.18874290196E+02 -0.31480258095E+02  0.69855272005E+02  0.00000000000E+00 0. -1.
</event>
<event>
 7    1  0.2420569E-009  0.1750189E+03  0.7561462E-02  0.1172713E+00
          2   -1    0    0  501    0  0.00000000000E+00  0.00000000000E+00  0.36423644246E+03  0.36423644246E+03  0.00000000000E+00 0. -1.
         -2   -1    0    0    0  501 -0.00000000000E+00 -0.00000000000E+00 -0.92106831998E+02  0.92106831998E+02  0.00000000000E+00 0.  1.
         25    2    1    2    0    0 -0.33153482153E+02 -0.14252303822E+03  0.12435808632E+03  0.22917972779E+03  0.12508574736E+03 0.  0.
          5    1    3    3  502    0 -0.59751527038E+02 -0.13914479075E+03  0.13206273165E+03  0.20097152849E+03  0.41800000000E+01 0.  1.
         -5    1    3    3    0  502  0.26598044884E+02 -0.33782474769E+01 -0.77046453288E+01  0.28208199293E+02  0.41800000000E+01 0.  1.
        -11    1    1    2    0    0  0.58439626978E+02  0.13135885890E+03  0.11374970455E+03  0.18332848960E+03  0.00000000000E+00 0.  1.
         11    1    1    2    0    0 -0.25286144825E+02  0.11164179319E+02  0.34021819595E+02  0.43835057072E+02  0.00000000000E+00 0. -1.
</event>
<event>
 7    1  0.2420569E-009  0.1648693E+03  0.7561462E-02  0.1183306E+00
          1   -1    0    0  501    0  0.00000000000E+00  0.00000000000E+00  0.16969863731E+03  0.16969863731E+03  0.00000000000E+00 0.  1.
         -1   -1    0    0    0  501 -0.00000000000E+00 -0.00000000000E+00 -0.21092380042E+03  0.21092380042E+03  0.00000000000E+00 0. -1.
         25    2    1    2    0    0  0.14227657435E+03 -0.12169034031E+02  0.41630829014E+02  0.19435146348E+03  0.12509458995E+03 0.  0.
          5    1    3    3  502    0  0.47355016657E+02  0.53090798256E+02  0.33648173652E+02  0.78808644527E+02  0.41800000000E+01 0. -1.
         -5    1    3    3    0  502  0.94921557694E+02 -0.65259832287E+02  0.79826553622E+01  0.11554281895E+03  0.41800000000E+01 0. -1.
        -11    1    1    2    0    0 -0.33927303426E+02  0.75649419317E+01 -0.68582616116E+02  0.76888656494E+02  0.00000000000E+00 0. -1.
         11    1    1    2    0    0 -0.10834927093E+03  0.46040920990E+01 -0.14273376007E+02  0.10938231775E+03  0.00000000000E+00 0.  1.
</event>
<event>
 7    1  0.2420569E-009  0.8992804E+02  0.7561462E-02  0.1303026E+00
          1   -1    0    0  501    0  0.00000000000E+00  0.00000000000E+00  0.51167089295E+02  0.51167089295E+02  0.00000000000E+00 0. -1.
         -1   -1    0    0    0  501 -0.00000000000E+00 -0.00000000000E+00 -0.24838335726E+03  0.24838335726E+03  0.00000000000E+00 0.  1.
         25    2    1    2    0    0  0.95460827937E+00  0.27892246247E+02 -0.93651568356E+02  0.15873319654E+03  0.12508686082E+03 0.  0.
          5    1    3    3  502    0 -0.48900282653E+02 -0.25171194492E+02 -0.37631468838E+02  0.66771449907E+02  0.41800000000E+01 0. -1.
         -5    1    3    3    0  502  0.49854890933E+02  0.53063440739E+02 -0.56020099518E+02  0.91961746628E+02  0.41800000000E+01 0. -1.
        -11    1    1    2    0    0  0.12963076344E+02 -0.34136735218E+02 -0.11569954204E+03  0.12132494413E+03  0.00000000000E+00 0.  1.
         11    1    1    2    0    0 -0.13917684624E+02  0.62444889711E+01  0.12134842436E+02  0.19492305886E+02  0.00000000000E+00 0. -1.
</event>
<event>
 7    1  0.2420569E-009  0.7832282E+02  0.7561462E-02  0.1333880E+00
          1   -1    0    0  501    0  0.00000000000E+00  0.00000000000E+00  0.70159164630E+03  0.70159164630E+03  0.00000000000E+00 0. -1.
         -1   -1    0    0    0  501 -0.00000000000E+00 -0.00000000000E+00 -0.20621508770E+02  0.20621508770E+02  0.00000000000E+00 0.  1.
         25    2    1    2    0    0  0.20579105754E+02  0.41368378769E+02  0.32246553099E+03  0.34894947739E+03  0.12508747634E+03 0.  0.
          5    1    3    3  502    0  0.21340005355E+02  0.14304488579E+02  0.71874052491E+00  0.26038494772E+02  0.41800000000E+01 0. -1.
         -5    1    3    3    0  502 -0.76089960046E+00  0.27063890190E+02  0.32174679047E+03  0.32291098262E+03  0.41800000000E+01 0. -1.
        -11    1    1    2    0    0  0.10425297509E+02 -0.63995208160E+02  0.20362788900E+03  0.21370163938E+03  0.00000000000E+00 0. -1.
         11    1    1    2    0    0 -0.31004403263E+02  0.22626829392E+02  0.15487671753E+03  0.15956203829E+03  0.00000000000E+00 0.  1.
</event>
<event>
 7    1  0.2420569E-009  0.1012926E+03  0.7561462E-02  0.1277601E+00
         -3   -1    0    0    0  501 -0.00000000000E+00  0.00000000000E+00  0.63958705409E+03  0.63958705409E+03  0.00000000000E+00 0.  1.
          3   -1    0    0  501    0  0.00000000000E+00 -0.00000000000E+00 -0.25395893573E+02  0.25395893573E+02  0.00000000000E+00 0. -1.
         25    2    1    2    0    0 -0.12000015218E+02 -0.54015136085E+02  0.46134434491E+03  0.48119431371E+03  0.12509087768E+03 0.  0.
          5    1    3    3  502    0  0.36698073421E+02 -0.74701404923E+02  0.26422497859E+03  0.27705479639E+03  0.41800000000E+01 0.  1.
         -5    1    3    3    0  502 -0.48698088639E+02  0.20686268838E+02  0.19711936632E+03  0.20413951732E+03  0.41800000000E+01 0.  1.
        -11    1    1    2    0    0  0.14244417292E+02  0.23189009642E+01 -0.68084752167E+01  0.15957319964E+02  0.00000000000E+00 0. -1.
         11    1    1    2    0    0 -0.22444020737E+01  0.51696235121E+02  0.15965529082E+03  0.16783131399E+03  0.00000000000E+00 0.  1.
</event>
<event>
 7    1  0.2420569E-009  0.1334062E+03  0.7561462E-02  0.1222487E+00
          1   -1    0    0  501    0  0.00000000000E+00  0.00000000000E+00  0.88189367833E+03  0.88189367833E+03  0.00000000000E+00 0. -1.
         -1   -1    0    0    0  501 -0.00000000000E+00 -0.00000000000E+00 -0.42196364001E+02  0.42196364001E+02  0.00000000000E+00 0.  1.
         25    2    1    2    0    0  0.39343943441E+02 -0.10879215413E+03  0.69917439039E+03  0.71963629509E+03  0.12509152788E+03 0.  0.
          5    1    3    3  502    0  0.35339165112E+01 -0.42993399702E+02  0.50121692974E+02  0.66261432903E+02  0.41800000000E+01 0. -1.
         -5    1    3    3    0  502  0.35810026930E+02 -0.65798754432E+02  0.64905269742E+03  0.65337486219E+03  0.41800000000E+01 0. -1.
        -11    1    1    2    0    0  0.21446471057E+02 -0.25391719751E+01  0.18355853526E+02  0.28343180375E+02  0.00000000000E+00 0. -1.
         11    1    1    2    0    0 -0.60790414498E+02  0.11133132611E+03  0.12216707041E+03  0.17611056686E+03  0.00000000000E+00 0.  1.
</event>
<event>
 7    1  0.2420569E-009  0.1039162E+03  0.7561462E-02  0.1272270E+00
         -3   -1    0    0    0  501 -0.00000000000E+00  0.00000000000E+00  0.13376028966E+02  0.13376028966E+02  0.00000000000E+00 0.  1.
          3   -1    0    0  501    0  0.00000000000E+00 -0.00000000000E+00 -0.12696666791E+04  0.12696666791E+04  0.00000000000E+00 0. -1.
         25    2    1    2    0    0  0.53993963927E+01  0.36172334248E+02 -0.99107573129E+03  0.99960760011E+03  0.12508660121E+03 0.  0.
          5    1    3    3  502    0 -0.19123045059E+01  0.81498707092E+02 -0.53248155825E+03  0.53870193841E+03  0.41800000000E+01 0.  1.
         -5    1    3    3    0  502  0.73117008986E+01 -0.45326372844E+02 -0.45859417304E+03  0.46090566171E+03  0.41800000000E+01 0.  1.
        -11    1    1    2    0    0 -0.51830748687E+01  0.21658796577E+02 -0.15555413777E+02  0.27165025898E+02  0.00000000000E+00 0.  1.
         11    1    1    2    0    0 -0.21632152394E+00 -0.57831130825E+02 -0.24965950507E+03  0.25627008206E+03  0.00000000000E+00 0. -1.
</event>
<event>
 7    1  0.2420569E-009  0.1607566E+03  0.7561462E-02  0.1187845E+00
         -2   -1    0    0    0  501 -0.00000000000E+00  0.00000000000E+00  0.52414224253E+03  0.52414224253E+03  0.00000000000E+00 0.  1.
          2   -1    0    0  501    0  0.00000000000E+00 -0.00000000000E+00 -0.60575836904E+02  0.60575836904E+02  0.00000000000E+00 0. -1.
         25    2    1    2    0    0 -0.76399582589E+02 -0.10616378214E+03  0.33207704227E+03  0.37819373456E+03  0.12509074306E+03 0.  0.
          5    1    3    3  502    0 -0.11097339010E+02  0.19405461996E+02  0.12676855363E+03  0.12879231917E+03  0.41800000000E+01 0. -1.
         -5    1    3    3    0  502 -0.65302243579E+02 -0.12556924414E+03  0.20530848864E+03  0.24940141539E+03  0.41800000000E+01 0. -1.
        -11    1    1    2    0    0  0.95820004907E+02  0.94177077752E+02  0.12306563815E+03  0.18219754830E+03  0.00000000000E+00 0.  1.
         11    1    1    2    0    0 -0.19420422318E+02  0.11986704388E+02  0.84237252044E+01  0.24326796571E+02  0.00000000000E+00 0. -1.
</event>
<event>
 7    1  0.2420569E-009  0.7588427E+02  0.7561462E-02  0.1341154E+00
          2   -1    0    0  501    0  0.00000000000E+00  0.00000000000E+00  0.21400462140E+03  0.21400462140E+03  0.00000000000E+00 0. -1.
         -2   -1    0    0    0  501 -0.00000000000E+00 -0.00000000000E+00 -0.44131052027E+02  0.44131052027E+02  0.00000000000E+00 0.  1.
         25    2    1    2    0    0  0.12509985508E+02  0.23454100851E+02  0.68443247064E+02  0.14504639917E+03  0.12508950899E+03 0.  0.
          5    1    3    3  502    0 -0.50197889353E+02  0.84619202266E+01  0.21152384493E+00  0.51077875169E+02  0.41800000000E+01 0. -1.
         -5    1    3    3    0  502  0.62707874861E+02  0.14992180624E+02  0.68231723219E+02  0.93968524001E+02  0.41800000000E+01 0. -1.
        -11    1    1    2    0    0 -0.12414453416E+02  0.21009593469E+00  0.43341703049E+01  0.13150962936E+02  0.00000000000E+00 0.  1.
         11    1    1    2    0    0 -0.95532092536E-01 -0.23664196785E+02  0.97096152004E+02  0.99938311321E+02  0.00000000000E+00 0. -1.
</event>
<event>
 7    1  0.2420569E-009  0.9201475E+02  0.7561462E-02  0.1298045E+00
         -1   -1    0    0    0  501 -0.00000000000E+00  0.00000000000E+00  0.11047370002E+03  0.11047370002E+03  0.00000000000E+00 0.  1.
          1   -1    0    0  501    0  0.00000000000E+00 -0.00000000000E+00 -0.16897754217E+03  0.16897754217E+03  0.00000000000E+00 0. -1.
         25    2    1    2    0    0 -0.25087852700E+02  0.11443484811E+02  0.48664398070E+02  0.13702533300E+03  0.12508942620E+03 0.  0.
          5    1    3    3  502    0 -0.41168100731E+02  0.58435074408E+02  0.49719115655E+02  0.87171860715E+02  0.41800000000E+01 0.  1.
         -5    1    3    3    0  502  0.16080248031E+02 -0.46991589598E+02 -0.10547175848E+01  0.49853472284E+02  0.41800000000E+01 0.  1.
        -11    1    1    2    0    0  0.39314820543E+02  0.63268980362E+01 -0.79201185178E+01  0.40600653079E+02  0.00000000000E+00 0.  1.
         11    1    1    2    0    0 -0.14226967843E+02 -0.17770382847E+02 -0.99248121701E+02  0.10182525611E+03  0.00000000000E+00 0. -1.
</event>
<event>
 7    1  0.2420569E-009  0.1050609E+03  0.7561462E-02  0.1270000E+00
          2   -1    0    0  501    0  0.00000000000E+00  0.00000000000E+00  0.46976329542E+02  0.46976329542E+02  0.00000000000E+00 0. -1.
         -2   -1    0    0    0  501 -0.00000000000E+00 -0.00000000000E+00 -0.41573764550E+03  0.41573764550E+03  0.00000000000E+00 0.  1.
         25    2    1    2    0    0 -0.49899059508E+02  0.56671439870E+02 -0.12860501470E+03  0.19465090112E+03  0.12509258677E+03 0.  0.
          5    1    3    3  502    0 -0.30449928153E+02 -0.54327249828E+00 -0.13047524220E+03  0.13404758296E+03  0.41800000000E+01 0. -1.
         -5    1    3    3    0  502 -0.19449131355E+02  0.57214712368E+02  0.18702274968E+01  0.60603318166E+02  0.41800000000E+01 0. -1.
        -11    1    1    2    0    0  0.52672769549E+02  0.86917347780E+01 -0.11717918310E+03  0.12876695173E+03  0.00000000000E+00 0.  1.
         11    1    1    2    0    0 -0.27737100407E+01 -0.65363174648E+02 -0.12297711815E+03  0.13929612219E+03  0.00000000000E+00 0. -1.
</event>
<event>
 7    1  0.2420569E-009  0.1175533E+03  0.7561462E-02  0.1247189E+00
         -2   -1    0    0    0  501 -0.00000000000E+00  0.00000000000E+00  0.11678153550E+03  0.11678153550E+03  0.00000000000E+00 0.  1.
          2   -1    0    0  501    0  0.00000000000E+00 -0.00000000000E+00 -0.15748284013E+03  0.15748284013E+03  0.00000000000E+00 0. -1.
         25    2    1    2    0    0 -0.66681397663E+02 -0.38511072509E+02 -0.44481637781E+02  0.15348322290E+03  0.12509585170E+03 0.  0.
          5    1    3    3  502    0 -0.75482431671E+02 -0.56895337884E+02 -0.72063268779E+02  0.11893386427E+03  0.41800000000E+01 0. -1.
         -5    1    3    3    0  502  0.88010340082E+01  0.18384265375E+02  0.27581630997E+02  0.34549358626E+02  0.41800000000E+01 0. -1.
        -11    1    1    2    0    0  0.10637643427E+02 -0.29615370562E+02  0.79833006823E+01  0.32464792021E+02  0.00000000000E+00 0.  1.
         11    1    1    2    0    0  0.56043754236E+02  0.68126443071E+02 -0.42029675317E+01  0.88316360717E+02  0.00000000000E+00 0. -1.
</event>
<event>
 7    1  0.2420569E-009  0.7899734E+02  0.7561462E-02  0.1331921E+00
         -2   -1    0    0    0  501 -0.00000000000E+00  0.00000000000E+00  0.10565723429E+04  0.10565723429E+04  0.00000000000E+00 0.  1.
          2   -1    0    0  501    0  0.00000000000E+00 -0.00000000000E+00 -0.77909063609E+01  0.77909063609E+01  0.00000000000E+00 0. -1.
         25    2    1    2    0    0 -0.19216075887E+01  0.22726929815E+02  0.78244848031E+03  0.79271256401E+03  0.12508948353E+03 0.  0.
          5    1    3    3  502    0  0.14352840680E+02 -0.38623841290E+02  0.11482866088E+03  0.12206923819E+03  0.41800000000E+01 0.  1.
         -5    1    3    3    0  502 -0.16274448268E+02  0.61350771104E+02  0.66761981943E+03  0.67064332582E+03  0.41800000000E+01 0.  1.
        -11    1    1    2    0    0 -0.11597807563E+02 -0.33647073203E+02  0.19580245760E+03  0.19901064564E+03  0.00000000000E+00 0. -1.
         11    1    1    2    0    0  0.13519415151E+02  0.10920143388E+02  0.70530498641E+02  0.72640039622E+02  0.00000000000E+00 0.  1.
</event>
<event>
 7    1  0.2420569E-009  0.1688525E+03  0.7561462E-02  0.1179050E+00
          3   -1    0    0  501    0  0.00000000000E+00  0.00000000000E+00  0.41166978325E+03  0.41166978325E+03  0.00000000000E+00 0. -1.
         -3   -1    0    0    0  501 -0.00000000000E+00 -0.00000000000E+00 -0.85452796380E+02  0.85452796380E+02  0.00000000000E+00 0.  1.
         25    2    1    2    0    0  0.12702549691E+03  0.38882313206E+02  0.27721932967E+03  0.33188020936E+03  0.12508639206E+03 0.  0.
          5    1    3    3  502    0  0.16439273479E+02  0.65365826030E+02  0.85732309529E+02  0.10913497250E+03  0.41800000000E+01 0.  1.
         -5    1    3    3    0  502  0.11058622343E+03 -0.26483512824E+02  0.19148702014E+03  0.22274523686E+03  0.41800000000E+01 0.  1.
        -11    1    1    2    0    0 -0.85615147738E+02  0.16541864609E+02  0.38281891682E+02  0.95231770107E+02  0.00000000000E+00 0.  1.
         11    1    1    2    0    0 -0.41410349169E+02 -0.55424177815E+02  0.10715765525E+02  0.70010600166E+02  0.00000000000E+00 0. -1.
</event>
<event>
 7    1  0.2420569E-009  0.1330645E+03  0.7561462E-02  0.1222978E+00
         -4   -1    0    0    0  501 -0.00000000000E+00  0.00000000000E+00  0.38878814573E+02  0.38878814573E+02  0.00000000000E+00 0.  1.
          4   -1    0    0  501    0  0.00000000000E+00 -0.00000000000E+00 -0.48874542057E+03  0.48874542057E+03  0.00000000000E+00 0. -1.
         25    2    1    2    0    0  0.79504832589E+02  0.25963165697E+02 -0.23974930282E+03  0.28305444649E+03  0.12507992282E+03 0.  0.
          5    1    3    3  502    0  0.98958486055E+02  0.51658520656E+02 -0.14601199661E+03  0.18384330358E+03  0.41800000000E+01 0.  1.
         -5    1    3    3    0  502 -0.19453653467E+02 -0.25695354959E+02 -0.93737306218E+02  0.99211142906E+02  0.41800000000E+01 0.  1.
        -11    1    1    2    0    0 -0.98861976356E+01 -0.47914742414E+02 -0.58251624460E+02  0.76071093042E+02  0.00000000000E+00 0. -1.
         11    1    1    2    0    0 -0.69618634953E+02  0.21951576717E+02 -0.15186567871E+03  0.16849869561E+03  0.00000000000E+00 0.  1.
</event>
<event>
 7    1  0.2420569E-009  0.1610813E+03  0.7561462E-02  0.1187481E+00
          2   -1    0    0  501    0  0.00000000000E+00  0.00000000000E+00  0.94806641237E+03  0.94806641237E+03  0.00000000000E+00 0. -1.
         -2   -1    0    0    0  501 -0.00000000000E+00 -0.00000000000E+00 -0.42487002548E+02  0.42487002548E+02  0.00000000000E+00 0.  1.
         25    2    1    2    0    0  0.49000213767E+02 -0.11783657552E+03  0.74011167094E+03  0.76138033099E+03  0.12509293938E+03 0.  0.
          5    1    3    3  502    0 -0.42281729198E+02 -0.32448194220E+02  0.23747161511E+03  0.24341501661E+03  0.41800000000E+01 0.  1.
         -5    1    3    3    0  502  0.91281942964E+02 -0.85388381300E+02  0.50264005583E+03  0.51796531438E+03  0.41800000000E+01 0.  1.
        -11    1    1    2    0    0 -0.50697617825E+02  0.36952925705E+02  0.12235531979E+03  0.13750124164E+03  0.00000000000E+00 0. -1.
         11    1    1    2    0    0  0.16974040587E+01  0.80883649815E+02  0.43112419094E+02  0.91671842286E+02  0.00000000000E+00 0.  1.
</event>
<event>
 7    1  0.2420569E-009  0.1028825E+03  0.7561462E-02  0.1274349E+00
         -2   -1    0    0    0  501 -0.00000000000E+00  0.00000000000E+00  0.11814416769E+04  0.11814416769E+04  0.00000000000E+00 0. -1.
          2   -1    0    0  501    0  0.00000000000E+00 -0.00000000000E+00 -0.19337870681E+02  0.19337870681E+02  0.00000000000E+00 0.  1.
         25    2    1    2    0    0 -0.23721184484E+02  0.33616645504E+02  0.10465855203E+04  0.10548371993E+04  0.12508993712E+03 0.  0.
          5    1    3    3  502    0  0.54792152449E+01 -0.39631655133E+02  0.59824244186E+03  0.59959334681E+03  0.41800000000E+01 0.  1.
         -5    1    3    3    0  502 -0.29200399728E+02  0.73248300637E+02  0.44834307840E+03  0.45524385250E+03  0.41800000000E+01 0.  1.
        -11    1    1    2    0    0  0.50578323113E+02 -0.31605776599E+02  0.62000913039E+02  0.86030256893E+02  0.00000000000E+00 0.  1.
         11    1    1    2    0    0 -0.26857138630E+02 -0.20108689040E+01  0.53517372865E+02  0.59912091330E+02  0.00000000000E+00 0. -1.
</event>
<event>
 7    1  0.2420569E-009  0.9344863E+02  0.7561462E-02  0.1294709E+00
          1   -1    0    0  501    0  0.00000000000E+00  0.00000000000E+00  0.16922170429E+03  0.16922170429E+03  0.00000000000E+00 0. -1.
         -1   -1    0    0    0  501 -0.00000000000E+00 -0.00000000000E+00 -0.92564856065E+02  0.92564856065E+02  0.00000000000E+00 0.  1.
         25    2    1    2    0    0  0.27938374156E+02  0.55285217148E+00 -0.14030923409E+02  0.12893799256E+03  0.12508909112E+03 0.  0.
          5    1    3    3  502    0  0.55448452585E+02 -0.41402722387E+02  0.14847985358E+02  0.70898881404E+02  0.41800000000E+01 0.  1.
         -5    1    3    3    0  502 -0.27510078429E+02  0.41955574559E+02 -0.28878908767E+02  0.58039111152E+02  0.41800000000E+01 0.  1.
        -11    1    1    2    0    0 -0.42533689977E+02  0.15739507408E+02  0.99435954789E+02  0.10929023736E+03  0.00000000000E+00 0. -1.
         11    1    1    2    0    0  0.14595315821E+02 -0.16292359579E+02 -0.87481831579E+01  0.23558330441E+02  0.00000000000E+00 0.  1.
</event>
<event>
 7    1  0.2420569E-009  0.1228208E+03  0.7561462E-02  0.1238515E+00
          1   -1    0    0  501    0  0.00000000000E+00  0.00000000000E+00  0.12660384433E+04  0.12660384433E+04  0.00000000000E+00 0. -1.
         -1   -1    0    0    0  501 -0.00000000000E+00 -0.00000000000E+00 -0.15263987517E+02  0.15263987517E+02  0.00000000000E+00 0.  1.
         25    2    1    2    0    0  0.17485507756E+02  0.45152565935E+02  0.83252120497E+03  0.84325744320E+03  0.12508821521E+03 0.  0.
          5    1    3    3  502    0 -0.29006008749E+02 -0.32326598182E+02  0.28130443453E+03  0.28466825390E+03  0.41800000000E+01 0. -1.
         -5    1    3    3    0  502  0.46491516504E+02  0.77479164118E+02  0.55121677044E+03  0.55858918929E+03  0.41800000000E+01 0. -1.
        -11    1    1    2    0    0 -0.29332723519E+02  0.26136583146E+02  0.54512323674E+02  0.67194665561E+02  0.00000000000E+00 0.  1.
         11    1    1    2    0    0  0.11847215763E+02 -0.71289149081E+02  0.36374092718E+03  0.37085032210E+03  0.00000000000E+00 0. -1.
</event>
<event>
 7    1  0.2420569E-009  0.1030069E+03  0.7561462E-02  0.1274097E+00
          1   -1    0    0  501    0  0.00000000000E+00  0.00000000000E+00  0.24124886212E+03  0.24124886212E+03  0.00000000000E+00 0. -1.
         -1   -1    0    0    0  501 -0.00000000000E+00 -0.00000000000E+00 -0.71214130471E+02  0.71214130471E+02  0.00000000000E+00 0.  1.
         25    2    1    2    0    0  0.45974394169E+02 -0.25276133576E+02  0.15695192550E+03  0.20745007629E+03  0.12509636041E+03 0.  0.
          5    1    3    3  502    0 -0.11410888385E+02 -0.52382873603E+02  0.12541636272E+03  0.13645845616E+03  0.41800000000E+01 0. -1.
         -5    1    3    3    0  502  0.57385282554E+02  0.27106740027E+02  0.31535562781E+02  0.70991620130E+02  0.41800000000E+01 0. -1.
        -11    1    1    2    0    0 -0.47466294907E+01  0.43358885584E+02 -0.21132276936E+02  0.48467479603E+02  0.00000000000E+00 0.  1.
         11    1    1    2    0    0 -0.41227764678E+02 -0.18082752007E+02  0.34215083085E+02  0.56545436695E+02  0.00000000000E+00 0. -1.
</event>
<event>
 7    1  0.2420569E-009  0.1336755E+03  0.7561462E-02  0.1222102E+00
          1   -1    0    0  501    0  0.00000000000E+00  0.00000000000E+00  0.25801581714E+03  0.25801581714E+03  0.00000000000E+00 0.  1.
         -1   -1    0    0    0  501 -0.00000000000E+00 -0.00000000000E+00 -0.91916263594E+02  0.91916263594E+02  0.00000000000E+00 0. -1.
         25    2    1    2    0    0  0.50141707107E+02  0.60712697386E+02  0.17549105142E+03  0.22944538411E+03  0.12509137758E+03 0.  0.
          5    1    3    3  502    0  0.69169105430E+02 -0.13560158522E+02  0.75495040302E+02  0.10336932115E+03  0.41800000000E+01 0. -1.
         -5    1    3    3    0  502 -0.19027398323E+02  0.74272855908E+02  0.99996011122E+02  0.12607606296E+03  0.41800000000E+01 0. -1.
        -11    1    1    2    0    0 -0.72447197052E+02 -0.22767239570E+02 -0.89749395734E+01  0.76468902821E+02  0.00000000000E+00 0.  1.
         11    1    1    2    0    0  0.22305489945E+02 -0.37945457816E+02 -0.41655830041E+00  0.44017793804E+02  0.00000000000E+00 0. -1.
</event>
<event>
 7    1  0.2420569E-009  0.1737568E+03  0.7561462E-02  0.1173986E+00
          1   -1    0    0  501    0  0.00000000000E+00  0.00000000000E+00  0.89289970828E+03  0.89289970828E+03  0.00000000000E+00 0. -1.
         -1   -1    0    0    0  501 -0.00000000000E+00 -0.00000000000E+00 -0.48781984217E+02  0.48781984217E+02  0.00000000000E+00 0.  1.
         25    2    1    2    0    0  0.66421410380E+02 -0.13474494272E+03  0.65516411733E+03  0.68370686073E+03  0.12508815862E+03 0.  0.
          5    1    3    3  502    0  0.64976862480E+00 -0.12926356361E+03  0.42861873022E+03  0.44770635396E+03  0.41800000000E+01 0. -1.
         -5    1    3    3    0  502  0.65771641755E+02 -0.54813791014E+01  0.22654538711E+03  0.23600050677E+03  0.41800000000E+01 0. -1.
        -11    1    1    2    0    0 -0.15147881284E+02  0.13051911232E+02 -0.74220519731E+01  0.21328327400E+02  0.00000000000E+00 0. -1.
         11    1    1    2    0    0 -0.51273529096E+02  0.12169303148E+03  0.19637565871E+03  0.23664650437E+03  0.00000000000E+00 0.  1.
</event>
<event>
 7    1  0.2420569E-009  0.1163036E+03  0.7561462E-02  0.1249323E+00
          2   -1    0    0  501    0  0.00000000000E+00  0.00000000000E+00  0.50074987440E+03  0.50074987440E+03  0.00000000000E+00 0. -1.
         -2   -1    0    0    0  501 -0.00000000000E+00 -0.00000000000E+00 -0.29385561593E+02  0.29385561593E+02  0.00000000000E+00 0.  1.
         25    2    1    2    0    0  0.36928084649E+02  0.34382270848E+02  0.23886800553E+03  0.27431935846E+03  0.12508941753E+03 0.  0.
          5    1    3    3  502    0  0.66788025809E+02  0.62703953805E+02  0.14263347853E+03  0.16957065729E+03  0.41800000000E+01 0. -1.
         -5    1    3    3    0  502 -0.29859941160E+02 -0.28321682958E+02  0.96234526992E+02  0.10474870117E+03  0.41800000000E+01 0. -1.
        -11    1    1    2    0    0 -0.45104666582E+02  0.16478956451E+02  0.66608716598E+02  0.82113994422E+02  0.00000000000E+00 0.  1.
         11    1    1    2    0    0  0.81765819326E+01 -0.50861227299E+02  0.16588759068E+03  0.17370208311E+03  0.00000000000E+00 0. -1.
</event>
<event>
 7    1  0.2420569E-009  0.1023043E+03  0.7561462E-02  0.1275524E+00
         -2   -1    0    0    0  501 -0.00000000000E+00  0.00000000000E+00  0.46334720694E+02  0.46334720694E+02  0.00000000000E+00 0. -1.
          2   -1    0    0  501    0  0.00000000000E+00 -0.00000000000E+00 -0.44070112573E+03  0.44070112573E+03  0.00000000000E+00 0.  1.
         25    2    1    2    0    0 -0.56803457323E+02  0.34494587220E+02 -0.11027093097E+03  0.17950947810E+03  0.12508982852E+03 0.  0.
          5    1    3    3  502    0  0.21569961528E+02 -0.43412030558E+01  0.14789975014E+02  0.26838871907E+02  0.41800000000E+01 0. -1.
         -5    1    3    3    0  502 -0.78373418851E+02  0.38835790276E+02 -0.12506090599E+03  0.15267060619E+03  0.41800000000E+01 0. -1.
        -11    1    1    2    0    0  0.20846534322E+02  0.20305528061E+02 -0.19735163760E+02  0.35162041347E+02  0.00000000000E+00 0. -1.
         11    1    1    2    0    0  0.35956923001E+02 -0.54800115281E+02 -0.26436031031E+03  0.27236432698E+03  0.00000000000E+00 0.  1.
</event>
<event>
 7    1  0.2420569E-009  0.1378706E+03  0.7561462E-02  0.1216223E+00
          2   -1    0    0  501    0  0.00000000000E+00  0.00000000000E+00  0.53163595656E+03  0.53163595656E+03  0.00000000000E+00 0. -1.
         -2   -1    0    0    0  501 -0.00000000000E+00 -0.00000000000E+00 -0.42289590489E+02  0.42289590489E+02  0.00000000000E+00 0.  1.
         25    2    1    2    0    0  0.72180471997E+02 -0.51386255321E+02  0.36271849057E+03  0.39377859214E+03  0.12508520477E+03 0.  0.
          5    1    3    3  502    0 -0.32640898516E+02  0.51674208206E+01  0.96922741460E+02  0.10248717337E+03  0.41800000000E+01 0. -1.
         -5    1    3    3    0  502  0.10482137051E+03 -0.56553676141E+02  0.26579574911E+03  0.29129141876E+03  0.41800000000E+01 0. -1.
        -11    1    1    2    0    0 -0.78807997933E+02  0.78308812616E+01  0.10369589858E+03  0.13047935708E+03  0.00000000000E+00 0. -1.
         11    1    1    2    0    0  0.66275259360E+01  0.43555374059E+02  0.22931976918E+02  0.49667597836E+02  0.00000000000E+00 0.  1.
</event>
<event>
 7    1  0.2741922E-009  0.1482395E+03  0.7561462E-02  0.1202653E+00
          1   -1    0    0  501    0  0.00000000000E+00  0.00000000000E+00  0.78427044160E+03  0.78427044160E+03  0.00000000000E+00 0. -1.
         -1   -1    0    0    0  501 -0.00000000000E+00 -0.00000000000E+00 -0.32668017136E+02  0.32668017136E+02  0.00000000000E+00 0.  1.
         25    2    1    2    0    0 -0.18867298419E+02 -0.11526626954E+03  0.42978841677E+03  0.46260842613E+03  0.12508471087E+03 0.  0.
          5    1    3    3  502    0  0.63846013499E+01 -0.13262904013E+03  0.28345578363E+03  0.31304293490E+03  0.41800000000E+01 0.  1.
         -5    1    3    3    0  502 -0.25251899769E+02  0.17362770587E+02  0.14633263314E+03  0.14956549123E+03  0.41800000000E+01 0.  1.
        -11    1    1    2    0    0  0.26293586584E+02  0.11547889700E+02  0.19709085967E+02  0.34830367808E+02  0.00000000000E+00 0.  1.
         11    1    1    2    0    0 -0.74262881652E+01  0.10371837984E+03  0.30210492174E+03  0.31949966480E+03  0.00000000000E+00 0. -1.
</event>
<event>
 7    1  0.2420569E-009  0.1043416E+03  0.7561462E-02  0.1271422E+00
         -2   -1    0    0    0  501 -0.00000000000E+00  0.00000000000E+00  0.61944899229E+02  0.61944899229E+02  0.00000000000E+00 0.  1.
          2   -1    0    0  501    0  0.00000000000E+00 -0.00000000000E+00 -0.25580100718E+03  0.25580100718E+03  0.00000000000E+00 0. -1.
         25    2    1    2    0    0  0.43039842683E+02  0.46448117103E+02 -0.10233541351E+03  0.17358014085E+03  0.12509065832E+03 0.  0.
          5    1    3    3  502    0  0.33454609343E+02 -0.14055063582E+02  0.16298793065E+02  0.39998484395E+02  0.41800000000E+01 0. -1.
         -5    1    3    3    0  502  0.95852333406E+01  0.60503180685E+02 -0.11863420658E+03  0.13358165646E+03  0.41800000000E+01 0. -1.
        -11    1    1    2    0    0 -0.13490212202E+02 -0.71041474421E+02 -0.66910394322E+02  0.98518413413E+02  0.00000000000E+00 0. -1.
         11    1    1    2    0    0 -0.29549630482E+02  0.24593357317E+02 -0.24610300110E+02  0.45647352138E+02  0.00000000000E+00 0.  1.
</event>
<event>
 7    1  0.2420569E-009  0.1195993E+03  0.7561462E-02  0.1243760E+00
          1   -1    0    0  501    0  0.00000000000E+00  0.00000000000E+00  0.66074802322E+03  0.66074802322E+03  0.00000000000E+00 0. -1.
         -1   -1    0    0    0  501 -0.00000000000E+00 -0.00000000000E+00 -0.37199387453E+02  0.37199387453E+02  0.00000000000E+00 0.  1.
         25    2    1    2    0    0 -0.62740658200E+02  0.73741787630E+02  0.45850146878E+03  0.48502074239E+03  0.12508909721E+03 0.  0.
          5    1    3    3  502    0 -0.85836133207E+02  0.41728095935E+02  0.41614822616E+03  0.42697294327E+03  0.41800000000E+01 0. -1.
         -5    1    3    3    0  502  0.23095475007E+02  0.32013691695E+02  0.42353242627E+02  0.58047799121E+02  0.41800000000E+01 0. -1.
        -11    1    1    2    0    0  0.19788123805E+02 -0.14001051917E+01  0.11138458143E+03  0.11313732858E+03  0.00000000000E+00 0. -1.
         11    1    1    2    0    0  0.42952534395E+02 -0.72341682439E+02  0.53662585557E+02  0.99789339700E+02  0.00000000000E+00 0.  1.
</event>
<event>
 7    1  0.2420569E-009  0.1000313E+03  0.7561462E-02  0.1280230E+00
         -1   -1    0    0    0  501 -0.00000000000E+00  0.00000000000E+00  0.55524710162E+03  0.55524710162E+03  0.00000000000E+00 0.  1.
          1   -1    0    0  501    0  0.00000000000E+00 -0.00000000000E+00 -0.26697349714E+02  0.26697349714E+02  0.00000000000E+00 0. -1.
         25    2    1    2    0    0 -0.21441443577E+01  0.23617537370E+02  0.17660479785E+03  0.21771454957E+03  0.12509190640E+03 0.  0.
          5    1    3    3  502    0  0.39578360259E+02  0.45293010855E+02  0.15399232821E+03  0.16537536993E+03  0.41800000000E+01 0. -1.
         -5    1    3    3    0  502 -0.41722504617E+02 -0.21675473485E+02  0.22612469639E+02  0.52339179641E+02  0.41800000000E+01 0. -1.
        -11    1    1    2    0    0  0.42956298190E+02  0.42215416732E+01  0.19377981395E+03  0.19852879203E+03  0.00000000000E+00 0.  1.
         11    1    1    2    0    0 -0.40812153833E+02 -0.27839079043E+02  0.15816514011E+03  0.16570110974E+03  0.00000000000E+00 0. -1.
</event>
<event>
 7    1  0.2420569E-009  0.9222366E+02  0.7561462E-02  0.1297554E+00
          2   -1    0    0  501    0  0.00000000000E+00  0.00000000000E+00  0.46307511236E+02  0.46307511236E+02  0.00000000000E+00 0. -1.
         -2   -1    0    0    0  501 -0.00000000000E+00 -0.00000000000E+00 -0.48808225757E+03  0.48808225757E+03  0.00000000000E+00 0.  1.
         25    2    1    2    0    0 -0.27480211044E+02 -0.41435089611E+02 -0.42918822570E+03  0.44980240567E+03  0.12509053687E+03 0.  0.
          5    1    3    3  502    0 -0.32073595705E+02 -0.83319660227E+02 -0.24454291026E+03  0.26036433834E+03  0.41800000000E+01 0. -1.
         -5    1    3    3    0  502  0.45933846602E+01  0.41884570616E+02 -0.18464531544E+03  0.18943806733E+03  0.41800000000E+01 0. -1.
        -11    1    1    2    0    0  0.78653147180E+01  0.27665129085E+02  0.26257869564E+02  0.38944810398E+02  0.00000000000E+00 0. -1.
         11    1    1    2    0    0  0.19614896326E+02  0.13769960525E+02 -0.38844390200E+02  0.45642552741E+02  0.00000000000E+00 0.  1.
</event>
<event>
 7    1  0.2420569E-009  0.9116739E+02  0.7561462E-02  0.1300049E+00
          3   -1    0    0  501    0  0.00000000000E+00  0.00000000000E+00  0.18652088676E+04  0.18652088676E+04  0.00000000000E+00 0. -1.
         -3   -1    0    0    0  501 -0.00000000000E+00 -0.00000000000E+00 -0.72381250014E+01  0.72381250014E+01  0.00000000000E+00 0.  1.
         25    2    1    2    0    0 -0.35392308945E+01 -0.18835166625E+02  0.13347040471E+04  0.13406899728E+04  0.12508964821E+03 0.  0.
          5    1    3    3  502    0 -0.17859642639E+02  0.30825519309E+02  0.12964147639E+03  0.13451232016E+03  0.41800000000E+01 0. -1.
         -5    1    3    3    0  502  0.14320411744E+02 -0.49660685934E+02  0.12050625707E+04  0.12061776526E+04  0.41800000000E+01 0. -1.
        -11    1    1    2    0    0  0.18178371355E+02  0.53756144263E+02  0.32060267669E+03  0.32558601403E+03  0.00000000000E+00 0. -1.
         11    1    1    2    0    0 -0.14639140461E+02 -0.34920977637E+02  0.20266401879E+03  0.20617100578E+03  0.00000000000E+00 0.  1.
</event>
<event>
 7    1  0.2420569E-009  0.1144995E+03  0.7561462E-02  0.1252457E+00
         -1   -1    0    0    0  501 -0.00000000000E+00  0.00000000000E+00  0.34232842930E+03  0.34232842930E+03  0.00000000000E+00 0.  1.
          1   -1    0    0  501    0  0.00000000000E+00 -0.00000000000E+00 -0.59973001431E+02  0.59973001431E+02  0.00000000000E+00 0. -1.
         25    2    1    2    0    0  0.23184087143E+02  0.46116175598E+02  0.43468507535E+02  0.14212917453E+03  0.12508791931E+03 0.  0.
          5    1    3    3  502    0  0.70871852283E+02  0.39019149100E+01  0.17504808303E+02  0.73225235402E+02  0.41800000000E+01 0.  1.
         -5    1    3    3    0  502 -0.47687765140E+02  0.42214260688E+02  0.25963699231E+02  0.68903939127E+02  0.41800000000E+01 0.  1.
        -11    1    1    2    0    0  0.17124114965E+02 -0.50690573712E+02  0.18585624774E+03  0.19340453562E+03  0.00000000000E+00 0.  1.
         11    1    1    2    0    0 -0.40308202107E+02  0.45743981146E+01  0.53030672597E+02  0.66767720579E+02  0.00000000000E+00 0. -1.
</event>
<event>
 7    1  0.2420569E-009  0.9402319E+02  0.7561462E-02  0.1293391E+00
         -1   -1    0    0    0  501 -0.00000000000E+00  0.00000000000E+00  0.37991479073E+02  0.37991479073E+02  0.00000000000E+00 0.  1.
          1   -1    0    0  501    0  0.00000000000E+00 -0.00000000000E+00 -0.66454800413E+03  0.66454800413E+03  0.00000000000E+00 0. -1.
         25    2    1    2    0    0 -0.13827935339E+02  0.14636186384E+02 -0.59363237686E+03  0.60700236656E+03  0.12508814655E+03 0.  0.
          5    1    3    3  502    0 -0.43209140205E+02  0.42544650664E+02 -0.15514903114E+03  0.16663064352E+03  0.41800000000E+01 0. -1.
         -5    1    3    3    0  502  0.29381204867E+02 -0.27908464279E+02 -0.43848334573E+03  0.44037172304E+03  0.41800000000E+01 0. -1.
        -11    1    1    2    0    0 -0.28673811491E+02  0.17186741551E+02 -0.71814908389E+00  0.33437812259E+02  0.00000000000E+00 0.  1.
         11    1    1    2    0    0  0.42501746829E+02 -0.31822927935E+02 -0.32205999115E+02  0.62099304383E+02  0.00000000000E+00 0. -1.
</event>
<event>
 7    1  0.2420569E-009  0.1264786E+03  0.7561462E-02  0.1232776E+00
         -2   -1    0    0    0  501 -0.00000000000E+00  0.00000000000E+00  0.73251847108E+02  0.73251847108E+02  0.00000000000E+00 0.  1.
          2   -1    0    0  501    0  0.00000000000E+00 -0.00000000000E+00 -0.28526078073E+03  0.28526078073E+03  0.00000000000E+00 0. -1.
         25    2    1    2    0    0  0.82847091701E+01 -0.70598610497E+02 -0.36428529774E+02  0.14841577224E+03  0.12508958173E+03 0.  0.
          5    1    3    3  502    0  0.43859372335E+02 -0.91095223285E+02 -0.35168570424E+02  0.10712742409E+03  0.41800000000E+01 0.  1.
         -5    1    3    3    0  502 -0.35574663165E+02  0.20496612788E+02 -0.12599593496E+01  0.41288348146E+02  0.41800000000E+01 0.  1.
        -11    1    1    2    0    0  0.20637835145E+02  0.77966499496E+02 -0.15195361625E+03  0.17203080182E+03  0.00000000000E+00 0. -1.
         11    1    1    2    0    0 -0.28922544315E+02 -0.73678889985E+01 -0.23626787590E+02  0.38066053772E+02  0.00000000000E+00 0.  1.
</event>
<event>
 7    1  0.2420569E-009  0.1162563E+03  0.7561462E-02  0.1249404E+00
         -4   -1    0    0    0  501 -0.00000000000E+00  0.00000000000E+00  0.99140571138E+02  0.99140571138E+02  0.00000000000E+00 0.  1.
          4   -1    0    0  501    0  0.00000000000E+00 -0.00000000000E+00 -0.26019157112E+03  0.26019157112E+03  0.00000000000E+00 0. -1.
         25    2    1    2    0    0  0.16365327202E+02  0.98153983671E+02 -0.16284465438E+03  0.22818358049E+03  0.12508931410E+03 0.  0.
          5    1    3    3  502    0  0.16060029597E+01  0.82599406134E+02 -0.18149632132E+03  0.19945833699E+03  0.41800000000E+01 0.  1.
         -5    1    3    3    0  502  0.14759324242E+02  0.15554577537E+02  0.18651666947E+02  0.28725243504E+02  0.41800000000E+01 0.  1.
        -11    1    1    2    0    0 -0.40475264854E+02 -0.18096320065E+02 -0.13082025203E+02  0.46226218192E+02  0.00000000000E+00 0. -1.
         11    1    1    2    0    0  0.24109937652E+02 -0.80057663606E+02  0.14875679595E+02  0.84922343579E+02  0.00000000000E+00 0.  1.
</event>
<event>
 7    1  0.2817179E-009  0.7850679E+02  0.7561462E-02  0.1333343E+00
          2   -1    0    0  501    0  0.00000000000E+00  0.00000000000E+00  0.10239928870E+03  0.10239928870E+03  0.00000000000E+00 0. -1.
         -2   -1    0    0    0  501 -0.00000000000E+00 -0.00000000000E+00 -0.12565511509E+03  0.12565511509E+03  0.00000000000E+00 0.  1.
         25    2    1    2    0    0  0.12689991847E+02  0.26285119883E+02 -0.30230821696E+02  0.13195944148E+03  0.12508976055E+03 0.  0.
          5    1    3    3  502    0  0.68012855110E+02  0.22331826859E+02 -0.25623012191E+02  0.76147686142E+02  0.41800000000E+01 0.  1.
         -5    1    3    3    0  502 -0.55322863262E+02  0.39532930241E+01 -0.46078095055E+01  0.55811755336E+02  0.41800000000E+01 0.  1.
        -11    1    1    2    0    0 -0.73976872243E+01 -0.92356915518E+01  0.49014195952E+02  0.50422367849E+02  0.00000000000E+00 0. -1.
         11    1    1    2    0    0 -0.52923046231E+01 -0.17049428331E+02 -0.42039200642E+02  0.45672594466E+02  0.00000000000E+00 0.  1.
</event>
<event>
 7    1  0.2420569E-009  0.8406096E+02  0.7561462E-02  0.1317907E+00
         -2   -1    0    0    0  501 -0.00000000000E+00  0.00000000000E+00  0.27068585861E+02  0.27068585861E+02  0.00000000000E+00 0.  1.
          2   -1    0    0  501    0  0.00000000000E+00 -0.00000000000E+00 -0.46824674922E+03  0.46824674922E+03  0.00000000000E+00 0. -1.
         25    2    1    2    0    0  0.39010076960E+01  0.33303754909E+02 -0.22245345714E+03  0.25740605343E+03  0.12509187743E+03 0.  0.
          5    1    3    3  502    0  0.29772812512E+02  0.39733491856E+02 -0.22486015778E+03  0.23031442355E+03  0.41800000000E+01 0.  1.
         -5    1    3    3    0  502 -0.25871804816E+02 -0.64297369471E+01  0.24067006397E+01  0.27091629881E+02  0.41800000000E+01 0.  1.
        -11    1    1    2    0    0  0.18865931363E+02 -0.56043172535E+02 -0.16510860008E+03  0.17537847751E+03  0.00000000000E+00 0. -1.
         11    1    1    2    0    0 -0.22766939059E+02  0.22739417626E+02 -0.53616106135E+02  0.62530804130E+02  0.00000000000E+00 0.  1.
</event>
<event>
 7    1  0.2420569E-009  0.9942921E+02  0.7561462E-02  0.1281501E+00
         -2   -1    0    0    0  501 -0.00000000000E+00  0.00000000000E+00  0.97059758230E+02  0.97059758230E+02  0.00000000000E+00 0.  1.
          2   -1    0    0  501    0  0.00000000000E+00 -0.00000000000E+00 -0.12413690801E+03  0.12413690801E+03  0.00000000000E+00 0. -1.
         25    2    1    2    0    0  0.82003229124E+01  0.91058480231E+01 -0.32011273923E+02  0.12969049565E+03  0.12507894003E+03 0.  0.
          5    1    3    3  502    0 -0.34172525543E+02  0.45166875215E+02 -0.44932254381E+02  0.72416766031E+02  0.41800000000E+01 0.  1.
         -5    1    3    3    0  502  0.42372848456E+02 -0.36061027192E+02  0.12920980458E+02  0.57273729618E+02  0.41800000000E+01 0.  1.
        -11    1    1    2    0    0  0.12282078494E+02  0.35295665968E+02  0.17129464878E+02  0.41110242705E+02  0.00000000000E+00 0. -1.
         11    1    1    2    0    0 -0.20482401406E+02 -0.44401513991E+02 -0.12195340738E+02  0.50395927889E+02  0.00000000000E+00 0.  1.
</event>
<event>
 7    1  0.2420569E-009  0.1096276E+03  0.7561462E-02  0.1261261E+00
          3   -1    0    0  501    0  0.00000000000E+00  0.00000000000E+00  0.50613217827E+02  0.50613217827E+02  0.00000000000E+00 0. -1.
         -3   -1    0    0    0  501 -0.00000000000E+00 -0.00000000000E+00 -0.27115148176E+03  0.27115148176E+03  0.00000000000E+00 0.  1.
         25    2    1    2    0    0 -0.26044632600E+02  0.17532439013E+02 -0.10710833584E+03  0.16764453701E+03  0.12508711316E+03 0.  0.
          5    1    3    3  502    0  0.38116116666E+02 -0.18071159197E+02 -0.77645097728E+02  0.88462640395E+02  0.41800000000E+01 0.  1.
         -5    1    3    3    0  502 -0.64160749266E+02  0.35603598210E+02 -0.29463238116E+02  0.79181896618E+02  0.41800000000E+01 0.  1.
        -11    1    1    2    0    0  0.63742076871E+02 -0.64005035583E+01 -0.59862867255E+02  0.87678855408E+02  0.00000000000E+00 0. -1.
         11    1    1    2    0    0 -0.37697444271E+02 -0.11131935454E+02 -0.53567060835E+02  0.66441307167E+02  0.00000000000E+00 0.  1.
</event>
<event>
 7    1  0.2718141E-009  0.8766584E+02  0.7561462E-02  0.1308605E+00
         -1   -1    0    0    0  501 -0.00000000000E+00  0.00000000000E+00  0.14771560986E+03  0.14771560986E+03  0.00000000000E+00 0.  1.
          1   -1    0    0  501    0  0.00000000000E+00 -0.00000000000E+00 -0.14636848782E+03  0.14636848782E+03  0.00000000000E+00 0. -1.
         25    2    1    2    0    0 -0.18006692898E+02 -0.73799683847E+02  0.64509055443E+02  0.15993778198E+03  0.12509213223E+03 0.  0.
          5    1    3    3  502    0  0.21628830315E+02 -0.43061783792E+02 -0.27077304849E+02  0.55432629037E+02  0.41800000000E+01 0. -1.
         -5    1    3    3    0  502 -0.39635523214E+02 -0.30737900055E+02  0.91586360292E+02  0.10450515294E+03  0.41800000000E+01 0. -1.
        -11    1    1    2    0    0  0.12904202619E+02  0.31742950875E+02  0.20812049824E+02  0.40090831787E+02  0.00000000000E+00 0.  1.
         11    1    1    2    0    0  0.51024902796E+01  0.42056732971E+02 -0.83973983223E+02  0.94055483910E+02  0.00000000000E+00 0. -1.
</event>
<event>
 7    1  0.2420569E-009  0.9170011E+02  0.7561462E-02  0.1298786E+00
         -1   -1    0    0    0  501 -0.00000000000E+00  0.00000000000E+00  0.95356152585E+02  0.95356152585E+02  0.00000000000E+00 0.  1.
          1   -1    0    0  501    0  0.00000000000E+00 -0.00000000000E+00 -0.15695181123E+03  0.15695181123E+03  0.00000000000E+00 0. -1.
         25    2    1    2    0    0  0.36166893870E+02  0.15090765675E+02 -0.74981327431E+02  0.15101179591E+03  0.12508632067E+03 0.  0.
          5    1    3    3  502    0  0.69581081238E+02  0.47023014251E+02 -0.41365237133E+02  0.93708302612E+02  0.41800000000E+01 0.  1.
         -5    1    3    3    0  502 -0.33414187368E+02 -0.31932248576E+02 -0.33616090299E+02  0.57303493293E+02  0.41800000000E+01 0.  1.
        -11    1    1    2    0    0  0.16392815190E+01 -0.15013042301E+02  0.47826547493E+02  0.50154335088E+02  0.00000000000E+00 0.  1.
         11    1    1    2    0    0 -0.37806175389E+02 -0.77723373563E-01 -0.34440878709E+02  0.51141832825E+02  0.00000000000E+00 0. -1.
</event>
<event>
 7    1  0.2420569E-009  0.8518909E+02  0.7561462E-02  0.1314939E+00
         -1   -1    0    0    0  501 -0.00000000000E+00  0.00000000000E+00  0.17557196250E+02  0.17557196250E+02  0.00000000000E+00 0.  1.
          1   -1    0    0  501    0  0.00000000000E+00 -0.00000000000E+00 -0.73898157285E+03  0.73898157285E+03  0.00000000000E+00 0. -1.
         25    2    1    2    0    0 -0.31892238508E+02 -0.63632755386E+00 -0.47154221423E+03  0.48889325411E+03  0.12508810625E+03 0.  0.
          5    1    3    3  502    0  0.10010865200E+02  0.23911980090E+02 -0.15995603306E+02  0.30746250812E+02  0.41800000000E+01 0. -1.
         -5    1    3    3    0  502 -0.41903103708E+02 -0.24548307644E+02 -0.45554661093E+03  0.45814700330E+03  0.41800000000E+01 0. -1.
        -11    1    1    2    0    0  0.55286817301E+02  0.25806455003E+02 -0.17264572757E+03  0.18310967352E+03  0.00000000000E+00 0. -1.
         11    1    1    2    0    0 -0.23394578793E+02 -0.25170127449E+02 -0.77236434792E+02  0.84535841464E+02  0.00000000000E+00 0.  1.
</event>
<event>
 7    1  0.2489948E-009  0.1464547E+03  0.7561462E-02  0.1204898E+00
          1   -1    0    0  501    0  0.00000000000E+00  0.00000000000E+00  0.19555751831E+03  0.19555751831E+03  0.00000000000E+00 0. -1.
         -1   -1    0    0    0  501 -0.00000000000E+00 -0.00000000000E+00 -0.16683757942E+03  0.16683757942E+03  0.00000000000E+00 0.  1.
         25    2    1    2    0    0 -0.14197551270E+02 -0.10989298995E+03 -0.76962052770E+02  0.18398414239E+03  0.12509583280E+03 0.  0.
          5    1    3    3  502    0 -0.57324344113E+02 -0.78486309838E+02 -0.85839617356E+02  0.12973855852E+03  0.41800000000E+01 0.  1.
         -5    1    3    3    0  502  0.43126792843E+02 -0.31406680111E+02  0.88775645859E+01  0.54245583871E+02  0.41800000000E+01 0.  1.
        -11    1    1    2    0    0  0.48222293303E+02  0.34180348507E+02  0.57356882247E+02  0.82361992063E+02  0.00000000000E+00 0. -1.
         11    1    1    2    0    0 -0.34024742034E+02  0.75712641441E+02  0.48325109416E+02  0.96048963266E+02  0.00000000000E+00 0.  1.
</event>
<event>
 7    1  0.2420569E-009  0.5961392E+02  0.7561462E-02  0.1399459E+00
          2   -1    0    0  501    0  0.00000000000E+00  0.00000000000E+00  0.80268558663E+03  0.80268558663E+03  0.00000000000E+00 0. -1.
         -2   -1    0    0    0  501 -0.00000000000E+00 -0.00000000000E+00 -0.21405710078E+02  0.21405710078E+02  0.00000000000E+00 0.  1.
         25    2    1    2    0    0  0.26566873030E+02  0.40639211585E+02  0.60992096668E+03  0.62450660695E+03  0.12509025651E+03 0.  0.
          5    1    3    3  502    0  0.43816500125E+01  0.37474938069E+02  0.59719200889E+03  0.59839730758E+03  0.41800000000E+01 0. -1.
         -5    1    3    3    0  502  0.22185223017E+02  0.31642735163E+01  0.12728957788E+02  0.26109299370E+02  0.41800000000E+01 0. -1.
        -11    1    1    2    0    0 -0.26328692929E+02 -0.10523568041E+02  0.16671886081E+03  0.16911275560E+03  0.00000000000E+00 0. -1.
         11    1    1    2    0    0 -0.23818010087E+00 -0.30115643544E+02  0.46400490594E+01  0.30471934155E+02  0.00000000000E+00 0.  1.
</event>
<event>
 7    1  0.2420569E-009  0.2063486E+03  0.7561462E-02  0.1144491E+00
         -2   -1    0    0    0  501 -0.00000000000E+00  0.00000000000E+00  0.14357444727E+03  0.14357444727E+03  0.00000000000E+00 0.  1.
          2   -1    0    0  501    0  0.00000000000E+00 -0.00000000000E+00 -0.69293688793E+03  0.69293688793E+03  0.00000000000E+00 0. -1.
         25    2    1    2    0    0  0.11587724277E+03 -0.16237398196E+03 -0.53752801344E+03  0.58683749232E+03  0.12509609010E+03 0.  0.
          5    1    3    3  502    0  0.52872166470E+02 -0.13340574048E+03 -0.46390971937E+03  0.48561533924E+03  0.41800000000E+01 0. -1.
         -5    1    3    3    0  502  0.63005076296E+02 -0.28968241480E+02 -0.73618294068E+02  0.10122215308E+03  0.41800000000E+01 0. -1.
        -11    1    1    2    0    0 -0.12242156233E+02  0.22027699719E+02  0.56843940338E+02  0.62179767588E+02  0.00000000000E+00 0.  1.
         11    1    1    2    0    0 -0.10363508653E+03  0.14034628224E+03 -0.68678367563E+02  0.18749407529E+03  0.00000000000E+00 0. -1.
</event>
<event>
 7    1  0.2420569E-009  0.1156596E+03  0.7561462E-02  0.1250434E+00
          1   -1    0    0  501    0  0.00000000000E+00  0.00000000000E+00  0.46591021994E+03  0.46591021994E+03  0.00000000000E+00 0. -1.
         -1   -1    0    0    0  501 -0.00000000000E+00 -0.00000000000E+00 -0.43814765981E+02  0.43814765981E+02  0.00000000000E+00 0.  1.
         25    2    1    2    0    0  0.18223216542E+02 -0.57875069413E+02  0.17116172481E+03  0.22051262868E+03  0.12509146288E+03 0.  0.
          5    1    3    3  502    0 -0.33048007628E+02 -0.15876127684E+02  0.14418765405E+03  0.14883472115E+03  0.41800000000E+01 0. -1.
         -5    1    3    3    0  502  0.51271224170E+02 -0.41998941729E+02  0.26974070761E+02  0.71677907528E+02  0.41800000000E+01 0. -1.
        -11    1    1    2    0    0  0.46693877155E+02  0.37748252142E+02  0.53546713105E+02  0.80451843906E+02  0.00000000000E+00 0.  1.
         11    1    1    2    0    0 -0.64917093697E+02  0.20126817271E+02  0.19738701605E+03  0.20876051334E+03  0.00000000000E+00 0. -1.
</event>
<event>
 7    1  0.2420569E-009  0.1172163E+03  0.7561462E-02  0.1247761E+00
          3   -1    0    0  501    0  0.00000000000E+00  0.00000000000E+00  0.11296431641E+03  0.11296431641E+03  0.00000000000E+00 0. -1.
         -3   -1    0    0    0  501 -0.00000000000E+00 -0.00000000000E+00 -0.17605440000E+03  0.17605440000E+03  0.00000000000E+00 0.  1.
         25    2    1    2    0    0  0.62259353415E+02 -0.68648455510E+02 -0.25760136081E+02  0.15779897896E+03  0.12509234836E+03 0.  0.
          5    1    3    3  502    0 -0.20426670029E+02 -0.23096534044E+02  0.33924274374E+02  0.46032896120E+02  0.41800000000E+01 0. -1.
         -5    1    3    3    0  502  0.82686023444E+02 -0.45551921466E+02 -0.59684410456E+02  0.11176608284E+03  0.41800000000E+01 0. -1.
        -11    1    1    2    0    0  0.11447192294E+01  0.38670772389E+02 -0.46499431184E+02  0.60489140510E+02  0.00000000000E+00 0. -1.
         11    1    1    2    0    0 -0.63404072645E+02  0.29977683121E+02  0.91694836771E+01  0.70730596945E+02  0.00000000000E+00 0.  1.
</event>
<event>
 7    1  0.2420569E-009  0.1009198E+03  0.7561462E-02  0.1278374E+00
          1   -1    0    0  501    0  0.00000000000E+00  0.00000000000E+00  0.53995550145E+02  0.53995550145E+02  0.00000000000E+00 0. -1.
         -1   -1    0    0    0  501 -0.00000000000E+00 -0.00000000000E+00 -0.28340687975E+03  0.28340687975E+03  0.00000000000E+00 0.  1.
         25    2    1    2    0    0  0.13356016966E+02 -0.58054605646E+02 -0.14344748736E+03  0.19943313290E+03  0.12509065690E+03 0.  0.
          5    1    3    3  502    0  0.36958818209E+02 -0.63862593469E+02 -0.15536064113E+03  0.17204297807E+03  0.41800000000E+01 0. -1.
         -5    1    3    3    0  502 -0.23602801243E+02  0.58079878234E+01  0.11913153778E+02  0.27390154837E+02  0.41800000000E+01 0. -1.
        -11    1    1    2    0    0 -0.47412437963E+02  0.48668712734E+02 -0.36332250613E+02  0.77049434180E+02  0.00000000000E+00 0. -1.
         11    1    1    2    0    0  0.34056420998E+02  0.93858929119E+01 -0.49631591636E+02  0.60919862813E+02  0.00000000000E+00 0.  1.
</event>
<event>
 7    1  0.2420569E-009  0.2159307E+03  0.7561462E-02  0.1136954E+00
         -2   -1    0    0    0  501 -0.00000000000E+00  0.00000000000E+00  0.45528358266E+03  0.45528358266E+03  0.00000000000E+00 0.  1.
          2   -1    0    0  501    0  0.00000000000E+00 -0.00000000000E+00 -0.13057039350E+03  0.13057039350E+03  0.00000000000E+00 0. -1.
         25    2    1    2    0    0 -0.17820756016E+03  0.12145147215E+03  0.20488287769E+03  0.32269572333E+03  0.12508853545E+03 0.  0.
          5    1    3    3  502    0 -0.13261641544E+03  0.90149440399E+02  0.66564923734E+02  0.17367324699E+03  0.41800000000E+01 0. -1.
         -5    1    3    3    0  502 -0.45591144715E+02  0.31302031752E+02  0.13831795395E+03  0.14902247634E+03  0.41800000000E+01 0. -1.
        -11    1    1    2    0    0  0.24490690961E+02 -0.11887645500E+02  0.58756663383E+02  0.64756895781E+02  0.00000000000E+00 0.  1.
         11    1    1    2    0    0  0.15371686919E+03 -0.10956382665E+03  0.61073648094E+02  0.19840135704E+03  0.00000000000E+00 0. -1.
</event>
<event>
 7    1  0.2420569E-009  0.1014527E+03  0.7561462E-02  0.1277271E+00
         -2   -1    0    0    0  501 -0.00000000000E+00  0.00000000000E+00  0.11183166469E+02  0.11183166469E+02  0.00000000000E+00 0.  1.
          2   -1    0    0  501    0  0.00000000000E+00 -0.00000000000E+00 -0.11646975117E+04  0.11646975117E+04  0.00000000000E+00 0. -1.
         25    2    1    2    0    0 -0.21521576717E+01  0.27866720582E+02 -0.76722952728E+03  0.77786287084E+03  0.12509321486E+03 0.  0.
          5    1    3    3  502    0  0.27610657251E+02  0.60612115640E+02 -0.25089640517E+03  0.25962021393E+03  0.41800000000E+01 0.  1.
         -5    1    3    3    0  502 -0.29762814923E+02 -0.32745395059E+02 -0.51633312211E+03  0.51824265691E+03  0.41800000000E+01 0.  1.
        -11    1    1    2    0    0 -0.27798790169E+02 -0.48115723401E+02 -0.28759371269E+03  0.29291302319E+03  0.00000000000E+00 0. -1.
         11    1    1    2    0    0  0.29950947841E+02  0.20249002819E+02 -0.98691105252E+02  0.10510478413E+03  0.00000000000E+00 0.  1.
</event>
<event>
 7    1  0.2420569E-009  0.1576330E+03  0.7561462E-02  0.1191395E+00
          1   -1    0    0  501    0  0.00000000000E+00  0.00000000000E+00  0.24239210777E+03  0.24239210777E+03  0.00000000000E+00 0. -1.
         -1   -1    0    0    0  501 -0.00000000000E+00 -0.00000000000E+00 -0.19827809402E+03  0.19827809402E+03  0.00000000000E+00 0.  1.
         25    2    1    2    0    0  0.14813795448E+03 -0.38807369868E+02  0.13643508805E+03  0.24023351675E+03  0.12508694499E+03 0.  0.
          5    1    3    3  502    0  0.79164650761E+02 -0.46649703635E+02  0.57072389802E+01  0.92159002578E+02  0.41800000000E+01 0.  1.
         -5    1    3    3    0  502  0.68973303714E+02  0.78423337678E+01  0.13072784907E+03  0.14807451417E+03  0.41800000000E+01 0.  1.
        -11    1    1    2    0    0 -0.10004980451E+03  0.32743444486E+02 -0.10668988361E+03  0.14988271350E+03  0.00000000000E+00 0. -1.
         11    1    1    2    0    0 -0.48088149962E+02  0.60639253820E+01  0.14368809307E+02  0.50553971542E+02  0.00000000000E+00 0.  1.
</event>
<event>
 7    1  0.2420569E-009  0.9687084E+02  0.7561462E-02  0.1287017E+00
         -1   -1    0    0    0  501 -0.00000000000E+00  0.00000000000E+00  0.21348992629E+02  0.21348992629E+02  0.00000000000E+00 0.  1.
          1   -1    0    0  501    0  0.00000000000E+00 -0.00000000000E+00 -0.10111547288E+04  0.10111547288E+04  0.00000000000E+00 0. -1.
         25    2    1    2    0    0 -0.60006458924E+02 -0.24526202587E+02 -0.79791629410E+03  0.81026061854E+03  0.12509815282E+03 0.  0.
          5    1    3    3  502    0 -0.60874365720E+02 -0.36660279366E+02 -0.79346108196E+03  0.79664774240E+03  0.41800000000E+01 0.  1.
         -5    1    3    3    0  502  0.86790679540E+00  0.12134076779E+02 -0.44552121353E+01  0.13612876134E+02  0.41800000000E+01 0.  1.
        -11    1    1    2    0    0  0.49435625271E+01  0.49134851893E+02 -0.10966346938E+03  0.12026948489E+03  0.00000000000E+00 0.  1.
         11    1    1    2    0    0  0.55062896397E+02 -0.24608649306E+02 -0.82225972656E+02  0.10197361796E+03  0.00000000000E+00 0. -1.
</event>
<event>
 7    1  0.2420569E-009  0.1126663E+03  0.7561462E-02  0.1255711E+00
          3   -1    0    0  501    0  0.00000000000E+00  0.00000000000E+00  0.27905568885E+03  0.27905568885E+03  0.00000000000E+00 0. -1.
         -3   -1    0    0    0  501 -0.00000000000E+00 -0.00000000000E+00 -0.57687034363E+02  0.57687034363E+02  0.00000000000E+00 0.  1.
         25    2    1    2    0    0 -0.58390889218E+02  0.28108637108E+02  0.11342467287E+03  0.18086681840E+03  0.12509219864E+03 0.  0.
          5    1    3    3  502    0 -0.23530530084E+02 -0.49609900641E+02  0.52279618014E+02  0.75930619300E+02  0.41800000000E+01 0. -1.
         -5    1    3    3    0  502 -0.34860359134E+02  0.77718537749E+02  0.61145054856E+02  0.10493619910E+03  0.41800000000E+01 0. -1.
        -11    1    1    2    0    0  0.49682844278E+02 -0.44323040024E+02  0.25328510945E+02  0.71235176417E+02  0.00000000000E+00 0.  1.
         11    1    1    2    0    0  0.87080449402E+01  0.16214402916E+02  0.82615470676E+02  0.84640728397E+02  0.00000000000E+00 0. -1.
</event>
<event>
 7    1  0.2420569E-009  0.1276800E+03  0.7561462E-02  0.1230939E+00
         -2   -1    0    0    0  501 -0.00000000000E+00  0.00000000000E+00  0.13169345643E+02  0.13169345643E+02  0.00000000000E+00 0.  1.
          2   -1    0    0  501    0  0.00000000000E+00 -0.00000000000E+00 -0.20833563459E+04  0.20833563459E+04  0.00000000000E+00 0. -1.
         25    2    1    2    0    0 -0.39552276817E+02  0.82196393562E+02 -0.16392718741E+04  0.16465661193E+04  0.12508828175E+03 0.  0.
          5    1    3    3  502    0 -0.64493980208E+02 -0.78322184073E+00 -0.87580835178E+03  0.87819008670E+03  0.41800000000E+01 0.  1.
         -5    1    3    3    0  502  0.24941703391E+02  0.82979615403E+02 -0.76346352233E+03  0.76837603259E+03  0.41800000000E+01 0.  1.
        -11    1    1    2    0    0  0.28994211281E+02 -0.94879913538E+01 -0.31530182962E+02  0.43872983776E+02  0.00000000000E+00 0.  1.
         11    1    1    2    0    0  0.10558065536E+02 -0.72708402208E+02 -0.39938494323E+03  0.40608658852E+03  0.00000000000E+00 0. -1.
</event>
<event>
 7    1  0.2420569E-009  0.1170641E+03  0.7561462E-02  0.1248020E+00
         -1   -1    0    0    0  501 -0.00000000000E+00  0.00000000000E+00  0.33347066800E+03  0.33347066800E+03  0.00000000000E+00 0.  1.
          1   -1    0    0  501    0  0.00000000000E+00 -0.00000000000E+00 -0.44287788384E+02  0.44287788384E+02  0.00000000000E+00 0. -1.
         25    2    1    2    0    0 -0.51421120961E+02  0.74078728157E+01  0.18199577006E+03  0.22686848458E+03  0.12509132950E+03 0.  0.
          5    1    3    3  502    0 -0.10516412536E+02 -0.55164798195E+02  0.50951216604E+02  0.75942404268E+02  0.41800000000E+01 0. -1.
         -5    1    3    3    0  502 -0.40904708425E+02  0.62572671011E+02  0.13104455345E+03  0.15092608031E+03  0.41800000000E+01 0. -1.
        -11    1    1    2    0    0 -0.12948452150E+02  0.27006140306E+02  0.49496987234E+02  0.57852793990E+02  0.00000000000E+00 0. -1.
         11    1    1    2    0    0  0.64369573111E+02 -0.34414013121E+02  0.57690122326E+02  0.93037177814E+02  0.00000000000E+00 0.  1.
</event>
<event>
 7    1  0.2420569E-009  0.9828824E+02  0.7561462E-02  0.1283937E+00
         -1   -1    0    0    0  501 -0.00000000000E+00  0.00000000000E+00  0.53166039749E+02  0.53166039749E+02  0.00000000000E+00 0.  1.
          1   -1    0    0  501    0  0.00000000000E+00 -0.00000000000E+00 -0.24169832190E+03  0.24169832190E+03  0.00000000000E+00 0. -1.
         25    2    1    2    0    0  0.77050346218E+01 -0.62099883741E+01 -0.59005325611E+02  0.13866274220E+03  0.12509115121E+03 0.  0.
          5    1    3    3  502    0 -0.47161083067E+02  0.32398124975E+02 -0.18969337731E+02  0.60424452268E+02  0.41800000000E+01 0.  1.
         -5    1    3    3    0  502  0.54866117688E+02 -0.38608113349E+02 -0.40035987880E+02  0.78238289936E+02  0.41800000000E+01 0.  1.
        -11    1    1    2    0    0  0.10707888705E+02 -0.29733508623E+02 -0.15430629823E+02  0.35168803680E+02  0.00000000000E+00 0.  1.
         11    1    1    2    0    0 -0.18412923327E+02  0.35943496997E+02 -0.11409632671E+03  0.12103281576E+03  0.00000000000E+00 0. -1.
</event>
<event>
 7    1  0.2420569E-009  0.1331531E+03  0.7561462E-02  0.1222851E+00
          4   -1    0    0  501    0  0.00000000000E+00  0.00000000000E+00  0.46292475724E+03  0.46292475724E+03  0.00000000000E+00 0. -1.
         -4   -1    0    0    0  501 -0.00000000000E+00 -0.00000000000E+00 -0.45590923464E+02  0.45590923464E+02  0.00000000000E+00 0.  1.
         25    2    1    2    0    0  0.14426778734E+02  0.86955968953E+02  0.15707187203E+03  0.21929121176E+03  0.12509032773E+03 0.  0.
          5    1    3    3  502    0  0.36589837727E+02  0.11232092803E+03  0.13133387010E+03  0.17669426967E+03  0.41800000000E+01 0. -1.
         -5    1    3    3    0  502 -0.22163058993E+02 -0.25364959073E+02  0.25738001925E+02  0.42596942094E+02  0.41800000000E+01 0. -1.
        -11    1    1    2    0    0  0.21150656810E+02 -0.10482534663E+01  0.12503580666E+02  0.24592451042E+02  0.00000000000E+00 0.  1.
         11    1    1    2    0    0 -0.35577435543E+02 -0.85907715487E+02  0.24775838109E+03  0.26463201790E+03  0.00000000000E+00 0. -1.
</event>
<event>
 7    1  0.2420569E-009  0.8554076E+02  0.7561462E-02  0.1314024E+00
         -2   -1    0    0    0  501 -0.00000000000E+00  0.00000000000E+00  0.12202561980E+03  0.12202561980E+03  0.00000000000E+00 0.  1.
          2   -1    0    0  501    0  0.00000000000E+00 -0.00000000000E+00 -0.93156125903E+02  0.93156125903E+02  0.00000000000E+00 0. -1.
         25    2    1    2    0    0 -0.95390225439E+01  0.31095647092E+01  0.11081949162E+02  0.12598072191E+03  0.12509064854E+03 0.  0.
          5    1    3    3  502    0  0.25909928874E+02 -0.47201217005E+02  0.29583893400E+02  0.61578879900E+02  0.41800000000E+01 0. -1.
         -5    1    3    3    0  502 -0.35448951418E+02  0.50310781714E+02 -0.18501944238E+02  0.64401842007E+02  0.41800000000E+01 0. -1.
        -11    1    1    2    0    0  0.10206745846E+02  0.25138564248E+02  0.43322016292E+02  0.51116750374E+02  0.00000000000E+00 0.  1.
         11    1    1    2    0    0 -0.66772330203E+00 -0.28248128957E+02 -0.25534471560E+02  0.38084273419E+02  0.00000000000E+00 0. -1.
</event>
<event>
 7    1  0.2420569E-009  0.1708134E+03  0.7561462E-02  0.1177002E+00
          1   -1    0    0  501    0  0.00000000000E+00  0.00000000000E+00  0.61307271885E+02  0.61307271885E+02  0.00000000000E+00 0. -1.
         -1   -1    0    0    0  501 -0.00000000000E+00 -0.00000000000E+00 -0.58123721331E+03  0.58123721331E+03  0.00000000000E+00 0.  1.
         25    2    1    2    0    0 -0.29621351531E+02  0.15191780476E+03 -0.29099946278E+03  0.35254036806E+03  0.12509028701E+03 0.  0.
          5    1    3    3  502    0 -0.94052953021E+01  0.16305691913E+03 -0.28470450906E+03  0.32825317718E+03  0.41800000000E+01 0. -1.
         -5    1    3    3    0  502 -0.20216056229E+02 -0.11139114363E+02 -0.62949537231E+01  0.24287190875E+02  0.41800000000E+01 0. -1.
        -11    1    1    2    0    0  0.82511061040E+01 -0.38407126152E+02 -0.13658585053E+03  0.14212277318E+03  0.00000000000E+00 0.  1.
         11    1    1    2    0    0  0.21370245427E+02 -0.11351067861E+03 -0.92344628115E+02  0.14788134396E+03  0.00000000000E+00 0. -1.
</event>
<event>
 7    1  0.2420569E-009  0.1131777E+03  0.7561462E-02  0.1254796E+00
          1   -1    0    0  501    0  0.00000000000E+00  0.00000000000E+00  0.74707407687E+03  0.74707407687E+03  0.00000000000E+00 0. -1.
         -1   -1    0    0    0  501 -0.00000000000E+00 -0.00000000000E+00 -0.18080332824E+02  0.18080332824E+02  0.00000000000E+00 0.  1.
         25    2    1    2    0    0 -0.16453465655E+02  0.38997319447E+02  0.45625801668E+03  0.47498473439E+03  0.12509041795E+03 0.  0.
          5    1    3    3  502    0 -0.21864603156E+02 -0.41237708059E+02  0.11150650210E+03  0.12095363511E+03  0.41800000000E+01 0. -1.
         -5    1    3    3    0  502  0.54111375010E+01  0.80235027506E+02  0.34475151458E+03  0.35403109928E+03  0.41800000000E+01 0. -1.
        -11    1    1    2    0    0 -0.20286844602E+01 -0.66117161587E+02  0.18824243120E+03  0.19952645819E+03  0.00000000000E+00 0.  1.
         11    1    1    2    0    0  0.18482150115E+02  0.27119842139E+02  0.84493296173E+02  0.90643217114E+02  0.00000000000E+00 0. -1.
</event>
<event>
 7    1  0.2420569E-009  0.1558635E+03  0.7561462E-02  0.1193448E+00
         -1   -1    0    0    0  501 -0.00000000000E+00  0.00000000000E+00  0.10246703368E+04  0.10246703368E+04  0.00000000000E+00 0.  1.
          1   -1    0    0  501    0  0.00000000000E+00 -0.00000000000E+00 -0.34230291974E+02  0.34230291974E+02  0.00000000000E+00 0. -1.
         25    2    1    2    0    0  0.12516981402E+03  0.38905359281E+02  0.73487539619E+03  0.75688307106E+03  0.12509606715E+03 0.  0.
          5    1    3    3  502    0  0.12781011440E+03 -0.86774042450E+00  0.65666614481E+03  0.66900229929E+03  0.41800000000E+01 0. -1.
         -5    1    3    3    0  502 -0.26403003799E+01  0.39773099706E+02  0.78209251381E+02  0.87880771775E+02  0.41800000000E+01 0. -1.
        -11    1    1    2    0    0 -0.98644400449E+02 -0.24407447916E+01  0.22978745567E+03  0.25007788738E+03  0.00000000000E+00 0.  1.
         11    1    1    2    0    0 -0.26525413570E+02 -0.36464614490E+02  0.25777192942E+02  0.51939670300E+02  0.00000000000E+00 0. -1.
</event>
<event>
 7    1  0.2420569E-009  0.1447868E+03  0.7561462E-02  0.1207029E+00
         -1   -1    0    0    0  501 -0.00000000000E+00  0.00000000000E+00  0.24091618733E+03  0.24091618733E+03  0.00000000000E+00 0.  1.
          1   -1    0    0  501    0  0.00000000000E+00 -0.00000000000E+00 -0.11954110717E+03  0.11954110717E+03  0.00000000000E+00 0. -1.
         25    2    1    2    0    0 -0.88463547932E+02 -0.79589402150E+02  0.10489475421E+02  0.17297081627E+03  0.12509437213E+03 0.  0.
          5    1    3    3  502    0  0.29788642383E+02 -0.25175116588E+02  0.16591324319E+02  0.42589836263E+02  0.41800000000E+01 0. -1.
         -5    1    3    3    0  502 -0.11825219032E+03 -0.54414285562E+02 -0.61018488974E+01  0.13038098001E+03  0.41800000000E+01 0. -1.
        -11    1    1    2    0    0  0.71850864226E+02  0.55229150302E+02  0.21190199940E+02  0.93068954580E+02  0.00000000000E+00 0. -1.
         11    1    1    2    0    0  0.16612683707E+02  0.24360251848E+02  0.89695404798E+02  0.94417523649E+02  0.00000000000E+00 0.  1.
</event>
<event>
 7    1  0.2420569E-009  0.1760933E+03  0.7561462E-02  0.1171638E+00
         -1   -1    0    0    0  501 -0.00000000000E+00  0.00000000000E+00  0.40553863162E+03  0.40553863162E+03  0.00000000000E+00 0.  1.
          1   -1    0    0  501    0  0.00000000000E+00 -0.00000000000E+00 -0.10100460520E+03  0.10100460520E+03  0.00000000000E+00 0. -1.
         25    2    1    2    0    0  0.67424612641E+02  0.13883050547E+03  0.24832285008E+03  0.31801232192E+03  0.12509041284E+03 0.  0.
          5    1    3    3  502    0  0.42027270893E+02  0.15939966134E+03  0.19552557969E+03  0.25577777121E+03  0.41800000000E+01 0.  1.
         -5    1    3    3    0  502  0.25397341748E+02 -0.20569155870E+02  0.52797270397E+02  0.62234550713E+02  0.41800000000E+01 0.  1.
        -11    1    1    2    0    0 -0.48215830947E+02 -0.98662909842E+02  0.82023367984E+02  0.13706556470E+03  0.00000000000E+00 0.  1.
         11    1    1    2    0    0 -0.19208781694E+02 -0.40167595628E+02 -0.25812191647E+02  0.51465350191E+02  0.00000000000E+00 0. -1.
</event>
<event>
 7    1  0.2420569E-009  0.1138639E+03  0.7561462E-02  0.1253577E+00
         -2   -1    0    0    0  501 -0.00000000000E+00  0.00000000000E+00  0.31114246737E+03  0.31114246737E+03  0.00000000000E+00 0.  1.
          2   -1    0    0  501    0  0.00000000000E+00 -0.00000000000E+00 -0.56516068386E+02  0.56516068386E+02  0.00000000000E+00 0. -1.
         25    2    1    2    0    0 -0.46945865841E+01  0.63595542700E+02  0.82251199519E+02  0.16272553806E+03  0.12509160131E+03 0.  0.
          5    1    3    3  502    0  0.20645899272E+02  0.94441304610E+02  0.40758701427E+02  0.10499598714E+03  0.41800000000E+01 0.  1.
         -5    1    3    3    0  502 -0.25340485856E+02 -0.30845761910E+02  0.41492498092E+02  0.57729550918E+02  0.41800000000E+01 0.  1.
        -11    1    1    2    0    0 -0.19693218888E+02  0.29876822065E+01  0.15540800705E+01  0.19979096076E+02  0.00000000000E+00 0. -1.
         11    1    1    2    0    0  0.24387805472E+02 -0.66583224906E+02  0.17082111940E+03  0.18495390163E+03  0.00000000000E+00 0.  1.
</event>
<event>
 7    1  0.2420569E-009  0.1320628E+03  0.7561462E-02  0.1224427E+00
         -1   -1    0    0    0  501 -0.00000000000E+00  0.00000000000E+00  0.41920723153E+02  0.41920723153E+02  0.00000000000E+00 0.  1.
          1   -1    0    0  501    0  0.00000000000E+00 -0.00000000000E+00 -0.60153357947E+03  0.60153357947E+03  0.00000000000E+00 0. -1.
         25    2    1    2    0    0  0.39777367917E+00 -0.89782977449E+02 -0.44895127939E+03  0.47462211998E+03  0.12509102383E+03 0.  0.
          5    1    3    3  502    0  0.52295346698E+02 -0.61812601677E+02 -0.35082421891E+03  0.36007041809E+03  0.41800000000E+01 0. -1.
         -5    1    3    3    0  502 -0.51897573019E+02 -0.27970375772E+02 -0.98127060487E+02  0.11455170189E+03  0.41800000000E+01 0. -1.
        -11    1    1    2    0    0 -0.34551528538E+02  0.81909352197E+02 -0.96000617151E+02  0.13083985859E+03  0.00000000000E+00 0. -1.
         11    1    1    2    0    0  0.34153754859E+02  0.78736252523E+01 -0.14660959770E+02  0.37992324053E+02  0.00000000000E+00 0.  1.
</event>
<event>
 7    1  0.2420569E-009  0.9577948E+02  0.7561462E-02  0.1289430E+00
         -1   -1    0    0    0  501 -0.00000000000E+00  0.00000000000E+00  0.27398555792E+02  0.27398555792E+02  0.00000000000E+00 0.  1.
          1   -1    0    0  501    0  0.00000000000E+00 -0.00000000000E+00 -0.65245768437E+03  0.65245768437E+03  0.00000000000E+00 0. -1.
         25    2    1    2    0    0 -0.66708847644E+02 -0.28743145538E+02 -0.27027298521E+03  0.30654727142E+03  0.12508998486E+03 0.  0.
          5    1    3    3  502    0 -0.39961653346E+02  0.20719473386E+02 -0.19021144407E+02  0.49045964667E+02  0.41800000000E+01 0.  1.
         -5    1    3    3    0  502 -0.26747194298E+02 -0.49462618924E+02 -0.25125184080E+03  0.25750130675E+03  0.41800000000E+01 0.  1.
        -11    1    1    2    0    0  0.73390955501E+02  0.15323063485E+02 -0.34944029814E+03  0.35739271199E+03  0.00000000000E+00 0. -1.
         11    1    1    2    0    0 -0.66821078573E+01  0.13420082053E+02 -0.53458452369E+01  0.15916256753E+02  0.00000000000E+00 0.  1.
</event>
<event>
 7    1  0.2420569E-009  0.1810668E+03  0.7561462E-02  0.1166775E+00
          1   -1    0    0  501    0  0.00000000000E+00  0.00000000000E+00  0.22610583122E+04  0.22610583122E+04  0.00000000000E+00 0. -1.
         -1   -1    0    0    0  501 -0.00000000000E+00 -0.00000000000E+00 -0.21877127289E+02  0.21877127289E+02  0.00000000000E+00 0.  1.
         25    2    1    2    0    0  0.19739894266E+02 -0.16849084242E+03  0.16402989203E+04  0.16537859007E+04  0.12509368479E+03 0.  0.
          5    1    3    3  502    0  0.45048251559E+02 -0.12137301530E+03  0.14583933414E+04  0.14641343396E+04  0.41800000000E+01 0. -1.
         -5    1    3    3    0  502 -0.25308357294E+02 -0.47117827122E+02  0.18190557892E+03  0.18965156109E+03  0.41800000000E+01 0. -1.
        -11    1    1    2    0    0  0.19954991133E+02  0.69317830125E+02  0.36454898813E+03  0.37161691026E+03  0.00000000000E+00 0. -1.
         11    1    1    2    0    0 -0.39694885398E+02  0.99173012296E+02  0.23433327643E+03  0.25753262849E+03  0.00000000000E+00 0.  1.
</event>
<event>
 7    1  0.2420569E-009  0.2218331E+03  0.7561462E-02  0.1132524E+00
         -1   -1    0    0    0  501 -0.00000000000E+00  0.00000000000E+00  0.15725496435E+03  0.15725496435E+03  0.00000000000E+00 0.  1.
          1   -1    0    0  501    0  0.00000000000E+00 -0.00000000000E+00 -0.35932938801E+03  0.35932938801E+03  0.00000000000E+00 0. -1.
         25    2    1    2    0    0 -0.15037224775E+03 -0.14422027907E+03 -0.14345286838E+03  0.28220158537E+03  0.12509079722E+03 0.  0.
          5    1    3    3  502    0 -0.75468176146E+02 -0.31142043275E+02 -0.11890924335E+03  0.14429883238E+03  0.41800000000E+01 0.  1.
         -5    1    3    3    0  502 -0.74904071600E+02 -0.11307823579E+03 -0.24543625027E+02  0.13790275299E+03  0.41800000000E+01 0.  1.
        -11    1    1    2    0    0  0.16229190813E+03  0.13265949169E+03 -0.49267267629E+02  0.21532409953E+03  0.00000000000E+00 0.  1.
         11    1    1    2    0    0 -0.11919660380E+02  0.11560787380E+02 -0.93542876505E+01  0.19058667474E+02  0.00000000000E+00 0. -1.
</event>
<event>
 7    1  0.2420569E-009  0.9667884E+02  0.7561462E-02  0.1287439E+00
         -2   -1    0    0    0  501 -0.00000000000E+00  0.00000000000E+00  0.67721755861E+02  0.67721755861E+02  0.00000000000E+00 0.  1.
          2   -1    0    0  501    0  0.00000000000E+00 -0.00000000000E+00 -0.24539795429E+03  0.24539795429E+03  0.00000000000E+00 0. -1.
         25    2    1    2    0    0  0.38221405639E+02  0.58567474552E+02 -0.10082509352E+03  0.17522636468E+03  0.12509018536E+03 0.  0.
          5    1    3    3  502    0  0.21887997223E+02  0.26892372747E+01 -0.11333351710E+03  0.11553473468E+03  0.41800000000E+01 0.  1.
         -5    1    3    3    0  502  0.16333408416E+02  0.55878237277E+02  0.12508423581E+02  0.59691630001E+02  0.41800000000E+01 0.  1.
        -11    1    1    2    0    0 -0.53662175107E+02 -0.73540644808E+02 -0.51307183044E+02  0.10450015554E+03  0.00000000000E+00 0.  1.
         11    1    1    2    0    0  0.15440769468E+02  0.14973170256E+02 -0.25543921861E+02  0.33393189924E+02  0.00000000000E+00 0. -1.
</event>
<event>
 7    1  0.2420569E-009  0.1309731E+03  0.7561462E-02  0.1226019E+00
         -2   -1    0    0    0  501 -0.00000000000E+00  0.00000000000E+00  0.12839771001E+03  0.12839771001E+03  0.00000000000E+00 0.  1.
          2   -1    0    0  501    0  0.00000000000E+00 -0.00000000000E+00 -0.24933411273E+03  0.24933411273E+03  0.00000000000E+00 0. -1.
         25    2    1    2    0    0  0.10306357270E+03 -0.56308510997E+02  0.19978803365E+02  0.17274049754E+03  0.12508948188E+03 0.  0.
          5    1    3    3  502    0  0.48661801611E+01 -0.92782134882E+01  0.56660729413E+02  0.57772619921E+02  0.41800000000E+01 0. -1.
         -5    1    3    3    0  502  0.98197392536E+02 -0.47030297509E+02 -0.36681926048E+02  0.11496787761E+03  0.41800000000E+01 0. -1.
        -11    1    1    2    0    0 -0.60980623824E+02 -0.11350935349E+02 -0.93708870472E+02  0.11237807891E+03  0.00000000000E+00 0.  1.
         11    1    1    2    0    0 -0.42082948873E+02  0.67659446346E+02 -0.47206335623E+02  0.92613246291E+02  0.00000000000E+00 0. -1.
</event>
<event>
 7    1  0.2420569E-009  0.1214710E+03  0.7561462E-02  0.1240690E+00
          3   -1    0    0  501    0  0.00000000000E+00  0.00000000000E+00  0.15226564840E+03  0.15226564840E+03  0.00000000000E+00 0. -1.
         -3   -1    0    0    0  501 -0.00000000000E+00 -0.00000000000E+00 -0.11189049934E+03  0.11189049934E+03  0.00000000000E+00 0.  1.
         25    2    1    2    0    0  0.57740121675E+02  0.41977707822E+02  0.35761973107E+02  0.14840434959E+03  0.12509549413E+03 0.  0.
          5    1    3    3  502    0 -0.18695872473E+02 -0.24861840244E+02  0.34680451457E+02  0.46774489426E+02  0.41800000000E+01 0.  1.
         -5    1    3    3    0  502  0.76435994147E+02  0.66839548066E+02  0.10815216498E+01  0.10162986016E+03  0.41800000000E+01 0.  1.
        -11    1    1    2    0    0 -0.30005782541E+01 -0.53838102650E+02 -0.15718601040E+02  0.56165996702E+02  0.00000000000E+00 0.  1.
         11    1    1    2    0    0 -0.54739543421E+02  0.11860394828E+02  0.20331776991E+02  0.59585801455E+02  0.00000000000E+00 0. -1.
</event>
<event>
 7    1  0.2420569E-009  0.1114678E+03  0.7561462E-02  0.1257876E+00
          2   -1    0    0  501    0  0.00000000000E+00  0.00000000000E+00  0.60533985515E+02  0.60533985515E+02  0.00000000000E+00 0. -1.
         -2   -1    0    0    0  501 -0.00000000000E+00 -0.00000000000E+00 -0.27018929428E+03  0.27018929428E+03  0.00000000000E+00 0.  1.
         25    2    1    2    0    0 -0.49452124262E+01  0.67095671518E+02 -0.10161336989E+03  0.17464363211E+03  0.12509531179E+03 0.  0.
          5    1    3    3  502    0 -0.33958611528E+02 -0.22465592370E+02 -0.57532796333E+02  0.70607260189E+02  0.41800000000E+01 0.  1.
         -5    1    3    3    0  502  0.29013399102E+02  0.89561263889E+02 -0.44080573559E+02  0.10403637192E+03  0.41800000000E+01 0.  1.
        -11    1    1    2    0    0  0.30154504196E+02 -0.27397022490E+02 -0.10051045577E+03  0.10845387353E+03  0.00000000000E+00 0.  1.
         11    1    1    2    0    0 -0.25209291770E+02 -0.39698649028E+02 -0.75314831031E+01  0.47625774156E+02  0.00000000000E+00 0. -1.
</event>
<event>
 7    1  0.2420569E-009  0.1250261E+03  0.7561462E-02  0.1235028E+00
          1   -1    0    0  501    0  0.00000000000E+00  0.00000000000E+00  0.98408821442E+02  0.98408821442E+02  0.00000000000E+00 0. -1.
         -1   -1    0    0    0  501 -0.00000000000E+00 -0.00000000000E+00 -0.16412556161E+03  0.16412556161E+03  0.00000000000E+00 0.  1.
         25    2    1    2    0    0 -0.65273491709E+02 -0.53814672868E+01 -0.42988015682E+02  0.14759632496E+03  0.12508843567E+03 0.  0.
          5    1    3    3  502    0 -0.22813634623E+02 -0.62325033387E+02 -0.37222215530E+02  0.76209169005E+02  0.41800000000E+01 0.  1.
         -5    1    3    3    0  502 -0.42459857086E+02  0.56943566100E+02 -0.57658001517E+01  0.71387155955E+02  0.41800000000E+01 0.  1.
        -11    1    1    2    0    0 -0.23495568952E+02  0.73424176544E+00 -0.80276957388E+01  0.24839983297E+02  0.00000000000E+00 0. -1.
         11    1    1    2    0    0  0.88769060661E+02  0.46472255214E+01 -0.14701028747E+02  0.90098074795E+02  0.00000000000E+00 0.  1.
</event>
<event>
 7    1  0.2420569E-009  0.1097293E+03  0.7561462E-02  0.1261072E+00
          1   -1    0    0  501    0  0.00000000000E+00  0.00000000000E+00  0.79874163838E+03  0.79874163838E+03  0.00000000000E+00 0. -1.
         -1   -1    0    0    0  501 -0.00000000000E+00 -0.00000000000E+00 -0.22338634386E+02  0.22338634386E+02  0.00000000000E+00 0.  1.
         25    2    1    2    0    0  0.57925702862E+02  0.48754646932E+02  0.37954900687E+03  0.40673947974E+03  0.12508858106E+03 0.  0.
          5    1    3    3  502    0  0.46222532286E+02  0.65780990414E+02  0.37700799845E+03  0.38550767111E+03  0.41800000000E+01 0.  1.
         -5    1    3    3    0  502  0.11703170575E+02 -0.17026343481E+02  0.25410084247E+01  0.21231808629E+02  0.41800000000E+01 0.  1.
        -11    1    1    2    0    0 -0.19783892622E+02  0.26756604768E+02  0.14057901703E+03  0.14446376132E+03  0.00000000000E+00 0. -1.
         11    1    1    2    0    0 -0.38141810240E+02 -0.75511251701E+02  0.25627498009E+03  0.26987703171E+03  0.00000000000E+00 0.  1.
</event>
<event>
 7    1  0.2420569E-009  0.1494476E+03  0.7561462E-02  0.1201153E+00
         -2   -1    0    0    0  501 -0.00000000000E+00  0.00000000000E+00  0.68798438852E+02  0.68798438852E+02  0.00000000000E+00 0.  1.
          2   -1    0    0  501    0  0.00000000000E+00 -0.00000000000E+00 -0.59055481820E+03  0.59055481820E+03  0.00000000000E+00 0. -1.
         25    2    1    2    0    0  0.85281414439E+02 -0.56857706493E+02 -0.54366638335E+02  0.17061247894E+03  0.12508864124E+03 0.  0.
          5    1    3    3  502    0 -0.17891395497E+02 -0.49933216768E+02  0.10564641308E+01  0.53216695557E+02  0.41800000000E+01 0.  1.
         -5    1    3    3    0  502  0.10317280994E+03 -0.69244897255E+01 -0.55423102466E+02  0.11739578338E+03  0.41800000000E+01 0.  1.
        -11    1    1    2    0    0 -0.62825694013E+02 -0.16933101166E+02 -0.19034064897E+03  0.20115506555E+03  0.00000000000E+00 0.  1.
         11    1    1    2    0    0 -0.22455720426E+02  0.73790807659E+02 -0.27704909204E+03  0.28758571257E+03  0.00000000000E+00 0. -1.
</event>
<event>
 7    1  0.2420569E-009  0.1178557E+03  0.7561462E-02  0.1246677E+00
          2   -1    0    0  501    0  0.00000000000E+00  0.00000000000E+00  0.23940027680E+03  0.23940027680E+03  0.00000000000E+00 0. -1.
         -2   -1    0    0    0  501 -0.00000000000E+00 -0.00000000000E+00 -0.79007962248E+02  0.79007962248E+02  0.00000000000E+00 0.  1.
         25    2    1    2    0    0 -0.16183590456E+02 -0.80712608359E+02  0.97232952597E+02  0.17855077677E+03  0.12509875725E+03 0.  0.
          5    1    3    3  502    0 -0.41098157039E+02 -0.10612123454E+03  0.75816738634E+02  0.13680798657E+03  0.41800000000E+01 0.  1.
         -5    1    3    3    0  502  0.24914566584E+02  0.25408626186E+02  0.21416213963E+02  0.41742790194E+02  0.41800000000E+01 0.  1.
        -11    1    1    2    0    0  0.12347219895E+01  0.62181705465E+02 -0.99356661784E+01  0.62982588827E+02  0.00000000000E+00 0.  1.
         11    1    1    2    0    0  0.14948868466E+02  0.18530902894E+02  0.73095028136E+02  0.76874873455E+02  0.00000000000E+00 0. -1.
</event>
<event>
 7    1  0.2420569E-009  0.8295487E+02  0.7561462E-02  0.1320869E+00
          3   -1    0    0  501    0  0.00000000000E+00  0.00000000000E+00  0.14996562826E+04  0.14996562826E+04  0.00000000000E+00 0. -1.
         -3   -1    0    0    0  501 -0.00000000000E+00 -0.00000000000E+00 -0.13597707728E+02  0.13597707728E+02  0.00000000000E+00 0.  1.
         25    2    1    2    0    0  0.41561193839E+02  0.31815638622E+02  0.12110708906E+04  0.12186384665E+04  0.12508973644E+03 0.  0.
          5    1    3    3  502    0  0.61454297009E+02  0.14450576709E+02  0.27493331863E+03  0.28211921572E+03  0.41800000000E+01 0.  1.
         -5    1    3    3    0  502 -0.19893103170E+02  0.17365061913E+02  0.93613757198E+03  0.93651925074E+03  0.41800000000E+01 0.  1.
        -11    1    1    2    0    0 -0.30457088947E+02  0.10454892119E+02  0.24814277473E+02  0.40653258207E+02  0.00000000000E+00 0.  1.
         11    1    1    2    0    0 -0.11104104892E+02 -0.42270530741E+02  0.25017340680E+03  0.25396226567E+03  0.00000000000E+00 0. -1.
</event>
<event>
 7    1  0.2950568E-009  0.1285224E+03  0.7561462E-02  0.1229665E+00
          2   -1    0    0  501    0  0.00000000000E+00  0.00000000000E+00  0.73045971935E+03  0.73045971935E+03  0.00000000000E+00 0. -1.
         -2   -1    0    0    0  501 -0.00000000000E+00 -0.00000000000E+00 -0.29414996037E+02  0.29414996037E+02  0.00000000000E+00 0.  1.
         25    2    1    2    0    0 -0.11741377348E+02  0.97387218062E+02  0.39068727202E+03  0.42178913785E+03  0.12508957631E+03 0.  0.
          5    1    3    3  502    0 -0.45435667074E+02  0.11276590338E+03  0.29480549680E+03  0.31891739080E+03  0.41800000000E+01 0.  1.
         -5    1    3    3    0  502  0.33694289726E+02 -0.15378685313E+02  0.95881775220E+02  0.10287174705E+03  0.41800000000E+01 0.  1.
        -11    1    1    2    0    0  0.32365352787E+01 -0.37012058015E+02  0.21630758856E+02  0.42991363409E+02  0.00000000000E+00 0.  1.
         11    1    1    2    0    0  0.85048420691E+01 -0.60375160048E+02  0.28872669243E+03  0.29509421413E+03  0.00000000000E+00 0. -1.
</event>
<event>
 7    1  0.2420569E-009  0.1008755E+03  0.7561462E-02  0.1278466E+00
          2   -1    0    0  501    0  0.00000000000E+00  0.00000000000E+00  0.61498646618E+03  0.61498646618E+03  0.00000000000E+00 0. -1.
         -2   -1    0    0    0  501 -0.00000000000E+00 -0.00000000000E+00 -0.26274257438E+02  0.26274257438E+02  0.00000000000E+00 0.  1.
         25    2    1    2    0    0  0.49474377516E+02  0.30437305375E+02  0.40208780071E+03  0.42508456434E+03  0.12509254081E+03 0.  0.
          5    1    3    3  502    0  0.35707322040E+02 -0.19580573739E+02  0.33660262282E+02  0.52999031803E+02  0.41800000000E+01 0.  1.
         -5    1    3    3    0  502  0.13767055476E+02  0.50017879114E+02  0.36842753843E+03  0.37208553254E+03  0.41800000000E+01 0.  1.
        -11    1    1    2    0    0  0.19543846435E+02 -0.34476813698E+02  0.59998011596E+02  0.71905312820E+02  0.00000000000E+00 0.  1.
         11    1    1    2    0    0 -0.69018223950E+02  0.40395083230E+01  0.12662639643E+03  0.14427084646E+03  0.00000000000E+00 0. -1.
</event>
<event>
 7    1  0.2420569E-009  0.7741498E+02  0.7561462E-02  0.1336552E+00
          1   -1    0    0  501    0  0.00000000000E+00  0.00000000000E+00  0.58282345640E+02  0.58282345640E+02  0.00000000000E+00 0. -1.
         -1   -1    0    0    0  501 -0.00000000000E+00 -0.00000000000E+00 -0.23603460327E+03  0.23603460327E+03  0.00000000000E+00 0.  1.
         25    2    1    2    0    0  0.21759557095E+01 -0.23520322158E+02 -0.13885852547E+03  0.18838298462E+03  0.12509403848E+03 0.  0.
          5    1    3    3  502    0 -0.24367740101E+02 -0.99592009507E+01  0.15691013603E+02  0.30929803573E+02  0.41800000000E+01 0.  1.
         -5    1    3    3    0  502  0.26543695810E+02 -0.13561121208E+02 -0.15454953907E+03  0.15745318105E+03  0.41800000000E+01 0.  1.
        -11    1    1    2    0    0  0.37461460394E+02  0.40310523699E+02 -0.26868343832E+02  0.61238935621E+02  0.00000000000E+00 0.  1.
         11    1    1    2    0    0 -0.39637416103E+02 -0.16790201540E+02 -0.12025388332E+02  0.44695028668E+02  0.00000000000E+00 0. -1.
</event>
<event>
 7    1  0.2420569E-009  0.1234121E+03  0.7561462E-02  0.1237572E+00
          2   -1    0    0  501    0  0.00000000000E+00  0.00000000000E+00  0.22880060219E+03  0.22880060219E+03  0.00000000000E+00 0. -1.
         -2   -1    0    0    0  501 -0.00000000000E+00 -0.00000000000E+00 -0.82696366063E+02  0.82696366063E+02  0.00000000000E+00 0.  1.
         25    2    1    2    0    0  0.18914828766E+02 -0.73463725906E+02  0.11568336824E+03  0.18650373937E+03  0.12508522430E+03 0.  0.
          5    1    3    3  502    0  0.16723501674E+01 -0.10741375432E+03  0.91738919198E+02  0.14132944870E+03  0.41800000000E+01 0.  1.
         -5    1    3    3    0  502  0.17242478599E+02  0.33950028418E+02  0.23944449045E+02  0.45174290673E+02  0.41800000000E+01 0.  1.
        -11    1    1    2    0    0 -0.31624135676E+02  0.57860597718E+01  0.44311471881E+02  0.54745511096E+02  0.00000000000E+00 0. -1.
         11    1    1    2    0    0  0.12709306910E+02  0.67677666134E+02 -0.13890603993E+02  0.70247717791E+02  0.00000000000E+00 0.  1.
</event>
<event>
 7    1  0.2420569E-009  0.1725095E+03  0.7561462E-02  0.1175256E+00
          2   -1    0    0  501    0  0.00000000000E+00  0.00000000000E+00  0.36882673080E+03  0.36882673080E+03  0.00000000000E+00 0. -1.
         -2   -1    0    0    0  501 -0.00000000000E+00 -0.00000000000E+00 -0.90018610742E+02  0.90018610742E+02  0.00000000000E+00 0.  1.
         25    2    1    2    0    0  0.10037355012E+03  0.99920516021E+02  0.10352386189E+03  0.21546106430E+03  0.12508925279E+03 0.  0.
          5    1    3    3  502    0  0.10115766381E+03  0.12114467478E+03  0.63923559656E+02  0.17033085173E+03  0.41800000000E+01 0.  1.
         -5    1    3    3    0  502 -0.78411368835E+00 -0.21224158755E+02  0.39600302237E+02  0.45130212568E+02  0.41800000000E+01 0.  1.
        -11    1    1    2    0    0 -0.20330314137E+02 -0.80634660036E+02  0.63902219860E+02  0.10487499118E+03  0.00000000000E+00 0.  1.
         11    1    1    2    0    0 -0.80043235982E+02 -0.19285855985E+02  0.11138203830E+03  0.13850928606E+03  0.00000000000E+00 0. -1.
</event>
<event>
 7    1  0.2420569E-009  0.8372980E+02  0.7561462E-02  0.1318788E+00
         -1   -1    0    0    0  501 -0.00000000000E+00  0.00000000000E+00  0.26389176874E+02  0.26389176874E+02  0.00000000000E+00 0.  1.
          1   -1    0    0  501    0  0.00000000000E+00 -0.00000000000E+00 -0.44720242304E+03  0.44720242304E+03  0.00000000000E+00 0. -1.
         25    2    1    2    0    0  0.51109700016E+00 -0.89241451111E+01 -0.23015686574E+03  0.26210572452E+03  0.12508927369E+03 0.  0.
          5    1    3    3  502    0  0.23221333619E+02 -0.55354725376E+02 -0.18066576002E+03  0.19042312150E+03  0.41800000000E+01 0. -1.
         -5    1    3    3    0  502 -0.22710236619E+02  0.46430580265E+02 -0.49491105722E+02  0.71682603027E+02  0.41800000000E+01 0. -1.
        -11    1    1    2    0    0  0.69858639868E+01 -0.22274117391E+02 -0.60546080548E+01  0.24116319783E+02  0.00000000000E+00 0.  1.
         11    1    1    2    0    0 -0.74969609870E+01  0.31198262502E+02 -0.18460177237E+03  0.18736955560E+03  0.00000000000E+00 0. -1.
</event>
<event>
 7    1  0.2420569E-009  0.1169534E+03  0.7561462E-02  0.1248209E+00
         -1   -1    0    0    0  501 -0.00000000000E+00  0.00000000000E+00  0.80462511917E+02  0.80462511917E+02  0.00000000000E+00 0.  1.
          1   -1    0    0  501    0  0.00000000000E+00 -0.00000000000E+00 -0.32384452823E+03  0.32384452823E+03  0.00000000000E+00 0. -1.
         25    2    1    2    0    0  0.12018209131E+02  0.68556245153E+02 -0.58596641402E+01  0.14326905687E+03  0.12508913179E+03 0.  0.
          5    1    3    3  502    0  0.48759748751E+02  0.86952905402E+02  0.69658582898E+01  0.10002157986E+03  0.41800000000E+01 0. -1.
         -5    1    3    3    0  502 -0.36741539620E+02 -0.18396660249E+02 -0.12825522430E+02  0.43247477008E+02  0.41800000000E+01 0. -1.
        -11    1    1    2    0    0  0.25087019037E+02 -0.22650292796E+02 -0.29695386732E+02  0.44991224490E+02  0.00000000000E+00 0.  1.
         11    1    1    2    0    0 -0.37105228169E+02 -0.45905952356E+02 -0.20782696544E+03  0.21604675879E+03  0.00000000000E+00 0. -1.
</event>
<event>
 7    1  0.2420569E-009  0.1724029E+03  0.7561462E-02  0.1175365E+00
         -3   -1    0    0    0  501 -0.00000000000E+00  0.00000000000E+00  0.25730380672E+03  0.25730380672E+03  0.00000000000E+00 0.  1.
          3   -1    0    0  501    0  0.00000000000E+00 -0.00000000000E+00 -0.18339816507E+03  0.18339816507E+03  0.00000000000E+00 0. -1.
         25    2    1    2    0    0  0.84148690622E+02 -0.11574275708E+03 -0.86954618569E+02  0.20901243465E+03  0.12509078383E+03 0.  0.
          5    1    3    3  502    0  0.94851397237E+02 -0.13289520310E+03 -0.92412609109E+02  0.18765789429E+03  0.41800000000E+01 0.  1.
         -5    1    3    3    0  502 -0.10702706616E+02  0.17152446024E+02  0.54579905398E+01  0.21354540366E+02  0.41800000000E+01 0.  1.
        -11    1    1    2    0    0 -0.92012531800E+02  0.73218649372E+02  0.87655199078E+02  0.14666530111E+03  0.00000000000E+00 0. -1.
         11    1    1    2    0    0  0.78638411781E+01  0.42524107704E+02  0.73205061143E+02  0.85024236022E+02  0.00000000000E+00 0.  1.
</event>
<event>
 7    1  0.2420569E-009  0.8629832E+02  0.7561462E-02  0.1312072E+00
          1   -1    0    0  501    0  0.00000000000E+00  0.00000000000E+00  0.60238196550E+03  0.60238196550E+03  0.00000000000E+00 0. -1.
         -1   -1    0    0    0  501 -0.00000000000E+00 -0.00000000000E+00 -0.20414478884E+02  0.20414478884E+02  0.00000000000E+00 0.  1.
         25    2    1    2    0    0 -0.19273596962E+02 -0.37023721109E+01  0.37112885695E+03  0.39213428447E+03  0.12508992565E+03 0.  0.
          5    1    3    3  502    0 -0.33176083993E+02 -0.35252561853E+02  0.52177554329E+02  0.71297722559E+02  0.41800000000E+01 0.  1.
         -5    1    3    3    0  502  0.13902487031E+02  0.31550189743E+02  0.31895130262E+03  0.32083656191E+03  0.41800000000E+01 0.  1.
        -11    1    1    2    0    0  0.40886654513E+02  0.33228792905E+02  0.15667752436E+03  0.16529887427E+03  0.00000000000E+00 0. -1.
         11    1    1    2    0    0 -0.21613057551E+02 -0.29526420794E+02  0.54161105311E+02  0.65363285644E+02  0.00000000000E+00 0.  1.
</event>
<event>
 7    1  0.2420569E-009  0.1054289E+03  0.7561462E-02  0.1269277E+00
          1   -1    0    0  501    0  0.00000000000E+00  0.00000000000E+00  0.51373664431E+03  0.51373664431E+03  0.00000000000E+00 0. -1.
         -1   -1    0    0    0  501 -0.00000000000E+00 -0.00000000000E+00 -0.41605235202E+02  0.41605235202E+02  0.00000000000E+00 0.  1.
         25    2    1    2    0    0 -0.41545653894E+02 -0.54081639760E+02  0.38944356081E+03  0.41468670692E+03  0.12509161732E+03 0.  0.
          5    1    3    3  502    0  0.41647278458E+02 -0.24624427313E+02  0.19752750293E+03  0.20340955001E+03  0.41800000000E+01 0. -1.
         -5    1    3    3    0  502 -0.83192932351E+02 -0.29457212447E+02  0.19191605788E+03  0.21127715691E+03  0.41800000000E+01 0. -1.
        -11    1    1    2    0    0  0.45024077844E+02  0.42741756312E+02  0.10116733831E+03  0.11869648546E+03  0.00000000000E+00 0. -1.
         11    1    1    2    0    0 -0.34784239508E+01  0.11339883448E+02 -0.18479490011E+02  0.21958687139E+02  0.00000000000E+00 0.  1.
</event>
<event>
 7    1  0.2420569E-009  0.7010679E+02  0.7561462E-02  0.1359730E+00
          1   -1    0    0  501    0  0.00000000000E+00  0.00000000000E+00  0.62909654835E+02  0.62909654835E+02  0.00000000000E+00 0.  1.
         -1   -1    0    0    0  501 -0.00000000000E+00 -0.00000000000E+00 -0.25870981139E+03  0.25870981139E+03  0.00000000000E+00 0. -1.
         25    2    1    2    0    0  0.21381982217E+02  0.43566678226E+02 -0.48163418833E+02  0.14254040676E+03  0.12507121184E+03 0.  0.
          5    1    3    3  502    0  0.17853675743E+02  0.48780890435E+02 -0.87848151620E+02  0.10214254330E+03  0.41800000000E+01 0. -1.
         -5    1    3    3    0  502  0.35283064742E+01 -0.52142122091E+01  0.39684732788E+02  0.40397863458E+02  0.41800000000E+01 0. -1.
        -11    1    1    2    0    0 -0.46983086199E+01 -0.58177026720E+02 -0.14553535148E+03  0.15680299446E+03  0.00000000000E+00 0. -1.
         11    1    1    2    0    0 -0.16683673597E+02  0.14610348495E+02 -0.21013862409E+01  0.22276065002E+02  0.00000000000E+00 0.  1.
</event>
<event>
 7    1  0.2420569E-009  0.1369385E+03  0.7561462E-02  0.1217509E+00
          2   -1    0    0  501    0  0.00000000000E+00  0.00000000000E+00  0.48280719651E+02  0.48280719651E+02  0.00000000000E+00 0.  1.
         -2   -1    0    0    0  501 -0.00000000000E+00 -0.00000000000E+00 -0.51345400022E+03  0.51345400022E+03  0.00000000000E+00 0. -1.
         25    2    1    2    0    0 -0.90892135229E+02  0.29227835474E+02 -0.35949688168E+03  0.39242955955E+03  0.12508918679E+03 0.  0.
          5    1    3    3  502    0 -0.98676181451E+02 -0.12140762162E+02 -0.31786953985E+03  0.33308092659E+03  0.41800000000E+01 0. -1.
         -5    1    3    3    0  502  0.77840462213E+01  0.41368597636E+02 -0.41627341833E+02  0.59348632959E+02  0.41800000000E+01 0. -1.
        -11    1    1    2    0    0  0.28641790104E+02 -0.57085525287E+02 -0.55852853016E+02  0.84844861527E+02  0.00000000000E+00 0. -1.
         11    1    1    2    0    0  0.62250345126E+02  0.27857689813E+02 -0.49823545871E+02  0.84460298798E+02  0.00000000000E+00 0.  1.
</event>
<event>
 7    1  0.2420569E-009  0.1689794E+03  0.7561462E-02  0.1178916E+00
         -1   -1    0    0    0  501 -0.00000000000E+00  0.00000000000E+00  0.84921550013E+02  0.84921550013E+02  0.00000000000E+00 0.  1.
          1   -1    0    0  501    0  0.00000000000E+00 -0.00000000000E+00 -0.40551295761E+03  0.40551295761E+03  0.00000000000E+00 0. -1.
         25    2    1    2    0    0  0.59572190106E+02  0.12871875433E+03 -0.10390524110E+03  0.21577853912E+03  0.12508683091E+03 0.  0.
          5    1    3    3  502    0 -0.36099027221E+02  0.31577412260E+02 -0.49126117318E+02  0.68783141351E+02  0.41800000000E+01 0. -1.
         -5    1    3    3    0  502  0.95671217327E+02  0.97141342065E+02 -0.54779123777E+02  0.14699539777E+03  0.41800000000E+01 0. -1.
        -11    1    1    2    0    0 -0.50467331651E+02 -0.40465208947E+02 -0.15097620851E+03  0.16425041929E+03  0.00000000000E+00 0. -1.
         11    1    1    2    0    0 -0.91048584556E+01 -0.88253545378E+02 -0.65709957988E+02  0.11040554922E+03  0.00000000000E+00 0.  1.
</event>
<event>
 7    1  0.2420569E-009  0.9007323E+02  0.7561462E-02  0.1302674E+00
          1   -1    0    0  501    0  0.00000000000E+00  0.00000000000E+00  0.32170517596E+03  0.32170517596E+03  0.00000000000E+00 0. -1.
         -1   -1    0    0    0  501 -0.00000000000E+00 -0.00000000000E+00 -0.50719984921E+02  0.50719984921E+02  0.00000000000E+00 0.  1.
         25    2    1    2    0    0  0.32289822250E+02  0.40170291943E+02  0.20436180889E+03  0.24508965784E+03  0.12509558935E+03 0.  0.
          5    1    3    3  502    0  0.32767234785E+02  0.35290245894E+00  0.20231934964E+03  0.20499855574E+03  0.41800000000E+01 0.  1.
         -5    1    3    3    0  502 -0.47741253521E+00  0.39817389484E+02  0.20424592451E+01  0.40091102103E+02  0.41800000000E+01 0.  1.
        -11    1    1    2    0    0 -0.22236438847E+02  0.29353929676E+02  0.33033494829E+02  0.49470437442E+02  0.00000000000E+00 0. -1.
         11    1    1    2    0    0 -0.10053383403E+02 -0.69524221620E+02  0.33589887317E+02  0.77865065592E+02  0.00000000000E+00 0.  1.
</event>
<event>
 7    1  0.2420569E-009  0.1405145E+03  0.7561462E-02  0.1212638E+00
         -1   -1    0    0    0  501 -0.00000000000E+00  0.00000000000E+00  0.32992441050E+02  0.32992441050E+02  0.00000000000E+00 0.  1.
          1   -1    0    0  501    0  0.00000000000E+00 -0.00000000000E+00 -0.73884607338E+03  0.73884607338E+03  0.00000000000E+00 0. -1.
         25    2    1    2    0    0  0.82082572988E+02 -0.74404241652E+02 -0.33517128689E+03  0.37451428466E+03  0.12509043886E+03 0.  0.
          5    1    3    3  502    0 -0.15396085126E+02 -0.58225801501E+02 -0.18585659460E+03  0.19541604221E+03  0.41800000000E+01 0. -1.
         -5    1    3    3    0  502  0.97478658114E+02 -0.16178440151E+02 -0.14931469229E+03  0.17909824245E+03  0.41800000000E+01 0. -1.
        -11    1    1    2    0    0 -0.34688309028E+02  0.13990007336E+01 -0.30591170014E+02  0.46271542757E+02  0.00000000000E+00 0.  1.
         11    1    1    2    0    0 -0.47394263960E+02  0.73005240918E+02 -0.34009117542E+03  0.35105268701E+03  0.00000000000E+00 0. -1.
</event>
<event>
 7    1  0.2420569E-009  0.7714832E+02  0.7561462E-02  0.1337345E+00
         -1   -1    0    0    0  501 -0.00000000000E+00  0.00000000000E+00  0.58518514859E+02  0.58518514859E+02  0.00000000000E+00 0.  1.
          1   -1    0    0  501    0  0.00000000000E+00 -0.00000000000E+00 -0.19836494384E+03  0.19836494384E+03  0.00000000000E+00 0. -1.
         25    2    1    2    0    0 -0.44558424970E+01  0.55923094862E+01 -0.83005134397E+02  0.15029066339E+03  0.12508518181E+03 0.  0.
          5    1    3    3  502    0 -0.49222690422E+02 -0.72804305164E+00 -0.91606102312E+02  0.10407955457E+03  0.41800000000E+01 0. -1.
         -5    1    3    3    0  502  0.44766847925E+02  0.63203525378E+01  0.86009679142E+01  0.46211108820E+02  0.41800000000E+01 0. -1.
        -11    1    1    2    0    0  0.18798151146E+01  0.26863855504E+02  0.12724909698E+02  0.29784622949E+02  0.00000000000E+00 0.  1.
         11    1    1    2    0    0  0.25760273825E+01 -0.32456164990E+02 -0.69566204279E+02  0.76808172356E+02  0.00000000000E+00 0. -1.
</event>
<event>
 7    1  0.2420569E-009  0.7658865E+02  0.7561462E-02  0.1339021E+00
         -2   -1    0    0    0  501 -0.00000000000E+00  0.00000000000E+00  0.45766028897E+02  0.45766028897E+02  0.00000000000E+00 0.  1.
          2   -1    0    0  501    0  0.00000000000E+00 -0.00000000000E+00 -0.34742140701E+03  0.34742140701E+03  0.00000000000E+00 0. -1.
         25    2    1    2    0    0  0.53524528405E+02 -0.35416656572E+02 -0.17449231953E+03  0.22408501126E+03  0.12508920015E+03 0.  0.
          5    1    3    3  502    0  0.48621783296E+02 -0.37933811568E+02 -0.19388313988E+03  0.20349741080E+03  0.41800000000E+01 0. -1.
         -5    1    3    3    0  502  0.49027451095E+01  0.25171549956E+01  0.19390820354E+02  0.20587600464E+02  0.41800000000E+01 0. -1.
        -11    1    1    2    0    0 -0.89203952141E+01  0.38709808564E+02 -0.62889731645E+01  0.40219073999E+02  0.00000000000E+00 0.  1.
         11    1    1    2    0    0 -0.44604133191E+02 -0.32931519917E+01 -0.12087408542E+03  0.12888335064E+03  0.00000000000E+00 0. -1.
</event>
<event>
 7    1  0.2420569E-009  0.1102855E+03  0.7561462E-02  0.1260042E+00
          2   -1    0    0  501    0  0.00000000000E+00  0.00000000000E+00  0.18202424472E+04  0.18202424472E+04  0.00000000000E+00 0. -1.
         -2   -1    0    0    0  501 -0.00000000000E+00 -0.00000000000E+00 -0.81358813029E+01  0.81358813029E+01  0.00000000000E+00 0.  1.
         25    2    1    2    0    0  0.36314794252E+02 -0.20965600584E+02  0.12566998103E+04  0.12636059358E+04  0.12508887710E+03 0.  0.
          5    1    3    3  502    0  0.23322172101E+01  0.44638660681E+02  0.77049003905E+03  0.77179687868E+03  0.41800000000E+01 0.  1.
         -5    1    3    3    0  502  0.33982577042E+02 -0.65604261265E+02  0.48620977122E+03  0.49180905713E+03  0.41800000000E+01 0.  1.
        -11    1    1    2    0    0  0.28955049940E+02 -0.83339266619E+01  0.13501523315E+03  0.13833641037E+03  0.00000000000E+00 0.  1.
         11    1    1    2    0    0 -0.65269844192E+02  0.29299527246E+02  0.42039152246E+03  0.42643598232E+03  0.00000000000E+00 0. -1.
</event>
<event>
 7    1  0.2420569E-009  0.1970479E+03  0.7561462E-02  0.1152254E+00
          2   -1    0    0  501    0  0.00000000000E+00  0.00000000000E+00  0.32514515476E+03  0.32514515476E+03  0.00000000000E+00 0. -1.
         -2   -1    0    0    0  501 -0.00000000000E+00 -0.00000000000E+00 -0.13161520574E+03  0.13161520574E+03  0.00000000000E+00 0.  1.
         25    2    1    2    0    0 -0.80954495920E+02 -0.15295526550E+03  0.75296224370E+02  0.22642059426E+03  0.12509124848E+03 0.  0.
          5    1    3    3  502    0 -0.11029749360E+03 -0.14285045703E+03  0.73929234465E+02  0.19507638062E+03  0.41800000000E+01 0.  1.
         -5    1    3    3    0  502  0.29342997681E+02 -0.10104808469E+02  0.13669899043E+01  0.31344213637E+02  0.41800000000E+01 0.  1.
        -11    1    1    2    0    0  0.63141344780E+02  0.15179726216E+03  0.69595842437E+02  0.17852960400E+03  0.00000000000E+00 0.  1.
         11    1    1    2    0    0  0.17813151141E+02  0.11580033404E+01  0.48637882218E+02  0.51810162246E+02  0.00000000000E+00 0. -1.
</event>
<event>
 7    1  0.2420569E-009  0.1219365E+03  0.7561462E-02  0.1239936E+00
         -1   -1    0    0    0  501 -0.00000000000E+00  0.00000000000E+00  0.52308415598E+02  0.52308415598E+02  0.00000000000E+00 0.  1.
          1   -1    0    0  501    0  0.00000000000E+00 -0.00000000000E+00 -0.31260879098E+03  0.31260879098E+03  0.00000000000E+00 0. -1.
         25    2    1    2    0    0 -0.39073961327E+02 -0.52537015100E+02 -0.10625871029E+03  0.17670851554E+03  0.12509226011E+03 0.  0.
          5    1    3    3  502    0  0.13022393592E+02 -0.79815039571E+02 -0.49715308660E+02  0.95021616444E+02  0.41800000000E+01 0.  1.
         -5    1    3    3    0  502 -0.52096354919E+02  0.27278024471E+02 -0.56543401634E+02  0.81686899092E+02  0.41800000000E+01 0.  1.
        -11    1    1    2    0    0  0.64343422228E+02  0.35823506319E+02 -0.13048193902E+03  0.14982968998E+03  0.00000000000E+00 0. -1.
         11    1    1    2    0    0 -0.25269460901E+02  0.16713508781E+02 -0.23559726061E+02  0.38379001056E+02  0.00000000000E+00 0.  1.
</event>
<event>
 7    1  0.2420569E-009  0.1197001E+03  0.7561462E-02  0.1243593E+00
         -1   -1    0    0    0  501 -0.00000000000E+00  0.00000000000E+00  0.40561407086E+02  0.40561407086E+02  0.00000000000E+00 0.  1.
          1   -1    0    0  501    0  0.00000000000E+00 -0.00000000000E+00 -0.56642476455E+03  0.56642476455E+03  0.00000000000E+00 0. -1.
         25    2    1    2    0    0  0.36745232115E+02 -0.77652077750E+02 -0.40480620187E+03  0.43231382440E+03  0.12508846645E+03 0.  0.
          5    1    3    3  502    0  0.33634228957E+02  0.66388885959E+01 -0.23515795726E+02  0.41782786503E+02  0.41800000000E+01 0.  1.
         -5    1    3    3    0  502  0.31110031576E+01 -0.84290966346E+02 -0.38129040614E+03  0.39053103790E+03  0.41800000000E+01 0.  1.
        -11    1    1    2    0    0  0.27141628186E+02  0.15381507779E+02 -0.11185656890E+02  0.33141781518E+02  0.00000000000E+00 0.  1.
         11    1    1    2    0    0 -0.63886860300E+02  0.62270569971E+02 -0.10987149871E+03  0.14153056571E+03  0.00000000000E+00 0. -1.
</event>
<event>
 7    1  0.2420569E-009  0.1035636E+03  0.7561462E-02  0.1272976E+00
          1   -1    0    0  501    0  0.00000000000E+00  0.00000000000E+00  0.25702896752E+03  0.25702896752E+03  0.00000000000E+00 0. -1.
         -1   -1    0    0    0  501 -0.00000000000E+00 -0.00000000000E+00 -0.10063136042E+03  0.10063136042E+03  0.00000000000E+00 0.  1.
         25    2    1    2    0    0  0.18515763525E+01 -0.22196682552E+02  0.21224356113E+03  0.24736760579E+03  0.12508909666E+03 0.  0.
          5    1    3    3  502    0  0.45822336861E+02  0.23668973262E+02  0.14855147400E+03  0.15730518008E+03  0.41800000000E+01 0.  1.
         -5    1    3    3    0  502 -0.43970760509E+02 -0.45865655815E+02  0.63692087131E+02  0.90062425718E+02  0.41800000000E+01 0.  1.
        -11    1    1    2    0    0 -0.28502855534E+02 -0.24733895200E+02 -0.89278881185E+01  0.38779963017E+02  0.00000000000E+00 0. -1.
         11    1    1    2    0    0  0.26651279181E+02  0.46930577753E+02 -0.46918065915E+02  0.71512759137E+02  0.00000000000E+00 0.  1.
</event>
<event>
 7    1  0.2420569E-009  0.3333258E+03  0.7561462E-02  0.1069675E+00
         -1   -1    0    0    0  501 -0.00000000000E+00  0.00000000000E+00  0.10834568867E+04  0.10834568867E+04  0.00000000000E+00 0.  1.
          1   -1    0    0  501    0  0.00000000000E+00 -0.00000000000E+00 -0.16742632487E+03  0.16742632487E+03  0.00000000000E+00 0. -1.
         25    2    1    2    0    0  0.75697775442E+02  0.31250993660E+03  0.85252647220E+02  0.35540176799E+03  0.12509911730E+03 0.  0.
          5    1    3    3  502    0  0.10342045373E+03  0.22561967987E+03  0.89837496537E+02  0.26398537531E+03  0.41800000000E+01 0.  1.
         -5    1    3    3    0  502 -0.27722678291E+02  0.86890256737E+02 -0.45848493166E+01  0.91416392680E+02  0.41800000000E+01 0.  1.
        -11    1    1    2    0    0 -0.86076513204E+02 -0.27147102849E+03  0.64723116278E+03  0.70711658409E+03  0.00000000000E+00 0.  1.
         11    1    1    2    0    0  0.10378737762E+02 -0.41038908116E+02  0.18354675182E+03  0.18836485947E+03  0.00000000000E+00 0. -1.
</event>
<event>
 7    1  0.2420569E-009  0.1414864E+03  0.7561462E-02  0.1211343E+00
          2   -1    0    0  501    0  0.00000000000E+00  0.00000000000E+00  0.17242361513E+04  0.17242361513E+04  0.00000000000E+00 0. -1.
         -2   -1    0    0    0  501 -0.00000000000E+00 -0.00000000000E+00 -0.12988519900E+02  0.12988519900E+02  0.00000000000E+00 0.  1.
         25    2    1    2    0    0 -0.13386457252E+02  0.10012025851E+03  0.10267395168E+04  0.10392521705E+04  0.12509106778E+03 0.  0.
          5    1    3    3  502    0  0.41911610798E+02  0.88416779305E+02  0.77783288044E+03  0.78397421659E+03  0.41800000000E+01 0.  1.
         -5    1    3    3    0  502 -0.55298068050E+02  0.11703479201E+02  0.24890663631E+03  0.25527795391E+03  0.41800000000E+01 0.  1.
        -11    1    1    2    0    0  0.29411853699E+01  0.13724434936E+02  0.25372948756E+02  0.28996503484E+02  0.00000000000E+00 0.  1.
         11    1    1    2    0    0  0.10445271882E+02 -0.11384469344E+03  0.65913516585E+03  0.66897599717E+03  0.00000000000E+00 0. -1.
</event>
<event>
 7    1  0.2420569E-009  0.1192864E+03  0.7561462E-02  0.1244279E+00
          2   -1    0    0  501    0  0.00000000000E+00  0.00000000000E+00  0.55144374794E+03  0.55144374794E+03  0.00000000000E+00 0. -1.
         -2   -1    0    0    0  501 -0.00000000000E+00 -0.00000000000E+00 -0.27423822645E+02  0.27423822645E+02  0.00000000000E+00 0.  1.
         25    2    1    2    0    0  0.53761742879E+02  0.17114316344E+02  0.29951927122E+03  0.32945669338E+03  0.12508674655E+03 0.  0.
          5    1    3    3  502    0  0.75027607508E+02 -0.31821568580E+02  0.15185502394E+03  0.17239250219E+03  0.41800000000E+01 0.  1.
         -5    1    3    3    0  502 -0.21265864629E+02  0.48935884924E+02  0.14766424727E+03  0.15706419119E+03  0.41800000000E+01 0.  1.
        -11    1    1    2    0    0  0.24122888879E+02 -0.48084424610E+01  0.25847864648E+02  0.35681185429E+02  0.00000000000E+00 0.  1.
         11    1    1    2    0    0 -0.77884631758E+02 -0.12305873883E+02  0.19865278943E+03  0.21372969177E+03  0.00000000000E+00 0. -1.
</event>
<event>
 7    1  0.2420569E-009  0.4553370E+03  0.7561462E-02  0.1026142E+00
         -2   -1    0    0    0  501 -0.00000000000E+00  0.00000000000E+00  0.20466933653E+03  0.20466933653E+03  0.00000000000E+00 0.  1.
          2   -1    0    0  501    0  0.00000000000E+00 -0.00000000000E+00 -0.13093609979E+04  0.13093609979E+04  0.00000000000E+00 0. -1.
         25    2    1    2    0    0  0.41493189264E+03  0.16666878124E+03 -0.20985376535E+03  0.50954168304E+03  0.12508863156E+03 0.  0.
          5    1    3    3  502    0  0.41927613795E+03  0.15094957884E+03 -0.21014530002E+03  0.49270353635E+03  0.41800000000E+01 0. -1.
         -5    1    3    3    0  502 -0.43442453089E+01  0.15719202399E+02  0.29153467068E+00  0.16838146687E+02  0.41800000000E+01 0. -1.
        -11    1    1    2    0    0 -0.17631945455E+03 -0.54615093680E+02 -0.27819710065E+03  0.33386372268E+03  0.00000000000E+00 0.  1.
         11    1    1    2    0    0 -0.23861243809E+03 -0.11205368756E+03 -0.61664079539E+03  0.67062492874E+03  0.00000000000E+00 0. -1.
</event>
<event>
 7    1  0.2637093E-009  0.1287382E+03  0.7561462E-02  0.1229340E+00
          1   -1    0    0  501    0  0.00000000000E+00  0.00000000000E+00  0.50809686644E+03  0.50809686644E+03  0.00000000000E+00 0. -1.
         -1   -1    0    0    0  501 -0.00000000000E+00 -0.00000000000E+00 -0.39021311847E+02  0.39021311847E+02  0.00000000000E+00 0.  1.
         25    2    1    2    0    0 -0.85391798308E+02 -0.37763744895E+01  0.20507274184E+03  0.25496701894E+03  0.12508929242E+03 0.  0.
          5    1    3    3  502    0 -0.86619438351E+02  0.39144398890E+02  0.18357374435E+03  0.20676557518E+03  0.41800000000E+01 0.  1.
         -5    1    3    3    0  502  0.12276400428E+01 -0.42920773380E+02  0.21498997499E+02  0.48201443766E+02  0.41800000000E+01 0.  1.
        -11    1    1    2    0    0  0.17338090212E+02  0.38912746899E+02  0.55077635184E+02  0.69630145346E+02  0.00000000000E+00 0. -1.
         11    1    1    2    0    0  0.68053708096E+02 -0.35136372410E+02  0.20892517757E+03  0.22252101400E+03  0.00000000000E+00 0.  1.
</event>
<event>
 7    1  0.2420569E-009  0.1076823E+03  0.7561462E-02  0.1264923E+00
         -3   -1    0    0    0  501 -0.00000000000E+00  0.00000000000E+00  0.25663170857E+03  0.25663170857E+03  0.00000000000E+00 0.  1.
          3   -1    0    0  501    0  0.00000000000E+00 -0.00000000000E+00 -0.64546543608E+02  0.64546543608E+02  0.00000000000E+00 0. -1.
         25    2    1    2    0    0 -0.11817171831E+02  0.14492627399E+02  0.19265994379E+03  0.23045828432E+03  0.12507391843E+03 0.  0.
          5    1    3    3  502    0  0.53436593788E+02 -0.10607167261E+02  0.65614951188E+02  0.85386039681E+02  0.41800000000E+01 0.  1.
         -5    1    3    3    0  502 -0.65253765619E+02  0.25099794660E+02  0.12704499260E+03  0.14507224464E+03  0.41800000000E+01 0.  1.
        -11    1    1    2    0    0 -0.21371776190E+02 -0.42296683555E+02  0.90962973048E+00  0.47398203379E+02  0.00000000000E+00 0. -1.
         11    1    1    2    0    0  0.33188948021E+02  0.27804056156E+02 -0.14844085513E+01  0.43321764486E+02  0.00000000000E+00 0.  1.
</event>
<event>
 7    1  0.2420569E-009  0.1121478E+03  0.7561462E-02  0.1256643E+00
          2   -1    0    0  501    0  0.00000000000E+00  0.00000000000E+00  0.47620414111E+02  0.47620414111E+02  0.00000000000E+00 0.  1.
         -2   -1    0    0    0  501 -0.00000000000E+00 -0.00000000000E+00 -0.37278073316E+03  0.37278073316E+03  0.00000000000E+00 0. -1.
         25    2    1    2    0    0  0.19444317463E+01  0.65190661005E+02 -0.24105394687E+03  0.27929977458E+03  0.12509098960E+03 0.  0.
          5    1    3    3  502    0 -0.43985594155E+02 -0.15596354823E+02 -0.98532459872E+02  0.10910589730E+03  0.41800000000E+01 0.  1.
         -5    1    3    3    0  502  0.45930025901E+02  0.80787015829E+02 -0.14252148700E+03  0.17019387728E+03  0.41800000000E+01 0.  1.
        -11    1    1    2    0    0 -0.14894524907E+02  0.28402033356E+01  0.14251652336E+02  0.20809210016E+02  0.00000000000E+00 0.  1.
         11    1    1    2    0    0  0.12950093161E+02 -0.68030864341E+02 -0.98358024509E+02  0.12029216268E+03  0.00000000000E+00 0. -1.
</event>
<event>
 7    1  0.2420569E-009  0.2507182E+03  0.7561462E-02  0.1112852E+00
          3   -1    0    0  501    0  0.00000000000E+00  0.00000000000E+00  0.41730267132E+03  0.41730267132E+03  0.00000000000E+00 0. -1.
         -3   -1    0    0    0  501 -0.00000000000E+00 -0.00000000000E+00 -0.21531204802E+03  0.21531204802E+03  0.00000000000E+00 0.  1.
         25    2    1    2    0    0  0.23910645446E+03 -0.41370188135E+02  0.24954015431E+03  0.36986610354E+03  0.12508899594E+03 0.  0.
          5    1    3    3  502    0  0.59967270603E+02 -0.53423153936E+01  0.15013214437E+03  0.16180774719E+03  0.41800000000E+01 0.  1.
         -5    1    3    3    0  502  0.17913918386E+03 -0.36027872742E+02  0.99408009934E+02  0.20805835635E+03  0.41800000000E+01 0.  1.
        -11    1    1    2    0    0 -0.58345461241E+02  0.50721370646E+02 -0.17543276292E+02  0.79275575246E+02  0.00000000000E+00 0. -1.
         11    1    1    2    0    0 -0.18076099322E+03 -0.93511825109E+01 -0.30006254714E+02  0.18347304054E+03  0.00000000000E+00 0.  1.
</event>
<event>
 7    1  0.2420569E-009  0.1060487E+03  0.7561462E-02  0.1268067E+00
         -1   -1    0    0    0  501 -0.00000000000E+00  0.00000000000E+00  0.71672324525E+02  0.71672324525E+02  0.00000000000E+00 0.  1.
          1   -1    0    0  501    0  0.00000000000E+00 -0.00000000000E+00 -0.22903245916E+03  0.22903245916E+03  0.00000000000E+00 0. -1.
         25    2    1    2    0    0  0.53820418612E+02  0.36131203044E+02 -0.64190340115E+02  0.15482281090E+03  0.12509037420E+03 0.  0.
          5    1    3    3  502    0  0.64770255710E+02 -0.58966769843E+01  0.12716391150E+02  0.66401323993E+02  0.41800000000E+01 0. -1.
         -5    1    3    3    0  502 -0.10949837098E+02  0.42027880028E+02 -0.76906731265E+02  0.88421486902E+02  0.41800000000E+01 0. -1.
        -11    1    1    2    0    0 -0.62066947015E+02 -0.54855489534E+02 -0.46661365415E+02  0.95072149792E+02  0.00000000000E+00 0.  1.
         11    1    1    2    0    0  0.82465284028E+01  0.18724286490E+02 -0.46508429104E+02  0.50809822997E+02  0.00000000000E+00 0. -1.
</event>
<event>
 7    1  0.2420569E-009  0.8117870E+02  0.7561462E-02  0.1325739E+00
         -1   -1    0    0    0  501 -0.00000000000E+00  0.00000000000E+00  0.31146417650E+02  0.31146417650E+02  0.00000000000E+00 0.  1.
          1   -1    0    0  501    0  0.00000000000E+00 -0.00000000000E+00 -0.39399590459E+03  0.39399590459E+03  0.00000000000E+00 0. -1.
         25    2    1    2    0    0  0.83409738424E+01 -0.17850219157E+02 -0.27026096070E+03  0.29845212969E+03  0.12507791440E+03 0.  0.
          5    1    3    3  502    0 -0.55740564864E+02 -0.13283575635E+02 -0.16859962659E+03  0.17812010117E+03  0.41800000000E+01 0. -1.
         -5    1    3    3    0  502  0.64081538706E+02 -0.45666435221E+01 -0.10166133410E+03  0.12033202852E+03  0.41800000000E+01 0. -1.
        -11    1    1    2    0    0  0.15534346265E+00  0.27594833459E+02 -0.10512205032E+03  0.10868368980E+03  0.00000000000E+00 0. -1.
         11    1    1    2    0    0 -0.84963173050E+01 -0.97446143024E+01  0.12533524074E+02  0.18006502752E+02  0.00000000000E+00 0.  1.
</event>
<event>
 7    1  0.2420569E-009  0.2056742E+03  0.7561462E-02  0.1145038E+00
         -2   -1    0    0    0  501 -0.00000000000E+00  0.00000000000E+00  0.17004669716E+02  0.17004669716E+02  0.00000000000E+00 0.  1.
          2   -1    0    0  501    0  0.00000000000E+00 -0.00000000000E+00 -0.31126065267E+04  0.31126065267E+04  0.00000000000E+00 0. -1.
         25    2    1    2    0    0 -0.17382480570E+03  0.60199692873E+02 -0.21756302249E+04  0.21869737989E+04  0.12509378779E+03 0.  0.
          5    1    3    3  502    0 -0.18335765727E+03  0.46212876246E+02 -0.21254917623E+04  0.21338904294E+04  0.41800000000E+01 0.  1.
         -5    1    3    3    0  502  0.95328515641E+01  0.13986816627E+02 -0.50138462515E+02  0.53083369540E+02  0.41800000000E+01 0.  1.
        -11    1    1    2    0    0  0.11049566043E+03  0.91341943962E+01 -0.53640238309E+03  0.54774103468E+03  0.00000000000E+00 0.  1.
         11    1    1    2    0    0  0.63329145267E+02 -0.69333887269E+02 -0.38356924900E+03  0.39489636278E+03  0.00000000000E+00 0. -1.
</event>
<event>
 7    1  0.2420569E-009  0.9590768E+02  0.7561462E-02  0.1289145E+00
          3   -1    0    0  501    0  0.00000000000E+00  0.00000000000E+00  0.81661657306E+02  0.81661657306E+02  0.00000000000E+00 0. -1.
         -3   -1    0    0    0  501 -0.00000000000E+00 -0.00000000000E+00 -0.21916208931E+03  0.21916208931E+03  0.00000000000E+00 0.  1.
         25    2    1    2    0    0 -0.22877242235E+02 -0.16597812933E+02  0.58793449173E+01  0.12837643758E+03  0.12508831849E+03 0.  0.
          5    1    3    3  502    0  0.13325925174E+02  0.50086433904E+02  0.63387183251E+01  0.52382085611E+02  0.41800000000E+01 0. -1.
         -5    1    3    3    0  502 -0.36203167409E+02 -0.66684246836E+02 -0.45937340786E+00  0.75994351965E+02  0.41800000000E+01 0. -1.
        -11    1    1    2    0    0  0.39629897129E+02 -0.84710611974E+00 -0.15925489254E+02  0.42718468409E+02  0.00000000000E+00 0. -1.
         11    1    1    2    0    0 -0.16752654894E+02  0.17444919052E+02 -0.12745428767E+03  0.12972884063E+03  0.00000000000E+00 0.  1.
</event>
<event>
 7    1  0.2420569E-009  0.2086931E+03  0.7561462E-02  0.1142605E+00
          2   -1    0    0  501    0  0.00000000000E+00  0.00000000000E+00  0.48592548151E+03  0.48592548151E+03  0.00000000000E+00 0. -1.
         -2   -1    0    0    0  501 -0.00000000000E+00 -0.00000000000E+00 -0.10126997289E+03  0.10126997289E+03  0.00000000000E+00 0.  1.
         25    2    1    2    0    0 -0.81288059165E+02 -0.17223722576E+03  0.15916282633E+03  0.27794498116E+03  0.12508875555E+03 0.  0.
          5    1    3    3  502    0 -0.82483957302E+02 -0.52210812847E+02  0.11271824039E+03  0.14917253871E+03  0.41800000000E+01 0. -1.
         -5    1    3    3    0  502  0.11958981364E+01 -0.12002641292E+03  0.46444585944E+02  0.12877244244E+03  0.41800000000E+01 0. -1.
        -11    1    1    2    0    0  0.20734726407E+02  0.11291420184E+03  0.76899219538E+02  0.13817755180E+03  0.00000000000E+00 0.  1.
         11    1    1    2    0    0  0.60553332758E+02  0.59323023920E+02  0.14859346276E+03  0.17107292144E+03  0.00000000000E+00 0. -1.
</event>
<event>
 7    1  0.2420569E-009  0.5927375E+02  0.7561462E-02  0.1400905E+00
         -2   -1    0    0    0  501 -0.00000000000E+00  0.00000000000E+00  0.16085300459E+02  0.16085300459E+02  0.00000000000E+00 0.  1.
          2   -1    0    0  501    0  0.00000000000E+00 -0.00000000000E+00 -0.11253089306E+04  0.11253089306E+04  0.00000000000E+00 0. -1.
         25    2    1    2    0    0 -0.25622325150E+02  0.29956467031E+02 -0.90161677323E+03  0.91110579610E+03  0.12508825871E+03 0.  0.
          5    1    3    3  502    0 -0.16222825323E+01  0.12238203877E+02 -0.49637595026E+01  0.13946925939E+02  0.41800000000E+01 0. -1.
         -5    1    3    3    0  502 -0.24000042617E+02  0.17718263154E+02 -0.89665301372E+03  0.89715887016E+03  0.41800000000E+01 0. -1.
        -11    1    1    2    0    0 -0.16282846930E+02 -0.29253054753E+02 -0.22123077188E+02  0.40128579103E+02  0.00000000000E+00 0.  1.
         11    1    1    2    0    0  0.41905172080E+02 -0.70341227739E+00 -0.18548377973E+03  0.19015985585E+03  0.00000000000E+00 0. -1.
</event>
<event>
 7    1  0.2420569E-009  0.8588741E+02  0.7561462E-02  0.1313128E+00
          1   -1    0    0  501    0  0.00000000000E+00  0.00000000000E+00  0.21933281445E+03  0.21933281445E+03  0.00000000000E+00 0. -1.
         -1   -1    0    0    0  501 -0.00000000000E+00 -0.00000000000E+00 -0.82201410991E+02  0.82201410991E+02  0.00000000000E+00 0.  1.
         25    2    1    2    0    0  0.28488886078E+02  0.74082913939E+02  0.69266801978E+02  0.16353792088E+03  0.12508743719E+03 0.  0.
          5    1    3    3  502    0  0.30671104226E+02  0.70891177076E+02 -0.15238201891E+02  0.78841301477E+02  0.41800000000E+01 0. -1.
         -5    1    3    3    0  502 -0.21822181480E+01  0.31917368630E+01  0.84505003869E+02  0.84696619408E+02  0.41800000000E+01 0. -1.
        -11    1    1    2    0    0  0.96593263007E+01 -0.23202899122E+02 -0.18167795496E+02  0.31012028399E+02  0.00000000000E+00 0.  1.
         11    1    1    2    0    0 -0.38148212378E+02 -0.50880014817E+02  0.86032396977E+02  0.10698427616E+03  0.00000000000E+00 0. -1.
</event>
<event>
 7    1  0.2420569E-009  0.8447321E+02  0.7561462E-02  0.1316816E+00
          1   -1    0    0  501    0  0.00000000000E+00  0.00000000000E+00  0.10985393784E+04  0.10985393784E+04  0.00000000000E+00 0. -1.
         -1   -1    0    0    0  501 -0.00000000000E+00 -0.00000000000E+00 -0.11866257069E+02  0.11866257069E+02  0.00000000000E+00 0.  1.
         25    2    1    2    0    0  0.18111007877E+02  0.49772199563E+01  0.81552875787E+03  0.82527963392E+03  0.12508612203E+03 0.  0.
          5    1    3    3  502    0 -0.21779128449E+02 -0.25928045853E+02  0.68400215896E+02  0.76437267955E+02  0.41800000000E+01 0. -1.
         -5    1    3    3    0  502  0.39890136326E+02  0.30905265810E+02  0.74712854198E+03  0.74884236597E+03  0.41800000000E+01 0. -1.
        -11    1    1    2    0    0  0.94612271616E+00 -0.42287583008E+02  0.93731756002E+02  0.10283373429E+03  0.00000000000E+00 0.  1.
         11    1    1    2    0    0 -0.19057130593E+02  0.37310363052E+02  0.17741260747E+03  0.18229226727E+03  0.00000000000E+00 0. -1.
</event>
<event>
 7    1  0.2420569E-009  0.7195187E+02  0.7561462E-02  0.1353579E+00
         -1   -1    0    0    0  501 -0.00000000000E+00  0.00000000000E+00  0.25063012418E+03  0.25063012418E+03  0.00000000000E+00 0.  1.
          1   -1    0    0  501    0  0.00000000000E+00 -0.00000000000E+00 -0.56057765839E+02  0.56057765839E+02  0.00000000000E+00 0. -1.
         25    2    1    2    0    0 -0.32127014066E+02 -0.33585164525E+02  0.87219700777E+02  0.15942252941E+03  0.12509259918E+03 0.  0.
          5    1    3    3  502    0 -0.78294757319E+00 -0.25626140927E+02 -0.28872287373E+02  0.38838041710E+02  0.41800000000E+01 0.  1.
         -5    1    3    3    0  502 -0.31344066493E+02 -0.79590235980E+01  0.11609198815E+03  0.12058448770E+03  0.41800000000E+01 0.  1.
        -11    1    1    2    0    0  0.39313265231E+02 -0.10468650828E+02  0.91084232404E+02  0.99757019131E+02  0.00000000000E+00 0.  1.
         11    1    1    2    0    0 -0.71862511643E+01  0.44053815354E+02  0.16268425160E+02  0.47508341480E+02  0.00000000000E+00 0. -1.
</event>
<event>
 7    1  0.2420569E-009  0.1475513E+03  0.7561462E-02  0.1203515E+00
         -2   -1    0    0    0  501 -0.00000000000E+00  0.00000000000E+00  0.22508757911E+03  0.22508757911E+03  0.00000000000E+00 0.  1.
          2   -1    0    0  501    0  0.00000000000E+00 -0.00000000000E+00 -0.10677250932E+03  0.10677250932E+03  0.00000000000E+00 0. -1.
         25    2    1    2    0    0  0.57640288142E+02  0.83643747554E+02  0.18849388253E+02  0.16222900728E+03  0.12507706442E+03 0.  0.
          5    1    3    3  502    0  0.47313143612E+02  0.11661265704E+03  0.19539132466E+02  0.12742172279E+03  0.41800000000E+01 0. -1.
         -5    1    3    3    0  502  0.10327144530E+02 -0.32968909485E+02 -0.68974421338E+00  0.34807284494E+02  0.41800000000E+01 0. -1.
        -11    1    1    2    0    0 -0.22500748650E+01  0.18262482913E+02  0.27643343244E+02  0.33207462185E+02  0.00000000000E+00 0.  1.
         11    1    1    2    0    0 -0.55390213277E+02 -0.10190623047E+03  0.71822338285E+02  0.13642361897E+03  0.00000000000E+00 0. -1.
</event>
<event>
 7    1  0.2420569E-009  0.8619158E+02  0.7561462E-02  0.1312346E+00
         -1   -1    0    0    0  501 -0.00000000000E+00  0.00000000000E+00  0.30257393287E+03  0.30257393287E+03  0.00000000000E+00 0.  1.
          1   -1    0    0  501    0  0.00000000000E+00 -0.00000000000E+00 -0.79415221284E+02  0.79415221284E+02  0.00000000000E+00 0. -1.
         25    2    1    2    0    0  0.56951982781E+01  0.19605091891E+02  0.25516871490E+03  0.28491135287E+03  0.12508641422E+03 0.  0.
          5    1    3    3  502    0  0.53451114016E+02  0.51220437468E+01  0.21219055675E+03  0.21891907568E+03  0.41800000000E+01 0. -1.
         -5    1    3    3    0  502 -0.47755915738E+02  0.14483048145E+02  0.42978158146E+02  0.65992277193E+02  0.41800000000E+01 0. -1.
        -11    1    1    2    0    0 -0.34764614600E+02 -0.28199804768E+01  0.16099569389E+02  0.38415190390E+02  0.00000000000E+00 0.  1.
         11    1    1    2    0    0  0.29069416322E+02 -0.16785111415E+02 -0.48109572704E+02  0.58662610889E+02  0.00000000000E+00 0. -1.
</event>
<event>
 7    1  0.2420569E-009  0.1272698E+03  0.7561462E-02  0.1231564E+00
          1   -1    0    0  501    0  0.00000000000E+00  0.00000000000E+00  0.27003638574E+02  0.27003638574E+02  0.00000000000E+00 0. -1.
         -1   -1    0    0    0  501 -0.00000000000E+00 -0.00000000000E+00 -0.65174778443E+03  0.65174778443E+03  0.00000000000E+00 0.  1.
         25    2    1    2    0    0  0.34639847098E+02  0.68839947063E+02 -0.35958824505E+03  0.38844549449E+03  0.12508932365E+03 0.  0.
          5    1    3    3  502    0  0.25748829335E+02  0.10236687416E+03 -0.21307371160E+03  0.23782316563E+03  0.41800000000E+01 0. -1.
         -5    1    3    3    0  502  0.88910177632E+01 -0.33526927096E+02 -0.14651453346E+03  0.15062232886E+03  0.41800000000E+01 0. -1.
        -11    1    1    2    0    0 -0.62245870670E+02 -0.39721240054E+02 -0.13215799589E+03  0.15138712364E+03  0.00000000000E+00 0. -1.
         11    1    1    2    0    0  0.27606023572E+02 -0.29118707009E+02 -0.13299790492E+03  0.13891880488E+03  0.00000000000E+00 0.  1.
</event>
<event>
 7    1  0.2420569E-009  0.9603481E+02  0.7561462E-02  0.1288862E+00
         -2   -1    0    0    0  501 -0.00000000000E+00  0.00000000000E+00  0.16189470345E+03  0.16189470345E+03  0.00000000000E+00 0.  1.
          2   -1    0    0  501    0  0.00000000000E+00 -0.00000000000E+00 -0.99669670848E+02  0.99669670848E+02  0.00000000000E+00 0. -1.
         25    2    1    2    0    0  0.53412907261E+02  0.33961248132E+02  0.56273507480E+02  0.15106618741E+03  0.12509188741E+03 0.  0.
          5    1    3    3  502    0  0.17475595835E+01 -0.31154062244E+02 -0.20719008260E+02  0.37687919313E+02  0.41800000000E+01 0. -1.
         -5    1    3    3    0  502  0.51665347678E+02  0.65115310376E+02  0.76992515740E+02  0.11337826809E+03  0.41800000000E+01 0. -1.
        -11    1    1    2    0    0 -0.54963759409E+02 -0.13180535092E+02 -0.33627223016E+02  0.65768772844E+02  0.00000000000E+00 0. -1.
         11    1    1    2    0    0  0.15508521475E+01 -0.20780713040E+02  0.39578748139E+02  0.44729414048E+02  0.00000000000E+00 0.  1.
</event>
<event>
 7    1  0.2420569E-009  0.1302951E+03  0.7561462E-02  0.1227018E+00
          1   -1    0    0  501    0  0.00000000000E+00  0.00000000000E+00  0.79801515025E+03  0.79801515025E+03  0.00000000000E+00 0. -1.
         -1   -1    0    0    0  501 -0.00000000000E+00 -0.00000000000E+00 -0.26547659487E+02  0.26547659487E+02  0.00000000000E+00 0.  1.
         25    2    1    2    0    0  0.51859900123E+02 -0.56525709463E+02  0.58413652621E+03  0.60228528230E+03  0.12508986748E+03 0.  0.
          5    1    3    3  502    0  0.35906291483E+02  0.36777781214E+02  0.22811376980E+03  0.23387011638E+03  0.41800000000E+01 0.  1.
         -5    1    3    3    0  502  0.15953608640E+02 -0.93303490677E+02  0.35602275641E+03  0.36841516592E+03  0.41800000000E+01 0.  1.
        -11    1    1    2    0    0 -0.27528750767E+02  0.77439791682E+02  0.10122882824E+03  0.13039182920E+03  0.00000000000E+00 0.  1.
         11    1    1    2    0    0 -0.24331149356E+02 -0.20914082220E+02  0.86102136311E+02  0.91885698242E+02  0.00000000000E+00 0. -1.
</event>
<event>
 7    1  0.2420569E-009  0.2598723E+03  0.7561462E-02  0.1107220E+00
         -2   -1    0    0    0  501 -0.00000000000E+00  0.00000000000E+00  0.19960767979E+03  0.19960767979E+03  0.00000000000E+00 0. -1.
          2   -1    0    0  501    0  0.00000000000E+00 -0.00000000000E+00 -0.46218151197E+03  0.46218151197E+03  0.00000000000E+00 0.  1.
         25    2    1    2    0    0 -0.43396687730E+02 -0.24799509701E+03 -0.27521518507E+03  0.39341574911E+03  0.12509081863E+03 0.  0.
          5    1    3    3  502    0  0.21307776290E+02 -0.18216713029E+02  0.94448695788E+00  0.28359027128E+02  0.41800000000E+01 0.  1.
         -5    1    3    3    0  502 -0.64704464019E+02 -0.22977838398E+03 -0.27615967203E+03  0.36505672198E+03  0.41800000000E+01 0.  1.
        -11    1    1    2    0    0 -0.17877714759E+01  0.28295211345E+02  0.32582379696E+02  0.43190584373E+02  0.00000000000E+00 0. -1.
         11    1    1    2    0    0  0.45184459206E+02  0.21969988566E+03 -0.19941026805E+02  0.22518285828E+03  0.00000000000E+00 0.  1.
</event>
<event>
 7    1  0.2420569E-009  0.8425053E+02  0.7561462E-02  0.1317404E+00
         -1   -1    0    0    0  501 -0.00000000000E+00  0.00000000000E+00  0.95993040144E+02  0.95993040144E+02  0.00000000000E+00 0.  1.
          1   -1    0    0  501    0  0.00000000000E+00 -0.00000000000E+00 -0.19272503433E+03  0.19272503433E+03  0.00000000000E+00 0. -1.
         25    2    1    2    0    0  0.15244448175E+02  0.65259797815E+02 -0.95836976886E+02  0.17124344259E+03  0.12509338943E+03 0.  0.
          5    1    3    3  502    0  0.43765953438E+00  0.57262064691E+02  0.14770067143E+02  0.59285435665E+02  0.41800000000E+01 0. -1.
         -5    1    3    3    0  502  0.14806788641E+02  0.79977331232E+01 -0.11060704403E+03  0.11195800692E+03  0.41800000000E+01 0. -1.
        -11    1    1    2    0    0 -0.41227773843E+02 -0.42355089192E+02  0.34098209109E+02  0.68237605328E+02  0.00000000000E+00 0.  1.
         11    1    1    2    0    0  0.25983325668E+02 -0.22904708623E+02 -0.34993226406E+02  0.49237026557E+02  0.00000000000E+00 0. -1.
</event>
<event>
 7    1  0.2420569E-009  0.1527688E+03  0.7561462E-02  0.1197111E+00
         -3   -1    0    0    0  501 -0.00000000000E+00  0.00000000000E+00  0.13405692220E+04  0.13405692220E+04  0.00000000000E+00 0.  1.
          3   -1    0    0  501    0  0.00000000000E+00 -0.00000000000E+00 -0.26286141445E+02  0.26286141445E+02  0.00000000000E+00 0. -1.
         25    2    1    2    0    0 -0.43877894218E+02  0.14599220936E+03  0.74581422985E+03  0.77144335718E+03  0.12508794146E+03 0.  0.
          5    1    3    3  502    0 -0.38781038850E+02  0.11587226745E+03  0.72254379857E+03  0.73281468639E+03  0.41800000000E+01 0.  1.
         -5    1    3    3    0  502 -0.50968553675E+01  0.30119941908E+02  0.23270431285E+02  0.38628670795E+02  0.41800000000E+01 0.  1.
        -11    1    1    2    0    0  0.28301600926E+02 -0.93795999095E+02  0.49118834226E+03  0.50086391129E+03  0.00000000000E+00 0.  1.
         11    1    1    2    0    0  0.15576293291E+02 -0.52196210264E+02  0.77280508469E+02  0.94548094998E+02  0.00000000000E+00 0. -1.
</event>
<event>
 7    1  0.2420569E-009  0.1517934E+03  0.7561462E-02  0.1198286E+00
         -1   -1    0    0    0  501 -0.00000000000E+00  0.00000000000E+00  0.98369362354E+03  0.98369362354E+03  0.00000000000E+00 0.  1.
          1   -1    0    0  501    0  0.00000000000E+00 -0.00000000000E+00 -0.26617381426E+02  0.26617381426E+02  0.00000000000E+00 0. -1.
         25    2    1    2    0    0  0.11530694745E+03 -0.27501217939E+02  0.58262279474E+03  0.60757344397E+03  0.12507661550E+03 0.  0.
          5    1    3    3  502    0  0.10962075052E+03  0.18165517938E+02  0.50618193918E+03  0.51825121605E+03  0.41800000000E+01 0.  1.
         -5    1    3    3    0  502  0.56861969223E+01 -0.45666735877E+02  0.76440855565E+02  0.89322227920E+02  0.41800000000E+01 0.  1.
        -11    1    1    2    0    0 -0.10764117683E+03  0.52696479492E+02  0.27757235108E+03  0.30234078783E+03  0.00000000000E+00 0. -1.
         11    1    1    2    0    0 -0.76657706171E+01 -0.25195261553E+02  0.96881096291E+02  0.10039677317E+03  0.00000000000E+00 0.  1.
</event>
<event>
 7    1  0.2420569E-009  0.2036763E+03  0.7561462E-02  0.1146674E+00
          2   -1    0    0  501    0  0.00000000000E+00  0.00000000000E+00  0.10622167299E+04  0.10622167299E+04  0.00000000000E+00 0. -1.
         -2   -1    0    0    0  501 -0.00000000000E+00 -0.00000000000E+00 -0.41746667283E+02  0.41746667283E+02  0.00000000000E+00 0.  1.
         25    2    1    2    0    0  0.81033637747E+02  0.16001457549E+03  0.56931751666E+03  0.60987010026E+03  0.12509192460E+03 0.  0.
          5    1    3    3  502    0 -0.28493560091E+02  0.13072190261E+02  0.13096094379E+03  0.13472567062E+03  0.41800000000E+01 0. -1.
         -5    1    3    3    0  502  0.10952719784E+03  0.14694238523E+03  0.43835657287E+03  0.47514442964E+03  0.41800000000E+01 0. -1.
        -11    1    1    2    0    0  0.11895701866E+02 -0.32612026678E+02  0.15209800153E+03  0.15600914741E+03  0.00000000000E+00 0. -1.
         11    1    1    2    0    0 -0.92929339613E+02 -0.12740254881E+03  0.29905454441E+03  0.33808414949E+03  0.00000000000E+00 0.  1.
</event>
<event>
 7    1  0.2420569E-009  0.9525317E+02  0.7561462E-02  0.1290607E+00
         -2   -1    0    0    0  501 -0.00000000000E+00  0.00000000000E+00  0.63431896313E+02  0.63431896313E+02  0.00000000000E+00 0.  1.
          2   -1    0    0  501    0  0.00000000000E+00 -0.00000000000E+00 -0.18996996491E+03  0.18996996491E+03  0.00000000000E+00 0. -1.
         25    2    1    2    0    0  0.86683070121E+01  0.15579987805E+02 -0.87495323847E+02  0.15369135658E+03  0.12509087027E+03 0.  0.
          5    1    3    3  502    0 -0.26330165817E+02 -0.37750087837E+02 -0.11133875819E+01  0.46228333256E+02  0.41800000000E+01 0. -1.
         -5    1    3    3    0  502  0.34998472829E+02  0.53330075642E+02 -0.86381936265E+02  0.10746302332E+03  0.41800000000E+01 0. -1.
        -11    1    1    2    0    0  0.21581161745E+02 -0.37322781369E+02  0.33890095679E+01  0.43246062679E+02  0.00000000000E+00 0.  1.
         11    1    1    2    0    0 -0.30249468757E+02  0.21742793565E+02 -0.42431754317E+02  0.56464441966E+02  0.00000000000E+00 0. -1.
</event>
<event>
 7    1  0.2420569E-009  0.9067106E+02  0.7561462E-02  0.1301235E+00
         -1   -1    0    0    0  501 -0.00000000000E+00  0.00000000000E+00  0.13611107917E+03  0.13611107917E+03  0.00000000000E+00 0.  1.
          1   -1    0    0  501    0  0.00000000000E+00 -0.00000000000E+00 -0.10112221918E+03  0.10112221918E+03  0.00000000000E+00 0. -1.
         25    2    1    2    0    0  0.32083405251E+02  0.29051184912E+02  0.29556096873E+01  0.13239771929E+03  0.12508838558E+03 0.  0.
          5    1    3    3  502    0  0.30794051244E+02  0.76855149929E+02  0.11323756316E+02  0.83670111269E+02  0.41800000000E+01 0.  1.
         -5    1    3    3    0  502  0.12893540073E+01 -0.47803965017E+02 -0.83681466285E+01  0.48727608018E+02  0.41800000000E+01 0.  1.
        -11    1    1    2    0    0 -0.93707193819E+01 -0.25856126237E+02  0.61573580228E+02  0.67436306451E+02  0.00000000000E+00 0.  1.
         11    1    1    2    0    0 -0.22712685869E+02 -0.31950586752E+01 -0.29540329925E+02  0.37399272606E+02  0.00000000000E+00 0. -1.
</event>
<event>
 7    1  0.2420569E-009  0.6692981E+02  0.7561462E-02  0.1370856E+00
         -2   -1    0    0    0  501 -0.00000000000E+00  0.00000000000E+00  0.63195182361E+02  0.63195182361E+02  0.00000000000E+00 0.  1.
          2   -1    0    0  501    0  0.00000000000E+00 -0.00000000000E+00 -0.22052064352E+03  0.22052064352E+03  0.00000000000E+00 0. -1.
         25    2    1    2    0    0  0.25725049483E+02 -0.21640399012E+02 -0.13138024976E+03  0.18449601783E+03  0.12509166850E+03 0.  0.
          5    1    3    3  502    0  0.12298924702E+02 -0.22092957326E+02  0.19971689616E+02  0.32491585039E+02  0.41800000000E+01 0. -1.
         -5    1    3    3    0  502  0.13426124781E+02  0.45255831432E+00 -0.15135193937E+03  0.15200443279E+03  0.41800000000E+01 0. -1.
        -11    1    1    2    0    0  0.21731253098E+02 -0.21104693660E+02 -0.16972966599E+02  0.34723724610E+02  0.00000000000E+00 0. -1.
         11    1    1    2    0    0 -0.47456302580E+02  0.42745092672E+02 -0.89722448003E+01  0.64496083438E+02  0.00000000000E+00 0.  1.
</event>
<event>
 7    1  0.2420569E-009  0.1898396E+03  0.7561462E-02  0.1158606E+00
         -1   -1    0    0    0  501 -0.00000000000E+00  0.00000000000E+00  0.20131706847E+04  0.20131706847E+04  0.00000000000E+00 0.  1.
          1   -1    0    0  501    0  0.00000000000E+00 -0.00000000000E+00 -0.18660175770E+02  0.18660175770E+02  0.00000000000E+00 0. -1.
         25    2    1    2    0    0 -0.98293938059E+02  0.10171093468E+03  0.11145341646E+04  0.11304159788E+04  0.12508824272E+03 0.  0.
          5    1    3    3  502    0  0.27726277091E+02  0.34599453749E+02  0.32907175058E+03  0.33207161588E+03  0.41800000000E+01 0.  1.
         -5    1    3    3    0  502 -0.12602021515E+03  0.67111480928E+02  0.78546241402E+03  0.79834436288E+03  0.41800000000E+01 0.  1.
        -11    1    1    2    0    0  0.87209989781E+02  0.27562396168E+01  0.48039063393E+03  0.48825028452E+03  0.00000000000E+00 0.  1.
         11    1    1    2    0    0  0.11083948279E+02 -0.10446717429E+03  0.39958571043E+03  0.41316459722E+03  0.00000000000E+00 0. -1.
</event>
<event>
 7    1  0.2420569E-009  0.1153220E+03  0.7561462E-02  0.1251020E+00
         -2   -1    0    0    0  501 -0.00000000000E+00  0.00000000000E+00  0.70815754890E+02  0.70815754890E+02  0.00000000000E+00 0.  1.
          2   -1    0    0  501    0  0.00000000000E+00 -0.00000000000E+00 -0.30557989191E+03  0.30557989191E+03  0.00000000000E+00 0. -1.
         25    2    1    2    0    0  0.67260000491E+02 -0.72624991162E+02 -0.10138787849E+03  0.18900993026E+03  0.12508778847E+03 0.  0.
          5    1    3    3  502    0  0.76944526188E+02 -0.64802918790E+02 -0.12589601462E+03  0.16120532650E+03  0.41800000000E+01 0.  1.
         -5    1    3    3    0  502 -0.96845256968E+01 -0.78220723719E+01  0.24508136126E+02  0.27804603765E+02  0.41800000000E+01 0.  1.
        -11    1    1    2    0    0 -0.23092179539E+02  0.68710131210E+02 -0.37188597079E+02  0.81469765186E+02  0.00000000000E+00 0. -1.
         11    1    1    2    0    0 -0.44167820952E+02  0.39148599526E+01 -0.96187661445E+02  0.10591595135E+03  0.00000000000E+00 0.  1.
</event>
<event>
 7    1  0.2420569E-009  0.1094176E+03  0.7561462E-02  0.1261652E+00
         -1   -1    0    0    0  501 -0.00000000000E+00  0.00000000000E+00  0.24296977262E+03  0.24296977262E+03  0.00000000000E+00 0.  1.
          1   -1    0    0  501    0  0.00000000000E+00 -0.00000000000E+00 -0.66518079706E+02  0.66518079706E+02  0.00000000000E+00 0. -1.
         25    2    1    2    0    0  0.59173095397E+01 -0.78346379880E+02  0.12493566820E+03  0.19346567331E+03  0.12508747247E+03 0.  0.
          5    1    3    3  502    0  0.51408634857E+02 -0.30875923333E+02  0.11084188598E+03  0.12609348305E+03  0.41800000000E+01 0. -1.
         -5    1    3    3    0  502 -0.45491325318E+02 -0.47470456547E+02  0.14093782221E+02  0.67372190266E+02  0.41800000000E+01 0. -1.
        -11    1    1    2    0    0  0.20890387462E+02  0.47998007578E+02  0.24492116809E+01  0.52404347698E+02  0.00000000000E+00 0. -1.
         11    1    1    2    0    0 -0.26807697002E+02  0.30348372302E+02  0.49066813032E+02  0.63617831314E+02  0.00000000000E+00 0.  1.
</event>
<event>
 7    1  0.2420569E-009  0.1933416E+03  0.7561462E-02  0.1155481E+00
         -2   -1    0    0    0  501 -0.00000000000E+00  0.00000000000E+00  0.30739364242E+02  0.30739364242E+02  0.00000000000E+00 0.  1.
          2   -1    0    0  501    0  0.00000000000E+00 -0.00000000000E+00 -0.13303307879E+04  0.13303307879E+04  0.00000000000E+00 0. -1.
         25    2    1    2    0    0 -0.24134924848E+02  0.15901079526E+03 -0.86768300409E+03  0.89128519474E+03  0.12509426513E+03 0.  0.
          5    1    3    3  502    0 -0.75348373523E+02  0.91142749761E+02 -0.48064357701E+03  0.49499504922E+03  0.41800000000E+01 0.  1.
         -5    1    3    3    0  502  0.51213448675E+02  0.67868045504E+02 -0.38703942708E+03  0.39629014553E+03  0.41800000000E+01 0.  1.
        -11    1    1    2    0    0  0.54100095707E+02 -0.13287599313E+03 -0.31076028531E+03  0.34227884076E+03  0.00000000000E+00 0.  1.
         11    1    1    2    0    0 -0.29965170859E+02 -0.26134802133E+02 -0.12114813427E+03  0.12750611666E+03  0.00000000000E+00 0. -1.
</event>
<event>
 7    1  0.2750927E-009  0.1536352E+03  0.7561462E-02  0.1196076E+00
         -1   -1    0    0    0  501 -0.00000000000E+00  0.00000000000E+00  0.56961927649E+02  0.56961927649E+02  0.00000000000E+00 0.  1.
          1   -1    0    0  501    0  0.00000000000E+00 -0.00000000000E+00 -0.44945698183E+03  0.44945698183E+03  0.00000000000E+00 0. -1.
         25    2    1    2    0    0 -0.46741205873E+02 -0.99734819981E+02 -0.27363309136E+03  0.32039805305E+03  0.12509224223E+03 0.  0.
          5    1    3    3  502    0  0.33313668262E+02  0.31811992625E+01 -0.36116711272E+02  0.49414671454E+02  0.41800000000E+01 0. -1.
         -5    1    3    3    0  502 -0.80054874135E+02 -0.10291601924E+03 -0.23751638009E+03  0.27098338159E+03  0.41800000000E+01 0. -1.
        -11    1    1    2    0    0 -0.20037071046E+02  0.64597819633E+02 -0.55896981380E+02  0.87743005674E+02  0.00000000000E+00 0.  1.
         11    1    1    2    0    0  0.66778276919E+02  0.35137000348E+02 -0.62964981445E+02  0.98277850760E+02  0.00000000000E+00 0. -1.
</event>
<event>
 7    1  0.2420569E-009  0.2750887E+03  0.7561462E-02  0.1098402E+00
          2   -1    0    0  501    0  0.00000000000E+00  0.00000000000E+00  0.21511445432E+04  0.21511445432E+04  0.00000000000E+00 0. -1.
         -2   -1    0    0    0  501 -0.00000000000E+00 -0.00000000000E+00 -0.37118213337E+02  0.37118213337E+02  0.00000000000E+00 0.  1.
         25    2    1    2    0    0  0.58638823500E+02  0.25281147250E+03  0.11918782337E+04  0.12262031769E+04  0.12509338418E+03 0.  0.
          5    1    3    3  502    0  0.20643687768E+02 -0.26595356149E+01  0.35835091220E+02  0.41651664277E+02  0.41800000000E+01 0. -1.
         -5    1    3    3    0  502  0.37995135732E+02  0.25547100811E+03  0.11560431425E+04  0.11845515126E+04  0.41800000000E+01 0. -1.
        -11    1    1    2    0    0 -0.76914751402E+02 -0.18384506950E+03  0.60468499751E+03  0.63667796787E+03  0.00000000000E+00 0.  1.
         11    1    1    2    0    0  0.18275927902E+02 -0.68966402997E+02  0.31746309864E+03  0.32538161178E+03  0.00000000000E+00 0. -1.
</event>
<event>
 7    1  0.2420569E-009  0.1820602E+03  0.7561462E-02  0.1165824E+00
         -1   -1    0    0    0  501 -0.00000000000E+00  0.00000000000E+00  0.35722283759E+02  0.35722283759E+02  0.00000000000E+00 0.  1.
          1   -1    0    0  501    0  0.00000000000E+00 -0.00000000000E+00 -0.19070261433E+04  0.19070261433E+04  0.00000000000E+00 0. -1.
         25    2    1    2    0    0 -0.12224242956E+03  0.91491585832E+02 -0.16394188979E+04  0.16512589692E+04  0.12509172049E+03 0.  0.
          5    1    3    3  502    0 -0.51586467717E+02  0.10349522426E+03 -0.12444902847E+04  0.12498583784E+04  0.41800000000E+01 0. -1.
         -5    1    3    3    0  502 -0.70655961839E+02 -0.12003638433E+02 -0.39492861325E+03  0.40140059073E+03  0.41800000000E+01 0. -1.
        -11    1    1    2    0    0  0.43712042108E+02 -0.87704337582E+02 -0.12993815703E+03  0.16274740584E+03  0.00000000000E+00 0.  1.
         11    1    1    2    0    0  0.78530387447E+02 -0.37872482492E+01 -0.10194680463E+03  0.12874205209E+03  0.00000000000E+00 0. -1.
</event>
<event>
 7    1  0.2420569E-009  0.1051964E+03  0.7561462E-02  0.1269733E+00
         -2   -1    0    0    0  501 -0.00000000000E+00  0.00000000000E+00  0.80489196756E+02  0.80489196756E+02  0.00000000000E+00 0.  1.
          2   -1    0    0  501    0  0.00000000000E+00 -0.00000000000E+00 -0.21117952292E+03  0.21117952292E+03  0.00000000000E+00 0. -1.
         25    2    1    2    0    0  0.33024552553E+02 -0.64661877356E+02 -0.74823404412E+02  0.16284719813E+03  0.12509551805E+03 0.  0.
          5    1    3    3  502    0  0.10696699697E+02 -0.87474657513E+02 -0.91061031389E+02  0.12679045283E+03  0.41800000000E+01 0. -1.
         -5    1    3    3    0  502  0.22327852856E+02  0.22812780156E+02  0.16237626977E+02  0.36056745297E+02  0.41800000000E+01 0. -1.
        -11    1    1    2    0    0 -0.35872085891E+02  0.12880967476E+02 -0.65778907952E+02  0.76023618703E+02  0.00000000000E+00 0. -1.
         11    1    1    2    0    0  0.28475333382E+01  0.51780909880E+02  0.99119862027E+01  0.52797902843E+02  0.00000000000E+00 0.  1.
</event>
<event>
 7    1  0.2420569E-009  0.9869843E+02  0.7561462E-02  0.1283057E+00
          1   -1    0    0  501    0  0.00000000000E+00  0.00000000000E+00  0.29676963978E+02  0.29676963978E+02  0.00000000000E+00 0. -1.
         -1   -1    0    0    0  501 -0.00000000000E+00 -0.00000000000E+00 -0.66868503340E+03  0.66868503340E+03  0.00000000000E+00 0.  1.
         25    2    1    2    0    0  0.69352755841E+02  0.19707573084E+02 -0.48112454512E+03  0.50231889231E+03  0.12508096770E+03 0.  0.
          5    1    3    3  502    0  0.77764042506E+01 -0.36891550670E+02 -0.48031560914E+02  0.61204266336E+02  0.41800000000E+01 0. -1.
         -5    1    3    3    0  502  0.61576351591E+02  0.56599123754E+02 -0.43309298420E+03  0.44111462598E+03  0.41800000000E+01 0. -1.
        -11    1    1    2    0    0 -0.28911730891E+02 -0.20215508774E+02 -0.23714292552E+01  0.35357865530E+02  0.00000000000E+00 0. -1.
         11    1    1    2    0    0 -0.40441024950E+02  0.50793569053E+00 -0.15551209505E+03  0.16068523953E+03  0.00000000000E+00 0.  1.
</event>
<event>
 7    1  0.2420569E-009  0.1347550E+03  0.7561462E-02  0.1220566E+00
         -1   -1    0    0    0  501 -0.00000000000E+00  0.00000000000E+00  0.38552873153E+03  0.38552873153E+03  0.00000000000E+00 0.  1.
          1   -1    0    0  501    0  0.00000000000E+00 -0.00000000000E+00 -0.48759953896E+02  0.48759953896E+02  0.00000000000E+00 0. -1.
         25    2    1    2    0    0 -0.12474832377E+02 -0.80030058283E+02  0.20831251386E+03  0.25613113058E+03  0.12509444812E+03 0.  0.
          5    1    3    3  502    0 -0.59650343660E+02 -0.85800154406E+01  0.62046434088E+02  0.86596839126E+02  0.41800000000E+01 0.  1.
         -5    1    3    3    0  502  0.47175511283E+02 -0.71450042842E+02  0.14626607977E+03  0.16953429145E+03  0.41800000000E+01 0.  1.
        -11    1    1    2    0    0 -0.39268995009E+02  0.19809944551E+02  0.43002746909E+02  0.61511983498E+02  0.00000000000E+00 0. -1.
         11    1    1    2    0    0  0.51743827386E+02  0.60220113732E+02  0.85453516867E+02  0.11664557135E+03  0.00000000000E+00 0.  1.
</event>
<event>
 7    1  0.2420569E-009  0.1544342E+03  0.7561462E-02  0.1195128E+00
          1   -1    0    0  501    0  0.00000000000E+00  0.00000000000E+00  0.53149568105E+03  0.53149568105E+03  0.00000000000E+00 0. -1.
         -1   -1    0    0    0  501 -0.00000000000E+00 -0.00000000000E+00 -0.55624544150E+02  0.55624544150E+02  0.00000000000E+00 0.  1.
         25    2    1    2    0    0  0.62050469912E+02 -0.94359091628E+02  0.13606959976E+03  0.21659146048E+03  0.12507208236E+03 0.  0.
          5    1    3    3  502    0  0.47027805866E+01 -0.10871578788E+03  0.81354038492E+02  0.13593083042E+03  0.41800000000E+01 0. -1.
         -5    1    3    3    0  502  0.57347689325E+02  0.14356696248E+02  0.54715561266E+02  0.80660630067E+02  0.41800000000E+01 0. -1.
        -11    1    1    2    0    0 -0.50582478966E+01 -0.15847178511E+02  0.13461436367E+02  0.21399280539E+02  0.00000000000E+00 0.  1.
         11    1    1    2    0    0 -0.56992222015E+02  0.11020627014E+03  0.32634010077E+03  0.34912948417E+03  0.00000000000E+00 0. -1.
</event>
<event>
 7    1  0.2420569E-009  0.1613017E+03  0.7561462E-02  0.1187235E+00
         -2   -1    0    0    0  501 -0.00000000000E+00  0.00000000000E+00  0.16760554537E+02  0.16760554537E+02  0.00000000000E+00 0.  1.
          2   -1    0    0  501    0  0.00000000000E+00 -0.00000000000E+00 -0.24546576875E+04  0.24546576875E+04  0.00000000000E+00 0. -1.
         25    2    1    2    0    0 -0.11402857524E+01  0.14014221877E+03 -0.18612618896E+04  0.18707178812E+04  0.12509367527E+03 0.  0.
          5    1    3    3  502    0  0.35591359558E+02  0.10023154106E+03 -0.68709494807E+03  0.69529133948E+03  0.41800000000E+01 0. -1.
         -5    1    3    3    0  502 -0.36731645310E+02  0.39910677705E+02 -0.11741669416E+04  0.11754265418E+04  0.41800000000E+01 0. -1.
        -11    1    1    2    0    0 -0.39800109042E+02 -0.71589765302E+02 -0.20864337301E+03  0.22414548908E+03  0.00000000000E+00 0.  1.
         11    1    1    2    0    0  0.40940394794E+02 -0.68552453464E+02 -0.36799187026E+03  0.37655487167E+03  0.00000000000E+00 0. -1.
</event>
<event>
 7    1  0.4527351E-009  0.1375911E+03  0.7561462E-02  0.1216608E+00
          1   -1    0    0  501    0  0.00000000000E+00  0.00000000000E+00  0.98256358326E+03  0.98256358326E+03  0.00000000000E+00 0. -1.
         -1   -1    0    0    0  501 -0.00000000000E+00 -0.00000000000E+00 -0.27103785572E+02  0.27103785572E+02  0.00000000000E+00 0.  1.
         25    2    1    2    0    0 -0.40358062938E+02 -0.11471880293E+03  0.48918089342E+03  0.51936151567E+03  0.12509700426E+03 0.  0.
          5    1    3    3  502    0 -0.31048918106E+02 -0.46443959467E+02  0.41208403361E+03  0.41587474057E+03  0.41800000000E+01 0.  1.
         -5    1    3    3    0  502 -0.93091448319E+01 -0.68274843459E+02  0.77096859808E+02  0.10348677509E+03  0.41800000000E+01 0.  1.
        -11    1    1    2    0    0  0.63814596627E+02  0.49332359111E+02  0.21613000398E+03  0.23069062187E+03  0.00000000000E+00 0. -1.
         11    1    1    2    0    0 -0.23456533690E+02  0.65386443816E+02  0.25014890029E+03  0.25961523130E+03  0.00000000000E+00 0.  1.
</event>
<event>
 7    1  0.2420569E-009  0.2754409E+03  0.7561462E-02  0.1098205E+00
          2   -1    0    0  501    0  0.00000000000E+00  0.00000000000E+00  0.16220179280E+03  0.16220179280E+03  0.00000000000E+00 0. -1.
         -2   -1    0    0    0  501 -0.00000000000E+00 -0.00000000000E+00 -0.48044115074E+03  0.48044115074E+03  0.00000000000E+00 0.  1.
         25    2    1    2    0    0  0.18446349648E+03 -0.17591677479E+03 -0.19526664443E+03  0.34460076191E+03  0.12508848667E+03 0.  0.
          5    1    3    3  502    0  0.28522738964E+02  0.16369155296E+02 -0.78626450449E+01  0.34070360582E+02  0.41800000000E+01 0. -1.
         -5    1    3    3    0  502  0.15594075752E+03 -0.19228593009E+03 -0.18740399938E+03  0.31053040133E+03  0.41800000000E+01 0. -1.
        -11    1    1    2    0    0 -0.27322986894E+02  0.83423611370E+02 -0.54170874562E+02  0.10315293596E+03  0.00000000000E+00 0.  1.
         11    1    1    2    0    0 -0.15714050959E+03  0.92493163420E+02 -0.68801838956E+02  0.19488924567E+03  0.00000000000E+00 0. -1.
</event>
<event>
 7    1  0.2420569E-009  0.6543213E+02  0.7561462E-02  0.1376353E+00
          1   -1    0    0  501    0  0.00000000000E+00  0.00000000000E+00  0.30202030336E+02  0.30202030336E+02  0.00000000000E+00 0. -1.
         -1   -1    0    0    0  501 -0.00000000000E+00 -0.00000000000E+00 -0.45533326175E+03  0.45533326175E+03  0.00000000000E+00 0.  1.
         25    2    1    2    0    0 -0.72273310846E+01  0.36258843118E+02 -0.20097742081E+03  0.23959544830E+03  0.12508843732E+03 0.  0.
          5    1    3    3  502    0 -0.93216804782E+01  0.26285388708E+02 -0.21772855176E+03  0.21954728429E+03  0.41800000000E+01 0. -1.
         -5    1    3    3    0  502  0.20943493936E+01  0.99734544101E+01  0.16751130949E+02  0.20048164014E+02  0.41800000000E+01 0. -1.
        -11    1    1    2    0    0  0.45405166398E+02 -0.14288580620E+02 -0.16775883184E+03  0.17438124421E+03  0.00000000000E+00 0.  1.
         11    1    1    2    0    0 -0.38177835313E+02 -0.21970262498E+02 -0.56394978761E+02  0.71558599573E+02  0.00000000000E+00 0. -1.
</event>
<event>
 7    1  0.2420569E-009  0.1595384E+03  0.7561462E-02  0.1189219E+00
         -2   -1    0    0    0  501 -0.00000000000E+00  0.00000000000E+00  0.38695148715E+02  0.38695148715E+02  0.00000000000E+00 0.  1.
          2   -1    0    0  501    0  0.00000000000E+00 -0.00000000000E+00 -0.81124612675E+03  0.81124612675E+03  0.00000000000E+00 0. -1.
         25    2    1    2    0    0  0.47023210832E+01  0.13345511027E+03 -0.48857030273E+03  0.52170724622E+03  0.12508050114E+03 0.  0.
          5    1    3    3  502    0  0.32789509334E+02  0.11762155762E+03 -0.46693300994E+03  0.48265297152E+03  0.41800000000E+01 0.  1.
         -5    1    3    3    0  502 -0.28087188251E+02  0.15833552652E+02 -0.21637292793E+02  0.39054274706E+02  0.41800000000E+01 0.  1.
        -11    1    1    2    0    0  0.33360145288E+02 -0.11913757260E+03 -0.22073062588E+03  0.25303886994E+03  0.00000000000E+00 0.  1.
         11    1    1    2    0    0 -0.38062466371E+02 -0.14317537677E+02 -0.63250049416E+02  0.75195159302E+02  0.00000000000E+00 0. -1.
</event>
<event>
 7    1  0.2420569E-009  0.1271550E+03  0.7561462E-02  0.1231739E+00
          2   -1    0    0  501    0  0.00000000000E+00  0.00000000000E+00  0.15824560255E+02  0.15824560255E+02  0.00000000000E+00 0.  1.
         -2   -1    0    0    0  501 -0.00000000000E+00 -0.00000000000E+00 -0.10834239595E+04  0.10834239595E+04  0.00000000000E+00 0. -1.
         25    2    1    2    0    0  0.42298852236E+02  0.56970878718E+02 -0.62660071104E+03  0.64289261430E+03  0.12509032146E+03 0.  0.
          5    1    3    3  502    0  0.82156956104E+02  0.25477227886E+02 -0.48049332551E+03  0.48814973403E+03  0.41800000000E+01 0.  1.
         -5    1    3    3    0  502 -0.39858103867E+02  0.31493650832E+02 -0.14610738553E+03  0.15474288027E+03  0.41800000000E+01 0.  1.
        -11    1    1    2    0    0  0.21720455379E+02 -0.47858508242E+02 -0.21002143968E+03  0.21649762151E+03  0.00000000000E+00 0.  1.
         11    1    1    2    0    0 -0.64019307615E+02 -0.91123704752E+01 -0.23097724856E+03  0.23985828398E+03  0.00000000000E+00 0. -1.
</event>
<event>
 7    1  0.2420569E-009  0.2711492E+03  0.7561462E-02  0.1100624E+00
         -2   -1    0    0    0  501 -0.00000000000E+00  0.00000000000E+00  0.23757358860E+03  0.23757358860E+03  0.00000000000E+00 0.  1.
          2   -1    0    0  501    0  0.00000000000E+00 -0.00000000000E+00 -0.46547739821E+03  0.46547739821E+03  0.00000000000E+00 0. -1.
         25    2    1    2    0    0 -0.21445364439E+03 -0.14640288394E+03  0.70337798256E+02  0.29668082130E+03  0.12509170174E+03 0.  0.
          5    1    3    3  502    0 -0.13704014882E+03 -0.57496580100E+02 -0.17374781721E+02  0.14968371505E+03  0.41800000000E+01 0.  1.
         -5    1    3    3    0  502 -0.77413495571E+02 -0.88906303842E+02  0.87712579977E+02  0.14699710625E+03  0.41800000000E+01 0.  1.
        -11    1    1    2    0    0  0.10040346016E+03  0.12380198808E+03 -0.16219174309E+03  0.22740701087E+03  0.00000000000E+00 0. -1.
         11    1    1    2    0    0  0.11405018423E+03  0.22600895859E+02 -0.13604986478E+03  0.17896315465E+03  0.00000000000E+00 0.  1.
</event>
<event>
 7    1  0.2420569E-009  0.8970845E+02  0.7561462E-02  0.1303559E+00
         -2   -1    0    0    0  501 -0.00000000000E+00  0.00000000000E+00  0.92912059558E+03  0.92912059558E+03  0.00000000000E+00 0.  1.
          2   -1    0    0  501    0  0.00000000000E+00 -0.00000000000E+00 -0.20849727341E+02  0.20849727341E+02  0.00000000000E+00 0. -1.
         25    2    1    2    0    0  0.16397296484E+02 -0.14704686818E+00  0.78969647795E+03  0.79971332354E+03  0.12510787187E+03 0.  0.
          5    1    3    3  502    0 -0.13599865838E+01 -0.60191044304E+02  0.29982523642E+03  0.30583893829E+03  0.41800000000E+01 0. -1.
         -5    1    3    3    0  502  0.17757283068E+02  0.60043997436E+02  0.48987124153E+03  0.49387438525E+03  0.41800000000E+01 0. -1.
        -11    1    1    2    0    0 -0.36352068756E+02  0.43314395077E+00  0.71393461226E+01  0.37049032100E+02  0.00000000000E+00 0. -1.
         11    1    1    2    0    0  0.19954772272E+02 -0.28609708259E+00  0.11143504417E+03  0.11320796728E+03  0.00000000000E+00 0.  1.
</event>
<event>
 7    1  0.2420569E-009  0.2602239E+03  0.7561462E-02  0.1107009E+00
          3   -1    0    0  501    0  0.00000000000E+00  0.00000000000E+00  0.12047046681E+04  0.12047046681E+04  0.00000000000E+00 0. -1.
         -3   -1    0    0    0  501 -0.00000000000E+00 -0.00000000000E+00 -0.34442809974E+03  0.34442809974E+03  0.00000000000E+00 0.  1.
         25    2    1    2    0    0 -0.24448054965E+03 -0.80619842250E+02  0.11293665170E+04  0.11650697783E+04  0.12509420591E+03 0.  0.
          5    1    3    3  502    0 -0.15362187792E+03 -0.60317341047E+02  0.44974796409E+03  0.47909139692E+03  0.41800000000E+01 0. -1.
         -5    1    3    3    0  502 -0.90858671729E+02 -0.20302501203E+02  0.67961855294E+03  0.68597838136E+03  0.41800000000E+01 0. -1.
        -11    1    1    2    0    0  0.20465590459E+03  0.85971681768E+02 -0.26177155846E+03  0.34321934410E+03  0.00000000000E+00 0.  1.
         11    1    1    2    0    0  0.39824645061E+02 -0.53518395173E+01 -0.73183901945E+01  0.40843645472E+02  0.00000000000E+00 0. -1.
</event>
<event>
 7    1  0.2420569E-009  0.1490150E+03  0.7561462E-02  0.1201689E+00
          2   -1    0    0  501    0  0.00000000000E+00  0.00000000000E+00  0.54837505028E+03  0.54837505028E+03  0.00000000000E+00 0.  1.
         -2   -1    0    0    0  501 -0.00000000000E+00 -0.00000000000E+00 -0.67065881950E+02  0.67065881950E+02  0.00000000000E+00 0. -1.
         25    2    1    2    0    0 -0.55026802534E+02 -0.85810120895E+02  0.60122658123E+02  0.17220439714E+03  0.12509314341E+03 0.  0.
          5    1    3    3  502    0 -0.28955262453E+02 -0.11650052398E+03  0.37544561945E+02  0.12584850354E+03  0.41800000000E+01 0. -1.
         -5    1    3    3    0  502 -0.26071540081E+02  0.30690403088E+02  0.22578096178E+02  0.46355893595E+02  0.41800000000E+01 0. -1.
        -11    1    1    2    0    0  0.76182025352E+00  0.83089872520E+02  0.23352184256E+03  0.24786479830E+03  0.00000000000E+00 0.  1.
         11    1    1    2    0    0  0.54264982280E+02  0.27202483753E+01  0.18766466765E+03  0.19537173679E+03  0.00000000000E+00 0. -1.
</event>
<event>
 7    1  0.2420569E-009  0.1245430E+03  0.7561462E-02  0.1235785E+00
         -1   -1    0    0    0  501 -0.00000000000E+00  0.00000000000E+00  0.45458513581E+02  0.45458513581E+02  0.00000000000E+00 0.  1.
          1   -1    0    0  501    0  0.00000000000E+00 -0.00000000000E+00 -0.43166247937E+03  0.43166247937E+03  0.00000000000E+00 0. -1.
         25    2    1    2    0    0 -0.56857418034E+02 -0.42626347229E+02 -0.29651690146E+03  0.32957515500E+03  0.12509092086E+03 0.  0.
          5    1    3    3  502    0  0.22763637106E+02  0.23401684832E+02 -0.12480162164E+03  0.12906873824E+03  0.41800000000E+01 0. -1.
         -5    1    3    3    0  502 -0.79621055140E+02 -0.66028032061E+02 -0.17171527982E+03  0.20050641676E+03  0.41800000000E+01 0. -1.
        -11    1    1    2    0    0  0.71903965004E+02  0.49416693314E+01 -0.36916102361E+02  0.80977767891E+02  0.00000000000E+00 0. -1.
         11    1    1    2    0    0 -0.15046546970E+02  0.37684677897E+02 -0.52770961970E+02  0.66568070057E+02  0.00000000000E+00 0.  1.
</event>
<event>
 7    1  0.2420569E-009  0.7988009E+02  0.7561462E-02  0.1329392E+00
          2   -1    0    0  501    0  0.00000000000E+00  0.00000000000E+00  0.23870110684E+03  0.23870110684E+03  0.00000000000E+00 0. -1.
         -2   -1    0    0    0  501 -0.00000000000E+00 -0.00000000000E+00 -0.59987740257E+02  0.59987740257E+02  0.00000000000E+00 0.  1.
         25    2    1    2    0    0  0.66018628499E+01 -0.86370765284E+01  0.42683119380E+02  0.13262213840E+03  0.12509436131E+03 0.  0.
          5    1    3    3  502    0 -0.40366970657E+02  0.21088017575E+02 -0.18964163297E+02  0.49510692732E+02  0.41800000000E+01 0.  1.
         -5    1    3    3    0  502  0.46968833506E+02 -0.29725094103E+02  0.61647282677E+02  0.83111445673E+02  0.41800000000E+01 0.  1.
        -11    1    1    2    0    0 -0.12672702830E+02 -0.22897355681E+02 -0.13006338184E+00  0.26170655527E+02  0.00000000000E+00 0.  1.
         11    1    1    2    0    0  0.60708399802E+01  0.31534432210E+02  0.13616031059E+03  0.13989605317E+03  0.00000000000E+00 0. -1.
</event>
<event>
 7    1  0.2420569E-009  0.1017688E+03  0.7561462E-02  0.1276620E+00
         -2   -1    0    0    0  501 -0.00000000000E+00  0.00000000000E+00  0.54487157436E+02  0.54487157436E+02  0.00000000000E+00 0.  1.
          2   -1    0    0  501    0  0.00000000000E+00 -0.00000000000E+00 -0.35778518634E+03  0.35778518634E+03  0.00000000000E+00 0. -1.
         25    2    1    2    0    0 -0.59770413662E+02 -0.19823726042E+02 -0.25691563374E+03  0.29260869903E+03  0.12509486569E+03 0.  0.
          5    1    3    3  502    0 -0.77364145188E+02  0.32853443962E+02 -0.16220156975E+03  0.18273308778E+03  0.41800000000E+01 0. -1.
         -5    1    3    3    0  502  0.17593731526E+02 -0.52677170004E+02 -0.94714063994E+02  0.10987561125E+03  0.41800000000E+01 0. -1.
        -11    1    1    2    0    0  0.45757067122E+02  0.10779216823E+02 -0.73841836549E+02  0.87535807141E+02  0.00000000000E+00 0. -1.
         11    1    1    2    0    0  0.14013346541E+02  0.90445092186E+01  0.27459441385E+02  0.32127837609E+02  0.00000000000E+00 0.  1.
</event>
<event>
 7    1  0.2420569E-009  0.6464890E+02  0.7561462E-02  0.1379297E+00
          3   -1    0    0  501    0  0.00000000000E+00  0.00000000000E+00  0.39029059139E+03  0.39029059139E+03  0.00000000000E+00 0. -1.
         -3   -1    0    0    0  501 -0.00000000000E+00 -0.00000000000E+00 -0.31823843481E+02  0.31823843481E+02  0.00000000000E+00 0.  1.
         25    2    1    2    0    0 -0.27042705063E+02 -0.26712419332E+01  0.22955553980E+03  0.26283418827E+03  0.12509045223E+03 0.  0.
          5    1    3    3  502    0 -0.21024848435E+02 -0.39567695201E+02  0.18837686278E+02  0.48785013883E+02  0.41800000000E+01 0.  1.
         -5    1    3    3    0  502 -0.60178566281E+01  0.36896453268E+02  0.21071785352E+03  0.21404917438E+03  0.41800000000E+01 0.  1.
        -11    1    1    2    0    0 -0.86377184977E+01  0.64774800422E+01 -0.10658654751E+02  0.15171514415E+02  0.00000000000E+00 0.  1.
         11    1    1    2    0    0  0.35680423561E+02 -0.38062381090E+01  0.13956986287E+03  0.14410873219E+03  0.00000000000E+00 0. -1.
</event>
<event>
 7    1  0.2420569E-009  0.2035943E+03  0.7561462E-02  0.1146741E+00
          1   -1    0    0  501    0  0.00000000000E+00  0.00000000000E+00  0.33199394835E+03  0.33199394835E+03  0.00000000000E+00 0. -1.
         -1   -1    0    0    0  501 -0.00000000000E+00 -0.00000000000E+00 -0.15897828982E+03  0.15897828982E+03  0.00000000000E+00 0.  1.
         25    2    1    2    0    0 -0.18352066456E+03  0.65774807003E+02  0.13725305344E+03  0.26924426316E+03  0.12509161846E+03 0.  0.
          5    1    3    3  502    0 -0.91993347574E+02  0.76838559742E+02  0.22571737608E+02  0.12204055064E+03  0.41800000000E+01 0. -1.
         -5    1    3    3    0  502 -0.91527316986E+02 -0.11063752739E+02  0.11468131583E+03  0.14720371252E+03  0.41800000000E+01 0. -1.
        -11    1    1    2    0    0  0.64832405783E+02 -0.22068236698E+02  0.62199128277E+02  0.92514752710E+02  0.00000000000E+00 0. -1.
         11    1    1    2    0    0  0.11868825878E+03 -0.43706570305E+02 -0.26436523187E+02  0.12921322230E+03  0.00000000000E+00 0.  1.
</event>
<event>
 7    1  0.2420569E-009  0.1227305E+03  0.7561462E-02  0.1238659E+00
          2   -1    0    0  501    0  0.00000000000E+00  0.00000000000E+00  0.31127789380E+02  0.31127789380E+02  0.00000000000E+00 0. -1.
         -2   -1    0    0    0  501 -0.00000000000E+00 -0.00000000000E+00 -0.61055563446E+03  0.61055563446E+03  0.00000000000E+00 0.  1.
         25    2    1    2    0    0  0.80968483425E+02  0.76651020357E+01 -0.32638977465E+03  0.35887609187E+03  0.12508842961E+03 0.  0.
          5    1    3    3  502    0  0.98502577559E+02 -0.25445875371E+02 -0.17136413711E+03  0.19933236126E+03  0.41800000000E+01 0.  1.
         -5    1    3    3    0  502 -0.17534094134E+02  0.33110977406E+02 -0.15502563754E+03  0.15954373061E+03  0.41800000000E+01 0.  1.
        -11    1    1    2    0    0 -0.26250292736E+02  0.29732492135E+02 -0.17941492402E+03  0.18374660246E+03  0.00000000000E+00 0.  1.
         11    1    1    2    0    0 -0.54718190690E+02 -0.37397594170E+02 -0.73623146411E+02  0.99060729502E+02  0.00000000000E+00 0. -1.
</event>
<event>
 7    1  0.2420569E-009  0.9429705E+02  0.7561462E-02  0.1292767E+00
         -2   -1    0    0    0  501 -0.00000000000E+00  0.00000000000E+00  0.45311803335E+03  0.45311803335E+03  0.00000000000E+00 0.  1.
          2   -1    0    0  501    0  0.00000000000E+00 -0.00000000000E+00 -0.26598120353E+02  0.26598120353E+02  0.00000000000E+00 0. -1.
         25    2    1    2    0    0 -0.64986752638E+01  0.11822253490E+02  0.27990653464E+03  0.30688280566E+03  0.12508952720E+03 0.  0.
          5    1    3    3  502    0  0.43239136037E+02  0.23743963451E+02  0.46563234674E+02  0.67963268821E+02  0.41800000000E+01 0.  1.
         -5    1    3    3    0  502 -0.49737811301E+02 -0.11921709961E+02  0.23334329997E+03  0.23891953684E+03  0.41800000000E+01 0.  1.
        -11    1    1    2    0    0  0.21765569057E+02  0.33497944006E+02  0.42867548088E+02  0.58595895147E+02  0.00000000000E+00 0. -1.
         11    1    1    2    0    0 -0.15266893793E+02 -0.45320197496E+02  0.10374583027E+03  0.11423745290E+03  0.00000000000E+00 0.  1.
</event>
<event>
 7    1  0.2420569E-009  0.9077513E+02  0.7561462E-02  0.1300985E+00
         -2   -1    0    0    0  501 -0.00000000000E+00  0.00000000000E+00  0.21448779002E+02  0.21448779002E+02  0.00000000000E+00 0.  1.
          2   -1    0    0  501    0  0.00000000000E+00 -0.00000000000E+00 -0.64378385576E+03  0.64378385576E+03  0.00000000000E+00 0. -1.
         25    2    1    2    0    0 -0.21050451002E+02  0.32183736184E+01 -0.39215814311E+03  0.41217529048E+03  0.12508789491E+03 0.  0.
          5    1    3    3  502    0  0.26490643095E+02 -0.24942922875E+02 -0.31532031356E+03  0.31744019297E+03  0.41800000000E+01 0.  1.
         -5    1    3    3    0  502 -0.47541094098E+02  0.28161296493E+02 -0.76837829555E+02  0.94735097503E+02  0.41800000000E+01 0.  1.
        -11    1    1    2    0    0  0.18092504024E+02 -0.44545146171E+02 -0.55021700673E+02  0.73068435690E+02  0.00000000000E+00 0.  1.
         11    1    1    2    0    0  0.29579469780E+01  0.41326772552E+02 -0.17515523298E+03  0.17998890860E+03  0.00000000000E+00 0. -1.
</event>
<event>
 7    1  0.2426120E-009  0.9904270E+02  0.7561462E-02  0.1282322E+00
          1   -1    0    0  501    0  0.00000000000E+00  0.00000000000E+00  0.27165818081E+03  0.27165818081E+03  0.00000000000E+00 0. -1.
         -1   -1    0    0    0  501 -0.00000000000E+00 -0.00000000000E+00 -0.74009114257E+02  0.74009114257E+02  0.00000000000E+00 0.  1.
         25    2    1    2    0    0 -0.49903797881E+02  0.28825155898E+01  0.15268433511E+02  0.13557084342E+03  0.12509048958E+03 0.  0.
          5    1    3    3  502    0  0.25029372753E+02  0.98412118717E+01  0.46584153689E+02  0.53952522892E+02  0.41800000000E+01 0.  1.
         -5    1    3    3    0  502 -0.74933170634E+02 -0.69586962819E+01 -0.31315720177E+02  0.81618320526E+02  0.41800000000E+01 0.  1.
        -11    1    1    2    0    0  0.21093352721E+02 -0.41949955741E+02  0.47690633989E+02  0.66926264545E+02  0.00000000000E+00 0.  1.
         11    1    1    2    0    0  0.28810445160E+02  0.39067440151E+02  0.13468999905E+03  0.14317018710E+03  0.00000000000E+00 0. -1.
</event>
<event>
 7    1  0.2420569E-009  0.1256749E+03  0.7561462E-02  0.1234018E+00
          3   -1    0    0  501    0  0.00000000000E+00  0.00000000000E+00  0.10179606920E+03  0.10179606920E+03  0.00000000000E+00 0. -1.
         -3   -1    0    0    0  501 -0.00000000000E+00 -0.00000000000E+00 -0.21794031761E+03  0.21794031761E+03  0.00000000000E+00 0.  1.
         25    2    1    2    0    0 -0.42959307325E+02  0.88361480780E+02 -0.91868411982E+02  0.18368647038E+03  0.12509061079E+03 0.  0.
          5    1    3    3  502    0 -0.72576661110E+02  0.17141755790E+02 -0.18050402208E+02  0.76840750577E+02  0.41800000000E+01 0.  1.
         -5    1    3    3    0  502  0.29617353785E+02  0.71219724990E+02 -0.73818009774E+02  0.10684571980E+03  0.41800000000E+01 0.  1.
        -11    1    1    2    0    0  0.11523916085E+02 -0.40847013608E+02  0.34127708852E+02  0.54460808607E+02  0.00000000000E+00 0.  1.
         11    1    1    2    0    0  0.31435391240E+02 -0.47514467172E+02 -0.58403545280E+02  0.81589107817E+02  0.00000000000E+00 0. -1.
</event>
<event>
 7    1  0.2420569E-009  0.1414496E+03  0.7561462E-02  0.1211392E+00
          1   -1    0    0  501    0  0.00000000000E+00  0.00000000000E+00  0.73800947288E+03  0.73800947288E+03  0.00000000000E+00 0. -1.
         -1   -1    0    0    0  501 -0.00000000000E+00 -0.00000000000E+00 -0.44082747894E+02  0.44082747894E+02  0.00000000000E+00 0.  1.
         25    2    1    2    0    0  0.85866987892E+02  0.74124434023E+02  0.55927638165E+03  0.58421307715E+03  0.12508907671E+03 0.  0.
          5    1    3    3  502    0 -0.26568622537E+02 -0.86191872597E+01  0.72829392053E+02  0.78113858177E+02  0.41800000000E+01 0.  1.
         -5    1    3    3    0  502  0.11243561043E+03  0.82743621283E+02  0.48644698960E+03  0.50609921898E+03  0.41800000000E+01 0.  1.
        -11    1    1    2    0    0 -0.35257312715E+02 -0.18592214893E+02 -0.41228583758E+01  0.40071767065E+02  0.00000000000E+00 0.  1.
         11    1    1    2    0    0 -0.50609675177E+02 -0.55532219130E+02  0.13877320170E+03  0.15780737655E+03  0.00000000000E+00 0. -1.
</event>
<event>
 7    1  0.2420569E-009  0.5326762E+02  0.7561462E-02  0.1428474E+00
         -1   -1    0    0    0  501 -0.00000000000E+00  0.00000000000E+00  0.62541486595E+02  0.62541486595E+02  0.00000000000E+00 0.  1.
          1   -1    0    0  501    0  0.00000000000E+00 -0.00000000000E+00 -0.24919037789E+03  0.24919037789E+03  0.00000000000E+00 0. -1.
         25    2    1    2    0    0  0.93745262690E+01 -0.95133628997E+01 -0.17899580802E+03  0.21878370154E+03  0.12509365673E+03 0.  0.
          5    1    3    3  502    0  0.11726180003E+02 -0.15123643742E+02  0.14984867995E+02  0.24662655297E+02  0.41800000000E+01 0.  1.
         -5    1    3    3    0  502 -0.23516537341E+01  0.56102808419E+01 -0.19398067602E+03  0.19412104624E+03  0.41800000000E+01 0.  1.
        -11    1    1    2    0    0  0.39669879124E+01 -0.33909031457E+02  0.20194680948E+02  0.39665911637E+02  0.00000000000E+00 0.  1.
         11    1    1    2    0    0 -0.13341514181E+02  0.43422394356E+02 -0.27847764221E+02  0.53282251308E+02  0.00000000000E+00 0. -1.
</event>
<event>
 7    1  0.2420569E-009  0.1113900E+03  0.7561462E-02  0.1258017E+00
         -1   -1    0    0    0  501 -0.00000000000E+00  0.00000000000E+00  0.27143206078E+02  0.27143206078E+02  0.00000000000E+00 0.  1.
          1   -1    0    0  501    0  0.00000000000E+00 -0.00000000000E+00 -0.61652364755E+03  0.61652364755E+03  0.00000000000E+00 0. -1.
         25    2    1    2    0    0 -0.37971397386E+02  0.48320800811E+02 -0.40602230190E+03  0.42927653731E+03  0.12509000371E+03 0.  0.
          5    1    3    3  502    0  0.14735545254E+02 -0.34324184227E+02 -0.73075945734E+02  0.82175739496E+02  0.41800000000E+01 0.  1.
         -5    1    3    3    0  502 -0.52706942640E+02  0.82644985038E+02 -0.33294635617E+03  0.34710079781E+03  0.41800000000E+01 0.  1.
        -11    1    1    2    0    0 -0.16491857820E+02 -0.42724243616E+01  0.11083707674E+01  0.17072301252E+02  0.00000000000E+00 0. -1.
         11    1    1    2    0    0  0.54463255206E+02 -0.44048376450E+02 -0.18446651033E+03  0.19731801506E+03  0.00000000000E+00 0.  1.
</event>
<event>
 7    1  0.2420569E-009  0.1094693E+03  0.7561462E-02  0.1261556E+00
         -1   -1    0    0    0  501 -0.00000000000E+00  0.00000000000E+00  0.19054365576E+02  0.19054365576E+02  0.00000000000E+00 0.  1.
          1   -1    0    0  501    0  0.00000000000E+00 -0.00000000000E+00 -0.69862151406E+03  0.69862151406E+03  0.00000000000E+00 0. -1.
         25    2    1    2    0    0  0.23607111894E+02  0.33569217778E+02 -0.37013509159E+03  0.39285056976E+03  0.12508955200E+03 0.  0.
          5    1    3    3  502    0 -0.14044377663E+02  0.67632913523E+02 -0.12897051379E+03  0.14636366134E+03  0.41800000000E+01 0. -1.
         -5    1    3    3    0  502  0.37651489557E+02 -0.34063695745E+02 -0.24116457781E+03  0.24648690842E+03  0.41800000000E+01 0. -1.
        -11    1    1    2    0    0 -0.78560094069E+01 -0.64023930724E+02 -0.20500463459E+03  0.21491319362E+03  0.00000000000E+00 0. -1.
         11    1    1    2    0    0 -0.15751102488E+02  0.30454712946E+02 -0.10442742230E+03  0.10991211625E+03  0.00000000000E+00 0.  1.
</event>
<event>
 7    1  0.2420569E-009  0.8852301E+02  0.7561462E-02  0.1306468E+00
          1   -1    0    0  501    0  0.00000000000E+00  0.00000000000E+00  0.14273912348E+03  0.14273912348E+03  0.00000000000E+00 0. -1.
         -1   -1    0    0    0  501 -0.00000000000E+00 -0.00000000000E+00 -0.92552358281E+02  0.92552358281E+02  0.00000000000E+00 0.  1.
         25    2    1    2    0    0 -0.18645341543E+02  0.32249291399E+02  0.32679889145E+02  0.13454932560E+03  0.12509148775E+03 0.  0.
          5    1    3    3  502    0  0.25644622729E+02  0.49941325573E+02 -0.23266482470E+02  0.60914565429E+02  0.41800000000E+01 0.  1.
         -5    1    3    3    0  502 -0.44289964272E+02 -0.17692034174E+02  0.55946371615E+02  0.73634760170E+02  0.41800000000E+01 0.  1.
        -11    1    1    2    0    0 -0.13030726480E+01 -0.47652960288E+02  0.43501101730E+02  0.64535637242E+02  0.00000000000E+00 0.  1.
         11    1    1    2    0    0  0.19948414191E+02  0.15403668888E+02 -0.25994225675E+02  0.36206518921E+02  0.00000000000E+00 0. -1.
</event>
<event>
 7    1  0.2420569E-009  0.9931027E+02  0.7561462E-02  0.1281753E+00
         -2   -1    0    0    0  501 -0.00000000000E+00  0.00000000000E+00  0.10163888885E+03  0.10163888885E+03  0.00000000000E+00 0.  1.
          2   -1    0    0  501    0  0.00000000000E+00 -0.00000000000E+00 -0.16850089427E+03  0.16850089427E+03  0.00000000000E+00 0. -1.
         25    2    1    2    0    0  0.87682559812E+01 -0.15207006818E+01 -0.10807079232E+03  0.16554829727E+03  0.12509095785E+03 0.  0.
          5    1    3    3  502    0  0.25627658312E+02 -0.49265099689E+02 -0.12144203591E+02  0.56998078904E+02  0.41800000000E+01 0.  1.
         -5    1    3    3    0  502 -0.16859402331E+02  0.47744399007E+02 -0.95926588727E+02  0.10855021837E+03  0.41800000000E+01 0.  1.
        -11    1    1    2    0    0 -0.38302816697E+02  0.31832682644E+02  0.37035178150E+02  0.62064723248E+02  0.00000000000E+00 0.  1.
         11    1    1    2    0    0  0.29534560716E+02 -0.30311981962E+02  0.41736087554E+01  0.42526762600E+02  0.00000000000E+00 0. -1.
</event>
<event>
 7    1  0.2420569E-009  0.8731282E+02  0.7561462E-02  0.1309493E+00
          1   -1    0    0  501    0  0.00000000000E+00  0.00000000000E+00  0.30978095048E+03  0.30978095048E+03  0.00000000000E+00 0. -1.
         -1   -1    0    0    0  501 -0.00000000000E+00 -0.00000000000E+00 -0.47742444686E+02  0.47742444686E+02  0.00000000000E+00 0.  1.
         25    2    1    2    0    0 -0.19426226632E+02  0.41253811500E+02  0.19720948613E+03  0.23794669460E+03  0.12509113799E+03 0.  0.
          5    1    3    3  502    0  0.78014881388E+01 -0.16036816743E+02  0.16622003202E+03  0.16722623644E+03  0.41800000000E+01 0.  1.
         -5    1    3    3    0  502 -0.27227714771E+02  0.57290628243E+02  0.30989454115E+02  0.70720458161E+02  0.41800000000E+01 0.  1.
        -11    1    1    2    0    0 -0.18410492964E+02  0.15812624131E+02 -0.14096623465E+01  0.24309925566E+02  0.00000000000E+00 0. -1.
         11    1    1    2    0    0  0.37836719596E+02 -0.57066435632E+02  0.66238682011E+02  0.95266775006E+02  0.00000000000E+00 0.  1.
</event>
<event>
 7    1  0.2420569E-009  0.1183828E+03  0.7561462E-02  0.1245789E+00
          1   -1    0    0  501    0  0.00000000000E+00  0.00000000000E+00  0.57624746657E+03  0.57624746657E+03  0.00000000000E+00 0. -1.
         -1   -1    0    0    0  501 -0.00000000000E+00 -0.00000000000E+00 -0.29770488749E+02  0.29770488749E+02  0.00000000000E+00 0.  1.
         25    2    1    2    0    0 -0.45715217551E+02  0.56471361839E+02  0.33298530240E+03  0.36304764174E+03  0.12508190412E+03 0.  0.
          5    1    3    3  502    0  0.28692789038E+02  0.38086294404E+02  0.22813621233E+03  0.23310393763E+03  0.41800000000E+01 0. -1.
         -5    1    3    3    0  502 -0.74408006589E+02  0.18385067435E+02  0.10484909007E+03  0.12994370411E+03  0.41800000000E+01 0. -1.
        -11    1    1    2    0    0 -0.23612256305E+02 -0.29411440891E+02  0.44607821434E+02  0.58416001542E+02  0.00000000000E+00 0.  1.
         11    1    1    2    0    0  0.69327473855E+02 -0.27059920948E+02  0.16888385399E+03  0.18455431204E+03  0.00000000000E+00 0. -1.
</event>
<event>
 7    1  0.2420569E-009  0.1631743E+03  0.7561462E-02  0.1185159E+00
          1   -1    0    0  501    0  0.00000000000E+00  0.00000000000E+00  0.27273978113E+03  0.27273978113E+03  0.00000000000E+00 0. -1.
         -1   -1    0    0    0  501 -0.00000000000E+00 -0.00000000000E+00 -0.14846579648E+03  0.14846579648E+03  0.00000000000E+00 0.  1.
         25    2    1    2    0    0  0.25869163535E+02  0.12794346869E+03  0.17726646378E+03  0.25319809032E+03  0.12508848451E+03 0.  0.
          5    1    3    3  502    0 -0.39987412688E+02  0.71272762436E+02  0.13157022766E+03  0.15494191507E+03  0.41800000000E+01 0. -1.
         -5    1    3    3    0  502  0.65856576223E+02  0.56670706252E+02  0.45696236118E+02  0.98256175247E+02  0.41800000000E+01 0. -1.
        -11    1    1    2    0    0 -0.49784576826E+02 -0.33248645444E+02 -0.77376276499E+01  0.60364289072E+02  0.00000000000E+00 0.  1.
         11    1    1    2    0    0  0.23915413291E+02 -0.94694823244E+02 -0.45254851480E+02  0.10764319823E+03  0.00000000000E+00 0. -1.
</event>
<event>
 7    1  0.2420569E-009  0.8813623E+02  0.7561462E-02  0.1307429E+00
         -2   -1    0    0    0  501 -0.00000000000E+00  0.00000000000E+00  0.75006706793E+02  0.75006706793E+02  0.00000000000E+00 0.  1.
          2   -1    0    0  501    0  0.00000000000E+00 -0.00000000000E+00 -0.23115636116E+03  0.23115636116E+03  0.00000000000E+00 0. -1.
         25    2    1    2    0    0 -0.56144341626E+02  0.20709917840E+02 -0.32326474678E+02  0.14238560085E+03  0.12509024970E+03 0.  0.
          5    1    3    3  502    0 -0.71321391902E+02 -0.31808554027E+01  0.27062811119E+02  0.76463892980E+02  0.41800000000E+01 0. -1.
         -5    1    3    3    0  502  0.15177050276E+02  0.23890773242E+02 -0.59389285797E+02  0.65921707872E+02  0.41800000000E+01 0. -1.
        -11    1    1    2    0    0  0.58652863646E+02 -0.35021397471E+01 -0.25711512214E+02  0.64136614013E+02  0.00000000000E+00 0.  1.
         11    1    1    2    0    0 -0.25085220202E+01 -0.17207778092E+02 -0.98111667473E+02  0.99640853088E+02  0.00000000000E+00 0. -1.
</event>
<event>
 7    1  0.2420569E-009  0.1656301E+03  0.7561462E-02  0.1182483E+00
          2   -1    0    0  501    0  0.00000000000E+00  0.00000000000E+00  0.19665644531E+03  0.19665644531E+03  0.00000000000E+00 0. -1.
         -2   -1    0    0    0  501 -0.00000000000E+00 -0.00000000000E+00 -0.14078654524E+03  0.14078654524E+03  0.00000000000E+00 0.  1.
         25    2    1    2    0    0 -0.57426215802E+02 -0.11535106850E+03  0.39902480463E+02  0.18395799792E+03  0.12507876633E+03 0.  0.
          5    1    3    3  502    0 -0.95908631551E+02 -0.94282766317E+02  0.21781458914E+02  0.13630704304E+03  0.41800000000E+01 0. -1.
         -5    1    3    3    0  502  0.38482415749E+02 -0.21068302186E+02  0.18121021549E+02  0.47650954878E+02  0.41800000000E+01 0. -1.
        -11    1    1    2    0    0  0.47797327106E+02  0.12596897845E+02  0.40557578063E+01  0.49595518802E+02  0.00000000000E+00 0.  1.
         11    1    1    2    0    0  0.96288886955E+01  0.10275417066E+03  0.11911661811E+02  0.10388947383E+03  0.00000000000E+00 0. -1.
</event>
<event>
 7    1  0.2420569E-009  0.1114934E+03  0.7561462E-02  0.1257829E+00
          4   -1    0    0  501    0  0.00000000000E+00  0.00000000000E+00  0.28787195216E+02  0.28787195216E+02  0.00000000000E+00 0. -1.
         -4   -1    0    0    0  501 -0.00000000000E+00 -0.00000000000E+00 -0.61241408388E+03  0.61241408388E+03  0.00000000000E+00 0.  1.
         25    2    1    2    0    0  0.13169784933E+02  0.67692350891E+02 -0.37988462129E+03  0.40584872069E+03  0.12508061796E+03 0.  0.
          5    1    3    3  502    0 -0.51278518705E+02  0.55289816241E+02 -0.23246365402E+03  0.24442437092E+03  0.41800000000E+01 0.  1.
         -5    1    3    3    0  502  0.64448303638E+02  0.12402534650E+02 -0.14742096727E+03  0.16142434977E+03  0.41800000000E+01 0.  1.
        -11    1    1    2    0    0 -0.24408220759E+02 -0.16924690405E+02 -0.52494679018E+01  0.30162282725E+02  0.00000000000E+00 0. -1.
         11    1    1    2    0    0  0.11238435827E+02 -0.50767660486E+02 -0.19849279948E+03  0.20519027569E+03  0.00000000000E+00 0.  1.
</event>
<event>
 7    1  0.2420569E-009  0.1426243E+03  0.7561462E-02  0.1209841E+00
          3   -1    0    0  501    0  0.00000000000E+00  0.00000000000E+00  0.15170449623E+03  0.15170449623E+03  0.00000000000E+00 0. -1.
         -3   -1    0    0    0  501 -0.00000000000E+00 -0.00000000000E+00 -0.13824189368E+03  0.13824189368E+03  0.00000000000E+00 0.  1.
         25    2    1    2    0    0 -0.92302692227E+01 -0.96040499694E+02  0.10953675975E+02  0.15835510555E+03  0.12508949190E+03 0.  0.
          5    1    3    3  502    0 -0.55136568543E+02 -0.45151629829E+01  0.26769410541E+01  0.55543373150E+02  0.41800000000E+01 0. -1.
         -5    1    3    3    0  502  0.45906299321E+02 -0.91525336711E+02  0.82767349210E+01  0.10281173240E+03  0.41800000000E+01 0. -1.
        -11    1    1    2    0    0  0.44085585749E+02  0.32329116870E+02 -0.15392922116E+02  0.56794830044E+02  0.00000000000E+00 0. -1.
         11    1    1    2    0    0 -0.34855316527E+02  0.63711382824E+02  0.17901848690E+02  0.74796454315E+02  0.00000000000E+00 0.  1.
</event>
<event>
 7    1  0.2420569E-009  0.1389539E+03  0.7561462E-02  0.1214744E+00
          2   -1    0    0  501    0  0.00000000000E+00  0.00000000000E+00  0.29568702597E+03  0.29568702597E+03  0.00000000000E+00 0. -1.
         -2   -1    0    0    0  501 -0.00000000000E+00 -0.00000000000E+00 -0.96843940832E+02  0.96843940832E+02  0.00000000000E+00 0.  1.
         25    2    1    2    0    0 -0.33487241391E+02 -0.11430649602E+03  0.17398944321E+03  0.24516660512E+03  0.12508783934E+03 0.  0.
          5    1    3    3  502    0 -0.47552665658E+02 -0.23458101816E+02  0.13522543428E+03  0.14530976922E+03  0.41800000000E+01 0. -1.
         -5    1    3    3    0  502  0.14065424267E+02 -0.90848394202E+02  0.38764008925E+02  0.99856835904E+02  0.41800000000E+01 0. -1.
        -11    1    1    2    0    0 -0.16951062316E+02  0.29224727825E+02 -0.19453222613E+02  0.38985267732E+02  0.00000000000E+00 0.  1.
         11    1    1    2    0    0  0.50438303707E+02  0.85081768192E+02  0.44306864539E+02  0.10837909395E+03  0.00000000000E+00 0. -1.
</event>
<event>
 7    1  0.2420569E-009  0.1402678E+03  0.7561462E-02  0.1212969E+00
          1   -1    0    0  501    0  0.00000000000E+00  0.00000000000E+00  0.38055720012E+03  0.38055720012E+03  0.00000000000E+00 0. -1.
         -1   -1    0    0    0  501 -0.00000000000E+00 -0.00000000000E+00 -0.84179038506E+02  0.84179038506E+02  0.00000000000E+00 0.  1.
         25    2    1    2    0    0 -0.85450370678E+01 -0.11323260447E+03  0.42865324851E+02  0.17430342696E+03  0.12509839408E+03 0.  0.
          5    1    3    3  502    0 -0.44222127650E+02 -0.57266669702E+02  0.71582836911E+02  0.10186580866E+03  0.41800000000E+01 0.  1.
         -5    1    3    3    0  502  0.35677090583E+02 -0.55965934769E+02 -0.28717512060E+02  0.72437618307E+02  0.41800000000E+01 0.  1.
        -11    1    1    2    0    0  0.41939040796E+02  0.29112298870E+02  0.97991378289E+02  0.11049307357E+03  0.00000000000E+00 0.  1.
         11    1    1    2    0    0 -0.33394003728E+02  0.84120305602E+02  0.15552145847E+03  0.17993973809E+03  0.00000000000E+00 0. -1.
</event>
<event>
 7    1  0.2420569E-009  0.1112086E+03  0.7561462E-02  0.1258348E+00
         -1   -1    0    0    0  501 -0.00000000000E+00  0.00000000000E+00  0.44886266727E+02  0.44886266727E+02  0.00000000000E+00 0.  1.
          1   -1    0    0  501    0  0.00000000000E+00 -0.00000000000E+00 -0.29811667518E+03  0.29811667518E+03  0.00000000000E+00 0. -1.
         25    2    1    2    0    0  0.95493488166E+01 -0.29407215660E+02 -0.10514883314E+03  0.16631838949E+03  0.12509818215E+03 0.  0.
          5    1    3    3  502    0 -0.38623417582E+02 -0.58257770064E+02 -0.74374018397E+02  0.10215039487E+03  0.41800000000E+01 0.  1.
         -5    1    3    3    0  502  0.48172766399E+02  0.28850554404E+02 -0.30774814743E+02  0.64167994626E+02  0.41800000000E+01 0.  1.
        -11    1    1    2    0    0  0.21456675237E+02 -0.25319213195E+02 -0.57835948908E+02  0.66681695053E+02  0.00000000000E+00 0.  1.
         11    1    1    2    0    0 -0.31006024053E+02  0.54726428855E+02 -0.90245626409E+02  0.11000285737E+03  0.00000000000E+00 0. -1.
</event>
<event>
 7    1  0.2420569E-009  0.7023480E+02  0.7561462E-02  0.1359296E+00
          1   -1    0    0  501    0  0.00000000000E+00  0.00000000000E+00  0.21745891629E+03  0.21745891629E+03  0.00000000000E+00 0. -1.
         -1   -1    0    0    0  501 -0.00000000000E+00 -0.00000000000E+00 -0.66290247754E+02  0.66290247754E+02  0.00000000000E+00 0.  1.
         25    2    1    2    0    0 -0.32649474521E+02 -0.42978957156E+02  0.10690221375E+03  0.17317614459E+03  0.12509482325E+03 0.  0.
          5    1    3    3  502    0  0.68404890405E+01  0.92182740502E+01  0.10689465894E+03  0.10759047066E+03  0.41800000000E+01 0. -1.
         -5    1    3    3    0  502 -0.39489963562E+02 -0.52197231206E+02  0.75548120296E-02  0.65585673929E+02  0.41800000000E+01 0. -1.
        -11    1    1    2    0    0 -0.54816534328E+01  0.13177413585E+02 -0.23383382464E+02  0.27394804773E+02  0.00000000000E+00 0.  1.
         11    1    1    2    0    0  0.38131127954E+02  0.29801543571E+02  0.67649837248E+02  0.83178214684E+02  0.00000000000E+00 0. -1.
</event>
<event>
 7    1  0.2420569E-009  0.2333419E+03  0.7561462E-02  0.1124309E+00
         -2   -1    0    0    0  501 -0.00000000000E+00  0.00000000000E+00  0.25877973685E+03  0.25877973685E+03  0.00000000000E+00 0.  1.
          2   -1    0    0  501    0  0.00000000000E+00 -0.00000000000E+00 -0.25763789852E+03  0.25763789852E+03  0.00000000000E+00 0. -1.
         25    2    1    2    0    0 -0.52324202584E+02  0.22712735949E+03 -0.21411216831E+00  0.26452271964E+03  0.12509022246E+03 0.  0.
          5    1    3    3  502    0 -0.50267508037E+01  0.29986492438E+02  0.47175813249E+02  0.56280438059E+02  0.41800000000E+01 0. -1.
         -5    1    3    3    0  502 -0.47297451780E+02  0.19714086705E+03 -0.47389925417E+02  0.20824228158E+03  0.41800000000E+01 0. -1.
        -11    1    1    2    0    0  0.42371663240E+02 -0.16833591335E+03 -0.41482018144E+02  0.17847435502E+03  0.00000000000E+00 0. -1.
         11    1    1    2    0    0  0.99525393440E+01 -0.58791446135E+02  0.42837968647E+02  0.73420560716E+02  0.00000000000E+00 0.  1.
</event>
<event>
 7    1  0.2420569E-009  0.7599384E+02  0.7561462E-02  0.1340821E+00
          2   -1    0    0  501    0  0.00000000000E+00  0.00000000000E+00  0.44046924016E+03  0.44046924016E+03  0.00000000000E+00 0. -1.
         -2   -1    0    0    0  501 -0.00000000000E+00 -0.00000000000E+00 -0.27869124579E+02  0.27869124579E+02  0.00000000000E+00 0.  1.
         25    2    1    2    0    0 -0.21384891633E+02  0.76264214010E+01  0.23939444355E+03  0.27105999108E+03  0.12509333822E+03 0.  0.
          5    1    3    3  502    0  0.18856501928E+02  0.72753074678E+01 -0.66710573938E+01  0.21690393507E+02  0.41800000000E+01 0. -1.
         -5    1    3    3    0  502 -0.40241393562E+02  0.35111393322E+00  0.24606550095E+03  0.24936959757E+03  0.41800000000E+01 0. -1.
        -11    1    1    2    0    0 -0.16263413033E+02  0.32206533968E+02  0.43818262659E+02  0.56760898303E+02  0.00000000000E+00 0.  1.
         11    1    1    2    0    0  0.37648304666E+02 -0.39832955369E+02  0.12938740937E+03  0.14051747536E+03  0.00000000000E+00 0. -1.
</event>
<event>
 7    1  0.2420569E-009  0.1274500E+03  0.7561462E-02  0.1231289E+00
          2   -1    0    0  501    0  0.00000000000E+00  0.00000000000E+00  0.33789189938E+03  0.33789189938E+03  0.00000000000E+00 0. -1.
         -2   -1    0    0    0  501 -0.00000000000E+00 -0.00000000000E+00 -0.54417775658E+02  0.54417775658E+02  0.00000000000E+00 0.  1.
         25    2    1    2    0    0  0.74961529607E+02  0.22359841383E+02  0.14885625028E+03  0.20958324699E+03  0.12509100985E+03 0.  0.
          5    1    3    3  502    0 -0.13023913275E+02  0.42147980380E+02  0.12486541949E+02  0.46037600903E+02  0.41800000000E+01 0.  1.
         -5    1    3    3    0  502  0.87985442883E+02 -0.19788138997E+02  0.13636970833E+03  0.16354564609E+03  0.41800000000E+01 0.  1.
        -11    1    1    2    0    0 -0.96577982954E+02 -0.17468205236E+02  0.91191295651E+02  0.13397125583E+03  0.00000000000E+00 0.  1.
         11    1    1    2    0    0  0.21616453346E+02 -0.48916361476E+01  0.43426577795E+02  0.48755172223E+02  0.00000000000E+00 0. -1.
</event>
<event>
 7    1  0.2420569E-009  0.1217137E+03  0.7561462E-02  0.1240296E+00
         -1   -1    0    0    0  501 -0.00000000000E+00  0.00000000000E+00  0.39300867943E+03  0.39300867943E+03  0.00000000000E+00 0.  1.
          1   -1    0    0  501    0  0.00000000000E+00 -0.00000000000E+00 -0.44344908362E+02  0.44344908362E+02  0.00000000000E+00 0. -1.
         25    2    1    2    0    0  0.40212058245E+02  0.67519394733E+02  0.17346951487E+03  0.22784860569E+03  0.12508971274E+03 0.  0.
          5    1    3    3  502    0 -0.25025605426E+02  0.75376872996E+02  0.74481171898E+02  0.10896270590E+03  0.41800000000E+01 0. -1.
         -5    1    3    3    0  502  0.65237663671E+02 -0.78574782628E+01  0.98988342968E+02  0.11888589979E+03  0.41800000000E+01 0. -1.
        -11    1    1    2    0    0 -0.68291194062E+01 -0.64136504084E+02  0.16030839354E+03  0.17279730631E+03  0.00000000000E+00 0.  1.
         11    1    1    2    0    0 -0.33382938839E+02 -0.33828906494E+01  0.14885862656E+02  0.36707675787E+02  0.00000000000E+00 0. -1.
</event>
<event>
 7    1  0.2420569E-009  0.1111330E+03  0.7561462E-02  0.1258486E+00
          2   -1    0    0  501    0  0.00000000000E+00  0.00000000000E+00  0.10070498080E+04  0.10070498080E+04  0.00000000000E+00 0. -1.
         -2   -1    0    0    0  501 -0.00000000000E+00 -0.00000000000E+00 -0.17424892514E+02  0.17424892514E+02  0.00000000000E+00 0.  1.
         25    2    1    2    0    0  0.73448743863E+02 -0.92485911205E+01  0.61293811270E+03  0.62993756275E+03  0.12509176052E+03 0.  0.
          5    1    3    3  502    0 -0.12368198018E+02 -0.47918220462E+02  0.25602166326E+03  0.26079434932E+03  0.41800000000E+01 0. -1.
         -5    1    3    3    0  502  0.85816941881E+02  0.38669629341E+02  0.35691644944E+03  0.36914321344E+03  0.41800000000E+01 0. -1.
        -11    1    1    2    0    0 -0.60130873838E+02  0.17609707367E+02  0.37320925404E+03  0.37843225429E+03  0.00000000000E+00 0. -1.
         11    1    1    2    0    0 -0.13317870024E+02 -0.83611162461E+01  0.34775487569E+01  0.16104883490E+02  0.00000000000E+00 0.  1.
</event>
<event>
 7    1  0.2420569E-009  0.1053938E+03  0.7561462E-02  0.1269346E+00
          3   -1    0    0  501    0  0.00000000000E+00  0.00000000000E+00  0.76096824547E+03  0.76096824547E+03  0.00000000000E+00 0. -1.
         -3   -1    0    0    0  501 -0.00000000000E+00 -0.00000000000E+00 -0.22254298168E+02  0.22254298168E+02  0.00000000000E+00 0.  1.
         25    2    1    2    0    0  0.63156420277E+02  0.18860318479E+02  0.48724638889E+03  0.50734699224E+03  0.12508989572E+03 0.  0.
          5    1    3    3  502    0  0.97218719352E+02 -0.65234962538E+00  0.28143139100E+03  0.29778012894E+03  0.41800000000E+01 0. -1.
         -5    1    3    3    0  502 -0.34062299075E+02  0.19512668105E+02  0.20581499789E+03  0.20956686329E+03  0.41800000000E+01 0. -1.
        -11    1    1    2    0    0 -0.58563224483E+02 -0.42874840421E+01  0.25372404727E+03  0.26043027079E+03  0.00000000000E+00 0. -1.
         11    1    1    2    0    0 -0.45931957941E+01 -0.14572834437E+02 -0.22564888588E+01  0.15445280610E+02  0.00000000000E+00 0.  1.
</event>
<event>
 7    1  0.2420569E-009  0.2056524E+03  0.7561462E-02  0.1145056E+00
          1   -1    0    0  501    0  0.00000000000E+00  0.00000000000E+00  0.28000491011E+03  0.28000491011E+03  0.00000000000E+00 0. -1.
         -1   -1    0    0    0  501 -0.00000000000E+00 -0.00000000000E+00 -0.29029317296E+03  0.29029317296E+03  0.00000000000E+00 0.  1.
         25    2    1    2    0    0 -0.17456451718E+03 -0.31981827151E+02 -0.19981478819E+03  0.29507343078E+03  0.12508705786E+03 0.  0.
          5    1    3    3  502    0  0.14575856484E+02  0.12305526075E+02 -0.35896661712E+02  0.40864707099E+02  0.41800000000E+01 0. -1.
         -5    1    3    3    0  502 -0.18914037366E+03 -0.44287353226E+02 -0.16391812648E+03  0.25420872368E+03  0.41800000000E+01 0. -1.
        -11    1    1    2    0    0  0.17795022833E+03  0.13253083770E+02  0.15769808140E+03  0.23813990188E+03  0.00000000000E+00 0.  1.
         11    1    1    2    0    0 -0.33857111498E+01  0.18728743381E+02  0.31828443945E+02  0.37084750404E+02  0.00000000000E+00 0. -1.
</event>
<event>
 7    1  0.2420569E-009  0.9821640E+02  0.7561462E-02  0.1284092E+00
          2   -1    0    0  501    0  0.00000000000E+00  0.00000000000E+00  0.44921589921E+02  0.44921589921E+02  0.00000000000E+00 0. -1.
         -2   -1    0    0    0  501 -0.00000000000E+00 -0.00000000000E+00 -0.50017228257E+03  0.50017228257E+03  0.00000000000E+00 0.  1.
         25    2    1    2    0    0 -0.10721310431E+02 -0.83672356910E+02 -0.13843129141E+03  0.20476054456E+03  0.12509056062E+03 0.  0.
          5    1    3    3  502    0 -0.28968492021E+02 -0.26597942004E+02  0.13177699183E+02  0.41686307159E+02  0.41800000000E+01 0.  1.
         -5    1    3    3    0  502  0.18247181589E+02 -0.57074414906E+02 -0.15160899060E+03  0.16307423740E+03  0.41800000000E+01 0.  1.
        -11    1    1    2    0    0  0.27710155484E+02  0.31520662630E+02 -0.39472773886E+02  0.57615143563E+02  0.00000000000E+00 0. -1.
         11    1    1    2    0    0 -0.16988845052E+02  0.52151694280E+02 -0.27734662735E+03  0.28271818437E+03  0.00000000000E+00 0.  1.
</event>
<event>
 7    1  0.2420569E-009  0.1155508E+03  0.7561462E-02  0.1250623E+00
          1   -1    0    0  501    0  0.00000000000E+00  0.00000000000E+00  0.11201796635E+04  0.11201796635E+04  0.00000000000E+00 0. -1.
         -1   -1    0    0    0  501 -0.00000000000E+00 -0.00000000000E+00 -0.16827793447E+02  0.16827793447E+02  0.00000000000E+00 0.  1.
         25    2    1    2    0    0 -0.58383612879E+02  0.81349584493E+01  0.85074516987E+03  0.86191036269E+03  0.12508919001E+03 0.  0.
          5    1    3    3  502    0 -0.74493899481E+02  0.45106255498E+02  0.71333525767E+03  0.71864356783E+03  0.41800000000E+01 0. -1.
         -5    1    3    3    0  502  0.16110286602E+02 -0.36971297048E+02  0.13740991219E+03  0.14326679486E+03  0.41800000000E+01 0. -1.
        -11    1    1    2    0    0 -0.21365250243E+02  0.64104903141E+01  0.98229215022E+02  0.10073006993E+03  0.00000000000E+00 0. -1.
         11    1    1    2    0    0  0.79748863122E+02 -0.14545448763E+02  0.15437748519E+03  0.17436702436E+03  0.00000000000E+00 0.  1.
</event>
<event>
 7    1  0.3745807E-009  0.9902312E+02  0.7561462E-02  0.1282364E+00
         -1   -1    0    0    0  501 -0.00000000000E+00  0.00000000000E+00  0.25116784583E+02  0.25116784583E+02  0.00000000000E+00 0.  1.
          1   -1    0    0  501    0  0.00000000000E+00 -0.00000000000E+00 -0.90632703088E+03  0.90632703088E+03  0.00000000000E+00 0. -1.
         25    2    1    2    0    0  0.92944441519E+02 -0.66630709966E+01 -0.61868304692E+03  0.63804246571E+03  0.12508560979E+03 0.  0.
          5    1    3    3  502    0  0.60534832658E+02 -0.10783787462E+02 -0.94468261763E+02  0.11279397554E+03  0.41800000000E+01 0. -1.
         -5    1    3    3    0  502  0.32409608862E+02  0.41207164651E+01 -0.52421478515E+03  0.52524849017E+03  0.41800000000E+01 0. -1.
        -11    1    1    2    0    0 -0.17996473211E+02  0.20485477159E+02 -0.90740729540E+01  0.28737895233E+02  0.00000000000E+00 0. -1.
         11    1    1    2    0    0 -0.74947968308E+02 -0.13822406162E+02 -0.25345312642E+03  0.26466345452E+03  0.00000000000E+00 0.  1.
</event>
<event>
 7    1  0.2420569E-009  0.2078158E+03  0.7561462E-02  0.1143307E+00
          1   -1    0    0  501    0  0.00000000000E+00  0.00000000000E+00  0.85088731443E+02  0.85088731443E+02  0.00000000000E+00 0. -1.
         -1   -1    0    0    0  501 -0.00000000000E+00 -0.00000000000E+00 -0.66271922905E+03  0.66271922905E+03  0.00000000000E+00 0.  1.
         25    2    1    2    0    0 -0.19261183191E+03 -0.50734832724E+02 -0.18892284845E+03  0.30168493098E+03  0.12509441981E+03 0.  0.
          5    1    3    3  502    0 -0.47040164573E+02  0.66867659262E+01 -0.12282184438E+03  0.13175798943E+03  0.41800000000E+01 0.  1.
         -5    1    3    3    0  502 -0.14557166734E+03 -0.57421598650E+02 -0.66101004071E+02  0.16992694155E+03  0.41800000000E+01 0.  1.
        -11    1    1    2    0    0  0.73123109484E+02  0.55512375130E+02 -0.22812101900E+03  0.24590203790E+03  0.00000000000E+00 0.  1.
         11    1    1    2    0    0  0.11948872243E+03 -0.47775424055E+01 -0.16058663015E+03  0.20022099161E+03  0.00000000000E+00 0. -1.
</event>
<event>
 7    1  0.2420569E-009  0.5748563E+02  0.7561462E-02  0.1408697E+00
          1   -1    0    0  501    0  0.00000000000E+00  0.00000000000E+00  0.21934165177E+03  0.21934165177E+03  0.00000000000E+00 0. -1.
         -1   -1    0    0    0  501 -0.00000000000E+00 -0.00000000000E+00 -0.55724215821E+02  0.55724215821E+02  0.00000000000E+00 0.  1.
         25    2    1    2    0    0 -0.91564312601E+01  0.18897905073E+02  0.10150999957E+03  0.16245671786E+03  0.12508770570E+03 0.  0.
          5    1    3    3  502    0 -0.12819540584E+02  0.26020852800E+02  0.12964004026E+03  0.13291139093E+03  0.41800000000E+01 0. -1.
         -5    1    3    3    0  502  0.36631093243E+01 -0.71229477270E+01 -0.28130040692E+02  0.29545326933E+02  0.41800000000E+01 0. -1.
        -11    1    1    2    0    0 -0.64896133071E+01  0.27192354052E+02 -0.62957350639E+01  0.28656159543E+02  0.00000000000E+00 0.  1.
         11    1    1    2    0    0  0.15646044567E+02 -0.46090259125E+02  0.68403171444E+02  0.83952990182E+02  0.00000000000E+00 0. -1.
</event>
<event>
 7    1  0.2420569E-009  0.8637323E+02  0.7561462E-02  0.1311880E+00
          2   -1    0    0  501    0  0.00000000000E+00  0.00000000000E+00  0.24253011373E+03  0.24253011373E+03  0.00000000000E+00 0. -1.
         -2   -1    0    0    0  501 -0.00000000000E+00 -0.00000000000E+00 -0.61100750391E+02  0.61100750391E+02  0.00000000000E+00 0.  1.
         25    2    1    2    0    0  0.42067154367E+01 -0.51262960200E+02  0.12446639434E+03  0.18380587628E+03  0.12508848585E+03 0.  0.
          5    1    3    3  502    0  0.14577346162E+02  0.45206504245E+00 -0.22764301070E+02  0.27356702783E+02  0.41800000000E+01 0. -1.
         -5    1    3    3    0  502 -0.10370630725E+02 -0.51715025242E+02  0.14723069541E+03  0.15644917350E+03  0.41800000000E+01 0. -1.
        -11    1    1    2    0    0  0.34844901770E+02 -0.59957660477E+01  0.26148340544E+02  0.43975585307E+02  0.00000000000E+00 0. -1.
         11    1    1    2    0    0 -0.39051617207E+02  0.57258726247E+02  0.30814628459E+02  0.75849402536E+02  0.00000000000E+00 0.  1.
</event>
<event>
 7    1  0.2420569E-009  0.7496079E+02  0.7561462E-02  0.1343992E+00
         -2   -1    0    0    0  501 -0.00000000000E+00  0.00000000000E+00  0.19486184330E+02  0.19486184330E+02  0.00000000000E+00 0.  1.
          2   -1    0    0  501    0  0.00000000000E+00 -0.00000000000E+00 -0.87211370460E+03  0.87211370460E+03  0.00000000000E+00 0. -1.
         25    2    1    2    0    0  0.36799692386E+01  0.45654892628E+02 -0.66254790286E+03  0.67580764020E+03  0.12509329146E+03 0.  0.
          5    1    3    3  502    0  0.65652015425E+01  0.37954743391E+02 -0.50308143464E+02  0.63498394594E+02  0.41800000000E+01 0. -1.
         -5    1    3    3    0  502 -0.28852323040E+01  0.77001492373E+01 -0.61223975940E+03  0.61230924560E+03  0.41800000000E+01 0. -1.
        -11    1    1    2    0    0 -0.22480477970E+02  0.22168151320E+02 -0.65314982525E+02  0.72545473773E+02  0.00000000000E+00 0.  1.
         11    1    1    2    0    0  0.18800508731E+02 -0.67823043948E+02 -0.12476463488E+03  0.14324677496E+03  0.00000000000E+00 0. -1.
</event>
<event>
 7    1  0.2420569E-009  0.1156141E+03  0.7561462E-02  0.1250513E+00
         -2   -1    0    0    0  501 -0.00000000000E+00  0.00000000000E+00  0.19234424442E+02  0.19234424442E+02  0.00000000000E+00 0.  1.
          2   -1    0    0  501    0  0.00000000000E+00 -0.00000000000E+00 -0.73760657390E+03  0.73760657390E+03  0.00000000000E+00 0. -1.
         25    2    1    2    0    0 -0.34323789492E+02  0.37783142895E+02 -0.38448361652E+03  0.40753086263E+03  0.12509222284E+03 0.  0.
          5    1    3    3  502    0  0.40878899991E+02 -0.12069253142E+02 -0.15798236113E+03  0.16368460577E+03  0.41800000000E+01 0.  1.
         -5    1    3    3    0  502 -0.75202689483E+02  0.49852396037E+02 -0.22650125539E+03  0.24384625687E+03  0.41800000000E+01 0.  1.
        -11    1    1    2    0    0  0.60905021040E+02 -0.14190174651E+02 -0.15918885483E+03  0.17103179280E+03  0.00000000000E+00 0.  1.
         11    1    1    2    0    0 -0.26581231548E+02 -0.23592968244E+02 -0.17469967811E+03  0.17827834291E+03  0.00000000000E+00 0. -1.
</event>
<event>
 7    1  0.2420569E-009  0.1796172E+03  0.7561462E-02  0.1168174E+00
         -1   -1    0    0    0  501 -0.00000000000E+00  0.00000000000E+00  0.60073751101E+02  0.60073751101E+02  0.00000000000E+00 0.  1.
          1   -1    0    0  501    0  0.00000000000E+00 -0.00000000000E+00 -0.56293030605E+03  0.56293030605E+03  0.00000000000E+00 0. -1.
         25    2    1    2    0    0 -0.11110911262E+03  0.95287123709E+02 -0.23241334030E+03  0.30180895736E+03  0.12509122729E+03 0.  0.
          5    1    3    3  502    0  0.11553707099E+02  0.64613506153E+02 -0.87073312952E+02  0.10912207638E+03  0.41800000000E+01 0.  1.
         -5    1    3    3    0  502 -0.12266281972E+03  0.30673617556E+02 -0.14534002735E+03  0.19268688098E+03  0.41800000000E+01 0.  1.
        -11    1    1    2    0    0  0.85528686542E+02 -0.20553172726E+02 -0.18491456716E+03  0.20477056986E+03  0.00000000000E+00 0. -1.
         11    1    1    2    0    0  0.25580426074E+02 -0.74733950983E+02 -0.85528647483E+02  0.11642452992E+03  0.00000000000E+00 0.  1.
</event>
<event>
 7    1  0.2420569E-009  0.1827559E+03  0.7561462E-02  0.1165162E+00
          2   -1    0    0  501    0  0.00000000000E+00  0.00000000000E+00  0.38915819630E+03  0.38915819630E+03  0.00000000000E+00 0. -1.
         -2   -1    0    0    0  501 -0.00000000000E+00 -0.00000000000E+00 -0.16368360521E+03  0.16368360521E+03  0.00000000000E+00 0.  1.
         25    2    1    2    0    0  0.15381058017E+03 -0.74679975241E+02 -0.50882728160E+02  0.21787880864E+03  0.12508928793E+03 0.  0.
          5    1    3    3  502    0  0.17468968805E+01 -0.37245873248E+02 -0.48348055349E+02  0.61198967138E+02  0.41800000000E+01 0. -1.
         -5    1    3    3    0  502  0.15206368329E+03 -0.37434101993E+02 -0.25346728101E+01  0.15667984150E+03  0.41800000000E+01 0. -1.
        -11    1    1    2    0    0 -0.69330894571E+02  0.39734789452E+02  0.59518661477E+02  0.99639838914E+02  0.00000000000E+00 0.  1.
         11    1    1    2    0    0 -0.84479685595E+02  0.34945185789E+02  0.21683865777E+03  0.23532315396E+03  0.00000000000E+00 0. -1.
</event>
<event>
 7    1  0.2420569E-009  0.1134780E+03  0.7561462E-02  0.1254261E+00
          2   -1    0    0  501    0  0.00000000000E+00  0.00000000000E+00  0.18279922355E+03  0.18279922355E+03  0.00000000000E+00 0.  1.
         -2   -1    0    0    0  501 -0.00000000000E+00 -0.00000000000E+00 -0.97395843840E+02  0.97395843840E+02  0.00000000000E+00 0. -1.
         25    2    1    2    0    0  0.36211247042E+02 -0.59115715220E+02  0.84112153403E+02  0.16591504763E+03  0.12508807489E+03 0.  0.
          5    1    3    3  502    0  0.62272891932E+02 -0.99702386890E+01  0.89830647174E+02  0.10983777265E+03  0.41800000000E+01 0.  1.
         -5    1    3    3    0  502 -0.26061644890E+02 -0.49145476531E+02 -0.57184937714E+01  0.56077274977E+02  0.41800000000E+01 0.  1.
        -11    1    1    2    0    0 -0.62594797561E+02  0.32657352953E+02  0.18732904894E+02  0.73044733619E+02  0.00000000000E+00 0. -1.
         11    1    1    2    0    0  0.26383550519E+02  0.26458362267E+02 -0.17441678585E+02  0.41235286148E+02  0.00000000000E+00 0.  1.
</event>
<event>
 7    1  0.2420569E-009  0.1302563E+03  0.7561462E-02  0.1227076E+00
          2   -1    0    0  501    0  0.00000000000E+00  0.00000000000E+00  0.95753353409E+03  0.95753353409E+03  0.00000000000E+00 0. -1.
         -2   -1    0    0    0  501 -0.00000000000E+00 -0.00000000000E+00 -0.30106696240E+02  0.30106696240E+02  0.00000000000E+00 0.  1.
         25    2    1    2    0    0  0.86685209535E+02  0.60735753409E+02  0.71564280477E+03  0.73416124099E+03  0.12507976035E+03 0.  0.
          5    1    3    3  502    0 -0.17820100571E+02  0.25480666382E+02  0.47252110135E+02  0.56719085463E+02  0.41800000000E+01 0.  1.
         -5    1    3    3    0  502  0.10450531011E+03  0.35255087027E+02  0.66839069464E+03  0.67744215553E+03  0.41800000000E+01 0.  1.
        -11    1    1    2    0    0 -0.76407939198E+02 -0.23202373304E+02  0.69153150888E+02  0.10563466087E+03  0.00000000000E+00 0.  1.
         11    1    1    2    0    0 -0.10277270337E+02 -0.37533380105E+02  0.14263088218E+03  0.14784432847E+03  0.00000000000E+00 0. -1.
</event>
<event>
 7    1  0.2420569E-009  0.7743815E+02  0.7561462E-02  0.1336483E+00
         -1   -1    0    0    0  501 -0.00000000000E+00  0.00000000000E+00  0.52584635895E+02  0.52584635895E+02  0.00000000000E+00 0.  1.
          1   -1    0    0  501    0  0.00000000000E+00 -0.00000000000E+00 -0.29036716882E+03  0.29036716882E+03  0.00000000000E+00 0. -1.
         25    2    1    2    0    0 -0.79615413441E+01 -0.73507666362E+02 -0.14085058455E+03  0.20236909903E+03  0.12509037500E+03 0.  0.
          5    1    3    3  502    0 -0.14363631100E+01 -0.59720668003E+02 -0.16385358685E+03  0.17445369486E+03  0.41800000000E+01 0. -1.
         -5    1    3    3    0  502 -0.65251782341E+01 -0.13786998359E+02  0.23003002304E+02  0.27915404166E+02  0.41800000000E+01 0. -1.
        -11    1    1    2    0    0 -0.71863140452E+01  0.54011673537E+02 -0.10175658203E+03  0.11542662593E+03  0.00000000000E+00 0. -1.
         11    1    1    2    0    0  0.15147855389E+02  0.19495992825E+02  0.48246336488E+01  0.25156079761E+02  0.00000000000E+00 0.  1.
</event>
<event>
 7    1  0.2420569E-009  0.1481334E+03  0.7561462E-02  0.1202786E+00
         -2   -1    0    0    0  501 -0.00000000000E+00  0.00000000000E+00  0.51238096832E+02  0.51238096832E+02  0.00000000000E+00 0.  1.
          2   -1    0    0  501    0  0.00000000000E+00 -0.00000000000E+00 -0.47617710956E+03  0.47617710956E+03  0.00000000000E+00 0. -1.
         25    2    1    2    0    0 -0.11631326460E+02 -0.10416524016E+03 -0.15891779324E+03  0.22778836022E+03  0.12508791719E+03 0.  0.
          5    1    3    3  502    0 -0.64899974453E+01  0.27884560355E+02 -0.15882261758E+02  0.33005869351E+02  0.41800000000E+01 0.  1.
         -5    1    3    3    0  502 -0.51413290151E+01 -0.13204980052E+03 -0.14303553148E+03  0.19478249086E+03  0.41800000000E+01 0.  1.
        -11    1    1    2    0    0  0.11759290529E+02  0.11935213441E+03 -0.25141907877E+03  0.27855837103E+03  0.00000000000E+00 0.  1.
         11    1    1    2    0    0 -0.12796406891E+00 -0.15186894246E+02 -0.14602140725E+02  0.21068475155E+02  0.00000000000E+00 0. -1.
</event>
<event>
 7    1  0.2420569E-009  0.2248155E+03  0.7561462E-02  0.1130343E+00
         -2   -1    0    0    0  501 -0.00000000000E+00  0.00000000000E+00  0.35269769089E+02  0.35269769089E+02  0.00000000000E+00 0. -1.
          2   -1    0    0  501    0  0.00000000000E+00 -0.00000000000E+00 -0.19100194773E+04  0.19100194773E+04  0.00000000000E+00 0.  1.
         25    2    1    2    0    0 -0.15211937242E+03 -0.16283553130E+03 -0.12310292183E+04  0.12572732861E+04  0.12508983130E+03 0.  0.
          5    1    3    3  502    0 -0.50741569110E+02 -0.40978278545E+02 -0.13675207646E+03  0.15156691250E+03  0.41800000000E+01 0. -1.
         -5    1    3    3    0  502 -0.10137780331E+03 -0.12185725275E+03 -0.10942771419E+04  0.11057063736E+04  0.41800000000E+01 0. -1.
        -11    1    1    2    0    0  0.12805212837E+03  0.11479656057E+03 -0.35649903159E+03  0.39581202284E+03  0.00000000000E+00 0. -1.
         11    1    1    2    0    0  0.24067244049E+02  0.48038970732E+02 -0.28722145829E+03  0.29220393742E+03  0.00000000000E+00 0.  1.
</event>
<event>
 7    1  0.2420569E-009  0.1632574E+03  0.7561462E-02  0.1185068E+00
          1   -1    0    0  501    0  0.00000000000E+00  0.00000000000E+00  0.12066407535E+03  0.12066407535E+03  0.00000000000E+00 0. -1.
         -1   -1    0    0    0  501 -0.00000000000E+00 -0.00000000000E+00 -0.33071126875E+03  0.33071126875E+03  0.00000000000E+00 0.  1.
         25    2    1    2    0    0  0.12069624727E+03  0.97760404884E+02 -0.17929749873E+03  0.26817868376E+03  0.12509009753E+03 0.  0.
          5    1    3    3  502    0  0.87977807983E+02  0.58106842322E+02 -0.29225226021E+02  0.10949011854E+03  0.41800000000E+01 0. -1.
         -5    1    3    3    0  502  0.32718439290E+02  0.39653562562E+02 -0.15007227271E+03  0.15868856522E+03  0.41800000000E+01 0. -1.
        -11    1    1    2    0    0 -0.99180027579E+02 -0.10709382166E+03 -0.18486765184E+01  0.14597664920E+03  0.00000000000E+00 0. -1.
         11    1    1    2    0    0 -0.21516219693E+02  0.93334167748E+01 -0.28901018152E+02  0.37220011134E+02  0.00000000000E+00 0.  1.
</event>
<event>
 7    1  0.2420569E-009  0.6981225E+02  0.7561462E-02  0.1360733E+00
          1   -1    0    0  501    0  0.00000000000E+00  0.00000000000E+00  0.69223099895E+02  0.69223099895E+02  0.00000000000E+00 0. -1.
         -1   -1    0    0    0  501 -0.00000000000E+00 -0.00000000000E+00 -0.18216814379E+03  0.18216814379E+03  0.00000000000E+00 0.  1.
         25    2    1    2    0    0  0.25776596807E+02  0.71811381600E+01 -0.60419546282E+02  0.14145689485E+03  0.12507409740E+03 0.  0.
          5    1    3    3  502    0  0.14412450810E+02  0.41006690685E+02  0.23916612223E+02  0.49786987854E+02  0.41800000000E+01 0. -1.
         -5    1    3    3    0  502  0.11364145997E+02 -0.33825552525E+02 -0.84336158506E+02  0.91669907000E+02  0.41800000000E+01 0. -1.
        -11    1    1    2    0    0  0.10992788629E+02 -0.18533864616E+02  0.18990288177E+02  0.28722405618E+02  0.00000000000E+00 0. -1.
         11    1    1    2    0    0 -0.36769385436E+02  0.11352726456E+02 -0.71515785789E+02  0.81211943212E+02  0.00000000000E+00 0.  1.
</event>
<event>
 7    1  0.2420569E-009  0.1693854E+03  0.7561462E-02  0.1178490E+00
         -1   -1    0    0    0  501 -0.00000000000E+00  0.00000000000E+00  0.25216860825E+03  0.25216860825E+03  0.00000000000E+00 0.  1.
          1   -1    0    0  501    0  0.00000000000E+00 -0.00000000000E+00 -0.12525865418E+03  0.12525865418E+03  0.00000000000E+00 0. -1.
         25    2    1    2    0    0  0.10841682093E+03  0.69555512650E+02  0.52465802880E+02  0.18706324988E+03  0.12509125702E+03 0.  0.
          5    1    3    3  502    0  0.68627007032E+02 -0.27703903446E+02  0.26680604535E+02  0.78781339280E+02  0.41800000000E+01 0.  1.
         -5    1    3    3    0  502  0.39789813896E+02  0.97259416097E+02  0.25785198344E+02  0.10828191060E+03  0.41800000000E+01 0.  1.
        -11    1    1    2    0    0 -0.12548990741E+03 -0.66871195470E+02  0.89014487873E+02  0.16775891242E+03  0.00000000000E+00 0. -1.
         11    1    1    2    0    0  0.17073086482E+02 -0.26843171802E+01 -0.14570336681E+02  0.22605100127E+02  0.00000000000E+00 0.  1.
</event>
<event>
 7    1  0.2420569E-009  0.1151127E+03  0.7561462E-02  0.1251384E+00
          2   -1    0    0  501    0  0.00000000000E+00  0.00000000000E+00  0.37035166750E+03  0.37035166750E+03  0.00000000000E+00 0.  1.
         -2   -1    0    0    0  501 -0.00000000000E+00 -0.00000000000E+00 -0.40778537518E+02  0.40778537518E+02  0.00000000000E+00 0. -1.
         25    2    1    2    0    0 -0.38576747088E+02 -0.37485920302E+02  0.21437888601E+03  0.25396364917E+03  0.12508344693E+03 0.  0.
          5    1    3    3  502    0 -0.71058242188E+02 -0.52457922524E+02  0.97316236926E+02  0.13148775528E+03  0.41800000000E+01 0. -1.
         -5    1    3    3    0  502  0.32481495099E+02  0.14972002222E+02  0.11706264908E+03  0.12247589389E+03  0.41800000000E+01 0. -1.
        -11    1    1    2    0    0  0.16206840209E+02 -0.30327046452E+02  0.48532031268E+02  0.59478983474E+02  0.00000000000E+00 0.  1.
         11    1    1    2    0    0  0.22369906879E+02  0.67812966754E+02  0.66662212705E+02  0.97687572375E+02  0.00000000000E+00 0. -1.
</event>
<event>
 7    1  0.2420569E-009  0.1118139E+03  0.7561462E-02  0.1257247E+00
         -2   -1    0    0    0  501 -0.00000000000E+00  0.00000000000E+00  0.68332103531E+02  0.68332103531E+02  0.00000000000E+00 0. -1.
          2   -1    0    0  501    0  0.00000000000E+00 -0.00000000000E+00 -0.21228722843E+03  0.21228722843E+03  0.00000000000E+00 0.  1.
         25    2    1    2    0    0  0.66391662150E+01  0.31245348172E+02 -0.12831991704E+03  0.18203666944E+03  0.12510394720E+03 0.  0.
          5    1    3    3  502    0 -0.57905413386E+02  0.20469306742E+01 -0.60537792633E+02  0.83901868641E+02  0.41800000000E+01 0.  1.
         -5    1    3    3    0  502  0.64544579601E+02  0.29198417497E+02 -0.67782124402E+02  0.98134800803E+02  0.41800000000E+01 0.  1.
        -11    1    1    2    0    0  0.68837299575E+01  0.30548513224E+02  0.56925749758E+01  0.31827705041E+02  0.00000000000E+00 0.  1.
         11    1    1    2    0    0 -0.13522896173E+02 -0.61793861395E+02 -0.21327782841E+02  0.66754957478E+02  0.00000000000E+00 0. -1.
</event>
<event>
 7    1  0.2420569E-009  0.2625007E+03  0.7561462E-02  0.1105650E+00
         -1   -1    0    0    0  501 -0.00000000000E+00  0.00000000000E+00  0.31543612475E+03  0.31543612475E+03  0.00000000000E+00 0.  1.
          1   -1    0    0  501    0  0.00000000000E+00 -0.00000000000E+00 -0.24652909212E+03  0.24652909212E+03  0.00000000000E+00 0. -1.
         25    2    1    2    0    0  0.18524499427E+03  0.17319969317E+03  0.14189129241E+02  0.28312951845E+03  0.12508857347E+03 0.  0.
          5    1    3    3  502    0  0.14285710464E+03  0.13681301325E+03 -0.43654337736E+02  0.20260584035E+03  0.41800000000E+01 0.  1.
         -5    1    3    3    0  502  0.42387889635E+02  0.36386679920E+02  0.57843466978E+02  0.80523678103E+02  0.41800000000E+01 0.  1.
        -11    1    1    2    0    0 -0.90017538465E+02 -0.22363868432E+02  0.18011167650E+01  0.92771460397E+02  0.00000000000E+00 0.  1.
         11    1    1    2    0    0 -0.95227455807E+02 -0.15083582474E+03  0.52916786621E+02  0.18606423802E+03  0.00000000000E+00 0. -1.
</event>
<event>
 7    1  0.2420569E-009  0.1544403E+03  0.7561462E-02  0.1195121E+00
          2   -1    0    0  501    0  0.00000000000E+00  0.00000000000E+00  0.91971832156E+02  0.91971832156E+02  0.00000000000E+00 0. -1.
         -2   -1    0    0    0  501 -0.00000000000E+00 -0.00000000000E+00 -0.27671821518E+03  0.27671821518E+03  0.00000000000E+00 0.  1.
         25    2    1    2    0    0 -0.18172128012E+02 -0.11030496106E+03 -0.13512703260E+03  0.21541624325E+03  0.12508969681E+03 0.  0.
          5    1    3    3  502    0  0.51674835892E+02 -0.60917611486E+02 -0.48229916355E+02  0.93406858877E+02  0.41800000000E+01 0. -1.
         -5    1    3    3    0  502 -0.69846963904E+02 -0.49387349570E+02 -0.86897116241E+02  0.12200938437E+03  0.41800000000E+01 0. -1.
        -11    1    1    2    0    0 -0.35260220343E+02  0.61423105329E+02 -0.36500163786E+02  0.79676489402E+02  0.00000000000E+00 0. -1.
         11    1    1    2    0    0  0.53432348355E+02  0.48881855727E+02 -0.13119186637E+02  0.73597314680E+02  0.00000000000E+00 0.  1.
</event>
<event>
 7    1  0.2420569E-009  0.1220141E+03  0.7561462E-02  0.1239811E+00
          1   -1    0    0  501    0  0.00000000000E+00  0.00000000000E+00  0.41618763182E+02  0.41618763182E+02  0.00000000000E+00 0. -1.
         -1   -1    0    0    0  501 -0.00000000000E+00 -0.00000000000E+00 -0.10932765186E+04  0.10932765186E+04  0.00000000000E+00 0.  1.
         25    2    1    2    0    0 -0.11151047987E+03  0.29417523788E+02 -0.92684662407E+03  0.94233319635E+03  0.12508881072E+03 0.  0.
          5    1    3    3  502    0 -0.71086547997E+02 -0.93834639216E+01 -0.80451508686E+03  0.80771489034E+03  0.41800000000E+01 0. -1.
         -5    1    3    3    0  502 -0.40423931877E+02  0.38800987710E+02 -0.12233153721E+03  0.13461830601E+03  0.41800000000E+01 0. -1.
        -11    1    1    2    0    0  0.38565371804E+02 -0.40156370913E+01 -0.10627544855E+03  0.11312773404E+03  0.00000000000E+00 0.  1.
         11    1    1    2    0    0  0.72945108070E+02 -0.25401886697E+02 -0.18535682753E+02  0.79434351349E+02  0.00000000000E+00 0. -1.
</event>
<event>
 7    1  0.2420569E-009  0.1146815E+03  0.7561462E-02  0.1252138E+00
          2   -1    0    0  501    0  0.00000000000E+00  0.00000000000E+00  0.95414466376E+03  0.95414466376E+03  0.00000000000E+00 0. -1.
         -2   -1    0    0    0  501 -0.00000000000E+00 -0.00000000000E+00 -0.23446445869E+02  0.23446445869E+02  0.00000000000E+00 0.  1.
         25    2    1    2    0    0  0.90456227753E+02  0.47016348657E+02  0.70138746288E+03  0.71971199890E+03  0.12509245419E+03 0.  0.
          5    1    3    3  502    0  0.54057302256E+02  0.19806603718E+01  0.86615826658E+02  0.10220513084E+03  0.41800000000E+01 0. -1.
         -5    1    3    3    0  502  0.36398925497E+02  0.45035688285E+02  0.61477163623E+03  0.61750686806E+03  0.41800000000E+01 0. -1.
        -11    1    1    2    0    0 -0.39073606739E+02  0.99651802025E+01  0.64234559113E+02  0.75842798897E+02  0.00000000000E+00 0.  1.
         11    1    1    2    0    0 -0.51382621014E+02 -0.56981528859E+02  0.16507619590E+03  0.18203631183E+03  0.00000000000E+00 0. -1.
</event>
<event>
 7    1  0.2420569E-009  0.2113021E+03  0.7561462E-02  0.1140539E+00
          1   -1    0    0  501    0  0.00000000000E+00  0.00000000000E+00  0.72868953719E+03  0.72868953719E+03  0.00000000000E+00 0. -1.
         -1   -1    0    0    0  501 -0.00000000000E+00 -0.00000000000E+00 -0.68835647600E+02  0.68835647600E+02  0.00000000000E+00 0.  1.
         25    2    1    2    0    0  0.54345373152E+02  0.18199899973E+03  0.42066369835E+03  0.47820364107E+03  0.12507485652E+03 0.  0.
          5    1    3    3  502    0 -0.25905246568E+02  0.11499098957E+03  0.17338375784E+03  0.20969837712E+03  0.41800000000E+01 0. -1.
         -5    1    3    3    0  502  0.80250619720E+02  0.67008010161E+02  0.24727994051E+03  0.26850526395E+03  0.41800000000E+01 0. -1.
        -11    1    1    2    0    0 -0.17740436105E+02 -0.38476694302E+01  0.65003478754E+02  0.67490591073E+02  0.00000000000E+00 0.  1.
         11    1    1    2    0    0 -0.36604937047E+02 -0.17815133030E+03  0.17418671248E+03  0.25183095264E+03  0.00000000000E+00 0. -1.
</event>
<event>
 7    1  0.2420569E-009  0.1212172E+03  0.7561462E-02  0.1241102E+00
         -1   -1    0    0    0  501 -0.00000000000E+00  0.00000000000E+00  0.75504590221E+02  0.75504590221E+02  0.00000000000E+00 0.  1.
          1   -1    0    0  501    0  0.00000000000E+00 -0.00000000000E+00 -0.24196729757E+03  0.24196729757E+03  0.00000000000E+00 0. -1.
         25    2    1    2    0    0 -0.80154003723E+02  0.68681852000E+01 -0.82648720527E+02  0.17015074948E+03  0.12509448534E+03 0.  0.
          5    1    3    3  502    0 -0.10477398367E+02 -0.39749495457E+02  0.12597275865E+02  0.43196782576E+02  0.41800000000E+01 0.  1.
         -5    1    3    3    0  502 -0.69676605356E+02  0.46617680657E+02 -0.95245996392E+02  0.12695396690E+03  0.41800000000E+01 0.  1.
        -11    1    1    2    0    0  0.38912916690E+02 -0.46051420744E+02 -0.24332275725E+02  0.65015444933E+02  0.00000000000E+00 0.  1.
         11    1    1    2    0    0  0.41241087033E+02  0.39183235544E+02 -0.59481711094E+02  0.82305693375E+02  0.00000000000E+00 0. -1.
</event>
<event>
 7    1  0.2770802E-009  0.1366540E+03  0.7561462E-02  0.1217903E+00
          1   -1    0    0  501    0  0.00000000000E+00  0.00000000000E+00  0.76278981783E+03  0.76278981783E+03  0.00000000000E+00 0. -1.
         -1   -1    0    0    0  501 -0.00000000000E+00 -0.00000000000E+00 -0.31405394703E+02  0.31405394703E+02  0.00000000000E+00 0.  1.
         25    2    1    2    0    0  0.31172483606E+02 -0.10418161802E+03  0.43265547843E+03  0.46331731726E+03  0.12508653079E+03 0.  0.
          5    1    3    3  502    0  0.50789804240E+02 -0.19785980766E+02  0.62058196555E+02  0.82702970982E+02  0.41800000000E+01 0. -1.
         -5    1    3    3    0  502 -0.19617320634E+02 -0.84395637256E+02  0.37059728187E+03  0.38061434627E+03  0.41800000000E+01 0. -1.
        -11    1    1    2    0    0  0.70032975413E+01  0.91351880998E+02  0.14149226073E+03  0.16856533506E+03  0.00000000000E+00 0.  1.
         11    1    1    2    0    0 -0.38175781147E+02  0.12829737023E+02  0.15723668396E+03  0.16231256021E+03  0.00000000000E+00 0. -1.
</event>
<event>
 7    1  0.2420569E-009  0.6851272E+02  0.7561462E-02  0.1365225E+00
         -2   -1    0    0    0  501 -0.00000000000E+00  0.00000000000E+00  0.23007552222E+02  0.23007552222E+02  0.00000000000E+00 0.  1.
          2   -1    0    0  501    0  0.00000000000E+00 -0.00000000000E+00 -0.49285082947E+03  0.49285082947E+03  0.00000000000E+00 0. -1.
         25    2    1    2    0    0  0.20351776421E+02 -0.21319628618E+01 -0.27390148669E+03  0.30180795119E+03  0.12508906796E+03 0.  0.
          5    1    3    3  502    0 -0.19932481838E+02  0.13762665565E+02 -0.10932594677E+00  0.24580462726E+02  0.41800000000E+01 0.  1.
         -5    1    3    3    0  502  0.40284258258E+02 -0.15894628427E+02 -0.27379216075E+03  0.27722748847E+03  0.41800000000E+01 0.  1.
        -11    1    1    2    0    0 -0.27076600223E+02 -0.27475858249E+02 -0.41528781014E+02  0.56680726166E+02  0.00000000000E+00 0.  1.
         11    1    1    2    0    0  0.67248238023E+01  0.29607821111E+02 -0.15441300954E+03  0.15736970433E+03  0.00000000000E+00 0. -1.
</event>
<event>
 7    1  0.2420569E-009  0.1267474E+03  0.7561462E-02  0.1232363E+00
          1   -1    0    0  501    0  0.00000000000E+00  0.00000000000E+00  0.16813800574E+03  0.16813800574E+03  0.00000000000E+00 0. -1.
         -1   -1    0    0    0  501 -0.00000000000E+00 -0.00000000000E+00 -0.16938605179E+03  0.16938605179E+03  0.00000000000E+00 0.  1.
         25    2    1    2    0    0  0.99157165758E+02 -0.40248907692E+02 -0.71712758208E+02  0.17955538335E+03  0.12508116529E+03 0.  0.
          5    1    3    3  502    0  0.32782311433E+02  0.34108995617E+01 -0.91694423893E+02  0.97527708636E+02  0.41800000000E+01 0.  1.
         -5    1    3    3    0  502  0.66374854326E+02 -0.43659807253E+02  0.19981665685E+02  0.82027674719E+02  0.41800000000E+01 0.  1.
        -11    1    1    2    0    0 -0.35370922037E+02  0.63612050442E+02  0.44094996559E+02  0.85099728606E+02  0.00000000000E+00 0.  1.
         11    1    1    2    0    0 -0.63786243721E+02 -0.23363142751E+02  0.26369715601E+02  0.72868945568E+02  0.00000000000E+00 0. -1.
</event>
<event>
 7    1  0.2420569E-009  0.1295176E+03  0.7561462E-02  0.1228173E+00
         -2   -1    0    0    0  501 -0.00000000000E+00  0.00000000000E+00  0.25578471224E+02  0.25578471224E+02  0.00000000000E+00 0.  1.
          2   -1    0    0  501    0  0.00000000000E+00 -0.00000000000E+00 -0.80574157650E+03  0.80574157650E+03  0.00000000000E+00 0. -1.
         25    2    1    2    0    0  0.89994063703E+01 -0.93257931532E+02 -0.47624884887E+03  0.50123608383E+03  0.12508642842E+03 0.  0.
          5    1    3    3  502    0 -0.48380093841E+02 -0.85320121343E+02 -0.30439061690E+03  0.31983007464E+03  0.41800000000E+01 0.  1.
         -5    1    3    3    0  502  0.57379500211E+02 -0.79378101894E+01 -0.17185823196E+03  0.18140600918E+03  0.41800000000E+01 0.  1.
        -11    1    1    2    0    0 -0.23894070847E+02  0.33165736220E+02 -0.34024096323E+02  0.53183943171E+02  0.00000000000E+00 0.  1.
         11    1    1    2    0    0  0.14894664476E+02  0.60092195312E+02 -0.26989016009E+03  0.27690002073E+03  0.00000000000E+00 0. -1.
</event>
<event>
 7    1  0.2420569E-009  0.1632635E+03  0.7561462E-02  0.1185061E+00
         -1   -1    0    0    0  501 -0.00000000000E+00  0.00000000000E+00  0.21245661550E+03  0.21245661550E+03  0.00000000000E+00 0.  1.
          1   -1    0    0  501    0  0.00000000000E+00 -0.00000000000E+00 -0.14274227757E+03  0.14274227757E+03  0.00000000000E+00 0. -1.
         25    2    1    2    0    0 -0.72813260823E+01  0.12658611137E+03 -0.13804630569E+02  0.17864627133E+03  0.12508741398E+03 0.  0.
          5    1    3    3  502    0  0.52676370392E+02  0.35570200470E+02  0.15801759337E+02  0.65629316295E+02  0.41800000000E+01 0. -1.
         -5    1    3    3    0  502 -0.59957696474E+02  0.91015910895E+02 -0.29606389906E+02  0.11301695504E+03  0.41800000000E+01 0. -1.
        -11    1    1    2    0    0  0.46956826601E+02 -0.77841429349E+02  0.62341215316E+02  0.11023002683E+03  0.00000000000E+00 0.  1.
         11    1    1    2    0    0 -0.39675500519E+02 -0.48744682016E+02  0.21177753186E+02  0.66322594915E+02  0.00000000000E+00 0. -1.
</event>
<event>
 7    1  0.2420569E-009  0.9206435E+02  0.7561462E-02  0.1297928E+00
         -1   -1    0    0    0  501 -0.00000000000E+00  0.00000000000E+00  0.38646626986E+02  0.38646626986E+02  0.00000000000E+00 0.  1.
          1   -1    0    0  501    0  0.00000000000E+00 -0.00000000000E+00 -0.44835670358E+03  0.44835670358E+03  0.00000000000E+00 0. -1.
         25    2    1    2    0    0  0.35454888210E+01 -0.55592510427E+02 -0.13467267451E+03  0.19204975740E+03  0.12507310803E+03 0.  0.
          5    1    3    3  502    0  0.27936445858E+02 -0.53972009157E+02 -0.62300020119E+01  0.61234860207E+02  0.41800000000E+01 0. -1.
         -5    1    3    3    0  502 -0.24390957037E+02 -0.16205012708E+01 -0.12844267250E+03  0.13081489719E+03  0.41800000000E+01 0. -1.
        -11    1    1    2    0    0  0.60364545793E+01 -0.20678461356E+02 -0.23259536467E+02  0.31702422378E+02  0.00000000000E+00 0.  1.
         11    1    1    2    0    0 -0.95819434003E+01  0.76270971784E+02 -0.25177786562E+03  0.26325115079E+03  0.00000000000E+00 0. -1.
</event>
<event>
 7    1  0.2420569E-009  0.2882602E+03  0.7561462E-02  0.1091261E+00
         -1   -1    0    0    0  501 -0.00000000000E+00  0.00000000000E+00  0.54053241183E+02  0.54053241183E+02  0.00000000000E+00 0.  1.
          1   -1    0    0  501    0  0.00000000000E+00 -0.00000000000E+00 -0.17550756559E+04  0.17550756559E+04  0.00000000000E+00 0. -1.
         25    2    1    2    0    0  0.22963388401E+03  0.15782691514E+03 -0.10860223036E+04  0.11281546720E+04  0.12508982493E+03 0.  0.
          5    1    3    3  502    0  0.12641573805E+03  0.14691721192E+03 -0.57876134779E+03  0.61036691922E+03  0.41800000000E+01 0. -1.
         -5    1    3    3    0  502  0.10321814596E+03  0.10909703224E+02 -0.50726095581E+03  0.51778775282E+03  0.41800000000E+01 0. -1.
        -11    1    1    2    0    0 -0.19349017264E+03 -0.12902614594E+03 -0.41517503839E+03  0.47587446427E+03  0.00000000000E+00 0.  1.
         11    1    1    2    0    0 -0.36143711367E+02 -0.28800769203E+02 -0.19982507275E+03  0.20509976079E+03  0.00000000000E+00 0. -1.
</event>
<event>
 7    1  0.2420569E-009  0.1111983E+03  0.7561462E-02  0.1258367E+00
          1   -1    0    0  501    0  0.00000000000E+00  0.00000000000E+00  0.18149138775E+03  0.18149138775E+03  0.00000000000E+00 0. -1.
         -1   -1    0    0    0  501 -0.00000000000E+00 -0.00000000000E+00 -0.68591083663E+02  0.68591083663E+02  0.00000000000E+00 0.  1.
         25    2    1    2    0    0  0.96578013800E+01  0.26992445748E+02  0.60665687144E+02  0.14195874098E+03  0.12510033289E+03 0.  0.
          5    1    3    3  502    0 -0.56294214612E+02  0.26228040632E+02  0.30288240166E+02  0.69222818539E+02  0.41800000000E+01 0.  1.
         -5    1    3    3    0  502  0.65952015992E+02  0.76440511636E+00  0.30377446978E+02  0.72735922442E+02  0.41800000000E+01 0.  1.
        -11    1    1    2    0    0  0.32788743613E+02  0.13444700439E+02  0.25684536597E+02  0.43767077785E+02  0.00000000000E+00 0. -1.
         11    1    1    2    0    0 -0.42446544993E+02 -0.40437146188E+02  0.26550080345E+02  0.64356652648E+02  0.00000000000E+00 0.  1.
</event>
<event>
 7    1  0.2420569E-009  0.6670058E+02  0.7561462E-02  0.1371686E+00
          4   -1    0    0  501    0  0.00000000000E+00  0.00000000000E+00  0.21039598733E+03  0.21039598733E+03  0.00000000000E+00 0.  1.
         -4   -1    0    0    0  501 -0.00000000000E+00 -0.00000000000E+00 -0.57674389430E+02  0.57674389430E+02  0.00000000000E+00 0. -1.
         25    2    1    2    0    0 -0.20833176797E+02 -0.67495658290E+01  0.81314529792E+02  0.15079342494E+03  0.12508807439E+03 0.  0.
          5    1    3    3  502    0 -0.48126553660E+02 -0.81940484410E+01  0.10404184459E+03  0.11500211051E+03  0.41800000000E+01 0.  1.
         -5    1    3    3    0  502  0.27293376862E+02  0.14444826120E+01 -0.22727314794E+02  0.35791314426E+02  0.41800000000E+01 0.  1.
        -11    1    1    2    0    0  0.26570227704E+02 -0.17512833924E+02 -0.90184092858E+01  0.33075792634E+02  0.00000000000E+00 0. -1.
         11    1    1    2    0    0 -0.57370509068E+01  0.24262399753E+02  0.80425477396E+02  0.84201159192E+02  0.00000000000E+00 0.  1.
</event>
<event>
 7    1  0.2420569E-009  0.1411947E+03  0.7561462E-02  0.1211730E+00
         -2   -1    0    0    0  501 -0.00000000000E+00  0.00000000000E+00  0.38816537359E+02  0.38816537359E+02  0.00000000000E+00 0.  1.
          2   -1    0    0  501    0  0.00000000000E+00 -0.00000000000E+00 -0.53200632920E+03  0.53200632920E+03  0.00000000000E+00 0. -1.
         25    2    1    2    0    0  0.97002613595E+02  0.42595085094E+02 -0.24079287641E+03  0.29129299250E+03  0.12508616964E+03 0.  0.
          5    1    3    3  502    0  0.12603905070E+03  0.45175098937E+02 -0.18800401293E+03  0.23084543128E+03  0.41800000000E+01 0. -1.
         -5    1    3    3    0  502 -0.29036437101E+02 -0.25800138428E+01 -0.52788863474E+02  0.60447561223E+02  0.41800000000E+01 0. -1.
        -11    1    1    2    0    0 -0.62676649458E+02 -0.54085737711E+02 -0.15687416476E+03  0.17737850203E+03  0.00000000000E+00 0.  1.
         11    1    1    2    0    0 -0.34325964138E+02  0.11490652617E+02 -0.95522750673E+02  0.10215137203E+03  0.00000000000E+00 0. -1.
</event>
<event>
 7    1  0.2420569E-009  0.9587949E+02  0.7561462E-02  0.1289207E+00
          2   -1    0    0  501    0  0.00000000000E+00  0.00000000000E+00  0.40175343836E+03  0.40175343836E+03  0.00000000000E+00 0. -1.
         -2   -1    0    0    0  501 -0.00000000000E+00 -0.00000000000E+00 -0.39554104223E+02  0.39554104223E+02  0.00000000000E+00 0.  1.
         25    2    1    2    0    0 -0.58481883083E+02  0.77827873641E+01  0.25450674181E+03  0.28965838647E+03  0.12509035454E+03 0.  0.
          5    1    3    3  502    0 -0.25988596694E+02  0.53106405156E+02  0.49693555140E+02  0.77347393293E+02  0.41800000000E+01 0. -1.
         -5    1    3    3    0  502 -0.32493286389E+02 -0.45323617792E+02  0.20481318667E+03  0.21231099318E+03  0.41800000000E+01 0. -1.
        -11    1    1    2    0    0 -0.40335136337E+01 -0.13210162535E+02  0.83118607457E+02  0.84258415200E+02  0.00000000000E+00 0. -1.
         11    1    1    2    0    0  0.62515396716E+02  0.54273751709E+01  0.24573984864E+02  0.67390740907E+02  0.00000000000E+00 0.  1.
</event>
<event>
 7    1  0.2420569E-009  0.1247990E+03  0.7561462E-02  0.1235384E+00
         -2   -1    0    0    0  501 -0.00000000000E+00  0.00000000000E+00  0.13033251521E+02  0.13033251521E+02  0.00000000000E+00 0.  1.
          2   -1    0    0  501    0  0.00000000000E+00 -0.00000000000E+00 -0.13540552067E+04  0.13540552067E+04  0.00000000000E+00 0. -1.
         25    2    1    2    0    0 -0.59244988128E+02 -0.44418651291E+02 -0.83314469379E+03  0.84573045772E+03  0.12508773367E+03 0.  0.
          5    1    3    3  502    0  0.32884934554E+02 -0.20023452788E+02 -0.41685427183E+03  0.41864939260E+03  0.41800000000E+01 0.  1.
         -5    1    3    3    0  502 -0.92129922682E+02 -0.24395198504E+02 -0.41629042197E+03  0.42708106512E+03  0.41800000000E+01 0.  1.
        -11    1    1    2    0    0  0.14697689471E+02 -0.27323677995E+02 -0.95173522210E+02  0.10010297091E+03  0.00000000000E+00 0.  1.
         11    1    1    2    0    0  0.44547298657E+02  0.71742329287E+02 -0.41270373918E+03  0.42125502960E+03  0.00000000000E+00 0. -1.
</event>
<event>
 7    1  0.2420569E-009  0.1871868E+03  0.7561462E-02  0.1161023E+00
         -2   -1    0    0    0  501 -0.00000000000E+00  0.00000000000E+00  0.93556215437E+02  0.93556215437E+02  0.00000000000E+00 0.  1.
          2   -1    0    0  501    0  0.00000000000E+00 -0.00000000000E+00 -0.97751983213E+03  0.97751983213E+03  0.00000000000E+00 0. -1.
         25    2    1    2    0    0  0.15197542180E+03 -0.35025228014E+02 -0.34783096206E+02  0.20293175830E+03  0.12509252303E+03 0.  0.
          5    1    3    3  502    0  0.17098558866E+03 -0.14659102204E+02 -0.32025890071E+02  0.17462557328E+03  0.41800000000E+01 0. -1.
         -5    1    3    3    0  502 -0.19010166866E+02 -0.20366125810E+02 -0.27572061348E+01  0.28306185021E+02  0.41800000000E+01 0. -1.
        -11    1    1    2    0    0  0.25055704591E+01 -0.12628210565E+02 -0.23590246900E+02  0.26874696914E+02  0.00000000000E+00 0.  1.
         11    1    1    2    0    0 -0.15448099226E+03  0.47653438579E+02 -0.82559027359E+03  0.84126959236E+03  0.00000000000E+00 0. -1.
</event>
<event>
 7    1  0.2420569E-009  0.1273249E+03  0.7561462E-02  0.1231480E+00
          2   -1    0    0  501    0  0.00000000000E+00  0.00000000000E+00  0.65405141755E+03  0.65405141755E+03  0.00000000000E+00 0. -1.
         -2   -1    0    0    0  501 -0.00000000000E+00 -0.00000000000E+00 -0.32710002734E+02  0.32710002734E+02  0.00000000000E+00 0.  1.
         25    2    1    2    0    0  0.85041155784E+02  0.20576434424E+02  0.43775927728E+03  0.46361203000E+03  0.12509013422E+03 0.  0.
          5    1    3    3  502    0 -0.27310246308E+02  0.18139376464E+02  0.50489794523E+02  0.60345490991E+02  0.41800000000E+01 0.  1.
         -5    1    3    3    0  502  0.11235140209E+03  0.24370579597E+01  0.38726948276E+03  0.40326653901E+03  0.41800000000E+01 0.  1.
        -11    1    1    2    0    0 -0.11481491702E+02  0.21519099705E+02  0.41947898328E+01  0.24748587143E+02  0.00000000000E+00 0.  1.
         11    1    1    2    0    0 -0.73559664083E+02 -0.42095534129E+02  0.17938734770E+03  0.19840080314E+03  0.00000000000E+00 0. -1.
</event>
<event>
 7    1  0.2420569E-009  0.7419704E+02  0.7561462E-02  0.1346376E+00
          1   -1    0    0  501    0  0.00000000000E+00  0.00000000000E+00  0.90106990043E+03  0.90106990043E+03  0.00000000000E+00 0. -1.
         -1   -1    0    0    0  501 -0.00000000000E+00 -0.00000000000E+00 -0.13881521244E+02  0.13881521244E+02  0.00000000000E+00 0.  1.
         25    2    1    2    0    0  0.21301288733E+02  0.57684201628E+00  0.59158590747E+03  0.60503953365E+03  0.12507946958E+03 0.  0.
          5    1    3    3  502    0  0.38039932080E+02  0.35439379544E+01  0.49487053800E+02  0.62658094630E+02  0.41800000000E+01 0.  1.
         -5    1    3    3    0  502 -0.16738643347E+02 -0.29670959381E+01  0.54209885367E+03  0.54238143902E+03  0.41800000000E+01 0.  1.
        -11    1    1    2    0    0 -0.13691516712E+02 -0.45179398385E+02  0.16886151495E+03  0.17533638214E+03  0.00000000000E+00 0. -1.
         11    1    1    2    0    0 -0.76097720207E+01  0.44602556368E+02  0.12674095676E+03  0.13457550589E+03  0.00000000000E+00 0.  1.
</event>
<event>
 7    1  0.2420569E-009  0.1104560E+03  0.7561462E-02  0.1259728E+00
         -2   -1    0    0    0  501 -0.00000000000E+00  0.00000000000E+00  0.19866073474E+02  0.19866073474E+02  0.00000000000E+00 0. -1.
          2   -1    0    0  501    0  0.00000000000E+00 -0.00000000000E+00 -0.16937775348E+04  0.16937775348E+04  0.00000000000E+00 0.  1.
         25    2    1    2    0    0  0.64511911651E+02 -0.65803173668E+02 -0.14263985543E+04  0.14348351446E+04  0.12508881723E+03 0.  0.
          5    1    3    3  502    0  0.27329659100E+02 -0.30671810703E+02 -0.12605584172E+04  0.12612345800E+04  0.41800000000E+01 0. -1.
         -5    1    3    3    0  502  0.37182252551E+02 -0.35131362965E+02 -0.16584013706E+03  0.17360056460E+03  0.41800000000E+01 0. -1.
        -11    1    1    2    0    0 -0.27170178286E+02 -0.20646298541E+02 -0.62536417733E+02  0.71241082069E+02  0.00000000000E+00 0.  1.
         11    1    1    2    0    0 -0.37341733365E+02  0.86449472209E+02 -0.18497648931E+03  0.20756738158E+03  0.00000000000E+00 0. -1.
</event>
<event>
 7    1  0.2452552E-009  0.9158470E+02  0.7561462E-02  0.1299059E+00
          1   -1    0    0  501    0  0.00000000000E+00  0.00000000000E+00  0.24340292553E+04  0.24340292553E+04  0.00000000000E+00 0. -1.
         -1   -1    0    0    0  501 -0.00000000000E+00 -0.00000000000E+00 -0.85242989084E+01  0.85242989084E+01  0.00000000000E+00 0.  1.
         25    2    1    2    0    0  0.12585594289E+02  0.41982946746E+02  0.20353617887E+04  0.20396729716E+04  0.12508898890E+03 0.  0.
          5    1    3    3  502    0  0.41822971290E+02  0.24259047274E+02  0.29459862467E+03  0.29856906129E+03  0.41800000000E+01 0.  1.
         -5    1    3    3    0  502 -0.29237377001E+02  0.17723899472E+02  0.17407631641E+04  0.17411039103E+04  0.41800000000E+01 0.  1.
        -11    1    1    2    0    0 -0.45716983247E+02 -0.48257988251E+02  0.27337367563E+03  0.28133972794E+03  0.00000000000E+00 0. -1.
         11    1    1    2    0    0  0.33131388958E+02  0.62750415046E+01  0.11676949205E+03  0.12154085467E+03  0.00000000000E+00 0.  1.
</event>
<event>
 7    1  0.2420569E-009  0.1520498E+03  0.7561462E-02  0.1197977E+00
          2   -1    0    0  501    0  0.00000000000E+00  0.00000000000E+00  0.95598014974E+02  0.95598014974E+02  0.00000000000E+00 0. -1.
         -2   -1    0    0    0  501 -0.00000000000E+00 -0.00000000000E+00 -0.42234198484E+03  0.42234198484E+03  0.00000000000E+00 0.  1.
         25    2    1    2    0    0 -0.65467521536E+02 -0.10339505733E+03 -0.32104893860E+03  0.36564348261E+03  0.12508477581E+03 0.  0.
          5    1    3    3  502    0 -0.78822754624E+02 -0.24178559661E+02 -0.22884890370E+03  0.24328362567E+03  0.41800000000E+01 0. -1.
         -5    1    3    3    0  502  0.13355233089E+02 -0.79216497672E+02 -0.92200034901E+02  0.12235985694E+03  0.41800000000E+01 0. -1.
        -11    1    1    2    0    0  0.15738492677E+02  0.87486987665E+02 -0.31174851069E+02  0.94199493107E+02  0.00000000000E+00 0. -1.
         11    1    1    2    0    0  0.49729028859E+02  0.15908069668E+02  0.25479819806E+02  0.58097024099E+02  0.00000000000E+00 0.  1.
</event>
<event>
 7    1  0.2420569E-009  0.1362638E+03  0.7561462E-02  0.1218447E+00
          2   -1    0    0  501    0  0.00000000000E+00  0.00000000000E+00  0.89805070062E+03  0.89805070062E+03  0.00000000000E+00 0.  1.
         -2   -1    0    0    0  501 -0.00000000000E+00 -0.00000000000E+00 -0.24673220579E+02  0.24673220579E+02  0.00000000000E+00 0. -1.
         25    2    1    2    0    0 -0.42161358436E+02  0.65709031114E+02  0.54585668274E+03  0.56542225968E+03  0.12509019438E+03 0.  0.
          5    1    3    3  502    0 -0.45702979262E+02 -0.25441385552E+02  0.26325687631E+03  0.26843561935E+03  0.41800000000E+01 0.  1.
         -5    1    3    3    0  502  0.35416208253E+01  0.91150416665E+02  0.28259980643E+03  0.29698664032E+03  0.41800000000E+01 0.  1.
        -11    1    1    2    0    0  0.76041905274E+02 -0.38205351419E+02  0.28061611730E+03  0.29323612588E+03  0.00000000000E+00 0.  1.
         11    1    1    2    0    0 -0.33880546838E+02 -0.27503679694E+02  0.46904679997E+02  0.64065535636E+02  0.00000000000E+00 0. -1.
</event>
<event>
 7    1  0.2420569E-009  0.1024004E+03  0.7561462E-02  0.1275328E+00
          2   -1    0    0  501    0  0.00000000000E+00  0.00000000000E+00  0.20931753881E+03  0.20931753881E+03  0.00000000000E+00 0. -1.
         -2   -1    0    0    0  501 -0.00000000000E+00 -0.00000000000E+00 -0.61447601972E+02  0.61447601972E+02  0.00000000000E+00 0.  1.
         25    2    1    2    0    0 -0.24148367601E+02 -0.11531783083E+02  0.98138738279E+02  0.16122874764E+03  0.12508945373E+03 0.  0.
          5    1    3    3  502    0  0.49842060091E+02  0.45010147298E+00  0.23135591064E+02  0.55110448368E+02  0.41800000000E+01 0.  1.
         -5    1    3    3    0  502 -0.73990427692E+02 -0.11981884556E+02  0.75003147215E+02  0.10611829927E+03  0.41800000000E+01 0.  1.
        -11    1    1    2    0    0  0.48524539537E+02  0.21879881761E+02  0.60822902419E+02  0.80825649529E+02  0.00000000000E+00 0. -1.
         11    1    1    2    0    0 -0.24376171937E+02 -0.10348098677E+02 -0.11091703860E+02  0.28710743617E+02  0.00000000000E+00 0.  1.
</event>
<event>
 7    1  0.2420569E-009  0.1102994E+03  0.7561462E-02  0.1260017E+00
         -1   -1    0    0    0  501 -0.00000000000E+00  0.00000000000E+00  0.10881847352E+04  0.10881847352E+04  0.00000000000E+00 0.  1.
          1   -1    0    0  501    0  0.00000000000E+00 -0.00000000000E+00 -0.15857744791E+02  0.15857744791E+02  0.00000000000E+00 0. -1.
         25    2    1    2    0    0 -0.29090850511E+02  0.26897172605E+02  0.85986624554E+03  0.86982020567E+03  0.12508994561E+03 0.  0.
          5    1    3    3  502    0  0.46423916824E+02  0.92816641200E+00  0.21379541951E+03  0.21881954974E+03  0.41800000000E+01 0.  1.
         -5    1    3    3    0  502 -0.75514767334E+02  0.25969006193E+02  0.64607082603E+03  0.65100065592E+03  0.41800000000E+01 0.  1.
        -11    1    1    2    0    0 -0.74761743009E+01  0.27483069068E+02  0.35473044657E+02  0.45492297863E+02  0.00000000000E+00 0. -1.
         11    1    1    2    0    0  0.36567024812E+02 -0.54380241674E+02  0.17698770021E+03  0.18872997645E+03  0.00000000000E+00 0.  1.
</event>
<event>
 7    1  0.2420569E-009  0.1223342E+03  0.7561462E-02  0.1239295E+00
          2   -1    0    0  501    0  0.00000000000E+00  0.00000000000E+00  0.70944351578E+03  0.70944351578E+03  0.00000000000E+00 0. -1.
         -2   -1    0    0    0  501 -0.00000000000E+00 -0.00000000000E+00 -0.30469165194E+02  0.30469165194E+02  0.00000000000E+00 0.  1.
         25    2    1    2    0    0  0.34040909090E+02 -0.57548123359E+02  0.52527784836E+03  0.54409127610E+03  0.12509168141E+03 0.  0.
          5    1    3    3  502    0 -0.41678407395E+02 -0.11332541415E+02  0.27764692256E+03  0.28101744100E+03  0.41800000000E+01 0.  1.
         -5    1    3    3    0  502  0.75719316484E+02 -0.46215581944E+02  0.24763092579E+03  0.26307383510E+03  0.41800000000E+01 0.  1.
        -11    1    1    2    0    0  0.20842326544E+02  0.53521670259E+02  0.41515759468E+02  0.70869810549E+02  0.00000000000E+00 0.  1.
         11    1    1    2    0    0 -0.54883235634E+02  0.40264531001E+01  0.11218074277E+03  0.12495159433E+03  0.00000000000E+00 0. -1.
</event>
<event>
 7    1  0.2420569E-009  0.8624244E+02  0.7561462E-02  0.1312215E+00
         -1   -1    0    0    0  501 -0.00000000000E+00  0.00000000000E+00  0.66471435543E+02  0.66471435543E+02  0.00000000000E+00 0.  1.
          1   -1    0    0  501    0  0.00000000000E+00 -0.00000000000E+00 -0.22401324303E+03  0.22401324303E+03  0.00000000000E+00 0. -1.
         25    2    1    2    0    0 -0.11493361927E+02 -0.56594006681E+02 -0.95763523150E+02  0.16779504757E+03  0.12509814811E+03 0.  0.
          5    1    3    3  502    0 -0.17725510217E+02 -0.58606518719E+02 -0.12408232593E+03  0.13842981527E+03  0.41800000000E+01 0.  1.
         -5    1    3    3    0  502  0.62321482894E+01  0.20125120385E+01  0.28318802777E+02  0.29365232294E+02  0.41800000000E+01 0.  1.
        -11    1    1    2    0    0  0.48311836631E+02  0.23016426218E+02 -0.18297124236E+02  0.56555938590E+02  0.00000000000E+00 0. -1.
         11    1    1    2    0    0 -0.36818474704E+02  0.33577580463E+02 -0.43481160105E+02  0.66133692422E+02  0.00000000000E+00 0.  1.
</event>
<event>
 7    1  0.2420569E-009  0.9112069E+02  0.7561462E-02  0.1300160E+00
          2   -1    0    0  501    0  0.00000000000E+00  0.00000000000E+00  0.13411381300E+03  0.13411381300E+03  0.00000000000E+00 0. -1.
         -2   -1    0    0    0  501 -0.00000000000E+00 -0.00000000000E+00 -0.12071064741E+03  0.12071064741E+03  0.00000000000E+00 0.  1.
         25    2    1    2    0    0  0.45766980196E+02  0.34711035663E+02 -0.28266148181E+02  0.14052270125E+03  0.12509269347E+03 0.  0.
          5    1    3    3  502    0  0.43507513868E+02 -0.14122173239E+02  0.36922848806E+02  0.58933086666E+02  0.41800000000E+01 0. -1.
         -5    1    3    3    0  502  0.22594663279E+01  0.48833208902E+02 -0.65188996986E+02  0.81589614583E+02  0.41800000000E+01 0. -1.
        -11    1    1    2    0    0 -0.58502134345E+02 -0.98689953056E+01 -0.54028876756E+01  0.59574222500E+02  0.00000000000E+00 0.  1.
         11    1    1    2    0    0  0.12735154149E+02 -0.24842040357E+02  0.47072201444E+02  0.54727536662E+02  0.00000000000E+00 0. -1.
</event>
<event>
 7    1  0.2420569E-009  0.1327953E+03  0.7561462E-02  0.1223366E+00
         -2   -1    0    0    0  501 -0.00000000000E+00  0.00000000000E+00  0.28671999029E+02  0.28671999029E+02  0.00000000000E+00 0.  1.
          2   -1    0    0  501    0  0.00000000000E+00 -0.00000000000E+00 -0.89018065143E+03  0.89018065143E+03  0.00000000000E+00 0. -1.
         25    2    1    2    0    0 -0.66367405882E+02  0.79480211699E+02 -0.61299532019E+03  0.63413899716E+03  0.12508904241E+03 0.  0.
          5    1    3    3  502    0 -0.90985203679E+02  0.95821310297E+02 -0.48335284700E+03  0.50110625410E+03  0.41800000000E+01 0. -1.
         -5    1    3    3    0  502  0.24617797797E+02 -0.16341098597E+02 -0.12964247319E+03  0.13303274306E+03  0.41800000000E+01 0. -1.
        -11    1    1    2    0    0  0.32958060448E+02 -0.39680728848E+02 -0.21891876947E+03  0.22491380930E+03  0.00000000000E+00 0. -1.
         11    1    1    2    0    0  0.33409345434E+02 -0.39799482852E+02 -0.29594562743E+02  0.59799843992E+02  0.00000000000E+00 0.  1.
</event>
<event>
 7    1  0.2420569E-009  0.1015441E+03  0.7561462E-02  0.1277082E+00
         -1   -1    0    0    0  501 -0.00000000000E+00  0.00000000000E+00  0.29489172185E+03  0.29489172185E+03  0.00000000000E+00 0.  1.
          1   -1    0    0  501    0  0.00000000000E+00 -0.00000000000E+00 -0.50248731578E+02  0.50248731578E+02  0.00000000000E+00 0. -1.
         25    2    1    2    0    0  0.19128158144E+02  0.55829477940E+02  0.15327068912E+03  0.20645127710E+03  0.12508960242E+03 0.  0.
          5    1    3    3  502    0  0.12071377086E+02  0.77225073283E+02  0.34586299665E+02  0.85575198584E+02  0.41800000000E+01 0.  1.
         -5    1    3    3    0  502  0.70567810582E+01 -0.21395595342E+02  0.11868438945E+03  0.12087607852E+03  0.41800000000E+01 0.  1.
        -11    1    1    2    0    0  0.92017138726E+01 -0.69736231147E+02  0.48444086074E+02  0.85408681926E+02  0.00000000000E+00 0.  1.
         11    1    1    2    0    0 -0.28329872017E+02  0.13906753206E+02  0.42928215084E+02  0.53280494400E+02  0.00000000000E+00 0. -1.
</event>
<event>
 7    1  0.2420569E-009  0.1139714E+03  0.7561462E-02  0.1253387E+00
          2   -1    0    0  501    0  0.00000000000E+00  0.00000000000E+00  0.91645787998E+03  0.91645787998E+03  0.00000000000E+00 0. -1.
         -2   -1    0    0    0  501 -0.00000000000E+00 -0.00000000000E+00 -0.18481383761E+02  0.18481383761E+02  0.00000000000E+00 0.  1.
         25    2    1    2    0    0 -0.37024498594E+02 -0.53531727131E+02  0.38812987236E+03  0.41295115651E+03  0.12508957007E+03 0.  0.
          5    1    3    3  502    0 -0.67652354637E+02 -0.57771796972E+02  0.36029245010E+03  0.37113682600E+03  0.41800000000E+01 0.  1.
         -5    1    3    3    0  502  0.30627856043E+02  0.42400698411E+01  0.27837422260E+02  0.41814330512E+02  0.41800000000E+01 0.  1.
        -11    1    1    2    0    0 -0.14693136748E+02  0.53997293679E+02  0.33538678354E+03  0.34002336768E+03  0.00000000000E+00 0. -1.
         11    1    1    2    0    0  0.51717635341E+02 -0.46556654875E+00  0.17445984032E+03  0.18196473955E+03  0.00000000000E+00 0.  1.
</event>
<event>
 7    1  0.2420569E-009  0.2022261E+03  0.7561462E-02  0.1147874E+00
         -1   -1    0    0    0  501 -0.00000000000E+00  0.00000000000E+00  0.30867738370E+02  0.30867738370E+02  0.00000000000E+00 0.  1.
          1   -1    0    0  501    0  0.00000000000E+00 -0.00000000000E+00 -0.17598535164E+04  0.17598535164E+04  0.00000000000E+00 0. -1.
         25    2    1    2    0    0 -0.15142996295E+03 -0.10547579556E+03 -0.12171055957E+04  0.12373558393E+04  0.12508902794E+03 0.  0.
          5    1    3    3  502    0 -0.16415600761E+03 -0.79525021701E+02 -0.86453224522E+03  0.88357506718E+03  0.41800000000E+01 0.  1.
         -5    1    3    3    0  502  0.12726044660E+02 -0.25950773858E+02 -0.35257335049E+03  0.35378077216E+03  0.41800000000E+01 0.  1.
        -11    1    1    2    0    0  0.19187697628E+02  0.41859297026E+02 -0.46687059660E+02  0.65574766697E+02  0.00000000000E+00 0.  1.
         11    1    1    2    0    0  0.13224226532E+03  0.63616498533E+02 -0.46519312267E+03  0.48779064875E+03  0.00000000000E+00 0. -1.
</event>
<event>
 7    1  0.2420569E-009  0.1537900E+03  0.7561462E-02  0.1195892E+00
          2   -1    0    0  501    0  0.00000000000E+00  0.00000000000E+00  0.97647051026E+02  0.97647051026E+02  0.00000000000E+00 0. -1.
         -2   -1    0    0    0  501 -0.00000000000E+00 -0.00000000000E+00 -0.25674396652E+03  0.25674396652E+03  0.00000000000E+00 0.  1.
         25    2    1    2    0    0 -0.47934259412E+02  0.10426947379E+03 -0.90895788328E+02  0.19255939932E+03  0.12508901448E+03 0.  0.
          5    1    3    3  502    0  0.33328690555E+02 -0.43918623761E+01 -0.21194723150E+02  0.39959714196E+02  0.41800000000E+01 0. -1.
         -5    1    3    3    0  502 -0.81262949967E+02  0.10866133616E+03 -0.69701065179E+02  0.15259968513E+03  0.41800000000E+01 0. -1.
        -11    1    1    2    0    0  0.37440286166E+02 -0.45876491321E+01 -0.45423680839E+02  0.59043478334E+02  0.00000000000E+00 0.  1.
         11    1    1    2    0    0  0.10493973246E+02 -0.99681824654E+02 -0.22777446329E+02  0.10278813989E+03  0.00000000000E+00 0. -1.
</event>
<event>
 7    1  0.2420569E-009  0.1780991E+03  0.7561462E-02  0.1169656E+00
          3   -1    0    0  501    0  0.00000000000E+00  0.00000000000E+00  0.94634713203E+02  0.94634713203E+02  0.00000000000E+00 0. -1.
         -3   -1    0    0    0  501 -0.00000000000E+00 -0.00000000000E+00 -0.47500764796E+03  0.47500764796E+03  0.00000000000E+00 0.  1.
         25    2    1    2    0    0 -0.16024735827E+03  0.52153034433E+01 -0.83827687107E+02  0.21995688042E+03  0.12509009912E+03 0.  0.
          5    1    3    3  502    0 -0.12330904623E+03  0.52862741058E+02 -0.26825451185E+02  0.13688194733E+03  0.41800000000E+01 0. -1.
         -5    1    3    3    0  502 -0.36938312039E+02 -0.47647437615E+02 -0.57002235922E+02  0.83074933089E+02  0.41800000000E+01 0. -1.
        -11    1    1    2    0    0  0.14067294526E+03 -0.11064657628E+02 -0.29746341998E+03  0.32923515973E+03  0.00000000000E+00 0.  1.
         11    1    1    2    0    0  0.19574413009E+02  0.58493541843E+01  0.91817232959E+00  0.20450321010E+02  0.00000000000E+00 0. -1.
</event>
<event>
 7    1  0.2420569E-009  0.1372385E+03  0.7561462E-02  0.1217094E+00
         -2   -1    0    0    0  501 -0.00000000000E+00  0.00000000000E+00  0.73777137780E+02  0.73777137780E+02  0.00000000000E+00 0.  1.
          2   -1    0    0  501    0  0.00000000000E+00 -0.00000000000E+00 -0.33366085239E+03  0.33366085239E+03  0.00000000000E+00 0. -1.
         25    2    1    2    0    0  0.10898240964E+03  0.32491891913E+02 -0.13990389982E+03  0.21943822342E+03  0.12508854489E+03 0.  0.
          5    1    3    3  502    0  0.47631043375E+02 -0.28810797764E+02 -0.11700460778E+03  0.12963922632E+03  0.41800000000E+01 0.  1.
         -5    1    3    3    0  502  0.61351366261E+02  0.61302689677E+02 -0.22899292041E+02  0.89798997098E+02  0.41800000000E+01 0.  1.
        -11    1    1    2    0    0 -0.37489789523E+02 -0.45711617323E+02 -0.93501808526E+02  0.11062379705E+03  0.00000000000E+00 0. -1.
         11    1    1    2    0    0 -0.71492620113E+02  0.13219725411E+02 -0.26478006265E+02  0.77375969696E+02  0.00000000000E+00 0.  1.
</event>
<event>
 7    1  0.2420569E-009  0.7212334E+02  0.7561462E-02  0.1353018E+00
         -3   -1    0    0    0  501 -0.00000000000E+00  0.00000000000E+00  0.43571924030E+02  0.43571924030E+02  0.00000000000E+00 0.  1.
          3   -1    0    0  501    0  0.00000000000E+00 -0.00000000000E+00 -0.35916380330E+03  0.35916380330E+03  0.00000000000E+00 0. -1.
         25    2    1    2    0    0  0.66827755845E+01  0.41517296357E+02 -0.10409230192E+03  0.16807992583E+03  0.12508920322E+03 0.  0.
          5    1    3    3  502    0 -0.22180360619E+02  0.37339010111E+02  0.14426608967E+02  0.45953993510E+02  0.41800000000E+01 0. -1.
         -5    1    3    3    0  502  0.28863136204E+02  0.41782862463E+01 -0.11851891089E+03  0.12212593232E+03  0.41800000000E+01 0. -1.
        -11    1    1    2    0    0 -0.30222576650E+02 -0.10036806444E+02 -0.16756165560E+02  0.35984867753E+02  0.00000000000E+00 0.  1.
         11    1    1    2    0    0  0.23539801065E+02 -0.31480489912E+02 -0.19474341179E+03  0.19867093375E+03  0.00000000000E+00 0. -1.
</event>
<event>
 7    1  0.2420569E-009  0.1482101E+03  0.7561462E-02  0.1202690E+00
         -1   -1    0    0    0  501 -0.00000000000E+00  0.00000000000E+00  0.73484572308E+02  0.73484572308E+02  0.00000000000E+00 0.  1.
          1   -1    0    0  501    0  0.00000000000E+00 -0.00000000000E+00 -0.37000373374E+03  0.37000373374E+03  0.00000000000E+00 0. -1.
         25    2    1    2    0    0  0.40457304539E+02 -0.11617723541E+03 -0.19568515487E+03  0.26281925591E+03  0.12508931977E+03 0.  0.
          5    1    3    3  502    0  0.39962762661E+02  0.15155308119E+01 -0.76225489607E+01  0.40925479665E+02  0.41800000000E+01 0. -1.
         -5    1    3    3    0  502  0.49454187773E+00 -0.11769276622E+03 -0.18806260591E+03  0.22189377624E+03  0.41800000000E+01 0. -1.
        -11    1    1    2    0    0  0.71103253657E+01  0.75558888659E+02 -0.20044157451E+02  0.78495035704E+02  0.00000000000E+00 0.  1.
         11    1    1    2    0    0 -0.47567629904E+02  0.40618346748E+02 -0.80789849103E+02  0.10217401443E+03  0.00000000000E+00 0. -1.
</event>
<event>
 7    1  0.2420569E-009  0.1510325E+03  0.7561462E-02  0.1199210E+00
         -1   -1    0    0    0  501 -0.00000000000E+00  0.00000000000E+00  0.17928214534E+02  0.17928214534E+02  0.00000000000E+00 0.  1.
          1   -1    0    0  501    0  0.00000000000E+00 -0.00000000000E+00 -0.17424665562E+04  0.17424665562E+04  0.00000000000E+00 0. -1.
         25    2    1    2    0    0  0.26677039412E+02  0.13414352742E+03 -0.10164015555E+04  0.10331642722E+04  0.12510052389E+03 0.  0.
          5    1    3    3  502    0  0.22046006201E+00  0.53981253634E+02 -0.10773025378E+03  0.12057074408E+03  0.41800000000E+01 0. -1.
         -5    1    3    3    0  502  0.26456579350E+02  0.80162273785E+02 -0.90867130168E+03  0.91259352816E+03  0.41800000000E+01 0. -1.
        -11    1    1    2    0    0 -0.46312889497E+02 -0.25241431064E+02 -0.17714056455E+03  0.18482638661E+03  0.00000000000E+00 0.  1.
         11    1    1    2    0    0  0.19635850085E+02 -0.10890209635E+03 -0.53099622163E+03  0.54240411188E+03  0.00000000000E+00 0. -1.
</event>
<event>
 7    1  0.2420569E-009  0.1375499E+03  0.7561462E-02  0.1216664E+00
         -1   -1    0    0    0  501 -0.00000000000E+00  0.00000000000E+00  0.44870693822E+03  0.44870693822E+03  0.00000000000E+00 0.  1.
          1   -1    0    0  501    0  0.00000000000E+00 -0.00000000000E+00 -0.49803460979E+02  0.49803460979E+02  0.00000000000E+00 0. -1.
         25    2    1    2    0    0  0.10105067521E+03 -0.89972479078E+01  0.24955832242E+03  0.29701738322E+03  0.12509108768E+03 0.  0.
          5    1    3    3  502    0  0.12111752513E+03 -0.98418163787E+01  0.13944795756E+03  0.18501221990E+03  0.41800000000E+01 0.  1.
         -5    1    3    3    0  502 -0.20066849922E+02  0.84456847088E+00  0.11011036485E+03  0.11200516332E+03  0.41800000000E+01 0.  1.
        -11    1    1    2    0    0  0.48751182030E+01  0.25350884457E+02  0.15840599697E+02  0.30287930253E+02  0.00000000000E+00 0.  1.
         11    1    1    2    0    0 -0.10592579341E+03 -0.16353636549E+02  0.13350455512E+03  0.17120508572E+03  0.00000000000E+00 0. -1.
</event>
<event>
 7    1  0.2420569E-009  0.1224186E+03  0.7561462E-02  0.1239160E+00
          2   -1    0    0  501    0  0.00000000000E+00  0.00000000000E+00  0.13863061763E+04  0.13863061763E+04  0.00000000000E+00 0.  1.
         -2   -1    0    0    0  501 -0.00000000000E+00 -0.00000000000E+00 -0.13095604186E+02  0.13095604186E+02  0.00000000000E+00 0. -1.
         25    2    1    2    0    0 -0.53263126643E+02  0.58970159662E+02  0.70025209433E+03  0.71576097905E+03  0.12508534337E+03 0.  0.
          5    1    3    3  502    0 -0.71393074971E+02  0.81845244504E+01  0.57283143931E+03  0.57733637323E+03  0.41800000000E+01 0.  1.
         -5    1    3    3    0  502  0.18129948329E+02  0.50785635212E+02  0.12742065502E+03  0.13842460582E+03  0.41800000000E+01 0.  1.
        -11    1    1    2    0    0  0.62977506010E+02 -0.76280608032E+02  0.59657187905E+03  0.60471721019E+03  0.00000000000E+00 0.  1.
         11    1    1    2    0    0 -0.97143793671E+01  0.17310448369E+02  0.76386598709E+02  0.78923591223E+02  0.00000000000E+00 0. -1.
</event>
<event>
 7    1  0.2420569E-009  0.1568801E+03  0.7561462E-02  0.1192265E+00
         -1   -1    0    0    0  501 -0.00000000000E+00  0.00000000000E+00  0.90172645856E+02  0.90172645856E+02  0.00000000000E+00 0.  1.
          1   -1    0    0  501    0  0.00000000000E+00 -0.00000000000E+00 -0.34228307903E+03  0.34228307903E+03  0.00000000000E+00 0. -1.
         25    2    1    2    0    0  0.96850476033E+02 -0.79136663151E+02 -0.20227406424E+03  0.26871033835E+03  0.12509125754E+03 0.  0.
          5    1    3    3  502    0  0.10611733062E+03 -0.10213864502E+03 -0.14774027694E+03  0.20865726083E+03  0.41800000000E+01 0. -1.
         -5    1    3    3    0  502 -0.92668545831E+01  0.23001981872E+02 -0.54533787294E+02  0.60053077528E+02  0.41800000000E+01 0. -1.
        -11    1    1    2    0    0  0.94393732022E+01  0.13052230542E+02 -0.33956556253E+02  0.37583376660E+02  0.00000000000E+00 0. -1.
         11    1    1    2    0    0 -0.10628984924E+03  0.66084432608E+02 -0.15879812681E+02  0.12616200987E+03  0.00000000000E+00 0.  1.
</event>
<event>
 7    1  0.2420569E-009  0.6322730E+02  0.7561462E-02  0.1384767E+00
         -2   -1    0    0    0  501 -0.00000000000E+00  0.00000000000E+00  0.56622738857E+02  0.56622738857E+02  0.00000000000E+00 0.  1.
          2   -1    0    0  501    0  0.00000000000E+00 -0.00000000000E+00 -0.38150174718E+03  0.38150174718E+03  0.00000000000E+00 0. -1.
         25    2    1    2    0    0 -0.22419730693E+02  0.25129460412E+02 -0.31633654535E+03  0.34183353069E+03  0.12508884313E+03 0.  0.
          5    1    3    3  502    0 -0.80149096204E+01  0.56710122480E+02 -0.29572370282E+03  0.30124783415E+03  0.41800000000E+01 0.  1.
         -5    1    3    3    0  502 -0.14404821072E+02 -0.31580662068E+02 -0.20612842529E+02  0.40585696543E+02  0.41800000000E+01 0.  1.
        -11    1    1    2    0    0  0.94536854670E+01 -0.14456922909E+02 -0.49284315118E+02  0.52223735078E+02  0.00000000000E+00 0. -1.
         11    1    1    2    0    0  0.12966045225E+02 -0.10672537503E+02  0.40741852148E+02  0.44067220266E+02  0.00000000000E+00 0.  1.
</event>
<event>
 7    1  0.2420569E-009  0.2295249E+03  0.7561462E-02  0.1126975E+00
         -2   -1    0    0    0  501 -0.00000000000E+00  0.00000000000E+00  0.10323249583E+03  0.10323249583E+03  0.00000000000E+00 0.  1.
          2   -1    0    0  501    0  0.00000000000E+00 -0.00000000000E+00 -0.58696635983E+03  0.58696635983E+03  0.00000000000E+00 0. -1.
         25    2    1    2    0    0  0.15749454345E+03 -0.12893583183E+03 -0.36656189190E+03  0.43754300098E+03  0.12508907692E+03 0.  0.
          5    1    3    3  502    0  0.84291751457E+02  0.54849482433E+01 -0.15207423790E+03  0.17400928209E+03  0.41800000000E+01 0.  1.
         -5    1    3    3    0  502  0.73202791994E+02 -0.13442078008E+03 -0.21448765399E+03  0.26353371888E+03  0.41800000000E+01 0.  1.
        -11    1    1    2    0    0 -0.58092984117E+02  0.10360458466E+03 -0.44058982466E+02  0.12668819480E+03  0.00000000000E+00 0.  1.
         11    1    1    2    0    0 -0.99401559334E+02  0.25331247171E+02 -0.73112989641E+02  0.12596765988E+03  0.00000000000E+00 0. -1.
</event>
<event>
 7    1  0.2420569E-009  0.1223503E+03  0.7561462E-02  0.1239269E+00
          4   -1    0    0  501    0  0.00000000000E+00  0.00000000000E+00  0.28865199437E+03  0.28865199437E+03  0.00000000000E+00 0. -1.
         -4   -1    0    0    0  501 -0.00000000000E+00 -0.00000000000E+00 -0.87616763529E+02  0.87616763529E+02  0.00000000000E+00 0.  1.
         25    2    1    2    0    0 -0.53996278076E+02 -0.50445157888E+02  0.21518655289E+03  0.25964058698E+03  0.12509064658E+03 0.  0.
          5    1    3    3  502    0 -0.86068045172E+02 -0.23061228269E+02  0.86892428320E+02  0.12452829055E+03  0.41800000000E+01 0.  1.
         -5    1    3    3    0  502  0.32071767096E+02 -0.27383929619E+02  0.12829412457E+03  0.13511229642E+03  0.41800000000E+01 0.  1.
        -11    1    1    2    0    0  0.77615370396E+02  0.39486250204E+02 -0.21255506678E+02  0.89638754125E+02  0.00000000000E+00 0.  1.
         11    1    1    2    0    0 -0.23619092320E+02  0.10958907683E+02  0.71041846292E+01  0.26989416794E+02  0.00000000000E+00 0. -1.
</event>
<event>
 7    1  0.2420569E-009  0.6615930E+02  0.7561462E-02  0.1373663E+00
         -2   -1    0    0    0  501 -0.00000000000E+00  0.00000000000E+00  0.41584572191E+03  0.41584572191E+03  0.00000000000E+00 0. -1.
          2   -1    0    0  501    0  0.00000000000E+00 -0.00000000000E+00 -0.44989175576E+02  0.44989175576E+02  0.00000000000E+00 0.  1.
         25    2    1    2    0    0  0.38831864530E+02  0.22664553353E+02  0.32507976325E+03  0.35120207224E+03  0.12507776535E+03 0.  0.
          5    1    3    3  502    0  0.13178237012E+02  0.39144152813E+02  0.22806291048E+02  0.47365915399E+02  0.41800000000E+01 0. -1.
         -5    1    3    3    0  502  0.25653627517E+02 -0.16479599460E+02  0.30227347221E+03  0.30383615684E+03  0.41800000000E+01 0. -1.
        -11    1    1    2    0    0 -0.43252011229E+02 -0.70776776467E+01 -0.15317444233E+02  0.46426868234E+02  0.00000000000E+00 0.  1.
         11    1    1    2    0    0  0.44201466991E+01 -0.15586875707E+02  0.61094227312E+02  0.63205957013E+02  0.00000000000E+00 0. -1.
</event>
<event>
 7    1  0.2420569E-009  0.8335410E+02  0.7561462E-02  0.1319794E+00
         -2   -1    0    0    0  501 -0.00000000000E+00  0.00000000000E+00  0.10813172148E+03  0.10813172148E+03  0.00000000000E+00 0.  1.
          2   -1    0    0  501    0  0.00000000000E+00 -0.00000000000E+00 -0.11398508594E+03  0.11398508594E+03  0.00000000000E+00 0. -1.
         25    2    1    2    0    0  0.15402570358E+02 -0.73462185472E+01 -0.26997502473E+00  0.12624618369E+03  0.12508724919E+03 0.  0.
          5    1    3    3  502    0  0.39164157574E+02  0.17022965894E+02  0.49688523843E+02  0.65650852302E+02  0.41800000000E+01 0.  1.
         -5    1    3    3    0  502 -0.23761587216E+02 -0.24369184441E+02 -0.49958498867E+02  0.60595331391E+02  0.41800000000E+01 0.  1.
        -11    1    1    2    0    0  0.26835021077E+02  0.31077868233E+02  0.14331027956E+02  0.43489431042E+02  0.00000000000E+00 0.  1.
         11    1    1    2    0    0 -0.42237591435E+02 -0.23731649685E+02 -0.19914417384E+02  0.52381192682E+02  0.00000000000E+00 0. -1.
</event>
<event>
 7    1  0.2420569E-009  0.1814427E+03  0.7561462E-02  0.1166414E+00
         -1   -1    0    0    0  501 -0.00000000000E+00  0.00000000000E+00  0.52318897480E+03  0.52318897480E+03  0.00000000000E+00 0.  1.
          1   -1    0    0  501    0  0.00000000000E+00 -0.00000000000E+00 -0.68079538931E+02  0.68079538931E+02  0.00000000000E+00 0. -1.
         25    2    1    2    0    0 -0.39818126596E+02  0.14847588583E+03  0.22996598677E+03  0.30358293019E+03  0.12509064135E+03 0.  0.
          5    1    3    3  502    0 -0.71218989971E+02  0.57908716318E+02  0.16116032535E+03  0.18551465394E+03  0.41800000000E+01 0.  1.
         -5    1    3    3    0  502  0.31400863375E+02  0.90567169510E+02  0.68805661419E+02  0.11806827625E+03  0.41800000000E+01 0.  1.
        -11    1    1    2    0    0 -0.29377533656E+01  0.10252964483E+02  0.33710336947E+02  0.35357325869E+02  0.00000000000E+00 0.  1.
         11    1    1    2    0    0  0.42755879962E+02 -0.15872885031E+03  0.19143311216E+03  0.25232825768E+03  0.00000000000E+00 0. -1.
</event>
<event>
 7    1  0.2420569E-009  0.1480045E+03  0.7561462E-02  0.1202947E+00
          2   -1    0    0  501    0  0.00000000000E+00  0.00000000000E+00  0.16123786745E+04  0.16123786745E+04  0.00000000000E+00 0.  1.
         -2   -1    0    0    0  501 -0.00000000000E+00 -0.00000000000E+00 -0.17129033904E+02  0.17129033904E+02  0.00000000000E+00 0. -1.
         25    2    1    2    0    0  0.39768855261E+02 -0.10040905925E+03  0.11976757862E+04  0.12090237629E+04  0.12509048537E+03 0.  0.
          5    1    3    3  502    0 -0.22940394242E+02 -0.95376631737E+02  0.59347310444E+03  0.60154032422E+03  0.41800000000E+01 0.  1.
         -5    1    3    3    0  502  0.62709249504E+02 -0.50324275109E+01  0.60420268173E+03  0.60748343871E+03  0.41800000000E+01 0.  1.
        -11    1    1    2    0    0  0.21983167014E+02  0.51512474965E+02  0.12985062381E+03  0.14141421149E+03  0.00000000000E+00 0.  1.
         11    1    1    2    0    0 -0.61752022275E+02  0.48896584283E+02  0.26772323060E+03  0.27906973396E+03  0.00000000000E+00 0. -1.
</event>
<event>
 7    1  0.2420569E-009  0.1051124E+03  0.7561462E-02  0.1269898E+00
          2   -1    0    0  501    0  0.00000000000E+00  0.00000000000E+00  0.59312265133E+03  0.59312265133E+03  0.00000000000E+00 0. -1.
         -2   -1    0    0    0  501 -0.00000000000E+00 -0.00000000000E+00 -0.22275279419E+02  0.22275279419E+02  0.00000000000E+00 0.  1.
         25    2    1    2    0    0 -0.38955445587E+02 -0.89456750022E+01  0.32236474483E+03  0.34808445639E+03  0.12508480414E+03 0.  0.
          5    1    3    3  502    0 -0.35606470400E+02 -0.58558780918E+02  0.10792382458E+03  0.12791393931E+03  0.41800000000E+01 0. -1.
         -5    1    3    3    0  502 -0.33489751876E+01  0.49613105916E+02  0.21444092025E+03  0.22017051708E+03  0.41800000000E+01 0. -1.
        -11    1    1    2    0    0 -0.61031018843E+01 -0.30909411993E+02  0.43666941584E+02  0.53846461255E+02  0.00000000000E+00 0. -1.
         11    1    1    2    0    0  0.45058547472E+02  0.39855086995E+02  0.20481568549E+03  0.21346701311E+03  0.00000000000E+00 0.  1.
</event>
<event>
 7    1  0.2420569E-009  0.8541668E+02  0.7561462E-02  0.1314346E+00
          2   -1    0    0  501    0  0.00000000000E+00  0.00000000000E+00  0.72338210233E+02  0.72338210233E+02  0.00000000000E+00 0. -1.
         -2   -1    0    0    0  501 -0.00000000000E+00 -0.00000000000E+00 -0.21798045215E+03  0.21798045215E+03  0.00000000000E+00 0.  1.
         25    2    1    2    0    0 -0.62119347740E+02 -0.25254069066E+01 -0.64102355015E+02  0.15369425802E+03  0.12509045522E+03 0.  0.
          5    1    3    3  502    0 -0.89162800197E+01  0.11534859797E+02  0.36179302764E+02  0.39229674845E+02  0.41800000000E+01 0.  1.
         -5    1    3    3    0  502 -0.53203067720E+02 -0.14060266704E+02 -0.10028165778E+03  0.11446458318E+03  0.41800000000E+01 0.  1.
        -11    1    1    2    0    0 -0.59345466163E+01  0.27389330711E+02 -0.50596910295E+02  0.57839792632E+02  0.00000000000E+00 0.  1.
         11    1    1    2    0    0  0.68053894356E+02 -0.24863923805E+02 -0.30942976604E+02  0.78784611728E+02  0.00000000000E+00 0. -1.
</event>
<event>
 7    1  0.2420569E-009  0.1129360E+03  0.7561462E-02  0.1255228E+00
         -2   -1    0    0    0  501 -0.00000000000E+00  0.00000000000E+00  0.11790967923E+02  0.11790967923E+02  0.00000000000E+00 0.  1.
          2   -1    0    0  501    0  0.00000000000E+00 -0.00000000000E+00 -0.11173041948E+04  0.11173041948E+04  0.00000000000E+00 0. -1.
         25    2    1    2    0    0  0.40412639802E+02 -0.73566108468E+01 -0.67772052781E+03  0.69039155903E+03  0.12509232503E+03 0.  0.
          5    1    3    3  502    0  0.36827137769E+02 -0.63063016157E+02 -0.31532638111E+03  0.32369952287E+03  0.41800000000E+01 0.  1.
         -5    1    3    3    0  502  0.35855020337E+01  0.55706405310E+02 -0.36239414670E+03  0.36669203616E+03  0.41800000000E+01 0.  1.
        -11    1    1    2    0    0  0.25930478176E+02  0.15012032554E+02 -0.11300523632E+03  0.11690994079E+03  0.00000000000E+00 0.  1.
         11    1    1    2    0    0 -0.66343117978E+02 -0.76554217076E+01 -0.31478746279E+03  0.32179366295E+03  0.00000000000E+00 0. -1.
</event>
<event>
 7    1  0.2420569E-009  0.8300874E+02  0.7561462E-02  0.1320724E+00
         -2   -1    0    0    0  501 -0.00000000000E+00  0.00000000000E+00  0.62523530883E+02  0.62523530883E+02  0.00000000000E+00 0.  1.
          2   -1    0    0  501    0  0.00000000000E+00 -0.00000000000E+00 -0.21146908136E+03  0.21146908136E+03  0.00000000000E+00 0. -1.
         25    2    1    2    0    0 -0.44290315193E+01  0.29666804259E+02 -0.11579070343E+03  0.17307615454E+03  0.12509249647E+03 0.  0.
          5    1    3    3  502    0 -0.53965906906E+02  0.75848767895E+01 -0.10389421678E+03  0.11739391016E+03  0.41800000000E+01 0. -1.
         -5    1    3    3    0  502  0.49536875387E+02  0.22081927469E+02 -0.11896486652E+02  0.55682244374E+02  0.41800000000E+01 0. -1.
        -11    1    1    2    0    0  0.23135024447E+02 -0.15411111710E+01  0.24728342220E+02  0.33898308052E+02  0.00000000000E+00 0.  1.
         11    1    1    2    0    0 -0.18705992927E+02 -0.28125693088E+02 -0.57883189268E+02  0.67018149653E+02  0.00000000000E+00 0. -1.
</event>
<event>
 7    1  0.2420569E-009  0.7866768E+02  0.7561462E-02  0.1332875E+00
          3   -1    0    0  501    0  0.00000000000E+00  0.00000000000E+00  0.15558035039E+03  0.15558035039E+03  0.00000000000E+00 0. -1.
         -3   -1    0    0    0  501 -0.00000000000E+00 -0.00000000000E+00 -0.11737346745E+03  0.11737346745E+03  0.00000000000E+00 0.  1.
         25    2    1    2    0    0 -0.26406977217E+02 -0.48803953245E+02  0.80188204635E+02  0.15859763821E+03  0.12507561067E+03 0.  0.
          5    1    3    3  502    0 -0.16026529310E+02 -0.24085575872E+02 -0.31902865359E+02  0.43269271139E+02  0.41800000000E+01 0.  1.
         -5    1    3    3    0  502 -0.10380447906E+02 -0.24718377373E+02  0.11209106999E+03  0.11532836707E+03  0.41800000000E+01 0.  1.
        -11    1    1    2    0    0  0.47319260853E+02 -0.60043851038E+00 -0.18506339886E+01  0.47359242184E+02  0.00000000000E+00 0.  1.
         11    1    1    2    0    0 -0.20912283637E+02  0.49404391756E+02 -0.40130687704E+02  0.66996937447E+02  0.00000000000E+00 0. -1.
</event>
<event>
 7    1  0.2420569E-009  0.8354611E+02  0.7561462E-02  0.1319279E+00
         -1   -1    0    0    0  501 -0.00000000000E+00  0.00000000000E+00  0.91559898530E+02  0.91559898530E+02  0.00000000000E+00 0.  1.
          1   -1    0    0  501    0  0.00000000000E+00 -0.00000000000E+00 -0.13950479733E+03  0.13950479733E+03  0.00000000000E+00 0. -1.
         25    2    1    2    0    0  0.21953285487E+02  0.40732393615E+01 -0.62231454210E+02  0.14148187355E+03  0.12508328676E+03 0.  0.
          5    1    3    3  502    0  0.22150290551E+02 -0.40367438789E+02  0.18043877599E+02  0.49630831190E+02  0.41800000000E+01 0.  1.
         -5    1    3    3    0  502 -0.19700506405E+00  0.44440678150E+02 -0.80275331809E+02  0.91851042359E+02  0.41800000000E+01 0.  1.
        -11    1    1    2    0    0  0.27024336944E+02 -0.34065729609E+01 -0.16388368774E+02  0.31788333672E+02  0.00000000000E+00 0. -1.
         11    1    1    2    0    0 -0.48977622430E+02 -0.66666640068E+00  0.30674924185E+02  0.57794488637E+02  0.00000000000E+00 0.  1.
</event>
<event>
 7    1  0.2420569E-009  0.9327923E+02  0.7561462E-02  0.1295099E+00
          3   -1    0    0  501    0  0.00000000000E+00  0.00000000000E+00  0.11383475577E+03  0.11383475577E+03  0.00000000000E+00 0. -1.
         -3   -1    0    0    0  501 -0.00000000000E+00 -0.00000000000E+00 -0.17239251630E+03  0.17239251630E+03  0.00000000000E+00 0.  1.
         25    2    1    2    0    0  0.68876030489E+02  0.45129202575E+02  0.37634970889E+01  0.14980649247E+03  0.12508904339E+03 0.  0.
          5    1    3    3  502    0  0.34310690219E+02 -0.12600870298E+02  0.54273330731E+02  0.65567310637E+02  0.41800000000E+01 0.  1.
         -5    1    3    3    0  502  0.34565340270E+02  0.57730072872E+02 -0.50509833642E+02  0.84239181836E+02  0.41800000000E+01 0.  1.
        -11    1    1    2    0    0 -0.86454439109E+01 -0.61273345635E+01  0.22768913458E+02  0.25113967216E+02  0.00000000000E+00 0. -1.
         11    1    1    2    0    0 -0.60230586578E+02 -0.39001868011E+02 -0.85090171075E+02  0.11130681238E+03  0.00000000000E+00 0.  1.
</event>
<event>
 7    1  0.2420569E-009  0.9365652E+02  0.7561462E-02  0.1294231E+00
         -3   -1    0    0    0  501 -0.00000000000E+00  0.00000000000E+00  0.22002709055E+03  0.22002709055E+03  0.00000000000E+00 0.  1.
          3   -1    0    0  501    0  0.00000000000E+00 -0.00000000000E+00 -0.10341770577E+03  0.10341770577E+03  0.00000000000E+00 0. -1.
         25    2    1    2    0    0  0.26260815754E+02 -0.32379873135E+02  0.16623379299E+03  0.21217874413E+03  0.12509220161E+03 0.  0.
          5    1    3    3  502    0 -0.15459710885E+01 -0.64814499766E+02  0.15461151169E+03  0.16770659305E+03  0.41800000000E+01 0.  1.
         -5    1    3    3    0  502  0.27806786842E+02  0.32434626631E+02  0.11622281298E+02  0.44472151081E+02  0.41800000000E+01 0.  1.
        -11    1    1    2    0    0  0.16440721426E+01 -0.20001149171E+02  0.13836989680E+02  0.24376448158E+02  0.00000000000E+00 0.  1.
         11    1    1    2    0    0 -0.27904887896E+02  0.52381022306E+02 -0.63461397885E+02  0.86889604027E+02  0.00000000000E+00 0. -1.
</event>
<event>
 7    1  0.2420569E-009  0.1347928E+03  0.7561462E-02  0.1220513E+00
         -1   -1    0    0    0  501 -0.00000000000E+00  0.00000000000E+00  0.11480499675E+04  0.11480499675E+04  0.00000000000E+00 0.  1.
          1   -1    0    0  501    0  0.00000000000E+00 -0.00000000000E+00 -0.16517606707E+02  0.16517606707E+02  0.00000000000E+00 0. -1.
         25    2    1    2    0    0  0.75295011561E+02  0.32157324345E+02  0.64888970795E+03  0.66588954512E+03  0.12509037106E+03 0.  0.
          5    1    3    3  502    0  0.10336216533E+03  0.51098517836E+02  0.50334895262E+03  0.51640336584E+03  0.41800000000E+01 0.  1.
         -5    1    3    3    0  502 -0.28067153771E+02 -0.18941193491E+02  0.14554075533E+03  0.14948617927E+03  0.41800000000E+01 0.  1.
        -11    1    1    2    0    0 -0.66745310954E+02  0.18063009939E+02  0.20354521345E+03  0.21496944616E+03  0.00000000000E+00 0. -1.
         11    1    1    2    0    0 -0.85497006069E+01 -0.50220334284E+02  0.27909743936E+03  0.28370858290E+03  0.00000000000E+00 0.  1.
</event>
<event>
 7    1  0.2420569E-009  0.7226525E+02  0.7561462E-02  0.1352555E+00
          2   -1    0    0  501    0  0.00000000000E+00  0.00000000000E+00  0.74571770394E+02  0.74571770394E+02  0.00000000000E+00 0.  1.
         -2   -1    0    0    0  501 -0.00000000000E+00 -0.00000000000E+00 -0.29697298335E+03  0.29697298335E+03  0.00000000000E+00 0. -1.
         25    2    1    2    0    0  0.69439900012E+01 -0.34910953483E+02 -0.23864793905E+03  0.27178670290E+03  0.12509268320E+03 0.  0.
          5    1    3    3  502    0  0.19175694763E+02  0.18515322641E+02 -0.93763973441E-01  0.26981579529E+02  0.41800000000E+01 0.  1.
         -5    1    3    3    0  502 -0.12231704762E+02 -0.53426276124E+02 -0.23855417508E+03  0.24480512337E+03  0.41800000000E+01 0.  1.
        -11    1    1    2    0    0  0.78866544109E+01 -0.11451530552E+02  0.42314653269E+02  0.44540619114E+02  0.00000000000E+00 0.  1.
         11    1    1    2    0    0 -0.14830644412E+02  0.46362484035E+02 -0.26067927169E+02  0.55217431727E+02  0.00000000000E+00 0. -1.
</event>
<event>
 7    1  0.2420569E-009  0.2012669E+03  0.7561462E-02  0.1148675E+00
          1   -1    0    0  501    0  0.00000000000E+00  0.00000000000E+00  0.50457837274E+03  0.50457837274E+03  0.00000000000E+00 0. -1.
         -1   -1    0    0    0  501 -0.00000000000E+00 -0.00000000000E+00 -0.10848249460E+03  0.10848249460E+03  0.00000000000E+00 0.  1.
         25    2    1    2    0    0  0.15397065965E+03  0.78073040748E+02  0.35349115150E+03  0.41280277158E+03  0.12509104807E+03 0.  0.
          5    1    3    3  502    0 -0.10937018940E+02  0.36346813369E+02  0.35450412144E+02  0.52104830357E+02  0.41800000000E+01 0.  1.
         -5    1    3    3    0  502  0.16490767859E+03  0.41726227379E+02  0.31804073936E+03  0.36069794122E+03  0.41800000000E+01 0.  1.
        -11    1    1    2    0    0 -0.15036619653E+03 -0.94352880370E+02  0.45684994466E+02  0.18330187618E+03  0.00000000000E+00 0.  1.
         11    1    1    2    0    0 -0.36044631178E+01  0.16279839622E+02 -0.30802678296E+01  0.16956219578E+02  0.00000000000E+00 0. -1.
</event>
<event>
 7    1  0.2420569E-009  0.1179771E+03  0.7561462E-02  0.1246472E+00
          2   -1    0    0  501    0  0.00000000000E+00  0.00000000000E+00  0.13099475817E+02  0.13099475817E+02  0.00000000000E+00 0.  1.
         -2   -1    0    0    0  501 -0.00000000000E+00 -0.00000000000E+00 -0.11596765232E+04  0.11596765232E+04  0.00000000000E+00 0. -1.
         25    2    1    2    0    0 -0.54663884091E+02 -0.12448164776E+01 -0.75106276636E+03  0.76336872957E+03  0.12508736335E+03 0.  0.
          5    1    3    3  502    0  0.34014666318E+02  0.25028531667E+02 -0.18669548989E+03  0.19145783679E+03  0.41800000000E+01 0. -1.
         -5    1    3    3    0  502 -0.88678550409E+02 -0.26273348145E+02 -0.56436727647E+03  0.57191089278E+03  0.41800000000E+01 0. -1.
        -11    1    1    2    0    0  0.23371266690E+02 -0.41696840910E+02 -0.12725029112E+03  0.13593189191E+03  0.00000000000E+00 0.  1.
         11    1    1    2    0    0  0.31292617401E+02  0.42941657387E+02 -0.26826398986E+03  0.27347537750E+03  0.00000000000E+00 0. -1.
</event>
<event>
 7    1  0.2420569E-009  0.1735724E+03  0.7561462E-02  0.1174173E+00
          1   -1    0    0  501    0  0.00000000000E+00  0.00000000000E+00  0.92562523860E+02  0.92562523860E+02  0.00000000000E+00 0. -1.
         -1   -1    0    0    0  501 -0.00000000000E+00 -0.00000000000E+00 -0.43212223969E+03  0.43212223969E+03  0.00000000000E+00 0.  1.
         25    2    1    2    0    0  0.13545002602E+03  0.65272308356E+02 -0.80581290470E+02  0.21153825791E+03  0.12509159203E+03 0.  0.
          5    1    3    3  502    0  0.49876611089E+01  0.58191913432E+02 -0.11293097606E+01  0.58565546977E+02  0.41800000000E+01 0. -1.
         -5    1    3    3    0  502  0.13046236492E+03  0.70803949243E+01 -0.79451980709E+02  0.15297271093E+03  0.41800000000E+01 0. -1.
        -11    1    1    2    0    0 -0.55757141316E+02 -0.14604524506E+01 -0.32094553311E+02  0.64351006840E+02  0.00000000000E+00 0. -1.
         11    1    1    2    0    0 -0.79692884709E+02 -0.63811855905E+02 -0.22688387205E+03  0.24879549880E+03  0.00000000000E+00 0.  1.
</event>
<event>
 7    1  0.2420569E-009  0.1305372E+03  0.7561462E-02  0.1226661E+00
          1   -1    0    0  501    0  0.00000000000E+00  0.00000000000E+00  0.20375593361E+04  0.20375593361E+04  0.00000000000E+00 0. -1.
         -1   -1    0    0    0  501 -0.00000000000E+00 -0.00000000000E+00 -0.17717474346E+02  0.17717474346E+02  0.00000000000E+00 0.  1.
         25    2    1    2    0    0 -0.53853655111E+02  0.72561468378E+02  0.17445201318E+04  0.17513318675E+04  0.12508971590E+03 0.  0.
          5    1    3    3  502    0 -0.48933275131E+02  0.98156608350E+02  0.16348303950E+04  0.16385106280E+04  0.41800000000E+01 0. -1.
         -5    1    3    3    0  502 -0.49203799801E+01 -0.25595139973E+02  0.10968973677E+03  0.11282123949E+03  0.41800000000E+01 0. -1.
        -11    1    1    2    0    0 -0.13918492505E+02 -0.52393812244E+02  0.83993211212E+02  0.99968472654E+02  0.00000000000E+00 0. -1.
         11    1    1    2    0    0  0.67772147616E+02 -0.20167656134E+02  0.19132851875E+03  0.20397647029E+03  0.00000000000E+00 0.  1.
</event>
<event>
 7    1  0.2420569E-009  0.1564167E+03  0.7561462E-02  0.1192803E+00
         -2   -1    0    0    0  501 -0.00000000000E+00  0.00000000000E+00  0.65539540373E+02  0.65539540373E+02  0.00000000000E+00 0. -1.
          2   -1    0    0  501    0  0.00000000000E+00 -0.00000000000E+00 -0.53065832690E+03  0.53065832690E+03  0.00000000000E+00 0.  1.
         25    2    1    2    0    0 -0.98174653353E+02 -0.78795597828E+02 -0.37759805516E+03  0.41722162825E+03  0.12508631828E+03 0.  0.
          5    1    3    3  502    0 -0.52002071019E+02  0.28753662047E+02 -0.14631604254E+03  0.15797735653E+03  0.41800000000E+01 0. -1.
         -5    1    3    3    0  502 -0.46172582335E+02 -0.10754925988E+03 -0.23128201262E+03  0.25924427172E+03  0.41800000000E+01 0. -1.
        -11    1    1    2    0    0  0.95063487413E+01  0.36854423174E+02  0.11337659547E+02  0.39713495160E+02  0.00000000000E+00 0. -1.
         11    1    1    2    0    0  0.88668304612E+02  0.41941174654E+02 -0.98858390920E+02  0.13926274387E+03  0.00000000000E+00 0.  1.
</event>
<event>
 7    1  0.2420569E-009  0.2097128E+03  0.7561462E-02  0.1141794E+00
          3   -1    0    0  501    0  0.00000000000E+00  0.00000000000E+00  0.26884640805E+03  0.26884640805E+03  0.00000000000E+00 0. -1.
         -3   -1    0    0    0  501 -0.00000000000E+00 -0.00000000000E+00 -0.18996994938E+03  0.18996994938E+03  0.00000000000E+00 0.  1.
         25    2    1    2    0    0  0.16412174846E+03  0.87571550860E+02 -0.27178237305E+02  0.22581185308E+03  0.12509041358E+03 0.  0.
          5    1    3    3  502    0  0.12025017105E+03  0.11939823563E+03 -0.15553088487E+02  0.17022165922E+03  0.41800000000E+01 0. -1.
         -5    1    3    3    0  502  0.43871577415E+02 -0.31826684765E+02 -0.11625148818E+02  0.55590193857E+02  0.41800000000E+01 0. -1.
        -11    1    1    2    0    0 -0.87946694636E+02 -0.12905148783E+02  0.99756175283E+01  0.89446503049E+02  0.00000000000E+00 0. -1.
         11    1    1    2    0    0 -0.76175053826E+02 -0.74666402077E+02  0.96079078446E+02  0.14355800131E+03  0.00000000000E+00 0.  1.
</event>
<event>
 7    1  0.2420569E-009  0.9828580E+02  0.7561462E-02  0.1283943E+00
          2   -1    0    0  501    0  0.00000000000E+00  0.00000000000E+00  0.45216899023E+03  0.45216899023E+03  0.00000000000E+00 0. -1.
         -2   -1    0    0    0  501 -0.00000000000E+00 -0.00000000000E+00 -0.29828601667E+02  0.29828601667E+02  0.00000000000E+00 0.  1.
         25    2    1    2    0    0 -0.13781784459E+02 -0.39464376462E+02  0.25941121195E+03  0.29100848349E+03  0.12507751991E+03 0.  0.
          5    1    3    3  502    0  0.48611796283E+01 -0.73416673952E+02  0.85916745302E+02  0.11319363323E+03  0.41800000000E+01 0.  1.
         -5    1    3    3    0  502 -0.18642964087E+02  0.33952297490E+02  0.17349446665E+03  0.17781485026E+03  0.41800000000E+01 0.  1.
        -11    1    1    2    0    0  0.29724967723E+02 -0.10457457698E+02  0.16720607435E+02  0.35672269912E+02  0.00000000000E+00 0.  1.
         11    1    1    2    0    0 -0.15943183264E+02  0.49921834160E+02  0.14620856918E+03  0.15531683850E+03  0.00000000000E+00 0. -1.
</event>
<event>
 7    1  0.2420569E-009  0.2316687E+03  0.7561462E-02  0.1125471E+00
          2   -1    0    0  501    0  0.00000000000E+00  0.00000000000E+00  0.41740921282E+03  0.41740921282E+03  0.00000000000E+00 0. -1.
         -2   -1    0    0    0  501 -0.00000000000E+00 -0.00000000000E+00 -0.17456930626E+03  0.17456930626E+03  0.00000000000E+00 0.  1.
         25    2    1    2    0    0  0.13724231091E+03 -0.16515811153E+03 -0.97299301984E+01  0.24870935741E+03  0.12509603995E+03 0.  0.
          5    1    3    3  502    0  0.75806385420E+02 -0.15491101757E+03 -0.43250295019E+02  0.17785413083E+03  0.41800000000E+01 0.  1.
         -5    1    3    3    0  502  0.61435925490E+02 -0.10247093963E+02  0.33520364820E+02  0.70855226576E+02  0.41800000000E+01 0.  1.
        -11    1    1    2    0    0 -0.26614854099E+02  0.91989613590E+02  0.13818542698E+03  0.16812391768E+03  0.00000000000E+00 0.  1.
         11    1    1    2    0    0 -0.11062745681E+03  0.73168497945E+02  0.11438440978E+03  0.17514524399E+03  0.00000000000E+00 0. -1.
</event>
<event>
 7    1  0.2420569E-009  0.2049465E+03  0.7561462E-02  0.1145631E+00
          1   -1    0    0  501    0  0.00000000000E+00  0.00000000000E+00  0.22741407803E+03  0.22741407803E+03  0.00000000000E+00 0. -1.
         -1   -1    0    0    0  501 -0.00000000000E+00 -0.00000000000E+00 -0.23149651904E+03  0.23149651904E+03  0.00000000000E+00 0.  1.
         25    2    1    2    0    0  0.78935078838E+02 -0.16806406190E+03  0.76643884516E+02  0.23664004436E+03  0.12509176627E+03 0.  0.
          5    1    3    3  502    0  0.99873153658E+02 -0.12351976914E+03  0.93594271583E+02  0.18441567250E+03  0.41800000000E+01 0. -1.
         -5    1    3    3    0  502 -0.20938074820E+02 -0.44544292762E+02 -0.16950387067E+02  0.52224371864E+02  0.41800000000E+01 0. -1.
        -11    1    1    2    0    0 -0.91118152742E+02  0.11279925850E+03 -0.80139045529E+02  0.16567575893E+03  0.00000000000E+00 0.  1.
         11    1    1    2    0    0  0.12183073904E+02  0.55264803398E+02 -0.58727999862E+00  0.56594793773E+02  0.00000000000E+00 0. -1.
</event>
<event>
 7    1  0.2420569E-009  0.2164456E+03  0.7561462E-02  0.1136561E+00
          2   -1    0    0  501    0  0.00000000000E+00  0.00000000000E+00  0.30901546761E+04  0.30901546761E+04  0.00000000000E+00 0. -1.
         -2   -1    0    0    0  501 -0.00000000000E+00 -0.00000000000E+00 -0.18829933302E+02  0.18829933302E+02  0.00000000000E+00 0.  1.
         25    2    1    2    0    0  0.28063899703E+02 -0.20187322504E+03  0.20185896031E+04  0.20327055613E+04  0.12509009447E+03 0.  0.
          5    1    3    3  502    0  0.50624370425E+02 -0.17278406132E+03  0.12163059093E+04  0.12295668734E+04  0.41800000000E+01 0.  1.
         -5    1    3    3    0  502 -0.22560470722E+02 -0.29089163717E+02  0.80228369381E+03  0.80313868792E+03  0.41800000000E+01 0.  1.
        -11    1    1    2    0    0  0.23922372768E+02  0.71209197229E+02  0.24045772566E+03  0.25191853350E+03  0.00000000000E+00 0.  1.
         11    1    1    2    0    0 -0.51986272471E+02  0.13066402781E+03  0.81227741406E+03  0.82436051463E+03  0.00000000000E+00 0. -1.
</event>
<event>
 7    1  0.2420569E-009  0.1702107E+03  0.7561462E-02  0.1177628E+00
         -1   -1    0    0    0  501 -0.00000000000E+00  0.00000000000E+00  0.46389762500E+02  0.46389762500E+02  0.00000000000E+00 0.  1.
          1   -1    0    0  501    0  0.00000000000E+00 -0.00000000000E+00 -0.97704201902E+03  0.97704201902E+03  0.00000000000E+00 0. -1.
         25    2    1    2    0    0 -0.71984870553E+02  0.13622243000E+03 -0.71859413135E+03  0.74549568147E+03  0.12509162022E+03 0.  0.
          5    1    3    3  502    0 -0.35513540043E+02  0.18457699707E+02 -0.42688511536E+03  0.42877764904E+03  0.41800000000E+01 0.  1.
         -5    1    3    3    0  502 -0.36471330510E+02  0.11776473030E+03 -0.29170901599E+03  0.31671803242E+03  0.41800000000E+01 0.  1.
        -11    1    1    2    0    0  0.77555939897E+02 -0.54207555585E+02 -0.88690892802E+02  0.12968985065E+03  0.00000000000E+00 0.  1.
         11    1    1    2    0    0 -0.55710693442E+01 -0.82014874419E+02 -0.12336723237E+03  0.14824624941E+03  0.00000000000E+00 0. -1.
</event>
<event>
 7    1  0.2420569E-009  0.5050566E+03  0.7561462E-02  0.1012467E+00
         -1   -1    0    0    0  501 -0.00000000000E+00  0.00000000000E+00  0.24037723322E+03  0.24037723322E+03  0.00000000000E+00 0.  1.
          1   -1    0    0  501    0  0.00000000000E+00 -0.00000000000E+00 -0.11265953061E+04  0.11265953061E+04  0.00000000000E+00 0. -1.
         25    2    1    2    0    0  0.40477395248E+03  0.29271479486E+03 -0.54539849591E+03  0.75008710816E+03  0.12508895533E+03 0.  0.
          5    1    3    3  502    0  0.26977045296E+03  0.16865860086E+03 -0.42417881197E+03  0.53025178723E+03  0.41800000000E+01 0. -1.
         -5    1    3    3    0  502  0.13500349953E+03  0.12405619400E+03 -0.12121968394E+03  0.21983532093E+03  0.41800000000E+01 0. -1.
        -11    1    1    2    0    0 -0.20027815189E+03 -0.86628648388E+02 -0.19192136978E+03  0.29060225915E+03  0.00000000000E+00 0.  1.
         11    1    1    2    0    0 -0.20449580059E+03 -0.20608614647E+03 -0.14889820718E+03  0.32628317200E+03  0.00000000000E+00 0. -1.
</event>
<event>
 7    1  0.2420569E-009  0.6654815E+02  0.7561462E-02  0.1372241E+00
         -2   -1    0    0    0  501 -0.00000000000E+00  0.00000000000E+00  0.43893347797E+02  0.43893347797E+02  0.00000000000E+00 0.  1.
          2   -1    0    0  501    0  0.00000000000E+00 -0.00000000000E+00 -0.36546127250E+03  0.36546127250E+03  0.00000000000E+00 0. -1.
         25    2    1    2    0    0 -0.74052190990E+01  0.63700910444E+02 -0.20353888704E+03  0.24736328334E+03  0.12509145513E+03 0.  0.
          5    1    3    3  502    0  0.56452105223E+01  0.46182766871E+02 -0.43272273719E+01  0.46913896176E+02  0.41800000000E+01 0. -1.
         -5    1    3    3    0  502 -0.13050429621E+02  0.17518143572E+02 -0.19921165966E+03  0.20044938716E+03  0.41800000000E+01 0. -1.
        -11    1    1    2    0    0  0.39518014357E+01 -0.39071475374E+02  0.20883046183E+01  0.39326300852E+02  0.00000000000E+00 0.  1.
         11    1    1    2    0    0  0.34534176632E+01 -0.24629435070E+02 -0.12011734229E+03  0.12266503611E+03  0.00000000000E+00 0. -1.
</event>
<event>
 7    1  0.2420569E-009  0.1186803E+03  0.7561462E-02  0.1245290E+00
          1   -1    0    0  501    0  0.00000000000E+00  0.00000000000E+00  0.65402867435E+02  0.65402867435E+02  0.00000000000E+00 0. -1.
         -1   -1    0    0    0  501 -0.00000000000E+00 -0.00000000000E+00 -0.26703067420E+03  0.26703067420E+03  0.00000000000E+00 0.  1.
         25    2    1    2    0    0  0.72067170642E+02  0.13550234124E+02 -0.93292716517E+02  0.17241941957E+03  0.12509052467E+03 0.  0.
          5    1    3    3  502    0  0.85130716861E+02 -0.17461745570E+02 -0.10516699954E+03  0.13649073853E+03  0.41800000000E+01 0.  1.
         -5    1    3    3    0  502 -0.13063546219E+02  0.31011979694E+02  0.11874283024E+02  0.35928681045E+02  0.41800000000E+01 0.  1.
        -11    1    1    2    0    0 -0.26448221424E+02  0.38833166744E+02 -0.55648551966E+02  0.72830519645E+02  0.00000000000E+00 0. -1.
         11    1    1    2    0    0 -0.45618949219E+02 -0.52383400867E+02 -0.52686538286E+02  0.87183602419E+02  0.00000000000E+00 0.  1.
</event>
<event>
 7    1  0.3177152E-009  0.1147114E+03  0.7561462E-02  0.1252086E+00
         -2   -1    0    0    0  501 -0.00000000000E+00  0.00000000000E+00  0.29455239640E+02  0.29455239640E+02  0.00000000000E+00 0.  1.
          2   -1    0    0  501    0  0.00000000000E+00 -0.00000000000E+00 -0.48488073340E+03  0.48488073340E+03  0.00000000000E+00 0. -1.
         25    2    1    2    0    0  0.40166452042E+02 -0.21439470709E+02 -0.21435258601E+03  0.25232603883E+03  0.12509358084E+03 0.  0.
          5    1    3    3  502    0  0.64005558330E+02 -0.58353240959E+02 -0.11890042311E+03  0.14716179954E+03  0.41800000000E+01 0. -1.
         -5    1    3    3    0  502 -0.23839106289E+02  0.36913770250E+02 -0.95452162902E+02  0.10516423929E+03  0.41800000000E+01 0. -1.
        -11    1    1    2    0    0 -0.53827692397E+02  0.45775563136E+02 -0.13558258767E+03  0.15289035525E+03  0.00000000000E+00 0.  1.
         11    1    1    2    0    0  0.13661240355E+02 -0.24336092427E+02 -0.10549032008E+03  0.10911957896E+03  0.00000000000E+00 0. -1.
</event>
<event>
 7    1  0.2568319E-009  0.6178060E+02  0.7561462E-02  0.1390508E+00
          2   -1    0    0  501    0  0.00000000000E+00  0.00000000000E+00  0.22883039696E+03  0.22883039696E+03  0.00000000000E+00 0. -1.
         -2   -1    0    0    0  501 -0.00000000000E+00 -0.00000000000E+00 -0.57492946050E+02  0.57492946050E+02  0.00000000000E+00 0.  1.
         25    2    1    2    0    0 -0.15362434752E+02 -0.24492874960E+02  0.69828440046E+02  0.14614762527E+03  0.12508881648E+03 0.  0.
          5    1    3    3  502    0  0.52755376675E+01 -0.10697119653E+02  0.10340923208E+03  0.10417869910E+03  0.41800000000E+01 0.  1.
         -5    1    3    3    0  502 -0.20637972420E+02 -0.13795755307E+02 -0.33580792038E+02  0.41968926172E+02  0.41800000000E+01 0.  1.
        -11    1    1    2    0    0  0.47898529765E+02  0.58614747912E+01  0.87926934589E+02  0.10029841408E+03  0.00000000000E+00 0. -1.
         11    1    1    2    0    0 -0.32536095013E+02  0.18631400169E+02  0.13582076274E+02  0.39877303656E+02  0.00000000000E+00 0.  1.
</event>
<event>
 7    1  0.2420569E-009  0.1347479E+03  0.7561462E-02  0.1220576E+00
          1   -1    0    0  501    0  0.00000000000E+00  0.00000000000E+00  0.14586654715E+04  0.14586654715E+04  0.00000000000E+00 0. -1.
         -1   -1    0    0    0  501 -0.00000000000E+00 -0.00000000000E+00 -0.18553684558E+02  0.18553684558E+02  0.00000000000E+00 0.  1.
         25    2    1    2    0    0 -0.11503156365E+03  0.28609413259E+02  0.90832614259E+03  0.92452808537E+03  0.12508013498E+03 0.  0.
          5    1    3    3  502    0 -0.36245023144E+02  0.13078553595E+02  0.70225634986E+03  0.70332510519E+03  0.41800000000E+01 0.  1.
         -5    1    3    3    0  502 -0.78786540508E+02  0.15530859663E+02  0.20606979273E+03  0.22120298018E+03  0.41800000000E+01 0.  1.
        -11    1    1    2    0    0 -0.74205168611E+01  0.17869889550E+02  0.79656784325E+02  0.81973168244E+02  0.00000000000E+00 0.  1.
         11    1    1    2    0    0  0.12245208051E+03 -0.46479302808E+02  0.45212886006E+03  0.47071790247E+03  0.00000000000E+00 0. -1.
</event>
<event>
 7    1  0.2420569E-009  0.1007450E+03  0.7561462E-02  0.1278737E+00
          3   -1    0    0  501    0  0.00000000000E+00  0.00000000000E+00  0.39962506784E+03  0.39962506784E+03  0.00000000000E+00 0. -1.
         -3   -1    0    0    0  501 -0.00000000000E+00 -0.00000000000E+00 -0.38042352171E+02  0.38042352171E+02  0.00000000000E+00 0.  1.
         25    2    1    2    0    0 -0.24193550665E+02 -0.46035888335E+02  0.25810279421E+03  0.29149466230E+03  0.12508978720E+03 0.  0.
          5    1    3    3  502    0  0.72324457545E+01  0.36407212768E+02  0.13439637823E+03  0.13949068891E+03  0.41800000000E+01 0.  1.
         -5    1    3    3    0  502 -0.31425996419E+02 -0.82443101102E+02  0.12370641599E+03  0.15200397339E+03  0.41800000000E+01 0.  1.
        -11    1    1    2    0    0  0.36566334874E+02  0.10297499964E+02  0.10141540150E+03  0.10829690214E+03  0.00000000000E+00 0. -1.
         11    1    1    2    0    0 -0.12372784209E+02  0.35738388370E+02  0.20645199570E+01  0.37875855569E+02  0.00000000000E+00 0.  1.
</event>
<event>
 7    1  0.2420569E-009  0.2147194E+03  0.7561462E-02  0.1137882E+00
          2   -1    0    0  501    0  0.00000000000E+00  0.00000000000E+00  0.16601071628E+04  0.16601071628E+04  0.00000000000E+00 0. -1.
         -2   -1    0    0    0  501 -0.00000000000E+00 -0.00000000000E+00 -0.32895721351E+02  0.32895721351E+02  0.00000000000E+00 0.  1.
         25    2    1    2    0    0  0.20835216257E+03 -0.53615052828E+01  0.80471247114E+03  0.84062378428E+03  0.12508723398E+03 0.  0.
          5    1    3    3  502    0  0.48737879247E+02 -0.60446193817E+01  0.43660738399E+03  0.43938069877E+03  0.41800000000E+01 0. -1.
         -5    1    3    3    0  502  0.15961428332E+03  0.68311409890E+00  0.36810508715E+03  0.40124308551E+03  0.41800000000E+01 0. -1.
        -11    1    1    2    0    0 -0.29126708319E+02 -0.25384389292E+02  0.20721867925E+03  0.21078973738E+03  0.00000000000E+00 0. -1.
         11    1    1    2    0    0 -0.17922545425E+03  0.30745894575E+02  0.61528029102E+03  0.64158936244E+03  0.00000000000E+00 0.  1.
</event>
<event>
 7    1  0.2420569E-009  0.1060431E+03  0.7561462E-02  0.1268078E+00
          2   -1    0    0  501    0  0.00000000000E+00  0.00000000000E+00  0.73554518578E+03  0.73554518578E+03  0.00000000000E+00 0. -1.
         -2   -1    0    0    0  501 -0.00000000000E+00 -0.00000000000E+00 -0.17399613797E+02  0.17399613797E+02  0.00000000000E+00 0.  1.
         25    2    1    2    0    0  0.20481843513E+02  0.13339046935E+02  0.47438292457E+03  0.49120836539E+03  0.12509621502E+03 0.  0.
          5    1    3    3  502    0  0.31454135406E+02 -0.51309830449E+02  0.26390802783E+03  0.27071568276E+03  0.41800000000E+01 0.  1.
         -5    1    3    3    0  502 -0.10972291893E+02  0.64648877384E+02  0.21047489674E+03  0.22049268263E+03  0.41800000000E+01 0.  1.
        -11    1    1    2    0    0  0.50621624275E+01 -0.45048947211E+02  0.70983518283E+02  0.84224064263E+02  0.00000000000E+00 0.  1.
         11    1    1    2    0    0 -0.25544005940E+02  0.31709900276E+02  0.17277912913E+03  0.17751236993E+03  0.00000000000E+00 0. -1.
</event>
<event>
 7    1  0.2420569E-009  0.2553865E+03  0.7561462E-02  0.1109947E+00
          1   -1    0    0  501    0  0.00000000000E+00  0.00000000000E+00  0.15341856724E+04  0.15341856724E+04  0.00000000000E+00 0.  1.
         -1   -1    0    0    0  501 -0.00000000000E+00 -0.00000000000E+00 -0.51599235736E+02  0.51599235736E+02  0.00000000000E+00 0. -1.
         25    2    1    2    0    0  0.23181588978E+03 -0.58113500606E+02  0.47481620677E+03  0.54608945469E+03  0.12508987412E+03 0.  0.
          5    1    3    3  502    0  0.62234008530E+02 -0.64836440631E+02  0.99383454345E+02  0.13405737297E+03  0.41800000000E+01 0. -1.
         -5    1    3    3    0  502  0.16958188125E+03  0.67229400244E+01  0.37543275242E+03  0.41203208171E+03  0.41800000000E+01 0. -1.
        -11    1    1    2    0    0 -0.64252719573E+02  0.53174360741E+02  0.43385625678E+03  0.44179992775E+03  0.00000000000E+00 0. -1.
         11    1    1    2    0    0 -0.16756317020E+03  0.49391398659E+01  0.57391397313E+03  0.59789552571E+03  0.00000000000E+00 0.  1.
</event>
<event>
 7    1  0.2420569E-009  0.7877869E+02  0.7561462E-02  0.1332554E+00
          1   -1    0    0  501    0  0.00000000000E+00  0.00000000000E+00  0.15165723760E+04  0.15165723760E+04  0.00000000000E+00 0. -1.
         -1   -1    0    0    0  501 -0.00000000000E+00 -0.00000000000E+00 -0.15186706044E+02  0.15186706044E+02  0.00000000000E+00 0.  1.
         25    2    1    2    0    0  0.45670895384E+02 -0.29585083995E+01  0.13183174614E+04  0.13250295980E+04  0.12509165935E+03 0.  0.
          5    1    3    3  502    0  0.43885392529E+02  0.12225914554E+02  0.13000075579E+04  0.13008122554E+04  0.41800000000E+01 0. -1.
         -5    1    3    3    0  502  0.17855028553E+01 -0.15184422953E+02  0.18309903422E+02  0.24217342633E+02  0.41800000000E+01 0. -1.
        -11    1    1    2    0    0 -0.49674771013E+02  0.36838324954E+02  0.11395993114E+03  0.12965921088E+03  0.00000000000E+00 0.  1.
         11    1    1    2    0    0  0.40038756281E+01 -0.33879816554E+02  0.69108277452E+02  0.77070273142E+02  0.00000000000E+00 0. -1.
</event>
<event>
 7    1  0.2420569E-009  0.1503008E+03  0.7561462E-02  0.1200104E+00
          2   -1    0    0  501    0  0.00000000000E+00  0.00000000000E+00  0.53823816781E+03  0.53823816781E+03  0.00000000000E+00 0.  1.
         -2   -1    0    0    0  501 -0.00000000000E+00 -0.00000000000E+00 -0.62451272316E+02  0.62451272316E+02  0.00000000000E+00 0. -1.
         25    2    1    2    0    0 -0.20017877633E+02 -0.14445089401E+03  0.28958110337E+03  0.34752180991E+03  0.12508963478E+03 0.  0.
          5    1    3    3  502    0  0.66003861575E+01 -0.67711582392E+02  0.28173527410E+02  0.73753939110E+02  0.41800000000E+01 0. -1.
         -5    1    3    3    0  502 -0.26618263790E+02 -0.76739311621E+02  0.26140757596E+03  0.27376787080E+03  0.41800000000E+01 0. -1.
        -11    1    1    2    0    0 -0.51362294224E+01  0.99227319992E+02  0.58326479593E+02  0.11521466967E+03  0.00000000000E+00 0. -1.
         11    1    1    2    0    0  0.25154107055E+02  0.45223574021E+02  0.12787931253E+03  0.13795296055E+03  0.00000000000E+00 0.  1.
</event>
<event>
 7    1  0.2420569E-009  0.2063540E+03  0.7561462E-02  0.1144486E+00
          1   -1    0    0  501    0  0.00000000000E+00  0.00000000000E+00  0.23538359175E+03  0.23538359175E+03  0.00000000000E+00 0. -1.
         -1   -1    0    0    0  501 -0.00000000000E+00 -0.00000000000E+00 -0.21142644275E+03  0.21142644275E+03  0.00000000000E+00 0.  1.
         25    2    1    2    0    0 -0.50381684647E+02 -0.18340127515E+03 -0.27323216135E+02  0.22927721623E+03  0.12508853612E+03 0.  0.
          5    1    3    3  502    0 -0.65980484762E+02 -0.13355069466E+03  0.29575011452E+02  0.15192552819E+03  0.41800000000E+01 0.  1.
         -5    1    3    3    0  502  0.15598800115E+02 -0.49850580493E+02 -0.56898227587E+02  0.77351688043E+02  0.41800000000E+01 0.  1.
        -11    1    1    2    0    0  0.73590634583E+02  0.96602636950E+02  0.25934931433E+02  0.12417838633E+03  0.00000000000E+00 0.  1.
         11    1    1    2    0    0 -0.23208949936E+02  0.86798638203E+02  0.25345433708E+02  0.93354431930E+02  0.00000000000E+00 0. -1.
</event>
<event>
 7    1  0.2420569E-009  0.6889327E+02  0.7561462E-02  0.1363897E+00
         -1   -1    0    0    0  501 -0.00000000000E+00  0.00000000000E+00  0.70579969925E+02  0.70579969925E+02  0.00000000000E+00 0.  1.
          1   -1    0    0  501    0  0.00000000000E+00 -0.00000000000E+00 -0.18792733243E+03  0.18792733243E+03  0.00000000000E+00 0. -1.
         25    2    1    2    0    0 -0.21095742367E+01  0.80599398425E+01 -0.26290409570E+02  0.12809103385E+03  0.12508682738E+03 0.  0.
          5    1    3    3  502    0  0.19058472093E+02  0.50401824712E+02 -0.51189563926E+02  0.74440668641E+02  0.41800000000E+01 0. -1.
         -5    1    3    3    0  502 -0.21168046330E+02 -0.42341884869E+02  0.24899154356E+02  0.53650365212E+02  0.41800000000E+01 0. -1.
        -11    1    1    2    0    0 -0.16042075598E+02  0.71066723704E+00  0.15291511815E+02  0.22173939005E+02  0.00000000000E+00 0.  1.
         11    1    1    2    0    0  0.18151649835E+02 -0.87706070795E+01 -0.10634846475E+03  0.10824232950E+03  0.00000000000E+00 0. -1.
</event>
<event>
 7    1  0.2420569E-009  0.2568024E+03  0.7561462E-02  0.1109080E+00
         -1   -1    0    0    0  501 -0.00000000000E+00  0.00000000000E+00  0.63713348653E+03  0.63713348653E+03  0.00000000000E+00 0.  1.
          1   -1    0    0  501    0  0.00000000000E+00 -0.00000000000E+00 -0.11167342556E+03  0.11167342556E+03  0.00000000000E+00 0. -1.
         25    2    1    2    0    0  0.21423202055E+03 -0.92490973431E+02  0.17227990183E+03  0.31587695260E+03  0.12509174959E+03 0.  0.
          5    1    3    3  502    0  0.62370538004E+02 -0.92904292858E+02  0.85789071839E+02  0.14106214549E+03  0.41800000000E+01 0.  1.
         -5    1    3    3    0  502  0.15186148254E+03  0.41331942626E+00  0.86490829989E+02  0.17481480711E+03  0.41800000000E+01 0.  1.
        -11    1    1    2    0    0 -0.40011491254E+02  0.60563253766E+02  0.88625468119E+02  0.11455697595E+03  0.00000000000E+00 0.  1.
         11    1    1    2    0    0 -0.17422052929E+03  0.31927719666E+02  0.26455469102E+03  0.31837298354E+03  0.00000000000E+00 0. -1.
</event>
<event>
 7    1  0.2420569E-009  0.8844876E+02  0.7561462E-02  0.1306652E+00
          2   -1    0    0  501    0  0.00000000000E+00  0.00000000000E+00  0.31041977206E+03  0.31041977206E+03  0.00000000000E+00 0.  1.
         -2   -1    0    0    0  501 -0.00000000000E+00 -0.00000000000E+00 -0.46029802084E+02  0.46029802084E+02  0.00000000000E+00 0. -1.
         25    2    1    2    0    0  0.17145874788E+02  0.34903341515E+02  0.19834210673E+03  0.23769560941E+03  0.12508951659E+03 0.  0.
          5    1    3    3  502    0 -0.11156706337E+02  0.53660745806E+02  0.23913647900E+02  0.59943996302E+02  0.41800000000E+01 0.  1.
         -5    1    3    3    0  502  0.28302581125E+02 -0.18757404292E+02  0.17442845883E+03  0.17775161311E+03  0.41800000000E+01 0.  1.
        -11    1    1    2    0    0  0.14613434238E+02  0.19714057083E+02  0.46569558176E+02  0.52639531301E+02  0.00000000000E+00 0. -1.
         11    1    1    2    0    0 -0.31759309026E+02 -0.54617398598E+02  0.19478305071E+02  0.66114433430E+02  0.00000000000E+00 0.  1.
</event>
<event>
 7    1  0.2420569E-009  0.1478828E+03  0.7561462E-02  0.1203099E+00
         -1   -1    0    0    0  501 -0.00000000000E+00  0.00000000000E+00  0.29580147822E+02  0.29580147822E+02  0.00000000000E+00 0.  1.
          1   -1    0    0  501    0  0.00000000000E+00 -0.00000000000E+00 -0.86575598688E+03  0.86575598688E+03  0.00000000000E+00 0. -1.
         25    2    1    2    0    0 -0.10890221061E+03 -0.44979095736E+02 -0.41484904771E+03  0.44903221411E+03  0.12508951353E+03 0.  0.
          5    1    3    3  502    0 -0.10594015303E+03  0.13415319535E+02 -0.32157693959E+03  0.33886942515E+03  0.41800000000E+01 0. -1.
         -5    1    3    3    0  502 -0.29620575805E+01 -0.58394415271E+02 -0.93272108120E+02  0.11016278897E+03  0.41800000000E+01 0. -1.
        -11    1    1    2    0    0  0.83829845089E+02  0.61455344476E+01 -0.35898859073E+03  0.36869773365E+03  0.00000000000E+00 0. -1.
         11    1    1    2    0    0  0.25072365525E+02  0.38833561288E+02 -0.62338200615E+02  0.77606186939E+02  0.00000000000E+00 0.  1.
</event>
<event>
 7    1  0.2420569E-009  0.1048102E+03  0.7561462E-02  0.1270494E+00
         -2   -1    0    0    0  501 -0.00000000000E+00  0.00000000000E+00  0.24148997800E+02  0.24148997800E+02  0.00000000000E+00 0.  1.
          2   -1    0    0  501    0  0.00000000000E+00 -0.00000000000E+00 -0.71992763640E+03  0.71992763640E+03  0.00000000000E+00 0. -1.
         25    2    1    2    0    0 -0.57373659199E+02 -0.32571784473E+02 -0.27639234486E+03  0.31047136267E+03  0.12508829213E+03 0.  0.
          5    1    3    3  502    0  0.18403953499E+01  0.30406317958E+02 -0.13283109935E+02  0.33493949250E+02  0.41800000000E+01 0. -1.
         -5    1    3    3    0  502 -0.59214054549E+02 -0.62978102431E+02 -0.26310923493E+03  0.27697741342E+03  0.41800000000E+01 0. -1.
        -11    1    1    2    0    0  0.46791656753E+02  0.52155070935E+02 -0.39247698931E+03  0.39868257763E+03  0.00000000000E+00 0. -1.
         11    1    1    2    0    0  0.10582002446E+02 -0.19583286462E+02 -0.26909304425E+02  0.34922693898E+02  0.00000000000E+00 0.  1.
</event>
<event>
 7    1  0.2420569E-009  0.1187623E+03  0.7561462E-02  0.1245153E+00
          2   -1    0    0  501    0  0.00000000000E+00  0.00000000000E+00  0.11279600138E+03  0.11279600138E+03  0.00000000000E+00 0. -1.
         -2   -1    0    0    0  501 -0.00000000000E+00 -0.00000000000E+00 -0.16495910257E+03  0.16495910257E+03  0.00000000000E+00 0.  1.
         25    2    1    2    0    0  0.26886375121E+02  0.60713036048E+02 -0.78546801288E+02  0.16194023050E+03  0.12508432495E+03 0.  0.
          5    1    3    3  502    0 -0.37576417291E+02  0.64305728799E+02 -0.27409952225E+02  0.79473214191E+02  0.41800000000E+01 0. -1.
         -5    1    3    3    0  502  0.64462792412E+02 -0.35926927513E+01 -0.51136849063E+02  0.82467016309E+02  0.41800000000E+01 0. -1.
        -11    1    1    2    0    0 -0.43142466462E+02 -0.90659544333E+01 -0.16162056704E+02  0.46953977671E+02  0.00000000000E+00 0.  1.
         11    1    1    2    0    0  0.16256091341E+02 -0.51647081615E+02  0.42545756801E+02  0.68860895774E+02  0.00000000000E+00 0. -1.
</event>
<event>
 7    1  0.2420569E-009  0.6905205E+02  0.7561462E-02  0.1363347E+00
          1   -1    0    0  501    0  0.00000000000E+00  0.00000000000E+00  0.29170721428E+03  0.29170721428E+03  0.00000000000E+00 0. -1.
         -1   -1    0    0    0  501 -0.00000000000E+00 -0.00000000000E+00 -0.43838577054E+02  0.43838577054E+02  0.00000000000E+00 0.  1.
         25    2    1    2    0    0  0.22632377962E+02 -0.23160627139E+02  0.12114237277E+03  0.17711712321E+03  0.12508541751E+03 0.  0.
          5    1    3    3  502    0  0.41483939730E+02  0.45323803944E+01 -0.88066703871E+01  0.42854282993E+02  0.41800000000E+01 0.  1.
         -5    1    3    3    0  502 -0.18851561768E+02 -0.27693007533E+02  0.12994904315E+03  0.13426284022E+03  0.41800000000E+01 0.  1.
        -11    1    1    2    0    0 -0.28316902154E+02  0.37493506300E+02  0.13354492682E+03  0.14156926729E+03  0.00000000000E+00 0. -1.
         11    1    1    2    0    0  0.56845241922E+01 -0.14332879161E+02 -0.68186623526E+01  0.16859400838E+02  0.00000000000E+00 0.  1.
</event>
<event>
 7    1  0.2420569E-009  0.1003850E+03  0.7561462E-02  0.1279488E+00
         -2   -1    0    0    0  501 -0.00000000000E+00  0.00000000000E+00  0.18006091579E+02  0.18006091579E+02  0.00000000000E+00 0.  1.
          2   -1    0    0  501    0  0.00000000000E+00 -0.00000000000E+00 -0.66330546689E+03  0.66330546689E+03  0.00000000000E+00 0. -1.
         25    2    1    2    0    0  0.13332138172E+02 -0.41899284909E+01 -0.43820020680E+03  0.45591897744E+03  0.12508953329E+03 0.  0.
          5    1    3    3  502    0 -0.41576679974E+02  0.31753534338E+02 -0.11968380831E+03  0.13068509338E+03  0.41800000000E+01 0.  1.
         -5    1    3    3    0  502  0.54908818146E+02 -0.35943462829E+02 -0.31851639849E+03  0.32523388406E+03  0.41800000000E+01 0.  1.
        -11    1    1    2    0    0 -0.40315846188E+02  0.25879646676E+02 -0.76334184071E+02  0.90122312574E+02  0.00000000000E+00 0.  1.
         11    1    1    2    0    0  0.26983708016E+02 -0.21689718185E+02 -0.13076498443E+03  0.13527026845E+03  0.00000000000E+00 0. -1.
</event>
<event>
 7    1  0.2420569E-009  0.8643960E+02  0.7561462E-02  0.1311710E+00
          2   -1    0    0  501    0  0.00000000000E+00  0.00000000000E+00  0.33845744473E+03  0.33845744473E+03  0.00000000000E+00 0. -1.
         -2   -1    0    0    0  501 -0.00000000000E+00 -0.00000000000E+00 -0.44003766156E+02  0.44003766156E+02  0.00000000000E+00 0.  1.
         25    2    1    2    0    0 -0.19302519034E+02  0.29484433309E+02  0.95065646909E+02  0.16101483409E+03  0.12508549287E+03 0.  0.
          5    1    3    3  502    0  0.17188187310E+02 -0.12961046833E+02 -0.22077708112E+02  0.31117842365E+02  0.41800000000E+01 0.  1.
         -5    1    3    3    0  502 -0.36490706343E+02  0.42445480142E+02  0.11714335502E+03  0.12989699173E+03  0.41800000000E+01 0.  1.
        -11    1    1    2    0    0  0.31446086851E+02  0.24262073313E+02  0.64634990325E+02  0.75862945857E+02  0.00000000000E+00 0. -1.
         11    1    1    2    0    0 -0.12143567817E+02 -0.53746506622E+02  0.13475304134E+03  0.14558343094E+03  0.00000000000E+00 0.  1.
</event>
<event>
 7    1  0.2420569E-009  0.1082113E+03  0.7561462E-02  0.1263918E+00
          2   -1    0    0  501    0  0.00000000000E+00  0.00000000000E+00  0.65934598567E+03  0.65934598567E+03  0.00000000000E+00 0. -1.
         -2   -1    0    0    0  501 -0.00000000000E+00 -0.00000000000E+00 -0.19011565291E+02  0.19011565291E+02  0.00000000000E+00 0.  1.
         25    2    1    2    0    0  0.21548948093E+02  0.92479736791E+01  0.33711213988E+03  0.36033087577E+03  0.12507542924E+03 0.  0.
          5    1    3    3  502    0  0.46899869149E+02  0.52385910354E+02  0.13738304411E+03  0.15438735226E+03  0.41800000000E+01 0. -1.
         -5    1    3    3    0  502 -0.25350921055E+02 -0.43137936675E+02  0.19972909577E+03  0.20594352351E+03  0.41800000000E+01 0. -1.
        -11    1    1    2    0    0 -0.32421480748E+02  0.36461456754E+02  0.14631322172E+03  0.15423407241E+03  0.00000000000E+00 0.  1.
         11    1    1    2    0    0  0.10872532655E+02 -0.45709430433E+02  0.15690905878E+03  0.16379260278E+03  0.00000000000E+00 0. -1.
</event>
<event>
 7    1  0.2420569E-009  0.1116992E+03  0.7561462E-02  0.1257455E+00
         -2   -1    0    0    0  501 -0.00000000000E+00  0.00000000000E+00  0.15772952040E+03  0.15772952040E+03  0.00000000000E+00 0.  1.
          2   -1    0    0  501    0  0.00000000000E+00 -0.00000000000E+00 -0.10401307224E+03  0.10401307224E+03  0.00000000000E+00 0. -1.
         25    2    1    2    0    0 -0.20520035513E+02 -0.71064652281E+02  0.14773045215E+02  0.14606992040E+03  0.12508765774E+03 0.  0.
          5    1    3    3  502    0 -0.20151568579E+02 -0.10358775759E+03  0.30177558024E+02  0.10983927644E+03  0.41800000000E+01 0.  1.
         -5    1    3    3    0  502 -0.36846693471E+00  0.32523105313E+02 -0.15404512809E+02  0.36230643963E+02  0.41800000000E+01 0.  1.
        -11    1    1    2    0    0  0.21566652923E+02  0.97474623991E+01 -0.19720255232E+02  0.30806200804E+02  0.00000000000E+00 0. -1.
         11    1    1    2    0    0 -0.10466174100E+01  0.61317189882E+02  0.58663658175E+02  0.84866471434E+02  0.00000000000E+00 0.  1.
</event>
<event>
 7    1  0.2420569E-009  0.8547641E+02  0.7561462E-02  0.1314191E+00
         -3   -1    0    0    0  501 -0.00000000000E+00  0.00000000000E+00  0.32193833912E+02  0.32193833912E+02  0.00000000000E+00 0.  1.
          3   -1    0    0  501    0  0.00000000000E+00 -0.00000000000E+00 -0.38723149717E+03  0.38723149717E+03  0.00000000000E+00 0. -1.
         25    2    1    2    0    0 -0.15612628136E+02 -0.25116617065E+02 -0.18612097822E+03  0.22619297347E+03  0.12509054363E+03 0.  0.
          5    1    3    3  502    0 -0.56327156079E+02 -0.48488429153E+02 -0.14765015836E+03  0.16535391721E+03  0.41800000000E+01 0. -1.
         -5    1    3    3    0  502  0.40714527943E+02  0.23371812088E+02 -0.38470819858E+02  0.60839056259E+02  0.41800000000E+01 0. -1.
        -11    1    1    2    0    0 -0.12596833514E+02  0.16845097646E+01  0.63241562366E+01  0.14195518301E+02  0.00000000000E+00 0.  1.
         11    1    1    2    0    0  0.28209461650E+02  0.23432107300E+02 -0.17524084128E+03  0.17903683931E+03  0.00000000000E+00 0. -1.
</event>
<event>
 7    1  0.2420569E-009  0.1271494E+03  0.7561462E-02  0.1231748E+00
         -2   -1    0    0    0  501 -0.00000000000E+00  0.00000000000E+00  0.25225079119E+03  0.25225079119E+03  0.00000000000E+00 0.  1.
          2   -1    0    0  501    0  0.00000000000E+00 -0.00000000000E+00 -0.86693522356E+02  0.86693522356E+02  0.00000000000E+00 0. -1.
         25    2    1    2    0    0  0.68415454254E+02 -0.45512785263E+02  0.15628718615E+03  0.21639209602E+03  0.12509103349E+03 0.  0.
          5    1    3    3  502    0  0.95954675716E+02 -0.14066939264E+02  0.14202522518E+03  0.17202853123E+03  0.41800000000E+01 0.  1.
         -5    1    3    3    0  502 -0.27539221461E+02 -0.31445846000E+02  0.14261960974E+02  0.44363564782E+02  0.41800000000E+01 0.  1.
        -11    1    1    2    0    0 -0.44796400704E+02  0.68769390125E+02 -0.12322233303E+02  0.82992674182E+02  0.00000000000E+00 0. -1.
         11    1    1    2    0    0 -0.23619053551E+02 -0.23256604862E+02  0.21592315986E+02  0.39559543349E+02  0.00000000000E+00 0.  1.
</event>
<event>
 7    1  0.2420569E-009  0.1028790E+03  0.7561462E-02  0.1274356E+00
         -1   -1    0    0    0  501 -0.00000000000E+00  0.00000000000E+00  0.24987045633E+02  0.24987045633E+02  0.00000000000E+00 0.  1.
          1   -1    0    0  501    0  0.00000000000E+00 -0.00000000000E+00 -0.50866254339E+03  0.50866254339E+03  0.00000000000E+00 0. -1.
         25    2    1    2    0    0  0.23753976528E+02 -0.16518462172E+01 -0.21743912425E+03  0.25197598406E+03  0.12508054922E+03 0.  0.
          5    1    3    3  502    0  0.63254700362E+02 -0.24504275529E+02 -0.69942893468E+02  0.97524855210E+02  0.41800000000E+01 0.  1.
         -5    1    3    3    0  502 -0.39500723834E+02  0.22852429312E+02 -0.14749623078E+03  0.15445112885E+03  0.41800000000E+01 0.  1.
        -11    1    1    2    0    0  0.24255376592E+02  0.28128439123E+02 -0.10788992468E+03  0.11410419900E+03  0.00000000000E+00 0.  1.
         11    1    1    2    0    0 -0.48009353119E+02 -0.26476592906E+02 -0.15834644882E+03  0.16756940596E+03  0.00000000000E+00 0. -1.
</event>
<event>
 7    1  0.2420569E-009  0.1165635E+03  0.7561462E-02  0.1248876E+00
         -2   -1    0    0    0  501 -0.00000000000E+00  0.00000000000E+00  0.95906841109E+02  0.95906841109E+02  0.00000000000E+00 0.  1.
          2   -1    0    0  501    0  0.00000000000E+00 -0.00000000000E+00 -0.23058392328E+03  0.23058392328E+03  0.00000000000E+00 0. -1.
         25    2    1    2    0    0  0.33496317702E+02 -0.83651336994E+02 -0.12187783755E+03  0.19652202024E+03  0.12508855932E+03 0.  0.
          5    1    3    3  502    0 -0.73544564375E+01 -0.58340350039E+02  0.65696298932E+01  0.59315401955E+02  0.41800000000E+01 0. -1.
         -5    1    3    3    0  502  0.40850774140E+02 -0.25310986955E+02 -0.12844746744E+03  0.13720661828E+03  0.41800000000E+01 0. -1.
        -11    1    1    2    0    0  0.29887470631E+02  0.35073185161E+02  0.95132091930E+01  0.47051996421E+02  0.00000000000E+00 0.  1.
         11    1    1    2    0    0 -0.63383788333E+02  0.48578151833E+02 -0.22312453816E+02  0.82916747731E+02  0.00000000000E+00 0. -1.
</event>
<event>
 7    1  0.2420569E-009  0.1485927E+03  0.7561462E-02  0.1202213E+00
         -1   -1    0    0    0  501 -0.00000000000E+00  0.00000000000E+00  0.51994148213E+02  0.51994148213E+02  0.00000000000E+00 0.  1.
          1   -1    0    0  501    0  0.00000000000E+00 -0.00000000000E+00 -0.48315513618E+03  0.48315513618E+03  0.00000000000E+00 0. -1.
         25    2    1    2    0    0  0.11342825808E+03  0.12993006590E+02 -0.20374773663E+03  0.26494275070E+03  0.12508690187E+03 0.  0.
          5    1    3    3  502    0 -0.10282211626E+02 -0.34898859158E+02 -0.45359235504E+02  0.58297400388E+02  0.41800000000E+01 0.  1.
         -5    1    3    3    0  502  0.12371046970E+03  0.47891865748E+02 -0.15838850112E+03  0.20664535031E+03  0.41800000000E+01 0.  1.
        -11    1    1    2    0    0 -0.93746131589E+02  0.13630764306E+02 -0.21482555163E+03  0.23478533293E+03  0.00000000000E+00 0.  1.
         11    1    1    2    0    0 -0.19682126488E+02 -0.26623770896E+02 -0.12587699713E+02  0.35421200768E+02  0.00000000000E+00 0. -1.
</event>
<event>
 7    1  0.2420569E-009  0.3700501E+03  0.7561462E-02  0.1054674E+00
          2   -1    0    0  501    0  0.00000000000E+00  0.00000000000E+00  0.13369719020E+04  0.13369719020E+04  0.00000000000E+00 0. -1.
         -2   -1    0    0    0  501 -0.00000000000E+00 -0.00000000000E+00 -0.11185453222E+03  0.11185453222E+03  0.00000000000E+00 0.  1.
         25    2    1    2    0    0  0.35994814877E+03 -0.23385336369E+02  0.78476973832E+03  0.87270798821E+03  0.12508455842E+03 0.  0.
          5    1    3    3  502    0  0.22310528515E+03 -0.70626553878E+02  0.43122701829E+03  0.49065088615E+03  0.41800000000E+01 0. -1.
         -5    1    3    3    0  502  0.13684286363E+03  0.47241217509E+02  0.35354272003E+03  0.38205710207E+03  0.41800000000E+01 0. -1.
        -11    1    1    2    0    0 -0.21252668611E+03  0.23263094003E+02  0.32462077900E+03  0.38869964498E+03  0.00000000000E+00 0. -1.
         11    1    1    2    0    0 -0.14742146266E+03  0.12224236573E+00  0.11572685249E+03  0.18741880104E+03  0.00000000000E+00 0.  1.
</event>
<event>
 7    1  0.2420569E-009  0.1089510E+03  0.7561462E-02  0.1262525E+00
          4   -1    0    0  501    0  0.00000000000E+00  0.00000000000E+00  0.69651589557E+03  0.69651589557E+03  0.00000000000E+00 0. -1.
         -4   -1    0    0    0  501 -0.00000000000E+00 -0.00000000000E+00 -0.29069701289E+02  0.29069701289E+02  0.00000000000E+00 0.  1.
         25    2    1    2    0    0 -0.60944128928E+02  0.71858064951E+01  0.54423299584E+03  0.56178557186E+03  0.12509057650E+03 0.  0.
          5    1    3    3  502    0 -0.47942841370E+02 -0.44840600085E+02  0.43588913749E+03  0.44082423713E+03  0.41800000000E+01 0. -1.
         -5    1    3    3    0  502 -0.13001287557E+02  0.52026406580E+02  0.10834385835E+03  0.12096133474E+03  0.41800000000E+01 0. -1.
        -11    1    1    2    0    0 -0.37994532676E+01  0.25519213515E+02  0.67730492952E+02  0.72478174501E+02  0.00000000000E+00 0.  1.
         11    1    1    2    0    0  0.64743582195E+02 -0.32705020010E+02  0.55482705489E+02  0.91321850494E+02  0.00000000000E+00 0. -1.
</event>
<event>
 7    1  0.2420569E-009  0.2022530E+03  0.7561462E-02  0.1147852E+00
         -1   -1    0    0    0  501 -0.00000000000E+00  0.00000000000E+00  0.20656195270E+03  0.20656195270E+03  0.00000000000E+00 0.  1.
          1   -1    0    0  501    0  0.00000000000E+00 -0.00000000000E+00 -0.21493559715E+03  0.21493559715E+03  0.00000000000E+00 0. -1.
         25    2    1    2    0    0  0.13122954706E+03  0.12584421276E+03 -0.73067877950E+01  0.22080262892E+03  0.12506978804E+03 0.  0.
          5    1    3    3  502    0  0.92351981321E+02  0.14299007943E+03 -0.29301417843E+02  0.17277469941E+03  0.41800000000E+01 0.  1.
         -5    1    3    3    0  502  0.38877565743E+02 -0.17145866664E+02  0.21994630048E+02  0.48027929508E+02  0.41800000000E+01 0.  1.
        -11    1    1    2    0    0 -0.83891815557E+02 -0.38745350503E+02 -0.30459572603E+02  0.97297607710E+02  0.00000000000E+00 0. -1.
         11    1    1    2    0    0 -0.47337731507E+02 -0.87098862260E+02  0.29392715953E+02  0.10339731323E+03  0.00000000000E+00 0.  1.
</event>
<event>
 7    1  0.2420569E-009  0.1062261E+03  0.7561462E-02  0.1267723E+00
          1   -1    0    0  501    0  0.00000000000E+00  0.00000000000E+00  0.27802915453E+03  0.27802915453E+03  0.00000000000E+00 0. -1.
         -1   -1    0    0    0  501 -0.00000000000E+00 -0.00000000000E+00 -0.53305632950E+02  0.53305632950E+02  0.00000000000E+00 0.  1.
         25    2    1    2    0    0 -0.28263461392E+02  0.11340413318E+02  0.18150900624E+03  0.22253159090E+03  0.12508941354E+03 0.  0.
          5    1    3    3  502    0 -0.71009532448E+02  0.80241464764E+01  0.59309406629E+02  0.92961383057E+02  0.41800000000E+01 0. -1.
         -5    1    3    3    0  502  0.42746071056E+02  0.33162668415E+01  0.12219959961E+03  0.12957020784E+03  0.41800000000E+01 0. -1.
        -11    1    1    2    0    0  0.45048803696E+02 -0.42796499578E+02  0.16613833141E+02  0.64319161548E+02  0.00000000000E+00 0.  1.
         11    1    1    2    0    0 -0.16785342304E+02  0.31456086261E+02  0.26600682205E+02  0.44484035033E+02  0.00000000000E+00 0. -1.
</event>
<event>
 7    1  0.2420569E-009  0.1207265E+03  0.7561462E-02  0.1241903E+00
         -1   -1    0    0    0  501 -0.00000000000E+00  0.00000000000E+00  0.10302930738E+02  0.10302930738E+02  0.00000000000E+00 0.  1.
          1   -1    0    0  501    0  0.00000000000E+00 -0.00000000000E+00 -0.14641511019E+04  0.14641511019E+04  0.00000000000E+00 0. -1.
         25    2    1    2    0    0  0.21075142056E+02 -0.52776260957E+02 -0.89684487555E+03  0.90730805320E+03  0.12509067613E+03 0.  0.
          5    1    3    3  502    0  0.56968266919E+02  0.14659525144E+02 -0.46683883294E+03  0.47054888530E+03  0.41800000000E+01 0.  1.
         -5    1    3    3    0  502 -0.35893124863E+02 -0.67435786101E+02 -0.43000604262E+03  0.43675916790E+03  0.41800000000E+01 0.  1.
        -11    1    1    2    0    0  0.31830476283E+02  0.40766840062E+02 -0.30673150490E+03  0.31106161860E+03  0.00000000000E+00 0.  1.
         11    1    1    2    0    0 -0.52905618339E+02  0.12009420895E+02 -0.25027179069E+03  0.25608436082E+03  0.00000000000E+00 0. -1.
</event>
<event>
 7    1  0.2420569E-009  0.9961622E+02  0.7561462E-02  0.1281105E+00
          1   -1    0    0  501    0  0.00000000000E+00  0.00000000000E+00  0.15907608596E+02  0.15907608596E+02  0.00000000000E+00 0. -1.
         -1   -1    0    0    0  501 -0.00000000000E+00 -0.00000000000E+00 -0.83306636323E+03  0.83306636323E+03  0.00000000000E+00 0.  1.
         25    2    1    2    0    0 -0.32717646555E+02 -0.15419438688E+02 -0.41989409996E+03  0.43962345577E+03  0.12509805834E+03 0.  0.
          5    1    3    3  502    0 -0.35498980339E+02 -0.53153612037E+02 -0.10915463577E+03  0.12656101686E+03  0.41800000000E+01 0. -1.
         -5    1    3    3    0  502  0.27813337837E+01  0.37734173350E+02 -0.31073946418E+03  0.31306243891E+03  0.41800000000E+01 0. -1.
        -11    1    1    2    0    0  0.12048274645E+02  0.52929525168E+02 -0.25801708182E+03  0.26366552688E+03  0.00000000000E+00 0.  1.
         11    1    1    2    0    0  0.20669371911E+02 -0.37510086481E+02 -0.13924757286E+03  0.14568498917E+03  0.00000000000E+00 0. -1.
</event>
<event>
 7    1  0.2420569E-009  0.9542447E+02  0.7561462E-02  0.1290223E+00
         -2   -1    0    0    0  501 -0.00000000000E+00  0.00000000000E+00  0.34747875195E+02  0.34747875195E+02  0.00000000000E+00 0.  1.
          2   -1    0    0  501    0  0.00000000000E+00 -0.00000000000E+00 -0.38672041160E+03  0.38672041160E+03  0.00000000000E+00 0. -1.
         25    2    1    2    0    0 -0.31036112887E+02 -0.17507854882E+02 -0.23702962190E+03  0.27037175353E+03  0.12509227859E+03 0.  0.
          5    1    3    3  502    0 -0.79933253770E+01 -0.61595209055E+02 -0.60082084649E+02  0.86517005987E+02  0.41800000000E+01 0. -1.
         -5    1    3    3    0  502 -0.23042787510E+02  0.44087354173E+02 -0.17694753726E+03  0.18385474755E+03  0.41800000000E+01 0. -1.
        -11    1    1    2    0    0  0.47138475251E+01  0.42272637870E+02 -0.15468112137E+02  0.45259902387E+02  0.00000000000E+00 0.  1.
         11    1    1    2    0    0  0.26322265361E+02 -0.24764782988E+02 -0.99474802366E+02  0.10583663088E+03  0.00000000000E+00 0. -1.
</event>
<event>
 7    1  0.3156101E-009  0.1389485E+03  0.7561462E-02  0.1214751E+00
         -1   -1    0    0    0  501 -0.00000000000E+00  0.00000000000E+00  0.19316551783E+02  0.19316551783E+02  0.00000000000E+00 0.  1.
          1   -1    0    0  501    0  0.00000000000E+00 -0.00000000000E+00 -0.14116640698E+04  0.14116640698E+04  0.00000000000E+00 0. -1.
         25    2    1    2    0    0 -0.10507235484E+03 -0.66219222781E+02 -0.75960726419E+03  0.77979170463E+03  0.12508685611E+03 0.  0.
          5    1    3    3  502    0 -0.90893969149E+02 -0.40691753566E+02 -0.24723632380E+03  0.26657232535E+03  0.41800000000E+01 0. -1.
         -5    1    3    3    0  502 -0.14178385686E+02 -0.25527469215E+02 -0.51237094039E+03  0.51321937927E+03  0.41800000000E+01 0. -1.
        -11    1    1    2    0    0  0.79568406631E+02  0.19641755386E+01 -0.25357489649E+03  0.26577286816E+03  0.00000000000E+00 0.  1.
         11    1    1    2    0    0  0.25503948205E+02  0.64255047242E+02 -0.37916535731E+03  0.38541604878E+03  0.00000000000E+00 0. -1.
</event>
<event>
 7    1  0.2420569E-009  0.2180803E+03  0.7561462E-02  0.1135322E+00
         -1   -1    0    0    0  501 -0.00000000000E+00  0.00000000000E+00  0.10887553737E+03  0.10887553737E+03  0.00000000000E+00 0.  1.
          1   -1    0    0  501    0  0.00000000000E+00 -0.00000000000E+00 -0.59885119564E+03  0.59885119564E+03  0.00000000000E+00 0. -1.
         25    2    1    2    0    0  0.17741321721E+03  0.73017914728E+02 -0.74447568516E+02  0.24082181382E+03  0.12508253293E+03 0.  0.
          5    1    3    3  502    0  0.12342894968E+03  0.10826485743E+03 -0.57726845822E+02  0.17408574353E+03  0.41800000000E+01 0.  1.
         -5    1    3    3    0  502  0.53984267530E+02 -0.35246942700E+02 -0.16720722694E+02  0.66736070291E+02  0.41800000000E+01 0.  1.
        -11    1    1    2    0    0 -0.15185013216E+03 -0.90103079674E+02 -0.30752592871E+03  0.35461137099E+03  0.00000000000E+00 0.  1.
         11    1    1    2    0    0 -0.25563085046E+02  0.17085164946E+02 -0.10800216104E+03  0.11229354820E+03  0.00000000000E+00 0. -1.
</event>
<event>
 7    1  0.2420569E-009  0.8996940E+02  0.7561462E-02  0.1302926E+00
          1   -1    0    0  501    0  0.00000000000E+00  0.00000000000E+00  0.84789948107E+02  0.84789948107E+02  0.00000000000E+00 0. -1.
         -1   -1    0    0    0  501 -0.00000000000E+00 -0.00000000000E+00 -0.20692040626E+03  0.20692040626E+03  0.00000000000E+00 0.  1.
         25    2    1    2    0    0  0.13749675856E+02 -0.45190514397E+02 -0.14643880484E+02  0.13451522566E+03  0.12509463027E+03 0.  0.
          5    1    3    3  502    0  0.56317913978E+02 -0.36567943319E+02  0.28579892516E+02  0.73097226826E+02  0.41800000000E+01 0. -1.
         -5    1    3    3    0  502 -0.42568238122E+02 -0.86225710774E+01 -0.43223773001E+02  0.61417998837E+02  0.41800000000E+01 0. -1.
        -11    1    1    2    0    0  0.16374021526E+02  0.32395565745E+02  0.79922977929E+01  0.37167971224E+02  0.00000000000E+00 0. -1.
         11    1    1    2    0    0 -0.30123697382E+02  0.12794948652E+02 -0.11547887546E+03  0.12002715748E+03  0.00000000000E+00 0.  1.
</event>
<event>
 7    1  0.2420569E-009  0.1454617E+03  0.7561462E-02  0.1206163E+00
          1   -1    0    0  501    0  0.00000000000E+00  0.00000000000E+00  0.97492661236E+03  0.97492661236E+03  0.00000000000E+00 0. -1.
         -1   -1    0    0    0  501 -0.00000000000E+00 -0.00000000000E+00 -0.21819978885E+02  0.21819978885E+02  0.00000000000E+00 0.  1.
         25    2    1    2    0    0  0.38972452097E+02  0.89782153083E+02  0.53527897678E+03  0.55834687763E+03  0.12509182922E+03 0.  0.
          5    1    3    3  502    0 -0.17989908584E+02  0.98714586812E+02  0.31592890217E+03  0.33150678740E+03  0.41800000000E+01 0.  1.
         -5    1    3    3    0  502  0.56962360680E+02 -0.89324337286E+01  0.21935007461E+03  0.22684009023E+03  0.41800000000E+01 0.  1.
        -11    1    1    2    0    0 -0.68305796828E+02 -0.60687136683E+02  0.29220869548E+03  0.30616095792E+03  0.00000000000E+00 0.  1.
         11    1    1    2    0    0  0.29333344732E+02 -0.29095016400E+02  0.12561896121E+03  0.13223875569E+03  0.00000000000E+00 0. -1.
</event>
<event>
 7    1  0.2420569E-009  0.6137678E+02  0.7561462E-02  0.1392143E+00
         -1   -1    0    0    0  501 -0.00000000000E+00  0.00000000000E+00  0.73644323760E+02  0.73644323760E+02  0.00000000000E+00 0.  1.
          1   -1    0    0  501    0  0.00000000000E+00 -0.00000000000E+00 -0.17755189750E+03  0.17755189750E+03  0.00000000000E+00 0. -1.
         25    2    1    2    0    0  0.28170881546E+02  0.21212923902E+02 -0.42208384314E+02  0.13664843907E+03  0.12509061310E+03 0.  0.
          5    1    3    3  502    0  0.25523183573E+02  0.34468923467E+02  0.36625554356E+02  0.56554780670E+02  0.41800000000E+01 0. -1.
         -5    1    3    3    0  502  0.26476979731E+01 -0.13255999565E+02 -0.78833938670E+02  0.80093658396E+02  0.41800000000E+01 0. -1.
        -11    1    1    2    0    0 -0.28818939810E+02  0.12770391284E+02 -0.72358277796E+02  0.78926133510E+02  0.00000000000E+00 0. -1.
         11    1    1    2    0    0  0.64805826332E+00 -0.33983315186E+02  0.10659088366E+02  0.35621648689E+02  0.00000000000E+00 0.  1.
</event>
<event>
 7    1  0.2420569E-009  0.1324462E+03  0.7561462E-02  0.1223871E+00
          2   -1    0    0  501    0  0.00000000000E+00  0.00000000000E+00  0.13662725925E+04  0.13662725925E+04  0.00000000000E+00 0. -1.
         -2   -1    0    0    0  501 -0.00000000000E+00 -0.00000000000E+00 -0.14816131167E+02  0.14816131167E+02  0.00000000000E+00 0.  1.
         25    2    1    2    0    0 -0.96354893018E+02  0.19562917482E+02  0.69557861902E+03  0.71354319360E+03  0.12508917119E+03 0.  0.
          5    1    3    3  502    0  0.19540737337E+02  0.15328803784E+02  0.36622483746E+02  0.44446499939E+02  0.41800000000E+01 0.  1.
         -5    1    3    3    0  502 -0.11589563036E+03  0.42341136981E+01  0.65895613527E+03  0.66909669366E+03  0.41800000000E+01 0.  1.
        -11    1    1    2    0    0  0.15550575196E+02 -0.37755068827E+02  0.18671687964E+03  0.19112942932E+03  0.00000000000E+00 0.  1.
         11    1    1    2    0    0  0.80804317823E+02  0.18192151345E+02  0.46916096264E+03  0.47641610071E+03  0.00000000000E+00 0. -1.
</event>
<event>
 7    1  0.2420569E-009  0.1336614E+03  0.7561462E-02  0.1222122E+00
          1   -1    0    0  501    0  0.00000000000E+00  0.00000000000E+00  0.74761424725E+03  0.74761424725E+03  0.00000000000E+00 0. -1.
         -1   -1    0    0    0  501 -0.00000000000E+00 -0.00000000000E+00 -0.26193301831E+02  0.26193301831E+02  0.00000000000E+00 0.  1.
         25    2    1    2    0    0 -0.42704416577E+02 -0.76442552686E+02  0.35676535365E+03  0.38806780221E+03  0.12509184823E+03 0.  0.
          5    1    3    3  502    0 -0.75491576400E+02 -0.92529572565E+01  0.20825575089E+03  0.22174878918E+03  0.41800000000E+01 0.  1.
         -5    1    3    3    0  502  0.32787159823E+02 -0.67189595430E+02  0.14850960276E+03  0.16631901303E+03  0.41800000000E+01 0.  1.
        -11    1    1    2    0    0 -0.22283152513E+02  0.24136417375E+02  0.18192739446E+03  0.18486936573E+03  0.00000000000E+00 0. -1.
         11    1    1    2    0    0  0.64987569090E+02  0.52306135311E+02  0.18272819731E+03  0.20087038114E+03  0.00000000000E+00 0.  1.
</event>
<event>
 7    1  0.2420569E-009  0.1555302E+03  0.7561462E-02  0.1193838E+00
          2   -1    0    0  501    0  0.00000000000E+00  0.00000000000E+00  0.94170114230E+03  0.94170114230E+03  0.00000000000E+00 0. -1.
         -2   -1    0    0    0  501 -0.00000000000E+00 -0.00000000000E+00 -0.34112847377E+02  0.34112847377E+02  0.00000000000E+00 0.  1.
         25    2    1    2    0    0 -0.14010023531E+03  0.13671388055E+02  0.52802941174E+03  0.56060377030E+03  0.12508614963E+03 0.  0.
          5    1    3    3  502    0 -0.11052189185E+03 -0.22642398255E+02  0.48110679658E+03  0.49417505896E+03  0.41800000000E+01 0. -1.
         -5    1    3    3    0  502 -0.29578343453E+02  0.36313786310E+02  0.46922615156E+02  0.66428711343E+02  0.41800000000E+01 0. -1.
        -11    1    1    2    0    0  0.11396738068E+03 -0.32989339589E+02  0.19848042282E+03  0.23123870487E+03  0.00000000000E+00 0.  1.
         11    1    1    2    0    0  0.26132854623E+02  0.19317951534E+02  0.18107846036E+03  0.18397151451E+03  0.00000000000E+00 0. -1.
</event>
<event>
 7    1  0.2420569E-009  0.7726776E+02  0.7561462E-02  0.1336989E+00
         -3   -1    0    0    0  501 -0.00000000000E+00  0.00000000000E+00  0.71509585258E+02  0.71509585258E+02  0.00000000000E+00 0.  1.
          3   -1    0    0  501    0  0.00000000000E+00 -0.00000000000E+00 -0.18083854832E+03  0.18083854832E+03  0.00000000000E+00 0. -1.
         25    2    1    2    0    0 -0.11593722333E+01  0.28596650438E+02 -0.40184557680E+02  0.13446200845E+03  0.12508445339E+03 0.  0.
          5    1    3    3  502    0 -0.41689099344E+02 -0.49261816150E+01 -0.63935931526E+02  0.76599765075E+02  0.41800000000E+01 0.  1.
         -5    1    3    3    0  502  0.40529727110E+02  0.33522832053E+02  0.23751373846E+02  0.57862243372E+02  0.41800000000E+01 0.  1.
        -11    1    1    2    0    0 -0.17076479327E+02 -0.36046747972E+02  0.58805098743E+01  0.40318166897E+02  0.00000000000E+00 0.  1.
         11    1    1    2    0    0  0.18235851560E+02  0.74500975346E+01 -0.75024915257E+02  0.77567958235E+02  0.00000000000E+00 0. -1.
</event>
<event>
 7    1  0.2420569E-009  0.1340455E+03  0.7561462E-02  0.1221573E+00
          1   -1    0    0  501    0  0.00000000000E+00  0.00000000000E+00  0.10072016894E+03  0.10072016894E+03  0.00000000000E+00 0. -1.
         -1   -1    0    0    0  501 -0.00000000000E+00 -0.00000000000E+00 -0.29258477419E+03  0.29258477419E+03  0.00000000000E+00 0.  1.
         25    2    1    2    0    0  0.46910030568E+02  0.93241416128E+02 -0.19578266652E+03  0.25470152125E+03  0.12508996669E+03 0.  0.
          5    1    3    3  502    0  0.22158514551E+02  0.10235191786E+03 -0.69806019632E+02  0.12592564327E+03  0.41800000000E+01 0. -1.
         -5    1    3    3    0  502  0.24751516017E+02 -0.91105017307E+01 -0.12597664689E+03  0.12877587798E+03  0.41800000000E+01 0. -1.
        -11    1    1    2    0    0 -0.37367315486E+02  0.51560325785E+01  0.11550421407E+02  0.39450135276E+02  0.00000000000E+00 0.  1.
         11    1    1    2    0    0 -0.95427150816E+01 -0.98397448707E+02 -0.76323601379E+01  0.99153286604E+02  0.00000000000E+00 0. -1.
</event>
<event>
 7    1  0.2420569E-009  0.1037466E+03  0.7561462E-02  0.1272609E+00
          1   -1    0    0  501    0  0.00000000000E+00  0.00000000000E+00  0.29291059219E+02  0.29291059219E+02  0.00000000000E+00 0. -1.
         -1   -1    0    0    0  501 -0.00000000000E+00 -0.00000000000E+00 -0.51951311666E+03  0.51951311666E+03  0.00000000000E+00 0.  1.
         25    2    1    2    0    0  0.18134377312E+02 -0.44805330516E+02 -0.35954068764E+03  0.38373670955E+03  0.12509189784E+03 0.  0.
          5    1    3    3  502    0  0.59265265479E+02 -0.36886749755E+02 -0.31411729098E+03  0.32180762715E+03  0.41800000000E+01 0.  1.
         -5    1    3    3    0  502 -0.41130888168E+02 -0.79185807605E+01 -0.45423396662E+02  0.61929082401E+02  0.41800000000E+01 0.  1.
        -11    1    1    2    0    0 -0.17271458178E+02  0.69065110239E+02 -0.11765722994E+03  0.13751914949E+03  0.00000000000E+00 0.  1.
         11    1    1    2    0    0 -0.86291913397E+00 -0.24259779723E+02 -0.13024139869E+02  0.27548316845E+02  0.00000000000E+00 0. -1.
</event>
<event>
 7    1  0.2420569E-009  0.1027405E+03  0.7561462E-02  0.1274636E+00
          1   -1    0    0  501    0  0.00000000000E+00  0.00000000000E+00  0.50310388467E+03  0.50310388467E+03  0.00000000000E+00 0. -1.
         -1   -1    0    0    0  501 -0.00000000000E+00 -0.00000000000E+00 -0.27193856179E+02  0.27193856179E+02  0.00000000000E+00 0.  1.
         25    2    1    2    0    0  0.22716517310E+02 -0.53460467033E+01  0.31717364941E+03  0.34174458153E+03  0.12508243182E+03 0.  0.
          5    1    3    3  502    0 -0.40168447543E+02  0.34226081646E+01  0.23152663502E+03  0.23504738576E+03  0.41800000000E+01 0.  1.
         -5    1    3    3    0  502  0.62884964854E+02 -0.87686548679E+01  0.85647014381E+02  0.10669719577E+03  0.41800000000E+01 0.  1.
        -11    1    1    2    0    0  0.24013723646E+02  0.37547140605E+02  0.61217233064E+02  0.75723155739E+02  0.00000000000E+00 0. -1.
         11    1    1    2    0    0 -0.46730240957E+02 -0.32201093902E+02  0.97519146025E+02  0.11283000359E+03  0.00000000000E+00 0.  1.
</event>
<event>
 7    1  0.2420569E-009  0.1129081E+03  0.7561462E-02  0.1255277E+00
         -1   -1    0    0    0  501 -0.00000000000E+00  0.00000000000E+00  0.41405180165E+02  0.41405180165E+02  0.00000000000E+00 0.  1.
          1   -1    0    0  501    0  0.00000000000E+00 -0.00000000000E+00 -0.48377147132E+03  0.48377147132E+03  0.00000000000E+00 0. -1.
         25    2    1    2    0    0  0.78850203548E+02  0.49987123771E+00 -0.32961681251E+03  0.36126813972E+03  0.12509924547E+03 0.  0.
          5    1    3    3  502    0 -0.23865232949E+02  0.29884306099E+02 -0.11904974296E+03  0.12511168928E+03  0.41800000000E+01 0.  1.
         -5    1    3    3    0  502  0.10271543650E+03 -0.29384434862E+02 -0.21056706955E+03  0.23615645045E+03  0.41800000000E+01 0.  1.
        -11    1    1    2    0    0 -0.26424569215E+02 -0.76646734828E+01  0.10759263473E+02  0.29542627309E+02  0.00000000000E+00 0.  1.
         11    1    1    2    0    0 -0.52425634333E+02  0.71648022451E+01 -0.12350874212E+03  0.13436588446E+03  0.00000000000E+00 0. -1.
</event>
<event>
 7    1  0.2420569E-009  0.1212445E+03  0.7561462E-02  0.1241058E+00
         -2   -1    0    0    0  501 -0.00000000000E+00  0.00000000000E+00  0.17647198471E+02  0.17647198471E+02  0.00000000000E+00 0. -1.
          2   -1    0    0  501    0  0.00000000000E+00 -0.00000000000E+00 -0.10447202609E+04  0.10447202609E+04  0.00000000000E+00 0.  1.
         25    2    1    2    0    0  0.12473239176E+02  0.75249978394E+02 -0.71537611283E+03  0.73022517443E+03  0.12509069354E+03 0.  0.
          5    1    3    3  502    0  0.48013982437E+02 -0.77051854023E+01 -0.37095224669E+03  0.37414937406E+03  0.41800000000E+01 0. -1.
         -5    1    3    3    0  502 -0.35540743261E+02  0.82955163797E+02 -0.34442386615E+03  0.35607580036E+03  0.41800000000E+01 0. -1.
        -11    1    1    2    0    0  0.64237778118E+01 -0.82754856523E+02 -0.29296389961E+03  0.30449544771E+03  0.00000000000E+00 0.  1.
         11    1    1    2    0    0 -0.18897016988E+02  0.75048781290E+01 -0.18733049951E+02  0.27646837202E+02  0.00000000000E+00 0. -1.
</event>
<event>
 7    1  0.2420569E-009  0.2287644E+03  0.7561462E-02  0.1127512E+00
          2   -1    0    0  501    0  0.00000000000E+00  0.00000000000E+00  0.28308151543E+03  0.28308151543E+03  0.00000000000E+00 0. -1.
         -2   -1    0    0    0  501 -0.00000000000E+00 -0.00000000000E+00 -0.23926643307E+03  0.23926643307E+03  0.00000000000E+00 0.  1.
         25    2    1    2    0    0  0.11590754270E+03 -0.16699080452E+03  0.14219735506E+03  0.27782727185E+03  0.12508963965E+03 0.  0.
          5    1    3    3  502    0  0.56917342510E+02  0.14531853714E+01  0.16280922000E+02  0.59365279813E+02  0.41800000000E+01 0. -1.
         -5    1    3    3    0  502  0.58990200193E+02 -0.16844398989E+03  0.12591643306E+03  0.21846199203E+03  0.41800000000E+01 0. -1.
        -11    1    1    2    0    0 -0.35530257682E+02  0.12750645069E+03 -0.74279948594E+02  0.15178209691E+03  0.00000000000E+00 0.  1.
         11    1    1    2    0    0 -0.80377285021E+02  0.39484353824E+02 -0.24102324108E+02  0.92738579737E+02  0.00000000000E+00 0. -1.
</event>
<event>
 7    1  0.2420569E-009  0.1257638E+03  0.7561462E-02  0.1233880E+00
          2   -1    0    0  501    0  0.00000000000E+00  0.00000000000E+00  0.44106066457E+02  0.44106066457E+02  0.00000000000E+00 0. -1.
         -2   -1    0    0    0  501 -0.00000000000E+00 -0.00000000000E+00 -0.59849482946E+03  0.59849482946E+03  0.00000000000E+00 0.  1.
         25    2    1    2    0    0 -0.79695675042E+02 -0.49429425664E+02 -0.48777595490E+03  0.51221763358E+03  0.12508738239E+03 0.  0.
          5    1    3    3  502    0 -0.37442028717E+02  0.41205136804E+02 -0.15707820696E+03  0.16670574170E+03  0.41800000000E+01 0.  1.
         -5    1    3    3    0  502 -0.42253646325E+02 -0.90634562468E+02 -0.33069774794E+03  0.34551189189E+03  0.41800000000E+01 0.  1.
        -11    1    1    2    0    0  0.34839603425E+02  0.10981614939E+02 -0.60917604540E+02  0.71030615767E+02  0.00000000000E+00 0.  1.
         11    1    1    2    0    0  0.44856071618E+02  0.38447810725E+02 -0.56952035613E+01  0.59352646564E+02  0.00000000000E+00 0. -1.
</event>
<event>
 7    1  0.2420569E-009  0.2031708E+03  0.7561462E-02  0.1147091E+00
          2   -1    0    0  501    0  0.00000000000E+00  0.00000000000E+00  0.10974773474E+03  0.10974773474E+03  0.00000000000E+00 0. -1.
         -2   -1    0    0    0  501 -0.00000000000E+00 -0.00000000000E+00 -0.48633854327E+03  0.48633854327E+03  0.00000000000E+00 0.  1.
         25    2    1    2    0    0  0.18223167307E+03 -0.18536059266E+02 -0.84100437019E+02  0.23721938785E+03  0.12509271083E+03 0.  0.
          5    1    3    3  502    0  0.12607990873E+03  0.26042135479E+02 -0.10071025879E+03  0.16350646724E+03  0.41800000000E+01 0. -1.
         -5    1    3    3    0  502  0.56151764344E+02 -0.44578194744E+02  0.16609821771E+02  0.73712920610E+02  0.41800000000E+01 0. -1.
        -11    1    1    2    0    0 -0.15706759008E+03 -0.21393356422E+02 -0.20164681933E+03  0.25649433385E+03  0.00000000000E+00 0. -1.
         11    1    1    2    0    0 -0.25164082995E+02  0.39929415688E+02 -0.90843552183E+02  0.10237255630E+03  0.00000000000E+00 0.  1.
</event>
<event>
 7    1  0.2420569E-009  0.1130517E+03  0.7561462E-02  0.1255021E+00
          2   -1    0    0  501    0  0.00000000000E+00  0.00000000000E+00  0.43036095494E+03  0.43036095494E+03  0.00000000000E+00 0. -1.
         -2   -1    0    0    0  501 -0.00000000000E+00 -0.00000000000E+00 -0.36992638235E+02  0.36992638235E+02  0.00000000000E+00 0.  1.
         25    2    1    2    0    0  0.21221010793E+02 -0.49430474037E+02  0.21125351338E+03  0.25133609124E+03  0.12509228906E+03 0.  0.
          5    1    3    3  502    0 -0.88468177897E+01  0.26804763437E+02  0.13932351007E+03  0.14221559122E+03  0.41800000000E+01 0.  1.
         -5    1    3    3    0  502  0.30067828582E+02 -0.76235237474E+02  0.71930003310E+02  0.10912050002E+03  0.41800000000E+01 0.  1.
        -11    1    1    2    0    0  0.41588767264E+02  0.19312509516E+02  0.61185592716E+02  0.76460939978E+02  0.00000000000E+00 0.  1.
         11    1    1    2    0    0 -0.62809778056E+02  0.30117964521E+02  0.12092921061E+03  0.13955656196E+03  0.00000000000E+00 0. -1.
</event>
<event>
 7    1  0.2420569E-009  0.1096374E+03  0.7561462E-02  0.1261243E+00
         -2   -1    0    0    0  501 -0.00000000000E+00  0.00000000000E+00  0.16488056302E+03  0.16488056302E+03  0.00000000000E+00 0. -1.
          2   -1    0    0  501    0  0.00000000000E+00 -0.00000000000E+00 -0.14764695699E+03  0.14764695699E+03  0.00000000000E+00 0.  1.
         25    2    1    2    0    0 -0.67089134019E+02  0.83442293998E+02  0.50550447112E+02  0.17223949307E+03  0.12509007530E+03 0.  0.
          5    1    3    3  502    0 -0.25757316596E+02  0.55703565970E+02  0.89705781407E+02  0.10877006131E+03  0.41800000000E+01 0. -1.
         -5    1    3    3    0  502 -0.41331817423E+02  0.27738728028E+02 -0.39155334295E+02  0.63469431759E+02  0.41800000000E+01 0. -1.
        -11    1    1    2    0    0  0.45816535805E+02 -0.65764985217E+02 -0.61328233883E+02  0.10092244797E+03  0.00000000000E+00 0.  1.
         11    1    1    2    0    0  0.21272598214E+02 -0.17677308782E+02  0.28011392798E+02  0.39365578962E+02  0.00000000000E+00 0. -1.
</event>
<event>
 7    1  0.2420569E-009  0.1285397E+03  0.7561462E-02  0.1229639E+00
          2   -1    0    0  501    0  0.00000000000E+00  0.00000000000E+00  0.49528298767E+03  0.49528298767E+03  0.00000000000E+00 0. -1.
         -2   -1    0    0    0  501 -0.00000000000E+00 -0.00000000000E+00 -0.47462546035E+02  0.47462546035E+02  0.00000000000E+00 0.  1.
         25    2    1    2    0    0  0.29852206216E+02  0.32369303801E+02  0.21272071330E+03  0.25067094200E+03  0.12508754234E+03 0.  0.
          5    1    3    3  502    0  0.53880259415E+02  0.22133715638E+02  0.21624099529E+03  0.22398800005E+03  0.41800000000E+01 0.  1.
         -5    1    3    3    0  502 -0.24028053199E+02  0.10235588163E+02 -0.35202819880E+01  0.26682941945E+02  0.41800000000E+01 0.  1.
        -11    1    1    2    0    0  0.69400391975E+02 -0.67702331865E+01  0.11142680605E+03  0.13144650460E+03  0.00000000000E+00 0. -1.
         11    1    1    2    0    0 -0.99252598191E+02 -0.25599070615E+02  0.12367292228E+03  0.16062808711E+03  0.00000000000E+00 0.  1.
</event>
<event>
 7    1  0.2420569E-009  0.1262218E+03  0.7561462E-02  0.1233172E+00
          1   -1    0    0  501    0  0.00000000000E+00  0.00000000000E+00  0.76905873292E+03  0.76905873292E+03  0.00000000000E+00 0. -1.
         -1   -1    0    0    0  501 -0.00000000000E+00 -0.00000000000E+00 -0.25201904202E+02  0.25201904202E+02  0.00000000000E+00 0.  1.
         25    2    1    2    0    0  0.54860141129E+02  0.40576288046E+02  0.55552280798E+03  0.57350570923E+03  0.12508852107E+03 0.  0.
          5    1    3    3  502    0 -0.33926918997E+02 -0.92328194269E+01  0.22072205623E+03  0.22354413277E+03  0.41800000000E+01 0.  1.
         -5    1    3    3    0  502  0.88787060125E+02  0.49809107473E+02  0.33480075175E+03  0.34996157647E+03  0.41800000000E+01 0.  1.
        -11    1    1    2    0    0 -0.12846619102E+02  0.30211022519E+02  0.51855181595E+02  0.61373458125E+02  0.00000000000E+00 0. -1.
         11    1    1    2    0    0 -0.42013522027E+02 -0.70787310565E+02  0.13647883915E+03  0.15938146977E+03  0.00000000000E+00 0.  1.
</event>
<event>
 7    1  0.2420569E-009  0.1524237E+03  0.7561462E-02  0.1197526E+00
         -2   -1    0    0    0  501 -0.00000000000E+00  0.00000000000E+00  0.28672130292E+03  0.28672130292E+03  0.00000000000E+00 0.  1.
          2   -1    0    0  501    0  0.00000000000E+00 -0.00000000000E+00 -0.10565051889E+03  0.10565051889E+03  0.00000000000E+00 0. -1.
         25    2    1    2    0    0 -0.62100323854E+02  0.11278217499E+03  0.51458030774E+02  0.18674150687E+03  0.12509273456E+03 0.  0.
          5    1    3    3  502    0 -0.33540897573E+02  0.13421202345E+03  0.58241286597E+02  0.15015784666E+03  0.41800000000E+01 0. -1.
         -5    1    3    3    0  502 -0.28559426281E+02 -0.21429848464E+02 -0.67832558226E+01  0.36583660208E+02  0.41800000000E+01 0. -1.
        -11    1    1    2    0    0  0.37430578755E+01 -0.23743010743E+02  0.88172596935E+02  0.91390086397E+02  0.00000000000E+00 0.  1.
         11    1    1    2    0    0  0.58357265978E+02 -0.89039164245E+02  0.41440156321E+02  0.11424022854E+03  0.00000000000E+00 0. -1.
</event>
<event>
 7    1  0.2420569E-009  0.1115820E+03  0.7561462E-02  0.1257668E+00
          1   -1    0    0  501    0  0.00000000000E+00  0.00000000000E+00  0.21022375165E+03  0.21022375165E+03  0.00000000000E+00 0. -1.
         -1   -1    0    0    0  501 -0.00000000000E+00 -0.00000000000E+00 -0.77729906887E+02  0.77729906887E+02  0.00000000000E+00 0.  1.
         25    2    1    2    0    0 -0.22410155494E+01  0.41626979783E+02  0.13389051141E+03  0.18791255972E+03  0.12508650390E+03 0.  0.
          5    1    3    3  502    0 -0.32069874426E+02  0.72907021796E+02  0.51974311781E+02  0.95198278125E+02  0.41800000000E+01 0.  1.
         -5    1    3    3    0  502  0.29828858876E+02 -0.31280042013E+02  0.81916199633E+02  0.92714281600E+02  0.41800000000E+01 0.  1.
        -11    1    1    2    0    0 -0.40917277560E+02 -0.39341845959E+02  0.77235837136E+00  0.56767957369E+02  0.00000000000E+00 0.  1.
         11    1    1    2    0    0  0.43158293109E+02 -0.22851338234E+01 -0.21690250247E+01  0.43273141442E+02  0.00000000000E+00 0. -1.
</event>
<event>
 7    1  0.2420569E-009  0.1547040E+03  0.7561462E-02  0.1194809E+00
         -3   -1    0    0    0  501 -0.00000000000E+00  0.00000000000E+00  0.48299908176E+03  0.48299908176E+03  0.00000000000E+00 0.  1.
          3   -1    0    0  501    0  0.00000000000E+00 -0.00000000000E+00 -0.70904728056E+02  0.70904728056E+02  0.00000000000E+00 0. -1.
         25    2    1    2    0    0  0.12736555069E+03 -0.35071018474E+02  0.11088239889E+03  0.21305951500E+03  0.12508993048E+03 0.  0.
          5    1    3    3  502    0  0.11367616156E+03  0.23922802824E+02  0.95487717740E+02  0.15043253253E+03  0.41800000000E+01 0.  1.
         -5    1    3    3    0  502  0.13689389130E+02 -0.58993821298E+02  0.15394681153E+02  0.62626982475E+02  0.41800000000E+01 0.  1.
        -11    1    1    2    0    0 -0.48938427574E+02  0.18391374649E+02  0.35237335628E+02  0.63046666661E+02  0.00000000000E+00 0. -1.
         11    1    1    2    0    0 -0.78427123119E+02  0.16679643825E+02  0.26597461918E+03  0.27779762816E+03  0.00000000000E+00 0.  1.
</event>
<event>
 7    1  0.2420569E-009  0.1841839E+03  0.7561462E-02  0.1163814E+00
          2   -1    0    0  501    0  0.00000000000E+00  0.00000000000E+00  0.22994194170E+03  0.22994194170E+03  0.00000000000E+00 0. -1.
         -2   -1    0    0    0  501 -0.00000000000E+00 -0.00000000000E+00 -0.17325239420E+04  0.17325239420E+04  0.00000000000E+00 0.  1.
         25    2    1    2    0    0 -0.14006558708E+03  0.57293468583E+02 -0.16923765919E+04  0.17037277968E+04  0.12509582849E+03 0.  0.
          5    1    3    3  502    0 -0.43677974776E+02 -0.39238301671E+02 -0.59223072119E+03  0.59514881275E+03  0.41800000000E+01 0. -1.
         -5    1    3    3    0  502 -0.96387612309E+02  0.96531770254E+02 -0.11001458707E+04  0.11085789840E+04  0.41800000000E+01 0. -1.
        -11    1    1    2    0    0  0.11377374940E+03 -0.79346630247E+02  0.13174322580E+03  0.19130246033E+03  0.00000000000E+00 0. -1.
         11    1    1    2    0    0  0.26291837689E+02  0.22053161664E+02  0.58051365809E+02  0.67435626643E+02  0.00000000000E+00 0.  1.
</event>
<event>
 7    1  0.2420569E-009  0.1377803E+03  0.7561462E-02  0.1216347E+00
          2   -1    0    0  501    0  0.00000000000E+00  0.00000000000E+00  0.43783694915E+03  0.43783694915E+03  0.00000000000E+00 0. -1.
         -2   -1    0    0    0  501 -0.00000000000E+00 -0.00000000000E+00 -0.53636245039E+02  0.53636245039E+02  0.00000000000E+00 0.  1.
         25    2    1    2    0    0  0.31754914616E+02  0.94636253836E+02  0.13893303329E+03  0.21192171731E+03  0.12507610237E+03 0.  0.
          5    1    3    3  502    0  0.58014510862E+00  0.10954641686E+03  0.58455317439E+02  0.12423868380E+03  0.41800000000E+01 0.  1.
         -5    1    3    3    0  502  0.31174769507E+02 -0.14910163028E+02  0.80477715854E+02  0.87683033504E+02  0.41800000000E+01 0.  1.
        -11    1    1    2    0    0 -0.56059516132E+02 -0.90520230111E+02  0.17241487585E+03  0.20264123673E+03  0.00000000000E+00 0.  1.
         11    1    1    2    0    0  0.24304601516E+02 -0.41160237249E+01  0.72852794965E+02  0.76910240152E+02  0.00000000000E+00 0. -1.
</event>
<event>
 7    1  0.2420569E-009  0.1376056E+03  0.7561462E-02  0.1216588E+00
          1   -1    0    0  501    0  0.00000000000E+00  0.00000000000E+00  0.23206074171E+03  0.23206074171E+03  0.00000000000E+00 0. -1.
         -1   -1    0    0    0  501 -0.00000000000E+00 -0.00000000000E+00 -0.11190324364E+03  0.11190324364E+03  0.00000000000E+00 0.  1.
         25    2    1    2    0    0 -0.35017491005E+02  0.10137423915E+03  0.11688330496E+03  0.20201399465E+03  0.12507991851E+03 0.  0.
          5    1    3    3  502    0 -0.22896005134E+02 -0.26707085425E+02  0.32686082142E+02  0.48201118543E+02  0.41800000000E+01 0.  1.
         -5    1    3    3    0  502 -0.12121485871E+02  0.12808132457E+03  0.84197222818E+02  0.15381287610E+03  0.41800000000E+01 0.  1.
        -11    1    1    2    0    0  0.27611383910E+01 -0.52086114458E+02  0.45707640695E+02  0.69352545898E+02  0.00000000000E+00 0. -1.
         11    1    1    2    0    0  0.32256352614E+02 -0.49288124692E+02 -0.42433447583E+02  0.72597444813E+02  0.00000000000E+00 0.  1.
</event>
<event>
 7    1  0.2420569E-009  0.1082801E+03  0.7561462E-02  0.1263788E+00
         -2   -1    0    0    0  501 -0.00000000000E+00  0.00000000000E+00  0.21511718601E+02  0.21511718601E+02  0.00000000000E+00 0.  1.
          2   -1    0    0  501    0  0.00000000000E+00 -0.00000000000E+00 -0.76838144298E+03  0.76838144298E+03  0.00000000000E+00 0. -1.
         25    2    1    2    0    0  0.21874246048E+02 -0.33534626806E+02 -0.58376270790E+03  0.59835526475E+03  0.12508824839E+03 0.  0.
          5    1    3    3  502    0  0.92027229764E+01 -0.79457982934E+02 -0.42748031714E+03  0.43491971110E+03  0.41800000000E+01 0. -1.
         -5    1    3    3    0  502  0.12671523072E+02  0.45923356128E+02 -0.15628239076E+03  0.16343555365E+03  0.41800000000E+01 0. -1.
        -11    1    1    2    0    0 -0.40717916692E+02 -0.93673760320E+01 -0.12285380028E+03  0.12976421971E+03  0.00000000000E+00 0. -1.
         11    1    1    2    0    0  0.18843670644E+02  0.42902002838E+02 -0.40253216201E+02  0.61773677124E+02  0.00000000000E+00 0.  1.
</event>
<event>
 7    1  0.2420569E-009  0.6735425E+02  0.7561462E-02  0.1369328E+00
         -3   -1    0    0    0  501 -0.00000000000E+00  0.00000000000E+00  0.30349456746E+03  0.30349456746E+03  0.00000000000E+00 0.  1.
          3   -1    0    0  501    0  0.00000000000E+00 -0.00000000000E+00 -0.39989580450E+02  0.39989580450E+02  0.00000000000E+00 0. -1.
         25    2    1    2    0    0 -0.10816316697E+02  0.57891774510E+01  0.14570575418E+03  0.19242922730E+03  0.12509329893E+03 0.  0.
          5    1    3    3  502    0  0.15370188435E+02  0.74436584895E+01  0.16087594584E+03  0.16183384410E+03  0.41800000000E+01 0. -1.
         -5    1    3    3    0  502 -0.26186505133E+02 -0.16544810385E+01 -0.15170191660E+02  0.30595383207E+02  0.41800000000E+01 0. -1.
        -11    1    1    2    0    0 -0.28842637195E+02  0.26688964144E+02  0.73321170535E+02  0.83187694859E+02  0.00000000000E+00 0. -1.
         11    1    1    2    0    0  0.39658953892E+02 -0.32478141595E+02  0.44478062291E+02  0.67867225746E+02  0.00000000000E+00 0.  1.
</event>
<event>
 7    1  0.2420569E-009  0.1087044E+03  0.7561462E-02  0.1262988E+00
          2   -1    0    0  501    0  0.00000000000E+00  0.00000000000E+00  0.37448933696E+03  0.37448933696E+03  0.00000000000E+00 0. -1.
         -2   -1    0    0    0  501 -0.00000000000E+00 -0.00000000000E+00 -0.57933894034E+02  0.57933894034E+02  0.00000000000E+00 0.  1.
         25    2    1    2    0    0  0.49348185016E+02  0.53949630991E+01  0.29869363075E+03  0.32761264393E+03  0.12509120840E+03 0.  0.
          5    1    3    3  502    0 -0.34963053542E+00  0.55835382242E+02  0.79588322698E+02  0.97311282293E+02  0.41800000000E+01 0.  1.
         -5    1    3    3    0  502  0.49697815552E+02 -0.50440419143E+02  0.21910530805E+03  0.23030136163E+03  0.41800000000E+01 0.  1.
        -11    1    1    2    0    0 -0.13138397196E+02 -0.38955779677E+02 -0.16878938777E+02  0.44441746426E+02  0.00000000000E+00 0.  1.
         11    1    1    2    0    0 -0.36209787821E+02  0.33560816578E+02  0.34740750953E+02  0.60368840640E+02  0.00000000000E+00 0. -1.
</event>
<event>
 7    1  0.2420569E-009  0.1391735E+03  0.7561462E-02  0.1214445E+00
          2   -1    0    0  501    0  0.00000000000E+00  0.00000000000E+00  0.83622129438E+02  0.83622129438E+02  0.00000000000E+00 0. -1.
         -2   -1    0    0    0  501 -0.00000000000E+00 -0.00000000000E+00 -0.25874941889E+03  0.25874941889E+03  0.00000000000E+00 0.  1.
         25    2    1    2    0    0 -0.24141165640E+02  0.84820789749E+02 -0.14976000595E+03  0.21413103922E+03  0.12508669122E+03 0.  0.
          5    1    3    3  502    0 -0.69385569282E+02  0.81856806494E+02 -0.10113480954E+03  0.14751479958E+03  0.41800000000E+01 0. -1.
         -5    1    3    3    0  502  0.45244403641E+02  0.29639832552E+01 -0.48625196407E+02  0.66616239636E+02  0.41800000000E+01 0. -1.
        -11    1    1    2    0    0  0.27972470682E+02  0.10609771892E+02 -0.97429456787E+01  0.31463492593E+02  0.00000000000E+00 0.  1.
         11    1    1    2    0    0 -0.38313050418E+01 -0.95430561642E+02 -0.15624337821E+02  0.96777016517E+02  0.00000000000E+00 0. -1.
</event>
<event>
 7    1  0.2420569E-009  0.1210994E+03  0.7561462E-02  0.1241294E+00
         -1   -1    0    0    0  501 -0.00000000000E+00  0.00000000000E+00  0.20491539431E+03  0.20491539431E+03  0.00000000000E+00 0.  1.
          1   -1    0    0  501    0  0.00000000000E+00 -0.00000000000E+00 -0.84434646246E+02  0.84434646246E+02  0.00000000000E+00 0. -1.
         25    2    1    2    0    0 -0.56720589673E+02  0.33453702329E+02  0.30661272974E+02  0.14464801636E+03  0.12508620821E+03 0.  0.
          5    1    3    3  502    0 -0.84594213222E+02  0.54611155871E+02  0.47205377532E+01  0.10088763617E+03  0.41800000000E+01 0. -1.
         -5    1    3    3    0  502  0.27873623549E+02 -0.21157453542E+02  0.25940735221E+02  0.43760380185E+02  0.41800000000E+01 0. -1.
        -11    1    1    2    0    0  0.17466008565E+00  0.24912800880E+02  0.19123177979E+01  0.24986698726E+02  0.00000000000E+00 0. -1.
         11    1    1    2    0    0  0.56545929587E+02 -0.58366503209E+02  0.87907157296E+02  0.11971532548E+03  0.00000000000E+00 0.  1.
</event>
<event>
 7    1  0.2420569E-009  0.1252394E+03  0.7561462E-02  0.1234696E+00
         -2   -1    0    0    0  501 -0.00000000000E+00  0.00000000000E+00  0.61930332293E+02  0.61930332293E+02  0.00000000000E+00 0.  1.
          2   -1    0    0  501    0  0.00000000000E+00 -0.00000000000E+00 -0.26923801622E+03  0.26923801622E+03  0.00000000000E+00 0. -1.
         25    2    1    2    0    0 -0.89925702559E+01 -0.66501351359E+02 -0.11552890435E+03  0.18302098512E+03  0.12508579935E+03 0.  0.
          5    1    3    3  502    0  0.19554098729E+02  0.32731148150E+02 -0.26515603646E+02  0.46628751571E+02  0.41800000000E+01 0. -1.
         -5    1    3    3    0  502 -0.28546668985E+02 -0.99232499508E+02 -0.89013300708E+02  0.13639223355E+03  0.41800000000E+01 0. -1.
        -11    1    1    2    0    0 -0.38518597905E+02  0.27806721482E+02 -0.14800047764E+02  0.49758793775E+02  0.00000000000E+00 0.  1.
         11    1    1    2    0    0  0.47511168161E+02  0.38694629877E+02 -0.76978731813E+02  0.98388569625E+02  0.00000000000E+00 0. -1.
</event>
<event>
 7    1  0.2420569E-009  0.1749495E+03  0.7561462E-02  0.1172782E+00
         -2   -1    0    0    0  501 -0.00000000000E+00  0.00000000000E+00  0.44246062067E+03  0.44246062067E+03  0.00000000000E+00 0.  1.
          2   -1    0    0  501    0  0.00000000000E+00 -0.00000000000E+00 -0.95901177637E+02  0.95901177637E+02  0.00000000000E+00 0. -1.
         25    2    1    2    0    0 -0.13950689038E+03  0.95390140301E+02  0.12233244263E+03  0.24326135752E+03  0.12509760274E+03 0.  0.
          5    1    3    3  502    0 -0.31029132881E+02  0.45620761156E+02  0.11008969840E+03  0.12321231688E+03  0.41800000000E+01 0.  1.
         -5    1    3    3    0  502 -0.10847775750E+03  0.49769379145E+02  0.12242744225E+02  0.12004904064E+03  0.41800000000E+01 0.  1.
        -11    1    1    2    0    0  0.10310998185E+03 -0.92690669417E+02  0.11563704199E+03  0.18054128069E+03  0.00000000000E+00 0. -1.
         11    1    1    2    0    0  0.36396908534E+02 -0.26994708844E+01  0.10858995842E+03  0.11455916010E+03  0.00000000000E+00 0.  1.
</event>
<event>
 7    1  0.2420569E-009  0.1133652E+03  0.7561462E-02  0.1254462E+00
          2   -1    0    0  501    0  0.00000000000E+00  0.00000000000E+00  0.57675620376E+02  0.57675620376E+02  0.00000000000E+00 0. -1.
         -2   -1    0    0    0  501 -0.00000000000E+00 -0.00000000000E+00 -0.25824435484E+03  0.25824435484E+03  0.00000000000E+00 0.  1.
         25    2    1    2    0    0  0.39548346321E+02  0.28426130148E+02 -0.75068525009E+02  0.15381011991E+03  0.12510057141E+03 0.  0.
          5    1    3    3  502    0  0.25125456254E+02 -0.48845480195E+02 -0.24809282597E+02  0.60416408288E+02  0.41800000000E+01 0. -1.
         -5    1    3    3    0  502  0.14422890067E+02  0.77271610343E+02 -0.50259242412E+02  0.93393711623E+02  0.41800000000E+01 0. -1.
        -11    1    1    2    0    0 -0.49834481420E+02  0.11960549814E+02 -0.10228025513E+03  0.11440183949E+03  0.00000000000E+00 0.  1.
         11    1    1    2    0    0  0.10286135098E+02 -0.40386679962E+02 -0.23219954323E+02  0.47708015808E+02  0.00000000000E+00 0. -1.
</event>
<event>
 7    1  0.2565797E-009  0.1459811E+03  0.7561462E-02  0.1205500E+00
         -2   -1    0    0    0  501 -0.00000000000E+00  0.00000000000E+00  0.38191207082E+03  0.38191207082E+03  0.00000000000E+00 0. -1.
          2   -1    0    0  501    0  0.00000000000E+00 -0.00000000000E+00 -0.59381467185E+02  0.59381467185E+02  0.00000000000E+00 0.  1.
         25    2    1    2    0    0  0.81803096483E+02 -0.63297272496E+02  0.16285267618E+03  0.22992689724E+03  0.12508833933E+03 0.  0.
          5    1    3    3  502    0  0.31491002078E+02 -0.94925051643E+02  0.12141760972E+03  0.15735995993E+03  0.41800000000E+01 0. -1.
         -5    1    3    3    0  502  0.50312094406E+02  0.31627779146E+02  0.41435066462E+02  0.72566937306E+02  0.41800000000E+01 0. -1.
        -11    1    1    2    0    0 -0.63812439262E+02 -0.27133463508E+01  0.46085430806E+02  0.78760755365E+02  0.00000000000E+00 0.  1.
         11    1    1    2    0    0 -0.17990657221E+02  0.66010618847E+02  0.11359249665E+03  0.13260588540E+03  0.00000000000E+00 0. -1.
</event>
<event>
 7    1  0.2420569E-009  0.8629032E+02  0.7561462E-02  0.1312092E+00
          2   -1    0    0  501    0  0.00000000000E+00  0.00000000000E+00  0.51759112839E+03  0.51759112839E+03  0.00000000000E+00 0. -1.
         -2   -1    0    0    0  501 -0.00000000000E+00 -0.00000000000E+00 -0.27914526904E+02  0.27914526904E+02  0.00000000000E+00 0.  1.
         25    2    1    2    0    0 -0.86957464972E+00 -0.40590962392E+02  0.34226432941E+03  0.36666236265E+03  0.12509210450E+03 0.  0.
          5    1    3    3  502    0 -0.35697002023E+01 -0.55661644865E+02  0.53296388353E+02  0.77258908096E+02  0.41800000000E+01 0.  1.
         -5    1    3    3    0  502  0.27001255526E+01  0.15070682474E+02  0.28896794105E+03  0.28940345455E+03  0.41800000000E+01 0.  1.
        -11    1    1    2    0    0  0.46142477286E+02  0.13758148118E+02  0.61707857935E+02  0.78270521787E+02  0.00000000000E+00 0. -1.
         11    1    1    2    0    0 -0.45272902637E+02  0.26832814274E+02  0.85704414139E+02  0.10057277086E+03  0.00000000000E+00 0.  1.
</event>
<event>
 7    1  0.2420569E-009  0.1289909E+03  0.7561462E-02  0.1228961E+00
          2   -1    0    0  501    0  0.00000000000E+00  0.00000000000E+00  0.15422821976E+04  0.15422821976E+04  0.00000000000E+00 0. -1.
         -2   -1    0    0    0  501 -0.00000000000E+00 -0.00000000000E+00 -0.17279263676E+02  0.17279263676E+02  0.00000000000E+00 0.  1.
         25    2    1    2    0    0  0.87831480392E+02 -0.37665615988E+02  0.13222008475E+04  0.13315385793E+04  0.12508732734E+03 0.  0.
          5    1    3    3  502    0 -0.26780138961E+02 -0.29560621632E+02  0.45187775805E+03  0.45365403869E+03  0.41800000000E+01 0.  1.
         -5    1    3    3    0  502  0.11461161935E+03 -0.81049943557E+01  0.87032308944E+03  0.87788454061E+03  0.41800000000E+01 0.  1.
        -11    1    1    2    0    0 -0.46444449129E+02 -0.72629590163E+00  0.10991285851E+03  0.11932497989E+03  0.00000000000E+00 0.  1.
         11    1    1    2    0    0 -0.41387031263E+02  0.38391911890E+02  0.92889227932E+02  0.10869790210E+03  0.00000000000E+00 0. -1.
</event>
<event>
 7    1  0.2420569E-009  0.1218994E+03  0.7561462E-02  0.1239996E+00
         -2   -1    0    0    0  501 -0.00000000000E+00  0.00000000000E+00  0.44354284229E+02  0.44354284229E+02  0.00000000000E+00 0.  1.
          2   -1    0    0  501    0  0.00000000000E+00 -0.00000000000E+00 -0.35495493409E+03  0.35495493409E+03  0.00000000000E+00 0. -1.
         25    2    1    2    0    0 -0.44526152815E+02 -0.41117215194E+02 -0.21538320826E+03  0.25633993960E+03  0.12508810720E+03 0.  0.
          5    1    3    3  502    0 -0.84867371318E+02 -0.48097732328E+02 -0.14503367493E+03  0.17483735823E+03  0.41800000000E+01 0. -1.
         -5    1    3    3    0  502  0.40341218503E+02  0.69805171342E+01 -0.70349533338E+02  0.81502581374E+02  0.41800000000E+01 0. -1.
        -11    1    1    2    0    0  0.68632876721E+02  0.16576899407E+02 -0.51769788056E+02  0.87552134847E+02  0.00000000000E+00 0. -1.
         11    1    1    2    0    0 -0.24106723906E+02  0.24540315786E+02 -0.43447653536E+02  0.55417143865E+02  0.00000000000E+00 0.  1.
</event>
<event>
 7    1  0.2420569E-009  0.2579454E+03  0.7561462E-02  0.1108384E+00
         -3   -1    0    0    0  501 -0.00000000000E+00  0.00000000000E+00  0.21082211160E+03  0.21082211160E+03  0.00000000000E+00 0.  1.
          3   -1    0    0  501    0  0.00000000000E+00 -0.00000000000E+00 -0.70733654214E+03  0.70733654214E+03  0.00000000000E+00 0. -1.
         25    2    1    2    0    0 -0.24241374267E+03  0.32503974452E+02 -0.58200007490E+03  0.64357818230E+03  0.12509140083E+03 0.  0.
          5    1    3    3  502    0 -0.52093404273E+02  0.39007508751E+02 -0.27222326563E+03  0.27992550305E+03  0.41800000000E+01 0.  1.
         -5    1    3    3    0  502 -0.19032033839E+03 -0.65035342995E+01 -0.30977680928E+03  0.36365267926E+03  0.41800000000E+01 0.  1.
        -11    1    1    2    0    0  0.90886610626E+02 -0.56159734824E+02  0.45268278476E+02  0.11603236119E+03  0.00000000000E+00 0.  1.
         11    1    1    2    0    0  0.15152713204E+03  0.23655760372E+02  0.40217365890E+02  0.15854811025E+03  0.00000000000E+00 0. -1.
</event>
<event>
 7    1  0.2420569E-009  0.1061062E+03  0.7561462E-02  0.1267955E+00
         -1   -1    0    0    0  501 -0.00000000000E+00  0.00000000000E+00  0.37439738358E+02  0.37439738358E+02  0.00000000000E+00 0.  1.
          1   -1    0    0  501    0  0.00000000000E+00 -0.00000000000E+00 -0.37322358951E+03  0.37322358951E+03  0.00000000000E+00 0. -1.
         25    2    1    2    0    0  0.95211973470E+01 -0.49573795325E+02 -0.21554741509E+03  0.25427711938E+03  0.12509176993E+03 0.  0.
          5    1    3    3  502    0 -0.32262508573E+02  0.14778932755E+02 -0.14707851421E+03  0.15135669147E+03  0.41800000000E+01 0.  1.
         -5    1    3    3    0  502  0.41783705920E+02 -0.64352728080E+02 -0.68468900885E+02  0.10292042791E+03  0.41800000000E+01 0.  1.
        -11    1    1    2    0    0 -0.46863642127E+02  0.16283538456E+02 -0.53238910140E+02  0.72771808628E+02  0.00000000000E+00 0.  1.
         11    1    1    2    0    0  0.37342444780E+02  0.33290256869E+02 -0.66997525918E+02  0.83614399859E+02  0.00000000000E+00 0. -1.
</event>
<event>
 7    1  0.2420569E-009  0.9942028E+02  0.7561462E-02  0.1281520E+00
         -1   -1    0    0    0  501 -0.00000000000E+00  0.00000000000E+00  0.19686133341E+03  0.19686133341E+03  0.00000000000E+00 0.  1.
          1   -1    0    0  501    0  0.00000000000E+00 -0.00000000000E+00 -0.19378631556E+03  0.19378631556E+03  0.00000000000E+00 0. -1.
         25    2    1    2    0    0  0.83520910483E+02  0.21575229992E+02 -0.13593322860E+03  0.20387710452E+03  0.12508716189E+03 0.  0.
          5    1    3    3  502    0  0.74196411130E+02  0.31396025874E+02 -0.15814234906E+03  0.17753110384E+03  0.41800000000E+01 0.  1.
         -5    1    3    3    0  502  0.93244993530E+01 -0.98207958823E+01  0.22209120458E+02  0.26346000673E+02  0.41800000000E+01 0.  1.
        -11    1    1    2    0    0 -0.74519135610E+02  0.62190600728E+01  0.42661732195E+02  0.86091821180E+02  0.00000000000E+00 0. -1.
         11    1    1    2    0    0 -0.90017748728E+01 -0.27794290065E+02  0.96346514256E+02  0.10067872328E+03  0.00000000000E+00 0.  1.
</event>
<event>
 7    1  0.2420569E-009  0.1022716E+03  0.7561462E-02  0.1275590E+00
         -1   -1    0    0    0  501 -0.00000000000E+00  0.00000000000E+00  0.79873044460E+03  0.79873044460E+03  0.00000000000E+00 0.  1.
          1   -1    0    0  501    0  0.00000000000E+00 -0.00000000000E+00 -0.16733898331E+02  0.16733898331E+02  0.00000000000E+00 0. -1.
         25    2    1    2    0    0  0.42521851353E+02  0.75559632681E+01  0.44921117494E+03  0.46829787916E+03  0.12508806302E+03 0.  0.
          5    1    3    3  502    0 -0.36001819101E+02  0.13260981856E+02  0.26680737050E+03  0.26958417975E+03  0.41800000000E+01 0. -1.
         -5    1    3    3    0  502  0.78523670453E+02 -0.57050185876E+01  0.18240380444E+03  0.19871369940E+03  0.41800000000E+01 0. -1.
        -11    1    1    2    0    0 -0.58620061960E+02  0.13937726509E+02  0.29323135139E+03  0.29935797522E+03  0.00000000000E+00 0.  1.
         11    1    1    2    0    0  0.16098210607E+02 -0.21493689778E+02  0.39554019931E+02  0.47808488553E+02  0.00000000000E+00 0. -1.
</event>
<event>
 7    1  0.2420569E-009  0.1196439E+03  0.7561462E-02  0.1243686E+00
          2   -1    0    0  501    0  0.00000000000E+00  0.00000000000E+00  0.16071399013E+03  0.16071399013E+03  0.00000000000E+00 0. -1.
         -2   -1    0    0    0  501 -0.00000000000E+00 -0.00000000000E+00 -0.11461006114E+03  0.11461006114E+03  0.00000000000E+00 0.  1.
         25    2    1    2    0    0 -0.68023316477E+02 -0.40114565982E+02  0.46337802132E+02  0.15501586292E+03  0.12508547422E+03 0.  0.
          5    1    3    3  502    0 -0.37481113649E+01 -0.55730582880E+02  0.65346055215E+02  0.86066982863E+02  0.41800000000E+01 0. -1.
         -5    1    3    3    0  502 -0.64275205112E+02  0.15616016898E+02 -0.19008253083E+02  0.68948880058E+02  0.41800000000E+01 0. -1.
        -11    1    1    2    0    0  0.10300425350E+02  0.56151919835E+02  0.13894659105E+02  0.58755411795E+02  0.00000000000E+00 0. -1.
         11    1    1    2    0    0  0.57722891127E+02 -0.16037353853E+02 -0.14128532241E+02  0.61552776557E+02  0.00000000000E+00 0.  1.
</event>
<event>
 7    1  0.2420569E-009  0.1266538E+03  0.7561462E-02  0.1232507E+00
         -4   -1    0    0    0  501 -0.00000000000E+00  0.00000000000E+00  0.32005285141E+03  0.32005285141E+03  0.00000000000E+00 0. -1.
          4   -1    0    0  501    0  0.00000000000E+00 -0.00000000000E+00 -0.51044859387E+02  0.51044859387E+02  0.00000000000E+00 0.  1.
         25    2    1    2    0    0  0.56925200067E+02 -0.33741155143E+02  0.15292970073E+03  0.20835960994E+03  0.12508912717E+03 0.  0.
          5    1    3    3  502    0  0.87602476018E+02 -0.54363390222E+02  0.10021299706E+03  0.14383910866E+03  0.41800000000E+01 0.  1.
         -5    1    3    3    0  502 -0.30677275951E+02  0.20622235079E+02  0.52716703677E+02  0.64520501284E+02  0.41800000000E+01 0.  1.
        -11    1    1    2    0    0 -0.71521139246E+02  0.52812695290E+02  0.81307702178E+02  0.12047985963E+03  0.00000000000E+00 0. -1.
         11    1    1    2    0    0  0.14595939179E+02 -0.19071540147E+02  0.34770589112E+02  0.42258241223E+02  0.00000000000E+00 0.  1.
</event>
<event>
 7    1  0.2420569E-009  0.8782385E+02  0.7561462E-02  0.1308209E+00
          2   -1    0    0  501    0  0.00000000000E+00  0.00000000000E+00  0.29899892502E+03  0.29899892502E+03  0.00000000000E+00 0. -1.
         -2   -1    0    0    0  501 -0.00000000000E+00 -0.00000000000E+00 -0.50278697139E+02  0.50278697139E+02  0.00000000000E+00 0.  1.
         25    2    1    2    0    0  0.28763177643E+02  0.10690839191E+02  0.21319223807E+03  0.24907932390E+03  0.12509182544E+03 0.  0.
          5    1    3    3  502    0 -0.93657686245E+01  0.48564210218E+02  0.17779097238E+03  0.18458955116E+03  0.41800000000E+01 0. -1.
         -5    1    3    3    0  502  0.38128946268E+02 -0.37873371027E+02  0.35401265688E+02  0.64489772746E+02  0.41800000000E+01 0. -1.
        -11    1    1    2    0    0 -0.46940328810E+02  0.61338937220E+01 -0.99860820357E+01  0.48381204567E+02  0.00000000000E+00 0.  1.
         11    1    1    2    0    0  0.18177151167E+02 -0.16824732913E+02  0.45514071843E+02  0.51817093684E+02  0.00000000000E+00 0. -1.
</event>
<event>
 7    1  0.2420569E-009  0.2210636E+03  0.7561462E-02  0.1133093E+00
         -1   -1    0    0    0  501 -0.00000000000E+00  0.00000000000E+00  0.16104687344E+03  0.16104687344E+03  0.00000000000E+00 0.  1.
          1   -1    0    0  501    0  0.00000000000E+00 -0.00000000000E+00 -0.37440026598E+03  0.37440026598E+03  0.00000000000E+00 0. -1.
         25    2    1    2    0    0 -0.20167087569E+03  0.58661812158E+02 -0.42276480099E+02  0.24808584177E+03  0.12508770447E+03 0.  0.
          5    1    3    3  502    0 -0.13964810025E+03  0.98044665578E+01  0.27389214635E+02  0.14270725611E+03  0.41800000000E+01 0. -1.
         -5    1    3    3    0  502 -0.62022775441E+02  0.48857345600E+02 -0.69665694734E+02  0.10537858566E+03  0.41800000000E+01 0. -1.
        -11    1    1    2    0    0  0.80722222256E+02 -0.62357141515E+02 -0.11583002408E+03  0.15434080712E+03  0.00000000000E+00 0. -1.
         11    1    1    2    0    0  0.12094865344E+03  0.36953293573E+01 -0.55246888365E+02  0.13302049053E+03  0.00000000000E+00 0.  1.
</event>
<event>
 7    1  0.2420569E-009  0.1788716E+03  0.7561462E-02  0.1168900E+00
         -4   -1    0    0    0  501 -0.00000000000E+00  0.00000000000E+00  0.11679204240E+03  0.11679204240E+03  0.00000000000E+00 0.  1.
          4   -1    0    0  501    0  0.00000000000E+00 -0.00000000000E+00 -0.32842756541E+03  0.32842756541E+03  0.00000000000E+00 0. -1.
         25    2    1    2    0    0 -0.14623841761E+02  0.15470243939E+03 -0.58032061568E+02  0.20775568220E+03  0.12509197342E+03 0.  0.
          5    1    3    3  502    0  0.48475120022E+02  0.44428447018E+02  0.45927445643E+01  0.66047633328E+02  0.41800000000E+01 0.  1.
         -5    1    3    3    0  502 -0.63098961783E+02  0.11027399237E+03 -0.62624806132E+02  0.14170804887E+03  0.41800000000E+01 0.  1.
        -11    1    1    2    0    0  0.34242773228E+02 -0.71849559313E+02 -0.25370428863E+02  0.83537927629E+02  0.00000000000E+00 0.  1.
         11    1    1    2    0    0 -0.19618931467E+02 -0.82852880077E+02 -0.12823303259E+03  0.15392599798E+03  0.00000000000E+00 0. -1.
</event>
<event>
 7    1  0.2420569E-009  0.1220770E+03  0.7561462E-02  0.1239709E+00
          1   -1    0    0  501    0  0.00000000000E+00  0.00000000000E+00  0.30382979830E+03  0.30382979830E+03  0.00000000000E+00 0. -1.
         -1   -1    0    0    0  501 -0.00000000000E+00 -0.00000000000E+00 -0.65234747120E+02  0.65234747120E+02  0.00000000000E+00 0.  1.
         25    2    1    2    0    0  0.11788912354E+02  0.68473331353E+02  0.59222399639E+02  0.15486134638E+03  0.12508864226E+03 0.  0.
          5    1    3    3  502    0 -0.91755091196E+01 -0.33571955030E+02  0.20041370448E+00  0.35053939833E+02  0.41800000000E+01 0.  1.
         -5    1    3    3    0  502  0.20964421473E+02  0.10204528638E+03  0.59021985934E+02  0.11980740655E+03  0.41800000000E+01 0.  1.
        -11    1    1    2    0    0 -0.43601005942E+02 -0.22862807957E+02  0.37702262895E+02  0.62009808372E+02  0.00000000000E+00 0. -1.
         11    1    1    2    0    0  0.31812093589E+02 -0.45610523395E+02  0.14167038864E+03  0.15219339066E+03  0.00000000000E+00 0.  1.
</event>
<event>
 7    1  0.2420569E-009  0.1122431E+03  0.7561462E-02  0.1256472E+00
         -1   -1    0    0    0  501 -0.00000000000E+00  0.00000000000E+00  0.47401358094E+02  0.47401358094E+02  0.00000000000E+00 0.  1.
          1   -1    0    0  501    0  0.00000000000E+00 -0.00000000000E+00 -0.50621683433E+03  0.50621683433E+03  0.00000000000E+00 0. -1.
         25    2    1    2    0    0  0.10287828613E+03  0.17938517172E+02 -0.30484412306E+03  0.34566265003E+03  0.12508795347E+03 0.  0.
          5    1    3    3  502    0  0.15520070340E+02 -0.22623076172E+00 -0.22584414962E+03  0.22641549435E+03  0.41800000000E+01 0.  1.
         -5    1    3    3    0  502  0.87358215792E+02  0.18164747934E+02 -0.78999973440E+02  0.11924715568E+03  0.41800000000E+01 0.  1.
        -11    1    1    2    0    0 -0.55656593163E+02  0.19343044347E+02 -0.21961533814E+02  0.62881783487E+02  0.00000000000E+00 0.  1.
         11    1    1    2    0    0 -0.47221692969E+02 -0.37281561519E+02 -0.13200981936E+03  0.14507375891E+03  0.00000000000E+00 0. -1.
</event>
<event>
 7    1  0.2420569E-009  0.8886888E+02  0.7561462E-02  0.1305614E+00
          2   -1    0    0  501    0  0.00000000000E+00  0.00000000000E+00  0.29456376218E+03  0.29456376218E+03  0.00000000000E+00 0.  1.
         -2   -1    0    0    0  501 -0.00000000000E+00 -0.00000000000E+00 -0.50825499828E+02  0.50825499828E+02  0.00000000000E+00 0. -1.
         25    2    1    2    0    0 -0.36423684261E+02 -0.23924465275E+02  0.18269426010E+03  0.22566234837E+03  0.12508892030E+03 0.  0.
          5    1    3    3  502    0 -0.80695278363E+02 -0.26945216916E+02  0.97148093157E+02  0.12920138184E+03  0.41800000000E+01 0.  1.
         -5    1    3    3    0  502  0.44271594102E+02  0.30207516408E+01  0.85546166947E+02  0.96460966531E+02  0.41800000000E+01 0.  1.
        -11    1    1    2    0    0  0.70933188502E+01  0.16160191950E+02  0.81334232514E+02  0.83226944884E+02  0.00000000000E+00 0.  1.
         11    1    1    2    0    0  0.29330365410E+02  0.77642733256E+01 -0.20290230262E+02  0.36499968760E+02  0.00000000000E+00 0. -1.
</event>
<event>
 7    1  0.2420569E-009  0.1387453E+03  0.7561462E-02  0.1215027E+00
         -1   -1    0    0    0  501 -0.00000000000E+00  0.00000000000E+00  0.37305012948E+02  0.37305012948E+02  0.00000000000E+00 0.  1.
          1   -1    0    0  501    0  0.00000000000E+00 -0.00000000000E+00 -0.77354358241E+03  0.77354358241E+03  0.00000000000E+00 0. -1.
         25    2    1    2    0    0  0.61059151485E+02 -0.74474094350E+02 -0.18233035825E+03  0.24117743984E+03  0.12509031633E+03 0.  0.
          5    1    3    3  502    0 -0.38454296516E+02 -0.21572021079E+02 -0.40893538254E+02  0.60281331147E+02  0.41800000000E+01 0.  1.
         -5    1    3    3    0  502  0.99513448001E+02 -0.52902073270E+02 -0.14143682000E+03  0.18089610869E+03  0.41800000000E+01 0.  1.
        -11    1    1    2    0    0  0.15234262922E+02  0.25684004658E+02 -0.54749002447E+02  0.62363483955E+02  0.00000000000E+00 0.  1.
         11    1    1    2    0    0 -0.76293414407E+02  0.48790089692E+02 -0.49915920876E+03  0.50730767156E+03  0.00000000000E+00 0. -1.
</event>
<event>
 7    1  0.2420569E-009  0.1102189E+03  0.7561462E-02  0.1260165E+00
          1   -1    0    0  501    0  0.00000000000E+00  0.00000000000E+00  0.21927753812E+02  0.21927753812E+02  0.00000000000E+00 0. -1.
         -1   -1    0    0    0  501 -0.00000000000E+00 -0.00000000000E+00 -0.61094204755E+03  0.61094204755E+03  0.00000000000E+00 0.  1.
         25    2    1    2    0    0 -0.57764748496E+01 -0.34382590659E+02 -0.34885203296E+03  0.37223755071E+03  0.12509005977E+03 0.  0.
          5    1    3    3  502    0  0.50240961505E+02  0.82707851319E+01 -0.21446443297E+03  0.22046547464E+03  0.41800000000E+01 0.  1.
         -5    1    3    3    0  502 -0.56017436354E+02 -0.42653375791E+02 -0.13438760000E+03  0.15177207607E+03  0.41800000000E+01 0.  1.
        -11    1    1    2    0    0  0.44665091673E+02 -0.31436042602E+01 -0.81089683084E+02  0.92630391150E+02  0.00000000000E+00 0.  1.
         11    1    1    2    0    0 -0.38888616823E+02  0.37526194919E+02 -0.15907257769E+03  0.16800185951E+03  0.00000000000E+00 0. -1.
</event>
<event>
 7    1  0.2420569E-009  0.1436199E+03  0.7561462E-02  0.1208539E+00
         -2   -1    0    0    0  501 -0.00000000000E+00  0.00000000000E+00  0.31035708661E+02  0.31035708661E+02  0.00000000000E+00 0.  1.
          2   -1    0    0  501    0  0.00000000000E+00 -0.00000000000E+00 -0.91896848358E+03  0.91896848358E+03  0.00000000000E+00 0. -1.
         25    2    1    2    0    0  0.22651596108E+01  0.11191374839E+03 -0.67265768257E+03  0.69328636787E+03  0.12509121441E+03 0.  0.
          5    1    3    3  502    0 -0.50550736809E+02  0.76954456665E+02 -0.51755469193E+03  0.52569734347E+03  0.41800000000E+01 0.  1.
         -5    1    3    3    0  502  0.52815896419E+02  0.34959291728E+02 -0.15510299064E+03  0.16758902440E+03  0.41800000000E+01 0.  1.
        -11    1    1    2    0    0  0.26074180131E+02 -0.95177636201E+02 -0.11690707920E+03  0.15298990316E+03  0.00000000000E+00 0.  1.
         11    1    1    2    0    0 -0.28339339741E+02 -0.16736112192E+02 -0.98368013143E+02  0.10372792121E+03  0.00000000000E+00 0. -1.
</event>
<event>
 7    1  0.2420569E-009  0.1045919E+03  0.7561462E-02  0.1270926E+00
          2   -1    0    0  501    0  0.00000000000E+00  0.00000000000E+00  0.12357041925E+03  0.12357041925E+03  0.00000000000E+00 0. -1.
         -2   -1    0    0    0  501 -0.00000000000E+00 -0.00000000000E+00 -0.10408145337E+03  0.10408145337E+03  0.00000000000E+00 0.  1.
         25    2    1    2    0    0  0.13772735741E+02 -0.15077574168E+02 -0.20235320101E+02  0.12834128329E+03  0.12507995573E+03 0.  0.
          5    1    3    3  502    0 -0.53998087008E+02  0.84754679014E+01 -0.69966480102E+01  0.55263481975E+02  0.41800000000E+01 0.  1.
         -5    1    3    3    0  502  0.67770822749E+02 -0.23553042069E+02 -0.13238672090E+02  0.73077801318E+02  0.41800000000E+01 0.  1.
        -11    1    1    2    0    0  0.33423843031E+02  0.18215746815E+01  0.37458310302E+02  0.50235410101E+02  0.00000000000E+00 0. -1.
         11    1    1    2    0    0 -0.47196578772E+02  0.13255999486E+02  0.22659756873E+01  0.49075179225E+02  0.00000000000E+00 0.  1.
</event>
<event>
 7    1  0.2420569E-009  0.1166108E+03  0.7561462E-02  0.1248795E+00
          1   -1    0    0  501    0  0.00000000000E+00  0.00000000000E+00  0.29927312031E+02  0.29927312031E+02  0.00000000000E+00 0. -1.
         -1   -1    0    0    0  501 -0.00000000000E+00 -0.00000000000E+00 -0.71740437224E+03  0.71740437224E+03  0.00000000000E+00 0.  1.
         25    2    1    2    0    0  0.32870021954E+02 -0.91138779953E+02 -0.39549440760E+03  0.42597054335E+03  0.12509341230E+03 0.  0.
          5    1    3    3  502    0  0.37897236018E+02 -0.91479290843E+02 -0.14640574138E+03  0.17679585589E+03  0.41800000000E+01 0.  1.
         -5    1    3    3    0  502 -0.50272140638E+01  0.34051089048E+00 -0.24908866622E+03  0.24917468746E+03  0.41800000000E+01 0.  1.
        -11    1    1    2    0    0  0.43308235084E+00  0.94129922114E+02 -0.25332806954E+03  0.27025125460E+03  0.00000000000E+00 0.  1.
         11    1    1    2    0    0 -0.33303104305E+02 -0.29911421611E+01 -0.38654583070E+02  0.51109886324E+02  0.00000000000E+00 0. -1.
</event>
<event>
 7    1  0.2420569E-009  0.9573617E+02  0.7561462E-02  0.1289527E+00
         -2   -1    0    0    0  501 -0.00000000000E+00  0.00000000000E+00  0.53028053266E+03  0.53028053266E+03  0.00000000000E+00 0. -1.
          2   -1    0    0  501    0  0.00000000000E+00 -0.00000000000E+00 -0.24122623998E+02  0.24122623998E+02  0.00000000000E+00 0.  1.
         25    2    1    2    0    0 -0.46292574221E+01 -0.32229779308E+02  0.33381397130E+03  0.35796542017E+03  0.12508911187E+03 0.  0.
          5    1    3    3  502    0  0.46299923082E+02 -0.30773603645E+01  0.50916072793E+02  0.69015012084E+02  0.41800000000E+01 0.  1.
         -5    1    3    3    0  502 -0.50929180504E+02 -0.29152418943E+02  0.28289789850E+03  0.28895040809E+03  0.41800000000E+01 0.  1.
        -11    1    1    2    0    0 -0.18442272109E+02 -0.21052677787E+02  0.23075459036E+02  0.36274087890E+02  0.00000000000E+00 0.  1.
         11    1    1    2    0    0  0.23071529531E+02  0.53282457094E+02  0.14926847833E+03  0.16016364859E+03  0.00000000000E+00 0. -1.
</event>
<event>
 7    1  0.2420569E-009  0.1036877E+03  0.7561462E-02  0.1272727E+00
          3   -1    0    0  501    0  0.00000000000E+00  0.00000000000E+00  0.87337850276E+02  0.87337850276E+02  0.00000000000E+00 0.  1.
         -3   -1    0    0    0  501 -0.00000000000E+00 -0.00000000000E+00 -0.19088609950E+03  0.19088609950E+03  0.00000000000E+00 0. -1.
         25    2    1    2    0    0  0.41083395240E+02 -0.58162259251E+02 -0.67855706916E+02  0.15913203860E+03  0.12509162634E+03 0.  0.
          5    1    3    3  502    0  0.46569215637E+02  0.12978751237E+02  0.13960566422E+02  0.50492669205E+02  0.41800000000E+01 0.  1.
         -5    1    3    3    0  502 -0.54858203969E+01 -0.71141010488E+02 -0.81816273338E+02  0.10863936939E+03  0.41800000000E+01 0.  1.
        -11    1    1    2    0    0 -0.13518227604E+02  0.58263538194E+02  0.14755153834E+02  0.61604358004E+02  0.00000000000E+00 0.  1.
         11    1    1    2    0    0 -0.27565167636E+02 -0.10127894266E+00 -0.50447696144E+02  0.57487553179E+02  0.00000000000E+00 0. -1.
</event>
<event>
 7    1  0.2420569E-009  0.8066280E+02  0.7561462E-02  0.1327181E+00
          1   -1    0    0  501    0  0.00000000000E+00  0.00000000000E+00  0.68280815941E+03  0.68280815941E+03  0.00000000000E+00 0. -1.
         -1   -1    0    0    0  501 -0.00000000000E+00 -0.00000000000E+00 -0.21090955152E+02  0.21090955152E+02  0.00000000000E+00 0.  1.
         25    2    1    2    0    0 -0.14430897806E+02 -0.16574527710E+02  0.41546292991E+03  0.43444448469E+03  0.12509835478E+03 0.  0.
          5    1    3    3  502    0 -0.27504431762E+02 -0.25333551201E+02  0.28658763676E+02  0.47297777098E+02  0.41800000000E+01 0.  1.
         -5    1    3    3    0  502  0.13073533956E+02  0.87590234915E+01  0.38680416624E+03  0.38714670759E+03  0.41800000000E+01 0.  1.
        -11    1    1    2    0    0  0.50989384024E+02  0.39294438537E+02  0.17164740512E+03  0.18332158048E+03  0.00000000000E+00 0. -1.
         11    1    1    2    0    0 -0.36558486219E+02 -0.22719910827E+02  0.74606869226E+02  0.86133049397E+02  0.00000000000E+00 0.  1.
</event>
<event>
 7    1  0.2420569E-009  0.1916881E+03  0.7561462E-02  0.1156948E+00
         -1   -1    0    0    0  501 -0.00000000000E+00  0.00000000000E+00  0.48859579181E+02  0.48859579181E+02  0.00000000000E+00 0.  1.
          1   -1    0    0  501    0  0.00000000000E+00 -0.00000000000E+00 -0.81851648619E+03  0.81851648619E+03  0.00000000000E+00 0. -1.
         25    2    1    2    0    0 -0.14828436042E+03 -0.71231403374E+02 -0.46017750116E+03  0.50445669375E+03  0.12510419229E+03 0.  0.
          5    1    3    3  502    0 -0.10622789937E+03 -0.98542278248E+02 -0.40306670566E+03  0.42834003878E+03  0.41800000000E+01 0. -1.
         -5    1    3    3    0  502 -0.42056461048E+02  0.27310874874E+02 -0.57110795498E+02  0.76116654975E+02  0.41800000000E+01 0. -1.
        -11    1    1    2    0    0  0.69409533873E+02  0.83168235479E+02 -0.15564378997E+03  0.18963024058E+03  0.00000000000E+00 0.  1.
         11    1    1    2    0    0  0.78874826547E+02 -0.11936832105E+02 -0.15383561588E+03  0.17328913104E+03  0.00000000000E+00 0. -1.
</event>
<event>
 7    1  0.2420569E-009  0.1120118E+03  0.7561462E-02  0.1256889E+00
          3   -1    0    0  501    0  0.00000000000E+00  0.00000000000E+00  0.94906651023E+03  0.94906651023E+03  0.00000000000E+00 0. -1.
         -3   -1    0    0    0  501 -0.00000000000E+00 -0.00000000000E+00 -0.23603919151E+02  0.23603919151E+02  0.00000000000E+00 0.  1.
         25    2    1    2    0    0 -0.49767429118E+02 -0.39292713405E+02  0.76338091184E+03  0.77615684638E+03  0.12509324244E+03 0.  0.
          5    1    3    3  502    0 -0.81243388188E+02 -0.46114454565E+02  0.37742344238E+03  0.38883538715E+03  0.41800000000E+01 0.  1.
         -5    1    3    3    0  502  0.31475959070E+02  0.68217411596E+01  0.38595746946E+03  0.38732145924E+03  0.41800000000E+01 0.  1.
        -11    1    1    2    0    0  0.67575323420E+02  0.17334790025E+02  0.64829315881E+02  0.95235284838E+02  0.00000000000E+00 0.  1.
         11    1    1    2    0    0 -0.17807894302E+02  0.21957923380E+02  0.97252363358E+02  0.10127829816E+03  0.00000000000E+00 0. -1.
</event>
<event>
 7    1  0.2420569E-009  0.1538355E+03  0.7561462E-02  0.1195838E+00
         -2   -1    0    0    0  501 -0.00000000000E+00  0.00000000000E+00  0.19275063687E+02  0.19275063687E+02  0.00000000000E+00 0.  1.
          2   -1    0    0  501    0  0.00000000000E+00 -0.00000000000E+00 -0.14282878731E+04  0.14282878731E+04  0.00000000000E+00 0. -1.
         25    2    1    2    0    0  0.42857943846E+02  0.11529323484E+03 -0.84644613841E+03  0.86443410424E+03  0.12508366002E+03 0.  0.
          5    1    3    3  502    0  0.62188432322E+02  0.34947067340E+02 -0.19362467940E+03  0.20638964970E+03  0.41800000000E+01 0. -1.
         -5    1    3    3    0  502 -0.19330488476E+02  0.80346167502E+02 -0.65282145900E+03  0.65804445454E+03  0.41800000000E+01 0. -1.
        -11    1    1    2    0    0  0.12140290716E+02 -0.93541024334E+02 -0.34996727781E+03  0.36245607379E+03  0.00000000000E+00 0. -1.
         11    1    1    2    0    0 -0.54998234562E+02 -0.21752210508E+02 -0.21259939320E+03  0.22067275876E+03  0.00000000000E+00 0.  1.
</event>
<event>
 7    1  0.2420569E-009  0.9306329E+02  0.7561462E-02  0.1295599E+00
         -4   -1    0    0    0  501 -0.00000000000E+00  0.00000000000E+00  0.24949702073E+02  0.24949702073E+02  0.00000000000E+00 0.  1.
          4   -1    0    0  501    0  0.00000000000E+00 -0.00000000000E+00 -0.60309743647E+03  0.60309743647E+03  0.00000000000E+00 0. -1.
         25    2    1    2    0    0  0.26596707907E+02  0.33817877025E+02 -0.42896680274E+03  0.44889930406E+03  0.12508810357E+03 0.  0.
          5    1    3    3  502    0  0.67511457702E+02  0.33021442728E+02 -0.16019117938E+03  0.17699406473E+03  0.41800000000E+01 0.  1.
         -5    1    3    3    0  502 -0.40914749795E+02  0.79643429735E+00 -0.26877562336E+03  0.27190523933E+03  0.41800000000E+01 0.  1.
        -11    1    1    2    0    0  0.10725236020E+02 -0.30406810059E+02 -0.81982500524E+01  0.33268845631E+02  0.00000000000E+00 0.  1.
         11    1    1    2    0    0 -0.37321943927E+02 -0.34110669657E+01 -0.14098268160E+03  0.14587898885E+03  0.00000000000E+00 0. -1.
</event>
<event>
 7    1  0.2420569E-009  0.1698873E+03  0.7561462E-02  0.1177965E+00
         -2   -1    0    0    0  501 -0.00000000000E+00  0.00000000000E+00  0.13703214912E+03  0.13703214912E+03  0.00000000000E+00 0.  1.
          2   -1    0    0  501    0  0.00000000000E+00 -0.00000000000E+00 -0.37889670761E+03  0.37889670761E+03  0.00000000000E+00 0. -1.
         25    2    1    2    0    0  0.12572005463E+03  0.53625650557E+02 -0.29009462710E+03  0.34421424043E+03  0.12508920061E+03 0.  0.
          5    1    3    3  502    0  0.59942804601E+02 -0.38346764368E+02 -0.96403780809E+02  0.11989485191E+03  0.41800000000E+01 0.  1.
         -5    1    3    3    0  502  0.65777250028E+02  0.91972414925E+02 -0.19369084629E+03  0.22431938852E+03  0.41800000000E+01 0.  1.
        -11    1    1    2    0    0 -0.33306843168E+02 -0.53391812316E+02 -0.81593732473E+01  0.63455549766E+02  0.00000000000E+00 0. -1.
         11    1    1    2    0    0 -0.92413211460E+02 -0.23383824075E+00  0.56389441861E+02  0.10825906653E+03  0.00000000000E+00 0.  1.
</event>
<event>
 7    1  0.2420569E-009  0.2638698E+03  0.7561462E-02  0.1104840E+00
          1   -1    0    0  501    0  0.00000000000E+00  0.00000000000E+00  0.11516213084E+04  0.11516213084E+04  0.00000000000E+00 0. -1.
         -1   -1    0    0    0  501 -0.00000000000E+00 -0.00000000000E+00 -0.12014992262E+03  0.12014992262E+03  0.00000000000E+00 0.  1.
         25    2    1    2    0    0 -0.30487088630E+02  0.25390980154E+03  0.94416459235E+03  0.98614967240E+03  0.12507897119E+03 0.  0.
          5    1    3    3  502    0 -0.72071221603E+01  0.48163702461E+02  0.56790763477E+02  0.74928953422E+02  0.41800000000E+01 0.  1.
         -5    1    3    3    0  502 -0.23279966470E+02  0.20574609907E+03  0.88737382887E+03  0.91122071898E+03  0.41800000000E+01 0.  1.
        -11    1    1    2    0    0 -0.32548755882E+02 -0.10843477335E+03  0.41662584484E+02  0.12063702801E+03  0.00000000000E+00 0.  1.
         11    1    1    2    0    0  0.63035844512E+02 -0.14547502819E+03  0.45644208899E+02  0.16498453057E+03  0.00000000000E+00 0. -1.
</event>
<event>
 7    1  0.2420569E-009  0.1228319E+03  0.7561462E-02  0.1238497E+00
         -2   -1    0    0    0  501 -0.00000000000E+00  0.00000000000E+00  0.50002970475E+02  0.50002970475E+02  0.00000000000E+00 0.  1.
          2   -1    0    0  501    0  0.00000000000E+00 -0.00000000000E+00 -0.42462685168E+03  0.42462685168E+03  0.00000000000E+00 0. -1.
         25    2    1    2    0    0 -0.43711659625E+00  0.11523061966E+03 -0.24597754009E+03  0.29905022113E+03  0.12509115776E+03 0.  0.
          5    1    3    3  502    0 -0.24092025656E+02  0.92810652964E+02 -0.24820583411E+03  0.26611623681E+03  0.41800000000E+01 0.  1.
         -5    1    3    3    0  502  0.23654909059E+02  0.22419966694E+02  0.22282940206E+01  0.32933984323E+02  0.41800000000E+01 0.  1.
        -11    1    1    2    0    0  0.98365696628E+01 -0.56605239601E+02 -0.44879812255E+02  0.72904792717E+02  0.00000000000E+00 0.  1.
         11    1    1    2    0    0 -0.93994530665E+01 -0.58625380057E+02 -0.83766528855E+02  0.10267480831E+03  0.00000000000E+00 0. -1.
</event>
<event>
 7    1  0.2420569E-009  0.4008380E+03  0.7561462E-02  0.1043490E+00
          2   -1    0    0  501    0  0.00000000000E+00  0.00000000000E+00  0.28337851619E+03  0.28337851619E+03  0.00000000000E+00 0. -1.
         -2   -1    0    0    0  501 -0.00000000000E+00 -0.00000000000E+00 -0.59150564064E+03  0.59150564064E+03  0.00000000000E+00 0.  1.
         25    2    1    2    0    0 -0.39095725362E+03  0.50519354723E+02 -0.16321039756E+03  0.44461736993E+03  0.12508873814E+03 0.  0.
          5    1    3    3  502    0 -0.69308996778E+02 -0.29221560607E+02 -0.63513917153E+02  0.98534900978E+02  0.41800000000E+01 0.  1.
         -5    1    3    3    0  502 -0.32164825684E+03  0.79740915330E+02 -0.99696480403E+02  0.34608246895E+03  0.41800000000E+01 0.  1.
        -11    1    1    2    0    0  0.21649571186E+03 -0.39939820576E+02 -0.32706312484E+02  0.22256523852E+03  0.00000000000E+00 0.  1.
         11    1    1    2    0    0  0.17446154177E+03 -0.10579534147E+02 -0.11221041441E+03  0.20770154838E+03  0.00000000000E+00 0. -1.
</event>
<event>
 7    1  0.2420569E-009  0.1314393E+03  0.7561462E-02  0.1225336E+00
         -3   -1    0    0    0  501 -0.00000000000E+00  0.00000000000E+00  0.10611772649E+04  0.10611772649E+04  0.00000000000E+00 0.  1.
          3   -1    0    0  501    0  0.00000000000E+00 -0.00000000000E+00 -0.41124407178E+02  0.41124407178E+02  0.00000000000E+00 0. -1.
         25    2    1    2    0    0  0.87712390268E+02  0.94718027071E+02  0.87604697184E+03  0.89429912871E+03  0.12509063387E+03 0.  0.
          5    1    3    3  502    0  0.21798204208E+02  0.27072749955E+02  0.40979478240E+02  0.53896990024E+02  0.41800000000E+01 0.  1.
         -5    1    3    3    0  502  0.65914186060E+02  0.67645277116E+02  0.83506749360E+03  0.84040213869E+03  0.41800000000E+01 0.  1.
        -11    1    1    2    0    0 -0.23138055509E+02 -0.49064434404E+02  0.14317831153E+02  0.56104265659E+02  0.00000000000E+00 0. -1.
         11    1    1    2    0    0 -0.64574334759E+02 -0.45653592666E+02  0.12968805476E+03  0.15189827774E+03  0.00000000000E+00 0.  1.
</event>
<event>
 7    1  0.2420569E-009  0.9767642E+02  0.7561462E-02  0.1285259E+00
          1   -1    0    0  501    0  0.00000000000E+00  0.00000000000E+00  0.90547249983E+03  0.90547249983E+03  0.00000000000E+00 0. -1.
         -1   -1    0    0    0  501 -0.00000000000E+00 -0.00000000000E+00 -0.76320227546E+02  0.76320227546E+02  0.00000000000E+00 0.  1.
         25    2    1    2    0    0  0.54839731716E+00 -0.47662538381E+02  0.87167719285E+03  0.88189586617E+03  0.12508865632E+03 0.  0.
          5    1    3    3  502    0 -0.25545211854E+02  0.27535765850E+02  0.51669149209E+03  0.51807175821E+03  0.41800000000E+01 0.  1.
         -5    1    3    3    0  502  0.26093609171E+02 -0.75198304232E+02  0.35498570075E+03  0.36382410797E+03  0.41800000000E+01 0.  1.
        -11    1    1    2    0    0  0.29378561414E+02  0.34063029585E+02 -0.48867503236E+02  0.66418542048E+02  0.00000000000E+00 0.  1.
         11    1    1    2    0    0 -0.29926958731E+02  0.13599508797E+02  0.63425826736E+01  0.33478319154E+02  0.00000000000E+00 0. -1.
</event>
<event>
 7    1  0.2420569E-009  0.2725238E+03  0.7561462E-02  0.1099844E+00
         -2   -1    0    0    0  501 -0.00000000000E+00  0.00000000000E+00  0.79269106570E+02  0.79269106570E+02  0.00000000000E+00 0.  1.
          2   -1    0    0  501    0  0.00000000000E+00 -0.00000000000E+00 -0.19303267307E+04  0.19303267307E+04  0.00000000000E+00 0. -1.
         25    2    1    2    0    0 -0.17838442330E+03  0.18768165328E+03 -0.23826440561E+03  0.37344692228E+03  0.12508905358E+03 0.  0.
          5    1    3    3  502    0 -0.78166739499E+02  0.13664550340E+03 -0.73182259797E+02  0.17365237779E+03  0.41800000000E+01 0.  1.
         -5    1    3    3    0  502 -0.10021768380E+03  0.51036149880E+02 -0.16508214581E+03  0.19979454449E+03  0.41800000000E+01 0.  1.
        -11    1    1    2    0    0  0.72697187812E+01 -0.62722521624E+02 -0.33281637394E+03  0.33875315835E+03  0.00000000000E+00 0. -1.
         11    1    1    2    0    0  0.17111470452E+03 -0.12495913166E+03 -0.12799768446E+04  0.12973957566E+04  0.00000000000E+00 0.  1.
</event>
<event>
 7    1  0.2420569E-009  0.1136059E+03  0.7561462E-02  0.1254034E+00
          1   -1    0    0  501    0  0.00000000000E+00  0.00000000000E+00  0.11774313363E+04  0.11774313363E+04  0.00000000000E+00 0. -1.
         -1   -1    0    0    0  501 -0.00000000000E+00 -0.00000000000E+00 -0.48335126842E+02  0.48335126842E+02  0.00000000000E+00 0.  1.
         25    2    1    2    0    0 -0.29950800702E+02 -0.55668292354E+02  0.11034964373E+04  0.11123615362E+04  0.12509112983E+03 0.  0.
          5    1    3    3  502    0 -0.59664694765E+02  0.68352171911E+01  0.73047126075E+03  0.73294770017E+03  0.41800000000E+01 0. -1.
         -5    1    3    3    0  502  0.29713894063E+02 -0.62503509545E+02  0.37302517654E+03  0.37941383599E+03  0.41800000000E+01 0. -1.
        -11    1    1    2    0    0 -0.18084552455E+02 -0.64089121385E+01  0.29076257262E+02  0.34836100939E+02  0.00000000000E+00 0.  1.
         11    1    1    2    0    0  0.48035353157E+02  0.62077204493E+02 -0.34764851422E+01  0.78568826003E+02  0.00000000000E+00 0. -1.
</event>
<event>
 7    1  0.2420569E-009  0.1675079E+03  0.7561462E-02  0.1180472E+00
          1   -1    0    0  501    0  0.00000000000E+00  0.00000000000E+00  0.16883737607E+04  0.16883737607E+04  0.00000000000E+00 0. -1.
         -1   -1    0    0    0  501 -0.00000000000E+00 -0.00000000000E+00 -0.20397350346E+02  0.20397350346E+02  0.00000000000E+00 0.  1.
         25    2    1    2    0    0  0.14470815323E+03  0.34700012038E+02  0.99044779500E+03  0.10093458182E+04  0.12509039030E+03 0.  0.
          5    1    3    3  502    0  0.14391665840E+03  0.52746906688E+02  0.96872755279E+03  0.98078783876E+03  0.41800000000E+01 0. -1.
         -5    1    3    3    0  502  0.79149483666E+00 -0.18046894651E+02  0.21720242209E+02  0.28557979485E+02  0.41800000000E+01 0. -1.
        -11    1    1    2    0    0 -0.13356003323E+03 -0.51358497051E+02  0.64881607717E+03  0.66440821766E+03  0.00000000000E+00 0. -1.
         11    1    1    2    0    0 -0.11148120003E+02  0.16658485013E+02  0.28712538186E+02  0.35017075144E+02  0.00000000000E+00 0.  1.
</event>
<event>
 7    1  0.2420569E-009  0.1915069E+03  0.7561462E-02  0.1157109E+00
          2   -1    0    0  501    0  0.00000000000E+00  0.00000000000E+00  0.14354395474E+03  0.14354395474E+03  0.00000000000E+00 0. -1.
         -2   -1    0    0    0  501 -0.00000000000E+00 -0.00000000000E+00 -0.31011403885E+03  0.31011403885E+03  0.00000000000E+00 0.  1.
         25    2    1    2    0    0  0.14250431360E+03 -0.10649651672E+03 -0.11663698262E+03  0.24677641627E+03  0.12508167910E+03 0.  0.
          5    1    3    3  502    0  0.43266815274E+02 -0.13645347752E+01 -0.89659639205E+02  0.99650401713E+02  0.41800000000E+01 0.  1.
         -5    1    3    3    0  502  0.99237498330E+02 -0.10513198195E+03 -0.26977343410E+02  0.14712601456E+03  0.41800000000E+01 0.  1.
        -11    1    1    2    0    0 -0.86166930830E+02  0.10845888396E+03 -0.57545207089E+02  0.14999840111E+03  0.00000000000E+00 0.  1.
         11    1    1    2    0    0 -0.56337382773E+02 -0.19623672326E+01  0.76121055879E+01  0.56883176198E+02  0.00000000000E+00 0. -1.
</event>
<event>
 7    1  0.2420569E-009  0.1321757E+03  0.7561462E-02  0.1224263E+00
          2   -1    0    0  501    0  0.00000000000E+00  0.00000000000E+00  0.51947836733E+03  0.51947836733E+03  0.00000000000E+00 0. -1.
         -2   -1    0    0    0  501 -0.00000000000E+00 -0.00000000000E+00 -0.34471325706E+02  0.34471325706E+02  0.00000000000E+00 0.  1.
         25    2    1    2    0    0 -0.58592553974E+02  0.54668290197E+01  0.27747891568E+03  0.31001091197E+03  0.12509693561E+03 0.  0.
          5    1    3    3  502    0 -0.97331462128E+02 -0.55706665473E+01  0.18896328056E+03  0.21267120079E+03  0.41800000000E+01 0.  1.
         -5    1    3    3    0  502  0.38738908154E+02  0.11037495567E+02  0.88515635115E+02  0.97339711183E+02  0.41800000000E+01 0.  1.
        -11    1    1    2    0    0  0.87862301891E+02  0.16854645346E+02  0.16499420328E+03  0.18768843939E+03  0.00000000000E+00 0. -1.
         11    1    1    2    0    0 -0.29269747917E+02 -0.22321474366E+02  0.42533922669E+02  0.56250341675E+02  0.00000000000E+00 0.  1.
</event>
<event>
 7    1  0.2420569E-009  0.9382171E+02  0.7561462E-02  0.1293852E+00
         -2   -1    0    0    0  501 -0.00000000000E+00  0.00000000000E+00  0.42339167318E+02  0.42339167318E+02  0.00000000000E+00 0.  1.
          2   -1    0    0  501    0  0.00000000000E+00 -0.00000000000E+00 -0.46199150455E+03  0.46199150455E+03  0.00000000000E+00 0. -1.
         25    2    1    2    0    0  0.63644993773E+02  0.28366984181E+02 -0.32679127355E+03  0.35678482697E+03  0.12508998865E+03 0.  0.
          5    1    3    3  502    0  0.20577649328E+02 -0.97086331187E+01 -0.28414701022E+03  0.28508716741E+03  0.41800000000E+01 0.  1.
         -5    1    3    3    0  502  0.43067344445E+02  0.38075617300E+02 -0.42644263339E+02  0.71697659558E+02  0.41800000000E+01 0.  1.
        -11    1    1    2    0    0 -0.25472488291E+02  0.28599932587E+02 -0.92300305539E+01  0.39395396529E+02  0.00000000000E+00 0. -1.
         11    1    1    2    0    0 -0.38172505483E+02 -0.56966916768E+02 -0.83631033119E+02  0.10815044836E+03  0.00000000000E+00 0.  1.
</event>
<event>
 7    1  0.2420569E-009  0.1009457E+03  0.7561462E-02  0.1278320E+00
          3   -1    0    0  501    0  0.00000000000E+00  0.00000000000E+00  0.67117271180E+02  0.67117271180E+02  0.00000000000E+00 0. -1.
         -3   -1    0    0    0  501 -0.00000000000E+00 -0.00000000000E+00 -0.23430574978E+03  0.23430574978E+03  0.00000000000E+00 0.  1.
         25    2    1    2    0    0 -0.42211178778E+02 -0.21674562957E+02 -0.42336753400E+02  0.14032883736E+03  0.12509281200E+03 0.  0.
          5    1    3    3  502    0 -0.24357501321E+02 -0.55986259844E+02  0.22093478170E+02  0.65064147882E+02  0.41800000000E+01 0. -1.
         -5    1    3    3    0  502 -0.17853677457E+02  0.34311696887E+02 -0.64430231570E+02  0.75264689478E+02  0.41800000000E+01 0. -1.
        -11    1    1    2    0    0 -0.16926734358E+02  0.37008347333E+02 -0.51109275040E+02  0.65332152142E+02  0.00000000000E+00 0. -1.
         11    1    1    2    0    0  0.59137913137E+02 -0.15333784376E+02 -0.73742450166E+02  0.95762031463E+02  0.00000000000E+00 0.  1.
</event>
<event>
 7    1  0.2420569E-009  0.8519987E+02  0.7561462E-02  0.1314911E+00
         -2   -1    0    0    0  501 -0.00000000000E+00  0.00000000000E+00  0.73824363432E+02  0.73824363432E+02  0.00000000000E+00 0.  1.
          2   -1    0    0  501    0  0.00000000000E+00 -0.00000000000E+00 -0.20502836128E+03  0.20502836128E+03  0.00000000000E+00 0. -1.
         25    2    1    2    0    0 -0.21062066062E+02 -0.52229364787E+02 -0.51027012643E+02  0.14636205934E+03  0.12508628711E+03 0.  0.
          5    1    3    3  502    0  0.10887775466E+02 -0.73751553683E+02  0.86932304365E+01  0.75172335208E+02  0.41800000000E+01 0.  1.
         -5    1    3    3    0  502 -0.31949841528E+02  0.21522188896E+02 -0.59720243079E+02  0.71189724132E+02  0.41800000000E+01 0.  1.
        -11    1    1    2    0    0  0.11283984858E+02  0.16865647361E+02  0.18346896202E+02  0.27356662359E+02  0.00000000000E+00 0.  1.
         11    1    1    2    0    0  0.97780812048E+01  0.35363717426E+02 -0.98523881411E+02  0.10513400302E+03  0.00000000000E+00 0. -1.
</event>
<event>
 7    1  0.3325064E-009  0.1231160E+03  0.7561462E-02  0.1238043E+00
         -2   -1    0    0    0  501 -0.00000000000E+00  0.00000000000E+00  0.38323739349E+02  0.38323739349E+02  0.00000000000E+00 0.  1.
          2   -1    0    0  501    0  0.00000000000E+00 -0.00000000000E+00 -0.59056437077E+03  0.59056437077E+03  0.00000000000E+00 0. -1.
         25    2    1    2    0    0  0.57714702177E+02 -0.86472619152E+02 -0.29862548052E+03  0.34004886093E+03  0.12509016546E+03 0.  0.
          5    1    3    3  502    0  0.78371193634E+02 -0.34473420579E+02 -0.91168385114E+02  0.12513835368E+03  0.41800000000E+01 0. -1.
         -5    1    3    3    0  502 -0.20656491457E+02 -0.51999198573E+02 -0.20745709541E+03  0.21491050725E+03  0.41800000000E+01 0. -1.
        -11    1    1    2    0    0 -0.19118617005E+02  0.37093483456E+02 -0.20585474353E+03  0.21004195643E+03  0.00000000000E+00 0. -1.
         11    1    1    2    0    0 -0.38596085172E+02  0.49379135697E+02 -0.47760407375E+02  0.78797292754E+02  0.00000000000E+00 0.  1.
</event>
<event>
 7    1  0.2420569E-009  0.1088158E+03  0.7561462E-02  0.1262779E+00
         -3   -1    0    0    0  501 -0.00000000000E+00  0.00000000000E+00  0.22901258016E+03  0.22901258016E+03  0.00000000000E+00 0.  1.
          3   -1    0    0  501    0  0.00000000000E+00 -0.00000000000E+00 -0.78193509111E+02  0.78193509111E+02  0.00000000000E+00 0. -1.
         25    2    1    2    0    0 -0.16037990259E+02 -0.17410322549E+02  0.16878306890E+03  0.21141209300E+03  0.12508801805E+03 0.  0.
          5    1    3    3  502    0  0.53330594679E+02  0.19799797851E+01  0.55535700206E+02  0.77134681215E+02  0.41800000000E+01 0.  1.
         -5    1    3    3    0  502 -0.69368584938E+02 -0.19390302334E+02  0.11324736869E+03  0.13427741179E+03  0.41800000000E+01 0.  1.
        -11    1    1    2    0    0 -0.22874294743E+02  0.40638654875E+02 -0.19266631157E+02  0.50457276047E+02  0.00000000000E+00 0. -1.
         11    1    1    2    0    0  0.38912285002E+02 -0.23228332326E+02  0.13026333072E+01  0.45336720219E+02  0.00000000000E+00 0.  1.
</event>
<event>
 7    1  0.2420569E-009  0.9387424E+02  0.7561462E-02  0.1293732E+00
          2   -1    0    0  501    0  0.00000000000E+00  0.00000000000E+00  0.19613100141E+04  0.19613100141E+04  0.00000000000E+00 0. -1.
         -2   -1    0    0    0  501 -0.00000000000E+00 -0.00000000000E+00 -0.20609464126E+02  0.20609464126E+02  0.00000000000E+00 0.  1.
         25    2    1    2    0    0 -0.20631158331E+02  0.26944338300E+02  0.18287355731E+04  0.18333229296E+04  0.12509007100E+03 0.  0.
          5    1    3    3  502    0 -0.34985007963E+01 -0.30176480110E+02  0.14108261425E+04  0.14111593589E+04  0.41800000000E+01 0. -1.
         -5    1    3    3    0  502 -0.17132657535E+02  0.57120818409E+02  0.41790943062E+03  0.42216357073E+03  0.41800000000E+01 0. -1.
        -11    1    1    2    0    0  0.31505428067E+02 -0.57117081108E+02  0.68628166934E+02  0.94682512898E+02  0.00000000000E+00 0.  1.
         11    1    1    2    0    0 -0.10874269735E+02  0.30172742808E+02  0.43336809916E+02  0.53914035692E+02  0.00000000000E+00 0. -1.
</event>
<event>
 7    1  0.2420569E-009  0.1092601E+03  0.7561462E-02  0.1261946E+00
          1   -1    0    0  501    0  0.00000000000E+00  0.00000000000E+00  0.15732862156E+02  0.15732862156E+02  0.00000000000E+00 0. -1.
         -1   -1    0    0    0  501 -0.00000000000E+00 -0.00000000000E+00 -0.12142938687E+04  0.12142938687E+04  0.00000000000E+00 0.  1.
         25    2    1    2    0    0  0.31593235505E+02 -0.37505647523E+02 -0.96126072903E+03  0.97060549701E+03  0.12509210814E+03 0.  0.
          5    1    3    3  502    0  0.40902208405E+01 -0.77383295694E+02 -0.74040971618E+03  0.74446552948E+03  0.41800000000E+01 0.  1.
         -5    1    3    3    0  502  0.27503014664E+02  0.39877648171E+02 -0.22085101285E+03  0.22613996753E+03  0.41800000000E+01 0.  1.
        -11    1    1    2    0    0 -0.52577471376E+02  0.45801795231E+02 -0.22057404052E+03  0.23133331428E+03  0.00000000000E+00 0.  1.
         11    1    1    2    0    0  0.20984235871E+02 -0.82961477072E+01 -0.16726236988E+02  0.28087919568E+02  0.00000000000E+00 0. -1.
</event>
<event>
 7    1  0.2420569E-009  0.1280280E+03  0.7561462E-02  0.1230412E+00
         -1   -1    0    0    0  501 -0.00000000000E+00  0.00000000000E+00  0.38546598276E+02  0.38546598276E+02  0.00000000000E+00 0.  1.
          1   -1    0    0  501    0  0.00000000000E+00 -0.00000000000E+00 -0.73113572676E+03  0.73113572676E+03  0.00000000000E+00 0. -1.
         25    2    1    2    0    0  0.10616918257E+03  0.21852133471E+02 -0.52131906844E+03  0.54696492246E+03  0.12509054407E+03 0.  0.
          5    1    3    3  502    0  0.87002384641E+02  0.51689111494E+02 -0.48706054149E+03  0.49748027363E+03  0.41800000000E+01 0.  1.
         -5    1    3    3    0  502  0.19166797933E+02 -0.29836978022E+02 -0.34258526954E+02  0.49484648827E+02  0.41800000000E+01 0.  1.
        -11    1    1    2    0    0 -0.71337767484E+02 -0.37822830675E+02 -0.16525991289E+03  0.18393064562E+03  0.00000000000E+00 0. -1.
         11    1    1    2    0    0 -0.34831415089E+02  0.15970697203E+02 -0.60101471509E+01  0.38786756954E+02  0.00000000000E+00 0.  1.
</event>
<event>
 7    1  0.2420569E-009  0.6638724E+02  0.7561462E-02  0.1372828E+00
         -4   -1    0    0    0  501 -0.00000000000E+00  0.00000000000E+00  0.34499917587E+03  0.34499917587E+03  0.00000000000E+00 0.  1.
          4   -1    0    0  501    0  0.00000000000E+00 -0.00000000000E+00 -0.36413700585E+02  0.36413700585E+02  0.00000000000E+00 0. -1.
         25    2    1    2    0    0  0.15365227775E+02 -0.19399687576E+02  0.14926825939E+03  0.19631973839E+03  0.12509191947E+03 0.  0.
          5    1    3    3  502    0  0.30734245387E+02  0.35591451972E+01  0.16245079447E+03  0.16542368143E+03  0.41800000000E+01 0.  1.
         -5    1    3    3    0  502 -0.15369017611E+02 -0.22958832773E+02 -0.13182535077E+02  0.30896056960E+02  0.41800000000E+01 0.  1.
        -11    1    1    2    0    0  0.24970333367E+02  0.21878959268E+02  0.13249280334E+03  0.13658897959E+03  0.00000000000E+00 0.  1.
         11    1    1    2    0    0 -0.40335561143E+02 -0.24792716926E+01  0.26824412546E+02  0.48504158474E+02  0.00000000000E+00 0. -1.
</event>
<event>
 7    1  0.2420569E-009  0.1193775E+03  0.7561462E-02  0.1244128E+00
          1   -1    0    0  501    0  0.00000000000E+00  0.00000000000E+00  0.58883091119E+03  0.58883091119E+03  0.00000000000E+00 0. -1.
         -1   -1    0    0    0  501 -0.00000000000E+00 -0.00000000000E+00 -0.27041896516E+02  0.27041896516E+02  0.00000000000E+00 0.  1.
         25    2    1    2    0    0 -0.56214940424E+02 -0.19532041758E+02  0.25307588314E+03  0.28850881260E+03  0.12509321379E+03 0.  0.
          5    1    3    3  502    0 -0.92104468471E+02 -0.12630419885E+02  0.22065178767E+03  0.23947326453E+03  0.41800000000E+01 0. -1.
         -5    1    3    3    0  502  0.35889528046E+02 -0.69016218728E+01  0.32424095466E+02  0.49035548071E+02  0.41800000000E+01 0. -1.
        -11    1    1    2    0    0  0.54142471921E+02  0.52771152149E+02  0.21226062302E+03  0.22532370903E+03  0.00000000000E+00 0.  1.
         11    1    1    2    0    0  0.20724685036E+01 -0.33239110391E+02  0.96452508505E+02  0.10204028607E+03  0.00000000000E+00 0. -1.
</event>
<event>
 7    1  0.2420569E-009  0.6521575E+02  0.7561462E-02  0.1377162E+00
         -1   -1    0    0    0  501 -0.00000000000E+00  0.00000000000E+00  0.19400533015E+02  0.19400533015E+02  0.00000000000E+00 0.  1.
          1   -1    0    0  501    0  0.00000000000E+00 -0.00000000000E+00 -0.64631531212E+03  0.64631531212E+03  0.00000000000E+00 0. -1.
         25    2    1    2    0    0  0.12087032568E+02  0.14197684818E+02 -0.40423848499E+03  0.42356288155E+03  0.12509632798E+03 0.  0.
          5    1    3    3  502    0  0.24800506615E+02  0.81784152197E+01 -0.88293736257E+01  0.27881568150E+02  0.41800000000E+01 0.  1.
         -5    1    3    3    0  502 -0.12713474047E+02  0.60192695978E+01 -0.39540911136E+03  0.39568131340E+03  0.41800000000E+01 0.  1.
        -11    1    1    2    0    0 -0.29528318987E+02 -0.45052740369E+02 -0.17254288688E+03  0.18075596491E+03  0.00000000000E+00 0. -1.
         11    1    1    2    0    0  0.17441286419E+02  0.30855055551E+02 -0.50133407240E+02  0.61396998677E+02  0.00000000000E+00 0.  1.
</event>
<event>
 7    1  0.2420569E-009  0.1427764E+03  0.7561462E-02  0.1209641E+00
          2   -1    0    0  501    0  0.00000000000E+00  0.00000000000E+00  0.89900268266E+03  0.89900268266E+03  0.00000000000E+00 0. -1.
         -2   -1    0    0    0  501 -0.00000000000E+00 -0.00000000000E+00 -0.33126041398E+02  0.33126041398E+02  0.00000000000E+00 0.  1.
         25    2    1    2    0    0 -0.95975022794E+02  0.56076681919E+01  0.71493653035E+03  0.73213694780E+03  0.12509043513E+03 0.  0.
          5    1    3    3  502    0  0.24233163828E+02  0.22954626514E+02  0.21660013660E+03  0.21919683547E+03  0.41800000000E+01 0.  1.
         -5    1    3    3    0  502 -0.12020818662E+03 -0.17346958322E+02  0.49833639375E+03  0.51294011233E+03  0.41800000000E+01 0.  1.
        -11    1    1    2    0    0 -0.14319783882E+02  0.12016477575E+02  0.14462503991E+02  0.23635057974E+02  0.00000000000E+00 0.  1.
         11    1    1    2    0    0  0.11029480668E+03 -0.17624145767E+02  0.13647760692E+03  0.17635671829E+03  0.00000000000E+00 0. -1.
</event>
<event>
 7    1  0.2420569E-009  0.1116604E+03  0.7561462E-02  0.1257526E+00
          2   -1    0    0  501    0  0.00000000000E+00  0.00000000000E+00  0.27508836249E+02  0.27508836249E+02  0.00000000000E+00 0. -1.
         -2   -1    0    0    0  501 -0.00000000000E+00 -0.00000000000E+00 -0.52029987924E+03  0.52029987924E+03  0.00000000000E+00 0.  1.
         25    2    1    2    0    0 -0.55332491989E+01 -0.45709817807E+02 -0.28624140563E+03  0.31575568149E+03  0.12508998283E+03 0.  0.
          5    1    3    3  502    0  0.56105252163E+02 -0.32958068618E+02 -0.18817999959E+03  0.19915626592E+03  0.41800000000E+01 0.  1.
         -5    1    3    3    0  502 -0.61638501362E+02 -0.12751749189E+02 -0.98061406037E+02  0.11659941557E+03  0.41800000000E+01 0.  1.
        -11    1    1    2    0    0  0.44276215146E+02  0.20341316933E+02 -0.15629881628E+03  0.16371766054E+03  0.00000000000E+00 0.  1.
         11    1    1    2    0    0 -0.38742965947E+02  0.25368500874E+02 -0.50250821089E+02  0.68335373468E+02  0.00000000000E+00 0. -1.
</event>
<event>
 7    1  0.2420569E-009  0.7584217E+02  0.7561462E-02  0.1341283E+00
         -2   -1    0    0    0  501 -0.00000000000E+00  0.00000000000E+00  0.20178821472E+03  0.20178821472E+03  0.00000000000E+00 0.  1.
          2   -1    0    0  501    0  0.00000000000E+00 -0.00000000000E+00 -0.54413821878E+02  0.54413821878E+02  0.00000000000E+00 0. -1.
         25    2    1    2    0    0  0.11091452735E+02 -0.18945426512E+02  0.42248446697E+02  0.13384202196E+03  0.12508719393E+03 0.  0.
          5    1    3    3  502    0 -0.77752365415E+01  0.33171548114E+02  0.65217204233E+02  0.73699131850E+02  0.41800000000E+01 0. -1.
         -5    1    3    3    0  502  0.18866689276E+02 -0.52116974626E+02 -0.22968757536E+02  0.60142890113E+02  0.41800000000E+01 0. -1.
        -11    1    1    2    0    0 -0.32611586512E+02  0.22959208296E+02  0.57898040012E+02  0.70305219277E+02  0.00000000000E+00 0.  1.
         11    1    1    2    0    0  0.21520133777E+02 -0.40137817840E+01  0.47227906135E+02  0.52054795360E+02  0.00000000000E+00 0. -1.
</event>
<event>
 7    1  0.2420569E-009  0.8499883E+02  0.7561462E-02  0.1315436E+00
         -3   -1    0    0    0  501 -0.00000000000E+00  0.00000000000E+00  0.25646497732E+03  0.25646497732E+03  0.00000000000E+00 0.  1.
          3   -1    0    0  501    0  0.00000000000E+00 -0.00000000000E+00 -0.51318850032E+02  0.51318850032E+02  0.00000000000E+00 0. -1.
         25    2    1    2    0    0  0.14833155652E+02 -0.32042975569E+02  0.14211469777E+03  0.19258992348E+03  0.12509003364E+03 0.  0.
          5    1    3    3  502    0  0.41278060951E+02 -0.50807719705E+02  0.23701713342E+02  0.69746299635E+02  0.41800000000E+01 0.  1.
         -5    1    3    3    0  502 -0.26444905299E+02  0.18764744136E+02  0.11841298443E+03  0.12284362385E+03  0.41800000000E+01 0.  1.
        -11    1    1    2    0    0  0.95110774571E+01 -0.15562560614E+02  0.58793199598E+02  0.61557243329E+02  0.00000000000E+00 0.  1.
         11    1    1    2    0    0 -0.24344233109E+02  0.47605536183E+02  0.42382299182E+01  0.53636660539E+02  0.00000000000E+00 0. -1.
</event>
<event>
 7    1  0.2420569E-009  0.7950610E+02  0.7561462E-02  0.1330459E+00
          1   -1    0    0  501    0  0.00000000000E+00  0.00000000000E+00  0.15024573382E+03  0.15024573382E+03  0.00000000000E+00 0.  1.
         -1   -1    0    0    0  501 -0.00000000000E+00 -0.00000000000E+00 -0.10124040910E+03  0.10124040910E+03  0.00000000000E+00 0. -1.
         25    2    1    2    0    0 -0.33115403119E+01 -0.36018796034E+02  0.75883000296E+02  0.15071119932E+03  0.12508923175E+03 0.  0.
          5    1    3    3  502    0  0.37500663091E+02 -0.58773960795E+01 -0.19286161338E+02  0.42781677574E+02  0.41800000000E+01 0.  1.
         -5    1    3    3    0  502 -0.40812203403E+02 -0.30141399954E+02  0.95169161635E+02  0.10792952174E+03  0.41800000000E+01 0.  1.
        -11    1    1    2    0    0  0.26101546544E+01  0.52928175690E+02 -0.49505061526E+02  0.72518658330E+02  0.00000000000E+00 0. -1.
         11    1    1    2    0    0  0.70138565746E+00 -0.16909379657E+02  0.22627385956E+02  0.28256285273E+02  0.00000000000E+00 0.  1.
</event>
<event>
 7    1  0.2420569E-009  0.8243813E+02  0.7561462E-02  0.1322271E+00
          2   -1    0    0  501    0  0.00000000000E+00  0.00000000000E+00  0.81765941383E+02  0.81765941383E+02  0.00000000000E+00 0. -1.
         -2   -1    0    0    0  501 -0.00000000000E+00 -0.00000000000E+00 -0.20472988845E+03  0.20472988845E+03  0.00000000000E+00 0.  1.
         25    2    1    2    0    0 -0.19489076563E+02  0.21494609685E+02  0.63242026999E+01  0.12856545539E+03  0.12508892208E+03 0.  0.
          5    1    3    3  502    0 -0.46537155349E+02 -0.33396202016E+00 -0.46026812536E+02  0.65587790257E+02  0.41800000000E+01 0. -1.
         -5    1    3    3    0  502  0.27048078787E+02  0.21828571705E+02  0.52351015236E+02  0.62977665128E+02  0.41800000000E+01 0. -1.
        -11    1    1    2    0    0 -0.11157243187E+02 -0.43825477679E+02 -0.37960965249E+02  0.59043978964E+02  0.00000000000E+00 0. -1.
         11    1    1    2    0    0  0.30646319750E+02  0.22330867994E+02 -0.91327184520E+02  0.98886395485E+02  0.00000000000E+00 0.  1.
</event>
<event>
 7    1  0.2420569E-009  0.9430634E+02  0.7561462E-02  0.1292746E+00
         -1   -1    0    0    0  501 -0.00000000000E+00  0.00000000000E+00  0.40079507989E+02  0.40079507989E+02  0.00000000000E+00 0.  1.
          1   -1    0    0  501    0  0.00000000000E+00 -0.00000000000E+00 -0.36852097664E+03  0.36852097664E+03  0.00000000000E+00 0. -1.
         25    2    1    2    0    0  0.50216996373E+02  0.16900618145E+02 -0.16859806547E+03  0.21651936281E+03  0.12509176300E+03 0.  0.
          5    1    3    3  502    0  0.25310008311E+02 -0.54311356225E+02 -0.68476581086E+02  0.91086961158E+02  0.41800000000E+01 0.  1.
         -5    1    3    3    0  502  0.24906988062E+02  0.71211974370E+02 -0.10012148438E+03  0.12543240165E+03  0.41800000000E+01 0.  1.
        -11    1    1    2    0    0 -0.40403728515E+02 -0.13911308426E+02 -0.17138944568E+03  0.17663614542E+03  0.00000000000E+00 0. -1.
         11    1    1    2    0    0 -0.98132678582E+01 -0.29893097188E+01  0.11546042497E+02  0.15444976400E+02  0.00000000000E+00 0.  1.
</event>
<event>
 7    1  0.2420569E-009  0.1366199E+03  0.7561462E-02  0.1217951E+00
         -1   -1    0    0    0  501 -0.00000000000E+00  0.00000000000E+00  0.73743033691E+03  0.73743033691E+03  0.00000000000E+00 0.  1.
          1   -1    0    0  501    0  0.00000000000E+00 -0.00000000000E+00 -0.34357229372E+02  0.34357229372E+02  0.00000000000E+00 0. -1.
         25    2    1    2    0    0 -0.10141685113E+03  0.11737750835E+02  0.48861504373E+03  0.51460256419E+03  0.12509190871E+03 0.  0.
          5    1    3    3  502    0 -0.89940455170E+01 -0.48648081524E+02  0.18363046525E+03  0.19022394397E+03  0.41800000000E+01 0. -1.
         -5    1    3    3    0  502 -0.92422805616E+02  0.60385832359E+02  0.30498457848E+03  0.32437862023E+03  0.41800000000E+01 0. -1.
        -11    1    1    2    0    0  0.20683410349E+02 -0.23744135485E+02  0.43607843436E+01  0.31789996441E+02  0.00000000000E+00 0. -1.
         11    1    1    2    0    0  0.80733440783E+02  0.12006384650E+02  0.21009727946E+03  0.22539500564E+03  0.00000000000E+00 0.  1.
</event>
<event>
 7    1  0.2420569E-009  0.1043506E+03  0.7561462E-02  0.1271404E+00
         -2   -1    0    0    0  501 -0.00000000000E+00  0.00000000000E+00  0.41369713123E+02  0.41369713123E+02  0.00000000000E+00 0.  1.
          2   -1    0    0  501    0  0.00000000000E+00 -0.00000000000E+00 -0.32807513951E+03  0.32807513951E+03  0.00000000000E+00 0. -1.
         25    2    1    2    0    0 -0.12729147196E+02 -0.29700781022E+02 -0.20984919129E+03  0.24643067030E+03  0.12508886681E+03 0.  0.
          5    1    3    3  502    0 -0.31593943250E+02  0.40237385436E+02 -0.53912890662E+02  0.74439885923E+02  0.41800000000E+01 0.  1.
         -5    1    3    3    0  502  0.18864796053E+02 -0.69938166458E+02 -0.15593630063E+03  0.17199078438E+03  0.41800000000E+01 0.  1.
        -11    1    1    2    0    0  0.35748553061E+02 -0.11555587045E+02 -0.62892787391E+01  0.38092593309E+02  0.00000000000E+00 0.  1.
         11    1    1    2    0    0 -0.23019405865E+02  0.41256368068E+02 -0.70566956362E+02  0.84921589026E+02  0.00000000000E+00 0. -1.
</event>
<event>
 7    1  0.2420569E-009  0.1066022E+03  0.7561462E-02  0.1266995E+00
         -1   -1    0    0    0  501 -0.00000000000E+00  0.00000000000E+00  0.62577848172E+02  0.62577848172E+02  0.00000000000E+00 0.  1.
          1   -1    0    0  501    0  0.00000000000E+00 -0.00000000000E+00 -0.22643289383E+03  0.22643289383E+03  0.00000000000E+00 0. -1.
         25    2    1    2    0    0 -0.39019189688E+02  0.55720922763E+01 -0.54560590127E+02  0.14205284902E+03  0.12509439853E+03 0.  0.
          5    1    3    3  502    0 -0.98917643103E+01 -0.55330830953E+02 -0.20104850301E+01  0.56399133904E+02  0.41800000000E+01 0. -1.
         -5    1    3    3    0  502 -0.29127425377E+02  0.60902923229E+02 -0.52550105097E+02  0.85653715113E+02  0.41800000000E+01 0. -1.
        -11    1    1    2    0    0  0.13046656872E+02  0.37055586939E+02 -0.18671265395E+02  0.43496527797E+02  0.00000000000E+00 0.  1.
         11    1    1    2    0    0  0.25972532816E+02 -0.42627679215E+02 -0.90623190137E+02  0.10346136519E+03  0.00000000000E+00 0. -1.
</event>
<event>
 7    1  0.2420569E-009  0.1164647E+03  0.7561462E-02  0.1249046E+00
          2   -1    0    0  501    0  0.00000000000E+00  0.00000000000E+00  0.45140743856E+03  0.45140743856E+03  0.00000000000E+00 0.  1.
         -2   -1    0    0    0  501 -0.00000000000E+00 -0.00000000000E+00 -0.38642725147E+02  0.38642725147E+02  0.00000000000E+00 0. -1.
         25    2    1    2    0    0  0.17606668015E+02  0.73274538753E+02  0.22986623584E+03  0.27232961576E+03  0.12508309420E+03 0.  0.
          5    1    3    3  502    0 -0.39651832996E+02  0.23733574745E+02  0.16852059262E+03  0.17479191333E+03  0.41800000000E+01 0. -1.
         -5    1    3    3    0  502  0.57258501011E+02  0.49540964008E+02  0.61345643220E+02  0.97537702428E+02  0.41800000000E+01 0. -1.
        -11    1    1    2    0    0  0.21889538907E+02 -0.67277568410E+02  0.15044701527E+03  0.16625200007E+03  0.00000000000E+00 0.  1.
         11    1    1    2    0    0 -0.39496206922E+02 -0.59969703434E+01  0.32451462308E+02  0.51468547876E+02  0.00000000000E+00 0. -1.
</event>
<event>
 7    1  0.2420569E-009  0.8838681E+02  0.7561462E-02  0.1306806E+00
         -1   -1    0    0    0  501 -0.00000000000E+00  0.00000000000E+00  0.10132967569E+03  0.10132967569E+03  0.00000000000E+00 0.  1.
          1   -1    0    0  501    0  0.00000000000E+00 -0.00000000000E+00 -0.13261994612E+03  0.13261994612E+03  0.00000000000E+00 0. -1.
         25    2    1    2    0    0  0.42906922450E+02  0.70472214553E+01 -0.14608565498E+02  0.13323732852E+03  0.12509239866E+03 0.  0.
          5    1    3    3  502    0  0.49915921835E+01 -0.27135423588E+02 -0.59122485949E+02  0.65377273962E+02  0.41800000000E+01 0.  1.
         -5    1    3    3    0  502  0.37915330267E+02  0.34182645043E+02  0.44513920451E+02  0.67860054563E+02  0.41800000000E+01 0.  1.
        -11    1    1    2    0    0 -0.69739737622E+02 -0.10741270176E+02 -0.36550206158E+01  0.70656670345E+02  0.00000000000E+00 0.  1.
         11    1    1    2    0    0  0.26832815172E+02  0.36940487203E+01 -0.13026684323E+02  0.30055622942E+02  0.00000000000E+00 0. -1.
</event>
<event>
 7    1  0.3720280E-009  0.1714891E+03  0.7561462E-02  0.1176304E+00
         -2   -1    0    0    0  501 -0.00000000000E+00  0.00000000000E+00  0.28867966850E+02  0.28867966850E+02  0.00000000000E+00 0.  1.
          2   -1    0    0  501    0  0.00000000000E+00 -0.00000000000E+00 -0.11740373559E+04  0.11740373559E+04  0.00000000000E+00 0. -1.
         25    2    1    2    0    0 -0.13923344822E+03  0.37559009446E+01 -0.43730400339E+03  0.47569484934E+03  0.12510291129E+03 0.  0.
          5    1    3    3  502    0 -0.11335069617E+02 -0.39962928327E+02 -0.48226939677E+02  0.63787377703E+02  0.41800000000E+01 0. -1.
         -5    1    3    3    0  502 -0.12789837861E+03  0.43718829272E+02 -0.38907706371E+03  0.41190747164E+03  0.41800000000E+01 0. -1.
        -11    1    1    2    0    0  0.33646087902E+02 -0.41897633714E+02 -0.20077195697E+03  0.20783851820E+03  0.00000000000E+00 0.  1.
         11    1    1    2    0    0  0.10558736032E+03  0.38141732769E+02 -0.50709342869E+03  0.51937195521E+03  0.00000000000E+00 0. -1.
</event>
<event>
 7    1  0.2420569E-009  0.6560718E+02  0.7561462E-02  0.1375702E+00
         -2   -1    0    0    0  501 -0.00000000000E+00  0.00000000000E+00  0.24867544050E+02  0.24867544050E+02  0.00000000000E+00 0.  1.
          2   -1    0    0  501    0  0.00000000000E+00 -0.00000000000E+00 -0.45817168885E+03  0.45817168885E+03  0.00000000000E+00 0. -1.
         25    2    1    2    0    0  0.26175907190E+02 -0.25601659360E+02 -0.31291665822E+03  0.33897635957E+03  0.12509002469E+03 0.  0.
          5    1    3    3  502    0 -0.11212652466E+02 -0.10753947664E+02 -0.29380093591E+03  0.29424111423E+03  0.41800000000E+01 0.  1.
         -5    1    3    3    0  502  0.37388559655E+02 -0.14847711696E+02 -0.19115722312E+02  0.44735245335E+02  0.41800000000E+01 0.  1.
        -11    1    1    2    0    0 -0.24151858504E+02  0.47182531926E+02 -0.60827996973E+02  0.80681774918E+02  0.00000000000E+00 0.  1.
         11    1    1    2    0    0 -0.20240486852E+01 -0.21580872566E+02 -0.59559489609E+02  0.63381098414E+02  0.00000000000E+00 0. -1.
</event>
<event>
 7    1  0.2420569E-009  0.1619697E+03  0.7561462E-02  0.1186491E+00
         -2   -1    0    0    0  501 -0.00000000000E+00  0.00000000000E+00  0.40819552315E+02  0.40819552315E+02  0.00000000000E+00 0.  1.
          2   -1    0    0  501    0  0.00000000000E+00 -0.00000000000E+00 -0.87131521760E+03  0.87131521760E+03  0.00000000000E+00 0. -1.
         25    2    1    2    0    0 -0.14968055564E+03  0.11439402152E+02 -0.35218230439E+03  0.40275828584E+03  0.12508690032E+03 0.  0.
          5    1    3    3  502    0 -0.97101233013E+02  0.10794900463E+02 -0.82426963511E+02  0.12789392496E+03  0.41800000000E+01 0.  1.
         -5    1    3    3    0  502 -0.52579322628E+02  0.64450168891E+00 -0.26975534088E+03  0.27486436088E+03  0.41800000000E+01 0.  1.
        -11    1    1    2    0    0 -0.51806026176E+01 -0.17671148995E+02 -0.32021451235E+02  0.36938888579E+02  0.00000000000E+00 0.  1.
         11    1    1    2    0    0  0.15486115826E+03  0.62317468428E+01 -0.44629190966E+03  0.47243759549E+03  0.00000000000E+00 0. -1.
</event>
<event>
 7    1  0.2420569E-009  0.1616196E+03  0.7561462E-02  0.1186880E+00
         -2   -1    0    0    0  501 -0.00000000000E+00  0.00000000000E+00  0.73567018462E+02  0.73567018462E+02  0.00000000000E+00 0.  1.
          2   -1    0    0  501    0  0.00000000000E+00 -0.00000000000E+00 -0.46869597955E+03  0.46869597955E+03  0.00000000000E+00 0. -1.
         25    2    1    2    0    0  0.24494425215E+02 -0.12337750088E+03 -0.32737622444E+03  0.37235151115E+03  0.12509384852E+03 0.  0.
          5    1    3    3  502    0 -0.17186848625E+02 -0.13221525716E+03 -0.22816807199E+03  0.26429983630E+03  0.41800000000E+01 0.  1.
         -5    1    3    3    0  502  0.41681273839E+02  0.88377562876E+01 -0.99208152450E+02  0.10805167485E+03  0.41800000000E+01 0.  1.
        -11    1    1    2    0    0  0.27160111357E+02  0.54976348392E+02 -0.56648172314E+02  0.83481051490E+02  0.00000000000E+00 0.  1.
         11    1    1    2    0    0 -0.51654536571E+02  0.68401152483E+02 -0.11104564332E+02  0.86430435371E+02  0.00000000000E+00 0. -1.
</event>
<event>
 7    1  0.2420569E-009  0.8693040E+02  0.7561462E-02  0.1310460E+00
          1   -1    0    0  501    0  0.00000000000E+00  0.00000000000E+00  0.45162126010E+03  0.45162126010E+03  0.00000000000E+00 0. -1.
         -1   -1    0    0    0  501 -0.00000000000E+00 -0.00000000000E+00 -0.44765672057E+02  0.44765672057E+02  0.00000000000E+00 0.  1.
         25    2    1    2    0    0  0.24598145646E+02 -0.63358663100E+01  0.37475164995E+03  0.39589359438E+03  0.12509087478E+03 0.  0.
          5    1    3    3  502    0  0.69774955540E+01  0.49515383932E+02  0.73640242553E+02  0.89111258623E+02  0.41800000000E+01 0. -1.
         -5    1    3    3    0  502  0.17620650092E+02 -0.55851250242E+02  0.30111140740E+03  0.30678233575E+03  0.41800000000E+01 0. -1.
        -11    1    1    2    0    0  0.14214622117E+02  0.19369059813E+02  0.50258867632E+02  0.55706101422E+02  0.00000000000E+00 0. -1.
         11    1    1    2    0    0 -0.38812767763E+02 -0.13033193503E+02 -0.18154929540E+02  0.44787236362E+02  0.00000000000E+00 0.  1.
</event>
<event>
 7    1  0.2420569E-009  0.9895733E+02  0.7561462E-02  0.1282504E+00
         -2   -1    0    0    0  501 -0.00000000000E+00  0.00000000000E+00  0.41571778939E+02  0.41571778939E+02  0.00000000000E+00 0.  1.
          2   -1    0    0  501    0  0.00000000000E+00 -0.00000000000E+00 -0.36336928115E+03  0.36336928115E+03  0.00000000000E+00 0. -1.
         25    2    1    2    0    0  0.17881429509E+02  0.20810748819E+02 -0.26478964756E+03  0.29413310131E+03  0.12509153065E+03 0.  0.
          5    1    3    3  502    0  0.34073594866E+02  0.59547361290E+02 -0.84261029659E+02  0.10873955868E+03  0.41800000000E+01 0.  1.
         -5    1    3    3    0  502 -0.16192165357E+02 -0.38736612471E+02 -0.18052861790E+03  0.18539354262E+03  0.41800000000E+01 0.  1.
        -11    1    1    2    0    0  0.30806218675E+02  0.60323336459E+01 -0.43412169159E+02  0.53572647773E+02  0.00000000000E+00 0.  1.
         11    1    1    2    0    0 -0.48687648185E+02 -0.26843082465E+02 -0.13595685486E+02  0.57235311005E+02  0.00000000000E+00 0. -1.
</event>
<event>
 7    1  0.2420569E-009  0.1582571E+03  0.7561462E-02  0.1190679E+00
         -2   -1    0    0    0  501 -0.00000000000E+00  0.00000000000E+00  0.65772755278E+02  0.65772755278E+02  0.00000000000E+00 0.  1.
          2   -1    0    0  501    0  0.00000000000E+00 -0.00000000000E+00 -0.49757207436E+03  0.49757207436E+03  0.00000000000E+00 0. -1.
         25    2    1    2    0    0  0.11601375628E+03 -0.64647383995E+02 -0.15029431202E+03  0.23637805124E+03  0.12509087489E+03 0.  0.
          5    1    3    3  502    0  0.58209980394E+02 -0.81916610624E+02 -0.35556296028E+02  0.10667921775E+03  0.41800000000E+01 0.  1.
         -5    1    3    3    0  502  0.57803775887E+02  0.17269226629E+02 -0.11473801599E+03  0.12969883349E+03  0.41800000000E+01 0.  1.
        -11    1    1    2    0    0  0.12583502328E+02  0.34631962176E+01 -0.74944075336E+02  0.76072023023E+02  0.00000000000E+00 0. -1.
         11    1    1    2    0    0 -0.12859725861E+03  0.61184187777E+02 -0.20656093173E+03  0.25089475537E+03  0.00000000000E+00 0.  1.
</event>
<event>
 7    1  0.2420569E-009  0.1102849E+03  0.7561462E-02  0.1260043E+00
          1   -1    0    0  501    0  0.00000000000E+00  0.00000000000E+00  0.42598155931E+02  0.42598155931E+02  0.00000000000E+00 0. -1.
         -1   -1    0    0    0  501 -0.00000000000E+00 -0.00000000000E+00 -0.35644793109E+03  0.35644793109E+03  0.00000000000E+00 0.  1.
         25    2    1    2    0    0  0.31786865745E+02 -0.45917189840E+02 -0.18402779142E+03  0.22941930111E+03  0.12509274380E+03 0.  0.
          5    1    3    3  502    0  0.73299248602E+02 -0.55040690638E+02 -0.14482303697E+03  0.17144515714E+03  0.41800000000E+01 0.  1.
         -5    1    3    3    0  502 -0.41512382857E+02  0.91235007978E+01 -0.39204754451E+02  0.57974143968E+02  0.41800000000E+01 0.  1.
        -11    1    1    2    0    0 -0.44755720434E+02  0.72763965287E+01 -0.14960083077E+02  0.47747508246E+02  0.00000000000E+00 0. -1.
         11    1    1    2    0    0  0.12968854689E+02  0.38640793311E+02 -0.11486190066E+03  0.12187927766E+03  0.00000000000E+00 0.  1.
</event>
<event>
 7    1  0.2420569E-009  0.9453879E+02  0.7561462E-02  0.1292218E+00
          1   -1    0    0  501    0  0.00000000000E+00  0.00000000000E+00  0.24856227205E+03  0.24856227205E+03  0.00000000000E+00 0. -1.
         -1   -1    0    0    0  501 -0.00000000000E+00 -0.00000000000E+00 -0.58529761190E+02  0.58529761190E+02  0.00000000000E+00 0.  1.
         25    2    1    2    0    0  0.40606877120E+02 -0.35793426161E+02  0.93577409714E+02  0.16533071031E+03  0.12508966519E+03 0.  0.
          5    1    3    3  502    0  0.44386072597E+01  0.31255958708E+02 -0.12883931592E+02  0.34352645930E+02  0.41800000000E+01 0. -1.
         -5    1    3    3    0  502  0.36168269860E+02 -0.67049384869E+02  0.10646134131E+03  0.13097806438E+03  0.41800000000E+01 0. -1.
        -11    1    1    2    0    0 -0.35530746440E+01 -0.16481494616E+02 -0.84319250940E+01  0.18851030873E+02  0.00000000000E+00 0.  1.
         11    1    1    2    0    0 -0.37053802476E+02  0.52274920777E+02  0.10488702624E+03  0.12291029206E+03  0.00000000000E+00 0. -1.
</event>
<event>
 7    1  0.2420569E-009  0.1021332E+03  0.7561462E-02  0.1275873E+00
          2   -1    0    0  501    0  0.00000000000E+00  0.00000000000E+00  0.20519646407E+03  0.20519646407E+03  0.00000000000E+00 0. -1.
         -2   -1    0    0    0  501 -0.00000000000E+00 -0.00000000000E+00 -0.61165491800E+02  0.61165491800E+02  0.00000000000E+00 0.  1.
         25    2    1    2    0    0  0.17603485716E+01 -0.29431006039E+02  0.11142226806E+03  0.17009488851E+03  0.12509223131E+03 0.  0.
          5    1    3    3  502    0  0.24308397343E+02 -0.74214194826E+02  0.68129901142E+02  0.10371981838E+03  0.41800000000E+01 0. -1.
         -5    1    3    3    0  502 -0.22548048772E+02  0.44783188788E+02  0.43292366920E+02  0.66375070131E+02  0.41800000000E+01 0. -1.
        -11    1    1    2    0    0 -0.35592414441E+02  0.11182336175E+02  0.42523097627E+02  0.56569235807E+02  0.00000000000E+00 0. -1.
         11    1    1    2    0    0  0.33832065869E+02  0.18248669864E+02 -0.99143934217E+01  0.39697831549E+02  0.00000000000E+00 0.  1.
</event>
<event>
 7    1  0.2420569E-009  0.1833759E+03  0.7561462E-02  0.1164575E+00
         -2   -1    0    0    0  501 -0.00000000000E+00  0.00000000000E+00  0.50563908387E+02  0.50563908387E+02  0.00000000000E+00 0.  1.
          2   -1    0    0  501    0  0.00000000000E+00 -0.00000000000E+00 -0.84773232574E+03  0.84773232574E+03  0.00000000000E+00 0. -1.
         25    2    1    2    0    0  0.43250832583E+02 -0.17161313072E+03 -0.41294489212E+03  0.46636105525E+03  0.12508976283E+03 0.  0.
          5    1    3    3  502    0  0.49090228595E+02 -0.75936251376E+02 -0.32082767547E+03  0.33335271795E+03  0.41800000000E+01 0.  1.
         -5    1    3    3    0  502 -0.58393960115E+01 -0.95676879342E+02 -0.92117216653E+02  0.13300833730E+03  0.41800000000E+01 0.  1.
        -11    1    1    2    0    0 -0.43969267134E+02  0.10715920014E+03 -0.32258245178E+03  0.34274747092E+03  0.00000000000E+00 0.  1.
         11    1    1    2    0    0  0.71843455080E+00  0.64453930578E+02 -0.61641073450E+02  0.89187707960E+02  0.00000000000E+00 0. -1.
</event>
<event>
 7    1  0.2420569E-009  0.8712091E+02  0.7561462E-02  0.1309977E+00
         -3   -1    0    0    0  501 -0.00000000000E+00  0.00000000000E+00  0.13789809438E+03  0.13789809438E+03  0.00000000000E+00 0.  1.
          3   -1    0    0  501    0  0.00000000000E+00 -0.00000000000E+00 -0.11413003204E+03  0.11413003204E+03  0.00000000000E+00 0. -1.
         25    2    1    2    0    0  0.60567166641E+02 -0.13668346979E+02  0.37351034284E+02  0.14456016257E+03  0.12508930992E+03 0.  0.
          5    1    3    3  502    0  0.21248845682E+02  0.38845678212E+02  0.60306266433E+02  0.74932091454E+02  0.41800000000E+01 0. -1.
         -5    1    3    3    0  502  0.39318320959E+02 -0.52514025191E+02 -0.22955232149E+02  0.69628071120E+02  0.41800000000E+01 0. -1.
        -11    1    1    2    0    0 -0.34438357363E+02  0.15651559127E+02 -0.49941403318E+02  0.62650742424E+02  0.00000000000E+00 0. -1.
         11    1    1    2    0    0 -0.26128809278E+02 -0.19832121477E+01  0.36358431366E+02  0.44817221423E+02  0.00000000000E+00 0.  1.
</event>
<event>
 7    1  0.2420569E-009  0.9704923E+02  0.7561462E-02  0.1286626E+00
         -1   -1    0    0    0  501 -0.00000000000E+00  0.00000000000E+00  0.73544839056E+02  0.73544839056E+02  0.00000000000E+00 0.  1.
          1   -1    0    0  501    0  0.00000000000E+00 -0.00000000000E+00 -0.17533784966E+03  0.17533784966E+03  0.00000000000E+00 0. -1.
         25    2    1    2    0    0  0.28683562994E+02  0.14312320106E+02 -0.66822907337E+02  0.14539542880E+03  0.12508773113E+03 0.  0.
          5    1    3    3  502    0 -0.43918594695E+02  0.31218008792E+02 -0.22289341359E+02  0.58461048324E+02  0.41800000000E+01 0. -1.
         -5    1    3    3    0  502  0.72602157688E+02 -0.16905688685E+02 -0.44533565978E+02  0.86934380481E+02  0.41800000000E+01 0. -1.
        -11    1    1    2    0    0  0.17129578572E+02 -0.87714105231E+01  0.22613658417E+02  0.29694067617E+02  0.00000000000E+00 0.  1.
         11    1    1    2    0    0 -0.45813141566E+02 -0.55409095831E+01 -0.57583761679E+02  0.73793192289E+02  0.00000000000E+00 0. -1.
</event>
<event>
 7    1  0.2420569E-009  0.1412662E+03  0.7561462E-02  0.1211635E+00
         -2   -1    0    0    0  501 -0.00000000000E+00  0.00000000000E+00  0.43336369784E+02  0.43336369784E+02  0.00000000000E+00 0.  1.
          2   -1    0    0  501    0  0.00000000000E+00 -0.00000000000E+00 -0.53897038425E+03  0.53897038425E+03  0.00000000000E+00 0. -1.
         25    2    1    2    0    0  0.83013126625E+02 -0.37329130271E+02 -0.15986254647E+03  0.22246017976E+03  0.12509138522E+03 0.  0.
          5    1    3    3  502    0 -0.31220045398E+02 -0.20495097588E+02 -0.53753448031E+02  0.65586933416E+02  0.41800000000E+01 0. -1.
         -5    1    3    3    0  502  0.11423317202E+03 -0.16834032682E+02 -0.10610909844E+03  0.15687324634E+03  0.41800000000E+01 0. -1.
        -11    1    1    2    0    0 -0.71227513139E+02  0.66812403265E+02 -0.25349087150E+03  0.27165212642E+03  0.00000000000E+00 0. -1.
         11    1    1    2    0    0 -0.11785613486E+02 -0.29483272994E+02 -0.82280596499E+02  0.88194447851E+02  0.00000000000E+00 0.  1.
</event>
<event>
 7    1  0.2420569E-009  0.1018782E+03  0.7561462E-02  0.1276395E+00
         -3   -1    0    0    0  501 -0.00000000000E+00  0.00000000000E+00  0.60352019724E+02  0.60352019724E+02  0.00000000000E+00 0.  1.
          3   -1    0    0  501    0  0.00000000000E+00 -0.00000000000E+00 -0.22972242600E+03  0.22972242600E+03  0.00000000000E+00 0. -1.
         25    2    1    2    0    0 -0.28307081823E+02  0.31920101204E+02 -0.73065396017E+02  0.15101666344E+03  0.12508915540E+03 0.  0.
          5    1    3    3  502    0 -0.36972522555E+02  0.75079798731E+02 -0.29212808793E+02  0.88740093526E+02  0.41800000000E+01 0.  1.
         -5    1    3    3    0  502  0.86654407316E+01 -0.43159697526E+02 -0.43852587224E+02  0.62276569911E+02  0.41800000000E+01 0.  1.
        -11    1    1    2    0    0 -0.32958460849E+01  0.17102513658E+02 -0.74946610340E+02  0.76943830008E+02  0.00000000000E+00 0. -1.
         11    1    1    2    0    0  0.31602927908E+02 -0.49022614862E+02 -0.21358399916E+02  0.62113952275E+02  0.00000000000E+00 0.  1.
</event>
<event>
 7    1  0.2420569E-009  0.1104538E+03  0.7561462E-02  0.1259732E+00
          1   -1    0    0  501    0  0.00000000000E+00  0.00000000000E+00  0.30976406529E+03  0.30976406529E+03  0.00000000000E+00 0. -1.
         -1   -1    0    0    0  501 -0.00000000000E+00 -0.00000000000E+00 -0.60690737045E+02  0.60690737045E+02  0.00000000000E+00 0.  1.
         25    2    1    2    0    0  0.40544464559E+01 -0.71183586784E+02  0.77786432162E+02  0.16365499237E+03  0.12509470787E+03 0.  0.
          5    1    3    3  502    0 -0.31128221277E+02  0.18905182863E+02  0.51733662180E+02  0.63405175668E+02  0.41800000000E+01 0.  1.
         -5    1    3    3    0  502  0.35182667733E+02 -0.90088769647E+02  0.26052769982E+02  0.10024981670E+03  0.41800000000E+01 0.  1.
        -11    1    1    2    0    0  0.23289821042E+02  0.36137533190E+02  0.15266885708E+03  0.15860679995E+03  0.00000000000E+00 0. -1.
         11    1    1    2    0    0 -0.27344267498E+02  0.35046053594E+02  0.18618039004E+02  0.48193010011E+02  0.00000000000E+00 0.  1.
</event>
<event>
 7    1  0.2420569E-009  0.8229292E+02  0.7561462E-02  0.1322668E+00
         -2   -1    0    0    0  501 -0.00000000000E+00  0.00000000000E+00  0.33378952175E+02  0.33378952175E+02  0.00000000000E+00 0.  1.
          2   -1    0    0  501    0  0.00000000000E+00 -0.00000000000E+00 -0.45673913984E+03  0.45673913984E+03  0.00000000000E+00 0. -1.
         25    2    1    2    0    0  0.43902366398E+02 -0.22757714974E+02 -0.29340867337E+03  0.32277134412E+03  0.12508940647E+03 0.  0.
          5    1    3    3  502    0  0.45592699979E+02 -0.47172607569E+02 -0.63075734451E+02  0.91104170447E+02  0.41800000000E+01 0. -1.
         -5    1    3    3    0  502 -0.16903335815E+01  0.24414892595E+02 -0.23033293892E+03  0.23166717368E+03  0.41800000000E+01 0. -1.
        -11    1    1    2    0    0 -0.44893206392E+02  0.37957089351E+02 -0.13808562661E+03  0.15007924869E+03  0.00000000000E+00 0. -1.
         11    1    1    2    0    0  0.99083999451E+00 -0.15199374377E+02  0.81341123165E+01  0.17267499197E+02  0.00000000000E+00 0.  1.
</event>
<event>
 7    1  0.2420569E-009  0.1413671E+03  0.7561462E-02  0.1211501E+00
          1   -1    0    0  501    0  0.00000000000E+00  0.00000000000E+00  0.12017619811E+03  0.12017619811E+03  0.00000000000E+00 0.  1.
         -1   -1    0    0    0  501 -0.00000000000E+00 -0.00000000000E+00 -0.20254935196E+03  0.20254935196E+03  0.00000000000E+00 0. -1.
         25    2    1    2    0    0  0.28525458905E+02 -0.10712657898E+03 -0.20748064770E+02  0.16842570081E+03  0.12508768434E+03 0.  0.
          5    1    3    3  502    0  0.72345848200E+02 -0.63180536762E+02 -0.38773494234E+02  0.10366560776E+03  0.41800000000E+01 0. -1.
         -5    1    3    3    0  502 -0.43820389295E+02 -0.43946042215E+02  0.18025429464E+02  0.64760093049E+02  0.41800000000E+01 0. -1.
        -11    1    1    2    0    0 -0.45141109975E+02  0.89056519325E+02 -0.14133678574E+02  0.10083920028E+03  0.00000000000E+00 0.  1.
         11    1    1    2    0    0  0.16615651070E+02  0.18070059653E+02 -0.47491410506E+02  0.53460648969E+02  0.00000000000E+00 0. -1.
</event>
<event>
 7    1  0.2420569E-009  0.9962222E+02  0.7561462E-02  0.1281092E+00
          2   -1    0    0  501    0  0.00000000000E+00  0.00000000000E+00  0.16038877508E+03  0.16038877508E+03  0.00000000000E+00 0.  1.
         -2   -1    0    0    0  501 -0.00000000000E+00 -0.00000000000E+00 -0.12605543278E+03  0.12605543278E+03  0.00000000000E+00 0. -1.
         25    2    1    2    0    0 -0.26876266083E+02  0.17621012376E+02 -0.66905159727E+02  0.14545389416E+03  0.12509077173E+03 0.  0.
          5    1    3    3  502    0  0.17576001706E+01  0.58134347366E+02 -0.75013362726E+02  0.95011412417E+02  0.41800000000E+01 0.  1.
         -5    1    3    3    0  502 -0.28633866253E+02 -0.40513334990E+02  0.81082029983E+01  0.50442481744E+02  0.41800000000E+01 0.  1.
        -11    1    1    2    0    0  0.58146019104E+02 -0.10755656413E+02  0.88709315606E+02  0.10661138006E+03  0.00000000000E+00 0.  1.
         11    1    1    2    0    0 -0.31269753021E+02 -0.68653559625E+01  0.12529186420E+02  0.34378933649E+02  0.00000000000E+00 0. -1.
</event>
<event>
 7    1  0.2420569E-009  0.1165011E+03  0.7561462E-02  0.1248983E+00
         -1   -1    0    0    0  501 -0.00000000000E+00  0.00000000000E+00  0.60921200786E+02  0.60921200786E+02  0.00000000000E+00 0.  1.
          1   -1    0    0  501    0  0.00000000000E+00 -0.00000000000E+00 -0.40171157522E+03  0.40171157522E+03  0.00000000000E+00 0. -1.
         25    2    1    2    0    0  0.17048464719E+02 -0.89566623033E+02 -0.26150827388E+03  0.30388475745E+03  0.12508612389E+03 0.  0.
          5    1    3    3  502    0  0.61056617236E+02 -0.66841069301E+02 -0.22392815032E+03  0.24157178635E+03  0.41800000000E+01 0.  1.
         -5    1    3    3    0  502 -0.44008152517E+02 -0.22725553731E+02 -0.37580123560E+02  0.62312971099E+02  0.41800000000E+01 0.  1.
        -11    1    1    2    0    0 -0.17502351160E+02  0.47836943354E+02  0.17089624963E+02  0.53728583891E+02  0.00000000000E+00 0.  1.
         11    1    1    2    0    0  0.45388644118E+00  0.41729679679E+02 -0.96371725517E+02  0.10501943467E+03  0.00000000000E+00 0. -1.
</event>
<event>
 7    1  0.2420569E-009  0.8444515E+02  0.7561462E-02  0.1316890E+00
          1   -1    0    0  501    0  0.00000000000E+00  0.00000000000E+00  0.19985881375E+02  0.19985881375E+02  0.00000000000E+00 0. -1.
         -1   -1    0    0    0  501 -0.00000000000E+00 -0.00000000000E+00 -0.61618474197E+03  0.61618474197E+03  0.00000000000E+00 0.  1.
         25    2    1    2    0    0  0.60664173604E+01 -0.41198449103E+01 -0.39167079187E+03  0.41122674554E+03  0.12509057720E+03 0.  0.
          5    1    3    3  502    0 -0.35496134422E+02 -0.16365842600E+02 -0.34565732685E+03  0.34788543570E+03  0.41800000000E+01 0.  1.
         -5    1    3    3    0  502  0.41562551783E+02  0.12245997690E+02 -0.46013465012E+02  0.63341309842E+02  0.41800000000E+01 0.  1.
        -11    1    1    2    0    0  0.23690871374E+01  0.44618846368E+02 -0.61265594378E+02  0.75828273616E+02  0.00000000000E+00 0. -1.
         11    1    1    2    0    0 -0.84355044979E+01 -0.40499001458E+02 -0.14326247435E+03  0.14911560419E+03  0.00000000000E+00 0.  1.
</event>
<event>
 7    1  0.2420569E-009  0.9759278E+02  0.7561462E-02  0.1285441E+00
          1   -1    0    0  501    0  0.00000000000E+00  0.00000000000E+00  0.26531348120E+03  0.26531348120E+03  0.00000000000E+00 0. -1.
         -1   -1    0    0    0  501 -0.00000000000E+00 -0.00000000000E+00 -0.58120543193E+02  0.58120543193E+02  0.00000000000E+00 0.  1.
         25    2    1    2    0    0 -0.55865264828E+02  0.11580722907E+02  0.13000566825E+03  0.18921790890E+03  0.12508757858E+03 0.  0.
          5    1    3    3  502    0  0.40174736843E+02  0.35829669986E+01  0.45806639061E+02  0.61176529119E+02  0.41800000000E+01 0.  1.
         -5    1    3    3    0  502 -0.96040001672E+02  0.79977559080E+01  0.84199029192E+02  0.12804137979E+03  0.41800000000E+01 0.  1.
        -11    1    1    2    0    0  0.26400591970E+02  0.30062624357E+00 -0.19253690697E+02  0.32676998607E+02  0.00000000000E+00 0.  1.
         11    1    1    2    0    0  0.29464672859E+02 -0.11881349150E+02  0.96440960451E+02  0.10153911688E+03  0.00000000000E+00 0. -1.
</event>
<event>
 7    1  0.2420569E-009  0.8744484E+02  0.7561462E-02  0.1309160E+00
          4   -1    0    0  501    0  0.00000000000E+00  0.00000000000E+00  0.42782688617E+02  0.42782688617E+02  0.00000000000E+00 0. -1.
         -4   -1    0    0    0  501 -0.00000000000E+00 -0.00000000000E+00 -0.32407184997E+03  0.32407184997E+03  0.00000000000E+00 0.  1.
         25    2    1    2    0    0 -0.32986938780E+02 -0.28295042279E+01 -0.21284388712E+03  0.24908980958E+03  0.12508824377E+03 0.  0.
          5    1    3    3  502    0  0.28206705434E+02  0.31008537035E+02 -0.25897727991E+02  0.49450099247E+02  0.41800000000E+01 0.  1.
         -5    1    3    3    0  502 -0.61193644214E+02 -0.33838041263E+02 -0.18694615913E+03  0.19963971033E+03  0.41800000000E+01 0.  1.
        -11    1    1    2    0    0 -0.14129955021E+02  0.62939054535E+01 -0.68801905703E+02  0.70519295963E+02  0.00000000000E+00 0.  1.
         11    1    1    2    0    0  0.47116893801E+02 -0.34644012257E+01  0.35663147086E+00  0.47245433042E+02  0.00000000000E+00 0. -1.
</event>
<event>
 7    1  0.2420569E-009  0.1339485E+03  0.7561462E-02  0.1221712E+00
         -2   -1    0    0    0  501 -0.00000000000E+00  0.00000000000E+00  0.79145402014E+02  0.79145402014E+02  0.00000000000E+00 0.  1.
          2   -1    0    0  501    0  0.00000000000E+00 -0.00000000000E+00 -0.39855983552E+03  0.39855983552E+03  0.00000000000E+00 0. -1.
         25    2    1    2    0    0  0.60489537034E+02 -0.75573682630E+02 -0.30082888307E+02  0.16100609200E+03  0.12509043087E+03 0.  0.
          5    1    3    3  502    0 -0.13939192977E+01 -0.76946588322E+02 -0.54435580245E+02  0.94357963427E+02  0.41800000000E+01 0. -1.
         -5    1    3    3    0  502  0.61883456332E+02  0.13729056925E+01  0.24352691937E+02  0.66648128572E+02  0.41800000000E+01 0. -1.
        -11    1    1    2    0    0 -0.30146635843E+02 -0.14705958142E+02 -0.75737209593E+02  0.82832419827E+02  0.00000000000E+00 0.  1.
         11    1    1    2    0    0 -0.30342901191E+02  0.90279640772E+02 -0.21359433560E+03  0.23386672571E+03  0.00000000000E+00 0. -1.
</event>
<event>
 7    1  0.2420569E-009  0.1577998E+03  0.7561462E-02  0.1191203E+00
         -2   -1    0    0    0  501 -0.00000000000E+00  0.00000000000E+00  0.61619087317E+02  0.61619087317E+02  0.00000000000E+00 0.  1.
          2   -1    0    0  501    0  0.00000000000E+00 -0.00000000000E+00 -0.44433300184E+03  0.44433300184E+03  0.00000000000E+00 0. -1.
         25    2    1    2    0    0  0.11494914798E+03  0.14064397245E+02 -0.13401085225E+03  0.21683685561E+03  0.12509276373E+03 0.  0.
          5    1    3    3  502    0 -0.13478456813E+02  0.35991861634E+02 -0.19353902472E+02  0.43233422752E+02  0.41800000000E+01 0. -1.
         -5    1    3    3    0  502  0.12842760479E+03 -0.21927464389E+02 -0.11465694978E+03  0.17360343285E+03  0.41800000000E+01 0. -1.
        -11    1    1    2    0    0 -0.11110574102E+03 -0.41708919821E+02 -0.18834030197E+03  0.22261219425E+03  0.00000000000E+00 0.  1.
         11    1    1    2    0    0 -0.38434069570E+01  0.27644522576E+02 -0.60362760299E+02  0.66503039302E+02  0.00000000000E+00 0. -1.
</event>
<event>
 7    1  0.2420569E-009  0.9355305E+02  0.7561462E-02  0.1294469E+00
          1   -1    0    0  501    0  0.00000000000E+00  0.00000000000E+00  0.24978237531E+03  0.24978237531E+03  0.00000000000E+00 0. -1.
         -1   -1    0    0    0  501 -0.00000000000E+00 -0.00000000000E+00 -0.56581766371E+02  0.56581766371E+02  0.00000000000E+00 0.  1.
         25    2    1    2    0    0 -0.18099974645E+02  0.44712948880E+02  0.10565271766E+03  0.17069199256E+03  0.12508558149E+03 0.  0.
          5    1    3    3  502    0  0.20095133225E+02  0.39883830811E+02 -0.12327688988E+02  0.46518583977E+02  0.41800000000E+01 0. -1.
         -5    1    3    3    0  502 -0.38195107870E+02  0.48291180696E+01  0.11798040665E+03  0.12417340858E+03  0.41800000000E+01 0. -1.
        -11    1    1    2    0    0 -0.91116576060E+01 -0.67451303286E+02  0.54432575614E+02  0.87152773377E+02  0.00000000000E+00 0. -1.
         11    1    1    2    0    0  0.27211632251E+02  0.22738354406E+02  0.33115315664E+02  0.48519375742E+02  0.00000000000E+00 0.  1.
</event>
<event>
 7    1  0.2420569E-009  0.1104404E+03  0.7561462E-02  0.1259756E+00
         -1   -1    0    0    0  501 -0.00000000000E+00  0.00000000000E+00  0.19500786801E+03  0.19500786801E+03  0.00000000000E+00 0. -1.
          1   -1    0    0  501    0  0.00000000000E+00 -0.00000000000E+00 -0.11995601593E+03  0.11995601593E+03  0.00000000000E+00 0.  1.
         25    2    1    2    0    0 -0.41182733535E+02 -0.76297018768E+01  0.14398973898E+03  0.19528022086E+03  0.12508832814E+03 0.  0.
          5    1    3    3  502    0  0.40806143580E+02 -0.66671112622E+01  0.83604977320E+02  0.93364106374E+02  0.41800000000E+01 0. -1.
         -5    1    3    3    0  502 -0.81988877114E+02 -0.96259061460E+00  0.60384761658E+02  0.10191611448E+03  0.41800000000E+01 0. -1.
        -11    1    1    2    0    0 -0.22562758668E+02 -0.17650600148E+02 -0.26597744109E+02  0.39090430491E+02  0.00000000000E+00 0. -1.
         11    1    1    2    0    0  0.63745492203E+02  0.25280302024E+02 -0.42340142788E+02  0.80593232582E+02  0.00000000000E+00 0.  1.
</event>
<event>
 7    1  0.2420569E-009  0.9227836E+02  0.7561462E-02  0.1297426E+00
         -1   -1    0    0    0  501 -0.00000000000E+00  0.00000000000E+00  0.10122043689E+03  0.10122043689E+03  0.00000000000E+00 0.  1.
          1   -1    0    0  501    0  0.00000000000E+00 -0.00000000000E+00 -0.17995311646E+03  0.17995311646E+03  0.00000000000E+00 0. -1.
         25    2    1    2    0    0 -0.68240288300E+02 -0.40073245114E+02 -0.47818809865E+02  0.15555223349E+03  0.12508899570E+03 0.  0.
          5    1    3    3  502    0 -0.80597743936E+02 -0.27047413207E+02 -0.81060574913E+02  0.11754083586E+03  0.41800000000E+01 0. -1.
         -5    1    3    3    0  502  0.12357455637E+02 -0.13025831907E+02  0.33241765048E+02  0.38011397635E+02  0.41800000000E+01 0. -1.
        -11    1    1    2    0    0  0.11435846537E+02 -0.87965328786E-01 -0.51751370566E+02  0.52999912070E+02  0.00000000000E+00 0. -1.
         11    1    1    2    0    0  0.56804441762E+02  0.40161210443E+02  0.20837500860E+02  0.72621407796E+02  0.00000000000E+00 0.  1.
</event>
<event>
 7    1  0.2420569E-009  0.1582430E+03  0.7561462E-02  0.1190695E+00
         -1   -1    0    0    0  501 -0.00000000000E+00  0.00000000000E+00  0.26827348053E+03  0.26827348053E+03  0.00000000000E+00 0.  1.
          1   -1    0    0  501    0  0.00000000000E+00 -0.00000000000E+00 -0.13229739129E+03  0.13229739129E+03  0.00000000000E+00 0. -1.
         25    2    1    2    0    0  0.13703729887E+03 -0.69318435735E+02  0.55411082131E+02  0.20567408976E+03  0.12508867400E+03 0.  0.
          5    1    3    3  502    0  0.64570819769E+02 -0.62552195230E+02  0.87953413492E+02  0.12583895756E+03  0.41800000000E+01 0. -1.
         -5    1    3    3    0  502  0.72466479105E+02 -0.67662405051E+01 -0.32542331362E+02  0.79835132209E+02  0.41800000000E+01 0. -1.
        -11    1    1    2    0    0 -0.12676027354E+03  0.64740947895E+02  0.98943984199E+02  0.17334782748E+03  0.00000000000E+00 0.  1.
         11    1    1    2    0    0 -0.10277025333E+02  0.45774878395E+01 -0.18378977088E+02  0.21548954579E+02  0.00000000000E+00 0. -1.
</event>
<event>
 7    1  0.2420569E-009  0.1177987E+03  0.7561462E-02  0.1246773E+00
         -1   -1    0    0    0  501 -0.00000000000E+00  0.00000000000E+00  0.93512988294E+02  0.93512988294E+02  0.00000000000E+00 0.  1.
          1   -1    0    0  501    0  0.00000000000E+00 -0.00000000000E+00 -0.19924636385E+03  0.19924636385E+03  0.00000000000E+00 0. -1.
         25    2    1    2    0    0  0.78852804515E+02  0.35629882496E+02 -0.15974184853E+02  0.15293838533E+03  0.12509085425E+03 0.  0.
          5    1    3    3  502    0  0.12537981945E+02  0.70616525267E+02  0.11931039039E+02  0.72826620988E+02  0.41800000000E+01 0. -1.
         -5    1    3    3    0  502  0.66314822570E+02 -0.34986642771E+02 -0.27905223892E+02  0.80111764338E+02  0.41800000000E+01 0. -1.
        -11    1    1    2    0    0 -0.17276658807E+02  0.46838474880E+00  0.77812656496E+01  0.18953902472E+02  0.00000000000E+00 0.  1.
         11    1    1    2    0    0 -0.61576145708E+02 -0.36098267244E+02 -0.97540456352E+02  0.12086706435E+03  0.00000000000E+00 0. -1.
</event>
<event>
 7    1  0.2420569E-009  0.1651143E+03  0.7561462E-02  0.1183041E+00
         -2   -1    0    0    0  501 -0.00000000000E+00  0.00000000000E+00  0.85841615372E+02  0.85841615372E+02  0.00000000000E+00 0. -1.
          2   -1    0    0  501    0  0.00000000000E+00 -0.00000000000E+00 -0.46459465818E+03  0.46459465818E+03  0.00000000000E+00 0.  1.
         25    2    1    2    0    0  0.12282572379E+03  0.18488614064E+02 -0.44272901767E+02  0.18175705421E+03  0.12509016607E+03 0.  0.
          5    1    3    3  502    0 -0.96314112699E+01 -0.32036771240E+02 -0.20417830928E+01  0.33775139862E+02  0.41800000000E+01 0. -1.
         -5    1    3    3    0  502  0.13245713506E+03  0.50525385304E+02 -0.42231118675E+02  0.14798191435E+03  0.41800000000E+01 0. -1.
        -11    1    1    2    0    0 -0.79784914864E+02 -0.56095602337E+02 -0.22321046011E+03  0.24358829763E+03  0.00000000000E+00 0.  1.
         11    1    1    2    0    0 -0.43040808928E+02  0.37606988273E+02 -0.11126968093E+03  0.12509092171E+03  0.00000000000E+00 0. -1.
</event>
<event>
 7    1  0.2420569E-009  0.1494323E+03  0.7561462E-02  0.1201172E+00
          1   -1    0    0  501    0  0.00000000000E+00  0.00000000000E+00  0.81992879133E+03  0.81992879133E+03  0.00000000000E+00 0. -1.
         -1   -1    0    0    0  501 -0.00000000000E+00 -0.00000000000E+00 -0.52510510947E+02  0.52510510947E+02  0.00000000000E+00 0.  1.
         25    2    1    2    0    0  0.93875178826E+02  0.10099775297E+03  0.16962326092E+03  0.25185920523E+03  0.12509161967E+03 0.  0.
          5    1    3    3  502    0  0.57660574753E+02  0.64067943358E+02  0.13509033173E+02  0.87346491768E+02  0.41800000000E+01 0.  1.
         -5    1    3    3    0  502  0.36214604074E+02  0.36929809609E+02  0.15611422775E+03  0.16451271346E+03  0.41800000000E+01 0.  1.
        -11    1    1    2    0    0  0.11782735341E+02 -0.32972921829E+02  0.73189333651E+02  0.81133994024E+02  0.00000000000E+00 0.  1.
         11    1    1    2    0    0 -0.10565791417E+03 -0.68024831138E+02  0.52460568581E+03  0.53944610302E+03  0.00000000000E+00 0. -1.
</event>
<event>
 7    1  0.2420569E-009  0.1170228E+03  0.7561462E-02  0.1248091E+00
         -2   -1    0    0    0  501 -0.00000000000E+00  0.00000000000E+00  0.43019562359E+02  0.43019562359E+02  0.00000000000E+00 0.  1.
          2   -1    0    0  501    0  0.00000000000E+00 -0.00000000000E+00 -0.67098983486E+03  0.67098983486E+03  0.00000000000E+00 0. -1.
         25    2    1    2    0    0  0.10394808905E+03 -0.45722987414E+02 -0.45886117158E+03  0.48897477102E+03  0.12508778963E+03 0.  0.
          5    1    3    3  502    0  0.64263961385E+02 -0.20193006799E+02 -0.42601902252E+03  0.43133199998E+03  0.41800000000E+01 0. -1.
         -5    1    3    3    0  502  0.39684127661E+02 -0.25529980615E+02 -0.32842149062E+02  0.57642771042E+02  0.41800000000E+01 0. -1.
        -11    1    1    2    0    0 -0.85068415147E+02  0.51494799730E+02 -0.64381234996E+02  0.11846220104E+03  0.00000000000E+00 0.  1.
         11    1    1    2    0    0 -0.18879673900E+02 -0.57718123166E+01 -0.10472786593E+03  0.10657242516E+03  0.00000000000E+00 0. -1.
</event>
<event>
 7    1  0.2420569E-009  0.1928620E+03  0.7561462E-02  0.1155905E+00
          2   -1    0    0  501    0  0.00000000000E+00  0.00000000000E+00  0.92711775392E+03  0.92711775392E+03  0.00000000000E+00 0. -1.
         -2   -1    0    0    0  501 -0.00000000000E+00 -0.00000000000E+00 -0.43403181863E+02  0.43403181863E+02  0.00000000000E+00 0.  1.
         25    2    1    2    0    0  0.12458358757E+02 -0.15622328738E+03  0.55093217409E+03  0.58628910543E+03  0.12509088085E+03 0.  0.
          5    1    3    3  502    0 -0.20495286008E+02 -0.16351230830E+03  0.48230287186E+03  0.50969585472E+03  0.41800000000E+01 0.  1.
         -5    1    3    3    0  502  0.32953644765E+02  0.72890209201E+01  0.68629302236E+02  0.76593250712E+02  0.41800000000E+01 0.  1.
        -11    1    1    2    0    0 -0.54097909528E+02  0.53747455852E+02  0.93764712776E+02  0.12086022583E+03  0.00000000000E+00 0. -1.
         11    1    1    2    0    0  0.41639550772E+02  0.10247583153E+03  0.23901768519E+03  0.26337160453E+03  0.00000000000E+00 0.  1.
</event>
<event>
 7    1  0.2420569E-009  0.1149240E+03  0.7561462E-02  0.1251714E+00
          1   -1    0    0  501    0  0.00000000000E+00  0.00000000000E+00  0.14976966299E+03  0.14976966299E+03  0.00000000000E+00 0. -1.
         -1   -1    0    0    0  501 -0.00000000000E+00 -0.00000000000E+00 -0.11585157886E+03  0.11585157886E+03  0.00000000000E+00 0.  1.
         25    2    1    2    0    0 -0.52865657924E+02 -0.13254959426E+02 -0.32087063944E+02  0.14017049352E+03  0.12509083037E+03 0.  0.
          5    1    3    3  502    0 -0.57050342831E+02 -0.59814388197E+02 -0.41055109005E+02  0.92387753669E+02  0.41800000000E+01 0.  1.
         -5    1    3    3    0  502  0.41846849066E+01  0.46559428771E+02  0.89680450616E+01  0.47782739849E+02  0.41800000000E+01 0.  1.
        -11    1    1    2    0    0 -0.81948012610E+01 -0.26199713329E+02  0.39435256607E+02  0.48049133290E+02  0.00000000000E+00 0. -1.
         11    1    1    2    0    0  0.61060459185E+02  0.39454672755E+02  0.26569891466E+02  0.77401615039E+02  0.00000000000E+00 0.  1.
</event>
<event>
 7    1  0.2420569E-009  0.1324632E+03  0.7561462E-02  0.1223846E+00
         -2   -1    0    0    0  501 -0.00000000000E+00  0.00000000000E+00  0.31736970488E+02  0.31736970488E+02  0.00000000000E+00 0.  1.
          2   -1    0    0  501    0  0.00000000000E+00 -0.00000000000E+00 -0.70698474021E+03  0.70698474021E+03  0.00000000000E+00 0. -1.
         25    2    1    2    0    0 -0.60181255846E+02 -0.60553237405E+02 -0.50625070544E+03  0.52841662561E+03  0.12508347350E+03 0.  0.
          5    1    3    3  502    0  0.34288045491E+02 -0.60923648364E+01 -0.20569702870E+03  0.20866606574E+03  0.41800000000E+01 0.  1.
         -5    1    3    3    0  502 -0.94469301337E+02 -0.54460872569E+02 -0.30055367674E+03  0.31975055987E+03  0.41800000000E+01 0.  1.
        -11    1    1    2    0    0 -0.20605127031E+02  0.25181493464E+02 -0.73139767668E+02  0.80050637022E+02  0.00000000000E+00 0. -1.
         11    1    1    2    0    0  0.80786382877E+02  0.35371743941E+02 -0.95857296609E+02  0.13025444807E+03  0.00000000000E+00 0.  1.
</event>
<event>
 7    1  0.2420569E-009  0.4357084E+03  0.7561462E-02  0.1032072E+00
          1   -1    0    0  501    0  0.00000000000E+00  0.00000000000E+00  0.29816686058E+03  0.29816686058E+03  0.00000000000E+00 0. -1.
         -1   -1    0    0    0  501 -0.00000000000E+00 -0.00000000000E+00 -0.71489970557E+03  0.71489970557E+03  0.00000000000E+00 0.  1.
         25    2    1    2    0    0 -0.41317357507E+03  0.13714548847E+03 -0.91764233214E+02  0.46215944771E+03  0.12509753181E+03 0.  0.
          5    1    3    3  502    0 -0.24683660578E+03  0.80635183474E+02 -0.11661458570E+03  0.28468715595E+03  0.41800000000E+01 0. -1.
         -5    1    3    3    0  502 -0.16633696929E+03  0.56510304992E+02  0.24850352482E+02  0.17747229176E+03  0.41800000000E+01 0. -1.
        -11    1    1    2    0    0  0.71945988945E+02 -0.14543175356E+02 -0.10054717606E+03  0.12448881029E+03  0.00000000000E+00 0.  1.
         11    1    1    2    0    0  0.34122758613E+03 -0.12260231311E+03 -0.22442143571E+03  0.42641830814E+03  0.00000000000E+00 0. -1.
</event>
<event>
 7    1  0.2420569E-009  0.1045836E+03  0.7561462E-02  0.1270942E+00
          1   -1    0    0  501    0  0.00000000000E+00  0.00000000000E+00  0.47649792862E+02  0.47649792862E+02  0.00000000000E+00 0. -1.
         -1   -1    0    0    0  501 -0.00000000000E+00 -0.00000000000E+00 -0.30021430624E+03  0.30021430624E+03  0.00000000000E+00 0.  1.
         25    2    1    2    0    0  0.40111864390E+02  0.57932815615E+01 -0.18597879915E+03  0.22776753894E+03  0.12508962501E+03 0.  0.
          5    1    3    3  502    0 -0.19522506995E+02  0.43755600845E+02 -0.30579800478E+02  0.56993661770E+02  0.41800000000E+01 0.  1.
         -5    1    3    3    0  502  0.59634371385E+02 -0.37962319284E+02 -0.15539899867E+03  0.17077387717E+03  0.41800000000E+01 0.  1.
        -11    1    1    2    0    0  0.21208252181E+02 -0.17899976231E+02  0.13457396810E+01  0.27785070180E+02  0.00000000000E+00 0. -1.
         11    1    1    2    0    0 -0.61320116570E+02  0.12106694670E+02 -0.67931453910E+02  0.92311489980E+02  0.00000000000E+00 0.  1.
</event>
<event>
 7    1  0.2420569E-009  0.3494693E+03  0.7561462E-02  0.1062833E+00
          2   -1    0    0  501    0  0.00000000000E+00  0.00000000000E+00  0.10397963433E+04  0.10397963433E+04  0.00000000000E+00 0. -1.
         -2   -1    0    0    0  501 -0.00000000000E+00 -0.00000000000E+00 -0.12581950559E+03  0.12581950559E+03  0.00000000000E+00 0.  1.
         25    2    1    2    0    0 -0.30123663796E+03 -0.15934782713E+03  0.39129520658E+03  0.53375576338E+03  0.12509210283E+03 0.  0.
          5    1    3    3  502    0 -0.11320376817E+03 -0.12184305325E+03  0.13867600372E+03  0.21658561624E+03  0.41800000000E+01 0. -1.
         -5    1    3    3    0  502 -0.18803286979E+03 -0.37504773875E+02  0.25261920286E+03  0.31717014714E+03  0.41800000000E+01 0. -1.
        -11    1    1    2    0    0  0.23249600218E+03  0.12356817172E+03  0.31711577960E+03  0.41217217490E+03  0.00000000000E+00 0. -1.
         11    1    1    2    0    0  0.68740635783E+02  0.35779655408E+02  0.20556585149E+03  0.21968791056E+03  0.00000000000E+00 0.  1.
</event>
<event>
 7    1  0.2420569E-009  0.1381016E+03  0.7561462E-02  0.1215906E+00
          1   -1    0    0  501    0  0.00000000000E+00  0.00000000000E+00  0.62815941491E+03  0.62815941491E+03  0.00000000000E+00 0. -1.
         -1   -1    0    0    0  501 -0.00000000000E+00 -0.00000000000E+00 -0.47770947257E+02  0.47770947257E+02  0.00000000000E+00 0.  1.
         25    2    1    2    0    0 -0.45471288377E+02 -0.86930096765E+02  0.13175834583E+03  0.20647506098E+03  0.12508880573E+03 0.  0.
          5    1    3    3  502    0 -0.74355995728E+02 -0.92636340780E+02  0.13077619210E+03  0.17672065684E+03  0.41800000000E+01 0. -1.
         -5    1    3    3    0  502  0.28884707351E+02  0.57062440155E+01  0.98215372995E+00  0.29754404136E+02  0.41800000000E+01 0. -1.
        -11    1    1    2    0    0  0.69298818260E+02  0.60189549357E+02  0.39078110712E+03  0.40141622008E+03  0.00000000000E+00 0. -1.
         11    1    1    2    0    0 -0.23827529883E+02  0.26740547408E+02  0.57849014700E+02  0.68039081106E+02  0.00000000000E+00 0.  1.
</event>
<event>
 7    1  0.2420569E-009  0.1015415E+03  0.7561462E-02  0.1277087E+00
          1   -1    0    0  501    0  0.00000000000E+00  0.00000000000E+00  0.63263960411E+02  0.63263960411E+02  0.00000000000E+00 0. -1.
         -1   -1    0    0    0  501 -0.00000000000E+00 -0.00000000000E+00 -0.25118161463E+03  0.25118161463E+03  0.00000000000E+00 0.  1.
         25    2    1    2    0    0 -0.16519367399E+02 -0.60900012481E+02 -0.11419184917E+03  0.18074605791E+03  0.12509059923E+03 0.  0.
          5    1    3    3  502    0  0.26675995930E+02  0.12895412100E+00 -0.10120194544E+03  0.10474221474E+03  0.41800000000E+01 0. -1.
         -5    1    3    3    0  502 -0.43195363328E+02 -0.61028966602E+02 -0.12989903725E+02  0.76003843168E+02  0.41800000000E+01 0. -1.
        -11    1    1    2    0    0 -0.24879055177E+02  0.53689946806E+02 -0.14231493911E+02  0.60861426153E+02  0.00000000000E+00 0. -1.
         11    1    1    2    0    0  0.41398422575E+02  0.72100656756E+01 -0.59494311139E+02  0.72838090974E+02  0.00000000000E+00 0.  1.
</event>
<event>
 7    1  0.2420569E-009  0.8207025E+02  0.7561462E-02  0.1323277E+00
         -2   -1    0    0    0  501 -0.00000000000E+00  0.00000000000E+00  0.35286081977E+03  0.35286081977E+03  0.00000000000E+00 0.  1.
          2   -1    0    0  501    0  0.00000000000E+00 -0.00000000000E+00 -0.35075280498E+02  0.35075280498E+02  0.00000000000E+00 0. -1.
         25    2    1    2    0    0 -0.91261592391E+01 -0.15918539333E+02  0.16301313861E+03  0.20629538748E+03  0.12509123415E+03 0.  0.
          5    1    3    3  502    0  0.10306647361E+02  0.35490843039E+02  0.14283784227E+03  0.14760063857E+03  0.41800000000E+01 0.  1.
         -5    1    3    3    0  502 -0.19432806600E+02 -0.51409382372E+02  0.20175296335E+02  0.58694748917E+02  0.41800000000E+01 0.  1.
        -11    1    1    2    0    0 -0.36852021792E+01 -0.26891848163E+02  0.12507486631E+03  0.12798622736E+03  0.00000000000E+00 0.  1.
         11    1    1    2    0    0  0.12811361418E+02  0.42810387496E+02  0.29697534349E+02  0.53654485417E+02  0.00000000000E+00 0. -1.
</event>
<event>
 7    1  0.2420569E-009  0.9443769E+02  0.7561462E-02  0.1292448E+00
         -2   -1    0    0    0  501 -0.00000000000E+00  0.00000000000E+00  0.25719413061E+02  0.25719413061E+02  0.00000000000E+00 0.  1.
          2   -1    0    0  501    0  0.00000000000E+00 -0.00000000000E+00 -0.62734189023E+03  0.62734189023E+03  0.00000000000E+00 0. -1.
         25    2    1    2    0    0  0.20172227754E+02 -0.60154454385E+02 -0.39122712500E+03  0.41561077921E+03  0.12509268285E+03 0.  0.
          5    1    3    3  502    0  0.30462505513E+01 -0.75275676159E+02 -0.10979586271E+03  0.13322278684E+03  0.41800000000E+01 0.  1.
         -5    1    3    3    0  502  0.17125977203E+02  0.15121221774E+02 -0.28143126228E+03  0.28238799237E+03  0.41800000000E+01 0.  1.
        -11    1    1    2    0    0 -0.41424441190E+02  0.54024498794E+02 -0.79350229799E+02  0.10455185205E+03  0.00000000000E+00 0.  1.
         11    1    1    2    0    0  0.21252213436E+02  0.61299555910E+01 -0.13104512237E+03  0.13289867204E+03  0.00000000000E+00 0. -1.
</event>
<event>
 7    1  0.2420569E-009  0.1496038E+03  0.7561462E-02  0.1200961E+00
          1   -1    0    0  501    0  0.00000000000E+00  0.00000000000E+00  0.11751048622E+03  0.11751048622E+03  0.00000000000E+00 0. -1.
         -1   -1    0    0    0  501 -0.00000000000E+00 -0.00000000000E+00 -0.20015622805E+03  0.20015622805E+03  0.00000000000E+00 0.  1.
         25    2    1    2    0    0 -0.10499862244E+03  0.32576298465E+02 -0.52514173984E+02  0.17461827138E+03  0.12509147170E+03 0.  0.
          5    1    3    3  502    0 -0.20276647609E+02  0.68189831263E+02 -0.40143977046E+02  0.81792461871E+02  0.41800000000E+01 0. -1.
         -5    1    3    3    0  502 -0.84721974834E+02 -0.35613532798E+02 -0.12370196939E+02  0.92825809506E+02  0.41800000000E+01 0. -1.
        -11    1    1    2    0    0 -0.12460135414E+02 -0.10793157592E+02 -0.15618214917E+02  0.22708497585E+02  0.00000000000E+00 0. -1.
         11    1    1    2    0    0  0.11745875786E+03 -0.21783140873E+02 -0.14513352935E+02  0.12033994531E+03  0.00000000000E+00 0.  1.
</event>
<event>
 7    1  0.2420569E-009  0.5915172E+02  0.7561462E-02  0.1401426E+00
         -2   -1    0    0    0  501 -0.00000000000E+00  0.00000000000E+00  0.16059034256E+03  0.16059034256E+03  0.00000000000E+00 0. -1.
          2   -1    0    0  501    0  0.00000000000E+00 -0.00000000000E+00 -0.90758657926E+02  0.90758657926E+02  0.00000000000E+00 0.  1.
         25    2    1    2    0    0  0.42840051719E+01  0.18630880123E+02  0.90575448054E+02  0.15561538775E+03  0.12508706856E+03 0.  0.
          5    1    3    3  502    0 -0.13032600243E+02  0.52122063340E+01 -0.29793090045E+02  0.33198138177E+02  0.41800000000E+01 0. -1.
         -5    1    3    3    0  502  0.17316605415E+02  0.13418673789E+02  0.12036853810E+03  0.12241724957E+03  0.41800000000E+01 0. -1.
        -11    1    1    2    0    0  0.21832813407E+02  0.23316323565E+02 -0.31827934410E+02  0.45092572500E+02  0.00000000000E+00 0.  1.
         11    1    1    2    0    0 -0.26116818579E+02 -0.41947203687E+02  0.11084170995E+02  0.50641040239E+02  0.00000000000E+00 0. -1.
</event>
<event>
 7    1  0.2420569E-009  0.1424022E+03  0.7561462E-02  0.1210133E+00
          2   -1    0    0  501    0  0.00000000000E+00  0.00000000000E+00  0.94107456058E+02  0.94107456058E+02  0.00000000000E+00 0. -1.
         -2   -1    0    0    0  501 -0.00000000000E+00 -0.00000000000E+00 -0.33681391427E+03  0.33681391427E+03  0.00000000000E+00 0.  1.
         25    2    1    2    0    0 -0.82117009580E+02  0.94023855855E+02 -0.20754564962E+03  0.27259370198E+03  0.12509372867E+03 0.  0.
          5    1    3    3  502    0 -0.47268144612E+02  0.95968830548E+02 -0.63834884221E+02  0.12464613422E+03  0.41800000000E+01 0. -1.
         -5    1    3    3    0  502 -0.34848864968E+02 -0.19449746928E+01 -0.14371076540E+03  0.14794756776E+03  0.41800000000E+01 0. -1.
        -11    1    1    2    0    0  0.52933847944E+02 -0.10298005912E+02  0.15628588730E+02  0.56145293388E+02  0.00000000000E+00 0. -1.
         11    1    1    2    0    0  0.29183161636E+02 -0.83725849943E+02 -0.50789397323E+02  0.10218237496E+03  0.00000000000E+00 0.  1.
</event>
<event>
 7    1  0.2420569E-009  0.6090760E+02  0.7561462E-02  0.1394062E+00
         -2   -1    0    0    0  501 -0.00000000000E+00  0.00000000000E+00  0.11703417226E+02  0.11703417226E+02  0.00000000000E+00 0.  1.
          2   -1    0    0  501    0  0.00000000000E+00 -0.00000000000E+00 -0.10109341997E+04  0.10109341997E+04  0.00000000000E+00 0. -1.
         25    2    1    2    0    0 -0.11345641304E+02  0.15976225770E+02 -0.65648106532E+03  0.66858059952E+03  0.12509462645E+03 0.  0.
          5    1    3    3  502    0 -0.20776320316E+02  0.48510579549E+01 -0.13865367046E+02  0.25785830459E+02  0.41800000000E+01 0.  1.
         -5    1    3    3    0  502  0.94306790116E+01  0.11125167815E+02 -0.64261569827E+03  0.64279476906E+03  0.41800000000E+01 0.  1.
        -11    1    1    2    0    0  0.44062022129E+02  0.74188734439E+01 -0.12803623647E+03  0.13560892053E+03  0.00000000000E+00 0. -1.
         11    1    1    2    0    0 -0.32716380824E+02 -0.23395099213E+02 -0.21471348069E+03  0.21844809688E+03  0.00000000000E+00 0.  1.
</event>
<event>
 7    1  0.2420569E-009  0.3296757E+03  0.7561462E-02  0.1071280E+00
          2   -1    0    0  501    0  0.00000000000E+00  0.00000000000E+00  0.14205862625E+03  0.14205862625E+03  0.00000000000E+00 0. -1.
         -2   -1    0    0    0  501 -0.00000000000E+00 -0.00000000000E+00 -0.11195803940E+04  0.11195803940E+04  0.00000000000E+00 0.  1.
         25    2    1    2    0    0 -0.23867759487E+03  0.21009378667E+03 -0.83344591548E+03  0.90077249359E+03  0.12511034210E+03 0.  0.
          5    1    3    3  502    0 -0.79893194649E+02  0.14769492721E+03 -0.47374296473E+03  0.50263961553E+03  0.41800000000E+01 0. -1.
         -5    1    3    3    0  502 -0.15878440022E+03  0.62398859464E+02 -0.35970295075E+03  0.39813287806E+03  0.41800000000E+01 0. -1.
        -11    1    1    2    0    0  0.16090685592E+03 -0.11448147566E+03 -0.13088865365E+03  0.23691531020E+03  0.00000000000E+00 0.  1.
         11    1    1    2    0    0  0.77770738948E+02 -0.95612311012E+02 -0.13187198614E+02  0.12395121646E+03  0.00000000000E+00 0. -1.
</event>
<event>
 7    1  0.2420569E-009  0.1491868E+03  0.7561462E-02  0.1201476E+00
         -1   -1    0    0    0  501 -0.00000000000E+00  0.00000000000E+00  0.34991612175E+03  0.34991612175E+03  0.00000000000E+00 0.  1.
          1   -1    0    0  501    0  0.00000000000E+00 -0.00000000000E+00 -0.65567293476E+02  0.65567293476E+02  0.00000000000E+00 0. -1.
         25    2    1    2    0    0 -0.10182156554E+03 -0.21352628507E+02  0.17626331680E+03  0.23987392794E+03  0.12508868255E+03 0.  0.
          5    1    3    3  502    0 -0.10007557944E+03  0.35042506321E+02  0.11400879333E+03  0.15575164913E+03  0.41800000000E+01 0. -1.
         -5    1    3    3    0  502 -0.17459861017E+01 -0.56395134828E+02  0.62254523470E+02  0.84122278810E+02  0.41800000000E+01 0. -1.
        -11    1    1    2    0    0 -0.15246079151E+02 -0.42894319962E+01  0.27927699347E+01  0.16082341877E+02  0.00000000000E+00 0.  1.
         11    1    1    2    0    0  0.11706764469E+03  0.25642060503E+02  0.10529274153E+03  0.15952714540E+03  0.00000000000E+00 0. -1.
</event>
<event>
 7    1  0.2420569E-009  0.1437361E+03  0.7561462E-02  0.1208388E+00
         -1   -1    0    0    0  501 -0.00000000000E+00  0.00000000000E+00  0.62522230932E+02  0.62522230932E+02  0.00000000000E+00 0.  1.
          1   -1    0    0  501    0  0.00000000000E+00 -0.00000000000E+00 -0.38570871640E+03  0.38570871640E+03  0.00000000000E+00 0. -1.
         25    2    1    2    0    0 -0.39660008647E+02  0.92074800400E+02 -0.10012904598E+03  0.18900782885E+03  0.12508976122E+03 0.  0.
          5    1    3    3  502    0  0.30845031606E+02 -0.91318459681E+01 -0.40653379714E+02  0.52009386343E+02  0.41800000000E+01 0. -1.
         -5    1    3    3    0  502 -0.70505040253E+02  0.10120664637E+03 -0.59475666269E+02  0.13699844250E+03  0.41800000000E+01 0. -1.
        -11    1    1    2    0    0 -0.27173727415E+02 -0.28457224237E+02 -0.57197347103E+02  0.69424502797E+02  0.00000000000E+00 0.  1.
         11    1    1    2    0    0  0.66833736061E+02 -0.63617576163E+02 -0.16586009238E+03  0.18979861569E+03  0.00000000000E+00 0. -1.
</event>
<event>
 7    1  0.2420569E-009  0.9693457E+02  0.7561462E-02  0.1286877E+00
          1   -1    0    0  501    0  0.00000000000E+00  0.00000000000E+00  0.80625013504E+03  0.80625013504E+03  0.00000000000E+00 0. -1.
         -1   -1    0    0    0  501 -0.00000000000E+00 -0.00000000000E+00 -0.17808478234E+02  0.17808478234E+02  0.00000000000E+00 0.  1.
         25    2    1    2    0    0 -0.56725722693E+01  0.46413763970E+02  0.50976508600E+03  0.52696759341E+03  0.12509191040E+03 0.  0.
          5    1    3    3  502    0  0.28399609214E+02 -0.11108884944E+02  0.31527388160E+02  0.44061249783E+02  0.41800000000E+01 0. -1.
         -5    1    3    3    0  502 -0.34072181483E+02  0.57522648915E+02  0.47823769784E+03  0.48290634363E+03  0.41800000000E+01 0. -1.
        -11    1    1    2    0    0  0.11423399140E+02 -0.70458852944E+02  0.24580947876E+03  0.25596336428E+03  0.00000000000E+00 0.  1.
         11    1    1    2    0    0 -0.57508268703E+01  0.24045088973E+02  0.32867092046E+02  0.41127655574E+02  0.00000000000E+00 0. -1.
</event>
<event>
 7    1  0.2420569E-009  0.2197788E+03  0.7561462E-02  0.1134048E+00
         -2   -1    0    0    0  501 -0.00000000000E+00  0.00000000000E+00  0.12654384187E+03  0.12654384187E+03  0.00000000000E+00 0.  1.
          2   -1    0    0  501    0  0.00000000000E+00 -0.00000000000E+00 -0.44338414070E+03  0.44338414070E+03  0.00000000000E+00 0. -1.
         25    2    1    2    0    0  0.44675930403E+02 -0.18837751276E+03 -0.64602567195E+02  0.23938178324E+03  0.12509244736E+03 0.  0.
          5    1    3    3  502    0 -0.35994500012E+02 -0.19017787869E+02  0.32421348256E-01  0.40923755176E+02  0.41800000000E+01 0. -1.
         -5    1    3    3    0  502  0.80670430415E+02 -0.16935972489E+03 -0.64634988543E+02  0.19845802806E+03  0.41800000000E+01 0. -1.
        -11    1    1    2    0    0  0.13216288814E+02  0.12284839937E+03 -0.12168918521E+03  0.17342046395E+03  0.00000000000E+00 0.  1.
         11    1    1    2    0    0 -0.57892219217E+02  0.65529113389E+02 -0.13054854642E+03  0.15712573539E+03  0.00000000000E+00 0. -1.
</event>
<event>
 7    1  0.2420569E-009  0.1344003E+03  0.7561462E-02  0.1221069E+00
          1   -1    0    0  501    0  0.00000000000E+00  0.00000000000E+00  0.21624661187E+04  0.21624661187E+04  0.00000000000E+00 0. -1.
         -1   -1    0    0    0  501 -0.00000000000E+00 -0.00000000000E+00 -0.21242687566E+02  0.21242687566E+02  0.00000000000E+00 0.  1.
         25    2    1    2    0    0  0.90400982376E+02  0.15246427586E+02  0.19296101703E+04  0.19358324798E+04  0.12508872604E+03 0.  0.
          5    1    3    3  502    0  0.90837839971E+02 -0.40113909225E+02  0.12819551735E+04  0.12858021536E+04  0.41800000000E+01 0. -1.
         -5    1    3    3    0  502 -0.43685759513E+00  0.55360336811E+02  0.64765499680E+03  0.65003032623E+03  0.41800000000E+01 0. -1.
        -11    1    1    2    0    0 -0.84989487112E+02  0.12250617001E+02  0.95491984526E+02  0.12842121961E+03  0.00000000000E+00 0.  1.
         11    1    1    2    0    0 -0.54114952636E+01 -0.27497044587E+02  0.11612127633E+03  0.11945510687E+03  0.00000000000E+00 0. -1.
</event>
<event>
 7    1  0.2420569E-009  0.1264403E+03  0.7561462E-02  0.1232835E+00
         -2   -1    0    0    0  501 -0.00000000000E+00  0.00000000000E+00  0.55459778099E+02  0.55459778099E+02  0.00000000000E+00 0.  1.
          2   -1    0    0  501    0  0.00000000000E+00 -0.00000000000E+00 -0.36957497061E+03  0.36957497061E+03  0.00000000000E+00 0. -1.
         25    2    1    2    0    0  0.38663073447E+02  0.84283563690E+02 -0.15555877754E+03  0.22009943677E+03  0.12508667571E+03 0.  0.
          5    1    3    3  502    0  0.25952318656E+02  0.11722045722E+03 -0.11833160697E+03  0.16862384185E+03  0.41800000000E+01 0.  1.
         -5    1    3    3    0  502  0.12710754791E+02 -0.32936893531E+02 -0.37227170573E+02  0.51475594913E+02  0.41800000000E+01 0.  1.
        -11    1    1    2    0    0 -0.52888170038E+01 -0.46439816557E+02 -0.96682588806E+01  0.47729481214E+02  0.00000000000E+00 0.  1.
         11    1    1    2    0    0 -0.33374256443E+02 -0.37843747133E+02 -0.14888815609E+03  0.15720583073E+03  0.00000000000E+00 0. -1.
</event>
<event>
 7    1  0.2420569E-009  0.2571063E+03  0.7561462E-02  0.1108894E+00
          2   -1    0    0  501    0  0.00000000000E+00  0.00000000000E+00  0.17878629838E+03  0.17878629838E+03  0.00000000000E+00 0. -1.
         -2   -1    0    0    0  501 -0.00000000000E+00 -0.00000000000E+00 -0.37836538323E+03  0.37836538323E+03  0.00000000000E+00 0.  1.
         25    2    1    2    0    0 -0.20719757518E+03 -0.10965971002E+03 -0.10598890806E+03  0.28607146549E+03  0.12508855893E+03 0.  0.
          5    1    3    3  502    0  0.13603409012E+02 -0.28141210562E+01  0.68421303065E+01  0.16039300521E+02  0.41800000000E+01 0.  1.
         -5    1    3    3    0  502 -0.22080098419E+03 -0.10684558896E+03 -0.11283103837E+03  0.27003216497E+03  0.41800000000E+01 0.  1.
        -11    1    1    2    0    0  0.95114564983E+02  0.10574091208E+03 -0.50080553710E+02  0.15078455763E+03  0.00000000000E+00 0. -1.
         11    1    1    2    0    0  0.11208301020E+03  0.39187979399E+01 -0.43509623073E+02  0.12029565849E+03  0.00000000000E+00 0.  1.
</event>
<event>
 7    1  0.2420569E-009  0.9732194E+02  0.7561462E-02  0.1286030E+00
         -2   -1    0    0    0  501 -0.00000000000E+00  0.00000000000E+00  0.10928791984E+02  0.10928791984E+02  0.00000000000E+00 0.  1.
          2   -1    0    0  501    0  0.00000000000E+00 -0.00000000000E+00 -0.13124731144E+04  0.13124731144E+04  0.00000000000E+00 0. -1.
         25    2    1    2    0    0  0.56097194728E+01  0.25305879797E+02 -0.10177597477E+04  0.10257455231E+04  0.12508843928E+03 0.  0.
          5    1    3    3  502    0  0.80114648814E+00  0.71515271025E+02 -0.41115854480E+03  0.41735344397E+03  0.41800000000E+01 0. -1.
         -5    1    3    3    0  502  0.48085729846E+01 -0.46209391228E+02 -0.60660120287E+03  0.60839207912E+03  0.41800000000E+01 0. -1.
        -11    1    1    2    0    0  0.21526867895E+02  0.16077706240E+02 -0.35682489649E+02  0.44666976021E+02  0.00000000000E+00 0.  1.
         11    1    1    2    0    0 -0.27136587368E+02 -0.41383586036E+02 -0.24810208513E+03  0.25298940732E+03  0.00000000000E+00 0. -1.
</event>
<event>
 7    1  0.2420569E-009  0.3650476E+03  0.7561462E-02  0.1056603E+00
         -2   -1    0    0    0  501 -0.00000000000E+00  0.00000000000E+00  0.16654550258E+03  0.16654550258E+03  0.00000000000E+00 0. -1.
          2   -1    0    0  501    0  0.00000000000E+00 -0.00000000000E+00 -0.84785676128E+03  0.84785676128E+03  0.00000000000E+00 0.  1.
         25    2    1    2    0    0  0.35642957572E+03 -0.45175061985E+02 -0.32266922178E+03  0.49884333370E+03  0.12508563555E+03 0.  0.
          5    1    3    3  502    0  0.13398044373E+03  0.12167025068E+02 -0.19214560832E+03  0.23459796034E+03  0.41800000000E+01 0.  1.
         -5    1    3    3    0  502  0.22244913199E+03 -0.57342087053E+02 -0.13052361346E+03  0.26424537336E+03  0.41800000000E+01 0.  1.
        -11    1    1    2    0    0 -0.24399152788E+03 -0.15061565241E+01 -0.27614386493E+03  0.36849636135E+03  0.00000000000E+00 0. -1.
         11    1    1    2    0    0 -0.11243804784E+03  0.46681218509E+02 -0.82498171981E+02  0.14706256881E+03  0.00000000000E+00 0.  1.
</event>
<event>
 7    1  0.2420569E-009  0.1202268E+03  0.7561462E-02  0.1242723E+00
         -2   -1    0    0    0  501 -0.00000000000E+00  0.00000000000E+00  0.18144881250E+03  0.18144881250E+03  0.00000000000E+00 0.  1.
          2   -1    0    0  501    0  0.00000000000E+00 -0.00000000000E+00 -0.24367988596E+03  0.24367988596E+03  0.00000000000E+00 0. -1.
         25    2    1    2    0    0  0.66730617160E+02 -0.63075222724E+02  0.12312509475E+03  0.19808657132E+03  0.12508813610E+03 0.  0.
          5    1    3    3  502    0  0.64117087716E+02  0.88924061443E+00  0.11719870019E+03  0.13365926610E+03  0.41800000000E+01 0. -1.
         -5    1    3    3    0  502  0.26135294441E+01 -0.63964463338E+02  0.59263945506E+01  0.64427305226E+02  0.41800000000E+01 0. -1.
        -11    1    1    2    0    0  0.10532848096E+02  0.22333946424E+02 -0.10663242673E+03  0.10945419354E+03  0.00000000000E+00 0. -1.
         11    1    1    2    0    0 -0.77263465256E+02  0.40741276300E+02 -0.78723741465E+02  0.11758793360E+03  0.00000000000E+00 0.  1.
</event>
<event>
 7    1  0.2420569E-009  0.1137521E+03  0.7561462E-02  0.1253775E+00
         -2   -1    0    0    0  501 -0.00000000000E+00  0.00000000000E+00  0.33116554198E+03  0.33116554198E+03  0.00000000000E+00 0. -1.
          2   -1    0    0  501    0  0.00000000000E+00 -0.00000000000E+00 -0.49119717332E+02  0.49119717332E+02  0.00000000000E+00 0.  1.
         25    2    1    2    0    0  0.62344625039E+02 -0.12945298258E+02  0.11392737203E+03  0.18078099322E+03  0.12509152007E+03 0.  0.
          5    1    3    3  502    0  0.26911141232E+02 -0.65082183482E+02  0.87245162249E+02  0.11220111793E+03  0.41800000000E+01 0. -1.
         -5    1    3    3    0  502  0.35433483807E+02  0.52136885224E+02  0.26682209777E+02  0.68579875285E+02  0.41800000000E+01 0. -1.
        -11    1    1    2    0    0  0.29067492111E+01  0.26894848705E+02  0.11747955686E+02  0.29492313247E+02  0.00000000000E+00 0.  1.
         11    1    1    2    0    0 -0.65251374250E+02 -0.13949550447E+02  0.15637049693E+03  0.17001195284E+03  0.00000000000E+00 0. -1.
</event>
<event>
 7    1  0.2420569E-009  0.1344244E+03  0.7561462E-02  0.1221035E+00
         -2   -1    0    0    0  501 -0.00000000000E+00  0.00000000000E+00  0.28597600527E+02  0.28597600527E+02  0.00000000000E+00 0.  1.
          2   -1    0    0  501    0  0.00000000000E+00 -0.00000000000E+00 -0.26744290169E+04  0.26744290169E+04  0.00000000000E+00 0. -1.
         25    2    1    2    0    0 -0.81247635663E+02  0.62348325939E+02 -0.24797910295E+04  0.24850550860E+04  0.12508692219E+03 0.  0.
          5    1    3    3  502    0 -0.98991224154E+01  0.78549041050E+02 -0.16939949040E+04  0.16958490946E+04  0.41800000000E+01 0. -1.
         -5    1    3    3    0  502 -0.71348513248E+02 -0.16200715111E+02 -0.78579612553E+03  0.78920599137E+03  0.41800000000E+01 0. -1.
        -11    1    1    2    0    0 -0.67762820268E+01 -0.14710817347E+02 -0.92152733360E+02  0.93565230779E+02  0.00000000000E+00 0. -1.
         11    1    1    2    0    0  0.88023917690E+02 -0.47637508592E+02 -0.73887653469E+02  0.12440630067E+03  0.00000000000E+00 0.  1.
</event>
<event>
 7    1  0.2420569E-009  0.1286009E+03  0.7561462E-02  0.1229547E+00
          1   -1    0    0  501    0  0.00000000000E+00  0.00000000000E+00  0.92021254593E+02  0.92021254593E+02  0.00000000000E+00 0.  1.
         -1   -1    0    0    0  501 -0.00000000000E+00 -0.00000000000E+00 -0.23658194905E+03  0.23658194905E+03  0.00000000000E+00 0. -1.
         25    2    1    2    0    0 -0.92784575366E+02 -0.29857684248E+02 -0.10075584534E+03  0.18788174018E+03  0.12508936480E+03 0.  0.
          5    1    3    3  502    0  0.11239792592E+02  0.70439942940E+01  0.19915690520E+02  0.24291107879E+02  0.41800000000E+01 0.  1.
         -5    1    3    3    0  502 -0.10402436796E+03 -0.36901678542E+02 -0.12067153586E+03  0.16359063230E+03  0.41800000000E+01 0.  1.
        -11    1    1    2    0    0  0.44318226763E+02  0.60874166027E+02 -0.32826162035E+02  0.82142109948E+02  0.00000000000E+00 0. -1.
         11    1    1    2    0    0  0.48466348603E+02 -0.31016481778E+02 -0.10978687081E+02  0.58579353520E+02  0.00000000000E+00 0.  1.
</event>
<event>
 7    1  0.2420569E-009  0.1322788E+03  0.7561462E-02  0.1224113E+00
         -1   -1    0    0    0  501 -0.00000000000E+00  0.00000000000E+00  0.58329894525E+02  0.58329894525E+02  0.00000000000E+00 0.  1.
          1   -1    0    0  501    0  0.00000000000E+00 -0.00000000000E+00 -0.31203940335E+03  0.31203940335E+03  0.00000000000E+00 0. -1.
         25    2    1    2    0    0 -0.51212181725E+02  0.59731091797E+02 -0.12574309680E+03  0.19404189439E+03  0.12510171662E+03 0.  0.
          5    1    3    3  502    0  0.17202613588E+02  0.72777258545E+02 -0.84807542653E+02  0.11314703251E+03  0.41800000000E+01 0.  1.
         -5    1    3    3    0  502 -0.68414795313E+02 -0.13046166748E+02 -0.40935554151E+02  0.80894861877E+02  0.41800000000E+01 0.  1.
        -11    1    1    2    0    0 -0.11684884586E+02 -0.55641591959E+02 -0.74216991449E+02  0.93491631193E+02  0.00000000000E+00 0.  1.
         11    1    1    2    0    0  0.62897066311E+02 -0.40894998381E+01 -0.53749420574E+02  0.82835772294E+02  0.00000000000E+00 0. -1.
</event>
<event>
 7    1  0.2420569E-009  0.1566096E+03  0.7561462E-02  0.1192579E+00
         -1   -1    0    0    0  501 -0.00000000000E+00  0.00000000000E+00  0.33440878421E+02  0.33440878421E+02  0.00000000000E+00 0.  1.
          1   -1    0    0  501    0  0.00000000000E+00 -0.00000000000E+00 -0.10912529196E+04  0.10912529196E+04  0.00000000000E+00 0. -1.
         25    2    1    2    0    0 -0.12309274480E+03  0.33579563712E+02 -0.83104385701E+03  0.85003323390E+03  0.12507276096E+03 0.  0.
          5    1    3    3  502    0 -0.10637413122E+03  0.63927916453E+02 -0.76799896940E+03  0.77797308674E+03  0.41800000000E+01 0.  1.
         -5    1    3    3    0  502 -0.16718613587E+02 -0.30348352742E+02 -0.63044887606E+02  0.72060147153E+02  0.41800000000E+01 0.  1.
        -11    1    1    2    0    0  0.59374520047E+02 -0.60684369635E+02 -0.13884340162E+03  0.16274340700E+03  0.00000000000E+00 0. -1.
         11    1    1    2    0    0  0.63718224757E+02  0.27104805924E+02 -0.87924782514E+02  0.11191715709E+03  0.00000000000E+00 0.  1.
</event>
<event>
 7    1  0.2420569E-009  0.1137861E+03  0.7561462E-02  0.1253715E+00
         -2   -1    0    0    0  501 -0.00000000000E+00  0.00000000000E+00  0.14533244344E+03  0.14533244344E+03  0.00000000000E+00 0.  1.
          2   -1    0    0  501    0  0.00000000000E+00 -0.00000000000E+00 -0.10911132728E+03  0.10911132728E+03  0.00000000000E+00 0. -1.
         25    2    1    2    0    0 -0.26898837097E+02  0.76397285046E+02  0.32854385687E+02  0.15259667869E+03  0.12508494350E+03 0.  0.
          5    1    3    3  502    0 -0.19197437267E+02 -0.22137150857E+02  0.44019690810E+02  0.53045269579E+02  0.41800000000E+01 0. -1.
         -5    1    3    3    0  502 -0.77013998303E+01  0.98534435903E+02 -0.11165305123E+02  0.99551409114E+02  0.41800000000E+01 0. -1.
        -11    1    1    2    0    0 -0.15039579281E+02 -0.42991188261E+01  0.93514200376E+01  0.18224171431E+02  0.00000000000E+00 0.  1.
         11    1    1    2    0    0  0.41938416378E+02 -0.72098166220E+02 -0.59846895645E+01  0.83622920601E+02  0.00000000000E+00 0. -1.
</event>
<event>
 7    1  0.2420569E-009  0.1870667E+03  0.7561462E-02  0.1161134E+00
          2   -1    0    0  501    0  0.00000000000E+00  0.00000000000E+00  0.19781050438E+04  0.19781050438E+04  0.00000000000E+00 0. -1.
         -2   -1    0    0    0  501 -0.00000000000E+00 -0.00000000000E+00 -0.32769089286E+02  0.32769089286E+02  0.00000000000E+00 0.  1.
         25    2    1    2    0    0 -0.16537388973E+03 -0.49945590558E+01  0.16291090881E+04  0.16422593154E+04  0.12508304919E+03 0.  0.
          5    1    3    3  502    0 -0.11403145047E+03 -0.44256667575E+02  0.67878694650E+03  0.68973256807E+03  0.41800000000E+01 0.  1.
         -5    1    3    3    0  502 -0.51342439251E+02  0.39262108520E+02  0.95032214156E+03  0.95252674732E+03  0.41800000000E+01 0.  1.
        -11    1    1    2    0    0  0.12797020209E+03 -0.34540463155E+02  0.24934612343E+03  0.28238786357E+03  0.00000000000E+00 0.  1.
         11    1    1    2    0    0  0.37403687633E+02  0.39535022210E+02  0.66880743024E+02  0.86226954122E+02  0.00000000000E+00 0. -1.
</event>
<event>
 7    1  0.2420569E-009  0.9982102E+02  0.7561462E-02  0.1280673E+00
         -2   -1    0    0    0  501 -0.00000000000E+00  0.00000000000E+00  0.51692291671E+02  0.51692291671E+02  0.00000000000E+00 0.  1.
          2   -1    0    0  501    0  0.00000000000E+00 -0.00000000000E+00 -0.24256447579E+03  0.24256447579E+03  0.00000000000E+00 0. -1.
         25    2    1    2    0    0  0.12520613208E+02 -0.10204904924E+02 -0.10425984499E+03  0.16363036063E+03  0.12507547243E+03 0.  0.
          5    1    3    3  502    0 -0.28844862958E+02  0.45784333625E+02 -0.60607424470E+02  0.81357013375E+02  0.41800000000E+01 0.  1.
         -5    1    3    3    0  502  0.41365476165E+02 -0.55989238549E+02 -0.43652420523E+02  0.82273347259E+02  0.41800000000E+01 0.  1.
        -11    1    1    2    0    0 -0.42081215145E+02  0.16853689774E+02 -0.89362800334E+02  0.10020272257E+03  0.00000000000E+00 0. -1.
         11    1    1    2    0    0  0.29560601937E+02 -0.66487848498E+01  0.27504612066E+01  0.30423684256E+02  0.00000000000E+00 0.  1.
</event>
<event>
 7    1  0.2420569E-009  0.3145626E+03  0.7561462E-02  0.1078179E+00
         -2   -1    0    0    0  501 -0.00000000000E+00  0.00000000000E+00  0.11934833873E+03  0.11934833873E+03  0.00000000000E+00 0. -1.
          2   -1    0    0  501    0  0.00000000000E+00 -0.00000000000E+00 -0.90107383417E+03  0.90107383417E+03  0.00000000000E+00 0.  1.
         25    2    1    2    0    0 -0.29443233248E+03 -0.67981670624E+02 -0.28621907501E+03  0.43460023638E+03  0.12507637911E+03 0.  0.
          5    1    3    3  502    0 -0.20441075029E+03  0.94361150130E+01 -0.14940230130E+03  0.25339951684E+03  0.41800000000E+01 0.  1.
         -5    1    3    3    0  502 -0.90021582189E+02 -0.77417785637E+02 -0.13681677371E+03  0.18120071954E+03  0.41800000000E+01 0.  1.
        -11    1    1    2    0    0  0.26367386590E+03  0.45551346596E+02 -0.46713666056E+03  0.53834514243E+03  0.00000000000E+00 0. -1.
         11    1    1    2    0    0  0.30758466577E+02  0.22430324028E+02 -0.28369759870E+02  0.47476794092E+02  0.00000000000E+00 0.  1.
</event>
<event>
 7    1  0.2420569E-009  0.1940242E+03  0.7561462E-02  0.1154881E+00
          1   -1    0    0  501    0  0.00000000000E+00  0.00000000000E+00  0.24718614287E+04  0.24718614287E+04  0.00000000000E+00 0. -1.
         -1   -1    0    0    0  501 -0.00000000000E+00 -0.00000000000E+00 -0.17192081680E+02  0.17192081680E+02  0.00000000000E+00 0.  1.
         25    2    1    2    0    0  0.98186326514E+02  0.14336589259E+03  0.16200842155E+04  0.16341711162E+04  0.12509211721E+03 0.  0.
          5    1    3    3  502    0  0.89420671550E+02  0.24035606938E+02  0.60678992439E+03  0.61382835682E+03  0.41800000000E+01 0. -1.
         -5    1    3    3    0  502  0.87656549641E+01  0.11933028566E+03  0.10132942912E+04  0.10203427594E+04  0.41800000000E+01 0. -1.
        -11    1    1    2    0    0 -0.30304269162E+01 -0.17960318622E+02  0.30436135989E+02  0.35469915510E+02  0.00000000000E+00 0.  1.
         11    1    1    2    0    0 -0.95155899598E+02 -0.12540557397E+03  0.80414899547E+03  0.81941247863E+03  0.00000000000E+00 0. -1.
</event>
<event>
 7    1  0.2420569E-009  0.1150849E+03  0.7561462E-02  0.1251433E+00
          1   -1    0    0  501    0  0.00000000000E+00  0.00000000000E+00  0.84039237244E+03  0.84039237244E+03  0.00000000000E+00 0. -1.
         -1   -1    0    0    0  501 -0.00000000000E+00 -0.00000000000E+00 -0.16359725925E+02  0.16359725925E+02  0.00000000000E+00 0.  1.
         25    2    1    2    0    0 -0.88373829884E+01 -0.39413705359E+02  0.53720544227E+03  0.55305385539E+03  0.12508932908E+03 0.  0.
          5    1    3    3  502    0 -0.53454797047E+02  0.19824731255E+02  0.23137111608E+03  0.23832855694E+03  0.41800000000E+01 0.  1.
         -5    1    3    3    0  502  0.44617414059E+02 -0.59238436614E+02  0.30583432619E+03  0.31472529845E+03  0.41800000000E+01 0.  1.
        -11    1    1    2    0    0  0.36023910915E+02 -0.14113152556E+02  0.13492710681E+03  0.14036462299E+03  0.00000000000E+00 0.  1.
         11    1    1    2    0    0 -0.27186527927E+02  0.53526857915E+02  0.15190009743E+03  0.16333361999E+03  0.00000000000E+00 0. -1.
</event>
<event>
 7    1  0.2420569E-009  0.1528938E+03  0.7561462E-02  0.1196962E+00
          1   -1    0    0  501    0  0.00000000000E+00  0.00000000000E+00  0.31752930576E+03  0.31752930576E+03  0.00000000000E+00 0. -1.
         -1   -1    0    0    0  501 -0.00000000000E+00 -0.00000000000E+00 -0.97540629788E+02  0.97540629788E+02  0.00000000000E+00 0.  1.
         25    2    1    2    0    0  0.39718453469E+02  0.12306076398E+03  0.58587368993E+02  0.18921951717E+03  0.12510011469E+03 0.  0.
          5    1    3    3  502    0 -0.40754478049E+02  0.57333116332E+02  0.12621931221E+01  0.70477508759E+02  0.41800000000E+01 0.  1.
         -5    1    3    3    0  502  0.80472931518E+02  0.65727647644E+02  0.57325175871E+02  0.11874200841E+03  0.41800000000E+01 0.  1.
        -11    1    1    2    0    0 -0.36432993937E+02 -0.77307299542E+02  0.15827309252E+03  0.17987260332E+03  0.00000000000E+00 0. -1.
         11    1    1    2    0    0 -0.32854595315E+01 -0.45753464434E+02  0.31282144584E+01  0.45977815061E+02  0.00000000000E+00 0.  1.
</event>
<event>
 7    1  0.2420569E-009  0.1413056E+03  0.7561462E-02  0.1211583E+00
         -1   -1    0    0    0  501 -0.00000000000E+00  0.00000000000E+00  0.45445789120E+02  0.45445789120E+02  0.00000000000E+00 0.  1.
          1   -1    0    0  501    0  0.00000000000E+00 -0.00000000000E+00 -0.70110265360E+03  0.70110265360E+03  0.00000000000E+00 0. -1.
         25    2    1    2    0    0  0.75693589339E+02  0.53598306527E+02 -0.12508590891E+03  0.19974115308E+03  0.12509094970E+03 0.  0.
          5    1    3    3  502    0 -0.32901198096E+02  0.27539010213E+02 -0.25718421003E+02  0.50197564667E+02  0.41800000000E+01 0. -1.
         -5    1    3    3    0  502  0.10859478743E+03  0.26059296313E+02 -0.99367487907E+02  0.14954358841E+03  0.41800000000E+01 0. -1.
        -11    1    1    2    0    0 -0.21189162180E+02  0.24574689778E+02 -0.81216630542E+02  0.87458773420E+02  0.00000000000E+00 0.  1.
         11    1    1    2    0    0 -0.54504427159E+02 -0.78172996305E+02 -0.44935432503E+03  0.45934851622E+03  0.00000000000E+00 0. -1.
</event>
<event>
 7    1  0.2420569E-009  0.1115717E+03  0.7561462E-02  0.1257687E+00
         -1   -1    0    0    0  501 -0.00000000000E+00  0.00000000000E+00  0.70629077025E+02  0.70629077025E+02  0.00000000000E+00 0.  1.
          1   -1    0    0  501    0  0.00000000000E+00 -0.00000000000E+00 -0.32173563579E+03  0.32173563579E+03  0.00000000000E+00 0. -1.
         25    2    1    2    0    0  0.41681690969E+02 -0.53713433216E+02 -0.23583144496E+03  0.27547444099E+03  0.12508877224E+03 0.  0.
          5    1    3    3  502    0  0.51245865280E+02  0.28820734245E+02 -0.10570041630E+03  0.12102406305E+03  0.41800000000E+01 0. -1.
         -5    1    3    3    0  502 -0.95641743109E+01 -0.82534167461E+02 -0.13013102865E+03  0.15445037795E+03  0.41800000000E+01 0. -1.
        -11    1    1    2    0    0 -0.22471421783E+00  0.35877435979E+02  0.34448966064E+02  0.49739040721E+02  0.00000000000E+00 0.  1.
         11    1    1    2    0    0 -0.41456976751E+02  0.17835997237E+02 -0.49724079873E+02  0.67151231098E+02  0.00000000000E+00 0. -1.
</event>
<event>
 7    1  0.2420569E-009  0.1036406E+03  0.7561462E-02  0.1272821E+00
          2   -1    0    0  501    0  0.00000000000E+00  0.00000000000E+00  0.77718409461E+02  0.77718409461E+02  0.00000000000E+00 0. -1.
         -2   -1    0    0    0  501 -0.00000000000E+00 -0.00000000000E+00 -0.23016796745E+03  0.23016796745E+03  0.00000000000E+00 0.  1.
         25    2    1    2    0    0  0.48230276787E+02 -0.58021924280E+02 -0.64772669730E+02  0.15980003555E+03  0.12509136389E+03 0.  0.
          5    1    3    3  502    0  0.29367675357E+02  0.15105999019E+02  0.25569513704E+02  0.41975278359E+02  0.41800000000E+01 0. -1.
         -5    1    3    3    0  502  0.18862601429E+02 -0.73127923299E+02 -0.90342183434E+02  0.11782475719E+03  0.41800000000E+01 0. -1.
        -11    1    1    2    0    0 -0.45917990115E+02  0.71338997759E+02 -0.31808621008E+02  0.90606306557E+02  0.00000000000E+00 0. -1.
         11    1    1    2    0    0 -0.23122866715E+01 -0.13317073480E+02 -0.55868267247E+02  0.57480034803E+02  0.00000000000E+00 0.  1.
</event>
<event>
 7    1  0.2420569E-009  0.9687622E+02  0.7561462E-02  0.1287005E+00
         -1   -1    0    0    0  501 -0.00000000000E+00  0.00000000000E+00  0.88453004773E+02  0.88453004773E+02  0.00000000000E+00 0.  1.
          1   -1    0    0  501    0  0.00000000000E+00 -0.00000000000E+00 -0.15103804487E+03  0.15103804487E+03  0.00000000000E+00 0. -1.
         25    2    1    2    0    0  0.94832092092E+00 -0.22093418388E+01 -0.79195012832E+02  0.14807161592E+03  0.12509025893E+03 0.  0.
          5    1    3    3  502    0 -0.37583298822E+02 -0.42141984435E+02 -0.72000281363E+01  0.57076825487E+02  0.41800000000E+01 0.  1.
         -5    1    3    3    0  502  0.38531619743E+02  0.39932642596E+02 -0.71994984695E+02  0.90994790433E+02  0.41800000000E+01 0.  1.
        -11    1    1    2    0    0 -0.29775986111E+02  0.29407537674E+02  0.27794010592E+02  0.50238627029E+02  0.00000000000E+00 0.  1.
         11    1    1    2    0    0  0.28827665190E+02 -0.27198195835E+02 -0.11184037852E+02  0.41180806690E+02  0.00000000000E+00 0. -1.
</event>
<event>
 7    1  0.2420569E-009  0.7604532E+02  0.7561462E-02  0.1340664E+00
          2   -1    0    0  501    0  0.00000000000E+00  0.00000000000E+00  0.25959241677E+03  0.25959241677E+03  0.00000000000E+00 0. -1.
         -2   -1    0    0    0  501 -0.00000000000E+00 -0.00000000000E+00 -0.80646725405E+02  0.80646725405E+02  0.00000000000E+00 0.  1.
         25    2    1    2    0    0 -0.15212560549E+02  0.11394578636E+02  0.20835618846E+03  0.24376395832E+03  0.12508919892E+03 0.  0.
          5    1    3    3  502    0  0.23461929685E+02 -0.39487710636E+01  0.19958001466E+03  0.20103658769E+03  0.41800000000E+01 0.  1.
         -5    1    3    3    0  502 -0.38674490234E+02  0.15343349700E+02  0.87761738013E+01  0.42727370636E+02  0.41800000000E+01 0.  1.
        -11    1    1    2    0    0 -0.30918386742E+02 -0.23017363754E+02 -0.30087290230E+02  0.48897757681E+02  0.00000000000E+00 0.  1.
         11    1    1    2    0    0  0.46130947290E+02  0.11622785118E+02  0.67679313074E+00  0.47577426168E+02  0.00000000000E+00 0. -1.
</event>
<event>
 7    1  0.2420569E-009  0.1430930E+03  0.7561462E-02  0.1209227E+00
         -2   -1    0    0    0  501 -0.00000000000E+00  0.00000000000E+00  0.16977825988E+02  0.16977825988E+02  0.00000000000E+00 0.  1.
          2   -1    0    0  501    0  0.00000000000E+00 -0.00000000000E+00 -0.14558923158E+04  0.14558923158E+04  0.00000000000E+00 0. -1.
         25    2    1    2    0    0 -0.39575898818E+02  0.85717571125E+02 -0.10759855221E+04  0.10873397800E+04  0.12509676123E+03 0.  0.
          5    1    3    3  502    0 -0.63355752449E+02 -0.36164015506E+01 -0.48533703051E+03  0.48948599093E+03  0.41800000000E+01 0.  1.
         -5    1    3    3    0  502  0.23779853631E+02  0.89333972675E+02 -0.59064849159E+03  0.59785378909E+03  0.41800000000E+01 0.  1.
        -11    1    1    2    0    0  0.63261456641E+02 -0.31046635248E+02 -0.19404201467E+03  0.20644178093E+03  0.00000000000E+00 0.  1.
         11    1    1    2    0    0 -0.23685557823E+02 -0.54670935877E+02 -0.16888695301E+03  0.17908858081E+03  0.00000000000E+00 0. -1.
</event>
<event>
 7    1  0.2420569E-009  0.9882597E+02  0.7561462E-02  0.1282784E+00
         -1   -1    0    0    0  501 -0.00000000000E+00  0.00000000000E+00  0.19433773957E+02  0.19433773957E+02  0.00000000000E+00 0.  1.
          1   -1    0    0  501    0  0.00000000000E+00 -0.00000000000E+00 -0.14658162594E+04  0.14658162594E+04  0.00000000000E+00 0. -1.
         25    2    1    2    0    0 -0.42905994174E+02  0.44196873891E+02 -0.11679996851E+04  0.11762928574E+04  0.12508930348E+03 0.  0.
          5    1    3    3  502    0 -0.26431556679E+02  0.17406133626E+02 -0.11076631423E+04  0.11081230572E+04  0.41800000000E+01 0.  1.
         -5    1    3    3    0  502 -0.16474437496E+02  0.26790740265E+02 -0.60336542767E+02  0.68169800115E+02  0.41800000000E+01 0.  1.
        -11    1    1    2    0    0  0.41842744171E+02  0.35150186812E+02 -0.11234233763E+03  0.12492858639E+03  0.00000000000E+00 0. -1.
         11    1    1    2    0    0  0.10632500038E+01 -0.79347060703E+02 -0.16604046274E+03  0.18402858965E+03  0.00000000000E+00 0.  1.
</event>
<event>
 7    1  0.2420569E-009  0.1675972E+03  0.7561462E-02  0.1180377E+00
         -1   -1    0    0    0  501 -0.00000000000E+00  0.00000000000E+00  0.74351954720E+02  0.74351954720E+02  0.00000000000E+00 0.  1.
          1   -1    0    0  501    0  0.00000000000E+00 -0.00000000000E+00 -0.41750619169E+03  0.41750619169E+03  0.00000000000E+00 0. -1.
         25    2    1    2    0    0  0.86139192195E+02 -0.10491801371E+03 -0.14289657889E+03  0.23344009977E+03  0.12508836033E+03 0.  0.
          5    1    3    3  502    0  0.27507627120E+01  0.23864075954E+02 -0.45626869700E+02  0.51733397871E+02  0.41800000000E+01 0. -1.
         -5    1    3    3    0  502  0.83388429483E+02 -0.12878208966E+03 -0.97269709189E+02  0.18170670190E+03  0.41800000000E+01 0. -1.
        -11    1    1    2    0    0 -0.69143771743E+02  0.11739786153E+03 -0.14353205045E+03  0.19790040062E+03  0.00000000000E+00 0.  1.
         11    1    1    2    0    0 -0.16995420452E+02 -0.12479847822E+02 -0.56725607632E+02  0.60517646015E+02  0.00000000000E+00 0. -1.
</event>
<event>
 7    1  0.2420569E-009  0.1253397E+03  0.7561462E-02  0.1234539E+00
          2   -1    0    0  501    0  0.00000000000E+00  0.00000000000E+00  0.15706271166E+03  0.15706271166E+03  0.00000000000E+00 0. -1.
         -2   -1    0    0    0  501 -0.00000000000E+00 -0.00000000000E+00 -0.18924667333E+03  0.18924667333E+03  0.00000000000E+00 0.  1.
         25    2    1    2    0    0 -0.23171565615E+02 -0.75270433444E+02 -0.12537169111E+03  0.19382711345E+03  0.12509328268E+03 0.  0.
          5    1    3    3  502    0  0.17041669919E+02 -0.92776478159E+02 -0.50816171117E+02  0.10722709107E+03  0.41800000000E+01 0.  1.
         -5    1    3    3    0  502 -0.40213235534E+02  0.17506044715E+02 -0.74555519991E+02  0.86600022372E+02  0.41800000000E+01 0.  1.
        -11    1    1    2    0    0 -0.29578707628E+02  0.35072630751E+02  0.66945229114E+02  0.81158197822E+02  0.00000000000E+00 0.  1.
         11    1    1    2    0    0  0.52750273243E+02  0.40197802693E+02  0.26242500321E+02  0.71324073718E+02  0.00000000000E+00 0. -1.
</event>
<event>
 7    1  0.2420569E-009  0.7274224E+02  0.7561462E-02  0.1351009E+00
          2   -1    0    0  501    0  0.00000000000E+00  0.00000000000E+00  0.87418287261E+03  0.87418287261E+03  0.00000000000E+00 0. -1.
         -2   -1    0    0    0  501 -0.00000000000E+00 -0.00000000000E+00 -0.15628191301E+02  0.15628191301E+02  0.00000000000E+00 0.  1.
         25    2    1    2    0    0 -0.39550285759E+02 -0.19566995165E+02  0.42163838188E+03  0.44201127710E+03  0.12509177272E+03 0.  0.
          5    1    3    3  502    0 -0.13859351665E+02 -0.20746193844E+02  0.41412114187E+03  0.41489309313E+03  0.41800000000E+01 0. -1.
         -5    1    3    3    0  502 -0.25690934095E+02  0.11791986788E+01  0.75172400152E+01  0.27118183966E+02  0.41800000000E+01 0. -1.
        -11    1    1    2    0    0  0.51650184233E+02  0.43360677248E+02  0.36300061730E+03  0.36921177936E+03  0.00000000000E+00 0. -1.
         11    1    1    2    0    0 -0.12099898474E+02 -0.23793682083E+02  0.73915682132E+02  0.78588007452E+02  0.00000000000E+00 0.  1.
</event>
<event>
 7    1  0.2420569E-009  0.1111765E+03  0.7561462E-02  0.1258407E+00
         -2   -1    0    0    0  501 -0.00000000000E+00  0.00000000000E+00  0.12101863505E+02  0.12101863505E+02  0.00000000000E+00 0. -1.
          2   -1    0    0  501    0  0.00000000000E+00 -0.00000000000E+00 -0.11600147280E+04  0.11600147280E+04  0.00000000000E+00 0.  1.
         25    2    1    2    0    0 -0.30260682474E+01  0.26532152360E+02 -0.84001702703E+03  0.84969934882E+03  0.12508903025E+03 0.  0.
          5    1    3    3  502    0 -0.24408399696E+02 -0.45789527724E+02 -0.37257614105E+03  0.37619530048E+03  0.41800000000E+01 0.  1.
         -5    1    3    3    0  502  0.21382331449E+02  0.72321680084E+02 -0.46744088598E+03  0.47350404834E+03  0.41800000000E+01 0.  1.
        -11    1    1    2    0    0  0.37849162276E+02  0.14868837421E+02 -0.11060288012E+03  0.11784158223E+03  0.00000000000E+00 0.  1.
         11    1    1    2    0    0 -0.34823094029E+02 -0.41400989780E+02 -0.19729295734E+03  0.20457566045E+03  0.00000000000E+00 0. -1.
</event>
<event>
 7    1  0.2420569E-009  0.1332040E+03  0.7561462E-02  0.1222778E+00
          2   -1    0    0  501    0  0.00000000000E+00  0.00000000000E+00  0.11885719816E+03  0.11885719816E+03  0.00000000000E+00 0. -1.
         -2   -1    0    0    0  501 -0.00000000000E+00 -0.00000000000E+00 -0.18705541869E+03  0.18705541869E+03  0.00000000000E+00 0.  1.
         25    2    1    2    0    0  0.87788966531E+02 -0.29757585594E+02 -0.73292724615E+02  0.17207474234E+03  0.12508188088E+03 0.  0.
          5    1    3    3  502    0 -0.20598186142E+02 -0.12066104289E+02  0.17194603231E+02  0.29715365138E+02  0.41800000000E+01 0.  1.
         -5    1    3    3    0  502  0.10838715267E+03 -0.17691481306E+02 -0.90487327845E+02  0.14235937720E+03  0.41800000000E+01 0.  1.
        -11    1    1    2    0    0 -0.81430703260E+01 -0.31028825601E+02 -0.72487333802E+01  0.32888322367E+02  0.00000000000E+00 0.  1.
         11    1    1    2    0    0 -0.79645896205E+02  0.60786411195E+02  0.12343237465E+02  0.10094955215E+03  0.00000000000E+00 0. -1.
</event>
<event>
 7    1  0.2420569E-009  0.9294687E+02  0.7561462E-02  0.1295868E+00
          2   -1    0    0  501    0  0.00000000000E+00  0.00000000000E+00  0.51247383914E+03  0.51247383914E+03  0.00000000000E+00 0. -1.
         -2   -1    0    0    0  501 -0.00000000000E+00 -0.00000000000E+00 -0.26775724174E+02  0.26775724174E+02  0.00000000000E+00 0.  1.
         25    2    1    2    0    0 -0.42700968123E+02 -0.20434031328E+02  0.22190208904E+03  0.25909181140E+03  0.12508839795E+03 0.  0.
          5    1    3    3  502    0 -0.26663940625E+02  0.41798951417E+02  0.33488560875E+02  0.59975613200E+02  0.41800000000E+01 0.  1.
         -5    1    3    3    0  502 -0.16037027498E+02 -0.62232982746E+02  0.18841352816E+03  0.19911619820E+03  0.41800000000E+01 0.  1.
        -11    1    1    2    0    0  0.20805143520E+02 -0.17994799502E+02  0.24587259773E+02  0.36894446047E+02  0.00000000000E+00 0.  1.
         11    1    1    2    0    0  0.21895824603E+02  0.38428830830E+02  0.23920876616E+03  0.24326330586E+03  0.00000000000E+00 0. -1.
</event>
<event>
 7    1  0.2420569E-009  0.1075648E+03  0.7561462E-02  0.1265147E+00
         -2   -1    0    0    0  501 -0.00000000000E+00  0.00000000000E+00  0.43714316124E+02  0.43714316124E+02  0.00000000000E+00 0.  1.
          2   -1    0    0  501    0  0.00000000000E+00 -0.00000000000E+00 -0.37035105303E+03  0.37035105303E+03  0.00000000000E+00 0. -1.
         25    2    1    2    0    0  0.42455269141E+02 -0.35464259675E+02 -0.12456714567E+03  0.18499925197E+03  0.12509031081E+03 0.  0.
          5    1    3    3  502    0  0.87092448624E+02 -0.24143813368E+02 -0.85072380160E+02  0.12418856871E+03  0.41800000000E+01 0.  1.
         -5    1    3    3    0  502 -0.44637179483E+02 -0.11320446307E+02 -0.39494765507E+02  0.60810683266E+02  0.41800000000E+01 0.  1.
        -11    1    1    2    0    0 -0.22162289099E+01 -0.14270616269E+02  0.25621658793E+01  0.14667203321E+02  0.00000000000E+00 0.  1.
         11    1    1    2    0    0 -0.40239040231E+02  0.49734875943E+02 -0.20463175712E+03  0.21439891386E+03  0.00000000000E+00 0. -1.
</event>
<event>
 7    1  0.2420569E-009  0.3110358E+03  0.7561462E-02  0.1079850E+00
         -2   -1    0    0    0  501 -0.00000000000E+00  0.00000000000E+00  0.27463028906E+03  0.27463028906E+03  0.00000000000E+00 0.  1.
          2   -1    0    0  501    0  0.00000000000E+00 -0.00000000000E+00 -0.46317294234E+03  0.46317294234E+03  0.00000000000E+00 0. -1.
         25    2    1    2    0    0  0.20162277072E+03  0.22463591330E+03  0.65043735812E+02  0.33315302578E+03  0.12508883164E+03 0.  0.
          5    1    3    3  502    0 -0.42173863447E+01 -0.77377522924E+01  0.16150240556E+02  0.18866950685E+02  0.41800000000E+01 0.  1.
         -5    1    3    3    0  502  0.20584015706E+03  0.23237366559E+03  0.48893495256E+02  0.31428607509E+03  0.41800000000E+01 0.  1.
        -11    1    1    2    0    0 -0.18485615881E+03 -0.20496874266E+03 -0.18746394656E+03  0.33365658419E+03  0.00000000000E+00 0.  1.
         11    1    1    2    0    0 -0.16766611910E+02 -0.19667170637E+02 -0.66122442539E+02  0.70993621425E+02  0.00000000000E+00 0. -1.
</event>
<event>
 7    1  0.2420569E-009  0.2243634E+03  0.7561462E-02  0.1130671E+00
         -1   -1    0    0    0  501 -0.00000000000E+00  0.00000000000E+00  0.19082051423E+03  0.19082051423E+03  0.00000000000E+00 0. -1.
          1   -1    0    0  501    0  0.00000000000E+00 -0.00000000000E+00 -0.32586399458E+03  0.32586399458E+03  0.00000000000E+00 0.  1.
         25    2    1    2    0    0  0.18443597513E+03  0.94896911962E+02 -0.15343949564E+03  0.28672857424E+03  0.12509014205E+03 0.  0.
          5    1    3    3  502    0  0.18019429998E+03  0.43699381471E+02 -0.14287058932E+03  0.23411343272E+03  0.41800000000E+01 0.  1.
         -5    1    3    3    0  502  0.42416751527E+01  0.51197530492E+02 -0.10568906326E+02  0.52615141523E+02  0.41800000000E+01 0.  1.
        -11    1    1    2    0    0 -0.70844677963E+02 -0.60142373356E+02 -0.35541088692E+02  0.99494936826E+02  0.00000000000E+00 0.  1.
         11    1    1    2    0    0 -0.11359129717E+03 -0.34754538607E+02  0.53937103984E+02  0.13046099775E+03  0.00000000000E+00 0. -1.
</event>
<event>
 7    1  0.2420569E-009  0.9729977E+02  0.7561462E-02  0.1286079E+00
         -2   -1    0    0    0  501 -0.00000000000E+00  0.00000000000E+00  0.13426439303E+02  0.13426439303E+02  0.00000000000E+00 0. -1.
          2   -1    0    0  501    0  0.00000000000E+00 -0.00000000000E+00 -0.10127984215E+04  0.10127984215E+04  0.00000000000E+00 0.  1.
         25    2    1    2    0    0  0.25359451466E+02  0.11952693756E+02 -0.72093562796E+03  0.73224436591E+03  0.12509061946E+03 0.  0.
          5    1    3    3  502    0  0.63215101914E+02  0.25631205332E+02 -0.61594479707E+03  0.61972459467E+03  0.41800000000E+01 0. -1.
         -5    1    3    3    0  502 -0.37855650448E+02 -0.13678511575E+02 -0.10499083089E+03  0.11251977125E+03  0.41800000000E+01 0. -1.
        -11    1    1    2    0    0  0.21625122605E+02  0.19606899631E+02 -0.16089611102E+03  0.16352258248E+03  0.00000000000E+00 0.  1.
         11    1    1    2    0    0 -0.46984574071E+02 -0.31559593388E+02 -0.11754024325E+03  0.13045791244E+03  0.00000000000E+00 0. -1.
</event>
<event>
 7    1  0.2420569E-009  0.1326116E+03  0.7561462E-02  0.1223631E+00
         -4   -1    0    0    0  501 -0.00000000000E+00  0.00000000000E+00  0.89004960334E+02  0.89004960334E+02  0.00000000000E+00 0.  1.
          4   -1    0    0  501    0  0.00000000000E+00 -0.00000000000E+00 -0.27160933139E+03  0.27160933139E+03  0.00000000000E+00 0. -1.
         25    2    1    2    0    0  0.19050532794E+02 -0.10599463979E+03 -0.81265927327E+02  0.18398298789E+03  0.12509117645E+03 0.  0.
          5    1    3    3  502    0  0.13594667894E+02  0.23541869242E+02 -0.38661430770E+02  0.47446951765E+02  0.41800000000E+01 0.  1.
         -5    1    3    3    0  502  0.54558649001E+01 -0.12953650903E+03 -0.42604496557E+02  0.13653603613E+03  0.41800000000E+01 0.  1.
        -11    1    1    2    0    0 -0.84583241795E+01  0.26883040175E+02  0.17722328983E+02  0.33291471003E+02  0.00000000000E+00 0.  1.
         11    1    1    2    0    0 -0.10592208614E+02  0.79111599614E+02 -0.11906077271E+03  0.14333983283E+03  0.00000000000E+00 0. -1.
</event>
<event>
 7    1  0.2420569E-009  0.6746801E+02  0.7561462E-02  0.1368921E+00
         -2   -1    0    0    0  501 -0.00000000000E+00  0.00000000000E+00  0.55601936752E+02  0.55601936752E+02  0.00000000000E+00 0.  1.
          2   -1    0    0  501    0  0.00000000000E+00 -0.00000000000E+00 -0.64994135315E+03  0.64994135315E+03  0.00000000000E+00 0. -1.
         25    2    1    2    0    0 -0.22708959855E+01  0.29392168904E+02 -0.59548890984E+03  0.60919921892E+03  0.12509032748E+03 0.  0.
          5    1    3    3  502    0  0.21733660019E+02  0.45370204483E+02 -0.92591010541E+02  0.10545793031E+03  0.41800000000E+01 0.  1.
         -5    1    3    3    0  502 -0.24004556005E+02 -0.15978035579E+02 -0.50289789930E+03  0.50374128861E+03  0.41800000000E+01 0.  1.
        -11    1    1    2    0    0 -0.15159534358E+02 -0.34053343509E+02 -0.38004195012E+02  0.53233077354E+02  0.00000000000E+00 0. -1.
         11    1    1    2    0    0  0.17430430343E+02  0.46611746050E+01  0.39153688462E+02  0.43110993619E+02  0.00000000000E+00 0.  1.
</event>
<event>
 7    1  0.2420569E-009  0.1353616E+03  0.7561462E-02  0.1219710E+00
          1   -1    0    0  501    0  0.00000000000E+00  0.00000000000E+00  0.38593349644E+03  0.38593349644E+03  0.00000000000E+00 0. -1.
         -1   -1    0    0    0  501 -0.00000000000E+00 -0.00000000000E+00 -0.49118517003E+02  0.49118517003E+02  0.00000000000E+00 0.  1.
         25    2    1    2    0    0 -0.75285604894E+02 -0.38529512031E+02  0.17203816551E+03  0.22890384059E+03  0.12508953690E+03 0.  0.
          5    1    3    3  502    0 -0.10162330205E+03 -0.56177966131E+02  0.15138700469E+03  0.19083699062E+03  0.41800000000E+01 0. -1.
         -5    1    3    3    0  502  0.26337697157E+02  0.17648454100E+02  0.20651160819E+02  0.38066849972E+02  0.41800000000E+01 0. -1.
        -11    1    1    2    0    0  0.75871645132E+01 -0.27173317931E+02  0.26163183633E+02  0.38476830048E+02  0.00000000000E+00 0.  1.
         11    1    1    2    0    0  0.67698440381E+02  0.65702829963E+02  0.13861363030E+03  0.16767134281E+03  0.00000000000E+00 0. -1.
</event>
<event>
 7    1  0.2420569E-009  0.1163889E+03  0.7561462E-02  0.1249176E+00
          2   -1    0    0  501    0  0.00000000000E+00  0.00000000000E+00  0.42748706841E+03  0.42748706841E+03  0.00000000000E+00 0. -1.
         -2   -1    0    0    0  501 -0.00000000000E+00 -0.00000000000E+00 -0.36709497272E+02  0.36709497272E+02  0.00000000000E+00 0.  1.
         25    2    1    2    0    0 -0.42792026653E+00 -0.61756343794E+02  0.20111998992E+03  0.24477012403E+03  0.12509649938E+03 0.  0.
          5    1    3    3  502    0 -0.53108795024E+02  0.51560026403E+01  0.89925283013E+02  0.10464777779E+03  0.41800000000E+01 0. -1.
         -5    1    3    3    0  502  0.52680874758E+02 -0.66912346435E+02  0.11119470691E+03  0.14012234624E+03  0.41800000000E+01 0. -1.
        -11    1    1    2    0    0 -0.23458972874E+02  0.65716923548E+02  0.18053686339E+03  0.19355256777E+03  0.00000000000E+00 0.  1.
         11    1    1    2    0    0  0.23886893141E+02 -0.39605797538E+01  0.91207178312E+01  0.25873873882E+02  0.00000000000E+00 0. -1.
</event>
<event>
 7    1  0.2420569E-009  0.9070033E+02  0.7561462E-02  0.1301165E+00
         -2   -1    0    0    0  501 -0.00000000000E+00  0.00000000000E+00  0.75229583846E+02  0.75229583846E+02  0.00000000000E+00 0.  1.
          2   -1    0    0  501    0  0.00000000000E+00 -0.00000000000E+00 -0.17178061081E+03  0.17178061081E+03  0.00000000000E+00 0. -1.
         25    2    1    2    0    0  0.23808272712E+02  0.13773741745E+02 -0.46105900220E+02  0.13612477481E+03  0.12509056907E+03 0.  0.
          5    1    3    3  502    0  0.35668937628E+01 -0.55080227463E+02 -0.27795230000E+02  0.61940305127E+02  0.41800000000E+01 0.  1.
         -5    1    3    3    0  502  0.20241378949E+02  0.68853969209E+02 -0.18310670220E+02  0.74184469678E+02  0.41800000000E+01 0.  1.
        -11    1    1    2    0    0 -0.33553601622E+02  0.40967991568E+01 -0.73034696588E+02  0.80477915299E+02  0.00000000000E+00 0. -1.
         11    1    1    2    0    0  0.97453289097E+01 -0.17870540902E+02  0.22589569840E+02  0.30407504555E+02  0.00000000000E+00 0.  1.
</event>
<event>
 7    1  0.2420569E-009  0.7939215E+02  0.7561462E-02  0.1330785E+00
         -1   -1    0    0    0  501 -0.00000000000E+00  0.00000000000E+00  0.49467373576E+02  0.49467373576E+02  0.00000000000E+00 0.  1.
          1   -1    0    0  501    0  0.00000000000E+00 -0.00000000000E+00 -0.42403312869E+03  0.42403312869E+03  0.00000000000E+00 0. -1.
         25    2    1    2    0    0  0.10521811678E+02 -0.21491077736E+01 -0.34432129522E+03  0.36649614543E+03  0.12508774156E+03 0.  0.
          5    1    3    3  502    0 -0.47760377280E+02 -0.16000038715E+02 -0.24716189913E+03  0.25227669662E+03  0.41800000000E+01 0. -1.
         -5    1    3    3    0  502  0.58282188958E+02  0.13850930941E+02 -0.97159396092E+02  0.11421944881E+03  0.41800000000E+01 0. -1.
        -11    1    1    2    0    0  0.16344256336E+02 -0.95037289343E+01 -0.61400858514E+02  0.64245785894E+02  0.00000000000E+00 0. -1.
         11    1    1    2    0    0 -0.26866068014E+02  0.11652836708E+02  0.31156398621E+02  0.42758570941E+02  0.00000000000E+00 0.  1.
</event>
<event>
 7    1  0.2420569E-009  0.1096659E+03  0.7561462E-02  0.1261190E+00
          1   -1    0    0  501    0  0.00000000000E+00  0.00000000000E+00  0.24326259167E+03  0.24326259167E+03  0.00000000000E+00 0. -1.
         -1   -1    0    0    0  501 -0.00000000000E+00 -0.00000000000E+00 -0.71004024466E+02  0.71004024466E+02  0.00000000000E+00 0.  1.
         25    2    1    2    0    0  0.39656395464E+02  0.88193542679E+01  0.16782507383E+03  0.21321892799E+03  0.12508655058E+03 0.  0.
          5    1    3    3  502    0 -0.36372260119E+02 -0.22750719969E+02  0.90304057652E+02  0.10006413840E+03  0.41800000000E+01 0. -1.
         -5    1    3    3    0  502  0.76028655583E+02  0.31570074237E+02  0.77521016179E+02  0.11315478959E+03  0.41800000000E+01 0. -1.
        -11    1    1    2    0    0  0.26551802390E+02  0.23464666462E+01  0.18500943061E+02  0.32446710311E+02  0.00000000000E+00 0.  1.
         11    1    1    2    0    0 -0.66208197853E+02 -0.11165820914E+02 -0.14067449688E+02  0.68600977838E+02  0.00000000000E+00 0. -1.
</event>
<event>
 7    1  0.2420569E-009  0.1056793E+03  0.7561462E-02  0.1268787E+00
          2   -1    0    0  501    0  0.00000000000E+00  0.00000000000E+00  0.50048128991E+03  0.50048128991E+03  0.00000000000E+00 0. -1.
         -2   -1    0    0    0  501 -0.00000000000E+00 -0.00000000000E+00 -0.33503827990E+02  0.33503827990E+02  0.00000000000E+00 0.  1.
         25    2    1    2    0    0  0.55666561400E+02  0.43699077705E+02  0.27757002216E+03  0.31257110793E+03  0.12508878792E+03 0.  0.
          5    1    3    3  502    0  0.46019618506E+01  0.46828534084E+02  0.22385225309E+02  0.52274854084E+02  0.41800000000E+01 0. -1.
         -5    1    3    3    0  502  0.51064599549E+02 -0.31294563798E+01  0.25518479685E+03  0.26029625385E+03  0.41800000000E+01 0. -1.
        -11    1    1    2    0    0 -0.49785542177E+02  0.16388555129E+02  0.68316612764E+02  0.86106588184E+02  0.00000000000E+00 0.  1.
         11    1    1    2    0    0 -0.58810192232E+01 -0.60087632834E+02  0.12109082699E+03  0.13530742178E+03  0.00000000000E+00 0. -1.
</event>
<event>
 7    1  0.2420569E-009  0.6415009E+02  0.7561462E-02  0.1381197E+00
          2   -1    0    0  501    0  0.00000000000E+00  0.00000000000E+00  0.33842575920E+03  0.33842575920E+03  0.00000000000E+00 0.  1.
         -2   -1    0    0    0  501 -0.00000000000E+00 -0.00000000000E+00 -0.45175907750E+02  0.45175907750E+02  0.00000000000E+00 0. -1.
         25    2    1    2    0    0 -0.22130555693E+01  0.16842772364E+02  0.25322034698E+03  0.28294142069E+03  0.12508687711E+03 0.  0.
          5    1    3    3  502    0 -0.13842742187E+01 -0.10408100137E+02  0.25504859288E+03  0.25529884820E+03  0.41800000000E+01 0. -1.
         -5    1    3    3    0  502 -0.82878135065E+00  0.27250872501E+02 -0.18282459054E+01  0.27642572487E+02  0.41800000000E+01 0. -1.
        -11    1    1    2    0    0 -0.17507664706E+02 -0.48810691773E+02  0.35463345416E+02  0.62822375177E+02  0.00000000000E+00 0.  1.
         11    1    1    2    0    0  0.19720720275E+02  0.31967919408E+02  0.45661590580E+01  0.37837871082E+02  0.00000000000E+00 0. -1.
</event>
<event>
 7    1  0.2420569E-009  0.8143805E+02  0.7561462E-02  0.1325019E+00
          1   -1    0    0  501    0  0.00000000000E+00  0.00000000000E+00  0.15636027586E+03  0.15636027586E+03  0.00000000000E+00 0. -1.
         -1   -1    0    0    0  501 -0.00000000000E+00 -0.00000000000E+00 -0.88522562093E+02  0.88522562093E+02  0.00000000000E+00 0.  1.
         25    2    1    2    0    0 -0.18017123679E+02  0.33695563661E+02  0.68376188537E+02  0.14758818250E+03  0.12508781195E+03 0.  0.
          5    1    3    3  502    0  0.38521085061E+02  0.41099985869E+01 -0.15654969809E+02  0.41991863050E+02  0.41800000000E+01 0. -1.
         -5    1    3    3    0  502 -0.56538208740E+02  0.29585565074E+02  0.84031158346E+02  0.10559631945E+03  0.41800000000E+01 0. -1.
        -11    1    1    2    0    0  0.11234308121E+02 -0.45218133733E+02  0.35681144069E+02  0.58685887054E+02  0.00000000000E+00 0. -1.
         11    1    1    2    0    0  0.67828155572E+01  0.11522570072E+02 -0.36219618842E+02  0.38608768396E+02  0.00000000000E+00 0.  1.
</event>
<event>
 7    1  0.2420569E-009  0.1118633E+03  0.7561462E-02  0.1257158E+00
         -2   -1    0    0    0  501 -0.00000000000E+00  0.00000000000E+00  0.88343209480E+01  0.88343209480E+01  0.00000000000E+00 0.  1.
          2   -1    0    0  501    0  0.00000000000E+00 -0.00000000000E+00 -0.17193335271E+04  0.17193335271E+04  0.00000000000E+00 0. -1.
         25    2    1    2    0    0 -0.13044916353E+02  0.44050014283E+02 -0.12963033427E+04  0.13031348981E+04  0.12509049821E+03 0.  0.
          5    1    3    3  502    0 -0.63109838378E+02  0.46187903039E+02 -0.61279547242E+03  0.61777984549E+03  0.41800000000E+01 0. -1.
         -5    1    3    3    0  502  0.50064922025E+02 -0.21378887555E+01 -0.68350787031E+03  0.68535505263E+03  0.41800000000E+01 0. -1.
        -11    1    1    2    0    0 -0.52094140970E+01 -0.66209707721E+02 -0.27486645579E+03  0.28277629305E+03  0.00000000000E+00 0. -1.
         11    1    1    2    0    0  0.18254330450E+02  0.22159693438E+02 -0.13932940763E+03  0.14225665687E+03  0.00000000000E+00 0.  1.
</event>
<event>
 7    1  0.2420569E-009  0.1143058E+03  0.7561462E-02  0.1252798E+00
          1   -1    0    0  501    0  0.00000000000E+00  0.00000000000E+00  0.21941215589E+03  0.21941215589E+03  0.00000000000E+00 0. -1.
         -1   -1    0    0    0  501 -0.00000000000E+00 -0.00000000000E+00 -0.67112133880E+02  0.67112133880E+02  0.00000000000E+00 0.  1.
         25    2    1    2    0    0 -0.38025792831E+02  0.27559956652E+02  0.53973878077E+02  0.14410469655E+03  0.12508985539E+03 0.  0.
          5    1    3    3  502    0 -0.70269581437E+02  0.51273777246E+02  0.15552075783E+02  0.88465551316E+02  0.41800000000E+01 0.  1.
         -5    1    3    3    0  502  0.32243788606E+02 -0.23713820594E+02  0.38421802294E+02  0.55639145234E+02  0.41800000000E+01 0.  1.
        -11    1    1    2    0    0  0.16346382096E+02 -0.60042740271E+02  0.72766495540E+02  0.95746006393E+02  0.00000000000E+00 0.  1.
         11    1    1    2    0    0  0.21679410735E+02  0.32482783620E+02  0.25559648396E+02  0.46673586831E+02  0.00000000000E+00 0. -1.
</event>
<event>
 7    1  0.2420569E-009  0.1076613E+03  0.7561462E-02  0.1264963E+00
          1   -1    0    0  501    0  0.00000000000E+00  0.00000000000E+00  0.28554885835E+02  0.28554885835E+02  0.00000000000E+00 0. -1.
         -1   -1    0    0    0  501 -0.00000000000E+00 -0.00000000000E+00 -0.59981891870E+03  0.59981891870E+03  0.00000000000E+00 0.  1.
         25    2    1    2    0    0 -0.16056218150E+02  0.42397415805E+02 -0.45532812004E+03  0.47437008919E+03  0.12509173277E+03 0.  0.
          5    1    3    3  502    0  0.49242288973E+02  0.45973945890E+02 -0.22628733479E+03  0.23613944399E+03  0.41800000000E+01 0.  1.
         -5    1    3    3    0  502 -0.65298507122E+02 -0.35765300841E+01 -0.22904078526E+03  0.23823064520E+03  0.41800000000E+01 0.  1.
        -11    1    1    2    0    0  0.35955219991E+02 -0.55185529838E+00 -0.97875882550E+02  0.10427257920E+03  0.00000000000E+00 0.  1.
         11    1    1    2    0    0 -0.19899001841E+02 -0.41845560507E+02 -0.18060030268E+02  0.49731136139E+02  0.00000000000E+00 0. -1.
</event>
<event>
 7    1  0.2420569E-009  0.8704950E+02  0.7561462E-02  0.1310158E+00
         -1   -1    0    0    0  501 -0.00000000000E+00  0.00000000000E+00  0.61126384217E+02  0.61126384217E+02  0.00000000000E+00 0.  1.
          1   -1    0    0  501    0  0.00000000000E+00 -0.00000000000E+00 -0.24364674802E+03  0.24364674802E+03  0.00000000000E+00 0. -1.
         25    2    1    2    0    0  0.43157195213E+02 -0.29920805120E+02 -0.13299745795E+03  0.18998487185E+03  0.12509248432E+03 0.  0.
          5    1    3    3  502    0  0.38463121227E+02 -0.68901429747E+02 -0.39187136655E+02  0.88203870635E+02  0.41800000000E+01 0.  1.
         -5    1    3    3    0  502  0.46940739860E+01  0.38980624628E+02 -0.93810321300E+02  0.10178100122E+03  0.41800000000E+01 0.  1.
        -11    1    1    2    0    0 -0.23369259796E+02  0.52211220094E+01  0.24515362140E+02  0.34269306957E+02  0.00000000000E+00 0.  1.
         11    1    1    2    0    0 -0.19787935417E+02  0.24699683110E+02 -0.74038267994E+02  0.80518953430E+02  0.00000000000E+00 0. -1.
</event>
<event>
 7    1  0.2420569E-009  0.7872189E+02  0.7561462E-02  0.1332718E+00
          2   -1    0    0  501    0  0.00000000000E+00  0.00000000000E+00  0.44835642379E+02  0.44835642379E+02  0.00000000000E+00 0. -1.
         -2   -1    0    0    0  501 -0.00000000000E+00 -0.00000000000E+00 -0.29139701044E+03  0.29139701044E+03  0.00000000000E+00 0.  1.
         25    2    1    2    0    0  0.63822241408E+01 -0.36862955219E+02 -0.14146362572E+03  0.19250875433E+03  0.12509217737E+03 0.  0.
          5    1    3    3  502    0 -0.20293196620E+02 -0.42950559382E+01  0.17844226423E+02  0.27679417465E+02  0.41800000000E+01 0. -1.
         -5    1    3    3    0  502  0.26675420761E+02 -0.32567899281E+02 -0.15930785215E+03  0.16482933687E+03  0.41800000000E+01 0. -1.
        -11    1    1    2    0    0  0.38979009410E+02  0.27387614891E+02 -0.32759249158E+02  0.57815335590E+02  0.00000000000E+00 0.  1.
         11    1    1    2    0    0 -0.45361233550E+02  0.94753403283E+01 -0.72338493177E+02  0.85908562895E+02  0.00000000000E+00 0. -1.
</event>
<event>
 7    1  0.2420569E-009  0.1220034E+03  0.7561462E-02  0.1239828E+00
          2   -1    0    0  501    0  0.00000000000E+00  0.00000000000E+00  0.12985585356E+03  0.12985585356E+03  0.00000000000E+00 0. -1.
         -2   -1    0    0    0  501 -0.00000000000E+00 -0.00000000000E+00 -0.23433865530E+03  0.23433865530E+03  0.00000000000E+00 0.  1.
         25    2    1    2    0    0  0.27505762151E+02  0.55673072129E+02  0.71287947835E+02  0.15680120509E+03  0.12509431842E+03 0.  0.
          5    1    3    3  502    0 -0.38307082814E+02 -0.11367285562E+02  0.24327316554E+01  0.40249700099E+02  0.41800000000E+01 0. -1.
         -5    1    3    3    0  502  0.65812844965E+02  0.67040357691E+02  0.68855216180E+02  0.11655150500E+03  0.41800000000E+01 0. -1.
        -11    1    1    2    0    0 -0.58989244088E+02 -0.50970316098E+02 -0.13136755004E+03  0.15275842773E+03  0.00000000000E+00 0.  1.
         11    1    1    2    0    0  0.31483481937E+02 -0.47027560310E+01 -0.44403199541E+02  0.54634876028E+02  0.00000000000E+00 0. -1.
</event>
<event>
 7    1  0.2427092E-009  0.3771955E+03  0.7561462E-02  0.1051975E+00
         -2   -1    0    0    0  501 -0.00000000000E+00  0.00000000000E+00  0.15606186189E+03  0.15606186189E+03  0.00000000000E+00 0.  1.
          2   -1    0    0  501    0  0.00000000000E+00 -0.00000000000E+00 -0.10224915235E+04  0.10224915235E+04  0.00000000000E+00 0. -1.
         25    2    1    2    0    0  0.34309153854E+03 -0.13016982330E+03 -0.27077210709E+03  0.47288616167E+03  0.12509117158E+03 0.  0.
          5    1    3    3  502    0  0.64274552316E+02  0.78785719530E+01 -0.75409184771E+01  0.65327083380E+02  0.41800000000E+01 0. -1.
         -5    1    3    3    0  502  0.27881698623E+03 -0.13804839525E+03 -0.26323118861E+03  0.40755907829E+03  0.41800000000E+01 0. -1.
        -11    1    1    2    0    0 -0.93384630682E+02 -0.66444372903E+01 -0.14507195701E+03  0.17265778437E+03  0.00000000000E+00 0.  1.
         11    1    1    2    0    0 -0.24970690786E+03  0.13681426059E+03 -0.45058559749E+03  0.53300943931E+03  0.00000000000E+00 0. -1.
</event>
<event>
 7    1  0.2420569E-009  0.1055508E+03  0.7561462E-02  0.1269038E+00
          1   -1    0    0  501    0  0.00000000000E+00  0.00000000000E+00  0.10492499997E+03  0.10492499997E+03  0.00000000000E+00 0. -1.
         -1   -1    0    0    0  501 -0.00000000000E+00 -0.00000000000E+00 -0.16553644498E+03  0.16553644498E+03  0.00000000000E+00 0.  1.
         25    2    1    2    0    0  0.70856015053E+02 -0.19071944726E+02 -0.26913470330E+02  0.14749976008E+03  0.12509008911E+03 0.  0.
          5    1    3    3  502    0  0.80296124663E+02 -0.34116299759E+02  0.26322663172E+02  0.91223596408E+02  0.41800000000E+01 0. -1.
         -5    1    3    3    0  502 -0.94401096106E+01  0.15044355033E+02 -0.53236133501E+02  0.56276163675E+02  0.41800000000E+01 0. -1.
        -11    1    1    2    0    0  0.16430028248E+02  0.17392937808E+01  0.14301379854E+02  0.21851783379E+02  0.00000000000E+00 0.  1.
         11    1    1    2    0    0 -0.87286043301E+02  0.17332650945E+02 -0.47999354535E+02  0.10110990149E+03  0.00000000000E+00 0. -1.
</event>
<event>
 7    1  0.2420569E-009  0.9259210E+02  0.7561462E-02  0.1296693E+00
          2   -1    0    0  501    0  0.00000000000E+00  0.00000000000E+00  0.20076279101E+03  0.20076279101E+03  0.00000000000E+00 0. -1.
         -2   -1    0    0    0  501 -0.00000000000E+00 -0.00000000000E+00 -0.94467548507E+02  0.94467548507E+02  0.00000000000E+00 0.  1.
         25    2    1    2    0    0  0.35035998821E+02  0.74616105277E+02  0.88334282706E+02  0.17391637549E+03  0.12509546668E+03 0.  0.
          5    1    3    3  502    0 -0.13529164618E+02  0.35870968648E+02  0.10296762416E+03  0.10995257484E+03  0.41800000000E+01 0. -1.
         -5    1    3    3    0  502  0.48565163439E+02  0.38745136629E+02 -0.14633341458E+02  0.63963800657E+02  0.41800000000E+01 0. -1.
        -11    1    1    2    0    0 -0.26119348209E+02 -0.69088719996E+02  0.48942134174E+02  0.88604763298E+02  0.00000000000E+00 0. -1.
         11    1    1    2    0    0 -0.89166506116E+01 -0.55273852818E+01 -0.30981174379E+02  0.32709200725E+02  0.00000000000E+00 0.  1.
</event>
<event>
 7    1  0.2420569E-009  0.1801666E+03  0.7561462E-02  0.1167642E+00
         -1   -1    0    0    0  501 -0.00000000000E+00  0.00000000000E+00  0.63397190009E+02  0.63397190009E+02  0.00000000000E+00 0.  1.
          1   -1    0    0  501    0  0.00000000000E+00 -0.00000000000E+00 -0.15593426231E+04  0.15593426231E+04  0.00000000000E+00 0. -1.
         25    2    1    2    0    0  0.13605044689E+03 -0.55898493441E+02 -0.14225843838E+04  0.14356280274E+04  0.12508852177E+03 0.  0.
          5    1    3    3  502    0  0.13255721830E+02  0.35948036588E+02 -0.22801165113E+03  0.23124610472E+03  0.41800000000E+01 0.  1.
         -5    1    3    3    0  502  0.12279472506E+03 -0.91846530029E+02 -0.11945727327E+04  0.12043819227E+04  0.41800000000E+01 0.  1.
        -11    1    1    2    0    0 -0.13542508516E+03  0.25278022494E+02 -0.43834247137E+02  0.14456961414E+03  0.00000000000E+00 0.  1.
         11    1    1    2    0    0 -0.62536172627E+00  0.30620470947E+02 -0.29526802148E+02  0.42542171588E+02  0.00000000000E+00 0. -1.
</event>
<event>
 7    1  0.2420569E-009  0.1170170E+03  0.7561462E-02  0.1248101E+00
          2   -1    0    0  501    0  0.00000000000E+00  0.00000000000E+00  0.13446104862E+03  0.13446104862E+03  0.00000000000E+00 0. -1.
         -2   -1    0    0    0  501 -0.00000000000E+00 -0.00000000000E+00 -0.15209648729E+03  0.15209648729E+03  0.00000000000E+00 0.  1.
         25    2    1    2    0    0  0.14951136459E+02  0.53161100774E+02  0.65114450038E+02  0.15144496515E+03  0.12508415867E+03 0.  0.
          5    1    3    3  502    0  0.62518830592E+01  0.89869941037E+02  0.19796159293E+02  0.92331211768E+02  0.41800000000E+01 0.  1.
         -5    1    3    3    0  502  0.86992533998E+01 -0.36708840263E+02  0.45318290745E+02  0.59113753385E+02  0.41800000000E+01 0.  1.
        -11    1    1    2    0    0 -0.50913185166E+02 -0.47228460125E+02 -0.45660582392E+02  0.83111784086E+02  0.00000000000E+00 0. -1.
         11    1    1    2    0    0  0.35962048707E+02 -0.59326406484E+01 -0.37089306307E+02  0.52000786673E+02  0.00000000000E+00 0.  1.
</event>
<event>
 7    1  0.2420569E-009  0.1159719E+03  0.7561462E-02  0.1249894E+00
          4   -1    0    0  501    0  0.00000000000E+00  0.00000000000E+00  0.10191089129E+03  0.10191089129E+03  0.00000000000E+00 0. -1.
         -4   -1    0    0    0  501 -0.00000000000E+00 -0.00000000000E+00 -0.14985229849E+03  0.14985229849E+03  0.00000000000E+00 0.  1.
         25    2    1    2    0    0 -0.34024145590E+02 -0.45083694509E+02 -0.19891069602E+02  0.13869159250E+03  0.12509804629E+03 0.  0.
          5    1    3    3  502    0 -0.35541534856E+02  0.38910926344E+02 -0.33727700924E+01  0.52972718139E+02  0.41800000000E+01 0.  1.
         -5    1    3    3    0  502  0.15173892667E+01 -0.83994620853E+02 -0.16518299510E+02  0.85718874358E+02  0.41800000000E+01 0.  1.
        -11    1    1    2    0    0 -0.12598125335E+01  0.57535805735E+02  0.11434226594E+02  0.58674505597E+02  0.00000000000E+00 0. -1.
         11    1    1    2    0    0  0.35283958123E+02 -0.12452111226E+02 -0.39484564186E+02  0.54397091685E+02  0.00000000000E+00 0.  1.
</event>
<event>
 7    1  0.2420569E-009  0.1179167E+03  0.7561462E-02  0.1246574E+00
          2   -1    0    0  501    0  0.00000000000E+00  0.00000000000E+00  0.39998179641E+03  0.39998179641E+03  0.00000000000E+00 0. -1.
         -2   -1    0    0    0  501 -0.00000000000E+00 -0.00000000000E+00 -0.44651942212E+02  0.44651942212E+02  0.00000000000E+00 0.  1.
         25    2    1    2    0    0  0.67102720532E+02 -0.22441809964E+02  0.14078289883E+03  0.20117422454E+03  0.12507931116E+03 0.  0.
          5    1    3    3  502    0  0.10332526127E+03 -0.20510120501E+02  0.89930384451E+02  0.13857027498E+03  0.41800000000E+01 0. -1.
         -5    1    3    3    0  502 -0.36222540743E+02 -0.19316894637E+01  0.50852514375E+02  0.62603949558E+02  0.41800000000E+01 0. -1.
        -11    1    1    2    0    0 -0.43395699894E+02  0.44037666836E+02  0.61927406998E+02  0.87507180318E+02  0.00000000000E+00 0.  1.
         11    1    1    2    0    0 -0.23707020638E+02 -0.21595856872E+02  0.15261954837E+03  0.15595233377E+03  0.00000000000E+00 0. -1.
</event>
<event>
 7    1  0.2420569E-009  0.1313662E+03  0.7561462E-02  0.1225443E+00
          1   -1    0    0  501    0  0.00000000000E+00  0.00000000000E+00  0.14358539016E+03  0.14358539016E+03  0.00000000000E+00 0. -1.
         -1   -1    0    0    0  501 -0.00000000000E+00 -0.00000000000E+00 -0.23712806681E+03  0.23712806681E+03  0.00000000000E+00 0.  1.
         25    2    1    2    0    0 -0.65087923731E+02 -0.78022966956E+02 -0.16229820255E+03  0.22871698410E+03  0.12508689410E+03 0.  0.
          5    1    3    3  502    0  0.25923719782E+02 -0.57463139869E+02 -0.92946116741E+02  0.11238551823E+03  0.41800000000E+01 0. -1.
         -5    1    3    3    0  502 -0.91011643512E+02 -0.20559827087E+02 -0.69352085806E+02  0.11633146586E+03  0.41800000000E+01 0. -1.
        -11    1    1    2    0    0 -0.18766829572E+01  0.11896904613E+02  0.55696167722E+02  0.56983518470E+02  0.00000000000E+00 0. -1.
         11    1    1    2    0    0  0.66964606688E+02  0.66126062343E+02  0.13059358178E+02  0.95012954410E+02  0.00000000000E+00 0.  1.
</event>
<event>
 7    1  0.2420569E-009  0.8067998E+02  0.7561462E-02  0.1327133E+00
          2   -1    0    0  501    0  0.00000000000E+00  0.00000000000E+00  0.94815485950E+03  0.94815485950E+03  0.00000000000E+00 0. -1.
         -2   -1    0    0    0  501 -0.00000000000E+00 -0.00000000000E+00 -0.14555101105E+02  0.14555101105E+02  0.00000000000E+00 0.  1.
         25    2    1    2    0    0 -0.20282105774E+02  0.71555359124E+01  0.68040544166E+03  0.69214595772E+03  0.12510753871E+03 0.  0.
          5    1    3    3  502    0 -0.42473673661E+02  0.18876375409E+02  0.91706147771E+02  0.10289713525E+03  0.41800000000E+01 0.  1.
         -5    1    3    3    0  502  0.22191567887E+02 -0.11720839497E+02  0.58869929389E+03  0.58924882247E+03  0.41800000000E+01 0.  1.
        -11    1    1    2    0    0 -0.46324500789E+01  0.37676803395E+02  0.62793554107E+02  0.73375960267E+02  0.00000000000E+00 0.  1.
         11    1    1    2    0    0  0.24914555853E+02 -0.44832339307E+02  0.19040076263E+03  0.19718804262E+03  0.00000000000E+00 0. -1.
</event>
<event>
 7    1  0.2420569E-009  0.8378604E+02  0.7561462E-02  0.1318638E+00
         -1   -1    0    0    0  501 -0.00000000000E+00  0.00000000000E+00  0.87387660498E+02  0.87387660498E+02  0.00000000000E+00 0.  1.
          1   -1    0    0  501    0  0.00000000000E+00 -0.00000000000E+00 -0.14681328967E+03  0.14681328967E+03  0.00000000000E+00 0. -1.
         25    2    1    2    0    0 -0.23172369973E+02  0.33987538225E+02 -0.58945653254E+02  0.14428109375E+03  0.12510128893E+03 0.  0.
          5    1    3    3  502    0  0.30758289676E+02 -0.24904769561E+02 -0.49870751022E+02  0.63803480611E+02  0.41800000000E+01 0.  1.
         -5    1    3    3    0  502 -0.53930659649E+02  0.58892307786E+02 -0.90749022322E+01  0.80477613142E+02  0.41800000000E+01 0.  1.
        -11    1    1    2    0    0  0.12707252799E+02 -0.49003899247E+00 -0.37087921046E+02  0.39207503101E+02  0.00000000000E+00 0. -1.
         11    1    1    2    0    0  0.10465117174E+02 -0.33497499233E+02  0.36607945127E+02  0.50712353315E+02  0.00000000000E+00 0.  1.
</event>
<event>
 7    1  0.2420569E-009  0.2057473E+03  0.7561462E-02  0.1144979E+00
         -1   -1    0    0    0  501 -0.00000000000E+00  0.00000000000E+00  0.12031791789E+03  0.12031791789E+03  0.00000000000E+00 0.  1.
          1   -1    0    0  501    0  0.00000000000E+00 -0.00000000000E+00 -0.42663895304E+03  0.42663895304E+03  0.00000000000E+00 0. -1.
         25    2    1    2    0    0  0.43676007639E+02 -0.17052304137E+03 -0.27009020036E+03  0.34580650793E+03  0.12509086023E+03 0.  0.
          5    1    3    3  502    0 -0.13673589498E+01 -0.17003506964E+03 -0.22355042310E+03  0.28090222257E+03  0.41800000000E+01 0.  1.
         -5    1    3    3    0  502  0.45043366589E+02 -0.48797173333E+00 -0.46539777257E+02  0.64904285354E+02  0.41800000000E+01 0.  1.
        -11    1    1    2    0    0  0.96634021017E+00  0.14447275046E+03 -0.14927203007E+02  0.14524507162E+03  0.00000000000E+00 0. -1.
         11    1    1    2    0    0 -0.44642347850E+02  0.26050290908E+02 -0.21303631775E+02  0.55905291384E+02  0.00000000000E+00 0.  1.
</event>
<event>
 7    1  0.2470013E-009  0.2601939E+03  0.7561462E-02  0.1107027E+00
         -1   -1    0    0    0  501 -0.00000000000E+00  0.00000000000E+00  0.45533308166E+02  0.45533308166E+02  0.00000000000E+00 0.  1.
          1   -1    0    0  501    0  0.00000000000E+00 -0.00000000000E+00 -0.19514469019E+04  0.19514469019E+04  0.00000000000E+00 0. -1.
         25    2    1    2    0    0 -0.24668527836E+03 -0.62119812238E+02 -0.13411736708E+04  0.13708061790E+04  0.12510102886E+03 0.  0.
          5    1    3    3  502    0 -0.14950691270E+03 -0.50400885824E+02 -0.10871072235E+04  0.10985045079E+04  0.41800000000E+01 0.  1.
         -5    1    3    3    0  502 -0.97178365665E+02 -0.11718926413E+02 -0.25406644736E+03  0.27230167106E+03  0.41800000000E+01 0.  1.
        -11    1    1    2    0    0  0.10017649595E+03 -0.11119988901E+02 -0.15479094626E+03  0.18471389102E+03  0.00000000000E+00 0.  1.
         11    1    1    2    0    0  0.14650878241E+03  0.73239801139E+02 -0.40994897667E+03  0.44146014007E+03  0.00000000000E+00 0. -1.
</event>
<event>
 7    1  0.2420569E-009  0.1137547E+03  0.7561462E-02  0.1253771E+00
          1   -1    0    0  501    0  0.00000000000E+00  0.00000000000E+00  0.64838946988E+03  0.64838946988E+03  0.00000000000E+00 0. -1.
         -1   -1    0    0    0  501 -0.00000000000E+00 -0.00000000000E+00 -0.32169880267E+02  0.32169880267E+02  0.00000000000E+00 0.  1.
         25    2    1    2    0    0  0.27840131253E+02 -0.87646893654E+02  0.39526136620E+03  0.42465785141E+03  0.12508274174E+03 0.  0.
          5    1    3    3  502    0  0.37630351107E+02 -0.57051796392E+02  0.38446083639E+03  0.39051063739E+03  0.41800000000E+01 0. -1.
         -5    1    3    3    0  502 -0.97902198540E+01 -0.30595097262E+02  0.10800529807E+02  0.34147214021E+02  0.41800000000E+01 0. -1.
        -11    1    1    2    0    0  0.31784497838E+02  0.29848440197E+02  0.10095056370E+03  0.10996453972E+03  0.00000000000E+00 0. -1.
         11    1    1    2    0    0 -0.59624629092E+02  0.57798453457E+02  0.12000765972E+03  0.14593695902E+03  0.00000000000E+00 0.  1.
</event>
<event>
 7    1  0.2420569E-009  0.1033541E+03  0.7561462E-02  0.1273397E+00
          1   -1    0    0  501    0  0.00000000000E+00  0.00000000000E+00  0.26834585875E+03  0.26834585875E+03  0.00000000000E+00 0. -1.
         -1   -1    0    0    0  501 -0.00000000000E+00 -0.00000000000E+00 -0.99536374988E+02  0.99536374988E+02  0.00000000000E+00 0.  1.
         25    2    1    2    0    0  0.21813195080E+02  0.65986179828E+02 -0.13384368960E+02  0.14372528414E+03  0.12509126493E+03 0.  0.
          5    1    3    3  502    0  0.55717663440E+01 -0.16962942676E+02 -0.48689926624E+02  0.52028524475E+02  0.41800000000E+01 0.  1.
         -5    1    3    3    0  502  0.16241428736E+02  0.82949122504E+02  0.35305557664E+02  0.91696759667E+02  0.41800000000E+01 0.  1.
        -11    1    1    2    0    0 -0.34629356313E+02 -0.78519918682E+02  0.18686810548E+03  0.20563136627E+03  0.00000000000E+00 0. -1.
         11    1    1    2    0    0  0.12816161234E+02  0.12533738855E+02 -0.46742527623E+01  0.18525583320E+02  0.00000000000E+00 0.  1.
</event>
<event>
 7    1  0.2420569E-009  0.1082727E+03  0.7561462E-02  0.1263802E+00
         -2   -1    0    0    0  501 -0.00000000000E+00  0.00000000000E+00  0.78444674103E+02  0.78444674103E+02  0.00000000000E+00 0.  1.
          2   -1    0    0  501    0  0.00000000000E+00 -0.00000000000E+00 -0.15657570859E+03  0.15657570859E+03  0.00000000000E+00 0. -1.
         25    2    1    2    0    0  0.11161370762E+02 -0.15598255291E+02 -0.60620694016E+02  0.14032659012E+03  0.12509517012E+03 0.  0.
          5    1    3    3  502    0  0.61699711550E+02  0.16152479990E+02 -0.45964056664E+02  0.78726894516E+02  0.41800000000E+01 0. -1.
         -5    1    3    3    0  502 -0.50538340787E+02 -0.31750735281E+02 -0.14656637352E+02  0.61599695607E+02  0.41800000000E+01 0. -1.
        -11    1    1    2    0    0 -0.51290684465E+02  0.10398567350E+02 -0.63487065553E+01  0.52717839398E+02  0.00000000000E+00 0.  1.
         11    1    1    2    0    0  0.40129313703E+02  0.51996879405E+01 -0.11161633915E+02  0.41975953171E+02  0.00000000000E+00 0. -1.
</event>
<event>
 7    1  0.2420569E-009  0.1005841E+03  0.7561462E-02  0.1279073E+00
          4   -1    0    0  501    0  0.00000000000E+00  0.00000000000E+00  0.15991376806E+03  0.15991376806E+03  0.00000000000E+00 0. -1.
         -4   -1    0    0    0  501 -0.00000000000E+00 -0.00000000000E+00 -0.10541993660E+03  0.10541993660E+03  0.00000000000E+00 0.  1.
         25    2    1    2    0    0 -0.65794520284E+02  0.66009142272E+01 -0.26590108343E+02  0.14397340444E+03  0.12509522915E+03 0.  0.
          5    1    3    3  502    0 -0.39067704471E+02  0.53932193386E+02  0.22695948589E+02  0.70480816528E+02  0.41800000000E+01 0. -1.
         -5    1    3    3    0  502 -0.26726815813E+02 -0.47331279159E+02 -0.49286056932E+02  0.73492587914E+02  0.41800000000E+01 0. -1.
        -11    1    1    2    0    0  0.47195852393E+02  0.16743251702E+02  0.21061901260E+02  0.54326684469E+02  0.00000000000E+00 0.  1.
         11    1    1    2    0    0  0.18598667890E+02 -0.23344165930E+02  0.60022038542E+02  0.67033615753E+02  0.00000000000E+00 0. -1.
</event>
<event>
 7    1  0.2420569E-009  0.9175250E+02  0.7561462E-02  0.1298662E+00
         -1   -1    0    0    0  501 -0.00000000000E+00  0.00000000000E+00  0.49618828932E+02  0.49618828932E+02  0.00000000000E+00 0.  1.
          1   -1    0    0  501    0  0.00000000000E+00 -0.00000000000E+00 -0.39357878943E+03  0.39357878943E+03  0.00000000000E+00 0. -1.
         25    2    1    2    0    0 -0.72454714696E+01  0.84833733229E+02 -0.22307215118E+03  0.26955099583E+03  0.12508915050E+03 0.  0.
          5    1    3    3  502    0 -0.20217385104E+02  0.73591254905E+02 -0.41212603448E+02  0.86835283968E+02  0.41800000000E+01 0. -1.
         -5    1    3    3    0  502  0.12971913635E+02  0.11242478324E+02 -0.18185954773E+03  0.18271571186E+03  0.41800000000E+01 0. -1.
        -11    1    1    2    0    0  0.17600150904E+02 -0.47256731851E+02 -0.12467329692E+03  0.13448566831E+03  0.00000000000E+00 0. -1.
         11    1    1    2    0    0 -0.10354679435E+02 -0.37577001378E+02  0.37854875965E+01  0.39160954216E+02  0.00000000000E+00 0.  1.
</event>
<event>
 7    1  0.2420569E-009  0.9199106E+02  0.7561462E-02  0.1298100E+00
          2   -1    0    0  501    0  0.00000000000E+00  0.00000000000E+00  0.17232486491E+04  0.17232486491E+04  0.00000000000E+00 0. -1.
         -2   -1    0    0    0  501 -0.00000000000E+00 -0.00000000000E+00 -0.96205058818E+01  0.96205058818E+01  0.00000000000E+00 0.  1.
         25    2    1    2    0    0 -0.22774362593E+02  0.37180056793E+02  0.12868529480E+04  0.12936531978E+04  0.12508820173E+03 0.  0.
          5    1    3    3  502    0 -0.25914405021E+02 -0.13325100559E+02  0.72629139180E+02  0.78368226664E+02  0.41800000000E+01 0. -1.
         -5    1    3    3    0  502  0.31400424273E+01  0.50505157352E+02  0.12142238088E+04  0.12152849711E+04  0.41800000000E+01 0. -1.
        -11    1    1    2    0    0  0.28335808458E+02  0.27123869696E+02  0.16617593337E+03  0.17074268119E+03  0.00000000000E+00 0. -1.
         11    1    1    2    0    0 -0.55614458643E+01 -0.64303926489E+02  0.26059926188E+03  0.26847327601E+03  0.00000000000E+00 0.  1.
</event>
<event>
 7    1  0.2420569E-009  0.1350348E+03  0.7561462E-02  0.1220171E+00
         -1   -1    0    0    0  501 -0.00000000000E+00  0.00000000000E+00  0.11350822639E+04  0.11350822639E+04  0.00000000000E+00 0.  1.
          1   -1    0    0  501    0  0.00000000000E+00 -0.00000000000E+00 -0.19260064865E+02  0.19260064865E+02  0.00000000000E+00 0. -1.
         25    2    1    2    0    0 -0.94076058519E+02 -0.26122025538E+02  0.66488242316E+03  0.68355415961E+03  0.12507992441E+03 0.  0.
          5    1    3    3  502    0 -0.11160116208E+03 -0.37066969763E+02  0.37784620909E+03  0.39574487962E+03  0.41800000000E+01 0. -1.
         -5    1    3    3    0  502  0.17525103564E+02  0.10944944225E+02  0.28703621407E+03  0.28780927999E+03  0.41800000000E+01 0. -1.
        -11    1    1    2    0    0  0.91186251333E+02  0.52207280987E+02  0.39887739594E+03  0.41248479925E+03  0.00000000000E+00 0. -1.
         11    1    1    2    0    0  0.28898071862E+01 -0.26085255449E+02  0.52062379918E+02  0.58303369887E+02  0.00000000000E+00 0.  1.
</event>
<event>
 7    1  0.2420569E-009  0.1164169E+03  0.7561462E-02  0.1249128E+00
         -1   -1    0    0    0  501 -0.00000000000E+00  0.00000000000E+00  0.92238841145E+02  0.92238841145E+02  0.00000000000E+00 0.  1.
          1   -1    0    0  501    0  0.00000000000E+00 -0.00000000000E+00 -0.22287557120E+03  0.22287557120E+03  0.00000000000E+00 0. -1.
         25    2    1    2    0    0 -0.36925398369E+02 -0.59527311402E+02 -0.13986098120E+03  0.20028716098E+03  0.12508743720E+03 0.  0.
          5    1    3    3  502    0 -0.52611373605E+02  0.79787320169E+01 -0.11875483519E+02  0.54681955945E+02  0.41800000000E+01 0.  1.
         -5    1    3    3    0  502  0.15685975236E+02 -0.67506043419E+02 -0.12798549768E+03  0.14560520504E+03  0.41800000000E+01 0.  1.
        -11    1    1    2    0    0 -0.24460981130E+02  0.37570223664E+02  0.19388825464E+02  0.48844527399E+02  0.00000000000E+00 0. -1.
         11    1    1    2    0    0  0.61386379499E+02  0.21957087738E+02 -0.10164574314E+02  0.65982723958E+02  0.00000000000E+00 0.  1.
</event>
<event>
 7    1  0.2420569E-009  0.2068995E+03  0.7561462E-02  0.1144045E+00
          1   -1    0    0  501    0  0.00000000000E+00  0.00000000000E+00  0.75911384514E+03  0.75911384514E+03  0.00000000000E+00 0. -1.
         -1   -1    0    0    0  501 -0.00000000000E+00 -0.00000000000E+00 -0.69680097455E+02  0.69680097455E+02  0.00000000000E+00 0.  1.
         25    2    1    2    0    0  0.92179017846E+02  0.17312563028E+03  0.45353383959E+03  0.50971561787E+03  0.12509041633E+03 0.  0.
          5    1    3    3  502    0 -0.18350717726E+02  0.17120582958E+02  0.14128999555E+03  0.14356252451E+03  0.41800000000E+01 0.  1.
         -5    1    3    3    0  502  0.11052973557E+03  0.15600504732E+03  0.31224384405E+03  0.36615309336E+03  0.41800000000E+01 0.  1.
        -11    1    1    2    0    0 -0.22223686469E+02 -0.61410184897E+02  0.24100552852E+02  0.69612784006E+02  0.00000000000E+00 0.  1.
         11    1    1    2    0    0 -0.69955331378E+02 -0.11171544538E+03  0.21179935524E+03  0.24946554071E+03  0.00000000000E+00 0. -1.
</event>
<event>
 7    1  0.2420569E-009  0.1257758E+03  0.7561462E-02  0.1233862E+00
         -1   -1    0    0    0  501 -0.00000000000E+00  0.00000000000E+00  0.14349467656E+02  0.14349467656E+02  0.00000000000E+00 0.  1.
          1   -1    0    0  501    0  0.00000000000E+00 -0.00000000000E+00 -0.13615955791E+04  0.13615955791E+04  0.00000000000E+00 0. -1.
         25    2    1    2    0    0  0.74228848193E+02 -0.20700024292E+02 -0.86802411419E+03  0.88036991602E+03  0.12508762253E+03 0.  0.
          5    1    3    3  502    0 -0.15456850840E+02  0.36900227927E+02 -0.24477920847E+03  0.24806223888E+03  0.41800000000E+01 0. -1.
         -5    1    3    3    0  502  0.89685699033E+02 -0.57600252219E+02 -0.62324490572E+03  0.63230767714E+03  0.41800000000E+01 0. -1.
        -11    1    1    2    0    0  0.97961888011E+01 -0.11108918476E+02 -0.10099721391E+02  0.17927011935E+02  0.00000000000E+00 0.  1.
         11    1    1    2    0    0 -0.84025036995E+02  0.31808942768E+02 -0.46912227586E+03  0.47764811880E+03  0.00000000000E+00 0. -1.
</event>
<event>
 7    1  0.3201366E-009  0.8896435E+02  0.7561462E-02  0.1305379E+00
          2   -1    0    0  501    0  0.00000000000E+00  0.00000000000E+00  0.71404994196E+03  0.71404994196E+03  0.00000000000E+00 0. -1.
         -2   -1    0    0    0  501 -0.00000000000E+00 -0.00000000000E+00 -0.18938189866E+02  0.18938189866E+02  0.00000000000E+00 0.  1.
         25    2    1    2    0    0  0.20435190971E+02 -0.15037173248E+02  0.50217143357E+03  0.51813823468E+03  0.12508943976E+03 0.  0.
          5    1    3    3  502    0  0.41993656806E+02  0.18052340454E+02  0.67330390164E+02  0.81487471721E+02  0.41800000000E+01 0. -1.
         -5    1    3    3    0  502 -0.21558465835E+02 -0.33089513702E+02  0.43484104340E+03  0.43665076296E+03  0.41800000000E+01 0. -1.
        -11    1    1    2    0    0 -0.22369469944E+02 -0.35381239451E+02  0.64917019147E+02  0.77242764488E+02  0.00000000000E+00 0. -1.
         11    1    1    2    0    0  0.19342789737E+01  0.50418412699E+02  0.12802329938E+03  0.13760713266E+03  0.00000000000E+00 0.  1.
</event>
<event>
 7    1  0.2420569E-009  0.1533994E+03  0.7561462E-02  0.1196357E+00
          2   -1    0    0  501    0  0.00000000000E+00  0.00000000000E+00  0.10583422951E+04  0.10583422951E+04  0.00000000000E+00 0. -1.
         -2   -1    0    0    0  501 -0.00000000000E+00 -0.00000000000E+00 -0.30084825339E+02  0.30084825339E+02  0.00000000000E+00 0.  1.
         25    2    1    2    0    0  0.12549690331E+03  0.87970459991E+01  0.34970877454E+03  0.39213647710E+03  0.12509168206E+03 0.  0.
          5    1    3    3  502    0  0.14065616685E+03  0.27081649051E+01  0.34776035025E+03  0.37516159857E+03  0.41800000000E+01 0.  1.
         -5    1    3    3    0  502 -0.15159263538E+02  0.60888810940E+01  0.19484242896E+01  0.16974878533E+02  0.41800000000E+01 0.  1.
        -11    1    1    2    0    0 -0.56841901426E+02 -0.44145616537E+02  0.22546057780E+03  0.23666919817E+03  0.00000000000E+00 0.  1.
         11    1    1    2    0    0 -0.68655001883E+02  0.35348570538E+02  0.45308811743E+03  0.45962144519E+03  0.00000000000E+00 0. -1.
</event>
<event>
 7    1  0.2420569E-009  0.1084264E+03  0.7561462E-02  0.1263512E+00
          2   -1    0    0  501    0  0.00000000000E+00  0.00000000000E+00  0.53219543000E+03  0.53219543000E+03  0.00000000000E+00 0. -1.
         -2   -1    0    0    0  501 -0.00000000000E+00 -0.00000000000E+00 -0.40420954989E+02  0.40420954989E+02  0.00000000000E+00 0.  1.
         25    2    1    2    0    0  0.83031253793E+02 -0.10107473971E+02  0.35505888991E+03  0.38562892796E+03  0.12508598897E+03 0.  0.
          5    1    3    3  502    0  0.26447882815E+02  0.37699988156E+02  0.26471847916E+03  0.26872685988E+03  0.41800000000E+01 0.  1.
         -5    1    3    3    0  502  0.56583370979E+02 -0.47807462127E+02  0.90340410749E+02  0.11690206808E+03  0.41800000000E+01 0.  1.
        -11    1    1    2    0    0 -0.48937808037E+02 -0.18090352406E+02  0.13266874624E+03  0.14255934250E+03  0.00000000000E+00 0.  1.
         11    1    1    2    0    0 -0.34093445756E+02  0.28197826377E+02  0.40468388623E+01  0.44428114530E+02  0.00000000000E+00 0. -1.
</event>
<event>
 7    1  0.2420569E-009  0.1052367E+03  0.7561462E-02  0.1269654E+00
          1   -1    0    0  501    0  0.00000000000E+00  0.00000000000E+00  0.44290906655E+03  0.44290906655E+03  0.00000000000E+00 0. -1.
         -1   -1    0    0    0  501 -0.00000000000E+00 -0.00000000000E+00 -0.43245543693E+02  0.43245543693E+02  0.00000000000E+00 0.  1.
         25    2    1    2    0    0  0.32927267589E+02 -0.44959869948E+02  0.29561079155E+03  0.32578884986E+03  0.12508812796E+03 0.  0.
          5    1    3    3  502    0  0.66041536627E+02  0.75772925340E+01  0.20737195246E+03  0.21780610411E+03  0.41800000000E+01 0. -1.
         -5    1    3    3    0  502 -0.33114269038E+02 -0.52537162483E+02  0.88238839092E+02  0.10798274575E+03  0.41800000000E+01 0. -1.
        -11    1    1    2    0    0 -0.15361379399E+02 -0.13581479022E+02 -0.15761766472E+02  0.25862363228E+02  0.00000000000E+00 0.  1.
         11    1    1    2    0    0 -0.17565888190E+02  0.58541348971E+02  0.11981449778E+03  0.13450339715E+03  0.00000000000E+00 0. -1.
</event>
<event>
 7    1  0.2420569E-009  0.2123281E+03  0.7561462E-02  0.1139736E+00
         -1   -1    0    0    0  501 -0.00000000000E+00  0.00000000000E+00  0.16670189628E+03  0.16670189628E+03  0.00000000000E+00 0.  1.
          1   -1    0    0  501    0  0.00000000000E+00 -0.00000000000E+00 -0.35832696928E+03  0.35832696928E+03  0.00000000000E+00 0. -1.
         25    2    1    2    0    0 -0.17127789791E+03  0.68931316877E+02  0.21588157955E+02  0.22405690337E+03  0.12509117725E+03 0.  0.
          5    1    3    3  502    0 -0.18603700328E+03  0.74636697012E+02  0.34206370282E+02  0.20339112886E+03  0.41800000000E+01 0. -1.
         -5    1    3    3    0  502  0.14759105372E+02 -0.57053801348E+01 -0.12618212328E+02  0.20665774513E+02  0.41800000000E+01 0. -1.
        -11    1    1    2    0    0  0.32185396408E+02 -0.60402112190E+02 -0.42342894651E+02  0.80481275004E+02  0.00000000000E+00 0.  1.
         11    1    1    2    0    0  0.13909250150E+03 -0.85292046873E+01 -0.17087033630E+03  0.22049068718E+03  0.00000000000E+00 0. -1.
</event>
<event>
 7    1  0.2420569E-009  0.8809447E+02  0.7561462E-02  0.1307533E+00
          1   -1    0    0  501    0  0.00000000000E+00  0.00000000000E+00  0.60100530084E+02  0.60100530084E+02  0.00000000000E+00 0. -1.
         -1   -1    0    0    0  501 -0.00000000000E+00 -0.00000000000E+00 -0.26830971175E+03  0.26830971175E+03  0.00000000000E+00 0.  1.
         25    2    1    2    0    0  0.14788930005E+02  0.55830292061E+01 -0.36552385073E+02  0.13126447978E+03  0.12507759244E+03 0.  0.
          5    1    3    3  502    0 -0.37081877262E+02  0.15810382197E+02 -0.60704063502E+02  0.72989653597E+02  0.41800000000E+01 0.  1.
         -5    1    3    3    0  502  0.51870807267E+02 -0.10227352991E+02  0.24151678429E+02  0.58274826183E+02  0.41800000000E+01 0.  1.
        -11    1    1    2    0    0 -0.13388977212E+02  0.37346657384E+02 -0.31811492235E+02  0.50852812772E+02  0.00000000000E+00 0. -1.
         11    1    1    2    0    0 -0.13999527927E+01 -0.42929686591E+02 -0.13984530435E+03  0.14629294928E+03  0.00000000000E+00 0.  1.
</event>
<event>
 7    1  0.2420569E-009  0.1110273E+03  0.7561462E-02  0.1258679E+00
         -2   -1    0    0    0  501 -0.00000000000E+00  0.00000000000E+00  0.29859226257E+03  0.29859226257E+03  0.00000000000E+00 0.  1.
          2   -1    0    0  501    0  0.00000000000E+00 -0.00000000000E+00 -0.85039297534E+02  0.85039297534E+02  0.00000000000E+00 0. -1.
         25    2    1    2    0    0  0.46216360808E+02 -0.11242678979E+02  0.17812703319E+03  0.22279850749E+03  0.12509030797E+03 0.  0.
          5    1    3    3  502    0 -0.36488282911E+02 -0.24073724579E+02  0.95511871696E+02  0.10512339911E+03  0.41800000000E+01 0. -1.
         -5    1    3    3    0  502  0.82704643719E+02  0.12831045601E+02  0.82615161491E+02  0.11767510838E+03  0.41800000000E+01 0. -1.
        -11    1    1    2    0    0 -0.47972229018E+02 -0.27676755079E+02  0.82726324271E+02  0.99553916327E+02  0.00000000000E+00 0.  1.
         11    1    1    2    0    0  0.17558682099E+01  0.38919434058E+02 -0.47300392426E+02  0.61279136288E+02  0.00000000000E+00 0. -1.
</event>
<event>
 7    1  0.2420569E-009  0.2072605E+03  0.7561462E-02  0.1143754E+00
          2   -1    0    0  501    0  0.00000000000E+00  0.00000000000E+00  0.16010682004E+03  0.16010682004E+03  0.00000000000E+00 0. -1.
         -2   -1    0    0    0  501 -0.00000000000E+00 -0.00000000000E+00 -0.30298675047E+03  0.30298675047E+03  0.00000000000E+00 0.  1.
         25    2    1    2    0    0 -0.90738658845E+02 -0.16576693276E+03 -0.88092752726E+02  0.24314221659E+03  0.12508246959E+03 0.  0.
          5    1    3    3  502    0 -0.10225079585E+03 -0.14698365089E+03 -0.11130431625E+03  0.21086854222E+03  0.41800000000E+01 0. -1.
         -5    1    3    3    0  502  0.11512137009E+02 -0.18783281873E+02  0.23211563523E+02  0.32273674374E+02  0.41800000000E+01 0. -1.
        -11    1    1    2    0    0  0.44397875317E+02  0.16030031529E+03 -0.41489175360E+02  0.17143136844E+03  0.00000000000E+00 0.  1.
         11    1    1    2    0    0  0.46340783528E+02  0.54666174719E+01 -0.13298002342E+02  0.48519985478E+02  0.00000000000E+00 0. -1.
</event>
<event>
 7    1  0.2420569E-009  0.1553603E+03  0.7561462E-02  0.1194037E+00
         -2   -1    0    0    0  501 -0.00000000000E+00  0.00000000000E+00  0.79656352747E+02  0.79656352747E+02  0.00000000000E+00 0.  1.
          2   -1    0    0  501    0  0.00000000000E+00 -0.00000000000E+00 -0.41199064741E+03  0.41199064741E+03  0.00000000000E+00 0. -1.
         25    2    1    2    0    0  0.13490869905E+03  0.72896929478E+01 -0.10649669153E+03  0.21270267107E+03  0.12508950504E+03 0.  0.
          5    1    3    3  502    0  0.40856330325E+02  0.32992735042E+02 -0.10224584038E+03  0.11501932258E+03  0.41800000000E+01 0. -1.
         -5    1    3    3    0  502  0.94052368730E+02 -0.25703042094E+02 -0.42508511496E+01  0.97683348489E+02  0.41800000000E+01 0. -1.
        -11    1    1    2    0    0 -0.58618879832E+02  0.39747758051E+02 -0.72617889900E+02  0.10143675506E+03  0.00000000000E+00 0.  1.
         11    1    1    2    0    0 -0.76289819222E+02 -0.47037450999E+02 -0.15321971324E+03  0.17750757403E+03  0.00000000000E+00 0. -1.
</event>
<event>
 7    1  0.2829896E-009  0.2041878E+03  0.7561462E-02  0.1146253E+00
          2   -1    0    0  501    0  0.00000000000E+00  0.00000000000E+00  0.86044837842E+03  0.86044837842E+03  0.00000000000E+00 0. -1.
         -2   -1    0    0    0  501 -0.00000000000E+00 -0.00000000000E+00 -0.54988407909E+02  0.54988407909E+02  0.00000000000E+00 0.  1.
         25    2    1    2    0    0  0.18800264488E+03 -0.24847940401E+01  0.43485990755E+03  0.49000122875E+03  0.12508755453E+03 0.  0.
          5    1    3    3  502    0 -0.20807667507E+01  0.16904590420E+02  0.30666916259E+01  0.17803700881E+02  0.41800000000E+01 0.  1.
         -5    1    3    3    0  502  0.19008341163E+03 -0.19389384460E+02  0.43179321593E+03  0.47219752787E+03  0.41800000000E+01 0.  1.
        -11    1    1    2    0    0 -0.72784277305E+02  0.33909422964E+02  0.90781762503E+02  0.12119706429E+03  0.00000000000E+00 0.  1.
         11    1    1    2    0    0 -0.11521836758E+03 -0.31424628924E+02  0.27981830045E+03  0.30423849329E+03  0.00000000000E+00 0. -1.
</event>
<event>
 7    1  0.2420569E-009  0.1487323E+03  0.7561462E-02  0.1202039E+00
         -1   -1    0    0    0  501 -0.00000000000E+00  0.00000000000E+00  0.73152002744E+03  0.73152002744E+03  0.00000000000E+00 0.  1.
          1   -1    0    0  501    0  0.00000000000E+00 -0.00000000000E+00 -0.49539239278E+02  0.49539239278E+02  0.00000000000E+00 0. -1.
         25    2    1    2    0    0  0.20712807222E+02  0.10324398353E+03  0.59382587032E+03  0.61592635865E+03  0.12509106482E+03 0.  0.
          5    1    3    3  502    0  0.68027105830E+02  0.38662553374E+02  0.21825910000E+03  0.23189865738E+03  0.41800000000E+01 0. -1.
         -5    1    3    3    0  502 -0.47314298608E+02  0.64581430158E+02  0.37556677032E+03  0.38402770127E+03  0.41800000000E+01 0. -1.
        -11    1    1    2    0    0 -0.55159890514E+02 -0.44637026366E+02  0.53237107573E+02  0.88708890575E+02  0.00000000000E+00 0. -1.
         11    1    1    2    0    0  0.34447083292E+02 -0.58606957166E+02  0.34917810261E+02  0.76424017488E+02  0.00000000000E+00 0.  1.
</event>
<event>
 7    1  0.2420569E-009  0.9769114E+02  0.7561462E-02  0.1285227E+00
          1   -1    0    0  501    0  0.00000000000E+00  0.00000000000E+00  0.49684956193E+03  0.49684956193E+03  0.00000000000E+00 0. -1.
         -1   -1    0    0    0  501 -0.00000000000E+00 -0.00000000000E+00 -0.31567106290E+02  0.31567106290E+02  0.00000000000E+00 0.  1.
         25    2    1    2    0    0 -0.36597511027E+02  0.28731773628E+02  0.17567414830E+03  0.22061879149E+03  0.12508537943E+03 0.  0.
          5    1    3    3  502    0 -0.59255865216E+02  0.32678816578E+02  0.31849449203E+02  0.74906758239E+02  0.41800000000E+01 0. -1.
         -5    1    3    3    0  502  0.22658354189E+02 -0.39470429506E+01  0.14382469910E+03  0.14571203325E+03  0.41800000000E+01 0. -1.
        -11    1    1    2    0    0 -0.14291509315E+02 -0.47779018940E+02  0.13459957136E+03  0.14354137556E+03  0.00000000000E+00 0.  1.
         11    1    1    2    0    0  0.50889020341E+02  0.19047245312E+02  0.15500873598E+03  0.16425650117E+03  0.00000000000E+00 0. -1.
</event>
<event>
 7    1  0.2420569E-009  0.1056387E+03  0.7561462E-02  0.1268866E+00
          4   -1    0    0  501    0  0.00000000000E+00  0.00000000000E+00  0.47966183659E+03  0.47966183659E+03  0.00000000000E+00 0. -1.
         -4   -1    0    0    0  501 -0.00000000000E+00 -0.00000000000E+00 -0.32217092813E+02  0.32217092813E+02  0.00000000000E+00 0.  1.
         25    2    1    2    0    0 -0.38739603297E+02  0.43798537628E+02  0.28130139270E+03  0.31336420293E+03  0.12509029290E+03 0.  0.
          5    1    3    3  502    0 -0.83346553669E+02  0.41526181968E+02  0.19164048771E+03  0.21310706401E+03  0.41800000000E+01 0. -1.
         -5    1    3    3    0  502  0.44606950372E+02  0.22723556600E+01  0.89660904988E+02  0.10025713892E+03  0.41800000000E+01 0. -1.
        -11    1    1    2    0    0  0.21359423824E+01 -0.35639072542E+02  0.88104326055E+01  0.36774032471E+02  0.00000000000E+00 0.  1.
         11    1    1    2    0    0  0.36603660915E+02 -0.81594650862E+01  0.15733291847E+03  0.16174069400E+03  0.00000000000E+00 0. -1.
</event>
<event>
 7    1  0.2420569E-009  0.1308413E+03  0.7561462E-02  0.1226213E+00
          2   -1    0    0  501    0  0.00000000000E+00  0.00000000000E+00  0.72542280776E+03  0.72542280776E+03  0.00000000000E+00 0. -1.
         -2   -1    0    0    0  501 -0.00000000000E+00 -0.00000000000E+00 -0.29430620202E+02  0.29430620202E+02  0.00000000000E+00 0.  1.
         25    2    1    2    0    0  0.44800727319E+02 -0.54326501478E+02  0.20850967162E+03  0.25314477502E+03  0.12509004768E+03 0.  0.
          5    1    3    3  502    0 -0.26296952303E+02  0.25126001753E+02  0.59775615489E+02  0.70095950465E+02  0.41800000000E+01 0.  1.
         -5    1    3    3    0  502  0.71097679622E+02 -0.79452503231E+02  0.14873405613E+03  0.18304882455E+03  0.41800000000E+01 0.  1.
        -11    1    1    2    0    0 -0.32760882873E+02 -0.23054297087E+02  0.18089096124E+03  0.18527362446E+03  0.00000000000E+00 0. -1.
         11    1    1    2    0    0 -0.12039844446E+02  0.77380798565E+02  0.30659155470E+03  0.31643502849E+03  0.00000000000E+00 0.  1.
</event>
<event>
 7    1  0.2420569E-009  0.1305138E+03  0.7561462E-02  0.1226695E+00
         -2   -1    0    0    0  501 -0.00000000000E+00  0.00000000000E+00  0.10301983235E+02  0.10301983235E+02  0.00000000000E+00 0.  1.
          2   -1    0    0  501    0  0.00000000000E+00 -0.00000000000E+00 -0.17177164184E+04  0.17177164184E+04  0.00000000000E+00 0. -1.
         25    2    1    2    0    0 -0.60734608495E+00 -0.73072787060E+02 -0.10796289843E+04  0.10893053655E+04  0.12508970579E+03 0.  0.
          5    1    3    3  502    0 -0.39062810346E+02  0.18997547547E+02 -0.26350042024E+03  0.26708941168E+03  0.41800000000E+01 0. -1.
         -5    1    3    3    0  502  0.38455464261E+02 -0.92070334607E+02 -0.81612856410E+03  0.82221595386E+03  0.41800000000E+01 0. -1.
        -11    1    1    2    0    0  0.45045080634E+02  0.23005520669E+02 -0.28450797163E+03  0.28896902809E+03  0.00000000000E+00 0.  1.
         11    1    1    2    0    0 -0.44437734549E+02  0.50067266391E+02 -0.34327747916E+03  0.34974400798E+03  0.00000000000E+00 0. -1.
</event>
<event>
 7    1  0.2420569E-009  0.1269798E+03  0.7561462E-02  0.1232007E+00
         -1   -1    0    0    0  501 -0.00000000000E+00  0.00000000000E+00  0.20101469826E+03  0.20101469826E+03  0.00000000000E+00 0.  1.
          1   -1    0    0  501    0  0.00000000000E+00 -0.00000000000E+00 -0.12591218957E+03  0.12591218957E+03  0.00000000000E+00 0. -1.
         25    2    1    2    0    0 -0.86554085430E+02 -0.10098936952E+02  0.11971422685E+03  0.19383229903E+03  0.12508343536E+03 0.  0.
          5    1    3    3  502    0  0.38562839899E+01 -0.34436079918E+02 -0.76206717656E+01  0.35724803211E+02  0.41800000000E+01 0. -1.
         -5    1    3    3    0  502 -0.90410369420E+02  0.24337142966E+02  0.12733489862E+03  0.15810749581E+03  0.41800000000E+01 0. -1.
        -11    1    1    2    0    0  0.86387253484E+02 -0.25237571503E+02 -0.30171503350E+02  0.94921084035E+02  0.00000000000E+00 0.  1.
         11    1    1    2    0    0  0.16683194562E+00  0.35336508455E+02 -0.14440214814E+02  0.38173504772E+02  0.00000000000E+00 0. -1.
</event>
<event>
 7    1  0.2420569E-009  0.2407515E+03  0.7561462E-02  0.1119293E+00
          2   -1    0    0  501    0  0.00000000000E+00  0.00000000000E+00  0.47377658494E+03  0.47377658494E+03  0.00000000000E+00 0. -1.
         -2   -1    0    0    0  501 -0.00000000000E+00 -0.00000000000E+00 -0.12545930152E+03  0.12545930152E+03  0.00000000000E+00 0.  1.
         25    2    1    2    0    0 -0.17545762800E+03  0.10439580631E+03  0.13617111747E+03  0.27545234121E+03  0.12509018924E+03 0.  0.
          5    1    3    3  502    0 -0.19490111883E+03  0.89084050846E+02  0.12242038842E+03  0.24683321927E+03  0.41800000000E+01 0. -1.
         -5    1    3    3    0  502  0.19443490826E+02  0.15311755465E+02  0.13750729046E+02  0.28619121933E+02  0.41800000000E+01 0. -1.
        -11    1    1    2    0    0  0.16148897516E+03 -0.27377768541E+02  0.16454844951E+03  0.23217326191E+03  0.00000000000E+00 0.  1.
         11    1    1    2    0    0  0.13968652844E+02 -0.77018037770E+02  0.47597716433E+02  0.91610283342E+02  0.00000000000E+00 0. -1.
</event>
<event>
 7    1  0.2420569E-009  0.1476267E+03  0.7561462E-02  0.1203420E+00
         -4   -1    0    0    0  501 -0.00000000000E+00  0.00000000000E+00  0.31264176226E+03  0.31264176226E+03  0.00000000000E+00 0.  1.
          4   -1    0    0  501    0  0.00000000000E+00 -0.00000000000E+00 -0.78481372910E+02  0.78481372910E+02  0.00000000000E+00 0. -1.
         25    2    1    2    0    0 -0.20888922625E+02  0.10329547529E+03  0.17556421109E+03  0.23995265787E+03  0.12509269962E+03 0.  0.
          5    1    3    3  502    0 -0.55747055518E+02  0.11080579023E+03  0.15504552168E+03  0.19860071384E+03  0.41800000000E+01 0.  1.
         -5    1    3    3    0  502  0.34858132893E+02 -0.75103149433E+01  0.20518689417E+02  0.41351944026E+02  0.41800000000E+01 0.  1.
        -11    1    1    2    0    0 -0.14374678500E+02 -0.98628785713E+02  0.58557271589E+02  0.11559940661E+03  0.00000000000E+00 0. -1.
         11    1    1    2    0    0  0.35263601125E+02 -0.46666895758E+01  0.38906666062E-01  0.35571070685E+02  0.00000000000E+00 0.  1.
</event>
<event>
 7    1  0.2420569E-009  0.1586811E+03  0.7561462E-02  0.1190194E+00
         -1   -1    0    0    0  501 -0.00000000000E+00  0.00000000000E+00  0.15104228210E+03  0.15104228210E+03  0.00000000000E+00 0.  1.
          1   -1    0    0  501    0  0.00000000000E+00 -0.00000000000E+00 -0.18613890214E+03  0.18613890214E+03  0.00000000000E+00 0. -1.
         25    2    1    2    0    0 -0.91414396255E+02  0.85862266484E+02 -0.43129154418E+02  0.18230848816E+03  0.12508932907E+03 0.  0.
          5    1    3    3  502    0 -0.98471716483E+02  0.11188369855E+03 -0.30267920788E+02  0.15214552368E+03  0.41800000000E+01 0.  1.
         -5    1    3    3    0  502  0.70573202281E+01 -0.26021432065E+02 -0.12861233631E+02  0.30162964477E+02  0.41800000000E+01 0.  1.
        -11    1    1    2    0    0  0.97400122998E+02 -0.59931418024E+02  0.32322597088E+02  0.11884152940E+03  0.00000000000E+00 0.  1.
         11    1    1    2    0    0 -0.59857267434E+01 -0.25930848460E+02 -0.24290062713E+02  0.36031166691E+02  0.00000000000E+00 0. -1.
</event>
<event>
 7    1  0.2420569E-009  0.1123966E+03  0.7561462E-02  0.1256195E+00
         -1   -1    0    0    0  501 -0.00000000000E+00  0.00000000000E+00  0.20728715364E+03  0.20728715364E+03  0.00000000000E+00 0.  1.
          1   -1    0    0  501    0  0.00000000000E+00 -0.00000000000E+00 -0.85022409933E+02  0.85022409933E+02  0.00000000000E+00 0. -1.
         25    2    1    2    0    0  0.71890725681E+02  0.29450025818E+02  0.63591430463E+02  0.16039297778E+03  0.12508579788E+03 0.  0.
          5    1    3    3  502    0 -0.22908065497E+02  0.16404742306E+02  0.57796428381E+02  0.64434420681E+02  0.41800000000E+01 0.  1.
         -5    1    3    3    0  502  0.94798791178E+02  0.13045283512E+02  0.57950020817E+01  0.95958557095E+02  0.41800000000E+01 0.  1.
        -11    1    1    2    0    0 -0.53396262737E+02  0.12359305099E+02 -0.32976341125E+01  0.54907082308E+02  0.00000000000E+00 0. -1.
         11    1    1    2    0    0 -0.18494462944E+02 -0.41809330917E+02  0.61970947358E+02  0.77009503490E+02  0.00000000000E+00 0.  1.
</event>
<event>
 7    1  0.2420569E-009  0.8602303E+02  0.7561462E-02  0.1312779E+00
          1   -1    0    0  501    0  0.00000000000E+00  0.00000000000E+00  0.13845173174E+03  0.13845173174E+03  0.00000000000E+00 0. -1.
         -1   -1    0    0    0  501 -0.00000000000E+00 -0.00000000000E+00 -0.18585138097E+03  0.18585138097E+03  0.00000000000E+00 0.  1.
         25    2    1    2    0    0 -0.61285607769E+02  0.29452184595E+02  0.71673970309E+02  0.15939983152E+03  0.12509113226E+03 0.  0.
          5    1    3    3  502    0 -0.15624278723E+02  0.38792738318E+02 -0.27164606348E+02  0.50043809506E+02  0.41800000000E+01 0.  1.
         -5    1    3    3    0  502 -0.45661329046E+02 -0.93405537224E+01  0.98838576658E+02  0.10935602201E+03  0.41800000000E+01 0.  1.
        -11    1    1    2    0    0  0.16989465380E+02  0.13364334194E+02  0.85047770900E+01  0.23228831131E+02  0.00000000000E+00 0. -1.
         11    1    1    2    0    0  0.44296142389E+02 -0.42816518790E+02 -0.12757839664E+03  0.14167445006E+03  0.00000000000E+00 0.  1.
</event>
<event>
 7    1  0.2420569E-009  0.1548583E+03  0.7561462E-02  0.1194627E+00
          1   -1    0    0  501    0  0.00000000000E+00  0.00000000000E+00  0.11581926922E+04  0.11581926922E+04  0.00000000000E+00 0. -1.
         -1   -1    0    0    0  501 -0.00000000000E+00 -0.00000000000E+00 -0.33561356540E+02  0.33561356540E+02  0.00000000000E+00 0.  1.
         25    2    1    2    0    0 -0.51748643955E+02 -0.13786389219E+03  0.80983572381E+03  0.83256575048E+03  0.12508978528E+03 0.  0.
          5    1    3    3  502    0 -0.15762370414E+02 -0.43578277421E+02  0.59850517380E+02  0.75809467843E+02  0.41800000000E+01 0. -1.
         -5    1    3    3    0  502 -0.35986273541E+02 -0.94285614767E+02  0.74998520643E+03  0.75675628263E+03  0.41800000000E+01 0. -1.
        -11    1    1    2    0    0  0.23190298733E+02  0.13069509106E+03  0.19543453032E+03  0.23624913211E+03  0.00000000000E+00 0.  1.
         11    1    1    2    0    0  0.28558345221E+02  0.71688011303E+01  0.11936108154E+03  0.12293916617E+03  0.00000000000E+00 0. -1.
</event>
<event>
 7    1  0.2656765E-009  0.1088991E+03  0.7561462E-02  0.1262622E+00
          2   -1    0    0  501    0  0.00000000000E+00  0.00000000000E+00  0.69802365181E+03  0.69802365181E+03  0.00000000000E+00 0. -1.
         -2   -1    0    0    0  501 -0.00000000000E+00 -0.00000000000E+00 -0.19619981667E+02  0.19619981667E+02  0.00000000000E+00 0.  1.
         25    2    1    2    0    0  0.30867801414E+02  0.24812825027E+02  0.44032912672E+03  0.45946196427E+03  0.12508820616E+03 0.  0.
          5    1    3    3  502    0 -0.43577033581E+02  0.38975399096E+01  0.83869166657E+02  0.94687159578E+02  0.41800000000E+01 0. -1.
         -5    1    3    3    0  502  0.74444834995E+02  0.20915285118E+02  0.35645996007E+03  0.36477480470E+03  0.41800000000E+01 0. -1.
        -11    1    1    2    0    0  0.17939962582E+02  0.22266591150E+02  0.42851319938E+02  0.51515812711E+02  0.00000000000E+00 0.  1.
         11    1    1    2    0    0 -0.48807763996E+02 -0.47079416177E+02  0.19522322348E+03  0.20666585649E+03  0.00000000000E+00 0. -1.
</event>
<event>
 7    1  0.2420569E-009  0.8594553E+02  0.7561462E-02  0.1312978E+00
          2   -1    0    0  501    0  0.00000000000E+00  0.00000000000E+00  0.72311820957E+02  0.72311820957E+02  0.00000000000E+00 0. -1.
         -2   -1    0    0    0  501 -0.00000000000E+00 -0.00000000000E+00 -0.19133326376E+03  0.19133326376E+03  0.00000000000E+00 0.  1.
         25    2    1    2    0    0 -0.23904274055E+02  0.29198481427E+02 -0.98782764587E+02  0.16379920737E+03  0.12509268612E+03 0.  0.
          5    1    3    3  502    0  0.37458151788E+02  0.11358632799E+02  0.71545478472E+01  0.40009894143E+02  0.41800000000E+01 0.  1.
         -5    1    3    3    0  502 -0.61362425843E+02  0.17839848628E+02 -0.10593731243E+03  0.12378931323E+03  0.41800000000E+01 0.  1.
        -11    1    1    2    0    0  0.42819863386E+02 -0.22841433173E+02 -0.46264784478E+02  0.67049996664E+02  0.00000000000E+00 0.  1.
         11    1    1    2    0    0 -0.18915589331E+02 -0.63570482545E+01  0.26026106263E+02  0.32795880679E+02  0.00000000000E+00 0. -1.
</event>
<event>
 7    1  0.2420569E-009  0.8276638E+02  0.7561462E-02  0.1321379E+00
          1   -1    0    0  501    0  0.00000000000E+00  0.00000000000E+00  0.28773791136E+03  0.28773791136E+03  0.00000000000E+00 0. -1.
         -1   -1    0    0    0  501 -0.00000000000E+00 -0.00000000000E+00 -0.49238454779E+02  0.49238454779E+02  0.00000000000E+00 0.  1.
         25    2    1    2    0    0 -0.97214819393E+01  0.19724161422E+02  0.87403672822E+02  0.15418166999E+03  0.12509610539E+03 0.  0.
          5    1    3    3  502    0  0.60859934869E+01 -0.44315491819E+02  0.74261466853E+02  0.86793663312E+02  0.41800000000E+01 0. -1.
         -5    1    3    3    0  502 -0.15807475426E+02  0.64039653242E+02  0.13142205968E+02  0.67388006681E+02  0.41800000000E+01 0. -1.
        -11    1    1    2    0    0  0.86440730958E+01  0.16311626689E+02 -0.76675360664E+01  0.19989504102E+02  0.00000000000E+00 0.  1.
         11    1    1    2    0    0  0.10774088434E+01 -0.36035788111E+02  0.15876331982E+03  0.16280519204E+03  0.00000000000E+00 0. -1.
</event>
<event>
 7    1  0.2420569E-009  0.1103823E+03  0.7561462E-02  0.1259864E+00
          2   -1    0    0  501    0  0.00000000000E+00  0.00000000000E+00  0.10527118891E+02  0.10527118891E+02  0.00000000000E+00 0. -1.
         -2   -1    0    0    0  501 -0.00000000000E+00 -0.00000000000E+00 -0.14062107477E+04  0.14062107477E+04  0.00000000000E+00 0.  1.
         25    2    1    2    0    0  0.48269987759E+02 -0.17835731534E+02 -0.92076866589E+03  0.93065206055E+03  0.12510082608E+03 0.  0.
          5    1    3    3  502    0  0.79233037667E+02 -0.29199337417E+02 -0.40072003548E+03  0.40954181081E+03  0.41800000000E+01 0.  1.
         -5    1    3    3    0  502 -0.30963049908E+02  0.11363605883E+02 -0.52004863041E+03  0.52111024975E+03  0.41800000000E+01 0.  1.
        -11    1    1    2    0    0 -0.69384287952E+02  0.33142846266E+02 -0.37666711077E+03  0.38443561231E+03  0.00000000000E+00 0.  1.
         11    1    1    2    0    0  0.21114300193E+02 -0.15307114732E+02 -0.98247852155E+02  0.10165019374E+03  0.00000000000E+00 0. -1.
</event>
<event>
 7    1  0.2420569E-009  0.1177234E+03  0.7561462E-02  0.1246901E+00
         -2   -1    0    0    0  501 -0.00000000000E+00  0.00000000000E+00  0.11372787699E+03  0.11372787699E+03  0.00000000000E+00 0.  1.
          2   -1    0    0  501    0  0.00000000000E+00 -0.00000000000E+00 -0.19495029518E+03  0.19495029518E+03  0.00000000000E+00 0. -1.
         25    2    1    2    0    0  0.33697038679E+02 -0.85285344110E+02 -0.89354348918E+02  0.17899892534E+03  0.12508930916E+03 0.  0.
          5    1    3    3  502    0  0.48956228654E+02 -0.64258623142E+02  0.49985731120E+01  0.81045302796E+02  0.41800000000E+01 0. -1.
         -5    1    3    3    0  502 -0.15259189975E+02 -0.21026720968E+02 -0.94352922030E+02  0.97953622541E+02  0.41800000000E+01 0. -1.
        -11    1    1    2    0    0 -0.51193372363E+02  0.95228846034E+02  0.13217918557E+02  0.10892202652E+03  0.00000000000E+00 0.  1.
         11    1    1    2    0    0  0.17496333684E+02 -0.99435019240E+01 -0.50859878241E+01  0.20757220311E+02  0.00000000000E+00 0. -1.
</event>
<event>
 7    1  0.2420569E-009  0.1281594E+03  0.7561462E-02  0.1230213E+00
         -2   -1    0    0    0  501 -0.00000000000E+00  0.00000000000E+00  0.23934110691E+02  0.23934110691E+02  0.00000000000E+00 0.  1.
          2   -1    0    0  501    0  0.00000000000E+00 -0.00000000000E+00 -0.10453154743E+04  0.10453154743E+04  0.00000000000E+00 0. -1.
         25    2    1    2    0    0 -0.99257595521E+02 -0.13245927016E+02 -0.73874970102E+03  0.75592839817E+03  0.12509635309E+03 0.  0.
          5    1    3    3  502    0 -0.21513189152E+02  0.45533643240E+02 -0.13117807663E+03  0.14057485609E+03  0.41800000000E+01 0.  1.
         -5    1    3    3    0  502 -0.77744406369E+02 -0.58779570256E+02 -0.60757162438E+03  0.61535354209E+03  0.41800000000E+01 0.  1.
        -11    1    1    2    0    0  0.78207365150E+01 -0.11128951369E+02  0.16513500770E+01  0.13701986545E+02  0.00000000000E+00 0.  1.
         11    1    1    2    0    0  0.91436859006E+02  0.24374878385E+02 -0.28428301266E+03  0.29961920027E+03  0.00000000000E+00 0. -1.
</event>
<event>
 7    1  0.2420569E-009  0.1141525E+03  0.7561462E-02  0.1253068E+00
          2   -1    0    0  501    0  0.00000000000E+00  0.00000000000E+00  0.85210219249E+02  0.85210219249E+02  0.00000000000E+00 0. -1.
         -2   -1    0    0    0  501 -0.00000000000E+00 -0.00000000000E+00 -0.42794862544E+03  0.42794862544E+03  0.00000000000E+00 0.  1.
         25    2    1    2    0    0 -0.32404248091E+02  0.64349385940E+02 -0.37728233466E+03  0.40395539018E+03  0.12508844249E+03 0.  0.
          5    1    3    3  502    0 -0.24773205955E+02  0.10221274594E+03 -0.28578665737E+03  0.30455318599E+03  0.41800000000E+01 0.  1.
         -5    1    3    3    0  502 -0.76310421354E+01 -0.37863360003E+02 -0.91495677289E+02  0.99402204188E+02  0.41800000000E+01 0.  1.
        -11    1    1    2    0    0  0.43219291328E+02 -0.47926376024E+02 -0.53187948843E+01  0.64754414835E+02  0.00000000000E+00 0.  1.
         11    1    1    2    0    0 -0.10815043237E+02 -0.16423009916E+02  0.39862723352E+02  0.44449039674E+02  0.00000000000E+00 0. -1.
</event>
<event>
 7    1  0.2420569E-009  0.1195500E+03  0.7561462E-02  0.1243841E+00
          2   -1    0    0  501    0  0.00000000000E+00  0.00000000000E+00  0.19029248970E+03  0.19029248970E+03  0.00000000000E+00 0. -1.
         -2   -1    0    0    0  501 -0.00000000000E+00 -0.00000000000E+00 -0.10318409879E+03  0.10318409879E+03  0.00000000000E+00 0.  1.
         25    2    1    2    0    0 -0.26016363208E+02  0.44325445487E+02  0.12356104664E+03  0.18318265645E+03  0.12508779758E+03 0.  0.
          5    1    3    3  502    0 -0.50644392954E+01  0.87028023586E+02  0.84698056587E+02  0.12161726285E+03  0.41800000000E+01 0.  1.
         -5    1    3    3    0  502 -0.20951923912E+02 -0.42702578099E+02  0.38862990057E+02  0.61565393591E+02  0.41800000000E+01 0.  1.
        -11    1    1    2    0    0  0.57528824895E+02 -0.11680943914E+02 -0.21639437870E+02  0.62564170384E+02  0.00000000000E+00 0.  1.
         11    1    1    2    0    0 -0.31512461687E+02 -0.32644501573E+02 -0.14813217863E+02  0.47729761659E+02  0.00000000000E+00 0. -1.
</event>
<event>
 7    1  0.2420569E-009  0.1002933E+03  0.7561462E-02  0.1279680E+00
         -2   -1    0    0    0  501 -0.00000000000E+00  0.00000000000E+00  0.20634290629E+03  0.20634290629E+03  0.00000000000E+00 0.  1.
          2   -1    0    0  501    0  0.00000000000E+00 -0.00000000000E+00 -0.72404618281E+02  0.72404618281E+02  0.00000000000E+00 0. -1.
         25    2    1    2    0    0 -0.53630804683E+02 -0.65614609232E+01  0.47991572098E+02  0.14447569343E+03  0.12510283378E+03 0.  0.
          5    1    3    3  502    0  0.28387563032E+02  0.21057890014E+02 -0.13673449660E+02  0.38127733900E+02  0.41800000000E+01 0. -1.
         -5    1    3    3    0  502 -0.82018367714E+02 -0.27619350937E+02  0.61665021758E+02  0.10634795953E+03  0.41800000000E+01 0. -1.
        -11    1    1    2    0    0  0.45479394574E+02 -0.20647233106E+02  0.70797451021E+01  0.50446073747E+02  0.00000000000E+00 0. -1.
         11    1    1    2    0    0  0.81514101091E+01  0.27208694030E+02  0.78866970804E+02  0.83825757386E+02  0.00000000000E+00 0.  1.
</event>
<event>
 7    1  0.2420569E-009  0.1649644E+03  0.7561462E-02  0.1183203E+00
          2   -1    0    0  501    0  0.00000000000E+00  0.00000000000E+00  0.10408355572E+04  0.10408355572E+04  0.00000000000E+00 0.  1.
         -2   -1    0    0    0  501 -0.00000000000E+00 -0.00000000000E+00 -0.29609975683E+02  0.29609975683E+02  0.00000000000E+00 0. -1.
         25    2    1    2    0    0  0.11647894031E+03  0.59989118160E+02  0.67059134050E+03  0.69462693960E+03  0.12509117250E+03 0.  0.
          5    1    3    3  502    0  0.70291295461E+02 -0.25074664662E+02  0.18622349483E+03  0.20066456452E+03  0.41800000000E+01 0. -1.
         -5    1    3    3    0  502  0.46187644851E+02  0.85063782822E+02  0.48436784567E+03  0.49396237509E+03  0.41800000000E+01 0. -1.
        -11    1    1    2    0    0  0.14628574466E+02 -0.14032937104E+01  0.40904538101E+02  0.43464303301E+02  0.00000000000E+00 0.  1.
         11    1    1    2    0    0 -0.13110751478E+03 -0.58585824450E+02  0.29972970293E+03  0.33235428999E+03  0.00000000000E+00 0. -1.
</event>
<event>
 7    1  0.2420569E-009  0.7356312E+02  0.7561462E-02  0.1348379E+00
          2   -1    0    0  501    0  0.00000000000E+00  0.00000000000E+00  0.65003711199E+03  0.65003711199E+03  0.00000000000E+00 0. -1.
         -2   -1    0    0    0  501 -0.00000000000E+00 -0.00000000000E+00 -0.20048536795E+02  0.20048536795E+02  0.00000000000E+00 0.  1.
         25    2    1    2    0    0  0.17909317583E+02  0.18612520873E+02  0.43376040795E+03  0.45217482989E+03  0.12508723235E+03 0.  0.
          5    1    3    3  502    0 -0.12510493313E+02 -0.68996172607E+01  0.39889298640E+03  0.39917064541E+03  0.41800000000E+01 0.  1.
         -5    1    3    3    0  502  0.30419810896E+02  0.25512138134E+02  0.34867421550E+02  0.53004184482E+02  0.41800000000E+01 0.  1.
        -11    1    1    2    0    0  0.26170044956E+02  0.20613455819E+02  0.95852498178E+02  0.10147653532E+03  0.00000000000E+00 0.  1.
         11    1    1    2    0    0 -0.44079362539E+02 -0.39225976692E+02  0.10037566906E+03  0.11643428357E+03  0.00000000000E+00 0. -1.
</event>
<event>
 7    1  0.2420569E-009  0.1090161E+03  0.7561462E-02  0.1262403E+00
          3   -1    0    0  501    0  0.00000000000E+00  0.00000000000E+00  0.39267893993E+02  0.39267893993E+02  0.00000000000E+00 0. -1.
         -3   -1    0    0    0  501 -0.00000000000E+00 -0.00000000000E+00 -0.33459314793E+03  0.33459314793E+03  0.00000000000E+00 0.  1.
         25    2    1    2    0    0  0.17552575586E+02 -0.34564616087E+02 -0.18980967924E+03  0.23060729452E+03  0.12509677996E+03 0.  0.
          5    1    3    3  502    0 -0.72182569444E+01 -0.75615781783E+02 -0.78377831479E+02  0.10922640045E+03  0.41800000000E+01 0. -1.
         -5    1    3    3    0  502  0.24770832531E+02  0.41051165695E+02 -0.11143184776E+03  0.12138089407E+03  0.41800000000E+01 0. -1.
        -11    1    1    2    0    0  0.28524682248E+02  0.38125749101E+02 -0.71359311493E+02  0.85786838026E+02  0.00000000000E+00 0.  1.
         11    1    1    2    0    0 -0.46077257835E+02 -0.35611330134E+01 -0.34156263212E+02  0.57466909387E+02  0.00000000000E+00 0. -1.
</event>
<event>
 7    1  0.2420569E-009  0.1035344E+03  0.7561462E-02  0.1273034E+00
         -1   -1    0    0    0  501 -0.00000000000E+00  0.00000000000E+00  0.31931887283E+03  0.31931887283E+03  0.00000000000E+00 0.  1.
          1   -1    0    0  501    0  0.00000000000E+00 -0.00000000000E+00 -0.36608379983E+02  0.36608379983E+02  0.00000000000E+00 0. -1.
         25    2    1    2    0    0 -0.49152150789E+01 -0.17424975916E+01  0.20064585112E+03  0.23650054528E+03  0.12508618913E+03 0.  0.
          5    1    3    3  502    0  0.46094946607E+02  0.37553304481E+02  0.11179568396E+03  0.12669152352E+03  0.41800000000E+01 0.  1.
         -5    1    3    3    0  502 -0.51010161686E+02 -0.39295802073E+02  0.88850167164E+02  0.10980902176E+03  0.41800000000E+01 0.  1.
        -11    1    1    2    0    0  0.27425903672E+02 -0.32146150060E+02  0.59274896300E+02  0.72794700956E+02  0.00000000000E+00 0.  1.
         11    1    1    2    0    0 -0.22510688593E+02  0.33888647652E+02  0.22789745428E+02  0.46632006575E+02  0.00000000000E+00 0. -1.
</event>
<event>
 7    1  0.2420569E-009  0.1509536E+03  0.7561462E-02  0.1199306E+00
         -1   -1    0    0    0  501 -0.00000000000E+00  0.00000000000E+00  0.49998886988E+03  0.49998886988E+03  0.00000000000E+00 0.  1.
          1   -1    0    0  501    0  0.00000000000E+00 -0.00000000000E+00 -0.69729763048E+02  0.69729763048E+02  0.00000000000E+00 0. -1.
         25    2    1    2    0    0  0.76148576398E+02 -0.10419554511E+03  0.34777434525E+03  0.39147156290E+03  0.12509065528E+03 0.  0.
          5    1    3    3  502    0  0.82317664174E+01 -0.65774359723E+02  0.28081921395E+03  0.28856703155E+03  0.41800000000E+01 0.  1.
         -5    1    3    3    0  502  0.67916809981E+02 -0.38421185386E+02  0.66955131296E+02  0.10290453134E+03  0.41800000000E+01 0.  1.
        -11    1    1    2    0    0 -0.50414216308E+02  0.40950716036E+00  0.34203601267E+02  0.60923289813E+02  0.00000000000E+00 0.  1.
         11    1    1    2    0    0 -0.25734360091E+02  0.10378603795E+03  0.48281160316E+02  0.11732378021E+03  0.00000000000E+00 0. -1.
</event>
<event>
 7    1  0.2420569E-009  0.1012726E+03  0.7561462E-02  0.1277642E+00
          1   -1    0    0  501    0  0.00000000000E+00  0.00000000000E+00  0.23203889247E+03  0.23203889247E+03  0.00000000000E+00 0. -1.
         -1   -1    0    0    0  501 -0.00000000000E+00 -0.00000000000E+00 -0.64070319709E+02  0.64070319709E+02  0.00000000000E+00 0.  1.
         25    2    1    2    0    0  0.18351773606E+01 -0.41204697516E+02  0.45783301553E+02  0.13943960661E+03  0.12508436440E+03 0.  0.
          5    1    3    3  502    0 -0.21762979440E+02 -0.77626220316E+02  0.51063884564E+02  0.95521987319E+02  0.41800000000E+01 0. -1.
         -5    1    3    3    0  502  0.23598156801E+02  0.36421522800E+02 -0.52805830109E+01  0.43917619294E+02  0.41800000000E+01 0. -1.
        -11    1    1    2    0    0 -0.18242582425E+02 -0.12466625550E+02 -0.12700675213E+00  0.22095807224E+02  0.00000000000E+00 0.  1.
         11    1    1    2    0    0  0.16407405065E+02  0.53671323066E+02  0.12231227796E+03  0.13457379834E+03  0.00000000000E+00 0. -1.
</event>
<event>
 7    1  0.2420569E-009  0.9304692E+02  0.7561462E-02  0.1295636E+00
          3   -1    0    0  501    0  0.00000000000E+00  0.00000000000E+00  0.17636212751E+03  0.17636212751E+03  0.00000000000E+00 0. -1.
         -3   -1    0    0    0  501 -0.00000000000E+00 -0.00000000000E+00 -0.10999768901E+03  0.10999768901E+03  0.00000000000E+00 0.  1.
         25    2    1    2    0    0 -0.40524314088E+02  0.57976812592E+01  0.10899949187E+03  0.17089130029E+03  0.12508842530E+03 0.  0.
          5    1    3    3  502    0 -0.83109275309E+02  0.71469143644E+01  0.93474736087E+02  0.12535241806E+03  0.41800000000E+01 0.  1.
         -5    1    3    3    0  502  0.42584961221E+02 -0.13492331051E+01  0.15524755786E+02  0.45538882225E+02  0.41800000000E+01 0.  1.
        -11    1    1    2    0    0  0.24208468971E+02 -0.24840464212E+02  0.25378944860E+02  0.42978942220E+02  0.00000000000E+00 0. -1.
         11    1    1    2    0    0  0.16315845118E+02  0.19042782953E+02 -0.68013998232E+02  0.72489574009E+02  0.00000000000E+00 0.  1.
</event>
<event>
 7    1  0.2420569E-009  0.1192578E+03  0.7561462E-02  0.1244326E+00
          1   -1    0    0  501    0  0.00000000000E+00  0.00000000000E+00  0.19395645839E+03  0.19395645839E+03  0.00000000000E+00 0. -1.
         -1   -1    0    0    0  501 -0.00000000000E+00 -0.00000000000E+00 -0.80238765161E+02  0.80238765161E+02  0.00000000000E+00 0.  1.
         25    2    1    2    0    0 -0.52285622606E+02 -0.32124457636E+02  0.48494842792E+02  0.14752626628E+03  0.12508589991E+03 0.  0.
          5    1    3    3  502    0 -0.78545998902E+02 -0.54188402646E+02  0.57927436551E+02  0.11170907407E+03  0.41800000000E+01 0.  1.
         -5    1    3    3    0  502  0.26260376296E+02  0.22063945010E+02 -0.94325937590E+01  0.35817192208E+02  0.41800000000E+01 0.  1.
        -11    1    1    2    0    0  0.21358875992E+02  0.61921110750E+02  0.42518336678E+02  0.78091193448E+02  0.00000000000E+00 0. -1.
         11    1    1    2    0    0  0.30926746614E+02 -0.29796653114E+02  0.22704513758E+02  0.48577763821E+02  0.00000000000E+00 0.  1.
</event>
<event>
 7    1  0.2919336E-009  0.1528031E+03  0.7561462E-02  0.1197070E+00
          1   -1    0    0  501    0  0.00000000000E+00  0.00000000000E+00  0.64641756692E+03  0.64641756692E+03  0.00000000000E+00 0. -1.
         -1   -1    0    0    0  501 -0.00000000000E+00 -0.00000000000E+00 -0.56570578867E+02  0.56570578867E+02  0.00000000000E+00 0.  1.
         25    2    1    2    0    0 -0.14002978990E+01  0.14290113122E+03  0.42965643326E+03  0.46976050569E+03  0.12509031905E+03 0.  0.
          5    1    3    3  502    0 -0.72128318964E+01  0.83478350218E+02  0.38768515702E+03  0.39665843401E+03  0.41800000000E+01 0. -1.
         -5    1    3    3    0  502  0.58125339973E+01  0.59422781003E+02  0.41971276242E+02  0.73102071674E+02  0.41800000000E+01 0. -1.
        -11    1    1    2    0    0  0.28528719118E+02 -0.12752518201E+03  0.96939933629E+02  0.16270805325E+03  0.00000000000E+00 0. -1.
         11    1    1    2    0    0 -0.27128421219E+02 -0.15375949208E+02  0.63250621164E+02  0.70519586850E+02  0.00000000000E+00 0.  1.
</event>
<event>
 7    1  0.2420569E-009  0.1054355E+03  0.7561462E-02  0.1269264E+00
          1   -1    0    0  501    0  0.00000000000E+00  0.00000000000E+00  0.18363444776E+03  0.18363444776E+03  0.00000000000E+00 0. -1.
         -1   -1    0    0    0  501 -0.00000000000E+00 -0.00000000000E+00 -0.74319589030E+02  0.74319589030E+02  0.00000000000E+00 0.  1.
         25    2    1    2    0    0 -0.41534820803E+01 -0.36228197492E+01  0.14214019819E+02  0.12601416596E+03  0.12508859032E+03 0.  0.
          5    1    3    3  502    0 -0.35389140911E+02 -0.53842549924E+02 -0.18303014982E+01  0.64592831493E+02  0.41800000000E+01 0. -1.
         -5    1    3    3    0  502  0.31235658830E+02  0.50219730175E+02  0.16044321317E+02  0.61421334469E+02  0.41800000000E+01 0. -1.
        -11    1    1    2    0    0  0.91930848953E+01 -0.41046081560E+02  0.66415160388E+02  0.78614675161E+02  0.00000000000E+00 0. -1.
         11    1    1    2    0    0 -0.50396028150E+01  0.44668901309E+02  0.28685678528E+02  0.53325195671E+02  0.00000000000E+00 0.  1.
</event>
<event>
 7    1  0.2420569E-009  0.1507541E+03  0.7561462E-02  0.1199549E+00
         -2   -1    0    0    0  501 -0.00000000000E+00  0.00000000000E+00  0.67124268996E+02  0.67124268996E+02  0.00000000000E+00 0.  1.
          2   -1    0    0  501    0  0.00000000000E+00 -0.00000000000E+00 -0.43292629805E+03  0.43292629805E+03  0.00000000000E+00 0. -1.
         25    2    1    2    0    0 -0.96499251999E+02 -0.70925680047E+02 -0.10911783708E+03  0.20468905247E+03  0.12509335756E+03 0.  0.
          5    1    3    3  502    0 -0.11910156513E+03 -0.83281009794E+02 -0.81427473325E+02  0.16663977683E+03  0.41800000000E+01 0.  1.
         -5    1    3    3    0  502  0.22602313133E+02  0.12355329747E+02 -0.27690363755E+02  0.38049275644E+02  0.41800000000E+01 0.  1.
        -11    1    1    2    0    0  0.77435702891E+02  0.26779518579E+02 -0.89240560749E+02  0.12114994173E+03  0.00000000000E+00 0.  1.
         11    1    1    2    0    0  0.19063549108E+02  0.44146161467E+02 -0.16744363123E+03  0.17421157285E+03  0.00000000000E+00 0. -1.
</event>
<event>
 7    1  0.2420569E-009  0.1073625E+03  0.7561462E-02  0.1265533E+00
         -1   -1    0    0    0  501 -0.00000000000E+00  0.00000000000E+00  0.33650590155E+02  0.33650590155E+02  0.00000000000E+00 0.  1.
          1   -1    0    0  501    0  0.00000000000E+00 -0.00000000000E+00 -0.56133812996E+03  0.56133812996E+03  0.00000000000E+00 0. -1.
         25    2    1    2    0    0  0.41575430484E+02  0.69289320223E+02 -0.21398208930E+03  0.26070246436E+03  0.12509162269E+03 0.  0.
          5    1    3    3  502    0  0.23404382527E+02 -0.14962746456E+02  0.19581240455E+01  0.28159466486E+02  0.41800000000E+01 0.  1.
         -5    1    3    3    0  502  0.18171047956E+02  0.84252066679E+02 -0.21594021334E+03  0.23254299788E+03  0.41800000000E+01 0.  1.
        -11    1    1    2    0    0 -0.18006315583E+01 -0.59307695951E+02 -0.96797636492E+02  0.11353601853E+03  0.00000000000E+00 0. -1.
         11    1    1    2    0    0 -0.39774798925E+02 -0.99816242715E+01 -0.21690781402E+03  0.22075023723E+03  0.00000000000E+00 0.  1.
</event>
<event>
 7    1  0.2420569E-009  0.8562191E+02  0.7561462E-02  0.1313814E+00
          2   -1    0    0  501    0  0.00000000000E+00  0.00000000000E+00  0.95296136469E+03  0.95296136469E+03  0.00000000000E+00 0. -1.
         -2   -1    0    0    0  501 -0.00000000000E+00 -0.00000000000E+00 -0.14090944588E+02  0.14090944588E+02  0.00000000000E+00 0.  1.
         25    2    1    2    0    0  0.51874168048E+01 -0.18157673288E+02  0.69845871217E+03  0.70982484923E+03  0.12510049396E+03 0.  0.
          5    1    3    3  502    0  0.38609224158E+02  0.10835255065E+02  0.60495417424E+03  0.60629621495E+03  0.41800000000E+01 0. -1.
         -5    1    3    3    0  502 -0.33421807353E+02 -0.28992928352E+02  0.93504537933E+02  0.10352863428E+03  0.41800000000E+01 0. -1.
        -11    1    1    2    0    0 -0.39792901364E+02  0.30079515329E+02  0.95235483901E+02  0.10750837007E+03  0.00000000000E+00 0.  1.
         11    1    1    2    0    0  0.34605484559E+02 -0.11921842041E+02  0.14517622403E+03  0.14971908997E+03  0.00000000000E+00 0. -1.
</event>
<event>
 7    1  0.2420569E-009  0.1961053E+03  0.7561462E-02  0.1153067E+00
         -1   -1    0    0    0  501 -0.00000000000E+00  0.00000000000E+00  0.14199841505E+03  0.14199841505E+03  0.00000000000E+00 0.  1.
          1   -1    0    0  501    0  0.00000000000E+00 -0.00000000000E+00 -0.29873677455E+03  0.29873677455E+03  0.00000000000E+00 0. -1.
         25    2    1    2    0    0  0.32149842597E+02  0.16433386145E+03 -0.52144218190E+02  0.21541951851E+03  0.12508924441E+03 0.  0.
          5    1    3    3  502    0  0.24374454444E+02 -0.50762987059E+01  0.18866518399E+02  0.31516674230E+02  0.41800000000E+01 0. -1.
         -5    1    3    3    0  502  0.77753881530E+01  0.16941016015E+03 -0.71010736588E+02  0.18390284428E+03  0.41800000000E+01 0. -1.
        -11    1    1    2    0    0 -0.58524404183E+02 -0.41635049914E+02 -0.22166854074E+02  0.75166167163E+02  0.00000000000E+00 0. -1.
         11    1    1    2    0    0  0.26374561586E+02 -0.12269881153E+03 -0.82427287230E+02  0.15014950393E+03  0.00000000000E+00 0.  1.
</event>
<event>
 7    1  0.2420569E-009  0.7625317E+02  0.7561462E-02  0.1340034E+00
          1   -1    0    0  501    0  0.00000000000E+00  0.00000000000E+00  0.71936668851E+03  0.71936668851E+03  0.00000000000E+00 0. -1.
         -1   -1    0    0    0  501 -0.00000000000E+00 -0.00000000000E+00 -0.26297337700E+02  0.26297337700E+02  0.00000000000E+00 0.  1.
         25    2    1    2    0    0  0.54250440193E+02 -0.10799995184E+02  0.52368465514E+03  0.54125248970E+03  0.12509552118E+03 0.  0.
          5    1    3    3  502    0  0.33358396550E+02 -0.12425991942E+02  0.51786806011E+03  0.51910691383E+03  0.41800000000E+01 0.  1.
         -5    1    3    3    0  502  0.20892043643E+02  0.16259967584E+01  0.58165950272E+01  0.22145575873E+02  0.41800000000E+01 0.  1.
        -11    1    1    2    0    0 -0.25585112626E+02 -0.33731069770E+02  0.21814760255E+02  0.47626324873E+02  0.00000000000E+00 0.  1.
         11    1    1    2    0    0 -0.28665327567E+02  0.44531064953E+02  0.14756993542E+03  0.15678521164E+03  0.00000000000E+00 0. -1.
</event>
<event>
 7    1  0.2420569E-009  0.6857545E+02  0.7561462E-02  0.1365005E+00
          1   -1    0    0  501    0  0.00000000000E+00  0.00000000000E+00  0.15856539462E+03  0.15856539462E+03  0.00000000000E+00 0. -1.
         -1   -1    0    0    0  501 -0.00000000000E+00 -0.00000000000E+00 -0.89257391039E+02  0.89257391039E+02  0.00000000000E+00 0.  1.
         25    2    1    2    0    0 -0.25368197819E+02  0.73132549257E+01  0.81612725530E+02  0.15167319384E+03  0.12508833520E+03 0.  0.
          5    1    3    3  502    0  0.72450527637E+01 -0.71323458318E+01  0.10708235831E+03  0.10764508817E+03  0.41800000000E+01 0. -1.
         -5    1    3    3    0  502 -0.32613250583E+02  0.14445600757E+02 -0.25469632776E+02  0.44028105666E+02  0.41800000000E+01 0. -1.
        -11    1    1    2    0    0 -0.22624296458E+02  0.23966958235E+02  0.10351068865E+02  0.34545889827E+02  0.00000000000E+00 0. -1.
         11    1    1    2    0    0  0.47992494277E+02 -0.31280213161E+02 -0.22655790813E+02  0.61603701997E+02  0.00000000000E+00 0.  1.
</event>
<event>
 7    1  0.2420569E-009  0.1258552E+03  0.7561462E-02  0.1233739E+00
          4   -1    0    0  501    0  0.00000000000E+00  0.00000000000E+00  0.26419248963E+02  0.26419248963E+02  0.00000000000E+00 0.  1.
         -4   -1    0    0    0  501 -0.00000000000E+00 -0.00000000000E+00 -0.75319968721E+03  0.75319968721E+03  0.00000000000E+00 0. -1.
         25    2    1    2    0    0  0.62154542370E+01 -0.80929588226E+02 -0.28493062425E+03  0.32159267811E+03  0.12509260513E+03 0.  0.
          5    1    3    3  502    0 -0.45470037696E+02 -0.84957505944E+02 -0.19913215936E+03  0.22126091258E+03  0.41800000000E+01 0. -1.
         -5    1    3    3    0  502  0.51685491933E+02  0.40279177173E+01 -0.85798464890E+02  0.10033176553E+03  0.41800000000E+01 0. -1.
        -11    1    1    2    0    0  0.27136647196E+02  0.19728502985E+02 -0.51239019200E+02  0.61245804262E+02  0.00000000000E+00 0.  1.
         11    1    1    2    0    0 -0.33352101433E+02  0.61201085241E+02 -0.39061079480E+03  0.39678045380E+03  0.00000000000E+00 0. -1.
</event>
<event>
 7    1  0.2420569E-009  0.8299308E+02  0.7561462E-02  0.1320766E+00
         -2   -1    0    0    0  501 -0.00000000000E+00  0.00000000000E+00  0.24746483176E+03  0.24746483176E+03  0.00000000000E+00 0. -1.
          2   -1    0    0  501    0  0.00000000000E+00 -0.00000000000E+00 -0.66761589003E+02  0.66761589003E+02  0.00000000000E+00 0.  1.
         25    2    1    2    0    0 -0.51304020905E+02  0.27641211810E+02  0.14645350845E+03  0.20122798972E+03  0.12509170460E+03 0.  0.
          5    1    3    3  502    0 -0.17808137672E+02  0.24012001692E+02  0.16135296203E+03  0.16415223651E+03  0.41800000000E+01 0. -1.
         -5    1    3    3    0  502 -0.33495883233E+02  0.36292101182E+01 -0.14899453581E+02  0.37075753217E+02  0.41800000000E+01 0. -1.
        -11    1    1    2    0    0  0.35101904910E+02  0.27364475147E+02 -0.30172500477E+01  0.44610111256E+02  0.00000000000E+00 0.  1.
         11    1    1    2    0    0  0.16202115995E+02 -0.55005686957E+02  0.37266984355E+02  0.68388319786E+02  0.00000000000E+00 0. -1.
</event>
<event>
 7    1  0.2420569E-009  0.1490922E+03  0.7561462E-02  0.1201593E+00
         -1   -1    0    0    0  501 -0.00000000000E+00  0.00000000000E+00  0.40235160531E+03  0.40235160531E+03  0.00000000000E+00 0.  1.
          1   -1    0    0  501    0  0.00000000000E+00 -0.00000000000E+00 -0.73679339122E+02  0.73679339122E+02  0.00000000000E+00 0. -1.
         25    2    1    2    0    0  0.10508179241E+03  0.80577387370E+02  0.19642821871E+03  0.26788987511E+03  0.12508413820E+03 0.  0.
          5    1    3    3  502    0  0.22162819520E+02  0.53866636600E+00  0.13568585667E+03  0.13754855445E+03  0.41800000000E+01 0.  1.
         -5    1    3    3    0  502  0.82918972885E+02  0.80038721004E+02  0.60742362038E+02  0.13034132066E+03  0.41800000000E+01 0.  1.
        -11    1    1    2    0    0 -0.10840290335E+03 -0.34004628423E+02  0.86677730959E+02  0.14290043126E+03  0.00000000000E+00 0. -1.
         11    1    1    2    0    0  0.33211109496E+01 -0.46572758948E+02  0.45566316513E+02  0.65240638060E+02  0.00000000000E+00 0.  1.
</event>
<event>
 7    1  0.2420569E-009  0.1436487E+03  0.7561462E-02  0.1208502E+00
         -1   -1    0    0    0  501 -0.00000000000E+00  0.00000000000E+00  0.91654450038E+02  0.91654450038E+02  0.00000000000E+00 0.  1.
          1   -1    0    0  501    0  0.00000000000E+00 -0.00000000000E+00 -0.24195150825E+03  0.24195150825E+03  0.00000000000E+00 0. -1.
         25    2    1    2    0    0  0.14162577099E+02  0.10130684050E+03 -0.79383174405E+02  0.18003690302E+03  0.12509174053E+03 0.  0.
          5    1    3    3  502    0  0.55739746264E+02  0.13262362986E+02 -0.54438467389E+01  0.57705436944E+02  0.41800000000E+01 0. -1.
         -5    1    3    3    0  502 -0.41577169166E+02  0.88044477511E+02 -0.73939327666E+02  0.12233146607E+03  0.41800000000E+01 0. -1.
        -11    1    1    2    0    0 -0.45123461495E+02 -0.87586946500E+02 -0.35915793355E+02  0.10486917653E+03  0.00000000000E+00 0.  1.
         11    1    1    2    0    0  0.30960884396E+02 -0.13719893997E+02 -0.34998090456E+02  0.48699878742E+02  0.00000000000E+00 0. -1.
</event>
<event>
 7    1  0.2420569E-009  0.1125854E+03  0.7561462E-02  0.1255856E+00
          1   -1    0    0  501    0  0.00000000000E+00  0.00000000000E+00  0.42053415547E+03  0.42053415547E+03  0.00000000000E+00 0. -1.
         -1   -1    0    0    0  501 -0.00000000000E+00 -0.00000000000E+00 -0.46637074362E+02  0.46637074362E+02  0.00000000000E+00 0.  1.
         25    2    1    2    0    0  0.71195362728E+02 -0.13257649214E+02  0.29283751659E+03  0.32656769203E+03  0.12509237157E+03 0.  0.
          5    1    3    3  502    0  0.10025560235E+03 -0.31876672979E+01  0.15068223468E+03  0.18106340125E+03  0.41800000000E+01 0. -1.
         -5    1    3    3    0  502 -0.29060239618E+02 -0.10069981916E+02  0.14215528191E+03  0.14550429079E+03  0.41800000000E+01 0. -1.
        -11    1    1    2    0    0 -0.76543611258E+02  0.25256069282E+02  0.27051812933E+02  0.85021138801E+02  0.00000000000E+00 0.  1.
         11    1    1    2    0    0  0.53482485306E+01 -0.11998420068E+02  0.54007751586E+02  0.55582398993E+02  0.00000000000E+00 0. -1.
</event>
<event>
 7    1  0.2420569E-009  0.1095353E+03  0.7561462E-02  0.1261433E+00
          2   -1    0    0  501    0  0.00000000000E+00  0.00000000000E+00  0.79313208097E+03  0.79313208097E+03  0.00000000000E+00 0. -1.
         -2   -1    0    0    0  501 -0.00000000000E+00 -0.00000000000E+00 -0.17969505399E+02  0.17969505399E+02  0.00000000000E+00 0.  1.
         25    2    1    2    0    0 -0.38556477668E+01 -0.36570271284E+02  0.55088197088E+03  0.56610201588E+03  0.12509314845E+03 0.  0.
          5    1    3    3  502    0  0.39633087819E+02 -0.66412367520E+02  0.33277876498E+03  0.34167318161E+03  0.41800000000E+01 0. -1.
         -5    1    3    3    0  502 -0.43488735586E+02  0.29842096236E+02  0.21810320590E+03  0.22442883427E+03  0.41800000000E+01 0. -1.
        -11    1    1    2    0    0  0.22090884021E+02  0.57115884038E+02  0.96438475145E+02  0.11423927019E+03  0.00000000000E+00 0.  1.
         11    1    1    2    0    0 -0.18235236254E+02 -0.20545612755E+02  0.12784212955E+03  0.13076030029E+03  0.00000000000E+00 0. -1.
</event>
<event>
 7    1  0.2420569E-009  0.1813318E+03  0.7561462E-02  0.1166520E+00
          1   -1    0    0  501    0  0.00000000000E+00  0.00000000000E+00  0.26250627903E+04  0.26250627903E+04  0.00000000000E+00 0. -1.
         -1   -1    0    0    0  501 -0.00000000000E+00 -0.00000000000E+00 -0.15671996576E+02  0.15671996576E+02  0.00000000000E+00 0.  1.
         25    2    1    2    0    0 -0.13771982350E+03 -0.98248912030E+02  0.15605350153E+04  0.15746544115E+04  0.12508950082E+03 0.  0.
          5    1    3    3  502    0 -0.38822193923E+02 -0.45151346359E+02  0.10595885900E+04  0.10612687027E+04  0.41800000000E+01 0.  1.
         -5    1    3    3    0  502 -0.98897629577E+02 -0.53097565671E+02  0.50094642526E+03  0.51338570880E+03  0.41800000000E+01 0.  1.
        -11    1    1    2    0    0  0.82793537418E+02  0.56592135735E+01  0.48216490578E+03  0.48925432333E+03  0.00000000000E+00 0.  1.
         11    1    1    2    0    0  0.54926286081E+02  0.92589698456E+02  0.56669087270E+03  0.57682605209E+03  0.00000000000E+00 0. -1.
</event>
<event>
 7    1  0.2420569E-009  0.9047932E+02  0.7561462E-02  0.1301695E+00
         -2   -1    0    0    0  501 -0.00000000000E+00  0.00000000000E+00  0.19314186267E+03  0.19314186267E+03  0.00000000000E+00 0. -1.
          2   -1    0    0  501    0  0.00000000000E+00 -0.00000000000E+00 -0.63198564155E+02  0.63198564155E+02  0.00000000000E+00 0.  1.
         25    2    1    2    0    0  0.82848585558E+00  0.16640025976E+02  0.60029086913E+02  0.13974612233E+03  0.12509160875E+03 0.  0.
          5    1    3    3  502    0  0.13865510717E+02 -0.43229502266E+02 -0.99245823999E+01  0.46658461070E+02  0.41800000000E+01 0. -1.
         -5    1    3    3    0  502 -0.13037024861E+02  0.59869528243E+02  0.69953669313E+02  0.93087661264E+02  0.41800000000E+01 0. -1.
        -11    1    1    2    0    0 -0.31031265638E+02  0.11087594874E+02  0.67983098272E+02  0.75548500037E+02  0.00000000000E+00 0. -1.
         11    1    1    2    0    0  0.30202779783E+02 -0.27727620850E+02  0.19311133301E+01  0.41045804454E+02  0.00000000000E+00 0.  1.
</event>
<event>
 7    1  0.2420569E-009  0.9905299E+02  0.7561462E-02  0.1282300E+00
          4   -1    0    0  501    0  0.00000000000E+00  0.00000000000E+00  0.10834834705E+03  0.10834834705E+03  0.00000000000E+00 0. -1.
         -4   -1    0    0    0  501 -0.00000000000E+00 -0.00000000000E+00 -0.15918654092E+03  0.15918654092E+03  0.00000000000E+00 0.  1.
         25    2    1    2    0    0  0.12341393106E+02  0.64330592673E+02  0.41514390903E+01  0.14126566705E+03  0.12509204252E+03 0.  0.
          5    1    3    3  502    0 -0.20477556115E+02  0.33224411038E+02  0.58496606739E+02  0.70445136051E+02  0.41800000000E+01 0. -1.
         -5    1    3    3    0  502  0.32818949220E+02  0.31106181634E+02 -0.54345167649E+02  0.70820530996E+02  0.41800000000E+01 0. -1.
        -11    1    1    2    0    0 -0.29653224860E+01  0.24218652401E+02 -0.15137302493E+02  0.28713658568E+02  0.00000000000E+00 0.  1.
         11    1    1    2    0    0 -0.93760706200E+01 -0.88549245074E+02 -0.39852330469E+02  0.97555562359E+02  0.00000000000E+00 0. -1.
</event>
<event>
 7    1  0.2420569E-009  0.1160868E+03  0.7561462E-02  0.1249696E+00
         -1   -1    0    0    0  501 -0.00000000000E+00  0.00000000000E+00  0.30541375256E+02  0.30541375256E+02  0.00000000000E+00 0.  1.
          1   -1    0    0  501    0  0.00000000000E+00 -0.00000000000E+00 -0.76893441162E+03  0.76893441162E+03  0.00000000000E+00 0. -1.
         25    2    1    2    0    0  0.56293590917E+02 -0.73684042005E+02 -0.53969798802E+03  0.56170970131E+03  0.12508222834E+03 0.  0.
          5    1    3    3  502    0  0.64456284593E+02 -0.62462245323E+02 -0.17496137899E+03  0.19668528479E+03  0.41800000000E+01 0.  1.
         -5    1    3    3    0  502 -0.81626936751E+01 -0.11221796682E+02 -0.36473660903E+03  0.36502441652E+03  0.41800000000E+01 0.  1.
        -11    1    1    2    0    0 -0.80019669803E+02  0.62821518003E+02 -0.13585988113E+03  0.16972801177E+03  0.00000000000E+00 0.  1.
         11    1    1    2    0    0  0.23726078885E+02  0.10862524002E+02 -0.62835167214E+02  0.68038073795E+02  0.00000000000E+00 0. -1.
</event>
<event>
 7    1  0.2420569E-009  0.1325720E+03  0.7561462E-02  0.1223689E+00
          2   -1    0    0  501    0  0.00000000000E+00  0.00000000000E+00  0.15304118841E+04  0.15304118841E+04  0.00000000000E+00 0. -1.
         -2   -1    0    0    0  501 -0.00000000000E+00 -0.00000000000E+00 -0.21685062532E+02  0.21685062532E+02  0.00000000000E+00 0.  1.
         25    2    1    2    0    0  0.10385191060E+03  0.58869525196E+02  0.11500423474E+04  0.11629681445E+04  0.12508662540E+03 0.  0.
          5    1    3    3  502    0  0.66964361520E+01 -0.48393883194E+00  0.65253571505E+03  0.65258364082E+03  0.41800000000E+01 0. -1.
         -5    1    3    3    0  502  0.97155474451E+02  0.59353464028E+02  0.49750663238E+03  0.51038450365E+03  0.41800000000E+01 0. -1.
        -11    1    1    2    0    0 -0.51495310926E+02 -0.72760578752E+02  0.15959205142E+03  0.18279904744E+03  0.00000000000E+00 0.  1.
         11    1    1    2    0    0 -0.52356599677E+02  0.13891053556E+02  0.19909242276E+03  0.20632975476E+03  0.00000000000E+00 0. -1.
</event>
<event>
 7    1  0.2420569E-009  0.1993015E+03  0.7561462E-02  0.1150330E+00
         -1   -1    0    0    0  501 -0.00000000000E+00  0.00000000000E+00  0.40280707976E+02  0.40280707976E+02  0.00000000000E+00 0.  1.
          1   -1    0    0  501    0  0.00000000000E+00 -0.00000000000E+00 -0.11019699383E+04  0.11019699383E+04  0.00000000000E+00 0. -1.
         25    2    1    2    0    0  0.13891726743E+03  0.11284886775E+03 -0.61823363081E+03  0.65566401005E+03  0.12509835198E+03 0.  0.
          5    1    3    3  502    0  0.48905590129E+02  0.11340378966E+03 -0.28873935578E+03  0.31407015813E+03  0.41800000000E+01 0. -1.
         -5    1    3    3    0  502  0.90011677296E+02 -0.55492191063E+00 -0.32949427503E+03  0.34159385191E+03  0.41800000000E+01 0. -1.
        -11    1    1    2    0    0 -0.11525844705E+03 -0.66969588166E+02 -0.21989963327E+03  0.25714836975E+03  0.00000000000E+00 0.  1.
         11    1    1    2    0    0 -0.23658820374E+02 -0.45879279585E+02 -0.22355596622E+03  0.22943826645E+03  0.00000000000E+00 0. -1.
</event>
<event>
 7    1  0.2420569E-009  0.1756720E+03  0.7561462E-02  0.1172059E+00
          3   -1    0    0  501    0  0.00000000000E+00  0.00000000000E+00  0.21521013266E+03  0.21521013266E+03  0.00000000000E+00 0. -1.
         -3   -1    0    0    0  501 -0.00000000000E+00 -0.00000000000E+00 -0.18597501632E+03  0.18597501632E+03  0.00000000000E+00 0.  1.
         25    2    1    2    0    0 -0.13007688024E+03  0.83891266459E+02 -0.50188884011E+02  0.20524255750E+03  0.12509134250E+03 0.  0.
          5    1    3    3  502    0 -0.63176103939E+01 -0.19444991347E+02 -0.38182621008E+02  0.43513271959E+02  0.41800000000E+01 0. -1.
         -5    1    3    3    0  502 -0.12375926984E+03  0.10333625781E+03 -0.12006263004E+02  0.16172928554E+03  0.41800000000E+01 0. -1.
        -11    1    1    2    0    0 -0.69324117150E+01 -0.13459884354E+02 -0.96867902955E+01  0.17973890098E+02  0.00000000000E+00 0.  1.
         11    1    1    2    0    0  0.13700929195E+03 -0.70431382105E+02  0.89110790648E+02  0.17796870139E+03  0.00000000000E+00 0. -1.
</event>
<event>
 7    1  0.2420569E-009  0.1396763E+03  0.7561462E-02  0.1213765E+00
          1   -1    0    0  501    0  0.00000000000E+00  0.00000000000E+00  0.58982424908E+03  0.58982424908E+03  0.00000000000E+00 0. -1.
         -1   -1    0    0    0  501 -0.00000000000E+00 -0.00000000000E+00 -0.39546385180E+02  0.39546385180E+02  0.00000000000E+00 0.  1.
         25    2    1    2    0    0 -0.76330603774E+02 -0.70772511098E+02  0.34275656396E+03  0.37942609461E+03  0.12508792802E+03 0.  0.
          5    1    3    3  502    0  0.17393974408E+02 -0.44032135358E+02  0.20617997576E+03  0.21158694217E+03  0.41800000000E+01 0. -1.
         -5    1    3    3    0  502 -0.93724578182E+02 -0.26740375740E+02  0.13657658820E+03  0.16783915245E+03  0.41800000000E+01 0. -1.
        -11    1    1    2    0    0  0.69710037760E+02  0.68936372782E+01  0.74667918858E+02  0.10238315147E+03  0.00000000000E+00 0. -1.
         11    1    1    2    0    0  0.66205660144E+01  0.63878873820E+02  0.13285338108E+03  0.14756138818E+03  0.00000000000E+00 0.  1.
</event>
<event>
 7    1  0.2420569E-009  0.1760054E+03  0.7561462E-02  0.1171726E+00
          1   -1    0    0  501    0  0.00000000000E+00  0.00000000000E+00  0.15277775129E+03  0.15277775129E+03  0.00000000000E+00 0. -1.
         -1   -1    0    0    0  501 -0.00000000000E+00 -0.00000000000E+00 -0.22108750834E+03  0.22108750834E+03  0.00000000000E+00 0.  1.
         25    2    1    2    0    0 -0.10945518348E+03  0.97220769169E+02 -0.43468651083E+02  0.19740867054E+03  0.12509334286E+03 0.  0.
          5    1    3    3  502    0 -0.25548890777E+02 -0.30275268485E+02 -0.10684515866E+02  0.41242805204E+02  0.41800000000E+01 0. -1.
         -5    1    3    3    0  502 -0.83906292704E+02  0.12749603765E+03 -0.32784135217E+02  0.15616586533E+03  0.41800000000E+01 0. -1.
        -11    1    1    2    0    0  0.16498775479E+02 -0.54950971529E+02 -0.44320948281E+02  0.72499416003E+02  0.00000000000E+00 0.  1.
         11    1    1    2    0    0  0.92956408003E+02 -0.42269797640E+02  0.19479842310E+02  0.10395717309E+03  0.00000000000E+00 0. -1.
</event>
<event>
 7    1  0.2420569E-009  0.1277369E+03  0.7561462E-02  0.1230853E+00
          2   -1    0    0  501    0  0.00000000000E+00  0.00000000000E+00  0.16812437701E+04  0.16812437701E+04  0.00000000000E+00 0.  1.
         -2   -1    0    0    0  501 -0.00000000000E+00 -0.00000000000E+00 -0.11572931789E+02  0.11572931789E+02  0.00000000000E+00 0. -1.
         25    2    1    2    0    0  0.24338022743E+02 -0.82094089044E+02  0.99679403324E+03  0.10082545072E+04  0.12508808001E+03 0.  0.
          5    1    3    3  502    0 -0.37727644132E+02 -0.29580356949E+02  0.66036305336E+03  0.66211419505E+03  0.41800000000E+01 0.  1.
         -5    1    3    3    0  502  0.62065666875E+02 -0.52513732095E+02  0.33643097988E+03  0.34614031214E+03  0.41800000000E+01 0.  1.
        -11    1    1    2    0    0  0.26364897534E+02 -0.33602741986E+01  0.14010784683E+03  0.14260647955E+03  0.00000000000E+00 0. -1.
         11    1    1    2    0    0 -0.50702920277E+02  0.85454363242E+02  0.53276895822E+03  0.54195571513E+03  0.00000000000E+00 0.  1.
</event>
<event>
 7    1  0.2420569E-009  0.1413903E+03  0.7561462E-02  0.1211470E+00
          2   -1    0    0  501    0  0.00000000000E+00  0.00000000000E+00  0.30209300884E+03  0.30209300884E+03  0.00000000000E+00 0. -1.
         -2   -1    0    0    0  501 -0.00000000000E+00 -0.00000000000E+00 -0.10621458970E+03  0.10621458970E+03  0.00000000000E+00 0.  1.
         25    2    1    2    0    0  0.96030497924E+02 -0.91060506062E+02  0.16796055575E+03  0.24773263628E+03  0.12508732348E+03 0.  0.
          5    1    3    3  502    0  0.60922914323E+02 -0.74247749226E+02  0.18225505596E+03  0.20605510811E+03  0.41800000000E+01 0. -1.
         -5    1    3    3    0  502  0.35107583601E+02 -0.16812756836E+02 -0.14294500205E+02  0.41677528176E+02  0.41800000000E+01 0. -1.
        -11    1    1    2    0    0 -0.39479301951E+02 -0.95704750192E+00 -0.17768115513E+02  0.43304008491E+02  0.00000000000E+00 0.  1.
         11    1    1    2    0    0 -0.56551195973E+02  0.92017553564E+02  0.45685978904E+02  0.11727095377E+03  0.00000000000E+00 0. -1.
</event>
<event>
 7    1  0.2420569E-009  0.9266573E+02  0.7561462E-02  0.1296522E+00
         -2   -1    0    0    0  501 -0.00000000000E+00  0.00000000000E+00  0.20996990437E+03  0.20996990437E+03  0.00000000000E+00 0.  1.
          2   -1    0    0  501    0  0.00000000000E+00 -0.00000000000E+00 -0.83660489711E+02  0.83660489711E+02  0.00000000000E+00 0. -1.
         25    2    1    2    0    0  0.83897085423E+00 -0.53112450869E+02  0.12935768864E+03  0.18762284492E+03  0.12508910431E+03 0.  0.
          5    1    3    3  502    0  0.13095151023E+02 -0.79713826505E+02  0.13511890528E+03  0.15748132613E+03  0.41800000000E+01 0.  1.
         -5    1    3    3    0  502 -0.12256180169E+02  0.26601375635E+02 -0.57612166359E+01  0.30141518793E+02  0.41800000000E+01 0.  1.
        -11    1    1    2    0    0  0.12849091723E+02  0.58685882137E+02 -0.35899420326E+02  0.69985000536E+02  0.00000000000E+00 0. -1.
         11    1    1    2    0    0 -0.13688062577E+02 -0.55734312677E+01  0.32851146344E+02  0.36022548623E+02  0.00000000000E+00 0.  1.
</event>
<event>
 7    1  0.2420569E-009  0.8676925E+02  0.7561462E-02  0.1310870E+00
         -2   -1    0    0    0  501 -0.00000000000E+00  0.00000000000E+00  0.10902588612E+03  0.10902588612E+03  0.00000000000E+00 0.  1.
          2   -1    0    0  501    0  0.00000000000E+00 -0.00000000000E+00 -0.12575703943E+03  0.12575703943E+03  0.00000000000E+00 0. -1.
         25    2    1    2    0    0  0.45954481324E+01  0.44316808704E+02 -0.67283895165E+01  0.13295908566E+03  0.12509096513E+03 0.  0.
          5    1    3    3  502    0  0.37036764740E+02  0.26816255973E+02 -0.55276768829E+02  0.71859773858E+02  0.41800000000E+01 0. -1.
         -5    1    3    3    0  502 -0.32441316608E+02  0.17500552732E+02  0.48548379312E+02  0.61099311805E+02  0.41800000000E+01 0. -1.
        -11    1    1    2    0    0  0.31790330535E+02  0.17303986200E+01  0.18241712129E+02  0.36693043705E+02  0.00000000000E+00 0.  1.
         11    1    1    2    0    0 -0.36385778667E+02 -0.46047207324E+02 -0.28244475914E+02  0.65130796181E+02  0.00000000000E+00 0. -1.
</event>
<event>
 7    1  0.2420569E-009  0.7214875E+02  0.7561462E-02  0.1352935E+00
          1   -1    0    0  501    0  0.00000000000E+00  0.00000000000E+00  0.34449803550E+03  0.34449803550E+03  0.00000000000E+00 0. -1.
         -1   -1    0    0    0  501 -0.00000000000E+00 -0.00000000000E+00 -0.38653257685E+02  0.38653257685E+02  0.00000000000E+00 0.  1.
         25    2    1    2    0    0  0.86089889516E+00  0.22115681109E+02  0.11410248069E+03  0.17075467678E+03  0.12509172253E+03 0.  0.
          5    1    3    3  502    0 -0.47883491342E+01  0.39839974697E+02 -0.12879052111E+02  0.42349666523E+02  0.41800000000E+01 0. -1.
         -5    1    3    3    0  502  0.56492480293E+01 -0.17724293588E+02  0.12698153280E+03  0.12840501026E+03  0.41800000000E+01 0. -1.
        -11    1    1    2    0    0 -0.34366327147E+02 -0.34942353969E+02  0.14753862810E+03  0.15546594265E+03  0.00000000000E+00 0.  1.
         11    1    1    2    0    0  0.33505428252E+02  0.12826672861E+02  0.44203669025E+02  0.56930673756E+02  0.00000000000E+00 0. -1.
</event>
<event>
 7    1  0.2420569E-009  0.1054040E+03  0.7561462E-02  0.1269326E+00
         -2   -1    0    0    0  501 -0.00000000000E+00  0.00000000000E+00  0.20607262245E+02  0.20607262245E+02  0.00000000000E+00 0.  1.
          2   -1    0    0  501    0  0.00000000000E+00 -0.00000000000E+00 -0.67492375570E+03  0.67492375570E+03  0.00000000000E+00 0. -1.
         25    2    1    2    0    0  0.36097923261E+02  0.22972395703E+02 -0.40134880205E+03  0.42256078693E+03  0.12508383874E+03 0.  0.
          5    1    3    3  502    0  0.48953027356E+02 -0.27722671734E+02 -0.32538806202E+03  0.33024204566E+03  0.41800000000E+01 0.  1.
         -5    1    3    3    0  502 -0.12855104094E+02  0.50695067436E+02 -0.75960740025E+02  0.92318741265E+02  0.41800000000E+01 0.  1.
        -11    1    1    2    0    0 -0.16641502258E+01 -0.54927077457E+02 -0.15142095118E+03  0.16108400818E+03  0.00000000000E+00 0. -1.
         11    1    1    2    0    0 -0.34433773036E+02  0.31954681754E+02 -0.10154674023E+03  0.11188622285E+03  0.00000000000E+00 0.  1.
</event>
<event>
 7    1  0.2420569E-009  0.1029924E+03  0.7561462E-02  0.1274126E+00
         -1   -1    0    0    0  501 -0.00000000000E+00  0.00000000000E+00  0.61876908056E+02  0.61876908056E+02  0.00000000000E+00 0.  1.
          1   -1    0    0  501    0  0.00000000000E+00 -0.00000000000E+00 -0.28791291182E+03  0.28791291182E+03  0.00000000000E+00 0. -1.
         25    2    1    2    0    0 -0.69465336948E+02 -0.33031529402E+02 -0.10592553833E+03  0.18106591769E+03  0.12509249340E+03 0.  0.
          5    1    3    3  502    0 -0.45146774976E+02  0.56749263018E+01 -0.12367879402E+03  0.13184973481E+03  0.41800000000E+01 0. -1.
         -5    1    3    3    0  502 -0.24318561972E+02 -0.38706455704E+02  0.17753255688E+02  0.49216182878E+02  0.41800000000E+01 0. -1.
        -11    1    1    2    0    0 -0.15814532506E+02 -0.10157849445E+02 -0.39250706634E+02  0.43518953514E+02  0.00000000000E+00 0.  1.
         11    1    1    2    0    0  0.85279869454E+02  0.43189378847E+02 -0.80859758796E+02  0.12520494867E+03  0.00000000000E+00 0. -1.
</event>
<event>
 7    1  0.2420569E-009  0.1148546E+03  0.7561462E-02  0.1251835E+00
          2   -1    0    0  501    0  0.00000000000E+00  0.00000000000E+00  0.11583852197E+04  0.11583852197E+04  0.00000000000E+00 0. -1.
         -2   -1    0    0    0  501 -0.00000000000E+00 -0.00000000000E+00 -0.13412223133E+02  0.13412223133E+02  0.00000000000E+00 0.  1.
         25    2    1    2    0    0 -0.38250648803E+02 -0.59555528886E+02  0.73439960269E+03  0.74833186242E+03  0.12509127362E+03 0.  0.
          5    1    3    3  502    0  0.31463603112E+02 -0.47661112474E+02  0.16739177908E+03  0.17691529065E+03  0.41800000000E+01 0.  1.
         -5    1    3    3    0  502 -0.69714251915E+02 -0.11894416413E+02  0.56700782361E+03  0.57141657177E+03  0.41800000000E+01 0.  1.
        -11    1    1    2    0    0  0.19573430584E+02 -0.15051940514E+02  0.67426854632E+02  0.71805715814E+02  0.00000000000E+00 0.  1.
         11    1    1    2    0    0  0.18677218219E+02  0.74607469400E+02  0.34314653928E+03  0.35165986463E+03  0.00000000000E+00 0. -1.
</event>
<event>
 7    1  0.2420569E-009  0.1081188E+03  0.7561462E-02  0.1264094E+00
          2   -1    0    0  501    0  0.00000000000E+00  0.00000000000E+00  0.99433511186E+03  0.99433511186E+03  0.00000000000E+00 0. -1.
         -2   -1    0    0    0  501 -0.00000000000E+00 -0.00000000000E+00 -0.14468606792E+02  0.14468606792E+02  0.00000000000E+00 0.  1.
         25    2    1    2    0    0  0.48114000460E+02  0.11483873023E+02  0.60769888046E+03  0.62240832231E+03  0.12508938403E+03 0.  0.
          5    1    3    3  502    0  0.82575550216E+02 -0.28132129688E+01  0.26384353880E+03  0.27650953153E+03  0.41800000000E+01 0.  1.
         -5    1    3    3    0  502 -0.34461549756E+02  0.14297085992E+02  0.34385534166E+03  0.34589879078E+03  0.41800000000E+01 0.  1.
        -11    1    1    2    0    0 -0.17948648067E+02 -0.46443169592E+02  0.11811419361E+03  0.12817989196E+03  0.00000000000E+00 0.  1.
         11    1    1    2    0    0 -0.30165352393E+02  0.34959296569E+02  0.25405343099E+03  0.25821550438E+03  0.00000000000E+00 0. -1.
</event>
<event>
 7    1  0.2420569E-009  0.1171951E+03  0.7561462E-02  0.1247797E+00
         -3   -1    0    0    0  501 -0.00000000000E+00  0.00000000000E+00  0.14578638977E+03  0.14578638977E+03  0.00000000000E+00 0.  1.
          3   -1    0    0  501    0  0.00000000000E+00 -0.00000000000E+00 -0.11682703232E+03  0.11682703232E+03  0.00000000000E+00 0. -1.
         25    2    1    2    0    0  0.61273312673E+02  0.37443051049E+02  0.81837960478E+01  0.14445977269E+03  0.12508097573E+03 0.  0.
          5    1    3    3  502    0  0.92762602791E+02  0.17553127126E+02  0.32327331988E+02  0.99877632841E+02  0.41800000000E+01 0.  1.
         -5    1    3    3    0  502 -0.31489290118E+02  0.19889923922E+02 -0.24143535940E+02  0.44582139848E+02  0.41800000000E+01 0.  1.
        -11    1    1    2    0    0 -0.10848460268E+02 -0.49408184530E+02  0.38296899148E+02  0.63446909090E+02  0.00000000000E+00 0.  1.
         11    1    1    2    0    0 -0.50424852405E+02  0.11965133481E+02 -0.17521337746E+02  0.54706740313E+02  0.00000000000E+00 0. -1.
</event>
<event>
 7    1  0.2420569E-009  0.1235870E+03  0.7561462E-02  0.1237294E+00
          2   -1    0    0  501    0  0.00000000000E+00  0.00000000000E+00  0.13414301399E+03  0.13414301399E+03  0.00000000000E+00 0. -1.
         -2   -1    0    0    0  501 -0.00000000000E+00 -0.00000000000E+00 -0.13202513467E+03  0.13202513467E+03  0.00000000000E+00 0.  1.
         25    2    1    2    0    0 -0.14468318106E+02  0.74987089197E+02 -0.38932696043E+01  0.14661960236E+03  0.12509897871E+03 0.  0.
          5    1    3    3  502    0 -0.45017019212E+02 -0.22587032588E+01  0.32609606513E+02  0.55789717655E+02  0.41800000000E+01 0.  1.
         -5    1    3    3    0  502  0.30548701106E+02  0.77245792455E+02 -0.36502876117E+02  0.90829884708E+02  0.41800000000E+01 0.  1.
        -11    1    1    2    0    0 -0.22080772475E+02 -0.78942463903E+02 -0.16823161135E+01  0.81989653662E+02  0.00000000000E+00 0.  1.
         11    1    1    2    0    0  0.36549090581E+02  0.39553747060E+01  0.76934650387E+01  0.37558892631E+02  0.00000000000E+00 0. -1.
</event>
<event>
 7    1  0.2420569E-009  0.8290185E+02  0.7561462E-02  0.1321012E+00
          2   -1    0    0  501    0  0.00000000000E+00  0.00000000000E+00  0.10584387569E+04  0.10584387569E+04  0.00000000000E+00 0.  1.
         -2   -1    0    0    0  501 -0.00000000000E+00 -0.00000000000E+00 -0.20128900497E+02  0.20128900497E+02  0.00000000000E+00 0. -1.
         25    2    1    2    0    0  0.41699553643E+02 -0.27652261464E+01  0.89406171550E+03  0.90373654125E+03  0.12508751181E+03 0.  0.
          5    1    3    3  502    0 -0.51893942836E+01  0.35637855199E+02  0.68675323140E+03  0.68770957516E+03  0.41800000000E+01 0. -1.
         -5    1    3    3    0  502  0.46888947926E+02 -0.38403081345E+02  0.20730848411E+03  0.21602696609E+03  0.41800000000E+01 0. -1.
        -11    1    1    2    0    0 -0.29865415861E+01  0.24309202717E+02  0.12350779267E+03  0.12591279370E+03  0.00000000000E+00 0.  1.
         11    1    1    2    0    0 -0.38713012057E+02 -0.21543976570E+02  0.20740348277E+02  0.48918322494E+02  0.00000000000E+00 0. -1.
</event>
<event>
 7    1  0.2420569E-009  0.9383085E+02  0.7561462E-02  0.1293831E+00
          1   -1    0    0  501    0  0.00000000000E+00  0.00000000000E+00  0.22811367101E+03  0.22811367101E+03  0.00000000000E+00 0. -1.
         -1   -1    0    0    0  501 -0.00000000000E+00 -0.00000000000E+00 -0.70751644642E+02  0.70751644642E+02  0.00000000000E+00 0.  1.
         25    2    1    2    0    0  0.44293703129E+02 -0.13190596775E+02  0.28698822074E+02  0.13641171041E+03  0.12509439783E+03 0.  0.
          5    1    3    3  502    0 -0.22642471845E+02  0.16909155423E+02 -0.30675364172E+02  0.41917197371E+02  0.41800000000E+01 0.  1.
         -5    1    3    3    0  502  0.66936174974E+02 -0.30099752198E+02  0.59374186245E+02  0.94494513041E+02  0.41800000000E+01 0.  1.
        -11    1    1    2    0    0 -0.51411598341E+02 -0.17322166446E+02  0.11709881318E+03  0.12905557695E+03  0.00000000000E+00 0.  1.
         11    1    1    2    0    0  0.71178952113E+01  0.30512763221E+02  0.11564391113E+02  0.33398028286E+02  0.00000000000E+00 0. -1.
</event>
<event>
 7    1  0.2420569E-009  0.1010701E+03  0.7561462E-02  0.1278062E+00
          2   -1    0    0  501    0  0.00000000000E+00  0.00000000000E+00  0.42377230743E+03  0.42377230743E+03  0.00000000000E+00 0.  1.
         -2   -1    0    0    0  501 -0.00000000000E+00 -0.00000000000E+00 -0.48252710926E+02  0.48252710926E+02  0.00000000000E+00 0. -1.
         25    2    1    2    0    0 -0.56412186362E+02  0.27198395526E+02  0.33091959625E+03  0.35927285879E+03  0.12508845026E+03 0.  0.
          5    1    3    3  502    0 -0.61116991453E+02 -0.92581879281E+01  0.31128294857E+03  0.31738863741E+03  0.41800000000E+01 0.  1.
         -5    1    3    3    0  502  0.47048050909E+01  0.36456583454E+02  0.19636647685E+02  0.41884221377E+02  0.41800000000E+01 0.  1.
        -11    1    1    2    0    0  0.18228629822E+01 -0.45558379871E+02  0.24436997648E+02  0.51730606608E+02  0.00000000000E+00 0. -1.
         11    1    1    2    0    0  0.54589323380E+02  0.18359984345E+02  0.20163002608E+02  0.61021552966E+02  0.00000000000E+00 0.  1.
</event>
<event>
 7    1  0.2420569E-009  0.9186884E+02  0.7561462E-02  0.1298388E+00
          1   -1    0    0  501    0  0.00000000000E+00  0.00000000000E+00  0.59581454506E+03  0.59581454506E+03  0.00000000000E+00 0. -1.
         -1   -1    0    0    0  501 -0.00000000000E+00 -0.00000000000E+00 -0.30971648197E+02  0.30971648197E+02  0.00000000000E+00 0.  1.
         25    2    1    2    0    0  0.34252270606E+02  0.47203387159E+02  0.43981762062E+03  0.46096439966E+03  0.12508901051E+03 0.  0.
          5    1    3    3  502    0  0.35618851436E+02  0.57031309917E+02  0.97693103689E+02  0.11867050095E+03  0.41800000000E+01 0. -1.
         -5    1    3    3    0  502 -0.13665808305E+01 -0.98279227582E+01  0.34212451693E+03  0.34229389871E+03  0.41800000000E+01 0. -1.
        -11    1    1    2    0    0 -0.46944160732E+02 -0.67165745210E+02  0.77759442190E+02  0.11296690846E+03  0.00000000000E+00 0.  1.
         11    1    1    2    0    0  0.12691890126E+02  0.19962358051E+02  0.47265834058E+02  0.52854885140E+02  0.00000000000E+00 0. -1.
</event>
<event>
 7    1  0.2420569E-009  0.1619764E+03  0.7561462E-02  0.1186483E+00
          2   -1    0    0  501    0  0.00000000000E+00  0.00000000000E+00  0.22115330348E+03  0.22115330348E+03  0.00000000000E+00 0. -1.
         -2   -1    0    0    0  501 -0.00000000000E+00 -0.00000000000E+00 -0.12016902343E+03  0.12016902343E+03  0.00000000000E+00 0.  1.
         25    2    1    2    0    0 -0.95309323113E+02 -0.73304380619E+02  0.37693732482E+02  0.17755469210E+03  0.12508977548E+03 0.  0.
          5    1    3    3  502    0 -0.95805017903E+02  0.36715022542E+01  0.14538710847E+02  0.97061464533E+02  0.41800000000E+01 0. -1.
         -5    1    3    3    0  502  0.49569479017E+00 -0.76975882873E+02  0.23155021635E+02  0.80493227568E+02  0.41800000000E+01 0. -1.
        -11    1    1    2    0    0  0.32712644164E+02  0.81447511826E+02  0.33228401984E+02  0.93850631160E+02  0.00000000000E+00 0. -1.
         11    1    1    2    0    0  0.62596678949E+02 -0.81431312065E+01  0.30062145589E+02  0.69917003645E+02  0.00000000000E+00 0.  1.
</event>
<event>
 7    1  0.2420569E-009  0.2314738E+03  0.7561462E-02  0.1125607E+00
         -1   -1    0    0    0  501 -0.00000000000E+00  0.00000000000E+00  0.17419159623E+03  0.17419159623E+03  0.00000000000E+00 0.  1.
          1   -1    0    0  501    0  0.00000000000E+00 -0.00000000000E+00 -0.43280282994E+03  0.43280282994E+03  0.00000000000E+00 0. -1.
         25    2    1    2    0    0  0.35022831993E+02  0.22090065222E+03 -0.26066480079E+03  0.36553874590E+03  0.12509492186E+03 0.  0.
          5    1    3    3  502    0  0.42046007203E+02  0.10344428362E+03 -0.20892878246E+03  0.23693310253E+03  0.41800000000E+01 0. -1.
         -5    1    3    3    0  502 -0.70231752097E+01  0.11745636860E+03 -0.51736018325E+02  0.12860564337E+03  0.41800000000E+01 0. -1.
        -11    1    1    2    0    0  0.19840957761E+02 -0.44313105285E+02  0.25869880639E+02  0.55014231151E+02  0.00000000000E+00 0.  1.
         11    1    1    2    0    0 -0.54863789754E+02 -0.17658754693E+03 -0.23816313557E+02  0.18644144912E+03  0.00000000000E+00 0. -1.
</event>
<event>
 7    1  0.2420569E-009  0.1595866E+03  0.7561462E-02  0.1189164E+00
         -2   -1    0    0    0  501 -0.00000000000E+00  0.00000000000E+00  0.11680357937E+03  0.11680357937E+03  0.00000000000E+00 0.  1.
          2   -1    0    0  501    0  0.00000000000E+00 -0.00000000000E+00 -0.27763777638E+03  0.27763777638E+03  0.00000000000E+00 0. -1.
         25    2    1    2    0    0 -0.77471192263E+02 -0.12135064617E+03 -0.10599245535E+03  0.21819608957E+03  0.12508943983E+03 0.  0.
          5    1    3    3  502    0 -0.91216242317E+02 -0.71552808902E+02 -0.11748624421E+03  0.16510813821E+03  0.41800000000E+01 0. -1.
         -5    1    3    3    0  502  0.13745050054E+02 -0.49797837266E+02  0.11493788860E+02  0.53087951361E+02  0.41800000000E+01 0. -1.
        -11    1    1    2    0    0  0.39773217298E+02  0.10088517470E+03 -0.71867658220E+02  0.13009491760E+03  0.00000000000E+00 0. -1.
         11    1    1    2    0    0  0.37697974965E+02  0.20465471467E+02  0.17025916566E+02  0.46150348576E+02  0.00000000000E+00 0.  1.
</event>
<event>
 7    1  0.2420569E-009  0.1218917E+03  0.7561462E-02  0.1240009E+00
         -1   -1    0    0    0  501 -0.00000000000E+00  0.00000000000E+00  0.10820493820E+03  0.10820493820E+03  0.00000000000E+00 0.  1.
          1   -1    0    0  501    0  0.00000000000E+00 -0.00000000000E+00 -0.20364316184E+03  0.20364316184E+03  0.00000000000E+00 0. -1.
         25    2    1    2    0    0  0.60885327578E+02  0.43418272029E+02  0.22230706296E+02  0.14742487420E+03  0.12509084607E+03 0.  0.
          5    1    3    3  502    0  0.40017434166E+02  0.87761889480E+02  0.14027388235E+02  0.97559132340E+02  0.41800000000E+01 0. -1.
         -5    1    3    3    0  502  0.20867893412E+02 -0.44343617451E+02  0.82033180611E+01  0.49865741861E+02  0.41800000000E+01 0. -1.
        -11    1    1    2    0    0 -0.65908764879E+02 -0.54732978842E+02 -0.12384403012E+03  0.15058887096E+03  0.00000000000E+00 0. -1.
         11    1    1    2    0    0  0.50234373007E+01  0.11314706814E+02  0.61751001811E+01  0.13834354876E+02  0.00000000000E+00 0.  1.
</event>
<event>
 7    1  0.3520926E-009  0.1226685E+03  0.7561462E-02  0.1238759E+00
         -1   -1    0    0    0  501 -0.00000000000E+00  0.00000000000E+00  0.26410835230E+02  0.26410835230E+02  0.00000000000E+00 0.  1.
          1   -1    0    0  501    0  0.00000000000E+00 -0.00000000000E+00 -0.78693116435E+03  0.78693116435E+03  0.00000000000E+00 0. -1.
         25    2    1    2    0    0 -0.87205039570E+02 -0.28857154107E+02 -0.47222282323E+03  0.49707115098E+03  0.12509148690E+03 0.  0.
          5    1    3    3  502    0 -0.20126974704E+02 -0.71140361697E+02 -0.19096037630E+03  0.20481548743E+03  0.41800000000E+01 0.  1.
         -5    1    3    3    0  502 -0.67078064867E+02  0.42283207590E+02 -0.28126244693E+03  0.29225566356E+03  0.41800000000E+01 0.  1.
        -11    1    1    2    0    0  0.32957750903E+02  0.97535771335E+01 -0.15903926961E+02  0.37871895968E+02  0.00000000000E+00 0.  1.
         11    1    1    2    0    0  0.54247288668E+02  0.19103576974E+02 -0.27239357893E+03  0.27839895263E+03  0.00000000000E+00 0. -1.
</event>
<event>
 7    1  0.2420569E-009  0.2303356E+03  0.7561462E-02  0.1126404E+00
         -1   -1    0    0    0  501 -0.00000000000E+00  0.00000000000E+00  0.10381614441E+03  0.10381614441E+03  0.00000000000E+00 0.  1.
          1   -1    0    0  501    0  0.00000000000E+00 -0.00000000000E+00 -0.10626315066E+04  0.10626315066E+04  0.00000000000E+00 0. -1.
         25    2    1    2    0    0  0.11977950889E+03  0.18723988131E+03 -0.99045612714E+02  0.27361261951E+03  0.12509167938E+03 0.  0.
          5    1    3    3  502    0  0.10894040220E+03  0.19465049091E+03 -0.58290015513E+02  0.23059059641E+03  0.41800000000E+01 0.  1.
         -5    1    3    3    0  502  0.10839106688E+02 -0.74106095947E+01 -0.40755597201E+02  0.43022023100E+02  0.41800000000E+01 0.  1.
        -11    1    1    2    0    0 -0.61052581228E+02 -0.71622556420E+02 -0.20815280682E+03  0.22843992482E+03  0.00000000000E+00 0.  1.
         11    1    1    2    0    0 -0.58726927661E+02 -0.11561732489E+03 -0.65161694263E+03  0.66439510668E+03  0.00000000000E+00 0. -1.
</event>
<event>
 7    1  0.2420569E-009  0.1611699E+03  0.7561462E-02  0.1187382E+00
          2   -1    0    0  501    0  0.00000000000E+00  0.00000000000E+00  0.18008687885E+04  0.18008687885E+04  0.00000000000E+00 0. -1.
         -2   -1    0    0    0  501 -0.00000000000E+00 -0.00000000000E+00 -0.16371714300E+02  0.16371714300E+02  0.00000000000E+00 0.  1.
         25    2    1    2    0    0 -0.74804037316E+02  0.98553341837E+02  0.11985751529E+04  0.12114200126E+04  0.12509054485E+03 0.  0.
          5    1    3    3  502    0 -0.81728951108E+02  0.11458587892E+02  0.42866426760E+03  0.43655635077E+03  0.41800000000E+01 0.  1.
         -5    1    3    3    0  502  0.69249137919E+01  0.87094753946E+02  0.76991088533E+03  0.77486366178E+03  0.41800000000E+01 0.  1.
        -11    1    1    2    0    0  0.90250178599E+02 -0.54210283353E+02  0.44488235808E+03  0.45716973006E+03  0.00000000000E+00 0.  1.
         11    1    1    2    0    0 -0.15446141282E+02 -0.44343058485E+02  0.14103956316E+03  0.14865076015E+03  0.00000000000E+00 0. -1.
</event>
<event>
 7    1  0.2420569E-009  0.9545769E+02  0.7561462E-02  0.1290149E+00
          1   -1    0    0  501    0  0.00000000000E+00  0.00000000000E+00  0.43710253051E+03  0.43710253051E+03  0.00000000000E+00 0. -1.
         -1   -1    0    0    0  501 -0.00000000000E+00 -0.00000000000E+00 -0.29027244461E+02  0.29027244461E+02  0.00000000000E+00 0.  1.
         25    2    1    2    0    0 -0.21898544349E+02 -0.21917259787E+02  0.25036926887E+03  0.28158792415E+03  0.12508827168E+03 0.  0.
          5    1    3    3  502    0 -0.63378912068E+02 -0.34198457334E+01  0.21399877855E+03  0.22325217012E+03  0.41800000000E+01 0. -1.
         -5    1    3    3    0  502  0.41480367719E+02 -0.18497414053E+02  0.36370490313E+02  0.58335754031E+02  0.41800000000E+01 0. -1.
        -11    1    1    2    0    0  0.22468563907E+02 -0.25665475452E+02  0.11715942345E+03  0.12202411031E+03  0.00000000000E+00 0. -1.
         11    1    1    2    0    0 -0.57001955743E+00  0.47582735239E+02  0.40546593730E+02  0.62517740508E+02  0.00000000000E+00 0.  1.
</event>
<event>
 7    1  0.2420569E-009  0.9095746E+02  0.7561462E-02  0.1300549E+00
          2   -1    0    0  501    0  0.00000000000E+00  0.00000000000E+00  0.28600588000E+03  0.28600588000E+03  0.00000000000E+00 0. -1.
         -2   -1    0    0    0  501 -0.00000000000E+00 -0.00000000000E+00 -0.42371499131E+02  0.42371499131E+02  0.00000000000E+00 0.  1.
         25    2    1    2    0    0 -0.99191864682E+01  0.14869723950E+02  0.15772310815E+03  0.20209584557E+03  0.12508658201E+03 0.  0.
          5    1    3    3  502    0  0.20091277240E+02 -0.44933710700E+02  0.29856422243E+02  0.57719807065E+02  0.41800000000E+01 0. -1.
         -5    1    3    3    0  502 -0.30010463708E+02  0.59803434650E+02  0.12786668591E+03  0.14437603850E+03  0.41800000000E+01 0. -1.
        -11    1    1    2    0    0 -0.26149037100E+02  0.77465166452E+00 -0.55372495568E+01  0.26740107687E+02  0.00000000000E+00 0.  1.
         11    1    1    2    0    0  0.36068223568E+02 -0.15644375615E+02  0.91448522272E+02  0.99541425876E+02  0.00000000000E+00 0. -1.
</event>
<event>
 7    1  0.2420569E-009  0.9152658E+02  0.7561462E-02  0.1299196E+00
         -1   -1    0    0    0  501 -0.00000000000E+00  0.00000000000E+00  0.31636271430E+02  0.31636271430E+02  0.00000000000E+00 0.  1.
          1   -1    0    0  501    0  0.00000000000E+00 -0.00000000000E+00 -0.64286385926E+03  0.64286385926E+03  0.00000000000E+00 0. -1.
         25    2    1    2    0    0 -0.12360221442E+02 -0.70540241204E+02 -0.48518120882E+03  0.50613934525E+03  0.12509009042E+03 0.  0.
          5    1    3    3  502    0 -0.64656663809E+01 -0.43663016088E+02 -0.47412261014E+03  0.47619112303E+03  0.41800000000E+01 0. -1.
         -5    1    3    3    0  502 -0.58945550610E+01 -0.26877225116E+02 -0.11058598684E+02  0.29948222220E+02  0.41800000000E+01 0. -1.
        -11    1    1    2    0    0  0.48575608711E+02  0.47631690313E+02 -0.86506321613E+02  0.11005322059E+03  0.00000000000E+00 0.  1.
         11    1    1    2    0    0 -0.36215387270E+02  0.22908550891E+02 -0.39540057400E+02  0.58307564845E+02  0.00000000000E+00 0. -1.
</event>
<event>
 7    1  0.2420569E-009  0.1144460E+03  0.7561462E-02  0.1252551E+00
          2   -1    0    0  501    0  0.00000000000E+00  0.00000000000E+00  0.92106004539E+02  0.92106004539E+02  0.00000000000E+00 0. -1.
         -2   -1    0    0    0  501 -0.00000000000E+00 -0.00000000000E+00 -0.23349527674E+03  0.23349527674E+03  0.00000000000E+00 0.  1.
         25    2    1    2    0    0 -0.23096876946E+02 -0.60256195813E+02  0.16970986178E+02  0.14177773438E+03  0.12509451121E+03 0.  0.
          5    1    3    3  502    0 -0.56770613394E+02  0.97808683281E+01  0.26172363644E+02  0.63411615253E+02  0.41800000000E+01 0. -1.
         -5    1    3    3    0  502  0.33673736447E+02 -0.70037064141E+02 -0.92013774660E+01  0.78366119127E+02  0.41800000000E+01 0. -1.
        -11    1    1    2    0    0  0.40234599004E+02  0.11826125131E+02 -0.68688642300E+02  0.80478629298E+02  0.00000000000E+00 0. -1.
         11    1    1    2    0    0 -0.17137722057E+02  0.48430070681E+02 -0.89671616074E+02  0.10334491760E+03  0.00000000000E+00 0.  1.
</event>
<event>
 7    1  0.2420569E-009  0.7196302E+02  0.7561462E-02  0.1353542E+00
         -2   -1    0    0    0  501 -0.00000000000E+00  0.00000000000E+00  0.10447433102E+02  0.10447433102E+02  0.00000000000E+00 0.  1.
          2   -1    0    0  501    0  0.00000000000E+00 -0.00000000000E+00 -0.11699093011E+04  0.11699093011E+04  0.00000000000E+00 0. -1.
         25    2    1    2    0    0  0.10156377571E+02  0.35064241202E+02 -0.78866492514E+03  0.79935749956E+03  0.12508954765E+03 0.  0.
          5    1    3    3  502    0  0.25350214849E+02  0.31980361497E+02 -0.78006379950E+03  0.78114171608E+03  0.41800000000E+01 0.  1.
         -5    1    3    3    0  502 -0.15193837278E+02  0.30838797048E+01 -0.86011256421E+01  0.18215783474E+02  0.41800000000E+01 0.  1.
        -11    1    1    2    0    0 -0.43771768503E+02 -0.99582295517E+01 -0.21613181947E+03  0.22074441655E+03  0.00000000000E+00 0. -1.
         11    1    1    2    0    0  0.33615390932E+02 -0.25106011651E+02 -0.15466512340E+03  0.16025481810E+03  0.00000000000E+00 0.  1.
</event>
<event>
 7    1  0.2420569E-009  0.1089589E+03  0.7561462E-02  0.1262510E+00
          2   -1    0    0  501    0  0.00000000000E+00  0.00000000000E+00  0.70280806763E+02  0.70280806763E+02  0.00000000000E+00 0.  1.
         -2   -1    0    0    0  501 -0.00000000000E+00 -0.00000000000E+00 -0.24208478990E+03  0.24208478990E+03  0.00000000000E+00 0. -1.
         25    2    1    2    0    0 -0.38925949123E+02  0.61065589253E+02 -0.80055587508E+02  0.16522700757E+03  0.12508729445E+03 0.  0.
          5    1    3    3  502    0 -0.35979354449E+02  0.77903968985E+02 -0.27639066804E+01  0.85957279566E+02  0.41800000000E+01 0.  1.
         -5    1    3    3    0  502 -0.29465946739E+01 -0.16838379732E+02 -0.77291680828E+02  0.79269728001E+02  0.41800000000E+01 0.  1.
        -11    1    1    2    0    0  0.54290194385E+02 -0.30327721262E+01 -0.35990885928E+02  0.65207106845E+02  0.00000000000E+00 0.  1.
         11    1    1    2    0    0 -0.15364245263E+02 -0.58032817127E+02 -0.55757509705E+02  0.81931482256E+02  0.00000000000E+00 0. -1.
</event>
<event>
 7    1  0.2420569E-009  0.1113258E+03  0.7561462E-02  0.1258134E+00
          1   -1    0    0  501    0  0.00000000000E+00  0.00000000000E+00  0.27975256039E+03  0.27975256039E+03  0.00000000000E+00 0. -1.
         -1   -1    0    0    0  501 -0.00000000000E+00 -0.00000000000E+00 -0.53311036522E+02  0.53311036522E+02  0.00000000000E+00 0.  1.
         25    2    1    2    0    0 -0.26477388080E+02  0.47050568868E+02  0.11446497293E+03  0.17794613509E+03  0.12509112222E+03 0.  0.
          5    1    3    3  502    0 -0.62040865100E+02  0.64734053381E+02  0.10251815755E+03  0.13626082209E+03  0.41800000000E+01 0.  1.
         -5    1    3    3    0  502  0.35563477020E+02 -0.17683484513E+02  0.11946815372E+02  0.41685312999E+02  0.41800000000E+01 0.  1.
        -11    1    1    2    0    0  0.53299154305E+02 -0.32770834572E+02  0.33517708143E+02  0.70980026820E+02  0.00000000000E+00 0.  1.
         11    1    1    2    0    0 -0.26821766225E+02 -0.14279734296E+02  0.78458842800E+02  0.84137435000E+02  0.00000000000E+00 0. -1.
</event>
<event>
 7    1  0.2420569E-009  0.1691540E+03  0.7561462E-02  0.1178733E+00
          2   -1    0    0  501    0  0.00000000000E+00  0.00000000000E+00  0.22543875273E+03  0.22543875273E+03  0.00000000000E+00 0. -1.
         -2   -1    0    0    0  501 -0.00000000000E+00 -0.00000000000E+00 -0.16535696142E+03  0.16535696142E+03  0.00000000000E+00 0.  1.
         25    2    1    2    0    0 -0.98333444761E+02  0.12403811787E+03  0.45789999613E+02  0.20688015496E+03  0.12509098052E+03 0.  0.
          5    1    3    3  502    0 -0.10271728337E+03  0.13140100702E+03  0.70517055358E+01  0.16698581945E+03  0.41800000000E+01 0. -1.
         -5    1    3    3    0  502  0.43838386047E+01 -0.73628891451E+01  0.38738294077E+02  0.39894335506E+02  0.41800000000E+01 0. -1.
        -11    1    1    2    0    0  0.18708066454E+02 -0.49301892072E+02 -0.35834756582E+02  0.63755769085E+02  0.00000000000E+00 0.  1.
         11    1    1    2    0    0  0.79625378307E+02 -0.74736225799E+02  0.50126548276E+02  0.12015979011E+03  0.00000000000E+00 0. -1.
</event>
<event>
 7    1  0.2420569E-009  0.1136066E+03  0.7561462E-02  0.1254033E+00
          2   -1    0    0  501    0  0.00000000000E+00  0.00000000000E+00  0.45968409220E+03  0.45968409220E+03  0.00000000000E+00 0. -1.
         -2   -1    0    0    0  501 -0.00000000000E+00 -0.00000000000E+00 -0.31588597408E+02  0.31588597408E+02  0.00000000000E+00 0.  1.
         25    2    1    2    0    0 -0.85122469718E+00  0.58092094836E+02  0.20341055093E+03  0.24576264113E+03  0.12509199605E+03 0.  0.
          5    1    3    3  502    0  0.28414865067E+02  0.86935329450E+02  0.16813100746E+03  0.19144363174E+03  0.41800000000E+01 0.  1.
         -5    1    3    3    0  502 -0.29266089764E+02 -0.28843234615E+02  0.35279543474E+02  0.54319009387E+02  0.41800000000E+01 0.  1.
        -11    1    1    2    0    0 -0.26121445451E+02 -0.61831919873E+02  0.12167420210E+03  0.13896088545E+03  0.00000000000E+00 0.  1.
         11    1    1    2    0    0  0.26972670148E+02  0.37398250370E+01  0.10301074175E+03  0.10654916303E+03  0.00000000000E+00 0. -1.
</event>
<event>
 7    1  0.2420569E-009  0.9607626E+02  0.7561462E-02  0.1288770E+00
         -2   -1    0    0    0  501 -0.00000000000E+00  0.00000000000E+00  0.26264373094E+02  0.26264373094E+02  0.00000000000E+00 0.  1.
          2   -1    0    0  501    0  0.00000000000E+00 -0.00000000000E+00 -0.48405588101E+03  0.48405588101E+03  0.00000000000E+00 0. -1.
         25    2    1    2    0    0  0.66303109345E+01  0.32129856070E+02 -0.26451657657E+03  0.29443780225E+03  0.12509321100E+03 0.  0.
          5    1    3    3  502    0  0.24026628199E+02  0.63788186313E+02 -0.24249009051E+03  0.25192286115E+03  0.41800000000E+01 0. -1.
         -5    1    3    3    0  502 -0.17396317265E+02 -0.31658330243E+02 -0.22026486063E+02  0.42514941097E+02  0.41800000000E+01 0. -1.
        -11    1    1    2    0    0  0.92571265144E+01  0.25809302469E+02 -0.24634285942E+02  0.36860039733E+02  0.00000000000E+00 0.  1.
         11    1    1    2    0    0 -0.15887437449E+02 -0.57939158539E+02 -0.16864064541E+03  0.17902241213E+03  0.00000000000E+00 0. -1.
</event>
<event>
 7    1  0.2420569E-009  0.1534536E+03  0.7561462E-02  0.1196292E+00
          2   -1    0    0  501    0  0.00000000000E+00  0.00000000000E+00  0.39652047005E+03  0.39652047005E+03  0.00000000000E+00 0. -1.
         -2   -1    0    0    0  501 -0.00000000000E+00 -0.00000000000E+00 -0.73308337827E+02  0.73308337827E+02  0.00000000000E+00 0.  1.
         25    2    1    2    0    0 -0.79358608015E+02  0.10008823431E+03  0.21907722509E+03  0.28277008376E+03  0.12509454985E+03 0.  0.
          5    1    3    3  502    0  0.26872950972E+02  0.56952106093E+02  0.64208397571E+02  0.90032708507E+02  0.41800000000E+01 0. -1.
         -5    1    3    3    0  502 -0.10623155899E+03  0.43136128213E+02  0.15486882752E+03  0.19273737525E+03  0.41800000000E+01 0. -1.
        -11    1    1    2    0    0  0.35422005740E+02 -0.59514147036E+02  0.27055359314E+01  0.69310692629E+02  0.00000000000E+00 0.  1.
         11    1    1    2    0    0  0.43936602274E+02 -0.40574087270E+02  0.10142937120E+03  0.11774803149E+03  0.00000000000E+00 0. -1.
</event>
<event>
 7    1  0.2420569E-009  0.1080753E+03  0.7561462E-02  0.1264176E+00
         -2   -1    0    0    0  501 -0.00000000000E+00  0.00000000000E+00  0.22545567338E+02  0.22545567338E+02  0.00000000000E+00 0. -1.
          2   -1    0    0  501    0  0.00000000000E+00 -0.00000000000E+00 -0.91435895009E+03  0.91435895009E+03  0.00000000000E+00 0.  1.
         25    2    1    2    0    0  0.72257946670E+02 -0.67790169003E+02 -0.55781448326E+03  0.58018668309E+03  0.12507146611E+03 0.  0.
          5    1    3    3  502    0  0.19945282160E+02 -0.42325489191E+02 -0.48319643068E+03  0.48547453521E+03  0.41800000000E+01 0.  1.
         -5    1    3    3    0  502  0.52312664510E+02 -0.25464679812E+02 -0.74618052583E+02  0.94712147887E+02  0.41800000000E+01 0.  1.
        -11    1    1    2    0    0 -0.78798896715E+02  0.53839741489E+02 -0.32532910344E+03  0.33903835983E+03  0.00000000000E+00 0.  1.
         11    1    1    2    0    0  0.65409500453E+01  0.13950427513E+02 -0.86697960500E+01  0.17679474507E+02  0.00000000000E+00 0. -1.
</event>
<event>
 7    1  0.2420569E-009  0.1191726E+03  0.7561462E-02  0.1244468E+00
          2   -1    0    0  501    0  0.00000000000E+00  0.00000000000E+00  0.20790143451E+03  0.20790143451E+03  0.00000000000E+00 0.  1.
         -2   -1    0    0    0  501 -0.00000000000E+00 -0.00000000000E+00 -0.97338562299E+02  0.97338562299E+02  0.00000000000E+00 0. -1.
         25    2    1    2    0    0 -0.68508327340E+02 -0.50951553005E+02  0.27316738416E+02  0.15389233340E+03  0.12508874615E+03 0.  0.
          5    1    3    3  502    0 -0.71107999247E+02 -0.85406036014E+02  0.37936269758E+02  0.11750392124E+03  0.41800000000E+01 0.  1.
         -5    1    3    3    0  502  0.25996719080E+01  0.34454483010E+02 -0.10619531342E+02  0.36388412159E+02  0.41800000000E+01 0.  1.
        -11    1    1    2    0    0  0.60937382196E+02  0.25996131293E+02  0.22851133474E+01  0.66290158652E+02  0.00000000000E+00 0. -1.
         11    1    1    2    0    0  0.75709451437E+01  0.24955421711E+02  0.80961020449E+02  0.85057504756E+02  0.00000000000E+00 0.  1.
</event>
<event>
 7    1  0.2420569E-009  0.9811970E+02  0.7561462E-02  0.1284300E+00
          2   -1    0    0  501    0  0.00000000000E+00  0.00000000000E+00  0.17309416032E+03  0.17309416032E+03  0.00000000000E+00 0. -1.
         -2   -1    0    0    0  501 -0.00000000000E+00 -0.00000000000E+00 -0.87892976446E+02  0.87892976446E+02  0.00000000000E+00 0.  1.
         25    2    1    2    0    0 -0.24849855963E+02  0.50918331499E+02  0.54528240298E+02  0.14775071397E+03  0.12508698040E+03 0.  0.
          5    1    3    3  502    0 -0.35929574730E+02  0.89175223802E+02  0.46617867284E+02  0.10692919541E+03  0.41800000000E+01 0.  1.
         -5    1    3    3    0  502  0.11079718768E+02 -0.38256892304E+02  0.79103730143E+01  0.40821518565E+02  0.41800000000E+01 0.  1.
        -11    1    1    2    0    0  0.32308251806E+01 -0.28977957267E+02 -0.32068267958E+02  0.43342058656E+02  0.00000000000E+00 0.  1.
         11    1    1    2    0    0  0.21619030782E+02 -0.21940374232E+02  0.62741211538E+02  0.69894364141E+02  0.00000000000E+00 0. -1.
</event>
<event>
 7    1  0.2420569E-009  0.1132067E+03  0.7561462E-02  0.1254744E+00
          1   -1    0    0  501    0  0.00000000000E+00  0.00000000000E+00  0.13638493008E+04  0.13638493008E+04  0.00000000000E+00 0. -1.
         -1   -1    0    0    0  501 -0.00000000000E+00 -0.00000000000E+00 -0.13797943158E+02  0.13797943158E+02  0.00000000000E+00 0.  1.
         25    2    1    2    0    0  0.21457511707E+02 -0.56591174184E+02  0.10218167664E+04  0.10312236438E+04  0.12509881476E+03 0.  0.
          5    1    3    3  502    0  0.41643423572E+02 -0.80038183493E+02  0.92720813458E+03  0.93159684562E+03  0.41800000000E+01 0. -1.
         -5    1    3    3    0  502 -0.20185911865E+02  0.23447009309E+02  0.94608631871E+02  0.99626798141E+02  0.41800000000E+01 0. -1.
        -11    1    1    2    0    0  0.33412100909E+02  0.20590446012E+02  0.18130480464E+03  0.18550408928E+03  0.00000000000E+00 0. -1.
         11    1    1    2    0    0 -0.54869612616E+02  0.36000728172E+02  0.14692978658E+03  0.16091951095E+03  0.00000000000E+00 0.  1.
</event>
<event>
 7    1  0.2420569E-009  0.1279613E+03  0.7561462E-02  0.1230513E+00
          1   -1    0    0  501    0  0.00000000000E+00  0.00000000000E+00  0.70295000053E+02  0.70295000053E+02  0.00000000000E+00 0. -1.
         -1   -1    0    0    0  501 -0.00000000000E+00 -0.00000000000E+00 -0.25059142686E+03  0.25059142686E+03  0.00000000000E+00 0.  1.
         25    2    1    2    0    0  0.15552460932E+02 -0.74872545841E+02 -0.10014670620E+03  0.17755157146E+03  0.12508965027E+03 0.  0.
          5    1    3    3  502    0 -0.13841847810E+02 -0.10394164241E+03 -0.74925101571E+02  0.12894458121E+03  0.41800000000E+01 0. -1.
         -5    1    3    3    0  502  0.29394308741E+02  0.29069096567E+02 -0.25221604628E+02  0.48606990255E+02  0.41800000000E+01 0. -1.
        -11    1    1    2    0    0  0.25445795556E+02  0.16370463044E+01 -0.46257592717E+02  0.52819819349E+02  0.00000000000E+00 0.  1.
         11    1    1    2    0    0 -0.40998256488E+02  0.73235499536E+02 -0.33892127888E+02  0.90515036100E+02  0.00000000000E+00 0. -1.
</event>
<event>
 7    1  0.4185816E-009  0.1482019E+03  0.7561462E-02  0.1202700E+00
         -1   -1    0    0    0  501 -0.00000000000E+00  0.00000000000E+00  0.33756141135E+02  0.33756141135E+02  0.00000000000E+00 0.  1.
          1   -1    0    0  501    0  0.00000000000E+00 -0.00000000000E+00 -0.78203285441E+03  0.78203285441E+03  0.00000000000E+00 0. -1.
         25    2    1    2    0    0  0.27317146785E+02 -0.11605184480E+03 -0.44614953282E+03  0.47844646759E+03  0.12508940612E+03 0.  0.
          5    1    3    3  502    0  0.73827608962E+02 -0.73115476637E+02 -0.21622885332E+03  0.23993494572E+03  0.41800000000E+01 0. -1.
         -5    1    3    3    0  502 -0.46510462178E+02 -0.42936368163E+02 -0.22992067950E+03  0.23851152187E+03  0.41800000000E+01 0. -1.
        -11    1    1    2    0    0  0.13629537618E+02  0.44467353266E+02 -0.20365870095E+03  0.20890183406E+03  0.00000000000E+00 0. -1.
         11    1    1    2    0    0 -0.40946684402E+02  0.71584491534E+02 -0.98468479509E+02  0.12844069390E+03  0.00000000000E+00 0.  1.
</event>
<event>
 7    1  0.2420569E-009  0.1093403E+03  0.7561462E-02  0.1261796E+00
          1   -1    0    0  501    0  0.00000000000E+00  0.00000000000E+00  0.18807413659E+03  0.18807413659E+03  0.00000000000E+00 0. -1.
         -1   -1    0    0    0  501 -0.00000000000E+00 -0.00000000000E+00 -0.65711853408E+02  0.65711853408E+02  0.00000000000E+00 0.  1.
         25    2    1    2    0    0  0.95002049791E+01  0.13904023097E+02  0.90105049625E+02  0.15508104347E+03  0.12509050453E+03 0.  0.
          5    1    3    3  502    0 -0.34987134062E+02 -0.41381533618E+02  0.47664299050E+02  0.72290308330E+02  0.41800000000E+01 0.  1.
         -5    1    3    3    0  502  0.44487339041E+02  0.55285556715E+02  0.42440750575E+02  0.82790735144E+02  0.41800000000E+01 0.  1.
        -11    1    1    2    0    0 -0.47140846090E+02 -0.25838171412E+02  0.17157883318E+02  0.56429278145E+02  0.00000000000E+00 0.  1.
         11    1    1    2    0    0  0.37640641111E+02  0.11934148314E+02  0.15099350236E+02  0.42275668377E+02  0.00000000000E+00 0. -1.
</event>
<event>
 7    1  0.2420569E-009  0.1885119E+03  0.7561462E-02  0.1159810E+00
         -3   -1    0    0    0  501 -0.00000000000E+00  0.00000000000E+00  0.54258577524E+03  0.54258577524E+03  0.00000000000E+00 0. -1.
          3   -1    0    0  501    0  0.00000000000E+00 -0.00000000000E+00 -0.92956255496E+02  0.92956255496E+02  0.00000000000E+00 0.  1.
         25    2    1    2    0    0  0.16085283276E+03 -0.61667619594E+02  0.36969934717E+03  0.42662123717E+03  0.12510612932E+03 0.  0.
          5    1    3    3  502    0  0.16110764643E+03 -0.84101144640E+02  0.27826259777E+03  0.33237963534E+03  0.41800000000E+01 0.  1.
         -5    1    3    3    0  502 -0.25481366515E+00  0.22433525046E+02  0.91436749399E+02  0.94241601836E+02  0.41800000000E+01 0.  1.
        -11    1    1    2    0    0 -0.52796175905E+02  0.16669132608E+02  0.73059222556E+02  0.91667585179E+02  0.00000000000E+00 0. -1.
         11    1    1    2    0    0 -0.10805665686E+03  0.44998486986E+02  0.68709500152E+01  0.11725320838E+03  0.00000000000E+00 0.  1.
</event>
<event>
 7    1  0.2420569E-009  0.1578924E+03  0.7561462E-02  0.1191097E+00
         -1   -1    0    0    0  501 -0.00000000000E+00  0.00000000000E+00  0.21930468111E+03  0.21930468111E+03  0.00000000000E+00 0.  1.
          1   -1    0    0  501    0  0.00000000000E+00 -0.00000000000E+00 -0.15954753500E+03  0.15954753500E+03  0.00000000000E+00 0. -1.
         25    2    1    2    0    0 -0.13741587776E+03  0.35328224272E+02  0.88421597458E+02  0.20879942212E+03  0.12509041886E+03 0.  0.
          5    1    3    3  502    0 -0.11735904089E+03  0.97493085242E+00  0.11207178031E+03  0.16233191710E+03  0.41800000000E+01 0. -1.
         -5    1    3    3    0  502 -0.20056836867E+02  0.34353293420E+02 -0.23650182850E+02  0.46467505019E+02  0.41800000000E+01 0. -1.
        -11    1    1    2    0    0  0.35728748252E+02  0.21659785808E+02  0.16664730982E+02  0.44982252407E+02  0.00000000000E+00 0.  1.
         11    1    1    2    0    0  0.10168712951E+03 -0.56988010081E+02 -0.45329182332E+02  0.12507054158E+03  0.00000000000E+00 0. -1.
</event>
<event>
 7    1  0.2420569E-009  0.1213590E+03  0.7561462E-02  0.1240872E+00
         -1   -1    0    0    0  501 -0.00000000000E+00  0.00000000000E+00  0.21112671992E+03  0.21112671992E+03  0.00000000000E+00 0.  1.
          1   -1    0    0  501    0  0.00000000000E+00 -0.00000000000E+00 -0.10061598162E+03  0.10061598162E+03  0.00000000000E+00 0. -1.
         25    2    1    2    0    0 -0.91074222129E+02  0.20242332720E+02  0.76855159614E+02  0.17394701785E+03  0.12508630416E+03 0.  0.
          5    1    3    3  502    0 -0.19192179007E+01 -0.38046897385E+02 -0.61848897073E+01  0.38819776643E+02  0.41800000000E+01 0.  1.
         -5    1    3    3    0  502 -0.89155004228E+02  0.58289230105E+02  0.83040049321E+02  0.13512724121E+03  0.41800000000E+01 0.  1.
        -11    1    1    2    0    0  0.15319203391E+02  0.75784215187E+01 -0.30324279647E+02  0.34809085041E+02  0.00000000000E+00 0. -1.
         11    1    1    2    0    0  0.75755018737E+02 -0.27820754239E+02  0.63979858332E+02  0.10298659865E+03  0.00000000000E+00 0.  1.
</event>
<event>
 7    1  0.2420569E-009  0.1309065E+03  0.7561462E-02  0.1226117E+00
          1   -1    0    0  501    0  0.00000000000E+00  0.00000000000E+00  0.49296590889E+02  0.49296590889E+02  0.00000000000E+00 0. -1.
         -1   -1    0    0    0  501 -0.00000000000E+00 -0.00000000000E+00 -0.45536107887E+03  0.45536107887E+03  0.00000000000E+00 0.  1.
         25    2    1    2    0    0 -0.59642852250E+02 -0.59016904775E+02 -0.33271642313E+03  0.36522395748E+03  0.12509219010E+03 0.  0.
          5    1    3    3  502    0  0.37054350217E+02 -0.31711328548E+00 -0.89377294205E+02  0.96844713590E+02  0.41800000000E+01 0. -1.
         -5    1    3    3    0  502 -0.96697202468E+02 -0.58699791490E+02 -0.24333912893E+03  0.26837924389E+03  0.41800000000E+01 0. -1.
        -11    1    1    2    0    0  0.14921820702E+02 -0.17315232610E+02 -0.37628239154E+02  0.44026837216E+02  0.00000000000E+00 0. -1.
         11    1    1    2    0    0  0.44721031549E+02  0.76332137385E+02 -0.35719825691E+02  0.95406875056E+02  0.00000000000E+00 0.  1.
</event>
<event>
 7    1  0.2420569E-009  0.1206893E+03  0.7561462E-02  0.1241964E+00
         -1   -1    0    0    0  501 -0.00000000000E+00  0.00000000000E+00  0.71429209349E+02  0.71429209349E+02  0.00000000000E+00 0.  1.
          1   -1    0    0  501    0  0.00000000000E+00 -0.00000000000E+00 -0.30463602821E+03  0.30463602821E+03  0.00000000000E+00 0. -1.
         25    2    1    2    0    0  0.48924225247E+02  0.82419193347E+02 -0.16297150281E+03  0.22670227964E+03  0.12509080549E+03 0.  0.
          5    1    3    3  502    0 -0.29711362695E+02  0.32923496424E+02 -0.69815683518E+01  0.45088095842E+02  0.41800000000E+01 0. -1.
         -5    1    3    3    0  502  0.78635587942E+02  0.49495696923E+02 -0.15598993446E+03  0.18161418380E+03  0.41800000000E+01 0. -1.
        -11    1    1    2    0    0 -0.15902230253E+02 -0.64137640911E+02  0.38763304210E+01  0.66193231120E+02  0.00000000000E+00 0.  1.
         11    1    1    2    0    0 -0.33021994993E+02 -0.18281552436E+02 -0.74111646470E+02  0.83169726796E+02  0.00000000000E+00 0. -1.
</event>
<event>
 7    1  0.2420569E-009  0.7988435E+02  0.7561462E-02  0.1329380E+00
          3   -1    0    0  501    0  0.00000000000E+00  0.00000000000E+00  0.13860381815E+03  0.13860381815E+03  0.00000000000E+00 0. -1.
         -3   -1    0    0    0  501 -0.00000000000E+00 -0.00000000000E+00 -0.38147557650E+03  0.38147557650E+03  0.00000000000E+00 0.  1.
         25    2    1    2    0    0  0.14975576946E+02  0.14487297169E+02 -0.35385589617E+03  0.37589368829E+03  0.12509164625E+03 0.  0.
          5    1    3    3  502    0 -0.21429411510E+02 -0.32041035006E+02 -0.37150256793E+02  0.53697873158E+02  0.41800000000E+01 0.  1.
         -5    1    3    3    0  502  0.36404988456E+02  0.46528332175E+02 -0.31670563937E+03  0.32219581514E+03  0.41800000000E+01 0.  1.
        -11    1    1    2    0    0 -0.50959760340E+01  0.22714460530E+02  0.10204963128E+03  0.10467111795E+03  0.00000000000E+00 0. -1.
         11    1    1    2    0    0 -0.98796009122E+01 -0.37201757699E+02  0.89345065419E+01  0.39514588411E+02  0.00000000000E+00 0.  1.
</event>
<event>
 7    1  0.2420569E-009  0.1290028E+03  0.7561462E-02  0.1228943E+00
          1   -1    0    0  501    0  0.00000000000E+00  0.00000000000E+00  0.93955163443E+03  0.93955163443E+03  0.00000000000E+00 0. -1.
         -1   -1    0    0    0  501 -0.00000000000E+00 -0.00000000000E+00 -0.21077251150E+02  0.21077251150E+02  0.00000000000E+00 0.  1.
         25    2    1    2    0    0  0.66392388196E+02 -0.48113489619E+02  0.61526469538E+03  0.63318351028E+03  0.12509138748E+03 0.  0.
          5    1    3    3  502    0 -0.29343551026E+02 -0.46101328497E+01  0.50823773341E+02  0.59015469568E+02  0.41800000000E+01 0. -1.
         -5    1    3    3    0  502  0.95735939222E+02 -0.43503356769E+02  0.56444092204E+03  0.57416804071E+03  0.41800000000E+01 0. -1.
        -11    1    1    2    0    0 -0.34798833957E+02 -0.25182441945E+02  0.88316745917E+02  0.98208766596E+02  0.00000000000E+00 0.  1.
         11    1    1    2    0    0 -0.31593554239E+02  0.73295931564E+02  0.21489294199E+03  0.22923660870E+03  0.00000000000E+00 0. -1.
</event>
<event>
 7    1  0.2420569E-009  0.1033469E+03  0.7561462E-02  0.1273411E+00
         -2   -1    0    0    0  501 -0.00000000000E+00  0.00000000000E+00  0.13600697843E+03  0.13600697843E+03  0.00000000000E+00 0.  1.
          2   -1    0    0  501    0  0.00000000000E+00 -0.00000000000E+00 -0.25878267011E+03  0.25878267011E+03  0.00000000000E+00 0. -1.
         25    2    1    2    0    0  0.67864069684E+01 -0.17298932592E+02  0.94768794572E+02  0.15803317222E+03  0.12509216885E+03 0.  0.
          5    1    3    3  502    0  0.17439345302E+02  0.50407907104E+02  0.62165742700E+02  0.82019143062E+02  0.41800000000E+01 0. -1.
         -5    1    3    3    0  502 -0.10652938333E+02 -0.67706839696E+02  0.32603051872E+02  0.76014029153E+02  0.41800000000E+01 0. -1.
        -11    1    1    2    0    0 -0.58678930291E+01  0.50735936021E+02 -0.77816346826E+02  0.93080348119E+02  0.00000000000E+00 0.  1.
         11    1    1    2    0    0 -0.91851393929E+00 -0.33437003429E+02 -0.13972813943E+03  0.14367612820E+03  0.00000000000E+00 0. -1.
</event>
<event>
 7    1  0.2420569E-009  0.9519815E+02  0.7561462E-02  0.1290730E+00
         -4   -1    0    0    0  501 -0.00000000000E+00  0.00000000000E+00  0.20931249878E+03  0.20931249878E+03  0.00000000000E+00 0.  1.
          4   -1    0    0  501    0  0.00000000000E+00 -0.00000000000E+00 -0.61755632742E+02  0.61755632742E+02  0.00000000000E+00 0. -1.
         25    2    1    2    0    0  0.33785439227E+02  0.10257651645E+02  0.75154308379E+02  0.15014089012E+03  0.12508973378E+03 0.  0.
          5    1    3    3  502    0  0.17046269247E+02  0.62478074397E+02  0.11309457742E+02  0.65874587740E+02  0.41800000000E+01 0. -1.
         -5    1    3    3    0  502  0.16739169981E+02 -0.52220422752E+02  0.63844850637E+02  0.84266302381E+02  0.41800000000E+01 0. -1.
        -11    1    1    2    0    0  0.81416494643E+01  0.18126901215E+02  0.67144569348E+02  0.70023311808E+02  0.00000000000E+00 0.  1.
         11    1    1    2    0    0 -0.41927088692E+02 -0.28384552861E+02  0.52579883146E+01  0.50903929597E+02  0.00000000000E+00 0. -1.
</event>
<event>
 7    1  0.2420569E-009  0.8599420E+02  0.7561462E-02  0.1312853E+00
          1   -1    0    0  501    0  0.00000000000E+00  0.00000000000E+00  0.22819854604E+03  0.22819854604E+03  0.00000000000E+00 0. -1.
         -1   -1    0    0    0  501 -0.00000000000E+00 -0.00000000000E+00 -0.57524429709E+02  0.57524429709E+02  0.00000000000E+00 0.  1.
         25    2    1    2    0    0 -0.13584968923E+02  0.15094445084E+02  0.58067520724E+02  0.13938102336E+03  0.12507133588E+03 0.  0.
          5    1    3    3  502    0 -0.68197156538E+02  0.18436156580E+02  0.41597844398E+02  0.82088958380E+02  0.41800000000E+01 0.  1.
         -5    1    3    3    0  502  0.54612187615E+02 -0.33417114959E+01  0.16469676326E+02  0.57292064984E+02  0.41800000000E+01 0.  1.
        -11    1    1    2    0    0  0.10245012984E+02 -0.29671849862E+02  0.12376432328E+03  0.12768314957E+03  0.00000000000E+00 0. -1.
         11    1    1    2    0    0  0.33399559384E+01  0.14577404778E+02 -0.11157727678E+02  0.18658802819E+02  0.00000000000E+00 0.  1.
</event>
<event>
 7    1  0.2420569E-009  0.1030948E+03  0.7561462E-02  0.1273919E+00
          2   -1    0    0  501    0  0.00000000000E+00  0.00000000000E+00  0.26309603960E+03  0.26309603960E+03  0.00000000000E+00 0. -1.
         -2   -1    0    0    0  501 -0.00000000000E+00 -0.00000000000E+00 -0.86393684889E+02  0.86393684889E+02  0.00000000000E+00 0.  1.
         25    2    1    2    0    0  0.10158991933E+03 -0.12102586862E+02  0.12364986441E+03  0.20347770325E+03  0.12508757905E+03 0.  0.
          5    1    3    3  502    0  0.29927967911E+02  0.20622582488E+01 -0.24031799484E+02  0.38664401700E+02  0.41800000000E+01 0.  1.
         -5    1    3    3    0  502  0.71661951420E+02 -0.14164845111E+02  0.14768166389E+03  0.16481330155E+03  0.41800000000E+01 0.  1.
        -11    1    1    2    0    0 -0.34621150880E+02  0.85963146657E+01 -0.24659273392E+02  0.43365890724E+02  0.00000000000E+00 0. -1.
         11    1    1    2    0    0 -0.66968768452E+02  0.35062721966E+01  0.77711763690E+02  0.10264613051E+03  0.00000000000E+00 0.  1.
</event>
<event>
 7    1  0.2420569E-009  0.1006775E+03  0.7561462E-02  0.1278878E+00
         -1   -1    0    0    0  501 -0.00000000000E+00  0.00000000000E+00  0.20760589796E+03  0.20760589796E+03  0.00000000000E+00 0.  1.
          1   -1    0    0  501    0  0.00000000000E+00 -0.00000000000E+00 -0.86974282382E+02  0.86974282382E+02  0.00000000000E+00 0. -1.
         25    2    1    2    0    0  0.63091886305E+02  0.27843558034E+02  0.10904200461E+03  0.17970508656E+03  0.12509160454E+03 0.  0.
          5    1    3    3  502    0  0.71591002060E+02  0.34307412311E+02  0.10140381739E+02  0.80140937462E+02  0.41800000000E+01 0.  1.
         -5    1    3    3    0  502 -0.84991157552E+01 -0.64638542772E+01  0.98901622866E+02  0.99564149101E+02  0.41800000000E+01 0.  1.
        -11    1    1    2    0    0 -0.60523844988E+02  0.19031847291E+02  0.21319272088E+02  0.66931744231E+02  0.00000000000E+00 0.  1.
         11    1    1    2    0    0 -0.25680413165E+01 -0.46875405324E+02 -0.97296611145E+01  0.47943349548E+02  0.00000000000E+00 0. -1.
</event>
<event>
 7    1  0.2420569E-009  0.1113478E+03  0.7561462E-02  0.1258094E+00
          2   -1    0    0  501    0  0.00000000000E+00  0.00000000000E+00  0.49687058660E+02  0.49687058660E+02  0.00000000000E+00 0. -1.
         -2   -1    0    0    0  501 -0.00000000000E+00 -0.00000000000E+00 -0.31187539868E+03  0.31187539868E+03  0.00000000000E+00 0.  1.
         25    2    1    2    0    0 -0.25727212929E+02 -0.32442365664E+02 -0.79999552882E+02  0.15414785308E+03  0.12508891067E+03 0.  0.
          5    1    3    3  502    0 -0.59082564584E+02 -0.57007185174E+02 -0.26534433943E+02  0.86383546951E+02  0.41800000000E+01 0.  1.
         -5    1    3    3    0  502  0.33355351655E+02  0.24564819510E+02 -0.53465118939E+02  0.67764306126E+02  0.41800000000E+01 0.  1.
        -11    1    1    2    0    0  0.19329583064E+02 -0.30215628881E+02 -0.73787985702E+02  0.82044401662E+02  0.00000000000E+00 0.  1.
         11    1    1    2    0    0  0.63976298653E+01  0.62657994544E+02 -0.10840080144E+03  0.12537020260E+03  0.00000000000E+00 0. -1.
</event>
<event>
 7    1  0.3505000E-009  0.1316937E+03  0.7561462E-02  0.1224964E+00
          2   -1    0    0  501    0  0.00000000000E+00  0.00000000000E+00  0.89251311160E+03  0.89251311160E+03  0.00000000000E+00 0. -1.
         -2   -1    0    0    0  501 -0.00000000000E+00 -0.00000000000E+00 -0.23601783834E+02  0.23601783834E+02  0.00000000000E+00 0.  1.
         25    2    1    2    0    0 -0.90768479068E+02 -0.73727496959E+01  0.37997977743E+03  0.41027452845E+03  0.12508910107E+03 0.  0.
          5    1    3    3  502    0 -0.11744710746E+03 -0.11569203837E+02  0.23797176325E+03  0.26566087787E+03  0.41800000000E+01 0. -1.
         -5    1    3    3    0  502  0.26678628393E+02  0.41964541410E+01  0.14200801419E+03  0.14461365058E+03  0.41800000000E+01 0. -1.
        -11    1    1    2    0    0  0.37552043055E+02  0.40542942786E+02  0.12679015071E+03  0.13830990010E+03  0.00000000000E+00 0.  1.
         11    1    1    2    0    0  0.53216436013E+02 -0.33170193090E+02  0.36214139962E+03  0.36753046689E+03  0.00000000000E+00 0. -1.
</event>
<event>
 7    1  0.2420569E-009  0.9504948E+02  0.7561462E-02  0.1291065E+00
          1   -1    0    0  501    0  0.00000000000E+00  0.00000000000E+00  0.51166543405E+03  0.51166543405E+03  0.00000000000E+00 0. -1.
         -1   -1    0    0    0  501 -0.00000000000E+00 -0.00000000000E+00 -0.24733332854E+02  0.24733332854E+02  0.00000000000E+00 0.  1.
         25    2    1    2    0    0  0.15168432040E+00  0.24053369188E+02  0.23405873288E+03  0.26647546696E+03  0.12508835468E+03 0.  0.
          5    1    3    3  502    0 -0.59811827020E+02  0.23279064589E+02  0.92320326148E+02  0.11251615226E+03  0.41800000000E+01 0.  1.
         -5    1    3    3    0  502  0.59963511340E+02  0.77430459974E+00  0.14173840674E+03  0.15395931470E+03  0.41800000000E+01 0.  1.
        -11    1    1    2    0    0  0.20136948113E+02 -0.36627154299E+02  0.23834126772E+03  0.24197852179E+03  0.00000000000E+00 0. -1.
         11    1    1    2    0    0 -0.20288632433E+02  0.12573785110E+02  0.14532100594E+02  0.27944778147E+02  0.00000000000E+00 0.  1.
</event>
<event>
 7    1  0.2420569E-009  0.8759002E+02  0.7561462E-02  0.1308795E+00
          1   -1    0    0  501    0  0.00000000000E+00  0.00000000000E+00  0.67791408338E+03  0.67791408338E+03  0.00000000000E+00 0. -1.
         -1   -1    0    0    0  501 -0.00000000000E+00 -0.00000000000E+00 -0.23291352305E+02  0.23291352305E+02  0.00000000000E+00 0.  1.
         25    2    1    2    0    0 -0.17338237513E+02 -0.57464676458E+02  0.30478100594E+03  0.33487595066E+03  0.12509051615E+03 0.  0.
          5    1    3    3  502    0  0.88994602501E+01  0.32327996524E+00 -0.98259454734E+01  0.13904190272E+02  0.41800000000E+01 0.  1.
         -5    1    3    3    0  502 -0.26237697763E+02 -0.57787956423E+02  0.31460695141E+03  0.32097176039E+03  0.41800000000E+01 0.  1.
        -11    1    1    2    0    0  0.45225604346E+02  0.94327825980E+01  0.22494621783E+03  0.22964131508E+03  0.00000000000E+00 0. -1.
         11    1    1    2    0    0 -0.27887366833E+02  0.48031893860E+02  0.12489550730E+03  0.13668816994E+03  0.00000000000E+00 0.  1.
</event>
<event>
 7    1  0.2420569E-009  0.1396977E+03  0.7561462E-02  0.1213736E+00
          2   -1    0    0  501    0  0.00000000000E+00  0.00000000000E+00  0.77688174724E+03  0.77688174724E+03  0.00000000000E+00 0. -1.
         -2   -1    0    0    0  501 -0.00000000000E+00 -0.00000000000E+00 -0.34663149770E+02  0.34663149770E+02  0.00000000000E+00 0.  1.
         25    2    1    2    0    0 -0.27585081838E+02  0.11137414278E+03  0.30668127530E+03  0.35052304853E+03  0.12509143260E+03 0.  0.
          5    1    3    3  502    0 -0.40807768679E+02  0.13240229250E+03  0.28641654751E+03  0.31819420506E+03  0.41800000000E+01 0.  1.
         -5    1    3    3    0  502  0.13222686840E+02 -0.21028149719E+02  0.20264727793E+02  0.32328843475E+02  0.41800000000E+01 0.  1.
        -11    1    1    2    0    0  0.10766939455E+02 -0.20277827213E+02  0.91954109451E+01  0.24732020625E+02  0.00000000000E+00 0.  1.
         11    1    1    2    0    0  0.16818142383E+02 -0.91096315570E+02  0.42634191122E+03  0.43628982785E+03  0.00000000000E+00 0. -1.
</event>
<event>
 7    1  0.2420569E-009  0.1246823E+03  0.7561462E-02  0.1235567E+00
          4   -1    0    0  501    0  0.00000000000E+00  0.00000000000E+00  0.10387170060E+03  0.10387170060E+03  0.00000000000E+00 0. -1.
         -4   -1    0    0    0  501 -0.00000000000E+00 -0.00000000000E+00 -0.19457303814E+03  0.19457303814E+03  0.00000000000E+00 0.  1.
         25    2    1    2    0    0  0.65460849510E+02 -0.47555190700E+02 -0.50175498337E+01  0.14905801063E+03  0.12508595344E+03 0.  0.
          5    1    3    3  502    0  0.87723695407E+02  0.34466100221E+01  0.16169114760E+02  0.89365757025E+02  0.41800000000E+01 0. -1.
         -5    1    3    3    0  502 -0.22262845897E+02 -0.51001800722E+02 -0.21186664593E+02  0.59692253609E+02  0.41800000000E+01 0. -1.
        -11    1    1    2    0    0 -0.76549942473E+02  0.24990902800E+02 -0.93177046214E+02  0.12315194215E+03  0.00000000000E+00 0.  1.
         11    1    1    2    0    0  0.11089092963E+02  0.22564287900E+02  0.74932585053E+01  0.26234785957E+02  0.00000000000E+00 0. -1.
</event>
<event>
 7    1  0.2420569E-009  0.1014330E+03  0.7561462E-02  0.1277311E+00
         -2   -1    0    0    0  501 -0.00000000000E+00  0.00000000000E+00  0.35876756034E+02  0.35876756034E+02  0.00000000000E+00 0.  1.
          2   -1    0    0  501    0  0.00000000000E+00 -0.00000000000E+00 -0.53930122095E+03  0.53930122095E+03  0.00000000000E+00 0. -1.
         25    2    1    2    0    0 -0.80667464992E+02 -0.38978543059E+02 -0.29206976572E+03  0.33012675361E+03  0.12510938685E+03 0.  0.
          5    1    3    3  502    0 -0.63542988038E+02 -0.53883380498E+02 -0.76063346770E+02  0.11289036781E+03  0.41800000000E+01 0. -1.
         -5    1    3    3    0  502 -0.17124476953E+02  0.14904837439E+02 -0.21600641895E+03  0.21723638580E+03  0.41800000000E+01 0. -1.
        -11    1    1    2    0    0  0.55588959193E+02  0.74630197950E+01 -0.39653192458E+02  0.68689189257E+02  0.00000000000E+00 0.  1.
         11    1    1    2    0    0  0.25078505798E+02  0.31515523264E+02 -0.17170150675E+03  0.17636203412E+03  0.00000000000E+00 0. -1.
</event>
<event>
 7    1  0.2420569E-009  0.7449447E+02  0.7561462E-02  0.1345444E+00
         -4   -1    0    0    0  501 -0.00000000000E+00  0.00000000000E+00  0.47642484073E+02  0.47642484073E+02  0.00000000000E+00 0.  1.
          4   -1    0    0  501    0  0.00000000000E+00 -0.00000000000E+00 -0.32118461821E+03  0.32118461821E+03  0.00000000000E+00 0. -1.
         25    2    1    2    0    0  0.48504844612E+02 -0.36390534198E+02 -0.15459310920E+03  0.20790300156E+03  0.12509051809E+03 0.  0.
          5    1    3    3  502    0  0.52138632485E+02 -0.49424343693E+01 -0.26122593334E+01  0.52603811209E+02  0.41800000000E+01 0.  1.
         -5    1    3    3    0  502 -0.36337878729E+01 -0.31448099829E+02 -0.15198084987E+03  0.15529919035E+03  0.41800000000E+01 0.  1.
        -11    1    1    2    0    0 -0.19091266048E+02  0.28075572051E+02  0.40423174168E+01  0.34191439212E+02  0.00000000000E+00 0.  1.
         11    1    1    2    0    0 -0.29413578565E+02  0.83149621471E+01 -0.12299134235E+03  0.12673266151E+03  0.00000000000E+00 0. -1.
</event>
<event>
 7    1  0.2420569E-009  0.2140460E+03  0.7561462E-02  0.1138401E+00
         -1   -1    0    0    0  501 -0.00000000000E+00  0.00000000000E+00  0.30898904860E+03  0.30898904860E+03  0.00000000000E+00 0.  1.
          1   -1    0    0  501    0  0.00000000000E+00 -0.00000000000E+00 -0.17931380584E+03  0.17931380584E+03  0.00000000000E+00 0. -1.
         25    2    1    2    0    0  0.17009199882E+03  0.81571019701E+02 -0.21722911740E+02  0.22738790187E+03  0.12509298025E+03 0.  0.
          5    1    3    3  502    0  0.18856954463E+03  0.67726846652E+02 -0.87981567062E+01  0.20059979781E+03  0.41800000000E+01 0. -1.
         -5    1    3    3    0  502 -0.18477545813E+02  0.13844173049E+02 -0.12924755034E+02  0.26788104065E+02  0.41800000000E+01 0. -1.
        -11    1    1    2    0    0 -0.60193273435E+02  0.10191317090E+02  0.80836673942E+02  0.10129985669E+03  0.00000000000E+00 0.  1.
         11    1    1    2    0    0 -0.10989872538E+03 -0.91762336791E+02  0.70561480557E+02  0.15961509588E+03  0.00000000000E+00 0. -1.
</event>
<event>
 7    1  0.2420569E-009  0.8190364E+02  0.7561462E-02  0.1323734E+00
         -1   -1    0    0    0  501 -0.00000000000E+00  0.00000000000E+00  0.61209707371E+02  0.61209707371E+02  0.00000000000E+00 0.  1.
          1   -1    0    0  501    0  0.00000000000E+00 -0.00000000000E+00 -0.20502690251E+03  0.20502690251E+03  0.00000000000E+00 0. -1.
         25    2    1    2    0    0 -0.16896084175E+02 -0.21087199110E+02 -0.89728679097E+02  0.15629811646E+03  0.12509083792E+03 0.  0.
          5    1    3    3  502    0 -0.16522136074E+02  0.20846631686E+02  0.23337953330E+02  0.35632786851E+02  0.41800000000E+01 0.  1.
         -5    1    3    3    0  502 -0.37394810128E+00 -0.41933830796E+02 -0.11306663243E+03  0.12066532961E+03  0.41800000000E+01 0.  1.
        -11    1    1    2    0    0 -0.22148968983E+02 -0.25615467503E+02 -0.11981469214E+02  0.35920531830E+02  0.00000000000E+00 0. -1.
         11    1    1    2    0    0  0.39045053158E+02  0.46702666613E+02 -0.42107046830E+02  0.74017961588E+02  0.00000000000E+00 0.  1.
</event>
<event>
 7    1  0.2420569E-009  0.1417587E+03  0.7561462E-02  0.1210982E+00
          1   -1    0    0  501    0  0.00000000000E+00  0.00000000000E+00  0.45491764729E+03  0.45491764729E+03  0.00000000000E+00 0. -1.
         -1   -1    0    0    0  501 -0.00000000000E+00 -0.00000000000E+00 -0.54147443678E+02  0.54147443678E+02  0.00000000000E+00 0.  1.
         25    2    1    2    0    0 -0.28480032018E+02  0.10760404203E+03  0.22415732530E+03  0.27979135279E+03  0.12508777930E+03 0.  0.
          5    1    3    3  502    0  0.29499528870E+02  0.80210187881E+02  0.62886412152E+02  0.10618883970E+03  0.41800000000E+01 0.  1.
         -5    1    3    3    0  502 -0.57979560888E+02  0.27393854145E+02  0.16127091315E+03  0.17360251310E+03  0.41800000000E+01 0.  1.
        -11    1    1    2    0    0  0.19435509207E+02  0.55213418025E+01  0.10589836145E+01  0.20232292993E+02  0.00000000000E+00 0.  1.
         11    1    1    2    0    0  0.90445228111E+01 -0.11312538383E+03  0.17555389470E+03  0.20904144518E+03  0.00000000000E+00 0. -1.
</event>
<event>
 7    1  0.2420569E-009  0.1054137E+03  0.7561462E-02  0.1269307E+00
         -1   -1    0    0    0  501 -0.00000000000E+00  0.00000000000E+00  0.93742708477E+02  0.93742708477E+02  0.00000000000E+00 0.  1.
          1   -1    0    0  501    0  0.00000000000E+00 -0.00000000000E+00 -0.21026887140E+03  0.21026887140E+03  0.00000000000E+00 0. -1.
         25    2    1    2    0    0 -0.81534073871E+02 -0.17239597330E+02 -0.10240172232E+03  0.18187551559E+03  0.12509029346E+03 0.  0.
          5    1    3    3  502    0 -0.63061220476E+02 -0.43553007407E+02 -0.12189421197E+03  0.14404601103E+03  0.41800000000E+01 0. -1.
         -5    1    3    3    0  502 -0.18472853395E+02  0.26313410077E+02  0.19492489648E+02  0.37829504558E+02  0.41800000000E+01 0. -1.
        -11    1    1    2    0    0  0.27453449188E+02  0.35225692149E+02 -0.39618658119E+02  0.59700748159E+02  0.00000000000E+00 0. -1.
         11    1    1    2    0    0  0.54080624683E+02 -0.17986094819E+02  0.25494217519E+02  0.62435316127E+02  0.00000000000E+00 0.  1.
</event>
<event>
 7    1  0.2420569E-009  0.9352436E+02  0.7561462E-02  0.1294535E+00
          1   -1    0    0  501    0  0.00000000000E+00  0.00000000000E+00  0.11221787803E+03  0.11221787803E+03  0.00000000000E+00 0. -1.
         -1   -1    0    0    0  501 -0.00000000000E+00 -0.00000000000E+00 -0.18952477578E+03  0.18952477578E+03  0.00000000000E+00 0.  1.
         25    2    1    2    0    0 -0.80317848123E+02  0.14353852346E+01  0.13773614344E+02  0.14930103686E+03  0.12509224635E+03 0.  0.
          5    1    3    3  502    0 -0.85552123493E+02  0.18235596776E+02 -0.37249854941E+02  0.95166837275E+02  0.41800000000E+01 0.  1.
         -5    1    3    3    0  502  0.52342753697E+01 -0.16800211541E+02  0.51023469285E+02  0.54134199581E+02  0.41800000000E+01 0.  1.
        -11    1    1    2    0    0  0.60548151087E+02 -0.67329251137E+01 -0.10924040306E+03  0.12507948090E+03  0.00000000000E+00 0.  1.
         11    1    1    2    0    0  0.19769697036E+02  0.52975398792E+01  0.18159890960E+02  0.27362136053E+02  0.00000000000E+00 0. -1.
</event>
<event>
 7    1  0.2420569E-009  0.9976126E+02  0.7561462E-02  0.1280799E+00
         -1   -1    0    0    0  501 -0.00000000000E+00  0.00000000000E+00  0.50713667206E+02  0.50713667206E+02  0.00000000000E+00 0.  1.
          1   -1    0    0  501    0  0.00000000000E+00 -0.00000000000E+00 -0.39335534083E+03  0.39335534083E+03  0.00000000000E+00 0. -1.
         25    2    1    2    0    0 -0.36813486341E+02  0.41883672158E+01 -0.31591508549E+03  0.34179308714E+03  0.12508955983E+03 0.  0.
          5    1    3    3  502    0  0.28621685216E+02 -0.41015619159E+02 -0.13883300446E+03  0.14762641161E+03  0.41800000000E+01 0. -1.
         -5    1    3    3    0  502 -0.65435171556E+02  0.45203986374E+02 -0.17708208103E+03  0.19416667552E+03  0.41800000000E+01 0. -1.
        -11    1    1    2    0    0  0.87624446545E+01 -0.30195054454E+02 -0.48845278118E+02  0.58089439180E+02  0.00000000000E+00 0. -1.
         11    1    1    2    0    0  0.28051041686E+02  0.26006687238E+02  0.22118689979E+02  0.44186481724E+02  0.00000000000E+00 0.  1.
</event>
<event>
 7    1  0.2420569E-009  0.1088394E+03  0.7561462E-02  0.1262734E+00
         -2   -1    0    0    0  501 -0.00000000000E+00  0.00000000000E+00  0.12447961082E+02  0.12447961082E+02  0.00000000000E+00 0.  1.
          2   -1    0    0  501    0  0.00000000000E+00 -0.00000000000E+00 -0.15163201614E+04  0.15163201614E+04  0.00000000000E+00 0. -1.
         25    2    1    2    0    0  0.59404732384E+02 -0.51319287160E+02 -0.10122332304E+04  0.10229494462E+04  0.12508743121E+03 0.  0.
          5    1    3    3  502    0  0.44262260858E+02 -0.65872279876E+02 -0.98549055629E+03  0.98868974604E+03  0.41800000000E+01 0. -1.
         -5    1    3    3    0  502  0.15142471527E+02  0.14552992716E+02 -0.26742674067E+02  0.34259700191E+02  0.41800000000E+01 0. -1.
        -11    1    1    2    0    0 -0.28109882117E+02  0.73329836846E+02 -0.37244732236E+03  0.38063688521E+03  0.00000000000E+00 0. -1.
         11    1    1    2    0    0 -0.31294850267E+02 -0.22010549686E+02 -0.11919164756E+03  0.12518179100E+03  0.00000000000E+00 0.  1.
</event>
<event>
 7    1  0.2420569E-009  0.8594551E+02  0.7561462E-02  0.1312978E+00
         -2   -1    0    0    0  501 -0.00000000000E+00  0.00000000000E+00  0.13029542685E+02  0.13029542685E+02  0.00000000000E+00 0.  1.
          2   -1    0    0  501    0  0.00000000000E+00 -0.00000000000E+00 -0.11692923761E+04  0.11692923761E+04  0.00000000000E+00 0. -1.
         25    2    1    2    0    0  0.30650343600E+02  0.23209261422E+01 -0.89350018181E+03  0.90273764663E+03  0.12509138056E+03 0.  0.
          5    1    3    3  502    0  0.24644654256E+02  0.36017653461E+02 -0.10909253615E+03  0.11757246356E+03  0.41800000000E+01 0.  1.
         -5    1    3    3    0  502  0.60056893442E+01 -0.33696727319E+02 -0.78440764566E+03  0.78516518307E+03  0.41800000000E+01 0.  1.
        -11    1    1    2    0    0 -0.56956125629E+02  0.18643076946E+02 -0.13980507846E+03  0.15210859452E+03  0.00000000000E+00 0.  1.
         11    1    1    2    0    0  0.26305782029E+02 -0.20964003088E+02 -0.12295757319E+03  0.12747567767E+03  0.00000000000E+00 0. -1.
</event>
<event>
 7    1  0.2420569E-009  0.3703255E+03  0.7561462E-02  0.1054569E+00
         -1   -1    0    0    0  501 -0.00000000000E+00  0.00000000000E+00  0.33043162897E+03  0.33043162897E+03  0.00000000000E+00 0.  1.
          1   -1    0    0  501    0  0.00000000000E+00 -0.00000000000E+00 -0.45026413768E+03  0.45026413768E+03  0.00000000000E+00 0. -1.
         25    2    1    2    0    0 -0.22765062361E+01  0.36953661772E+03 -0.70411321015E+02  0.39644484777E+03  0.12509304088E+03 0.  0.
          5    1    3    3  502    0  0.11916248305E+02  0.28190660886E+03  0.13913216762E+01  0.28219273780E+03  0.41800000000E+01 0.  1.
         -5    1    3    3    0  502 -0.14192754541E+02  0.87630008869E+02 -0.71802642692E+02  0.11425210997E+03  0.41800000000E+01 0.  1.
        -11    1    1    2    0    0 -0.10342555118E+01 -0.26571039960E+03 -0.77240467417E+02  0.27671135855E+03  0.00000000000E+00 0. -1.
         11    1    1    2    0    0  0.33107617479E+01 -0.10382621812E+03  0.27819279718E+02  0.10753956033E+03  0.00000000000E+00 0.  1.
</event>
<event>
 7    1  0.2420569E-009  0.1151669E+03  0.7561462E-02  0.1251290E+00
          1   -1    0    0  501    0  0.00000000000E+00  0.00000000000E+00  0.12908101072E+04  0.12908101072E+04  0.00000000000E+00 0. -1.
         -1   -1    0    0    0  501 -0.00000000000E+00 -0.00000000000E+00 -0.21692777538E+02  0.21692777538E+02  0.00000000000E+00 0.  1.
         25    2    1    2    0    0 -0.36888923550E+02  0.20278102541E+02  0.11463127446E+04  0.11538858355E+04  0.12509044271E+03 0.  0.
          5    1    3    3  502    0 -0.80934362716E+01 -0.52465978522E+02  0.50771229501E+03  0.51049723752E+03  0.41800000000E+01 0. -1.
         -5    1    3    3    0  502 -0.28795487278E+02  0.72744081063E+02  0.63860044959E+03  0.64338859799E+03  0.41800000000E+01 0. -1.
        -11    1    1    2    0    0 -0.24983394568E+02  0.13337640689E+02  0.49104936927E+02  0.56686484226E+02  0.00000000000E+00 0. -1.
         11    1    1    2    0    0  0.61872318118E+02 -0.33615743230E+02  0.73699648096E+02  0.10193056495E+03  0.00000000000E+00 0.  1.
</event>
<event>
 7    1  0.2578001E-009  0.1367203E+03  0.7561462E-02  0.1217811E+00
          1   -1    0    0  501    0  0.00000000000E+00  0.00000000000E+00  0.70065598134E+03  0.70065598134E+03  0.00000000000E+00 0. -1.
         -1   -1    0    0    0  501 -0.00000000000E+00 -0.00000000000E+00 -0.28221055920E+02  0.28221055920E+02  0.00000000000E+00 0.  1.
         25    2    1    2    0    0 -0.76871374556E+02 -0.44326625640E+02  0.35101851088E+03  0.38306087426E+03  0.12509028918E+03 0.  0.
          5    1    3    3  502    0 -0.94105864854E+02  0.74434928668E+01  0.26253806469E+03  0.27902513721E+03  0.41800000000E+01 0. -1.
         -5    1    3    3    0  502  0.17234490298E+02 -0.51770118507E+02  0.88480446189E+02  0.10403573705E+03  0.41800000000E+01 0. -1.
        -11    1    1    2    0    0  0.36532408607E+02 -0.24824091269E+02  0.78820633132E+02  0.90352335849E+02  0.00000000000E+00 0.  1.
         11    1    1    2    0    0  0.40338965949E+02  0.69150716909E+02  0.24259578141E+03  0.25546382714E+03  0.00000000000E+00 0. -1.
</event>
<event>
 7    1  0.2420569E-009  0.1062564E+03  0.7561462E-02  0.1267664E+00
         -1   -1    0    0    0  501 -0.00000000000E+00  0.00000000000E+00  0.17446259782E+03  0.17446259782E+03  0.00000000000E+00 0.  1.
          1   -1    0    0  501    0  0.00000000000E+00 -0.00000000000E+00 -0.73240382792E+02  0.73240382792E+02  0.00000000000E+00 0. -1.
         25    2    1    2    0    0  0.18718035994E+02 -0.22470214669E+02  0.45235361662E+02  0.13619128571E+03  0.12508618205E+03 0.  0.
          5    1    3    3  502    0 -0.25166397462E+02  0.41243469919E+02  0.30602380880E+02  0.57344132113E+02  0.41800000000E+01 0. -1.
         -5    1    3    3    0  502  0.43884433457E+02 -0.63713684588E+02  0.14632980782E+02  0.78847153596E+02  0.41800000000E+01 0. -1.
        -11    1    1    2    0    0 -0.49592678238E+02  0.25044703666E+02  0.10602089220E+02  0.56560367859E+02  0.00000000000E+00 0. -1.
         11    1    1    2    0    0  0.30874642244E+02 -0.25744889969E+01  0.45384764149E+02  0.54951327046E+02  0.00000000000E+00 0.  1.
</event>
<event>
 7    1  0.3444001E-009  0.2314494E+03  0.7561462E-02  0.1125624E+00
         -1   -1    0    0    0  501 -0.00000000000E+00  0.00000000000E+00  0.53575979692E+02  0.53575979692E+02  0.00000000000E+00 0.  1.
          1   -1    0    0  501    0  0.00000000000E+00 -0.00000000000E+00 -0.11318516449E+04  0.11318516449E+04  0.00000000000E+00 0. -1.
         25    2    1    2    0    0  0.75998980357E+01  0.21621782870E+03 -0.45091927167E+03  0.51554124450E+03  0.12508667926E+03 0.  0.
          5    1    3    3  502    0 -0.48195221147E+02  0.44207337511E+02 -0.84742827060E+02  0.10712556730E+03  0.41800000000E+01 0. -1.
         -5    1    3    3    0  502  0.55795119182E+02  0.17201049118E+03 -0.36617644461E+03  0.40841567720E+03  0.41800000000E+01 0. -1.
        -11    1    1    2    0    0 -0.77710458508E+01 -0.11319173578E+03 -0.19668483279E+03  0.22706316666E+03  0.00000000000E+00 0.  1.
         11    1    1    2    0    0  0.17114781511E+00 -0.10302609292E+03 -0.43067156072E+03  0.44282321340E+03  0.00000000000E+00 0. -1.
</event>
<event>
 7    1  0.2420569E-009  0.1131473E+03  0.7561462E-02  0.1254850E+00
         -2   -1    0    0    0  501 -0.00000000000E+00  0.00000000000E+00  0.53274347216E+03  0.53274347216E+03  0.00000000000E+00 0.  1.
          2   -1    0    0  501    0  0.00000000000E+00 -0.00000000000E+00 -0.24781880517E+02  0.24781880517E+02  0.00000000000E+00 0. -1.
         25    2    1    2    0    0  0.31017727733E+02 -0.24507428147E+02  0.28057359465E+03  0.30972866329E+03  0.12509032489E+03 0.  0.
          5    1    3    3  502    0  0.58778977585E+02 -0.60745603971E+02  0.19697710419E+03  0.21438854582E+03  0.41800000000E+01 0.  1.
         -5    1    3    3    0  502 -0.27761249852E+02  0.36238175824E+02  0.83596490464E+02  0.95340117465E+02  0.41800000000E+01 0.  1.
        -11    1    1    2    0    0 -0.50344673876E+02 -0.14413441519E+02  0.15216550539E+03  0.16092443728E+03  0.00000000000E+00 0.  1.
         11    1    1    2    0    0  0.19326946143E+02  0.38920869666E+02  0.75222491605E+02  0.86872252107E+02  0.00000000000E+00 0. -1.
</event>
<event>
 7    1  0.2420569E-009  0.8598394E+02  0.7561462E-02  0.1312879E+00
         -2   -1    0    0    0  501 -0.00000000000E+00  0.00000000000E+00  0.66851207195E+02  0.66851207195E+02  0.00000000000E+00 0. -1.
          2   -1    0    0  501    0  0.00000000000E+00 -0.00000000000E+00 -0.23686190444E+03  0.23686190444E+03  0.00000000000E+00 0.  1.
         25    2    1    2    0    0  0.49808272576E+02 -0.36357996387E+02 -0.10800344063E+03  0.17639393681E+03  0.12508920752E+03 0.  0.
          5    1    3    3  502    0  0.69970665971E+02 -0.85611968171E+01 -0.85936354153E+01  0.71137269817E+02  0.41800000000E+01 0. -1.
         -5    1    3    3    0  502 -0.20162393394E+02 -0.27796799570E+02 -0.99409805218E+02  0.10525666700E+03  0.41800000000E+01 0. -1.
        -11    1    1    2    0    0 -0.11417205838E+02 -0.29720860132E+01  0.23140205822E+02  0.25974121928E+02  0.00000000000E+00 0. -1.
         11    1    1    2    0    0 -0.38391066739E+02  0.39330082400E+02 -0.85147462431E+02  0.10134505289E+03  0.00000000000E+00 0.  1.
</event>
<event>
 7    1  0.2420569E-009  0.7454824E+02  0.7561462E-02  0.1345276E+00
         -2   -1    0    0    0  501 -0.00000000000E+00  0.00000000000E+00  0.79989368827E+02  0.79989368827E+02  0.00000000000E+00 0.  1.
          2   -1    0    0  501    0  0.00000000000E+00 -0.00000000000E+00 -0.29931023051E+03  0.29931023051E+03  0.00000000000E+00 0. -1.
         25    2    1    2    0    0 -0.47659644823E+02 -0.19253703325E+02  0.26059781444E+01  0.13526650704E+03  0.12509232578E+03 0.  0.
          5    1    3    3  502    0 -0.21380772143E+01 -0.21710858111E+02 -0.56381273352E+02  0.60599118137E+02  0.41800000000E+01 0. -1.
         -5    1    3    3    0  502 -0.45521567609E+02  0.24571547868E+01  0.58987251497E+02  0.74667388908E+02  0.41800000000E+01 0. -1.
        -11    1    1    2    0    0  0.37336213811E+02 -0.18710347466E+02 -0.18640867468E+03  0.19102948453E+03  0.00000000000E+00 0. -1.
         11    1    1    2    0    0  0.10323431013E+02  0.37964050791E+02 -0.35518165148E+02  0.53003607762E+02  0.00000000000E+00 0.  1.
</event>
<event>
 7    1  0.2420569E-009  0.9457235E+02  0.7561462E-02  0.1292142E+00
          1   -1    0    0  501    0  0.00000000000E+00  0.00000000000E+00  0.70872212459E+03  0.70872212459E+03  0.00000000000E+00 0. -1.
         -1   -1    0    0    0  501 -0.00000000000E+00 -0.00000000000E+00 -0.17183292231E+02  0.17183292231E+02  0.00000000000E+00 0.  1.
         25    2    1    2    0    0  0.14479427486E+02  0.13658711760E+02  0.44024203026E+03  0.45810133193E+03  0.12509025096E+03 0.  0.
          5    1    3    3  502    0 -0.40494111785E+02  0.69167182933E+01  0.54476265779E+02  0.68357516152E+02  0.41800000000E+01 0.  1.
         -5    1    3    3    0  502  0.54973539271E+02  0.67419934671E+01  0.38576576448E+03  0.38974381578E+03  0.41800000000E+01 0.  1.
        -11    1    1    2    0    0  0.35944169083E+02 -0.20570289247E+02  0.12278204430E+03  0.12957835657E+03  0.00000000000E+00 0. -1.
         11    1    1    2    0    0 -0.50423596568E+02  0.69115774862E+01  0.12851475780E+03  0.13822572831E+03  0.00000000000E+00 0.  1.
</event>
<event>
 7    1  0.2750077E-009  0.1416695E+03  0.7561462E-02  0.1211100E+00
         -2   -1    0    0    0  501 -0.00000000000E+00  0.00000000000E+00  0.14568900907E+03  0.14568900907E+03  0.00000000000E+00 0.  1.
          2   -1    0    0  501    0  0.00000000000E+00 -0.00000000000E+00 -0.16858723487E+03  0.16858723487E+03  0.00000000000E+00 0. -1.
         25    2    1    2    0    0 -0.64698943115E+02 -0.90159485770E+02 -0.33434230331E+02  0.17053079575E+03  0.12509283923E+03 0.  0.
          5    1    3    3  502    0 -0.10141196824E+03 -0.57848144567E+02 -0.33175869722E+02  0.12144507345E+03  0.41800000000E+01 0.  1.
         -5    1    3    3    0  502  0.36713025125E+02 -0.32311341203E+02 -0.25836060858E+00  0.49085722307E+02  0.41800000000E+01 0.  1.
        -11    1    1    2    0    0  0.86248413434E+00  0.29031289191E+02  0.41011846505E+02  0.50254663313E+02  0.00000000000E+00 0.  1.
         11    1    1    2    0    0  0.63836458981E+02  0.61128196579E+02 -0.30475841982E+02  0.93490784876E+02  0.00000000000E+00 0. -1.
</event>
<event>
 7    1  0.2420569E-009  0.2224058E+03  0.7561462E-02  0.1132102E+00
          1   -1    0    0  501    0  0.00000000000E+00  0.00000000000E+00  0.81686947108E+03  0.81686947108E+03  0.00000000000E+00 0. -1.
         -1   -1    0    0    0  501 -0.00000000000E+00 -0.00000000000E+00 -0.72153806364E+02  0.72153806364E+02  0.00000000000E+00 0.  1.
         25    2    1    2    0    0  0.67775711200E+02  0.18187311012E+03  0.20951632576E+03  0.31179574223E+03  0.12509244141E+03 0.  0.
          5    1    3    3  502    0 -0.20457017425E+02 -0.55963007563E+01  0.33644239560E+02  0.39990191293E+02  0.41800000000E+01 0.  1.
         -5    1    3    3    0  502  0.88232728625E+02  0.18746941088E+03  0.17587208620E+03  0.27180555093E+03  0.41800000000E+01 0.  1.
        -11    1    1    2    0    0 -0.80594840095E+02 -0.80970951212E+02  0.29741223756E+03  0.31859984658E+03  0.00000000000E+00 0.  1.
         11    1    1    2    0    0  0.12819128895E+02 -0.10090215891E+03  0.23778710140E+03  0.25862768864E+03  0.00000000000E+00 0. -1.
</event>
<event>
 7    1  0.2420569E-009  0.2026201E+03  0.7561462E-02  0.1147547E+00
          2   -1    0    0  501    0  0.00000000000E+00  0.00000000000E+00  0.17438395843E+04  0.17438395843E+04  0.00000000000E+00 0. -1.
         -2   -1    0    0    0  501 -0.00000000000E+00 -0.00000000000E+00 -0.23973573777E+02  0.23973573777E+02  0.00000000000E+00 0.  1.
         25    2    1    2    0    0  0.12231772500E+02 -0.16985831991E+03  0.86358529194E+03  0.88906048108E+03  0.12509003743E+03 0.  0.
          5    1    3    3  502    0  0.64601611612E+02 -0.11685588917E+03  0.62320456587E+03  0.63736180492E+03  0.41800000000E+01 0. -1.
         -5    1    3    3    0  502 -0.52369839112E+02 -0.53002430740E+02  0.24038072607E+03  0.25169867616E+03  0.41800000000E+01 0. -1.
        -11    1    1    2    0    0  0.41151046750E+02  0.43652342892E+02  0.23462403936E+03  0.24217220223E+03  0.00000000000E+00 0. -1.
         11    1    1    2    0    0 -0.53382819250E+02  0.12620597702E+03  0.62165667924E+03  0.63658047478E+03  0.00000000000E+00 0.  1.
</event>
<event>
 7    1  0.2420569E-009  0.9779875E+02  0.7561462E-02  0.1284994E+00
         -2   -1    0    0    0  501 -0.00000000000E+00  0.00000000000E+00  0.30596867030E+02  0.30596867030E+02  0.00000000000E+00 0.  1.
          2   -1    0    0  501    0  0.00000000000E+00 -0.00000000000E+00 -0.56684344832E+03  0.56684344832E+03  0.00000000000E+00 0. -1.
         25    2    1    2    0    0 -0.68346865878E+02 -0.24363779299E+02 -0.25313913587E+03  0.29153561025E+03  0.12509477254E+03 0.  0.
          5    1    3    3  502    0 -0.24179078469E+02  0.28401888446E+02 -0.20262311757E+03  0.20607012224E+03  0.41800000000E+01 0. -1.
         -5    1    3    3    0  502 -0.44167787410E+02 -0.52765667745E+02 -0.50516018300E+02  0.85465488018E+02  0.41800000000E+01 0. -1.
        -11    1    1    2    0    0  0.13521857933E+02 -0.16070879489E+02 -0.79779263796E+01  0.22466889389E+02  0.00000000000E+00 0.  1.
         11    1    1    2    0    0  0.54825007945E+02  0.40434658788E+02 -0.27512951904E+03  0.28343781571E+03  0.00000000000E+00 0. -1.
</event>
<event>
 7    1  0.2420569E-009  0.9832828E+02  0.7561462E-02  0.1283851E+00
          2   -1    0    0  501    0  0.00000000000E+00  0.00000000000E+00  0.46021588734E+03  0.46021588734E+03  0.00000000000E+00 0. -1.
         -2   -1    0    0    0  501 -0.00000000000E+00 -0.00000000000E+00 -0.51415964718E+02  0.51415964718E+02  0.00000000000E+00 0.  1.
         25    2    1    2    0    0 -0.23889593438E+02 -0.82445805662E+01  0.39616621260E+03  0.41621419821E+03  0.12509158648E+03 0.  0.
          5    1    3    3  502    0 -0.71708739267E+01 -0.57566341577E+02  0.31028903317E+03  0.31569298634E+03  0.41800000000E+01 0. -1.
         -5    1    3    3    0  502 -0.16718719512E+02  0.49321761011E+02  0.85877179425E+02  0.10052121188E+03  0.41800000000E+01 0. -1.
        -11    1    1    2    0    0  0.91914023537E+01 -0.37287398248E+02 -0.13736471448E+02  0.40786303990E+02  0.00000000000E+00 0.  1.
         11    1    1    2    0    0  0.14698191085E+02  0.45531978814E+02  0.26370181472E+02  0.54631349853E+02  0.00000000000E+00 0. -1.
</event>
<event>
 7    1  0.2420569E-009  0.1412005E+03  0.7561462E-02  0.1211723E+00
         -1   -1    0    0    0  501 -0.00000000000E+00  0.00000000000E+00  0.27631244047E+03  0.27631244047E+03  0.00000000000E+00 0.  1.
          1   -1    0    0  501    0  0.00000000000E+00 -0.00000000000E+00 -0.89191561355E+02  0.89191561355E+02  0.00000000000E+00 0. -1.
         25    2    1    2    0    0 -0.64621275932E+02 -0.89707844183E+02  0.72181817468E+02  0.18187906048E+03  0.12508545582E+03 0.  0.
          5    1    3    3  502    0 -0.18177690604E+02 -0.91132935684E+02  0.92326831207E+02  0.13106241476E+03  0.41800000000E+01 0.  1.
         -5    1    3    3    0  502 -0.46443585328E+02  0.14250915002E+01 -0.20145013739E+02  0.50816645722E+02  0.41800000000E+01 0.  1.
        -11    1    1    2    0    0  0.31467204788E+02  0.10247577580E+03  0.79652464950E+02  0.13355143120E+03  0.00000000000E+00 0. -1.
         11    1    1    2    0    0  0.33154071144E+02 -0.12767931621E+02  0.35286596699E+02  0.50073510141E+02  0.00000000000E+00 0.  1.
</event>
<event>
 7    1  0.2420569E-009  0.1506850E+03  0.7561462E-02  0.1199634E+00
          2   -1    0    0  501    0  0.00000000000E+00  0.00000000000E+00  0.49956163463E+03  0.49956163463E+03  0.00000000000E+00 0. -1.
         -2   -1    0    0    0  501 -0.00000000000E+00 -0.00000000000E+00 -0.63557051734E+02  0.63557051734E+02  0.00000000000E+00 0.  1.
         25    2    1    2    0    0 -0.21834002754E+02 -0.12110906574E+03  0.33738908406E+03  0.38029354181E+03  0.12509058485E+03 0.  0.
          5    1    3    3  502    0 -0.16839851908E+02  0.24331926544E+02  0.56449562183E+02  0.63872127977E+02  0.41800000000E+01 0. -1.
         -5    1    3    3    0  502 -0.49941508456E+01 -0.14544099228E+03  0.28093952188E+03  0.31642141383E+03  0.41800000000E+01 0. -1.
        -11    1    1    2    0    0  0.11756503381E+01  0.78864447214E+02  0.61793636595E+01  0.79114902031E+02  0.00000000000E+00 0.  1.
         11    1    1    2    0    0  0.20658352416E+02  0.42244618521E+02  0.92436135171E+02  0.10371024252E+03  0.00000000000E+00 0. -1.
</event>
<event>
 7    1  0.2420569E-009  0.8690543E+02  0.7561462E-02  0.1310524E+00
         -1   -1    0    0    0  501 -0.00000000000E+00  0.00000000000E+00  0.71107041296E+02  0.71107041296E+02  0.00000000000E+00 0.  1.
          1   -1    0    0  501    0  0.00000000000E+00 -0.00000000000E+00 -0.17958817844E+03  0.17958817844E+03  0.00000000000E+00 0. -1.
         25    2    1    2    0    0  0.24609574381E+02 -0.79743152301E+01 -0.70851513630E+02  0.14606792861E+03  0.12508669766E+03 0.  0.
          5    1    3    3  502    0  0.57071490928E+02  0.39780366072E+02 -0.42175155890E+02  0.81460719220E+02  0.41800000000E+01 0.  1.
         -5    1    3    3    0  502 -0.32461916547E+02 -0.47754681302E+02 -0.28676357740E+02  0.64607209392E+02  0.41800000000E+01 0.  1.
        -11    1    1    2    0    0 -0.34514543888E+02  0.18203375636E+01  0.23887923056E+02  0.42014286101E+02  0.00000000000E+00 0.  1.
         11    1    1    2    0    0  0.99049695067E+01  0.61539776665E+01 -0.61517546569E+02  0.62613005022E+02  0.00000000000E+00 0. -1.
</event>
<event>
 7    1  0.2420569E-009  0.9530650E+02  0.7561462E-02  0.1290487E+00
         -1   -1    0    0    0  501 -0.00000000000E+00  0.00000000000E+00  0.24156308211E+03  0.24156308211E+03  0.00000000000E+00 0.  1.
          1   -1    0    0  501    0  0.00000000000E+00 -0.00000000000E+00 -0.56162732404E+02  0.56162732404E+02  0.00000000000E+00 0. -1.
         25    2    1    2    0    0  0.18369831118E+01 -0.39031206252E+02  0.12690972666E+03  0.18243525638E+03  0.12509889880E+03 0.  0.
          5    1    3    3  502    0  0.87104945752E+01  0.33726024287E+02 -0.95974217912E+00  0.35095739557E+02  0.41800000000E+01 0.  1.
         -5    1    3    3    0  502 -0.68735114634E+01 -0.72757230540E+02  0.12786946884E+03  0.14733951682E+03  0.41800000000E+01 0.  1.
        -11    1    1    2    0    0  0.15366975006E+02  0.56057128442E+02  0.67846914990E+02  0.89340637135E+02  0.00000000000E+00 0.  1.
         11    1    1    2    0    0 -0.17203958118E+02 -0.17025922189E+02 -0.93562919407E+01  0.25949921006E+02  0.00000000000E+00 0. -1.
</event>
<event>
 7    1  0.2420569E-009  0.7995385E+02  0.7561462E-02  0.1329182E+00
          1   -1    0    0  501    0  0.00000000000E+00  0.00000000000E+00  0.22037115864E+02  0.22037115864E+02  0.00000000000E+00 0. -1.
         -1   -1    0    0    0  501 -0.00000000000E+00 -0.00000000000E+00 -0.63244607447E+03  0.63244607447E+03  0.00000000000E+00 0.  1.
         25    2    1    2    0    0  0.92555489321E+01 -0.97476804206E+00 -0.47660758076E+03  0.49283352708E+03  0.12507391422E+03 0.  0.
          5    1    3    3  502    0  0.42309923874E+01  0.54527068199E+02 -0.12087418581E+03  0.13273712238E+03  0.41800000000E+01 0.  1.
         -5    1    3    3    0  502  0.50245565447E+01 -0.55501836241E+02 -0.35573339495E+03  0.36009640470E+03  0.41800000000E+01 0.  1.
        -11    1    1    2    0    0 -0.17110918764E+02 -0.20266953362E+02 -0.13630707553E+03  0.13886378858E+03  0.00000000000E+00 0.  1.
         11    1    1    2    0    0  0.78553698320E+01  0.21241721404E+02  0.25056976888E+01  0.22785874667E+02  0.00000000000E+00 0. -1.
</event>
<event>
 7    1  0.2420569E-009  0.1319856E+03  0.7561462E-02  0.1224539E+00
          2   -1    0    0  501    0  0.00000000000E+00  0.00000000000E+00  0.22415959900E+03  0.22415959900E+03  0.00000000000E+00 0. -1.
         -2   -1    0    0    0  501 -0.00000000000E+00 -0.00000000000E+00 -0.10915247968E+03  0.10915247968E+03  0.00000000000E+00 0.  1.
         25    2    1    2    0    0 -0.87505049327E+02  0.41291814892E+02  0.12308145392E+03  0.20039674120E+03  0.12509061495E+03 0.  0.
          5    1    3    3  502    0 -0.95265773333E+02  0.58624926467E+01  0.29567063597E+02  0.10000809986E+03  0.41800000000E+01 0. -1.
         -5    1    3    3    0  502  0.77607240062E+01  0.35429322246E+02  0.93514390318E+02  0.10038864133E+03  0.41800000000E+01 0. -1.
        -11    1    1    2    0    0 -0.18068721660E+02 -0.14060889032E+02  0.39206345331E+01  0.23228402398E+02  0.00000000000E+00 0.  1.
         11    1    1    2    0    0  0.10557377099E+03 -0.27230925861E+02 -0.11994969132E+02  0.10968693508E+03  0.00000000000E+00 0. -1.
</event>
<event>
 7    1  0.2420569E-009  0.1033013E+03  0.7561462E-02  0.1273503E+00
          2   -1    0    0  501    0  0.00000000000E+00  0.00000000000E+00  0.85264507711E+03  0.85264507711E+03  0.00000000000E+00 0. -1.
         -2   -1    0    0    0  501 -0.00000000000E+00 -0.00000000000E+00 -0.16833861242E+02  0.16833861242E+02  0.00000000000E+00 0.  1.
         25    2    1    2    0    0  0.50182090254E+02 -0.86204214073E+01  0.51213451216E+03  0.52964273090E+03  0.12508840875E+03 0.  0.
          5    1    3    3  502    0  0.65347228852E+02 -0.55173009249E+02  0.34179594652E+03  0.35235814554E+03  0.41800000000E+01 0.  1.
         -5    1    3    3    0  502 -0.15165138599E+02  0.46552587842E+02  0.17033856564E+03  0.17728458536E+03  0.41800000000E+01 0.  1.
        -11    1    1    2    0    0 -0.60582129827E+02  0.98062594075E+01  0.32360045302E+03  0.32936850240E+03  0.00000000000E+00 0. -1.
         11    1    1    2    0    0  0.10400039573E+02 -0.11858380001E+01  0.76250687667E-01  0.10467705052E+02  0.00000000000E+00 0.  1.
</event>
<event>
 7    1  0.2420569E-009  0.1042037E+03  0.7561462E-02  0.1271697E+00
          1   -1    0    0  501    0  0.00000000000E+00  0.00000000000E+00  0.16807007789E+03  0.16807007789E+03  0.00000000000E+00 0. -1.
         -1   -1    0    0    0  501 -0.00000000000E+00 -0.00000000000E+00 -0.81235134464E+02  0.81235134464E+02  0.00000000000E+00 0.  1.
         25    2    1    2    0    0 -0.10775286032E+02  0.33552810210E+02  0.24088700817E+02  0.13218251878E+03  0.12510017946E+03 0.  0.
          5    1    3    3  502    0 -0.61459748878E+02  0.29430281587E+02 -0.12487484137E+02  0.69403543616E+02  0.41800000000E+01 0. -1.
         -5    1    3    3    0  502  0.50684462846E+02  0.41225286231E+01  0.36576184953E+02  0.62778975159E+02  0.41800000000E+01 0. -1.
        -11    1    1    2    0    0 -0.13101187958E+02 -0.55291764971E+02  0.62988476143E+02  0.84831412380E+02  0.00000000000E+00 0.  1.
         11    1    1    2    0    0  0.23876473989E+02  0.21738954761E+02 -0.24223353450E+00  0.32291281197E+02  0.00000000000E+00 0. -1.
</event>
<event>
 7    1  0.2420569E-009  0.1053875E+03  0.7561462E-02  0.1269358E+00
         -2   -1    0    0    0  501 -0.00000000000E+00  0.00000000000E+00  0.11559564819E+03  0.11559564819E+03  0.00000000000E+00 0.  1.
          2   -1    0    0  501    0  0.00000000000E+00 -0.00000000000E+00 -0.12615926930E+03  0.12615926930E+03  0.00000000000E+00 0. -1.
         25    2    1    2    0    0 -0.37012720519E+02 -0.37055701973E+02 -0.15193688494E+02  0.13646170313E+03  0.12509149341E+03 0.  0.
          5    1    3    3  502    0 -0.48388186572E+02  0.35991697763E+02 -0.15535188642E+02  0.62415009363E+02  0.41800000000E+01 0. -1.
         -5    1    3    3    0  502  0.11375466053E+02 -0.73047399735E+02  0.34150014826E+00  0.74046693771E+02  0.41800000000E+01 0. -1.
        -11    1    1    2    0    0  0.32817855519E+02 -0.57070172991E+01 -0.33938565666E+02  0.47554262972E+02  0.00000000000E+00 0. -1.
         11    1    1    2    0    0  0.41948649998E+01  0.42762719272E+02  0.38568633051E+02  0.57738951388E+02  0.00000000000E+00 0.  1.
</event>
<event>
 7    1  0.2420569E-009  0.1179140E+03  0.7561462E-02  0.1246578E+00
         -2   -1    0    0    0  501 -0.00000000000E+00  0.00000000000E+00  0.35490334794E+02  0.35490334794E+02  0.00000000000E+00 0.  1.
          2   -1    0    0  501    0  0.00000000000E+00 -0.00000000000E+00 -0.51022785904E+03  0.51022785904E+03  0.00000000000E+00 0. -1.
         25    2    1    2    0    0  0.13323706051E+02  0.76249800146E+02 -0.28790658604E+03  0.32330938476E+03  0.12508877977E+03 0.  0.
          5    1    3    3  502    0 -0.11411356823E+02 -0.19885361650E+02 -0.55135458236E+01  0.23948241273E+02  0.41800000000E+01 0. -1.
         -5    1    3    3    0  502  0.24735062874E+02  0.96135161797E+02 -0.28239304022E+03  0.29936114349E+03  0.41800000000E+01 0. -1.
        -11    1    1    2    0    0 -0.24246486887E+02  0.10001843137E+02 -0.15989983581E+02  0.30718212308E+02  0.00000000000E+00 0.  1.
         11    1    1    2    0    0  0.10922780836E+02 -0.86251643283E+02 -0.17084095462E+03  0.19169059676E+03  0.00000000000E+00 0. -1.
</event>
<event>
 7    1  0.2420569E-009  0.1127559E+03  0.7561462E-02  0.1255550E+00
          2   -1    0    0  501    0  0.00000000000E+00  0.00000000000E+00  0.69957315744E+02  0.69957315744E+02  0.00000000000E+00 0. -1.
         -2   -1    0    0    0  501 -0.00000000000E+00 -0.00000000000E+00 -0.19782482757E+03  0.19782482757E+03  0.00000000000E+00 0.  1.
         25    2    1    2    0    0 -0.22829901322E+02 -0.11565808044E+02 -0.10866901257E+03  0.16766394506E+03  0.12508905575E+03 0.  0.
          5    1    3    3  502    0  0.49870616523E+02  0.10593261610E+02 -0.50316386624E+02  0.71753095730E+02  0.41800000000E+01 0. -1.
         -5    1    3    3    0  502 -0.72700517845E+02 -0.22159069654E+02 -0.58352625951E+02  0.95910849325E+02  0.41800000000E+01 0. -1.
        -11    1    1    2    0    0  0.14011414702E+02  0.53543294034E+02 -0.11823247735E+02  0.56594993285E+02  0.00000000000E+00 0.  1.
         11    1    1    2    0    0  0.88184866206E+01 -0.41977485990E+02 -0.73752515167E+01  0.43523204975E+02  0.00000000000E+00 0. -1.
</event>
<event>
 7    1  0.2420569E-009  0.1102693E+03  0.7561462E-02  0.1260072E+00
         -2   -1    0    0    0  501 -0.00000000000E+00  0.00000000000E+00  0.23423606061E+02  0.23423606061E+02  0.00000000000E+00 0.  1.
          2   -1    0    0  501    0  0.00000000000E+00 -0.00000000000E+00 -0.52886792971E+03  0.52886792971E+03  0.00000000000E+00 0. -1.
         25    2    1    2    0    0  0.15473927929E+02 -0.17267744019E+02 -0.26786700083E+03  0.29654351582E+03  0.12509080388E+03 0.  0.
          5    1    3    3  502    0  0.69240200887E+02 -0.22782570996E+02 -0.15376710731E+03  0.17022058233E+03  0.41800000000E+01 0.  1.
         -5    1    3    3    0  502 -0.53766272958E+02  0.55148269767E+01 -0.11409989352E+03  0.12632293349E+03  0.41800000000E+01 0.  1.
        -11    1    1    2    0    0  0.29359532533E+02 -0.19575618024E+02 -0.11164100634E+03  0.11708501727E+03  0.00000000000E+00 0. -1.
         11    1    1    2    0    0 -0.44833460461E+02  0.36843362043E+02 -0.12593631648E+03  0.13866300268E+03  0.00000000000E+00 0.  1.
</event>
<event>
 7    1  0.2420569E-009  0.2298781E+03  0.7561462E-02  0.1126726E+00
          1   -1    0    0  501    0  0.00000000000E+00  0.00000000000E+00  0.53455401258E+02  0.53455401258E+02  0.00000000000E+00 0. -1.
         -1   -1    0    0    0  501 -0.00000000000E+00 -0.00000000000E+00 -0.10908839068E+04  0.10908839068E+04  0.00000000000E+00 0.  1.
         25    2    1    2    0    0  0.88349406879E+02 -0.19633948904E+03 -0.55772467942E+03  0.61078497584E+03  0.12508659409E+03 0.  0.
          5    1    3    3  502    0  0.67812433248E+02 -0.36920732014E+02 -0.10533068933E+03  0.13066634253E+03  0.41800000000E+01 0.  1.
         -5    1    3    3    0  502  0.20536973630E+02 -0.15941875702E+03 -0.45239399009E+03  0.48011863330E+03  0.41800000000E+01 0.  1.
        -11    1    1    2    0    0 -0.67367232934E+02  0.85593526154E+02 -0.15193552854E+03  0.18694651809E+03  0.00000000000E+00 0. -1.
         11    1    1    2    0    0 -0.20982173945E+02  0.11074596288E+03 -0.32776829754E+03  0.34660781409E+03  0.00000000000E+00 0.  1.
</event>
<event>
 7    1  0.2420569E-009  0.1751192E+03  0.7561462E-02  0.1172612E+00
         -2   -1    0    0    0  501 -0.00000000000E+00  0.00000000000E+00  0.38995978621E+02  0.38995978621E+02  0.00000000000E+00 0.  1.
          2   -1    0    0  501    0  0.00000000000E+00 -0.00000000000E+00 -0.10422436413E+04  0.10422436413E+04  0.00000000000E+00 0. -1.
         25    2    1    2    0    0 -0.15773226163E+03 -0.31282540476E+02 -0.37887053380E+03  0.43017257490E+03  0.12508996410E+03 0.  0.
          5    1    3    3  502    0  0.39335040997E+01 -0.96094337889E+01  0.55969780015E+01  0.12514481012E+02  0.41800000000E+01 0.  1.
         -5    1    3    3    0  502 -0.16166576573E+03 -0.21673106687E+02 -0.38446751180E+03  0.41765809389E+03  0.41800000000E+01 0.  1.
        -11    1    1    2    0    0  0.99948201666E+01 -0.17621289355E+02 -0.27016048619E+02  0.33767930818E+02  0.00000000000E+00 0.  1.
         11    1    1    2    0    0  0.14773744146E+03  0.48903829831E+02 -0.59736108028E+03  0.61729911422E+03  0.00000000000E+00 0. -1.
</event>
<event>
 7    1  0.2420569E-009  0.1543066E+03  0.7561462E-02  0.1195279E+00
         -2   -1    0    0    0  501 -0.00000000000E+00  0.00000000000E+00  0.29041412964E+02  0.29041412964E+02  0.00000000000E+00 0.  1.
          2   -1    0    0  501    0  0.00000000000E+00 -0.00000000000E+00 -0.44941207031E+04  0.44941207031E+04  0.00000000000E+00 0. -1.
         25    2    1    2    0    0  0.13406366440E+03 -0.69005603144E+02 -0.41949828796E+04  0.41995551032E+04  0.12508743046E+03 0.  0.
          5    1    3    3  502    0  0.13211624816E+03 -0.55532697337E+02 -0.22718913648E+04  0.22764108657E+04  0.41800000000E+01 0.  1.
         -5    1    3    3    0  502  0.19474162440E+01 -0.13472905806E+02 -0.19230915148E+04  0.19231442375E+04  0.41800000000E+01 0.  1.
        -11    1    1    2    0    0 -0.15974461635E+02  0.11282786823E+02  0.36908815739E+01  0.19902444820E+02  0.00000000000E+00 0.  1.
         11    1    1    2    0    0 -0.11808920276E+03  0.57722816320E+02 -0.27378729211E+03  0.30370456805E+03  0.00000000000E+00 0. -1.
</event>
<event>
 7    1  0.2420569E-009  0.1543974E+03  0.7561462E-02  0.1195171E+00
          2   -1    0    0  501    0  0.00000000000E+00  0.00000000000E+00  0.32798666452E+03  0.32798666452E+03  0.00000000000E+00 0. -1.
         -2   -1    0    0    0  501 -0.00000000000E+00 -0.00000000000E+00 -0.87385410710E+02  0.87385410710E+02  0.00000000000E+00 0.  1.
         25    2    1    2    0    0 -0.75710545407E+02 -0.10408477343E+03  0.13443161311E+03  0.22424467467E+03  0.12509232098E+03 0.  0.
          5    1    3    3  502    0  0.12907722943E+01 -0.10212269235E+03  0.72439802438E+02  0.12528251180E+03  0.41800000000E+01 0. -1.
         -5    1    3    3    0  502 -0.77001317701E+02 -0.19620810891E+01  0.61991810668E+02  0.98962162870E+02  0.41800000000E+01 0. -1.
        -11    1    1    2    0    0  0.36692801959E+02  0.62042699635E+02  0.18800958147E+01  0.72105430127E+02  0.00000000000E+00 0.  1.
         11    1    1    2    0    0  0.39017743448E+02  0.42042073800E+02  0.10428954489E+03  0.11902197044E+03  0.00000000000E+00 0. -1.
</event>
<event>
 7    1  0.2420569E-009  0.2019705E+03  0.7561462E-02  0.1148087E+00
         -1   -1    0    0    0  501 -0.00000000000E+00  0.00000000000E+00  0.55442244659E+02  0.55442244659E+02  0.00000000000E+00 0.  1.
          1   -1    0    0  501    0  0.00000000000E+00 -0.00000000000E+00 -0.94652249514E+03  0.94652249514E+03  0.00000000000E+00 0. -1.
         25    2    1    2    0    0  0.17506518674E+03 -0.18276732202E+02 -0.67308021760E+03  0.70687083714E+03  0.12509013761E+03 0.  0.
          5    1    3    3  502    0  0.19061865587E+03 -0.56249788922E+01 -0.64126850204E+03  0.66903652849E+03  0.41800000000E+01 0.  1.
         -5    1    3    3    0  502 -0.15553469130E+02 -0.12651753309E+02 -0.31811715562E+02  0.37834308646E+02  0.41800000000E+01 0.  1.
        -11    1    1    2    0    0 -0.74738201694E+02 -0.31031052939E+02 -0.56571784566E+02  0.98737489577E+02  0.00000000000E+00 0.  1.
         11    1    1    2    0    0 -0.10032698505E+03  0.49307785141E+02 -0.16142824831E+03  0.19635641308E+03  0.00000000000E+00 0. -1.
</event>
<event>
 7    1  0.2420569E-009  0.1505595E+03  0.7561462E-02  0.1199787E+00
         -2   -1    0    0    0  501 -0.00000000000E+00  0.00000000000E+00  0.26287090252E+02  0.26287090252E+02  0.00000000000E+00 0.  1.
          2   -1    0    0  501    0  0.00000000000E+00 -0.00000000000E+00 -0.10853759433E+04  0.10853759433E+04  0.00000000000E+00 0. -1.
         25    2    1    2    0    0 -0.12839993913E+03 -0.29464300937E+02 -0.45988874723E+03  0.49447009219E+03  0.12509325657E+03 0.  0.
          5    1    3    3  502    0 -0.13828030380E+03 -0.88758931587E+01 -0.44681493201E+03  0.46782612129E+03  0.41800000000E+01 0.  1.
         -5    1    3    3    0  502  0.98803646634E+01 -0.20588407779E+02 -0.13073815225E+02  0.26643970900E+02  0.41800000000E+01 0.  1.
        -11    1    1    2    0    0  0.57665243719E+02  0.36413724135E+02 -0.19007502218E+03  0.20193997548E+03  0.00000000000E+00 0.  1.
         11    1    1    2    0    0  0.70734695413E+02 -0.69494231975E+01 -0.40912508368E+03  0.41525296593E+03  0.00000000000E+00 0. -1.
</event>
<event>
 7    1  0.2534104E-009  0.4220642E+02  0.7561462E-02  0.1492575E+00
         -4   -1    0    0    0  501 -0.00000000000E+00  0.00000000000E+00  0.51988315331E+02  0.51988315331E+02  0.00000000000E+00 0.  1.
          4   -1    0    0  501    0  0.00000000000E+00 -0.00000000000E+00 -0.26688621888E+03  0.26688621888E+03  0.00000000000E+00 0. -1.
         25    2    1    2    0    0 -0.22438665458E+02 -0.49800654229E+01 -0.17661205080E+03  0.21764044205E+03  0.12508897141E+03 0.  0.
          5    1    3    3  502    0 -0.17431912972E+02  0.69230560445E+01  0.15721740787E+02  0.24828327133E+02  0.41800000000E+01 0. -1.
         -5    1    3    3    0  502 -0.50067524863E+01 -0.11903121467E+02 -0.19233379159E+03  0.19281211492E+03  0.41800000000E+01 0. -1.
        -11    1    1    2    0    0  0.31554342658E+02  0.17541966690E+02 -0.62672466703E+02  0.72327278523E+02  0.00000000000E+00 0. -1.
         11    1    1    2    0    0 -0.91156772001E+01 -0.12561901267E+02  0.24386613958E+02  0.28906813636E+02  0.00000000000E+00 0.  1.
</event>
<event>
 7    1  0.2420569E-009  0.1110003E+03  0.7561462E-02  0.1258729E+00
          1   -1    0    0  501    0  0.00000000000E+00  0.00000000000E+00  0.22364379223E+03  0.22364379223E+03  0.00000000000E+00 0. -1.
         -1   -1    0    0    0  501 -0.00000000000E+00 -0.00000000000E+00 -0.63947116353E+02  0.63947116353E+02  0.00000000000E+00 0.  1.
         25    2    1    2    0    0  0.48367348121E+02 -0.26389210582E+01  0.85801936557E+02  0.15923627249E+03  0.12509138216E+03 0.  0.
          5    1    3    3  502    0  0.37068248964E+02 -0.62506082515E+02  0.41482868708E+02  0.83781658069E+02  0.41800000000E+01 0.  1.
         -5    1    3    3    0  502  0.11299099157E+02  0.59867161456E+02  0.44319067849E+02  0.75454614422E+02  0.41800000000E+01 0.  1.
        -11    1    1    2    0    0  0.17073375886E+02 -0.12269426372E+02  0.54616376587E+02  0.58523393435E+02  0.00000000000E+00 0. -1.
         11    1    1    2    0    0 -0.65440724007E+02  0.14908347430E+02  0.19278362735E+02  0.69831242660E+02  0.00000000000E+00 0.  1.
</event>
<event>
 7    1  0.3052273E-009  0.1033156E+03  0.7561462E-02  0.1273474E+00
         -2   -1    0    0    0  501 -0.00000000000E+00  0.00000000000E+00  0.60810484283E+02  0.60810484283E+02  0.00000000000E+00 0.  1.
          2   -1    0    0  501    0  0.00000000000E+00 -0.00000000000E+00 -0.20259592073E+03  0.20259592073E+03  0.00000000000E+00 0. -1.
         25    2    1    2    0    0  0.29518185843E+01 -0.10274344464E+01 -0.11164979510E+03  0.16769445645E+03  0.12508391232E+03 0.  0.
          5    1    3    3  502    0  0.18275226342E+02  0.58791772331E+02 -0.68784579466E+02  0.92408047074E+02  0.41800000000E+01 0. -1.
         -5    1    3    3    0  502 -0.15323407758E+02 -0.59819206777E+02 -0.42865215635E+02  0.75286409373E+02  0.41800000000E+01 0. -1.
        -11    1    1    2    0    0 -0.33782191172E+02  0.26582028065E+02  0.38923994679E+01  0.43162384434E+02  0.00000000000E+00 0. -1.
         11    1    1    2    0    0  0.30830372588E+02 -0.25554593619E+02 -0.34028040813E+02  0.52549564132E+02  0.00000000000E+00 0.  1.
</event>
<event>
 7    1  0.2420569E-009  0.7684680E+02  0.7561462E-02  0.1338246E+00
         -1   -1    0    0    0  501 -0.00000000000E+00  0.00000000000E+00  0.31700877213E+02  0.31700877213E+02  0.00000000000E+00 0.  1.
          1   -1    0    0  501    0  0.00000000000E+00 -0.00000000000E+00 -0.43269556083E+03  0.43269556083E+03  0.00000000000E+00 0. -1.
         25    2    1    2    0    0 -0.30432037154E+02 -0.30225631052E+02 -0.24697826256E+03  0.28015314070E+03  0.12509125632E+03 0.  0.
          5    1    3    3  502    0 -0.34310641898E+02  0.33760598336E+01 -0.41857451929E+01  0.34980148517E+02  0.41800000000E+01 0.  1.
         -5    1    3    3    0  502  0.38786047439E+01 -0.33601690885E+02 -0.24279251737E+03  0.24517299218E+03  0.41800000000E+01 0.  1.
        -11    1    1    2    0    0  0.41220656838E+02  0.48506631572E+02 -0.14957462024E+03  0.16255646058E+03  0.00000000000E+00 0. -1.
         11    1    1    2    0    0 -0.10788619684E+02 -0.18281000520E+02 -0.44418008261E+01  0.21686836775E+02  0.00000000000E+00 0.  1.
</event>
<event>
 7    1  0.2420569E-009  0.3652842E+03  0.7561462E-02  0.1056511E+00
         -2   -1    0    0    0  501 -0.00000000000E+00  0.00000000000E+00  0.18536065582E+03  0.18536065582E+03  0.00000000000E+00 0.  1.
          2   -1    0    0  501    0  0.00000000000E+00 -0.00000000000E+00 -0.76226707938E+03  0.76226707938E+03  0.00000000000E+00 0. -1.
         25    2    1    2    0    0 -0.97794891824E+02  0.34447783671E+03 -0.33359337526E+03  0.50513150783E+03  0.12507789306E+03 0.  0.
          5    1    3    3  502    0 -0.28343672745E+02  0.21920170365E+02 -0.23186159948E+00  0.36074697689E+02  0.41800000000E+01 0.  1.
         -5    1    3    3    0  502 -0.69451219079E+02  0.32255766634E+03 -0.33336151366E+03  0.46905681014E+03  0.41800000000E+01 0.  1.
        -11    1    1    2    0    0  0.52512618901E+02 -0.28482443923E+03 -0.22111574580E+03  0.36438264142E+03  0.00000000000E+00 0. -1.
         11    1    1    2    0    0  0.45282272923E+02 -0.59653397481E+02 -0.22197302500E+02  0.78113585953E+02  0.00000000000E+00 0.  1.
</event>
<event>
 7    1  0.2420569E-009  0.1046266E+03  0.7561462E-02  0.1270857E+00
          2   -1    0    0  501    0  0.00000000000E+00  0.00000000000E+00  0.66740238958E+03  0.66740238958E+03  0.00000000000E+00 0.  1.
         -2   -1    0    0    0  501 -0.00000000000E+00 -0.00000000000E+00 -0.18601779800E+02  0.18601779800E+02  0.00000000000E+00 0. -1.
         25    2    1    2    0    0 -0.16235174384E+02  0.15839270322E+02  0.42493450784E+03  0.44354402061E+03  0.12508996321E+03 0.  0.
          5    1    3    3  502    0  0.37897966015E+02  0.48663755395E+02  0.17196960107E+03  0.18274417367E+03  0.41800000000E+01 0.  1.
         -5    1    3    3    0  502 -0.54133140399E+02 -0.32824485073E+02  0.25296490677E+03  0.26079984694E+03  0.41800000000E+01 0.  1.
        -11    1    1    2    0    0  0.35252551677E+02  0.22058249839E+02  0.58694966771E+02  0.71933357422E+02  0.00000000000E+00 0.  1.
         11    1    1    2    0    0 -0.19017377293E+02 -0.37897520161E+02  0.16517113517E+03  0.17052679135E+03  0.00000000000E+00 0. -1.
</event>
<event>
 7    1  0.2420569E-009  0.1122525E+03  0.7561462E-02  0.1256455E+00
         -2   -1    0    0    0  501 -0.00000000000E+00  0.00000000000E+00  0.25213289376E+02  0.25213289376E+02  0.00000000000E+00 0.  1.
          2   -1    0    0  501    0  0.00000000000E+00 -0.00000000000E+00 -0.55878763123E+03  0.55878763123E+03  0.00000000000E+00 0. -1.
         25    2    1    2    0    0 -0.43657210208E+02 -0.15410503935E+02 -0.35599890422E+03  0.38016608893E+03  0.12509036627E+03 0.  0.
          5    1    3    3  502    0  0.31269065095E+02  0.31173924361E+02 -0.13805767078E+03  0.14500676140E+03  0.41800000000E+01 0.  1.
         -5    1    3    3    0  502 -0.74926275304E+02 -0.46584428296E+02 -0.21794123344E+03  0.23515932753E+03  0.41800000000E+01 0.  1.
        -11    1    1    2    0    0  0.66715211510E+02  0.16563224799E+02 -0.89891293969E+02  0.11316229316E+03  0.00000000000E+00 0.  1.
         11    1    1    2    0    0 -0.23058001302E+02 -0.11527208644E+01 -0.87684143664E+02  0.90672538509E+02  0.00000000000E+00 0. -1.
</event>
<event>
 7    1  0.2420569E-009  0.1012679E+03  0.7561462E-02  0.1277652E+00
          2   -1    0    0  501    0  0.00000000000E+00  0.00000000000E+00  0.64186150671E+03  0.64186150671E+03  0.00000000000E+00 0. -1.
         -2   -1    0    0    0  501 -0.00000000000E+00 -0.00000000000E+00 -0.20165820101E+02  0.20165820101E+02  0.00000000000E+00 0.  1.
         25    2    1    2    0    0 -0.11381263051E+02  0.29099120838E+02  0.43178349802E+03  0.45062323141E+03  0.12509202828E+03 0.  0.
          5    1    3    3  502    0 -0.58034159851E+02  0.73086682331E+01  0.34239402387E+03  0.34737950476E+03  0.41800000000E+01 0.  1.
         -5    1    3    3    0  502  0.46652896800E+02  0.21790452605E+02  0.89389474150E+02  0.10324372665E+03  0.41800000000E+01 0.  1.
        -11    1    1    2    0    0  0.29495670510E+02 -0.53947066792E+02  0.13783025399E+03  0.15092203122E+03  0.00000000000E+00 0.  1.
         11    1    1    2    0    0 -0.18114407459E+02  0.24847945954E+02  0.52081934600E+02  0.60482064179E+02  0.00000000000E+00 0. -1.
</event>
<event>
 7    1  0.2420569E-009  0.9828376E+02  0.7561462E-02  0.1283947E+00
         -1   -1    0    0    0  501 -0.00000000000E+00  0.00000000000E+00  0.21902199415E+03  0.21902199415E+03  0.00000000000E+00 0.  1.
          1   -1    0    0  501    0  0.00000000000E+00 -0.00000000000E+00 -0.22487521571E+03  0.22487521571E+03  0.00000000000E+00 0. -1.
         25    2    1    2    0    0  0.90660561368E+01 -0.65906124105E+02  0.17845297893E+03  0.22785727285E+03  0.12509060929E+03 0.  0.
          5    1    3    3  502    0 -0.31769464628E+02  0.10981090256E+02  0.11543741402E+03  0.12030441464E+03  0.41800000000E+01 0.  1.
         -5    1    3    3    0  502  0.40835520765E+02 -0.76887214361E+02  0.63015564912E+02  0.10755285821E+03  0.41800000000E+01 0.  1.
        -11    1    1    2    0    0  0.13273453625E+02  0.34749363395E+02 -0.17169908897E+03  0.17568232688E+03  0.00000000000E+00 0. -1.
         11    1    1    2    0    0 -0.22339509762E+02  0.31156760710E+02 -0.12607111520E+02  0.40357610128E+02  0.00000000000E+00 0.  1.
</event>
<event>
 7    1  0.2420569E-009  0.1168661E+03  0.7561462E-02  0.1248358E+00
          3   -1    0    0  501    0  0.00000000000E+00  0.00000000000E+00  0.75603968342E+02  0.75603968342E+02  0.00000000000E+00 0. -1.
         -3   -1    0    0    0  501 -0.00000000000E+00 -0.00000000000E+00 -0.23786130301E+03  0.23786130301E+03  0.00000000000E+00 0.  1.
         25    2    1    2    0    0 -0.58485275085E+02 -0.24041313197E+02 -0.14221440008E+03  0.19967901217E+03  0.12509300607E+03 0.  0.
          5    1    3    3  502    0 -0.95746422258E+02 -0.27663365307E+02 -0.84348116174E+02  0.13063198788E+03  0.41800000000E+01 0. -1.
         -5    1    3    3    0  502  0.37261147173E+02  0.36220521106E+01 -0.57866283908E+02  0.69047024291E+02  0.41800000000E+01 0. -1.
        -11    1    1    2    0    0  0.56418243528E+02 -0.14069251991E+02  0.17019394773E+02  0.60585657154E+02  0.00000000000E+00 0. -1.
         11    1    1    2    0    0  0.20670315571E+01  0.38110565188E+02 -0.37062329357E+02  0.53200602024E+02  0.00000000000E+00 0.  1.
</event>
<event>
 7    1  0.2420569E-009  0.1062903E+03  0.7561462E-02  0.1267598E+00
         -3   -1    0    0    0  501 -0.00000000000E+00  0.00000000000E+00  0.12193069961E+03  0.12193069961E+03  0.00000000000E+00 0.  1.
          3   -1    0    0  501    0  0.00000000000E+00 -0.00000000000E+00 -0.98847232970E+02  0.98847232970E+02  0.00000000000E+00 0. -1.
         25    2    1    2    0    0 -0.80523267046E+01 -0.13899118293E+02  0.19433516799E+02  0.12761029084E+03  0.12509476127E+03 0.  0.
          5    1    3    3  502    0  0.56935442300E+02  0.19909671583E+00  0.21353867708E+02  0.60951983524E+02  0.41800000000E+01 0. -1.
         -5    1    3    3    0  502 -0.64987769005E+02 -0.14098215009E+02 -0.19203509091E+01  0.66658307316E+02  0.41800000000E+01 0. -1.
        -11    1    1    2    0    0 -0.38403764129E+02 -0.49598910172E+01  0.15397401677E+02  0.41671688190E+02  0.00000000000E+00 0.  1.
         11    1    1    2    0    0  0.46456090834E+02  0.18859009310E+02 -0.11747451834E+02  0.51495953553E+02  0.00000000000E+00 0. -1.
</event>
<event>
 7    1  0.2420569E-009  0.1999385E+03  0.7561462E-02  0.1149791E+00
         -1   -1    0    0    0  501 -0.00000000000E+00  0.00000000000E+00  0.86648489355E+02  0.86648489355E+02  0.00000000000E+00 0.  1.
          1   -1    0    0  501    0  0.00000000000E+00 -0.00000000000E+00 -0.65249233669E+03  0.65249233669E+03  0.00000000000E+00 0. -1.
         25    2    1    2    0    0  0.15915720248E+03  0.10147117839E+03 -0.43804313492E+03  0.49310901876E+03  0.12508917291E+03 0.  0.
          5    1    3    3  502    0  0.15905154669E+03  0.90147375357E+02 -0.27888646466E+03  0.33349524189E+03  0.41800000000E+01 0. -1.
         -5    1    3    3    0  502  0.10565579081E+00  0.11323803037E+02 -0.15915667026E+03  0.15961377687E+03  0.41800000000E+01 0. -1.
        -11    1    1    2    0    0 -0.58764747246E+02 -0.84795840311E+02 -0.36871061387E+02  0.10955868391E+03  0.00000000000E+00 0. -1.
         11    1    1    2    0    0 -0.10039245524E+03 -0.16675338083E+02 -0.90929651023E+02  0.13647312337E+03  0.00000000000E+00 0.  1.
</event>
<event>
 7    1  0.2420569E-009  0.1237422E+03  0.7561462E-02  0.1237048E+00
          2   -1    0    0  501    0  0.00000000000E+00  0.00000000000E+00  0.64128876729E+02  0.64128876729E+02  0.00000000000E+00 0. -1.
         -2   -1    0    0    0  501 -0.00000000000E+00 -0.00000000000E+00 -0.32207407155E+03  0.32207407155E+03  0.00000000000E+00 0.  1.
         25    2    1    2    0    0 -0.87361501359E+02 -0.35254513016E+02 -0.13751172421E+03  0.20840548532E+03  0.12509380244E+03 0.  0.
          5    1    3    3  502    0  0.80139448210E+01 -0.29137442524E+02 -0.10183520269E+03  0.10630660739E+03  0.41800000000E+01 0. -1.
         -5    1    3    3    0  502 -0.95375446180E+02 -0.61170704917E+01 -0.35676521516E+02  0.10209887792E+03  0.41800000000E+01 0. -1.
        -11    1    1    2    0    0  0.97100244853E+02  0.14221427871E+02 -0.11945720095E+03  0.15459860743E+03  0.00000000000E+00 0.  1.
         11    1    1    2    0    0 -0.97387434945E+01  0.21033085145E+02 -0.97626966586E+00  0.23198855533E+02  0.00000000000E+00 0. -1.
</event>
<event>
 7    1  0.2420569E-009  0.1739918E+03  0.7561462E-02  0.1173748E+00
         -1   -1    0    0    0  501 -0.00000000000E+00  0.00000000000E+00  0.19587425040E+03  0.19587425040E+03  0.00000000000E+00 0.  1.
          1   -1    0    0  501    0  0.00000000000E+00 -0.00000000000E+00 -0.16536280789E+03  0.16536280789E+03  0.00000000000E+00 0. -1.
         25    2    1    2    0    0 -0.30719120992E+02  0.13836917514E+03  0.32029165878E+02  0.19173716996E+03  0.12509029480E+03 0.  0.
          5    1    3    3  502    0  0.15007547399E+02  0.14209287710E+03  0.22737774694E+02  0.14474146262E+03  0.41800000000E+01 0.  1.
         -5    1    3    3    0  502 -0.45726668391E+02 -0.37237019633E+01  0.92913911841E+01  0.46995707342E+02  0.41800000000E+01 0.  1.
        -11    1    1    2    0    0  0.54432432180E+02 -0.92220885707E+02 -0.28783334740E+02  0.11088760883E+03  0.00000000000E+00 0. -1.
         11    1    1    2    0    0 -0.23713311188E+02 -0.46148289433E+02  0.27265611365E+02  0.58612279500E+02  0.00000000000E+00 0.  1.
</event>
<event>
 7    1  0.2420569E-009  0.1379748E+03  0.7561462E-02  0.1216080E+00
         -2   -1    0    0    0  501 -0.00000000000E+00  0.00000000000E+00  0.40283828221E+03  0.40283828221E+03  0.00000000000E+00 0.  1.
          2   -1    0    0  501    0  0.00000000000E+00 -0.00000000000E+00 -0.15116037315E+03  0.15116037315E+03  0.00000000000E+00 0. -1.
         25    2    1    2    0    0 -0.85982077438E+02 -0.77022269419E+02 -0.82474710732E+02  0.18913525461E+03  0.12507885113E+03 0.  0.
          5    1    3    3  502    0 -0.62502695247E+02 -0.25119443591E+01 -0.90928225004E+02  0.11044596543E+03  0.41800000000E+01 0.  1.
         -5    1    3    3    0  502 -0.23479382190E+02 -0.74510325059E+02  0.84535142720E+01  0.78689289183E+02  0.41800000000E+01 0.  1.
        -11    1    1    2    0    0 -0.37610084843E+01  0.36263123606E+02  0.16596235198E+03  0.16991957389E+03  0.00000000000E+00 0.  1.
         11    1    1    2    0    0  0.89743085922E+02  0.40759145813E+02  0.16819026782E+03  0.19494382685E+03  0.00000000000E+00 0. -1.
</event>
<event>
 7    1  0.2420569E-009  0.1648920E+03  0.7561462E-02  0.1183282E+00
          2   -1    0    0  501    0  0.00000000000E+00  0.00000000000E+00  0.22455791235E+03  0.22455791235E+03  0.00000000000E+00 0. -1.
         -2   -1    0    0    0  501 -0.00000000000E+00 -0.00000000000E+00 -0.15910619269E+03  0.15910619269E+03  0.00000000000E+00 0.  1.
         25    2    1    2    0    0  0.35690850930E+02  0.12773410279E+03  0.11515135681E+03  0.21563536850E+03  0.12509572061E+03 0.  0.
          5    1    3    3  502    0 -0.36032700283E+02  0.19676435411E+02 -0.12916613414E+01  0.41287508876E+02  0.41800000000E+01 0. -1.
         -5    1    3    3    0  502  0.71723551213E+02  0.10805766738E+03  0.11644301815E+03  0.17434785962E+03  0.41800000000E+01 0. -1.
        -11    1    1    2    0    0 -0.64800101184E+02 -0.94384190040E+02 -0.46746035975E+02  0.12366333459E+03  0.00000000000E+00 0. -1.
         11    1    1    2    0    0  0.29109250254E+02 -0.33349912748E+02 -0.29536011743E+01  0.44365401955E+02  0.00000000000E+00 0.  1.
</event>
<event>
 7    1  0.2420569E-009  0.2123193E+03  0.7561462E-02  0.1139742E+00
          1   -1    0    0  501    0  0.00000000000E+00  0.00000000000E+00  0.33281884651E+03  0.33281884651E+03  0.00000000000E+00 0. -1.
         -1   -1    0    0    0  501 -0.00000000000E+00 -0.00000000000E+00 -0.16620035595E+03  0.16620035595E+03  0.00000000000E+00 0.  1.
         25    2    1    2    0    0 -0.19130816022E+03 -0.25982157486E+02  0.39116621969E+01  0.23008053328E+03  0.12509143064E+03 0.  0.
          5    1    3    3  502    0 -0.13405219267E+03 -0.69690058285E+02 -0.23375569405E+02  0.15293980590E+03  0.41800000000E+01 0. -1.
         -5    1    3    3    0  502 -0.57255967552E+02  0.43707900799E+02  0.27287231602E+02  0.77140727382E+02  0.41800000000E+01 0. -1.
        -11    1    1    2    0    0  0.12240696999E+03 -0.11429687350E+02  0.14204539731E+03  0.18785898688E+03  0.00000000000E+00 0.  1.
         11    1    1    2    0    0  0.68901190228E+02  0.37411844836E+02  0.20661431052E+02  0.81079682301E+02  0.00000000000E+00 0. -1.
</event>
<event>
 7    1  0.2420569E-009  0.1210030E+03  0.7561462E-02  0.1241452E+00
         -2   -1    0    0    0  501 -0.00000000000E+00  0.00000000000E+00  0.22087575816E+02  0.22087575816E+02  0.00000000000E+00 0.  1.
          2   -1    0    0  501    0  0.00000000000E+00 -0.00000000000E+00 -0.90316446828E+03  0.90316446828E+03  0.00000000000E+00 0. -1.
         25    2    1    2    0    0 -0.59713550311E+02  0.19435079820E+02 -0.67779517954E+03  0.69209569201E+03  0.12508681416E+03 0.  0.
          5    1    3    3  502    0  0.17129107823E+00 -0.42700911643E+02 -0.11569697450E+03  0.12339635126E+03  0.41800000000E+01 0.  1.
         -5    1    3    3    0  502 -0.59884841390E+02  0.62135991463E+02 -0.56209820503E+03  0.56869934075E+03  0.41800000000E+01 0.  1.
        -11    1    1    2    0    0  0.56597606566E+02 -0.53864745721E+02 -0.12260236892E+03  0.14538239496E+03  0.00000000000E+00 0.  1.
         11    1    1    2    0    0  0.31159437459E+01  0.34429665901E+02 -0.80679344002E+02  0.87773957118E+02  0.00000000000E+00 0. -1.
</event>
<event>
 7    1  0.2420569E-009  0.7865223E+02  0.7561462E-02  0.1332920E+00
          1   -1    0    0  501    0  0.00000000000E+00  0.00000000000E+00  0.69759221223E+02  0.69759221223E+02  0.00000000000E+00 0. -1.
         -1   -1    0    0    0  501 -0.00000000000E+00 -0.00000000000E+00 -0.20234213548E+03  0.20234213548E+03  0.00000000000E+00 0.  1.
         25    2    1    2    0    0  0.15470633400E+02 -0.12062275033E+02 -0.13221687529E+03  0.18306742933E+03  0.12509013787E+03 0.  0.
          5    1    3    3  502    0 -0.38189552403E+01  0.28197723642E+02 -0.13510924206E+03  0.13813643881E+03  0.41800000000E+01 0.  1.
         -5    1    3    3    0  502  0.19289588641E+02 -0.40259998674E+02  0.28923667704E+01  0.44930990516E+02  0.41800000000E+01 0.  1.
        -11    1    1    2    0    0 -0.44725332032E+02  0.25531507628E+02 -0.15027363091E+02  0.53647319118E+02  0.00000000000E+00 0.  1.
         11    1    1    2    0    0  0.29254698631E+02 -0.13469232595E+02  0.14661324125E+02  0.35386608255E+02  0.00000000000E+00 0. -1.
</event>
<event>
 7    1  0.2420569E-009  0.1041564E+03  0.7561462E-02  0.1271791E+00
         -2   -1    0    0    0  501 -0.00000000000E+00  0.00000000000E+00  0.26810509431E+02  0.26810509431E+02  0.00000000000E+00 0.  1.
          2   -1    0    0  501    0  0.00000000000E+00 -0.00000000000E+00 -0.45155769543E+03  0.45155769543E+03  0.00000000000E+00 0. -1.
         25    2    1    2    0    0  0.17801651242E+02 -0.11871847758E+01 -0.24804966668E+03  0.27837874560E+03  0.12509108949E+03 0.  0.
          5    1    3    3  502    0 -0.49651563383E+02 -0.21992344043E+02 -0.89408284763E+02  0.10469123520E+03  0.41800000000E+01 0.  1.
         -5    1    3    3    0  502  0.67453214624E+02  0.20805159267E+02 -0.15864138191E+03  0.17368751040E+03  0.41800000000E+01 0.  1.
        -11    1    1    2    0    0  0.31719902717E+02  0.90682229663E+01 -0.28698808254E+02  0.43726496445E+02  0.00000000000E+00 0.  1.
         11    1    1    2    0    0 -0.49521553958E+02 -0.78810381905E+01 -0.14799871107E+03  0.15626296281E+03  0.00000000000E+00 0. -1.
</event>
<event>
 7    1  0.2420569E-009  0.1158498E+03  0.7561462E-02  0.1250105E+00
         -2   -1    0    0    0  501 -0.00000000000E+00  0.00000000000E+00  0.16399401520E+03  0.16399401520E+03  0.00000000000E+00 0.  1.
          2   -1    0    0  501    0  0.00000000000E+00 -0.00000000000E+00 -0.92713197074E+02  0.92713197074E+02  0.00000000000E+00 0. -1.
         25    2    1    2    0    0  0.21360407783E+02  0.12557240815E+02  0.50988570353E+02  0.13734148871E+03  0.12509555907E+03 0.  0.
          5    1    3    3  502    0  0.70981250580E+02  0.12422531211E+02  0.49497904164E+02  0.87522409314E+02  0.41800000000E+01 0. -1.
         -5    1    3    3    0  502 -0.49620842797E+02  0.13470960378E+00  0.14906661896E+01  0.49819079400E+02  0.41800000000E+01 0. -1.
        -11    1    1    2    0    0  0.15617161185E+02  0.41435232398E+02  0.29604605373E+02  0.53265437825E+02  0.00000000000E+00 0.  1.
         11    1    1    2    0    0 -0.36977568968E+02 -0.53992473213E+02 -0.93123575996E+01  0.66100285737E+02  0.00000000000E+00 0. -1.
</event>
<event>
 7    1  0.2420569E-009  0.1068422E+03  0.7561462E-02  0.1266532E+00
         -2   -1    0    0    0  501 -0.00000000000E+00  0.00000000000E+00  0.18879390656E+02  0.18879390656E+02  0.00000000000E+00 0.  1.
          2   -1    0    0  501    0  0.00000000000E+00 -0.00000000000E+00 -0.75349059024E+03  0.75349059024E+03  0.00000000000E+00 0. -1.
         25    2    1    2    0    0  0.19972613820E+02 -0.37882386818E+02 -0.51142884132E+03  0.52824086428E+03  0.12507985618E+03 0.  0.
          5    1    3    3  502    0  0.45246154340E+02  0.32200841365E+02 -0.17549978457E+03  0.18412429349E+03  0.41800000000E+01 0. -1.
         -5    1    3    3    0  502 -0.25273540519E+02 -0.70083228183E+02 -0.33592905675E+03  0.34411657079E+03  0.41800000000E+01 0. -1.
        -11    1    1    2    0    0 -0.40157273982E+02 -0.32987005194E+00 -0.42998525792E+02  0.58835267385E+02  0.00000000000E+00 0.  1.
         11    1    1    2    0    0  0.20184660162E+02  0.38212256870E+02 -0.18018383247E+03  0.18529384924E+03  0.00000000000E+00 0. -1.
</event>
<event>
 7    1  0.2420569E-009  0.1008052E+03  0.7561462E-02  0.1278612E+00
          2   -1    0    0  501    0  0.00000000000E+00  0.00000000000E+00  0.50252316399E+03  0.50252316399E+03  0.00000000000E+00 0. -1.
         -2   -1    0    0    0  501 -0.00000000000E+00 -0.00000000000E+00 -0.26546463788E+02  0.26546463788E+02  0.00000000000E+00 0.  1.
         25    2    1    2    0    0 -0.71738047170E+01  0.42051487879E+02  0.27882373616E+03  0.30856114054E+03  0.12509000960E+03 0.  0.
          5    1    3    3  502    0 -0.24812472586E+02  0.70092150127E+02  0.25951800364E+03  0.26999191639E+03  0.41800000000E+01 0. -1.
         -5    1    3    3    0  502  0.17638667869E+02 -0.28040662247E+02  0.19305732521E+02  0.38569224151E+02  0.41800000000E+01 0. -1.
        -11    1    1    2    0    0  0.44749214709E+02 -0.31486750393E+02  0.79182942768E+02  0.96248875800E+02  0.00000000000E+00 0. -1.
         11    1    1    2    0    0 -0.37575409992E+02 -0.10564737487E+02  0.11797002128E+03  0.12425961144E+03  0.00000000000E+00 0.  1.
</event>
<event>
 7    1  0.2420569E-009  0.1196181E+03  0.7561462E-02  0.1243728E+00
         -2   -1    0    0    0  501 -0.00000000000E+00  0.00000000000E+00  0.19832401036E+03  0.19832401036E+03  0.00000000000E+00 0.  1.
          2   -1    0    0  501    0  0.00000000000E+00 -0.00000000000E+00 -0.88884479426E+02  0.88884479426E+02  0.00000000000E+00 0. -1.
         25    2    1    2    0    0 -0.34552482237E+02  0.61570213828E+02  0.24849823571E+02  0.14577455952E+03  0.12509173919E+03 0.  0.
          5    1    3    3  502    0  0.44059954286E+01  0.83089420565E+02  0.47246197421E+02  0.95775467507E+02  0.41800000000E+01 0.  1.
         -5    1    3    3    0  502 -0.38958477665E+02 -0.21519206737E+02 -0.22396373849E+02  0.49999092014E+02  0.41800000000E+01 0.  1.
        -11    1    1    2    0    0  0.34291872157E+02 -0.82992877250E+02  0.56453750371E+02  0.10606967569E+03  0.00000000000E+00 0.  1.
         11    1    1    2    0    0  0.26061008003E+00  0.21422663422E+02  0.28135956987E+02  0.35364254570E+02  0.00000000000E+00 0. -1.
</event>
<event>
 7    1  0.2420569E-009  0.7900556E+02  0.7561462E-02  0.1331897E+00
          2   -1    0    0  501    0  0.00000000000E+00  0.00000000000E+00  0.49113570452E+03  0.49113570452E+03  0.00000000000E+00 0. -1.
         -2   -1    0    0    0  501 -0.00000000000E+00 -0.00000000000E+00 -0.34569296880E+02  0.34569296880E+02  0.00000000000E+00 0.  1.
         25    2    1    2    0    0 -0.43517736536E+02 -0.51658020428E+02  0.30148066484E+03  0.33331099322E+03  0.12507310846E+03 0.  0.
          5    1    3    3  502    0 -0.35642778004E+02 -0.12081386104E+02  0.10195920617E+02  0.39214751195E+02  0.41800000000E+01 0.  1.
         -5    1    3    3    0  502 -0.78749585324E+01 -0.39576634324E+02  0.29128474422E+03  0.29409624203E+03  0.41800000000E+01 0.  1.
        -11    1    1    2    0    0  0.17279002253E+02 -0.42705963934E+01 -0.68522408394E+01  0.19072365269E+02  0.00000000000E+00 0.  1.
         11    1    1    2    0    0  0.26238734283E+02  0.55928616822E+02  0.16193798364E+03  0.17332164291E+03  0.00000000000E+00 0. -1.
</event>
<event>
 7    1  0.2420569E-009  0.8429635E+02  0.7561462E-02  0.1317283E+00
         -2   -1    0    0    0  501 -0.00000000000E+00  0.00000000000E+00  0.31327351927E+02  0.31327351927E+02  0.00000000000E+00 0.  1.
          2   -1    0    0  501    0  0.00000000000E+00 -0.00000000000E+00 -0.40049996371E+03  0.40049996371E+03  0.00000000000E+00 0. -1.
         25    2    1    2    0    0 -0.70440007222E+01 -0.13672229699E+02 -0.25406433725E+03  0.28359880106E+03  0.12507215792E+03 0.  0.
          5    1    3    3  502    0 -0.26187691645E+02  0.48119635197E+02 -0.16152076889E+03  0.17060986393E+03  0.41800000000E+01 0. -1.
         -5    1    3    3    0  502  0.19143690923E+02 -0.61791864896E+02 -0.92543568357E+02  0.11298893713E+03  0.41800000000E+01 0. -1.
        -11    1    1    2    0    0 -0.16370118124E+02  0.18725213875E+02 -0.12102592433E+03  0.12355520533E+03  0.00000000000E+00 0. -1.
         11    1    1    2    0    0  0.23414118846E+02 -0.50529841756E+01  0.59176498018E+01  0.24673309255E+02  0.00000000000E+00 0.  1.
</event>
<event>
 7    1  0.2420569E-009  0.7917711E+02  0.7561462E-02  0.1331403E+00
         -2   -1    0    0    0  501 -0.00000000000E+00  0.00000000000E+00  0.41093693388E+02  0.41093693388E+02  0.00000000000E+00 0.  1.
          2   -1    0    0  501    0  0.00000000000E+00 -0.00000000000E+00 -0.40064105643E+03  0.40064105643E+03  0.00000000000E+00 0. -1.
         25    2    1    2    0    0  0.56242811048E+01 -0.65453795876E+02 -0.23607312115E+03  0.27512490023E+03  0.12508940908E+03 0.  0.
          5    1    3    3  502    0 -0.28660350278E+02 -0.27401389786E+02 -0.21648912573E+03  0.22013011107E+03  0.41800000000E+01 0. -1.
         -5    1    3    3    0  502  0.34284631382E+02 -0.38052406090E+02 -0.19583995421E+02  0.54994789162E+02  0.41800000000E+01 0. -1.
        -11    1    1    2    0    0  0.12337420206E+01  0.51792400520E+02 -0.13683105284E+03  0.14631032736E+03  0.00000000000E+00 0. -1.
         11    1    1    2    0    0 -0.68580231254E+01  0.13661395356E+02  0.13356810943E+02  0.20299522232E+02  0.00000000000E+00 0.  1.
</event>
<event>
 7    1  0.2420569E-009  0.1073318E+03  0.7561462E-02  0.1265592E+00
         -2   -1    0    0    0  501 -0.00000000000E+00  0.00000000000E+00  0.57767266533E+02  0.57767266533E+02  0.00000000000E+00 0.  1.
          2   -1    0    0  501    0  0.00000000000E+00 -0.00000000000E+00 -0.27187077467E+03  0.27187077467E+03  0.00000000000E+00 0. -1.
         25    2    1    2    0    0  0.79427299580E+01  0.55505501810E+02 -0.15533464066E+03  0.20717405475E+03  0.12509312803E+03 0.  0.
          5    1    3    3  502    0 -0.71716388193E+01  0.94599375411E+02 -0.10749071552E+03  0.14343012429E+03  0.41800000000E+01 0.  1.
         -5    1    3    3    0  502  0.15114368777E+02 -0.39093873601E+02 -0.47843925146E+02  0.63743930457E+02  0.41800000000E+01 0.  1.
        -11    1    1    2    0    0 -0.24622547709E+02 -0.60055975447E+01  0.16939798103E+02  0.30484320844E+02  0.00000000000E+00 0.  1.
         11    1    1    2    0    0  0.16679817751E+02 -0.49499904266E+02 -0.75708665573E+02  0.91979665608E+02  0.00000000000E+00 0. -1.
</event>
<event>
 7    1  0.2420569E-009  0.1161411E+03  0.7561462E-02  0.1249602E+00
         -2   -1    0    0    0  501 -0.00000000000E+00  0.00000000000E+00  0.36906076114E+02  0.36906076114E+02  0.00000000000E+00 0.  1.
          2   -1    0    0  501    0  0.00000000000E+00 -0.00000000000E+00 -0.56492754963E+03  0.56492754963E+03  0.00000000000E+00 0. -1.
         25    2    1    2    0    0 -0.95524258975E+01  0.75792382525E+02 -0.35702322954E+03  0.38593754181E+03  0.12508583318E+03 0.  0.
          5    1    3    3  502    0  0.52282766470E+02  0.76188145620E+01 -0.10536624486E+03  0.11794512267E+03  0.41800000000E+01 0.  1.
         -5    1    3    3    0  502 -0.61835192367E+02  0.68173567963E+02 -0.25165698468E+03  0.26799241915E+03  0.41800000000E+01 0.  1.
        -11    1    1    2    0    0  0.23509107737E+02 -0.66099490953E+02 -0.18240419596E+03  0.19543057989E+03  0.00000000000E+00 0. -1.
         11    1    1    2    0    0 -0.13956681839E+02 -0.96928915714E+01  0.11405951984E+02  0.20465504040E+02  0.00000000000E+00 0.  1.
</event>
<event>
 7    1  0.2420569E-009  0.1001873E+03  0.7561462E-02  0.1279903E+00
          2   -1    0    0  501    0  0.00000000000E+00  0.00000000000E+00  0.11062786140E+04  0.11062786140E+04  0.00000000000E+00 0. -1.
         -2   -1    0    0    0  501 -0.00000000000E+00 -0.00000000000E+00 -0.20806918711E+02  0.20806918711E+02  0.00000000000E+00 0.  1.
         25    2    1    2    0    0 -0.61952321212E+02  0.71035107659E+01  0.91238175893E+03  0.92302572369E+03  0.12508981813E+03 0.  0.
          5    1    3    3  502    0 -0.53664418755E+02  0.50668552018E+02  0.29802251661E+03  0.30705384676E+03  0.41800000000E+01 0.  1.
         -5    1    3    3    0  502 -0.82879024561E+01 -0.43565041252E+02  0.61435924232E+03  0.61597187693E+03  0.41800000000E+01 0.  1.
        -11    1    1    2    0    0  0.44547336961E+02  0.20687809300E+02  0.30652931755E+02  0.57896916232E+02  0.00000000000E+00 0. -1.
         11    1    1    2    0    0  0.17404984250E+02 -0.27791320066E+02  0.14243700464E+03  0.14616289283E+03  0.00000000000E+00 0.  1.
</event>
<event>
 7    1  0.2420569E-009  0.1125281E+03  0.7561462E-02  0.1255959E+00
         -1   -1    0    0    0  501 -0.00000000000E+00  0.00000000000E+00  0.88660559273E+02  0.88660559273E+02  0.00000000000E+00 0.  1.
          1   -1    0    0  501    0  0.00000000000E+00 -0.00000000000E+00 -0.40693881894E+03  0.40693881894E+03  0.00000000000E+00 0. -1.
         25    2    1    2    0    0 -0.33210924723E+02 -0.71655310350E+02 -0.34194981768E+03  0.37257806897E+03  0.12508913080E+03 0.  0.
          5    1    3    3  502    0 -0.49798689854E+02  0.10448363786E+02 -0.21088638536E+03  0.21697838083E+03  0.41800000000E+01 0.  1.
         -5    1    3    3    0  502  0.16587765131E+02 -0.82103674136E+02 -0.13106343232E+03  0.15559968814E+03  0.41800000000E+01 0.  1.
        -11    1    1    2    0    0 -0.10608401271E+02  0.10736021545E+02  0.42964964866E+02  0.45538868476E+02  0.00000000000E+00 0.  1.
         11    1    1    2    0    0  0.43819325994E+02  0.60919288805E+02 -0.19293406856E+02  0.77482440767E+02  0.00000000000E+00 0. -1.
</event>
<event>
 7    1  0.2420569E-009  0.1164274E+03  0.7561462E-02  0.1249110E+00
          1   -1    0    0  501    0  0.00000000000E+00  0.00000000000E+00  0.13141204228E+03  0.13141204228E+03  0.00000000000E+00 0. -1.
         -1   -1    0    0    0  501 -0.00000000000E+00 -0.00000000000E+00 -0.20656266828E+03  0.20656266828E+03  0.00000000000E+00 0.  1.
         25    2    1    2    0    0  0.20150994946E+01 -0.10509706834E+03 -0.11995812900E+03  0.20269865249E+03  0.12508931452E+03 0.  0.
          5    1    3    3  502    0  0.15775361682E+02 -0.10725214236E+02 -0.10411614692E+03  0.10593175495E+03  0.41800000000E+01 0. -1.
         -5    1    3    3    0  502 -0.13760262188E+02 -0.94371854106E+02 -0.15841982077E+02  0.96766897538E+02  0.41800000000E+01 0. -1.
        -11    1    1    2    0    0  0.24479232981E+02  0.33255069737E+02  0.41633590267E+02  0.58638625061E+02  0.00000000000E+00 0. -1.
         11    1    1    2    0    0 -0.26494332476E+02  0.71841998605E+02  0.31739127324E+01  0.76637433014E+02  0.00000000000E+00 0.  1.
</event>
<event>
 7    1  0.2420569E-009  0.8873606E+02  0.7561462E-02  0.1305942E+00
         -2   -1    0    0    0  501 -0.00000000000E+00  0.00000000000E+00  0.72054103372E+02  0.72054103372E+02  0.00000000000E+00 0.  1.
          2   -1    0    0  501    0  0.00000000000E+00 -0.00000000000E+00 -0.19310330471E+03  0.19310330471E+03  0.00000000000E+00 0. -1.
         25    2    1    2    0    0  0.22444975714E+02 -0.29098895914E+02 -0.36008965033E+02  0.13525406299E+03  0.12508594371E+03 0.  0.
          5    1    3    3  502    0  0.55038076445E+02 -0.61616532026E+02 -0.32542196721E+02  0.88894622138E+02  0.41800000000E+01 0.  1.
         -5    1    3    3    0  502 -0.32593100731E+02  0.32517636112E+02 -0.34667683121E+01  0.46359440852E+02  0.41800000000E+01 0.  1.
        -11    1    1    2    0    0 -0.47548131935E+01  0.30410314182E+02 -0.10127984029E+03  0.10585367970E+03  0.00000000000E+00 0. -1.
         11    1    1    2    0    0 -0.17690162520E+02 -0.13114182683E+01  0.16239603985E+02  0.24049665392E+02  0.00000000000E+00 0.  1.
</event>
<event>
 7    1  0.2420569E-009  0.2211838E+03  0.7561462E-02  0.1133004E+00
          2   -1    0    0  501    0  0.00000000000E+00  0.00000000000E+00  0.77864901678E+03  0.77864901678E+03  0.00000000000E+00 0. -1.
         -2   -1    0    0    0  501 -0.00000000000E+00 -0.00000000000E+00 -0.10315770671E+03  0.10315770671E+03  0.00000000000E+00 0.  1.
         25    2    1    2    0    0 -0.73819824339E+02  0.18289490200E+03  0.61195489944E+03  0.65501100719E+03  0.12510279355E+03 0.  0.
          5    1    3    3  502    0 -0.95213729281E+02  0.82082867438E+02  0.39968659908E+03  0.41901086054E+03  0.41800000000E+01 0.  1.
         -5    1    3    3    0  502  0.21393904941E+02  0.10081203456E+03  0.21226830036E+03  0.23600014665E+03  0.41800000000E+01 0.  1.
        -11    1    1    2    0    0  0.22314477795E+02 -0.15148149360E+03  0.65256326489E+02  0.16644208293E+03  0.00000000000E+00 0. -1.
         11    1    1    2    0    0  0.51505346545E+02 -0.31413408398E+02 -0.17199158571E+01  0.60353633365E+02  0.00000000000E+00 0.  1.
</event>
<event>
 7    1  0.2420569E-009  0.1167412E+03  0.7561462E-02  0.1248572E+00
         -1   -1    0    0    0  501 -0.00000000000E+00  0.00000000000E+00  0.36387853652E+02  0.36387853652E+02  0.00000000000E+00 0.  1.
          1   -1    0    0  501    0  0.00000000000E+00 -0.00000000000E+00 -0.43934250118E+03  0.43934250118E+03  0.00000000000E+00 0. -1.
         25    2    1    2    0    0 -0.22053791950E+02 -0.60586515340E+02 -0.21120815900E+03  0.25379703263E+03  0.12508777622E+03 0.  0.
          5    1    3    3  502    0  0.11590681685E+02 -0.82005882973E+02 -0.75011533345E+02  0.11181910069E+03  0.41800000000E+01 0. -1.
         -5    1    3    3    0  502 -0.33644473636E+02  0.21419367634E+02 -0.13619662566E+03  0.14197793194E+03  0.41800000000E+01 0. -1.
        -11    1    1    2    0    0  0.27209556532E+02 -0.17399652736E+02 -0.41625526034E+02  0.52685788403E+02  0.00000000000E+00 0. -1.
         11    1    1    2    0    0 -0.51557645821E+01  0.77986168076E+02 -0.15012096249E+03  0.16924753380E+03  0.00000000000E+00 0.  1.
</event>
<event>
 7    1  0.2420569E-009  0.1342287E+03  0.7561462E-02  0.1221313E+00
         -2   -1    0    0    0  501 -0.00000000000E+00  0.00000000000E+00  0.84585267155E+02  0.84585267155E+02  0.00000000000E+00 0.  1.
          2   -1    0    0  501    0  0.00000000000E+00 -0.00000000000E+00 -0.27465365639E+03  0.27465365639E+03  0.00000000000E+00 0. -1.
         25    2    1    2    0    0  0.10317620338E+03  0.18573986795E+02 -0.74766278417E+02  0.17952127995E+03  0.12509025396E+03 0.  0.
          5    1    3    3  502    0  0.33009126042E+02 -0.50721785643E+02 -0.10040557534E+02  0.61486479299E+02  0.41800000000E+01 0. -1.
         -5    1    3    3    0  502  0.70167077342E+02  0.69295772439E+02 -0.64725720883E+02  0.11803480065E+03  0.41800000000E+01 0. -1.
        -11    1    1    2    0    0 -0.89899042721E+02 -0.49019160961E+01 -0.34043358655E+02  0.96253919048E+02  0.00000000000E+00 0.  1.
         11    1    1    2    0    0 -0.13277160664E+02 -0.13672070699E+02 -0.81258752160E+02  0.83463724546E+02  0.00000000000E+00 0. -1.
</event>
<event>
 7    1  0.2420569E-009  0.8662646E+02  0.7561462E-02  0.1311233E+00
         -1   -1    0    0    0  501 -0.00000000000E+00  0.00000000000E+00  0.60318516594E+02  0.60318516594E+02  0.00000000000E+00 0.  1.
          1   -1    0    0  501    0  0.00000000000E+00 -0.00000000000E+00 -0.39618677741E+03  0.39618677741E+03  0.00000000000E+00 0. -1.
         25    2    1    2    0    0 -0.51927562239E+02  0.91915680732E+01 -0.32281548675E+03  0.35019722589E+03  0.12508917576E+03 0.  0.
          5    1    3    3  502    0  0.23136834155E+02  0.12214524219E+02 -0.97738664019E+01  0.28240194069E+02  0.41800000000E+01 0.  1.
         -5    1    3    3    0  502 -0.75064396394E+02 -0.30229561462E+01 -0.31304162035E+03  0.32195703182E+03  0.41800000000E+01 0.  1.
        -11    1    1    2    0    0 -0.14593507811E+01 -0.17435877965E+02  0.31667288504E+02  0.36179506717E+02  0.00000000000E+00 0.  1.
         11    1    1    2    0    0  0.53386913020E+02  0.82443098917E+01 -0.44720062575E+02  0.70128561401E+02  0.00000000000E+00 0. -1.
</event>
<event>
 7    1  0.2420569E-009  0.1277726E+03  0.7561462E-02  0.1230799E+00
         -3   -1    0    0    0  501 -0.00000000000E+00  0.00000000000E+00  0.48265179054E+03  0.48265179054E+03  0.00000000000E+00 0.  1.
          3   -1    0    0  501    0  0.00000000000E+00 -0.00000000000E+00 -0.46502288154E+02  0.46502288154E+02  0.00000000000E+00 0. -1.
         25    2    1    2    0    0 -0.12119342042E+02  0.10179902546E+03  0.25916319335E+03  0.30548762675E+03  0.12508880555E+03 0.  0.
          5    1    3    3  502    0  0.31438498160E+02  0.17486214598E+02  0.17457685308E+03  0.17829384986E+03  0.41800000000E+01 0. -1.
         -5    1    3    3    0  502 -0.43557840202E+02  0.84312810866E+02  0.84586340265E+02  0.12719377689E+03  0.41800000000E+01 0. -1.
        -11    1    1    2    0    0  0.37588389977E+02 -0.87257522534E+02  0.86289669551E+02  0.12834589737E+03  0.00000000000E+00 0. -1.
         11    1    1    2    0    0 -0.25469047935E+02 -0.14541502929E+02  0.90696639493E+02  0.95320554581E+02  0.00000000000E+00 0.  1.
</event>
<event>
 7    1  0.2420569E-009  0.1828181E+03  0.7561462E-02  0.1165103E+00
         -1   -1    0    0    0  501 -0.00000000000E+00  0.00000000000E+00  0.30907674543E+03  0.30907674543E+03  0.00000000000E+00 0.  1.
          1   -1    0    0  501    0  0.00000000000E+00 -0.00000000000E+00 -0.12765360215E+03  0.12765360215E+03  0.00000000000E+00 0. -1.
         25    2    1    2    0    0  0.12494974711E+03  0.10225503482E+03  0.13768859992E+03  0.24632187371E+03  0.12509110068E+03 0.  0.
          5    1    3    3  502    0  0.12887107804E+03  0.11082626335E+03  0.80330452054E+02  0.18804432810E+03  0.41800000000E+01 0. -1.
         -5    1    3    3    0  502 -0.39213309332E+01 -0.85712285344E+01  0.57358147866E+02  0.58277545603E+02  0.41800000000E+01 0. -1.
        -11    1    1    2    0    0  0.12746549179E+02 -0.23345183537E+02  0.54254276032E+01  0.27146037925E+02  0.00000000000E+00 0. -1.
         11    1    1    2    0    0 -0.13769629629E+03 -0.78909851281E+02  0.38309115753E+02  0.16326243594E+03  0.00000000000E+00 0.  1.
</event>
<event>
 7    1  0.2420569E-009  0.1261423E+03  0.7561462E-02  0.1233295E+00
          2   -1    0    0  501    0  0.00000000000E+00  0.00000000000E+00  0.12609638409E+03  0.12609638409E+03  0.00000000000E+00 0. -1.
         -2   -1    0    0    0  501 -0.00000000000E+00 -0.00000000000E+00 -0.16462362830E+03  0.16462362830E+03  0.00000000000E+00 0.  1.
         25    2    1    2    0    0  0.81506695484E+02 -0.47641295277E+02 -0.10119597709E+02  0.15704414167E+03  0.12508965485E+03 0.  0.
          5    1    3    3  502    0  0.37420771252E+02  0.33611121166E+02 -0.34758880251E+02  0.61283551981E+02  0.41800000000E+01 0. -1.
         -5    1    3    3    0  502  0.44085924233E+02 -0.81252416443E+02  0.24639282542E+02  0.95760589688E+02  0.41800000000E+01 0. -1.
        -11    1    1    2    0    0 -0.18694199862E+01  0.26922258353E+02 -0.42346975235E+02  0.50215227147E+02  0.00000000000E+00 0.  1.
         11    1    1    2    0    0 -0.79637275498E+02  0.20719036924E+02  0.13939328732E+02  0.83460643571E+02  0.00000000000E+00 0. -1.
</event>
<event>
 7    1  0.2420569E-009  0.1408569E+03  0.7561462E-02  0.1212181E+00
          2   -1    0    0  501    0  0.00000000000E+00  0.00000000000E+00  0.53071850557E+03  0.53071850557E+03  0.00000000000E+00 0. -1.
         -2   -1    0    0    0  501 -0.00000000000E+00 -0.00000000000E+00 -0.54153466367E+02  0.54153466367E+02  0.00000000000E+00 0.  1.
         25    2    1    2    0    0  0.67721037983E+02 -0.11072528415E+03  0.25347847111E+03  0.31104015316E+03  0.12509362104E+03 0.  0.
          5    1    3    3  502    0  0.81321211040E+00  0.68154766782E+01  0.12234922215E+03  0.12261287288E+03  0.41800000000E+01 0. -1.
         -5    1    3    3    0  502  0.66907825873E+02 -0.11754076083E+03  0.13112924897E+03  0.18842728028E+03  0.41800000000E+01 0. -1.
        -11    1    1    2    0    0 -0.69478561717E+01  0.56467900804E+02  0.16287820476E+03  0.17252885588E+03  0.00000000000E+00 0. -1.
         11    1    1    2    0    0 -0.60773181812E+02  0.54257383350E+02  0.60208363331E+02  0.10130296289E+03  0.00000000000E+00 0.  1.
</event>
<event>
 7    1  0.2420569E-009  0.1277989E+03  0.7561462E-02  0.1230759E+00
         -3   -1    0    0    0  501 -0.00000000000E+00  0.00000000000E+00  0.32636294345E+02  0.32636294345E+02  0.00000000000E+00 0.  1.
          3   -1    0    0  501    0  0.00000000000E+00 -0.00000000000E+00 -0.53103087541E+03  0.53103087541E+03  0.00000000000E+00 0. -1.
         25    2    1    2    0    0 -0.18614663586E+02  0.68909223826E+02 -0.33081303754E+03  0.36080253776E+03  0.12508484568E+03 0.  0.
          5    1    3    3  502    0  0.53536738082E+02  0.35553300006E+02 -0.15071521630E+03  0.16389865250E+03  0.41800000000E+01 0. -1.
         -5    1    3    3    0  502 -0.72151401668E+02  0.33355923820E+02 -0.18009782123E+03  0.19690388526E+03  0.41800000000E+01 0. -1.
        -11    1    1    2    0    0 -0.31691860558E+02 -0.81666463840E+01 -0.30622269516E+02  0.44819544052E+02  0.00000000000E+00 0.  1.
         11    1    1    2    0    0  0.50306524144E+02 -0.60742577442E+02 -0.13695927401E+03  0.15804508794E+03  0.00000000000E+00 0. -1.
</event>
<event>
 7    1  0.2420569E-009  0.9742638E+02  0.7561462E-02  0.1285803E+00
         -1   -1    0    0    0  501 -0.00000000000E+00  0.00000000000E+00  0.32288455639E+02  0.32288455639E+02  0.00000000000E+00 0.  1.
          1   -1    0    0  501    0  0.00000000000E+00 -0.00000000000E+00 -0.38490684625E+03  0.38490684625E+03  0.00000000000E+00 0. -1.
         25    2    1    2    0    0  0.11533883228E+02 -0.17621007980E+02 -0.22741487646E+03  0.26040023734E+03  0.12508887716E+03 0.  0.
          5    1    3    3  502    0  0.31884461079E+02  0.47674610139E+02 -0.89154220244E+02  0.10609163349E+03  0.41800000000E+01 0. -1.
         -5    1    3    3    0  502 -0.20350577851E+02 -0.65295618119E+02 -0.13826065622E+03  0.15430860385E+03  0.41800000000E+01 0. -1.
        -11    1    1    2    0    0  0.17092812165E+02  0.32382647644E+02 -0.11144010430E+02  0.38275175566E+02  0.00000000000E+00 0.  1.
         11    1    1    2    0    0 -0.28626695393E+02 -0.14761639664E+02 -0.11405950372E+03  0.11851988898E+03  0.00000000000E+00 0. -1.
</event>
<event>
 7    1  0.2420569E-009  0.1156638E+03  0.7561462E-02  0.1250427E+00
          1   -1    0    0  501    0  0.00000000000E+00  0.00000000000E+00  0.22720216796E+02  0.22720216796E+02  0.00000000000E+00 0. -1.
         -1   -1    0    0    0  501 -0.00000000000E+00 -0.00000000000E+00 -0.73570648686E+03  0.73570648686E+03  0.00000000000E+00 0.  1.
         25    2    1    2    0    0  0.34201932439E+02  0.59245290775E+02 -0.35775804748E+03  0.38512088206E+03  0.12508995402E+03 0.  0.
          5    1    3    3  502    0 -0.18357928542E+02 -0.22080332964E+02 -0.18299118508E+03  0.18527763185E+03  0.41800000000E+01 0.  1.
         -5    1    3    3    0  502  0.52559860981E+02  0.81325623738E+02 -0.17476686240E+03  0.19984325021E+03  0.41800000000E+01 0.  1.
        -11    1    1    2    0    0 -0.59595275227E+02 -0.30209756528E+02 -0.28936418479E+03  0.29697787402E+03  0.00000000000E+00 0.  1.
         11    1    1    2    0    0  0.25393342789E+02 -0.29035534247E+02 -0.65864037800E+02  0.76327947583E+02  0.00000000000E+00 0. -1.
</event>
<event>
 7    1  0.2420569E-009  0.1076842E+03  0.7561462E-02  0.1264919E+00
          2   -1    0    0  501    0  0.00000000000E+00  0.00000000000E+00  0.53555780923E+03  0.53555780923E+03  0.00000000000E+00 0. -1.
         -2   -1    0    0    0  501 -0.00000000000E+00 -0.00000000000E+00 -0.28316751158E+02  0.28316751158E+02  0.00000000000E+00 0.  1.
         25    2    1    2    0    0 -0.50430999230E+02  0.55430303842E+01  0.21524710576E+03  0.25406911351E+03  0.12508312049E+03 0.  0.
          5    1    3    3  502    0 -0.74403707868E+02  0.38792330797E+02  0.94299078315E+02  0.12629546803E+03  0.41800000000E+01 0.  1.
         -5    1    3    3    0  502  0.23972708638E+02 -0.33249300413E+02  0.12094802744E+03  0.12777364548E+03  0.41800000000E+01 0.  1.
        -11    1    1    2    0    0  0.12223874979E+02  0.33418007178E+02  0.47810439629E+02  0.59598862915E+02  0.00000000000E+00 0.  1.
         11    1    1    2    0    0  0.38207124251E+02 -0.38961037562E+02  0.24418351269E+03  0.25020658397E+03  0.00000000000E+00 0. -1.
</event>
<event>
 7    1  0.2420569E-009  0.1110566E+03  0.7561462E-02  0.1258626E+00
         -1   -1    0    0    0  501 -0.00000000000E+00  0.00000000000E+00  0.21440506451E+03  0.21440506451E+03  0.00000000000E+00 0.  1.
          1   -1    0    0  501    0  0.00000000000E+00 -0.00000000000E+00 -0.10673382459E+03  0.10673382459E+03  0.00000000000E+00 0. -1.
         25    2    1    2    0    0  0.51432514350E+02  0.79365534486E+02  0.10740540217E+03  0.19007180450E+03  0.12508868396E+03 0.  0.
          5    1    3    3  502    0  0.46029185260E+02  0.19547616885E+02 -0.16076085673E+02  0.52694479333E+02  0.41800000000E+01 0.  1.
         -5    1    3    3    0  502  0.54033290902E+01  0.59817917601E+02  0.12348148784E+03  0.13737732517E+03  0.41800000000E+01 0.  1.
        -11    1    1    2    0    0  0.13430049114E+02 -0.17775928473E+02  0.29498342711E+02  0.36966228844E+02  0.00000000000E+00 0.  1.
         11    1    1    2    0    0 -0.64862563464E+02 -0.61589606014E+02 -0.29232504963E+02  0.94100855759E+02  0.00000000000E+00 0. -1.
</event>
<event>
 7    1  0.2420569E-009  0.1449598E+03  0.7561462E-02  0.1206807E+00
          2   -1    0    0  501    0  0.00000000000E+00  0.00000000000E+00  0.37162850710E+03  0.37162850710E+03  0.00000000000E+00 0. -1.
         -2   -1    0    0    0  501 -0.00000000000E+00 -0.00000000000E+00 -0.59710645871E+02  0.59710645871E+02  0.00000000000E+00 0.  1.
         25    2    1    2    0    0 -0.75503512797E+02  0.73871473488E+02  0.16572595151E+03  0.23295916792E+03  0.12508840024E+03 0.  0.
          5    1    3    3  502    0 -0.10306326270E+03  0.76372263374E+02  0.10402367874E+03  0.16520640687E+03  0.41800000000E+01 0.  1.
         -5    1    3    3    0  502  0.27559749905E+02 -0.25007898854E+01  0.61702272772E+02  0.67752761051E+02  0.41800000000E+01 0.  1.
        -11    1    1    2    0    0 -0.10601097659E+02 -0.39465254388E+02  0.36961633665E+02  0.55100380567E+02  0.00000000000E+00 0.  1.
         11    1    1    2    0    0  0.86104610456E+02 -0.34406219101E+02  0.10923027605E+03  0.14327960448E+03  0.00000000000E+00 0. -1.
</event>
<event>
 7    1  0.2420569E-009  0.1006458E+03  0.7561462E-02  0.1278944E+00
          1   -1    0    0  501    0  0.00000000000E+00  0.00000000000E+00  0.76301113837E+02  0.76301113837E+02  0.00000000000E+00 0. -1.
         -1   -1    0    0    0  501 -0.00000000000E+00 -0.00000000000E+00 -0.19328504263E+03  0.19328504263E+03  0.00000000000E+00 0.  1.
         25    2    1    2    0    0 -0.43930323966E+02  0.57489974979E+02 -0.94318667643E+02  0.17256464763E+03  0.12509027124E+03 0.  0.
          5    1    3    3  502    0  0.29647168050E+02  0.27189068875E+02 -0.82673731606E+02  0.92035962196E+02  0.41800000000E+01 0. -1.
         -5    1    3    3    0  502 -0.73577492016E+02  0.30300906104E+02 -0.11644936037E+02  0.80528685432E+02  0.41800000000E+01 0. -1.
        -11    1    1    2    0    0  0.42050793313E+02 -0.25620438206E+02 -0.37425707315E+02  0.61849491835E+02  0.00000000000E+00 0.  1.
         11    1    1    2    0    0  0.18795306524E+01 -0.31869536773E+02  0.14760446161E+02  0.35172017008E+02  0.00000000000E+00 0. -1.
</event>
<event>
 7    1  0.2420569E-009  0.9486594E+02  0.7561462E-02  0.1291478E+00
         -4   -1    0    0    0  501 -0.00000000000E+00  0.00000000000E+00  0.38136848817E+02  0.38136848817E+02  0.00000000000E+00 0.  1.
          4   -1    0    0  501    0  0.00000000000E+00 -0.00000000000E+00 -0.36977602241E+03  0.36977602241E+03  0.00000000000E+00 0. -1.
         25    2    1    2    0    0 -0.37915006837E+02  0.12137772520E+02 -0.23530430381E+03  0.26944588306E+03  0.12509234686E+03 0.  0.
          5    1    3    3  502    0  0.29800185112E+02  0.17242169759E+02 -0.17540031546E+03  0.17879621505E+03  0.41800000000E+01 0. -1.
         -5    1    3    3    0  502 -0.67715191948E+02 -0.51043972390E+01 -0.59903988346E+02  0.90649668017E+02  0.41800000000E+01 0. -1.
        -11    1    1    2    0    0  0.19200092852E+02 -0.45151944493E+02 -0.86202685866E+02  0.99187926218E+02  0.00000000000E+00 0. -1.
         11    1    1    2    0    0  0.18714913985E+02  0.33014171973E+02 -0.10132183921E+02  0.39279061948E+02  0.00000000000E+00 0.  1.
</event>
<event>
 7    1  0.2420569E-009  0.9320613E+02  0.7561462E-02  0.1295268E+00
          4   -1    0    0  501    0  0.00000000000E+00  0.00000000000E+00  0.10507642873E+03  0.10507642873E+03  0.00000000000E+00 0. -1.
         -4   -1    0    0    0  501 -0.00000000000E+00 -0.00000000000E+00 -0.13603060326E+03  0.13603060326E+03  0.00000000000E+00 0.  1.
         25    2    1    2    0    0  0.46176466576E+02  0.46769304644E+01 -0.33602597968E+02  0.13758831795E+03  0.12508905189E+03 0.  0.
          5    1    3    3  502    0  0.25755054098E+02 -0.37830943163E+02 -0.65853493762E+02  0.80303537362E+02  0.41800000000E+01 0. -1.
         -5    1    3    3    0  502  0.20421412478E+02  0.42507873628E+02  0.32250895794E+02  0.57284780592E+02  0.41800000000E+01 0. -1.
        -11    1    1    2    0    0 -0.46479591210E+02 -0.37847816038E+02 -0.20185104824E+02  0.63247514060E+02  0.00000000000E+00 0.  1.
         11    1    1    2    0    0  0.30312463463E+00  0.33170885574E+02  0.22833528268E+02  0.40271199976E+02  0.00000000000E+00 0. -1.
</event>
<event>
 7    1  0.2420569E-009  0.1228708E+03  0.7561462E-02  0.1238435E+00
          2   -1    0    0  501    0  0.00000000000E+00  0.00000000000E+00  0.68438000491E+03  0.68438000491E+03  0.00000000000E+00 0. -1.
         -2   -1    0    0    0  501 -0.00000000000E+00 -0.00000000000E+00 -0.37985660840E+02  0.37985660840E+02  0.00000000000E+00 0.  1.
         25    2    1    2    0    0 -0.66312173901E+02  0.95810690468E+02  0.33777577305E+03  0.37857171246E+03  0.12508827204E+03 0.  0.
          5    1    3    3  502    0 -0.40659985232E+01  0.28250525480E+02  0.35909780294E+00  0.28848325517E+02  0.41800000000E+01 0. -1.
         -5    1    3    3    0  502 -0.62246175378E+02  0.67560164988E+02  0.33741667524E+03  0.34972338694E+03  0.41800000000E+01 0. -1.
        -11    1    1    2    0    0  0.51441678093E+02 -0.34720453479E+02  0.56415295720E+02  0.83871578774E+02  0.00000000000E+00 0. -1.
         11    1    1    2    0    0  0.14870495808E+02 -0.61090236989E+02  0.25220327531E+03  0.25992237452E+03  0.00000000000E+00 0.  1.
</event>
<event>
 7    1  0.2420569E-009  0.1441795E+03  0.7561462E-02  0.1207813E+00
         -1   -1    0    0    0  501 -0.00000000000E+00  0.00000000000E+00  0.99850861394E+02  0.99850861394E+02  0.00000000000E+00 0.  1.
          1   -1    0    0  501    0  0.00000000000E+00 -0.00000000000E+00 -0.27562526346E+03  0.27562526346E+03  0.00000000000E+00 0. -1.
         25    2    1    2    0    0  0.10732972237E+03 -0.60546625406E+02 -0.11935303310E+03  0.21231662248E+03  0.12509052130E+03 0.  0.
          5    1    3    3  502    0  0.11533075176E+03 -0.46369813070E+02 -0.13896110752E+03  0.18649129650E+03  0.41800000000E+01 0.  1.
         -5    1    3    3    0  502 -0.80010293916E+01 -0.14176812336E+02  0.19608074425E+02  0.25825325981E+02  0.41800000000E+01 0.  1.
        -11    1    1    2    0    0 -0.96513036022E+02  0.11783060730E+02 -0.15226717884E+02  0.98414732534E+02  0.00000000000E+00 0.  1.
         11    1    1    2    0    0 -0.10816686349E+02  0.48763564676E+02 -0.41194651081E+02  0.64744769836E+02  0.00000000000E+00 0. -1.
</event>
<event>
 7    1  0.2420569E-009  0.9372642E+02  0.7561462E-02  0.1294071E+00
         -1   -1    0    0    0  501 -0.00000000000E+00  0.00000000000E+00  0.19814877944E+03  0.19814877944E+03  0.00000000000E+00 0.  1.
          1   -1    0    0  501    0  0.00000000000E+00 -0.00000000000E+00 -0.13281398903E+03  0.13281398903E+03  0.00000000000E+00 0. -1.
         25    2    1    2    0    0 -0.32732875512E+02  0.37876224494E+02 -0.77025315268E+02  0.15519389903E+03  0.12508476159E+03 0.  0.
          5    1    3    3  502    0 -0.64637650567E+01 -0.33429257134E+02  0.13555683165E+02  0.36885287546E+02  0.41800000000E+01 0. -1.
         -5    1    3    3    0  502 -0.26269110455E+02  0.71305481629E+02 -0.90580998432E+02  0.11830861148E+03  0.41800000000E+01 0. -1.
        -11    1    1    2    0    0  0.49685867746E+02 -0.32009636362E+02  0.14595934225E+03  0.15747200343E+03  0.00000000000E+00 0.  1.
         11    1    1    2    0    0 -0.16952992234E+02 -0.58665881325E+01 -0.35992365742E+01  0.18296866014E+02  0.00000000000E+00 0. -1.
</event>
<event>
 7    1  0.2420569E-009  0.9462608E+02  0.7561462E-02  0.1292020E+00
          2   -1    0    0  501    0  0.00000000000E+00  0.00000000000E+00  0.98080821174E+02  0.98080821174E+02  0.00000000000E+00 0.  1.
         -2   -1    0    0    0  501 -0.00000000000E+00 -0.00000000000E+00 -0.12286497137E+03  0.12286497137E+03  0.00000000000E+00 0. -1.
         25    2    1    2    0    0 -0.14646278674E+02  0.13516198145E+02  0.64081123958E+00  0.12666893967E+03  0.12508960207E+03 0.  0.
          5    1    3    3  502    0 -0.23914588431E+02 -0.40167102030E+02  0.38076543027E+02  0.60436736793E+02  0.41800000000E+01 0.  1.
         -5    1    3    3    0  502  0.92683097573E+01  0.53683300176E+02 -0.37435731787E+02  0.66232202877E+02  0.41800000000E+01 0.  1.
        -11    1    1    2    0    0  0.27135942290E+02  0.31143743843E+02 -0.24227194445E+02  0.47887880463E+02  0.00000000000E+00 0.  1.
         11    1    1    2    0    0 -0.12489663617E+02 -0.44659941989E+02 -0.11977669926E+01  0.46388972412E+02  0.00000000000E+00 0. -1.
</event>
<event>
 7    1  0.2420569E-009  0.1039516E+03  0.7561462E-02  0.1272199E+00
         -2   -1    0    0    0  501 -0.00000000000E+00  0.00000000000E+00  0.32492026863E+02  0.32492026863E+02  0.00000000000E+00 0.  1.
          2   -1    0    0  501    0  0.00000000000E+00 -0.00000000000E+00 -0.45027630663E+03  0.45027630663E+03  0.00000000000E+00 0. -1.
         25    2    1    2    0    0 -0.29563965431E+02  0.14153323334E+02 -0.15004151122E+03  0.19807822675E+03  0.12509270246E+03 0.  0.
          5    1    3    3  502    0 -0.59372633136E+02  0.40628244211E+02 -0.43334534057E+02  0.84089940154E+02  0.41800000000E+01 0. -1.
         -5    1    3    3    0  502  0.29808667705E+02 -0.26474920877E+02 -0.10670697716E+03  0.11398828660E+03  0.41800000000E+01 0. -1.
        -11    1    1    2    0    0 -0.14980342002E+02  0.29687282776E+02 -0.74307547664E+02  0.81408580905E+02  0.00000000000E+00 0.  1.
         11    1    1    2    0    0  0.44544307433E+02 -0.43840606110E+02 -0.19343522088E+03  0.20328152583E+03  0.00000000000E+00 0. -1.
</event>
<event>
 7    1  0.2420569E-009  0.7139253E+02  0.7561462E-02  0.1355421E+00
          2   -1    0    0  501    0  0.00000000000E+00  0.00000000000E+00  0.12003381706E+03  0.12003381706E+03  0.00000000000E+00 0. -1.
         -2   -1    0    0    0  501 -0.00000000000E+00 -0.00000000000E+00 -0.12821160793E+03  0.12821160793E+03  0.00000000000E+00 0.  1.
         25    2    1    2    0    0  0.92632302493E+01 -0.22805347542E+02  0.46517060931E+02  0.13570870811E+03  0.12508846944E+03 0.  0.
          5    1    3    3  502    0  0.37164797848E+02 -0.45345341816E+02 -0.18257245018E+02  0.61548530601E+02  0.41800000000E+01 0.  1.
         -5    1    3    3    0  502 -0.27901567599E+02  0.22539994274E+02  0.64774305948E+02  0.74160177504E+02  0.41800000000E+01 0.  1.
        -11    1    1    2    0    0 -0.25686637108E+02  0.13467321885E+02  0.20168564340E+02  0.35326237730E+02  0.00000000000E+00 0. -1.
         11    1    1    2    0    0  0.16423406858E+02  0.93380256567E+01 -0.74863416142E+02  0.77210479162E+02  0.00000000000E+00 0.  1.
</event>
<event>
 7    1  0.2420569E-009  0.1746381E+03  0.7561462E-02  0.1173096E+00
         -2   -1    0    0    0  501 -0.00000000000E+00  0.00000000000E+00  0.72210261744E+02  0.72210261744E+02  0.00000000000E+00 0.  1.
          2   -1    0    0  501    0  0.00000000000E+00 -0.00000000000E+00 -0.56457269487E+03  0.56457269487E+03  0.00000000000E+00 0. -1.
         25    2    1    2    0    0  0.14546421603E+03  0.32378069909E+02 -0.12491372650E+03  0.23120784138E+03  0.12508177043E+03 0.  0.
          5    1    3    3  502    0  0.10126195993E+03  0.67623015539E+02 -0.38342911273E+02  0.12772825844E+03  0.41800000000E+01 0. -1.
         -5    1    3    3    0  502  0.44202256098E+02 -0.35244945630E+02 -0.86570815232E+02  0.10347958294E+03  0.41800000000E+01 0. -1.
        -11    1    1    2    0    0 -0.80061873580E+02 -0.59701269171E+02 -0.19386212019E+03  0.21807491095E+03  0.00000000000E+00 0.  1.
         11    1    1    2    0    0 -0.65402342447E+02  0.27323199261E+02 -0.17358658643E+03  0.18750020428E+03  0.00000000000E+00 0. -1.
</event>
<event>
 7    1  0.2420569E-009  0.9475910E+02  0.7561462E-02  0.1291720E+00
          1   -1    0    0  501    0  0.00000000000E+00  0.00000000000E+00  0.11621154655E+03  0.11621154655E+03  0.00000000000E+00 0. -1.
         -1   -1    0    0    0  501 -0.00000000000E+00 -0.00000000000E+00 -0.10253041090E+03  0.10253041090E+03  0.00000000000E+00 0.  1.
         25    2    1    2    0    0 -0.31634327471E+01  0.85853180364E+01  0.49907594164E+01  0.12552031547E+03  0.12508687750E+03 0.  0.
          5    1    3    3  502    0  0.31224201928E+02  0.39461691637E+02 -0.37267922533E+02  0.62757838895E+02  0.41800000000E+01 0. -1.
         -5    1    3    3    0  502 -0.34387634675E+02 -0.30876373600E+02  0.42258681949E+02  0.62762476571E+02  0.41800000000E+01 0. -1.
        -11    1    1    2    0    0 -0.41395857949E+02  0.12613945590E+02  0.10440263855E+01  0.43287627213E+02  0.00000000000E+00 0.  1.
         11    1    1    2    0    0  0.44559290696E+02 -0.21199263627E+02  0.76463498476E+01  0.49934014776E+02  0.00000000000E+00 0. -1.
</event>
<event>
 7    1  0.2420569E-009  0.1314065E+03  0.7561462E-02  0.1225383E+00
         -1   -1    0    0    0  501 -0.00000000000E+00  0.00000000000E+00  0.99650863063E+02  0.99650863063E+02  0.00000000000E+00 0.  1.
          1   -1    0    0  501    0  0.00000000000E+00 -0.00000000000E+00 -0.17847107454E+03  0.17847107454E+03  0.00000000000E+00 0. -1.
         25    2    1    2    0    0  0.36440585970E+02  0.63172702770E+02 -0.66597304294E+02  0.15937546994E+03  0.12508650126E+03 0.  0.
          5    1    3    3  502    0  0.83192905231E+02  0.41927239405E+02 -0.44046022646E+02  0.10313329916E+03  0.41800000000E+01 0. -1.
         -5    1    3    3    0  502 -0.46752319262E+02  0.21245463365E+02 -0.22551281647E+02  0.56242170778E+02  0.41800000000E+01 0. -1.
        -11    1    1    2    0    0  0.10338460699E+02 -0.70001299661E+02 -0.51808747228E+01  0.70950033028E+02  0.00000000000E+00 0.  1.
         11    1    1    2    0    0 -0.46779046669E+02  0.68285968909E+01 -0.70420324613E+01  0.47796434636E+02  0.00000000000E+00 0. -1.
</event>
<event>
 7    1  0.2420569E-009  0.1095413E+03  0.7561462E-02  0.1261422E+00
         -2   -1    0    0    0  501 -0.00000000000E+00  0.00000000000E+00  0.23780119368E+03  0.23780119368E+03  0.00000000000E+00 0.  1.
          2   -1    0    0  501    0  0.00000000000E+00 -0.00000000000E+00 -0.67871106520E+02  0.67871106520E+02  0.00000000000E+00 0. -1.
         25    2    1    2    0    0 -0.24816836802E+02 -0.47063778428E+02  0.14251338253E+03  0.19693534710E+03  0.12507034863E+03 0.  0.
          5    1    3    3  502    0 -0.74445806247E+02 -0.42435756048E+02  0.86266547681E+02  0.12166495431E+03  0.41800000000E+01 0.  1.
         -5    1    3    3    0  502  0.49628969445E+02 -0.46280223805E+01  0.56246834852E+02  0.75270392786E+02  0.41800000000E+01 0.  1.
        -11    1    1    2    0    0  0.17575070572E+01  0.57805232932E+02 -0.14575623782E+02  0.59640444281E+02  0.00000000000E+00 0. -1.
         11    1    1    2    0    0  0.23059329745E+02 -0.10741454503E+02  0.41992328409E+02  0.49096508821E+02  0.00000000000E+00 0.  1.
</event>
<event>
 7    1  0.2420569E-009  0.1061470E+03  0.7561462E-02  0.1267876E+00
         -2   -1    0    0    0  501 -0.00000000000E+00  0.00000000000E+00  0.19511410389E+02  0.19511410389E+02  0.00000000000E+00 0.  1.
          2   -1    0    0  501    0  0.00000000000E+00 -0.00000000000E+00 -0.81686918124E+03  0.81686918124E+03  0.00000000000E+00 0. -1.
         25    2    1    2    0    0  0.16504687298E+02  0.31220670174E+02 -0.61826748970E+03  0.63178293479E+03  0.12509137829E+03 0.  0.
          5    1    3    3  502    0 -0.36957578223E+02 -0.27057975937E+02 -0.15093193657E+03  0.15778440521E+03  0.41800000000E+01 0. -1.
         -5    1    3    3    0  502  0.53462265522E+02  0.58278646110E+02 -0.46733555313E+03  0.47399852958E+03  0.41800000000E+01 0. -1.
        -11    1    1    2    0    0  0.15350802502E+02 -0.48494253104E+02 -0.53235731101E+02  0.73630039980E+02  0.00000000000E+00 0.  1.
         11    1    1    2    0    0 -0.31855489800E+02  0.17273582930E+02 -0.12585455005E+03  0.13096761686E+03  0.00000000000E+00 0. -1.
</event>
<event>
 7    1  0.2420569E-009  0.2692820E+03  0.7561462E-02  0.1101691E+00
         -2   -1    0    0    0  501 -0.00000000000E+00  0.00000000000E+00  0.36454083955E+03  0.36454083955E+03  0.00000000000E+00 0.  1.
          2   -1    0    0  501    0  0.00000000000E+00 -0.00000000000E+00 -0.27614398196E+03  0.27614398196E+03  0.00000000000E+00 0. -1.
         25    2    1    2    0    0  0.22176287000E+03  0.13974558078E+03 -0.98109530446E+02  0.30656273466E+03  0.12509049707E+03 0.  0.
          5    1    3    3  502    0  0.29783336243E+02  0.51459982743E+02 -0.72212864342E+02  0.93634113005E+02  0.41800000000E+01 0.  1.
         -5    1    3    3    0  502  0.19197953376E+03  0.88285598039E+02 -0.25896666104E+02  0.21292862165E+03  0.41800000000E+01 0.  1.
        -11    1    1    2    0    0 -0.11968415099E+03 -0.10663488256E+03  0.15326313473E+03  0.22177665036E+03  0.00000000000E+00 0.  1.
         11    1    1    2    0    0 -0.10207871901E+03 -0.33110698226E+02  0.33243253297E+02  0.11234543650E+03  0.00000000000E+00 0. -1.
</event>
<event>
 7    1  0.2420569E-009  0.1228795E+03  0.7561462E-02  0.1238421E+00
         -2   -1    0    0    0  501 -0.00000000000E+00  0.00000000000E+00  0.18534491108E+02  0.18534491108E+02  0.00000000000E+00 0.  1.
          2   -1    0    0  501    0  0.00000000000E+00 -0.00000000000E+00 -0.85613896114E+03  0.85613896114E+03  0.00000000000E+00 0. -1.
         25    2    1    2    0    0 -0.18946985296E+02 -0.61141385848E+02 -0.40776424351E+03  0.43129681864E+03  0.12509200682E+03 0.  0.
          5    1    3    3  502    0  0.38690094225E+02  0.17554913968E+02 -0.11392127917E+03  0.12165783428E+03  0.41800000000E+01 0. -1.
         -5    1    3    3    0  502 -0.57637079521E+02 -0.78696299816E+02 -0.29384296435E+03  0.30963898436E+03  0.41800000000E+01 0. -1.
        -11    1    1    2    0    0  0.46549428297E+02  0.10442323101E+02 -0.24959395963E+03  0.25411225093E+03  0.00000000000E+00 0. -1.
         11    1    1    2    0    0 -0.27602443002E+02  0.50699062747E+02 -0.18024626689E+03  0.18926438268E+03  0.00000000000E+00 0.  1.
</event>
<event>
 7    1  0.2420569E-009  0.1293854E+03  0.7561462E-02  0.1228370E+00
         -1   -1    0    0    0  501 -0.00000000000E+00  0.00000000000E+00  0.21396826547E+03  0.21396826547E+03  0.00000000000E+00 0.  1.
          1   -1    0    0  501    0  0.00000000000E+00 -0.00000000000E+00 -0.10296314983E+03  0.10296314983E+03  0.00000000000E+00 0. -1.
         25    2    1    2    0    0  0.93548383562E+02 -0.28240203489E+02  0.87352018176E+02  0.18118738537E+03  0.12509869855E+03 0.  0.
          5    1    3    3  502    0 -0.22609863168E+02  0.11139359370E+02 -0.68804690046E+01  0.26459487776E+02  0.41800000000E+01 0. -1.
         -5    1    3    3    0  502  0.11615824673E+03 -0.39379562859E+02  0.94232487180E+02  0.15472789760E+03  0.41800000000E+01 0. -1.
        -11    1    1    2    0    0 -0.28799505728E+02  0.35082233793E+02 -0.27388835392E+02  0.53012479306E+02  0.00000000000E+00 0.  1.
         11    1    1    2    0    0 -0.64748877834E+02 -0.68420303031E+01  0.51041932856E+02  0.82731550627E+02  0.00000000000E+00 0. -1.
</event>
<event>
 7    1  0.2420569E-009  0.9784036E+02  0.7561462E-02  0.1284904E+00
         -2   -1    0    0    0  501 -0.00000000000E+00  0.00000000000E+00  0.16359289034E+02  0.16359289034E+02  0.00000000000E+00 0.  1.
          2   -1    0    0  501    0  0.00000000000E+00 -0.00000000000E+00 -0.10558130110E+04  0.10558130110E+04  0.00000000000E+00 0. -1.
         25    2    1    2    0    0 -0.64904834311E+02  0.39896814624E+02 -0.58360193957E+03  0.60169910950E+03  0.12508477594E+03 0.  0.
          5    1    3    3  502    0 -0.36765856992E+02  0.38621540710E+02 -0.74021506796E+02  0.91323641602E+02  0.41800000000E+01 0. -1.
         -5    1    3    3    0  502 -0.28138977318E+02  0.12752739139E+01 -0.50958043277E+03  0.51037546790E+03  0.41800000000E+01 0. -1.
        -11    1    1    2    0    0 -0.19032643500E+02  0.33008775564E+01 -0.46019486331E+02  0.49909221927E+02  0.00000000000E+00 0.  1.
         11    1    1    2    0    0  0.83937477810E+02 -0.43197692180E+02 -0.40983229606E+03  0.42056396860E+03  0.00000000000E+00 0. -1.
</event>
<event>
 7    1  0.2420569E-009  0.1508939E+03  0.7561462E-02  0.1199379E+00
          2   -1    0    0  501    0  0.00000000000E+00  0.00000000000E+00  0.13049080576E+03  0.13049080576E+03  0.00000000000E+00 0. -1.
         -2   -1    0    0    0  501 -0.00000000000E+00 -0.00000000000E+00 -0.21844986915E+03  0.21844986915E+03  0.00000000000E+00 0.  1.
         25    2    1    2    0    0  0.87657527196E+02  0.91137108345E+02 -0.23696171945E+02  0.17943732720E+03  0.12508569557E+03 0.  0.
          5    1    3    3  502    0 -0.22161918532E+01  0.74780436212E+02 -0.42405856258E+02  0.86097352987E+02  0.41800000000E+01 0.  1.
         -5    1    3    3    0  502  0.89873719049E+02  0.16356672133E+02  0.18709684313E+02  0.93339974213E+02  0.41800000000E+01 0.  1.
        -11    1    1    2    0    0 -0.47388866913E+02 -0.15738303127E+02 -0.67501850004E+02  0.83963674566E+02  0.00000000000E+00 0.  1.
         11    1    1    2    0    0 -0.40268660282E+02 -0.75398805218E+02  0.32389585586E+01  0.85539673145E+02  0.00000000000E+00 0. -1.
</event>
<event>
 7    1  0.2420569E-009  0.1323736E+03  0.7561462E-02  0.1223976E+00
         -1   -1    0    0    0  501 -0.00000000000E+00  0.00000000000E+00  0.59572323819E+03  0.59572323819E+03  0.00000000000E+00 0.  1.
          1   -1    0    0  501    0  0.00000000000E+00 -0.00000000000E+00 -0.42732552604E+02  0.42732552604E+02  0.00000000000E+00 0. -1.
         25    2    1    2    0    0  0.23604688738E+02  0.10944227854E+03  0.35824822818E+03  0.39563103723E+03  0.12508929197E+03 0.  0.
          5    1    3    3  502    0  0.36916878258E+02  0.95851770492E+02  0.12621819843E+03  0.16278490047E+03  0.41800000000E+01 0. -1.
         -5    1    3    3    0  502 -0.13312189520E+02  0.13590508052E+02  0.23203002975E+03  0.23284613676E+03  0.41800000000E+01 0. -1.
        -11    1    1    2    0    0 -0.40856082079E+02 -0.11678098616E+03  0.18231962403E+03  0.22033488938E+03  0.00000000000E+00 0.  1.
         11    1    1    2    0    0  0.17251393341E+02  0.73387076176E+01  0.12422833375E+02  0.22489864179E+02  0.00000000000E+00 0. -1.
</event>
<event>
 7    1  0.2420569E-009  0.1408866E+03  0.7561462E-02  0.1212141E+00
          2   -1    0    0  501    0  0.00000000000E+00  0.00000000000E+00  0.42734520864E+03  0.42734520864E+03  0.00000000000E+00 0. -1.
         -2   -1    0    0    0  501 -0.00000000000E+00 -0.00000000000E+00 -0.52276410675E+02  0.52276410675E+02  0.00000000000E+00 0.  1.
         25    2    1    2    0    0 -0.29303957490E+02 -0.10141940901E+03  0.26115906923E+03  0.30821438266E+03  0.12508967898E+03 0.  0.
          5    1    3    3  502    0  0.48932386300E+02 -0.32590319349E+02  0.10553714377E+03  0.12088038906E+03  0.41800000000E+01 0.  1.
         -5    1    3    3    0  502 -0.78236343790E+02 -0.68829089663E+02  0.15562192546E+03  0.18733399360E+03  0.41800000000E+01 0.  1.
        -11    1    1    2    0    0 -0.15875989827E+02  0.31942801860E+02  0.67694225521E+02  0.76517304007E+02  0.00000000000E+00 0. -1.
         11    1    1    2    0    0  0.45179947316E+02  0.69476607153E+02  0.46215503215E+02  0.94889932650E+02  0.00000000000E+00 0.  1.
</event>
<event>
 7    1  0.2420569E-009  0.1024768E+03  0.7561462E-02  0.1275172E+00
         -3   -1    0    0    0  501 -0.00000000000E+00  0.00000000000E+00  0.14449441864E+03  0.14449441864E+03  0.00000000000E+00 0.  1.
          3   -1    0    0  501    0  0.00000000000E+00 -0.00000000000E+00 -0.12252197336E+03  0.12252197336E+03  0.00000000000E+00 0. -1.
         25    2    1    2    0    0 -0.55819280422E+02  0.22456103868E+02  0.53376735097E+02  0.14871617924E+03  0.12508939783E+03 0.  0.
          5    1    3    3  502    0  0.43144112482E+01  0.49854834451E+02 -0.16107452273E+02  0.52735576998E+02  0.41800000000E+01 0. -1.
         -5    1    3    3    0  502 -0.60133691671E+02 -0.27398730584E+02  0.69484187370E+02  0.95980602238E+02  0.41800000000E+01 0. -1.
        -11    1    1    2    0    0  0.15757314495E+02  0.23034335265E+02  0.23523125989E+02  0.36499465989E+02  0.00000000000E+00 0.  1.
         11    1    1    2    0    0  0.40061965928E+02 -0.45490439133E+02 -0.54927415804E+02  0.81800746777E+02  0.00000000000E+00 0. -1.
</event>
<event>
 7    1  0.2420569E-009  0.1852210E+03  0.7561462E-02  0.1162844E+00
          2   -1    0    0  501    0  0.00000000000E+00  0.00000000000E+00  0.95171838655E+03  0.95171838655E+03  0.00000000000E+00 0. -1.
         -2   -1    0    0    0  501 -0.00000000000E+00 -0.00000000000E+00 -0.38305128575E+02  0.38305128575E+02  0.00000000000E+00 0.  1.
         25    2    1    2    0    0  0.15316113027E+03 -0.48886058326E+02  0.48867178581E+03  0.52942976301E+03  0.12509029216E+03 0.  0.
          5    1    3    3  502    0  0.17136030907E+03 -0.56077161280E+02  0.46296515674E+03  0.49685331064E+03  0.41800000000E+01 0.  1.
         -5    1    3    3    0  502 -0.18199178803E+02  0.71911029541E+01  0.25706629066E+02  0.32576452366E+02  0.41800000000E+01 0.  1.
        -11    1    1    2    0    0 -0.54044619043E+02  0.45922578386E+02  0.11253466096E+03  0.13301787087E+03  0.00000000000E+00 0. -1.
         11    1    1    2    0    0 -0.99116511223E+02  0.29634799395E+01  0.31220681121E+03  0.32757588125E+03  0.00000000000E+00 0.  1.
</event>
<event>
 7    1  0.2420569E-009  0.9060355E+02  0.7561462E-02  0.1301397E+00
          3   -1    0    0  501    0  0.00000000000E+00  0.00000000000E+00  0.70602127173E+03  0.70602127173E+03  0.00000000000E+00 0. -1.
         -3   -1    0    0    0  501 -0.00000000000E+00 -0.00000000000E+00 -0.18543974737E+02  0.18543974737E+02  0.00000000000E+00 0.  1.
         25    2    1    2    0    0 -0.29423934130E+02  0.11411943456E+02  0.45166300640E+03  0.46972616844E+03  0.12508877493E+03 0.  0.
          5    1    3    3  502    0  0.48994337961E+01 -0.47374891473E+02  0.29517373894E+03  0.29902072396E+03  0.41800000000E+01 0.  1.
         -5    1    3    3    0  502 -0.34323367927E+02  0.58786834929E+02  0.15648926746E+03  0.17070544448E+03  0.41800000000E+01 0.  1.
        -11    1    1    2    0    0 -0.16897549216E+02 -0.81454364340E+01  0.50184593126E+01  0.19418038986E+02  0.00000000000E+00 0.  1.
         11    1    1    2    0    0  0.46321483346E+02 -0.32665070216E+01  0.23079583128E+03  0.23542103904E+03  0.00000000000E+00 0. -1.
</event>
<event>
 7    1  0.2420569E-009  0.1018730E+03  0.7561462E-02  0.1276406E+00
          1   -1    0    0  501    0  0.00000000000E+00  0.00000000000E+00  0.23257355902E+03  0.23257355902E+03  0.00000000000E+00 0. -1.
         -1   -1    0    0    0  501 -0.00000000000E+00 -0.00000000000E+00 -0.57386572936E+02  0.57386572936E+02  0.00000000000E+00 0.  1.
         25    2    1    2    0    0  0.29627294007E+02 -0.24211634216E+02  0.82562575641E+02  0.15468672113E+03  0.12508965991E+03 0.  0.
          5    1    3    3  502    0 -0.33827593992E+02  0.29137802692E+02  0.13856715001E+02  0.46933981417E+02  0.41800000000E+01 0. -1.
         -5    1    3    3    0  502  0.63454887999E+02 -0.53349436908E+02  0.68705860640E+02  0.10775273971E+03  0.41800000000E+01 0. -1.
        -11    1    1    2    0    0 -0.50405466498E+02  0.12065640632E+02  0.14930550632E+02  0.53937112259E+02  0.00000000000E+00 0.  1.
         11    1    1    2    0    0  0.20778172491E+02  0.12145993584E+02  0.77693859813E+02  0.81336298569E+02  0.00000000000E+00 0. -1.
</event>
<event>
 7    1  0.2420569E-009  0.1542387E+03  0.7561462E-02  0.1195359E+00
         -2   -1    0    0    0  501 -0.00000000000E+00  0.00000000000E+00  0.11849510613E+03  0.11849510613E+03  0.00000000000E+00 0.  1.
          2   -1    0    0  501    0  0.00000000000E+00 -0.00000000000E+00 -0.22701609960E+03  0.22701609960E+03  0.00000000000E+00 0. -1.
         25    2    1    2    0    0  0.11136936160E+03  0.16052522325E+02 -0.56596547012E+01  0.16834441375E+03  0.12508793617E+03 0.  0.
          5    1    3    3  502    0  0.86715257161E+02  0.65690242289E+02  0.13168396307E+02  0.10966140077E+03  0.41800000000E+01 0.  1.
         -5    1    3    3    0  502  0.24654104435E+02 -0.49637719964E+02 -0.18828051008E+02  0.58683012989E+02  0.41800000000E+01 0.  1.
        -11    1    1    2    0    0 -0.10489384957E+03 -0.45165604308E+02 -0.77508064550E+02  0.13802228646E+03  0.00000000000E+00 0. -1.
         11    1    1    2    0    0 -0.64755120302E+01  0.29113081983E+02 -0.25353274213E+02  0.39144505514E+02  0.00000000000E+00 0.  1.
</event>
<event>
 7    1  0.2420569E-009  0.1462705E+03  0.7561462E-02  0.1205132E+00
         -3   -1    0    0    0  501 -0.00000000000E+00  0.00000000000E+00  0.58383934384E+02  0.58383934384E+02  0.00000000000E+00 0.  1.
          3   -1    0    0  501    0  0.00000000000E+00 -0.00000000000E+00 -0.57480620264E+03  0.57480620264E+03  0.00000000000E+00 0. -1.
         25    2    1    2    0    0  0.12178486561E+02 -0.13261718948E+03 -0.16072584236E+03  0.24334230719E+03  0.12508815926E+03 0.  0.
          5    1    3    3  502    0  0.16528243553E+02 -0.13601905809E+03 -0.72934245435E+02  0.15527795580E+03  0.41800000000E+01 0.  1.
         -5    1    3    3    0  502 -0.43497569928E+01  0.34018686104E+01 -0.87791596927E+02  0.88064351397E+02  0.41800000000E+01 0.  1.
        -11    1    1    2    0    0  0.24917806586E+02  0.82489402693E+02 -0.27297922000E+03  0.28625697056E+03  0.00000000000E+00 0. -1.
         11    1    1    2    0    0 -0.37096293146E+02  0.50127786788E+02 -0.82717205887E+02  0.10359085927E+03  0.00000000000E+00 0.  1.
</event>
<event>
 7    1  0.2420569E-009  0.1251877E+03  0.7561462E-02  0.1234776E+00
         -1   -1    0    0    0  501 -0.00000000000E+00  0.00000000000E+00  0.71336768651E+03  0.71336768651E+03  0.00000000000E+00 0.  1.
          1   -1    0    0  501    0  0.00000000000E+00 -0.00000000000E+00 -0.42943922848E+02  0.42943922848E+02  0.00000000000E+00 0. -1.
         25    2    1    2    0    0  0.76364777327E+02 -0.24739851300E+02  0.59192717766E+03  0.61030174174E+03  0.12508714103E+03 0.  0.
          5    1    3    3  502    0  0.26139358917E+02  0.39278694071E+02  0.89018276830E+02  0.10083554880E+03  0.41800000000E+01 0. -1.
         -5    1    3    3    0  502  0.50225418410E+02 -0.64018545371E+02  0.50290890083E+03  0.50946619294E+03  0.41800000000E+01 0. -1.
        -11    1    1    2    0    0 -0.51038321617E+02  0.59585115209E+02  0.39208783881E+02  0.87707610625E+02  0.00000000000E+00 0. -1.
         11    1    1    2    0    0 -0.25326455710E+02 -0.34845263909E+02  0.39287802117E+02  0.58302256997E+02  0.00000000000E+00 0.  1.
</event>
<event>
 7    1  0.2420569E-009  0.1782546E+03  0.7561462E-02  0.1169503E+00
         -1   -1    0    0    0  501 -0.00000000000E+00  0.00000000000E+00  0.52429515574E+02  0.52429515574E+02  0.00000000000E+00 0.  1.
          1   -1    0    0  501    0  0.00000000000E+00 -0.00000000000E+00 -0.62344586766E+03  0.62344586766E+03  0.00000000000E+00 0. -1.
         25    2    1    2    0    0  0.11135098321E+03 -0.91432497194E+02 -0.31418755603E+03  0.36758683005E+03  0.12508922519E+03 0.  0.
          5    1    3    3  502    0  0.95381098242E+02  0.87688097211E+00 -0.18189084557E+03  0.20542656821E+03  0.41800000000E+01 0.  1.
         -5    1    3    3    0  502  0.15969884966E+02 -0.92309378166E+02 -0.13229671046E+03  0.16216026184E+03  0.41800000000E+01 0.  1.
        -11    1    1    2    0    0 -0.53641161363E+02  0.95363911619E+02 -0.13785890682E+03  0.17600206823E+03  0.00000000000E+00 0.  1.
         11    1    1    2    0    0 -0.57709821845E+02 -0.39314144243E+01 -0.11896988924E+03  0.13228648495E+03  0.00000000000E+00 0. -1.
</event>
<event>
 7    1  0.2420569E-009  0.1499033E+03  0.7561462E-02  0.1200592E+00
         -1   -1    0    0    0  501 -0.00000000000E+00  0.00000000000E+00  0.54449676990E+02  0.54449676990E+02  0.00000000000E+00 0.  1.
          1   -1    0    0  501    0  0.00000000000E+00 -0.00000000000E+00 -0.41564372864E+03  0.41564372864E+03  0.00000000000E+00 0. -1.
         25    2    1    2    0    0 -0.60145075649E+02 -0.79631948853E+02 -0.19318892654E+03  0.25085418847E+03  0.12508870905E+03 0.  0.
          5    1    3    3  502    0  0.23169741626E+02  0.18681426970E+02 -0.48448303663E+02  0.57013534958E+02  0.41800000000E+01 0.  1.
         -5    1    3    3    0  502 -0.83314817275E+02 -0.98313375823E+02 -0.14474062288E+03  0.19384065351E+03  0.41800000000E+01 0.  1.
        -11    1    1    2    0    0  0.21265479072E+02 -0.22845422532E+02 -0.35122694393E+02  0.46986568211E+02  0.00000000000E+00 0.  1.
         11    1    1    2    0    0  0.38879596578E+02  0.10247737139E+03 -0.13288243072E+03  0.17225264895E+03  0.00000000000E+00 0. -1.
</event>
<event>
 7    1  0.2420569E-009  0.4666279E+03  0.7561462E-02  0.1022876E+00
          2   -1    0    0  501    0  0.00000000000E+00  0.00000000000E+00  0.88442178542E+03  0.88442178542E+03  0.00000000000E+00 0.  1.
         -2   -1    0    0    0  501 -0.00000000000E+00 -0.00000000000E+00 -0.33760317397E+03  0.33760317397E+03  0.00000000000E+00 0. -1.
         25    2    1    2    0    0  0.12686080823E+03  0.43801156098E+03  0.58776000130E+03  0.75435820053E+03  0.12508670337E+03 0.  0.
          5    1    3    3  502    0  0.14558153188E+03  0.38885746141E+03  0.55146840992E+03  0.69031803342E+03  0.41800000000E+01 0. -1.
         -5    1    3    3    0  502 -0.18720723653E+02  0.49154099574E+02  0.36291591373E+02  0.64040167109E+02  0.41800000000E+01 0. -1.
        -11    1    1    2    0    0 -0.11930894527E+03 -0.24915988383E+03 -0.36111677609E+02  0.27860245044E+03  0.00000000000E+00 0.  1.
         11    1    1    2    0    0 -0.75518629547E+01 -0.18885167715E+03 -0.48297122429E+01  0.18906430842E+03  0.00000000000E+00 0. -1.
</event>
<event>
 7    1  0.2420569E-009  0.1056035E+03  0.7561462E-02  0.1268935E+00
          1   -1    0    0  501    0  0.00000000000E+00  0.00000000000E+00  0.70330770354E+02  0.70330770354E+02  0.00000000000E+00 0. -1.
         -1   -1    0    0    0  501 -0.00000000000E+00 -0.00000000000E+00 -0.19643214228E+03  0.19643214228E+03  0.00000000000E+00 0.  1.
         25    2    1    2    0    0  0.20628370574E+02  0.96353802772E+01 -0.26562384679E+02  0.12988680691E+03  0.12508657844E+03 0.  0.
          5    1    3    3  502    0  0.13349660121E+02  0.64773369935E+02 -0.32483670801E+02  0.73800163596E+02  0.41800000000E+01 0.  1.
         -5    1    3    3    0  502  0.72787104528E+01 -0.55137989658E+02  0.59212861222E+01  0.56086643318E+02  0.41800000000E+01 0.  1.
        -11    1    1    2    0    0  0.67605821327E+01  0.35627178117E+02 -0.62625244829E+02  0.72366584701E+02  0.00000000000E+00 0.  1.
         11    1    1    2    0    0 -0.27388952707E+02 -0.45262558394E+02 -0.36913742416E+02  0.64509521018E+02  0.00000000000E+00 0. -1.
</event>
<event>
 7    1  0.2420569E-009  0.9445708E+02  0.7561462E-02  0.1292404E+00
         -1   -1    0    0    0  501 -0.00000000000E+00  0.00000000000E+00  0.47249513101E+02  0.47249513101E+02  0.00000000000E+00 0.  1.
          1   -1    0    0  501    0  0.00000000000E+00 -0.00000000000E+00 -0.29827989675E+03  0.29827989675E+03  0.00000000000E+00 0. -1.
         25    2    1    2    0    0  0.12551859642E+01  0.31554679207E+02 -0.19493088028E+03  0.23375848157E+03  0.12509079243E+03 0.  0.
          5    1    3    3  502    0 -0.28828334095E+02 -0.35810590501E+02 -0.11975957830E+03  0.12834835501E+03  0.41800000000E+01 0. -1.
         -5    1    3    3    0  502  0.30083520059E+02  0.67365269707E+02 -0.75171301977E+02  0.10541012657E+03  0.41800000000E+01 0. -1.
        -11    1    1    2    0    0  0.23899287016E+02  0.50643641946E+01  0.14461147401E+02  0.28389231915E+02  0.00000000000E+00 0.  1.
         11    1    1    2    0    0 -0.25154472980E+02 -0.36619043401E+02 -0.70560650772E+02  0.83381696360E+02  0.00000000000E+00 0. -1.
</event>
<event>
 7    1  0.2420569E-009  0.1070497E+03  0.7561462E-02  0.1266133E+00
          2   -1    0    0  501    0  0.00000000000E+00  0.00000000000E+00  0.27889321885E+03  0.27889321885E+03  0.00000000000E+00 0. -1.
         -2   -1    0    0    0  501 -0.00000000000E+00 -0.00000000000E+00 -0.63926283833E+02  0.63926283833E+02  0.00000000000E+00 0.  1.
         25    2    1    2    0    0  0.63871503477E+02 -0.29625677470E+02  0.16541719008E+03  0.21901605290E+03  0.12509170609E+03 0.  0.
          5    1    3    3  502    0 -0.37126092954E+02 -0.16881161645E+01  0.57016931722E+02  0.68187971206E+02  0.41800000000E+01 0. -1.
         -5    1    3    3    0  502  0.10099759643E+03 -0.27937561305E+02  0.10840025836E+03  0.15082808170E+03  0.41800000000E+01 0. -1.
        -11    1    1    2    0    0 -0.45105455966E+02  0.13495017388E+02  0.74841901887E+02  0.88419047328E+02  0.00000000000E+00 0. -1.
         11    1    1    2    0    0 -0.18766047510E+02  0.16130660081E+02 -0.25292156950E+02  0.35384402454E+02  0.00000000000E+00 0.  1.
</event>
<event>
 7    1  0.2420569E-009  0.1471540E+03  0.7561462E-02  0.1204014E+00
         -2   -1    0    0    0  501 -0.00000000000E+00  0.00000000000E+00  0.23545008682E+02  0.23545008682E+02  0.00000000000E+00 0.  1.
          2   -1    0    0  501    0  0.00000000000E+00 -0.00000000000E+00 -0.13454601554E+04  0.13454601554E+04  0.00000000000E+00 0. -1.
         25    2    1    2    0    0  0.11016903414E+03 -0.57217237857E+02 -0.96255928531E+03  0.97855998262E+03  0.12509289928E+03 0.  0.
          5    1    3    3  502    0  0.10929807916E+03 -0.20952466679E+02 -0.41185200288E+03  0.42664343502E+03  0.41800000000E+01 0. -1.
         -5    1    3    3    0  502  0.87095497834E+00 -0.36264771178E+02 -0.55070728243E+03  0.55191654759E+03  0.41800000000E+01 0. -1.
        -11    1    1    2    0    0 -0.54700333280E+02 -0.13702627427E+02 -0.19564176933E+03  0.20360645954E+03  0.00000000000E+00 0.  1.
         11    1    1    2    0    0 -0.55468700856E+02  0.70919865284E+02 -0.16371409207E+03  0.18683872192E+03  0.00000000000E+00 0. -1.
</event>
<event>
 7    1  0.2420569E-009  0.1214452E+03  0.7561462E-02  0.1240732E+00
         -1   -1    0    0    0  501 -0.00000000000E+00  0.00000000000E+00  0.10623989039E+03  0.10623989039E+03  0.00000000000E+00 0.  1.
          1   -1    0    0  501    0  0.00000000000E+00 -0.00000000000E+00 -0.19303387658E+03  0.19303387658E+03  0.00000000000E+00 0. -1.
         25    2    1    2    0    0  0.76096361932E+02  0.47736759462E+02 -0.75657300966E+02  0.17156900582E+03  0.12506974880E+03 0.  0.
          5    1    3    3  502    0  0.22773254330E+01 -0.38832305820E+02 -0.28202463765E+02  0.48228472387E+02  0.41800000000E+01 0. -1.
         -5    1    3    3    0  502  0.73819036499E+02  0.86569065282E+02 -0.47454837202E+02  0.12334053343E+03  0.41800000000E+01 0. -1.
        -11    1    1    2    0    0 -0.44508315003E+02 -0.25553721438E+02  0.38979791155E+02  0.64446930898E+02  0.00000000000E+00 0.  1.
         11    1    1    2    0    0 -0.31588046929E+02 -0.22183038024E+02 -0.50116476376E+02  0.63257830260E+02  0.00000000000E+00 0. -1.
</event>
<event>
 7    1  0.2420569E-009  0.1161051E+03  0.7561462E-02  0.1249664E+00
          2   -1    0    0  501    0  0.00000000000E+00  0.00000000000E+00  0.93667658589E+03  0.93667658589E+03  0.00000000000E+00 0. -1.
         -2   -1    0    0    0  501 -0.00000000000E+00 -0.00000000000E+00 -0.21072937534E+02  0.21072937534E+02  0.00000000000E+00 0.  1.
         25    2    1    2    0    0  0.23667560389E+02  0.97672050913E+02  0.61590569055E+03  0.63646488705E+03  0.12509096631E+03 0.  0.
          5    1    3    3  502    0 -0.20201473264E+02  0.78039208526E+01  0.37427063628E+03  0.37491996784E+03  0.41800000000E+01 0.  1.
         -5    1    3    3    0  502  0.43869033653E+02  0.89868130060E+02  0.24163505427E+03  0.26154491921E+03  0.41800000000E+01 0.  1.
        -11    1    1    2    0    0  0.13437984657E+02 -0.30363486764E+02  0.14231372051E+03  0.14613594974E+03  0.00000000000E+00 0. -1.
         11    1    1    2    0    0 -0.37105545046E+02 -0.67308564149E+02  0.15738423729E+03  0.17514868663E+03  0.00000000000E+00 0.  1.
</event>
<event>
 7    1  0.2420569E-009  0.1050428E+03  0.7561462E-02  0.1270035E+00
          1   -1    0    0  501    0  0.00000000000E+00  0.00000000000E+00  0.63462448094E+02  0.63462448094E+02  0.00000000000E+00 0. -1.
         -1   -1    0    0    0  501 -0.00000000000E+00 -0.00000000000E+00 -0.96693737883E+03  0.96693737883E+03  0.00000000000E+00 0.  1.
         25    2    1    2    0    0 -0.29578864734E+01  0.10462599486E+03 -0.87187283789E+03  0.88699714385E+03  0.12508533031E+03 0.  0.
          5    1    3    3  502    0 -0.43807309791E+01  0.27606543706E+02 -0.67437156209E+03  0.67496354584E+03  0.41800000000E+01 0.  1.
         -5    1    3    3    0  502  0.14228445057E+01  0.77019451156E+02 -0.19750127580E+03  0.21203359801E+03  0.41800000000E+01 0.  1.
        -11    1    1    2    0    0  0.21388304852E+01 -0.51183356245E+02 -0.63167200453E+02  0.81328997076E+02  0.00000000000E+00 0.  1.
         11    1    1    2    0    0  0.81905598822E+00 -0.53442638617E+02  0.31565107605E+02  0.62073685997E+02  0.00000000000E+00 0. -1.
</event>
<event>
 7    1  0.2420569E-009  0.1406763E+03  0.7561462E-02  0.1212422E+00
          1   -1    0    0  501    0  0.00000000000E+00  0.00000000000E+00  0.23659635042E+03  0.23659635042E+03  0.00000000000E+00 0. -1.
         -1   -1    0    0    0  501 -0.00000000000E+00 -0.00000000000E+00 -0.12665796445E+03  0.12665796445E+03  0.00000000000E+00 0.  1.
         25    2    1    2    0    0 -0.98277944099E+02 -0.42142297239E+02  0.14417831645E+03  0.21879119453E+03  0.12509065655E+03 0.  0.
          5    1    3    3  502    0  0.10946458953E+02 -0.30825440340E+02  0.90842206694E+02  0.96642700981E+02  0.41800000000E+01 0.  1.
         -5    1    3    3    0  502 -0.10922440305E+03 -0.11316856898E+02  0.53336109756E+02  0.12214849355E+03  0.41800000000E+01 0.  1.
        -11    1    1    2    0    0  0.24474830098E+02 -0.27638634301E+02 -0.19741349040E+02  0.41864451224E+02  0.00000000000E+00 0.  1.
         11    1    1    2    0    0  0.73803114001E+02  0.69780931539E+02 -0.14498581438E+02  0.10259866913E+03  0.00000000000E+00 0. -1.
</event>
<event>
 7    1  0.2420569E-009  0.1278074E+03  0.7561462E-02  0.1230746E+00
         -2   -1    0    0    0  501 -0.00000000000E+00  0.00000000000E+00  0.67054558072E+02  0.67054558072E+02  0.00000000000E+00 0. -1.
          2   -1    0    0  501    0  0.00000000000E+00 -0.00000000000E+00 -0.39904016153E+03  0.39904016153E+03  0.00000000000E+00 0.  1.
         25    2    1    2    0    0  0.60246024676E+02 -0.54926078750E+02 -0.30681897074E+03  0.34122081938E+03  0.12508920478E+03 0.  0.
          5    1    3    3  502    0 -0.37472616934E+02 -0.30244542080E+02 -0.10532544606E+03  0.11588723542E+03  0.41800000000E+01 0. -1.
         -5    1    3    3    0  502  0.97718641610E+02 -0.24681536670E+02 -0.20149352468E+03  0.22533358395E+03  0.41800000000E+01 0. -1.
        -11    1    1    2    0    0  0.93011973298E+01 -0.82603583748E+01  0.17666846307E+02  0.21607018552E+02  0.00000000000E+00 0. -1.
         11    1    1    2    0    0 -0.69547222005E+02  0.63186437124E+02 -0.42833479023E+02  0.10326688167E+03  0.00000000000E+00 0.  1.
</event>
<event>
 7    1  0.2590287E-009  0.9340766E+02  0.7561462E-02  0.1294803E+00
         -1   -1    0    0    0  501 -0.00000000000E+00  0.00000000000E+00  0.15801660693E+02  0.15801660693E+02  0.00000000000E+00 0. -1.
          1   -1    0    0  501    0  0.00000000000E+00 -0.00000000000E+00 -0.92215795926E+03  0.92215795926E+03  0.00000000000E+00 0.  1.
         25    2    1    2    0    0  0.47507897662E+02 -0.20496247956E+02 -0.47904632537E+03  0.49780556240E+03  0.12509156483E+03 0.  0.
          5    1    3    3  502    0 -0.11558790900E+02  0.11757276898E+02 -0.33272320532E+01  0.17331534274E+02  0.41800000000E+01 0. -1.
         -5    1    3    3    0  502  0.59066688563E+02 -0.32253524854E+02 -0.47571909332E+03  0.48047402813E+03  0.41800000000E+01 0. -1.
        -11    1    1    2    0    0  0.11746875729E+02  0.38656764504E+02 -0.11884430637E+03  0.12552411596E+03  0.00000000000E+00 0. -1.
         11    1    1    2    0    0 -0.59254773391E+02 -0.18160516548E+02 -0.30846566683E+03  0.31462994159E+03  0.00000000000E+00 0.  1.
</event>
<event>
 7    1  0.2420569E-009  0.9315525E+02  0.7561462E-02  0.1295386E+00
          2   -1    0    0  501    0  0.00000000000E+00  0.00000000000E+00  0.25128010204E+02  0.25128010204E+02  0.00000000000E+00 0.  1.
         -2   -1    0    0    0  501 -0.00000000000E+00 -0.00000000000E+00 -0.67190675383E+03  0.67190675383E+03  0.00000000000E+00 0. -1.
         25    2    1    2    0    0 -0.24619014147E+02 -0.50917865035E+02 -0.48019717722E+03  0.49943495767E+03  0.12508886078E+03 0.  0.
          5    1    3    3  502    0 -0.10612791148E+02  0.13179830224E+02 -0.29466372212E+01  0.17677509202E+02  0.41800000000E+01 0. -1.
         -5    1    3    3    0  502 -0.14006222998E+02 -0.64097695259E+02 -0.47725054000E+03  0.48175744846E+03  0.41800000000E+01 0. -1.
        -11    1    1    2    0    0  0.90826302517E+00  0.71640971802E+02 -0.91733644132E+02  0.11639723041E+03  0.00000000000E+00 0.  1.
         11    1    1    2    0    0  0.23710751122E+02 -0.20723106767E+02 -0.74847922274E+02  0.81202575954E+02  0.00000000000E+00 0. -1.
</event>
<event>
 7    1  0.2420569E-009  0.2047869E+03  0.7561462E-02  0.1145762E+00
          2   -1    0    0  501    0  0.00000000000E+00  0.00000000000E+00  0.46781640204E+03  0.46781640204E+03  0.00000000000E+00 0. -1.
         -2   -1    0    0    0  501 -0.00000000000E+00 -0.00000000000E+00 -0.93820909455E+02  0.93820909455E+02  0.00000000000E+00 0.  1.
         25    2    1    2    0    0 -0.70538190917E+02  0.16209003036E+03  0.15081076071E+03  0.26388915381E+03  0.12507911748E+03 0.  0.
          5    1    3    3  502    0  0.29551484805E+02  0.11366408382E+02  0.41842226875E+02  0.52637722629E+02  0.41800000000E+01 0. -1.
         -5    1    3    3    0  502 -0.10008967572E+03  0.15072362198E+03  0.10896853384E+03  0.21125143118E+03  0.41800000000E+01 0. -1.
        -11    1    1    2    0    0 -0.14872960460E+02 -0.67901671318E+02  0.88384609255E+02  0.11244412423E+03  0.00000000000E+00 0. -1.
         11    1    1    2    0    0  0.85411151377E+02 -0.94188359040E+02  0.13480012262E+03  0.18530403346E+03  0.00000000000E+00 0.  1.
</event>
<event>
 7    1  0.2420569E-009  0.9756185E+02  0.7561462E-02  0.1285508E+00
         -1   -1    0    0    0  501 -0.00000000000E+00  0.00000000000E+00  0.13561890150E+03  0.13561890150E+03  0.00000000000E+00 0.  1.
          1   -1    0    0  501    0  0.00000000000E+00 -0.00000000000E+00 -0.15305162223E+03  0.15305162223E+03  0.00000000000E+00 0. -1.
         25    2    1    2    0    0 -0.78164652841E+01  0.28431926734E+01 -0.10367169123E+03  0.16267541967E+03  0.12508513792E+03 0.  0.
          5    1    3    3  502    0  0.39559720930E+02  0.45672626146E+02 -0.59544707133E+02  0.84935298002E+02  0.41800000000E+01 0. -1.
         -5    1    3    3    0  502 -0.47376186214E+02 -0.42829433473E+02 -0.44126984100E+02  0.77740121671E+02  0.41800000000E+01 0. -1.
        -11    1    1    2    0    0  0.38907600521E+02  0.25794441096E+01  0.86007462446E+02  0.94433778420E+02  0.00000000000E+00 0.  1.
         11    1    1    2    0    0 -0.31091135237E+02 -0.54226367830E+01  0.23150806451E+00  0.31561325638E+02  0.00000000000E+00 0. -1.
</event>
<event>
 7    1  0.2420569E-009  0.8506645E+02  0.7561462E-02  0.1315259E+00
         -2   -1    0    0    0  501 -0.00000000000E+00  0.00000000000E+00  0.20494706054E+03  0.20494706054E+03  0.00000000000E+00 0.  1.
          2   -1    0    0  501    0  0.00000000000E+00 -0.00000000000E+00 -0.64372529214E+02  0.64372529214E+02  0.00000000000E+00 0. -1.
         25    2    1    2    0    0  0.13292964222E+02  0.30863084300E+00  0.16877540070E+03  0.21049752250E+03  0.12508906006E+03 0.  0.
          5    1    3    3  502    0  0.44288168505E+02  0.47416061123E+02  0.62870331923E+02  0.90442665584E+02  0.41800000000E+01 0. -1.
         -5    1    3    3    0  502 -0.30995204283E+02 -0.47107430280E+02  0.10590506877E+03  0.12005485691E+03  0.41800000000E+01 0. -1.
        -11    1    1    2    0    0 -0.18722620029E+02  0.20090514862E+02 -0.25616802687E+02  0.37555104421E+02  0.00000000000E+00 0. -1.
         11    1    1    2    0    0  0.54296558077E+01 -0.20399145705E+02 -0.25840666827E+01  0.21266962837E+02  0.00000000000E+00 0.  1.
</event>
<event>
 7    1  0.2420569E-009  0.1265794E+03  0.7561462E-02  0.1232621E+00
          2   -1    0    0  501    0  0.00000000000E+00  0.00000000000E+00  0.16574806676E+03  0.16574806676E+03  0.00000000000E+00 0. -1.
         -2   -1    0    0    0  501 -0.00000000000E+00 -0.00000000000E+00 -0.13379065920E+03  0.13379065920E+03  0.00000000000E+00 0.  1.
         25    2    1    2    0    0 -0.93774710655E+02  0.38346804905E+02  0.65651115096E+01  0.16110575547E+03  0.12509112659E+03 0.  0.
          5    1    3    3  502    0  0.10775769007E+00 -0.13885620007E+02 -0.41036732967E+02  0.43523647679E+02  0.41800000000E+01 0. -1.
         -5    1    3    3    0  502 -0.93882468345E+02  0.52232424913E+02  0.47601844476E+02  0.11758210779E+03  0.41800000000E+01 0. -1.
        -11    1    1    2    0    0  0.10550224329E+03 -0.17108236126E+02  0.54359546619E+01  0.10701852497E+03  0.00000000000E+00 0. -1.
         11    1    1    2    0    0 -0.11727532637E+02 -0.21238568780E+02  0.19956341390E+02  0.31414445518E+02  0.00000000000E+00 0.  1.
</event>
<event>
 7    1  0.2420569E-009  0.1045597E+03  0.7561462E-02  0.1270990E+00
          1   -1    0    0  501    0  0.00000000000E+00  0.00000000000E+00  0.27104826814E+02  0.27104826814E+02  0.00000000000E+00 0. -1.
         -1   -1    0    0    0  501 -0.00000000000E+00 -0.00000000000E+00 -0.77139495259E+03  0.77139495259E+03  0.00000000000E+00 0.  1.
         25    2    1    2    0    0 -0.33673229203E+02 -0.29480129964E+02 -0.66657525386E+03  0.67968621795E+03  0.12509125222E+03 0.  0.
          5    1    3    3  502    0 -0.67131141651E+02 -0.52222476683E+02 -0.33617938332E+03  0.34679652163E+03  0.41800000000E+01 0. -1.
         -5    1    3    3    0  502  0.33457912447E+02  0.22742346718E+02 -0.33039587054E+03  0.33288969631E+03  0.41800000000E+01 0. -1.
        -11    1    1    2    0    0  0.36717513955E+02 -0.14303284557E+02 -0.59342719382E+02  0.71234248250E+02  0.00000000000E+00 0.  1.
         11    1    1    2    0    0 -0.30442847515E+01  0.43783414521E+02 -0.18372152539E+02  0.47579313212E+02  0.00000000000E+00 0. -1.
</event>
<event>
 7    1  0.2420569E-009  0.1043621E+03  0.7561462E-02  0.1271382E+00
          1   -1    0    0  501    0  0.00000000000E+00  0.00000000000E+00  0.71006567237E+03  0.71006567237E+03  0.00000000000E+00 0. -1.
         -1   -1    0    0    0  501 -0.00000000000E+00 -0.00000000000E+00 -0.24523910428E+02  0.24523910428E+02  0.00000000000E+00 0.  1.
         25    2    1    2    0    0  0.66452636685E+02  0.37939193810E+02  0.53367146528E+03  0.55345088294E+03  0.12508921469E+03 0.  0.
          5    1    3    3  502    0  0.33285125436E+02 -0.36642001965E+02  0.33439525309E+03  0.33806536879E+03  0.41800000000E+01 0. -1.
         -5    1    3    3    0  502  0.33167511249E+02  0.74581195776E+02  0.19927621219E+03  0.21538551416E+03  0.41800000000E+01 0. -1.
        -11    1    1    2    0    0 -0.14333733149E+02 -0.13725295420E+02  0.12013913875E+01  0.19881724815E+02  0.00000000000E+00 0.  1.
         11    1    1    2    0    0 -0.52118903536E+02 -0.24213898390E+02  0.15066890528E+03  0.16125697504E+03  0.00000000000E+00 0. -1.
</event>
<event>
 7    1  0.2420569E-009  0.1270585E+03  0.7561462E-02  0.1231887E+00
          2   -1    0    0  501    0  0.00000000000E+00  0.00000000000E+00  0.46804179248E+03  0.46804179248E+03  0.00000000000E+00 0. -1.
         -2   -1    0    0    0  501 -0.00000000000E+00 -0.00000000000E+00 -0.39445860045E+02  0.39445860045E+02  0.00000000000E+00 0.  1.
         25    2    1    2    0    0  0.10276999017E+02  0.79753713459E+02  0.30100542144E+03  0.33573576661E+03  0.12509184515E+03 0.  0.
          5    1    3    3  502    0 -0.35399912384E+02 -0.18462284815E+02  0.88563517867E+02  0.97236715568E+02  0.41800000000E+01 0. -1.
         -5    1    3    3    0  502  0.45676911401E+02  0.98215998274E+02  0.21244190358E+03  0.23849905104E+03  0.41800000000E+01 0. -1.
        -11    1    1    2    0    0  0.21378014850E+02 -0.68853769157E+02  0.51437409763E+02  0.88564485936E+02  0.00000000000E+00 0.  1.
         11    1    1    2    0    0 -0.31655013868E+02 -0.10899944302E+02  0.76153101228E+02  0.83187399979E+02  0.00000000000E+00 0. -1.
</event>
<event>
 7    1  0.2420569E-009  0.1044489E+03  0.7561462E-02  0.1271209E+00
          1   -1    0    0  501    0  0.00000000000E+00  0.00000000000E+00  0.47821231488E+03  0.47821231488E+03  0.00000000000E+00 0. -1.
         -1   -1    0    0    0  501 -0.00000000000E+00 -0.00000000000E+00 -0.28737190134E+02  0.28737190134E+02  0.00000000000E+00 0.  1.
         25    2    1    2    0    0 -0.14443860849E+02 -0.12355948131E+02  0.33422173164E+03  0.35736858254E+03  0.12508734275E+03 0.  0.
          5    1    3    3  502    0 -0.66113139711E+02  0.51073874853E+01  0.23329230284E+03  0.24256917285E+03  0.41800000000E+01 0. -1.
         -5    1    3    3    0  502  0.51669278862E+02 -0.17463335617E+02  0.10092942880E+03  0.11479940970E+03  0.41800000000E+01 0. -1.
        -11    1    1    2    0    0  0.43201086180E+02  0.31274611547E+02  0.39481841699E+02  0.66356996605E+02  0.00000000000E+00 0. -1.
         11    1    1    2    0    0 -0.28757225331E+02 -0.18918663416E+02  0.75771551404E+02  0.83223925865E+02  0.00000000000E+00 0.  1.
</event>
<event>
 7    1  0.2451674E-009  0.1237908E+03  0.7561462E-02  0.1236971E+00
         -1   -1    0    0    0  501 -0.00000000000E+00  0.00000000000E+00  0.19058139621E+02  0.19058139621E+02  0.00000000000E+00 0.  1.
          1   -1    0    0  501    0  0.00000000000E+00 -0.00000000000E+00 -0.86255551470E+03  0.86255551470E+03  0.00000000000E+00 0. -1.
         25    2    1    2    0    0 -0.28642217240E+02  0.61103859362E+02 -0.50167328414E+03  0.52141844543E+03  0.12508818079E+03 0.  0.
          5    1    3    3  502    0 -0.77401507118E+02  0.30525434527E+02 -0.26358713161E+03  0.27643886089E+03  0.41800000000E+01 0.  1.
         -5    1    3    3    0  502  0.48759289878E+02  0.30578424835E+02 -0.23808615253E+03  0.24497958454E+03  0.41800000000E+01 0.  1.
        -11    1    1    2    0    0 -0.21241037249E+02  0.68064776415E+01 -0.31251799879E+02  0.38395114233E+02  0.00000000000E+00 0. -1.
         11    1    1    2    0    0  0.49883254489E+02 -0.67910337004E+02 -0.31057229106E+03  0.32180009466E+03  0.00000000000E+00 0.  1.
</event>
<event>
 7    1  0.2420569E-009  0.9637201E+02  0.7561462E-02  0.1288116E+00
          1   -1    0    0  501    0  0.00000000000E+00  0.00000000000E+00  0.82369917655E+03  0.82369917655E+03  0.00000000000E+00 0. -1.
         -1   -1    0    0    0  501 -0.00000000000E+00 -0.00000000000E+00 -0.20512580150E+02  0.20512580150E+02  0.00000000000E+00 0.  1.
         25    2    1    2    0    0  0.19087906788E+02  0.63385394239E+02  0.53705943979E+03  0.55539450060E+03  0.12509257786E+03 0.  0.
          5    1    3    3  502    0  0.12212786984E+02  0.84004706281E+02  0.19620177438E+03  0.21381896902E+03  0.41800000000E+01 0.  1.
         -5    1    3    3    0  502  0.68751198045E+01 -0.20619312041E+02  0.34085766541E+03  0.34157553157E+03  0.41800000000E+01 0.  1.
        -11    1    1    2    0    0  0.18473724623E+02 -0.30691828227E+02  0.21303668169E+03  0.21602753197E+03  0.00000000000E+00 0.  1.
         11    1    1    2    0    0 -0.37561631411E+02 -0.32693566012E+02  0.53090474912E+02  0.72789724132E+02  0.00000000000E+00 0. -1.
</event>
<event>
 7    1  0.2420569E-009  0.2573602E+03  0.7561462E-02  0.1108740E+00
          2   -1    0    0  501    0  0.00000000000E+00  0.00000000000E+00  0.21444563200E+04  0.21444563200E+04  0.00000000000E+00 0. -1.
         -2   -1    0    0    0  501 -0.00000000000E+00 -0.00000000000E+00 -0.33177546433E+02  0.33177546433E+02  0.00000000000E+00 0.  1.
         25    2    1    2    0    0 -0.22404081821E+03  0.90942360783E+02  0.95247097975E+03  0.99061269510E+03  0.12509093981E+03 0.  0.
          5    1    3    3  502    0 -0.21066657830E+03  0.49874346454E+02  0.65175937079E+03  0.68678643512E+03  0.41800000000E+01 0. -1.
         -5    1    3    3    0  502 -0.13374239911E+02  0.41068014328E+02  0.30071160896E+03  0.30382625998E+03  0.41800000000E+01 0. -1.
        -11    1    1    2    0    0  0.13909096104E+03 -0.13324078559E+02  0.71598379799E+03  0.72949066169E+03  0.00000000000E+00 0.  1.
         11    1    1    2    0    0  0.84949857170E+02 -0.77618282223E+02  0.44282399582E+03  0.45753050963E+03  0.00000000000E+00 0. -1.
</event>
<event>
 7    1  0.2420569E-009  0.1039605E+03  0.7561462E-02  0.1272181E+00
         -1   -1    0    0    0  501 -0.00000000000E+00  0.00000000000E+00  0.43374889938E+03  0.43374889938E+03  0.00000000000E+00 0.  1.
          1   -1    0    0  501    0  0.00000000000E+00 -0.00000000000E+00 -0.42514138992E+02  0.42514138992E+02  0.00000000000E+00 0. -1.
         25    2    1    2    0    0 -0.43128135604E+01 -0.40215679503E+02  0.33424577877E+03  0.35917058383E+03  0.12508943370E+03 0.  0.
          5    1    3    3  502    0 -0.47999084674E+02 -0.42585144581E+02  0.28909966580E+03  0.29616464312E+03  0.41800000000E+01 0. -1.
         -5    1    3    3    0  502  0.43686271114E+02  0.23694650778E+01  0.45146112974E+02  0.63005940714E+02  0.41800000000E+01 0. -1.
        -11    1    1    2    0    0  0.32907521142E+02  0.57503592658E+02  0.24939254308E+02  0.70792192520E+02  0.00000000000E+00 0.  1.
         11    1    1    2    0    0 -0.28594707582E+02 -0.17287913155E+02  0.32049727313E+02  0.46300262027E+02  0.00000000000E+00 0. -1.
</event>
<event>
 7    1  0.2420569E-009  0.1063254E+03  0.7561462E-02  0.1267530E+00
          1   -1    0    0  501    0  0.00000000000E+00  0.00000000000E+00  0.24050351634E+03  0.24050351634E+03  0.00000000000E+00 0. -1.
         -1   -1    0    0    0  501 -0.00000000000E+00 -0.00000000000E+00 -0.69105974634E+02  0.69105974634E+02  0.00000000000E+00 0.  1.
         25    2    1    2    0    0 -0.50894829514E+02 -0.27162484197E+02  0.45732882831E+02  0.14513918752E+03  0.12508318418E+03 0.  0.
          5    1    3    3  502    0 -0.19788382651E+02  0.39801263098E+02 -0.17386487364E+02  0.47911198848E+02  0.41800000000E+01 0. -1.
         -5    1    3    3    0  502 -0.31106446863E+02 -0.66963747295E+02  0.63119370195E+02  0.97227988676E+02  0.41800000000E+01 0. -1.
        -11    1    1    2    0    0  0.55027315749E+02 -0.10620669815E+02  0.10981636785E+03  0.12329005943E+03  0.00000000000E+00 0. -1.
         11    1    1    2    0    0 -0.41324862347E+01  0.37783154012E+02  0.15848291030E+02  0.41180244027E+02  0.00000000000E+00 0.  1.
</event>
<event>
 7    1  0.2420569E-009  0.1706623E+03  0.7561462E-02  0.1177159E+00
         -2   -1    0    0    0  501 -0.00000000000E+00  0.00000000000E+00  0.20338403846E+02  0.20338403846E+02  0.00000000000E+00 0.  1.
          2   -1    0    0  501    0  0.00000000000E+00 -0.00000000000E+00 -0.16992386542E+04  0.16992386542E+04  0.00000000000E+00 0. -1.
         25    2    1    2    0    0 -0.12562621856E+02  0.14210433183E+03 -0.10997120505E+04  0.11159594135E+04  0.12508940004E+03 0.  0.
          5    1    3    3  502    0 -0.54706538452E+02  0.81340085976E+02 -0.38059903757E+03  0.39304212844E+03  0.41800000000E+01 0. -1.
         -5    1    3    3    0  502  0.42143916596E+02  0.60764245849E+02 -0.71911301293E+03  0.72291728507E+03  0.41800000000E+01 0. -1.
        -11    1    1    2    0    0 -0.39540829593E+02 -0.65111925293E+02 -0.29100675621E+03  0.30081218756E+03  0.00000000000E+00 0. -1.
         11    1    1    2    0    0  0.52103451449E+02 -0.76992406532E+02 -0.28818144365E+03  0.30280545699E+03  0.00000000000E+00 0.  1.
</event>
<event>
 7    1  0.2420569E-009  0.1152618E+03  0.7561462E-02  0.1251125E+00
          1   -1    0    0  501    0  0.00000000000E+00  0.00000000000E+00  0.16831276721E+04  0.16831276721E+04  0.00000000000E+00 0. -1.
         -1   -1    0    0    0  501 -0.00000000000E+00 -0.00000000000E+00 -0.13083318698E+02  0.13083318698E+02  0.00000000000E+00 0.  1.
         25    2    1    2    0    0  0.39359571556E+02 -0.42341025430E+02  0.13782195748E+04  0.13850915827E+04  0.12509019854E+03 0.  0.
          5    1    3    3  502    0  0.53464768099E+02 -0.74850115628E+02  0.71379482927E+03  0.71970935240E+03  0.41800000000E+01 0. -1.
         -5    1    3    3    0  502 -0.14105196543E+02  0.32509090198E+02  0.66442474557E+03  0.66538223033E+03  0.41800000000E+01 0. -1.
        -11    1    1    2    0    0  0.20692689257E+02 -0.10108559238E+02  0.11302838653E+03  0.11535071097E+03  0.00000000000E+00 0. -1.
         11    1    1    2    0    0 -0.60052260813E+02  0.52449584667E+02  0.17879639199E+03  0.19576869706E+03  0.00000000000E+00 0.  1.
</event>
<event>
 7    1  0.2420569E-009  0.1714020E+03  0.7561462E-02  0.1176394E+00
         -1   -1    0    0    0  501 -0.00000000000E+00  0.00000000000E+00  0.40542794773E+03  0.40542794773E+03  0.00000000000E+00 0.  1.
          1   -1    0    0  501    0  0.00000000000E+00 -0.00000000000E+00 -0.76548239616E+02  0.76548239616E+02  0.00000000000E+00 0. -1.
         25    2    1    2    0    0 -0.10352651788E+03  0.91586492505E+02  0.15783050238E+03  0.24426517626E+03  0.12509669594E+03 0.  0.
          5    1    3    3  502    0 -0.10656945286E+03  0.20886791853E+02  0.62175489710E+02  0.12520611119E+03  0.41800000000E+01 0. -1.
         -5    1    3    3    0  502  0.30429349851E+01  0.70699700652E+02  0.95655012674E+02  0.11905906507E+03  0.41800000000E+01 0. -1.
        -11    1    1    2    0    0  0.10559735917E+03 -0.10544276485E+03  0.16493670794E+03  0.22242548538E+03  0.00000000000E+00 0.  1.
         11    1    1    2    0    0 -0.20708412883E+01  0.13856272343E+02  0.61124977939E+01  0.15285525708E+02  0.00000000000E+00 0. -1.
</event>
<event>
 7    1  0.2420569E-009  0.1582577E+03  0.7561462E-02  0.1190678E+00
          2   -1    0    0  501    0  0.00000000000E+00  0.00000000000E+00  0.11990770666E+04  0.11990770666E+04  0.00000000000E+00 0.  1.
         -2   -1    0    0    0  501 -0.00000000000E+00 -0.00000000000E+00 -0.25035538844E+02  0.25035538844E+02  0.00000000000E+00 0. -1.
         25    2    1    2    0    0  0.93980159279E+01  0.12954569500E+03  0.49214079398E+03  0.52413755679E+03  0.12508879863E+03 0.  0.
          5    1    3    3  502    0 -0.14334216072E+02  0.13957110108E+03  0.46795721075E+03  0.48855602084E+03  0.41800000000E+01 0.  1.
         -5    1    3    3    0  502  0.23732232000E+02 -0.10025406081E+02  0.24183583234E+02  0.35581535954E+02  0.41800000000E+01 0.  1.
        -11    1    1    2    0    0 -0.36393565575E+02 -0.30795756488E+02  0.12581881253E+03  0.13454829549E+03  0.00000000000E+00 0.  1.
         11    1    1    2    0    0  0.26995549647E+02 -0.98749938508E+02  0.55608192122E+03  0.56542675314E+03  0.00000000000E+00 0. -1.
</event>
<event>
 7    1  0.2420569E-009  0.2105151E+03  0.7561462E-02  0.1141159E+00
         -1   -1    0    0    0  501 -0.00000000000E+00  0.00000000000E+00  0.63459445347E+03  0.63459445347E+03  0.00000000000E+00 0.  1.
          1   -1    0    0  501    0  0.00000000000E+00 -0.00000000000E+00 -0.10978436739E+03  0.10978436739E+03  0.00000000000E+00 0. -1.
         25    2    1    2    0    0 -0.49490583378E+02 -0.19117870809E+03  0.46294229556E+03  0.51861442472E+03  0.12508691471E+03 0.  0.
          5    1    3    3  502    0  0.22561609292E+02 -0.11779754312E+03  0.16981588811E+03  0.20794277009E+03  0.41800000000E+01 0. -1.
         -5    1    3    3    0  502 -0.72052192669E+02 -0.73381164973E+02  0.29312640745E+03  0.31067165462E+03  0.41800000000E+01 0. -1.
        -11    1    1    2    0    0  0.50726448488E+01  0.45790338955E+02  0.57499414943E+02  0.73679505876E+02  0.00000000000E+00 0. -1.
         11    1    1    2    0    0  0.44417938529E+02  0.14538836914E+03  0.43683755704E+01  0.15208489027E+03  0.00000000000E+00 0.  1.
</event>
<event>
 7    1  0.2420569E-009  0.1032804E+03  0.7561462E-02  0.1273545E+00
          2   -1    0    0  501    0  0.00000000000E+00  0.00000000000E+00  0.28148759184E+02  0.28148759184E+02  0.00000000000E+00 0. -1.
         -2   -1    0    0    0  501 -0.00000000000E+00 -0.00000000000E+00 -0.46987843999E+03  0.46987843999E+03  0.00000000000E+00 0.  1.
         25    2    1    2    0    0 -0.18355625790E+02 -0.26380943842E+02 -0.20024325765E+03  0.23827933171E+03  0.12508714757E+03 0.  0.
          5    1    3    3  502    0 -0.70681931539E+02 -0.91438801568E+01 -0.13556518640E+03  0.15321533263E+03  0.41800000000E+01 0.  1.
         -5    1    3    3    0  502  0.52326305749E+02 -0.17237063685E+02 -0.64678071258E+02  0.85063999080E+02  0.41800000000E+01 0.  1.
        -11    1    1    2    0    0 -0.91283814642E+01 -0.22253889260E+02 -0.19869922464E+02  0.31198986427E+02  0.00000000000E+00 0. -1.
         11    1    1    2    0    0  0.27484007254E+02  0.48634833102E+02 -0.22161650069E+03  0.22854888104E+03  0.00000000000E+00 0.  1.
</event>
<event>
 7    1  0.2420569E-009  0.2425084E+03  0.7561462E-02  0.1118133E+00
         -1   -1    0    0    0  501 -0.00000000000E+00  0.00000000000E+00  0.30657322863E+02  0.30657322863E+02  0.00000000000E+00 0.  1.
          1   -1    0    0  501    0  0.00000000000E+00 -0.00000000000E+00 -0.19435895497E+04  0.19435895497E+04  0.00000000000E+00 0. -1.
         25    2    1    2    0    0 -0.61312637422E+02 -0.20769122673E+03 -0.10960726908E+04  0.11242413198E+04  0.12509323089E+03 0.  0.
          5    1    3    3  502    0 -0.99511787111E+02 -0.13395568611E+03 -0.72626863494E+03  0.74520488733E+03  0.41800000000E+01 0.  1.
         -5    1    3    3    0  502  0.38199149689E+02 -0.73735540614E+02 -0.36980405591E+03  0.37903643249E+03  0.41800000000E+01 0.  1.
        -11    1    1    2    0    0  0.75422556033E+02  0.94653780179E+02 -0.40779815437E+03  0.42537893080E+03  0.00000000000E+00 0.  1.
         11    1    1    2    0    0 -0.14109918611E+02  0.11303744655E+03 -0.40906138161E+03  0.42462662193E+03  0.00000000000E+00 0. -1.
</event>
<event>
 7    1  0.2420569E-009  0.1724638E+03  0.7561462E-02  0.1175303E+00
         -2   -1    0    0    0  501 -0.00000000000E+00  0.00000000000E+00  0.14664811482E+02  0.14664811482E+02  0.00000000000E+00 0. -1.
          2   -1    0    0  501    0  0.00000000000E+00 -0.00000000000E+00 -0.28152927979E+04  0.28152927979E+04  0.00000000000E+00 0.  1.
         25    2    1    2    0    0  0.13657199712E+03 -0.77715236085E+01 -0.21830986855E+04  0.21909540559E+04  0.12508995803E+03 0.  0.
          5    1    3    3  502    0  0.12408035961E+03 -0.54421975560E+02 -0.17164793098E+04  0.17218235625E+04  0.41800000000E+01 0. -1.
         -5    1    3    3    0  502  0.12491637513E+02  0.46650451951E+02 -0.46661937569E+03  0.46913049341E+03  0.41800000000E+01 0. -1.
        -11    1    1    2    0    0 -0.12036949543E+03  0.38317267230E+02 -0.53106513633E+03  0.54588204534E+03  0.00000000000E+00 0.  1.
         11    1    1    2    0    0 -0.16202501687E+02 -0.30545743622E+02 -0.86464164563E+02  0.93121508084E+02  0.00000000000E+00 0. -1.
</event>
<event>
 7    1  0.2420569E-009  0.9726405E+02  0.7561462E-02  0.1286157E+00
         -1   -1    0    0    0  501 -0.00000000000E+00  0.00000000000E+00  0.16966392640E+03  0.16966392640E+03  0.00000000000E+00 0.  1.
          1   -1    0    0  501    0  0.00000000000E+00 -0.00000000000E+00 -0.91009412198E+02  0.91009412198E+02  0.00000000000E+00 0. -1.
         25    2    1    2    0    0 -0.23430985256E+02  0.52120500065E+02  0.35447726871E+02  0.14201777705E+03  0.12508776943E+03 0.  0.
          5    1    3    3  502    0  0.20659770065E+02  0.22322775072E+02  0.71358579820E+02  0.77683020667E+02  0.41800000000E+01 0. -1.
         -5    1    3    3    0  502 -0.44090755321E+02  0.29797724992E+02 -0.35910852948E+02  0.64334756384E+02  0.41800000000E+01 0. -1.
        -11    1    1    2    0    0 -0.13024629637E+02  0.23291168218E+02  0.12162074345E+02  0.29326362654E+02  0.00000000000E+00 0.  1.
         11    1    1    2    0    0  0.36455614893E+02 -0.75411668283E+02  0.31044712987E+02  0.89329198893E+02  0.00000000000E+00 0. -1.
</event>
<event>
 7    1  0.2420569E-009  0.1035219E+03  0.7561462E-02  0.1273059E+00
          2   -1    0    0  501    0  0.00000000000E+00  0.00000000000E+00  0.28324283195E+03  0.28324283195E+03  0.00000000000E+00 0. -1.
         -2   -1    0    0    0  501 -0.00000000000E+00 -0.00000000000E+00 -0.41664126714E+02  0.41664126714E+02  0.00000000000E+00 0.  1.
         25    2    1    2    0    0  0.11490756076E+02 -0.30594209459E+01  0.13169739495E+03  0.18202338339E+03  0.12508761222E+03 0.  0.
          5    1    3    3  502    0 -0.45970830894E+02  0.28071162062E+02  0.32151684431E+02  0.62868995891E+02  0.41800000000E+01 0. -1.
         -5    1    3    3    0  502  0.57461586970E+02 -0.31130583008E+02  0.99545710524E+02  0.11915438749E+03  0.41800000000E+01 0. -1.
        -11    1    1    2    0    0 -0.46546001743E+02  0.17351888370E+02  0.41528508126E+02  0.64747473274E+02  0.00000000000E+00 0.  1.
         11    1    1    2    0    0  0.35055245667E+02 -0.14292467424E+02  0.68352802154E+02  0.78136102003E+02  0.00000000000E+00 0. -1.
</event>
<event>
 7    1  0.2420569E-009  0.1614266E+03  0.7561462E-02  0.1187095E+00
         -2   -1    0    0    0  501 -0.00000000000E+00  0.00000000000E+00  0.59996937750E+02  0.59996937750E+02  0.00000000000E+00 0. -1.
          2   -1    0    0  501    0  0.00000000000E+00 -0.00000000000E+00 -0.74840383549E+03  0.74840383549E+03  0.00000000000E+00 0.  1.
         25    2    1    2    0    0 -0.11124517462E+03 -0.97590092520E+02 -0.56635178534E+03  0.59858229139E+03  0.12508836788E+03 0.  0.
          5    1    3    3  502    0 -0.69797266611E+02 -0.11092420640E+03 -0.28333094720E+03  0.31220143503E+03  0.41800000000E+01 0. -1.
         -5    1    3    3    0  502 -0.41447908010E+02  0.13334113882E+02 -0.28302083814E+03  0.28638085636E+03  0.41800000000E+01 0. -1.
        -11    1    1    2    0    0  0.69689952223E+02  0.61964431708E+02 -0.12387467267E+03  0.15505229688E+03  0.00000000000E+00 0.  1.
         11    1    1    2    0    0  0.41555222397E+02  0.35625660812E+02  0.18195602687E+01  0.54766184971E+02  0.00000000000E+00 0. -1.
</event>
<event>
 7    1  0.2420569E-009  0.9823210E+02  0.7561462E-02  0.1284058E+00
         -1   -1    0    0    0  501 -0.00000000000E+00  0.00000000000E+00  0.13840669610E+03  0.13840669610E+03  0.00000000000E+00 0.  1.
          1   -1    0    0  501    0  0.00000000000E+00 -0.00000000000E+00 -0.14331882690E+03  0.14331882690E+03  0.00000000000E+00 0. -1.
         25    2    1    2    0    0  0.10978442922E+02  0.81700843284E+02 -0.53011166027E+02  0.15891113311E+03  0.12508801102E+03 0.  0.
          5    1    3    3  502    0  0.23176414333E+02  0.74764075438E+02  0.22851446742E+02  0.81648479322E+02  0.41800000000E+01 0. -1.
         -5    1    3    3    0  502 -0.12197971411E+02  0.69367678461E+01 -0.75862612769E+02  0.77262653791E+02  0.41800000000E+01 0. -1.
        -11    1    1    2    0    0 -0.95767240287E+01  0.87518544667E+01  0.26952232233E+02  0.29912061481E+02  0.00000000000E+00 0.  1.
         11    1    1    2    0    0 -0.14017188936E+01 -0.90452697751E+02  0.21146802988E+02  0.92902328404E+02  0.00000000000E+00 0. -1.
</event>
<event>
 7    1  0.2420569E-009  0.1497878E+03  0.7561462E-02  0.1200734E+00
         -2   -1    0    0    0  501 -0.00000000000E+00  0.00000000000E+00  0.32296194990E+02  0.32296194990E+02  0.00000000000E+00 0.  1.
          2   -1    0    0  501    0  0.00000000000E+00 -0.00000000000E+00 -0.72186099184E+03  0.72186099184E+03  0.00000000000E+00 0. -1.
         25    2    1    2    0    0  0.90973684602E+01 -0.10496866781E+03 -0.42524744218E+03  0.45561405717E+03  0.12509036205E+03 0.  0.
          5    1    3    3  502    0  0.53679104877E+02 -0.10490714556E+03 -0.32803321600E+03  0.34858315892E+03  0.41800000000E+01 0.  1.
         -5    1    3    3    0  502 -0.44581736416E+02 -0.61522249182E-01 -0.97214226180E+02  0.10703089824E+03  0.41800000000E+01 0.  1.
        -11    1    1    2    0    0 -0.43774321216E+02  0.26699735941E+02 -0.12386092567E+03  0.13405445164E+03  0.00000000000E+00 0.  1.
         11    1    1    2    0    0  0.34676952756E+02  0.78268931867E+02 -0.14045642900E+03  0.16448867802E+03  0.00000000000E+00 0. -1.
</event>
<event>
 7    1  0.2420569E-009  0.1020617E+03  0.7561462E-02  0.1276019E+00
         -1   -1    0    0    0  501 -0.00000000000E+00  0.00000000000E+00  0.10260273813E+03  0.10260273813E+03  0.00000000000E+00 0.  1.
          1   -1    0    0  501    0  0.00000000000E+00 -0.00000000000E+00 -0.15811277365E+03  0.15811277365E+03  0.00000000000E+00 0. -1.
         25    2    1    2    0    0 -0.18407991216E+02  0.35522589850E+02 -0.93094431266E+02  0.16098296399E+03  0.12509289761E+03 0.  0.
          5    1    3    3  502    0 -0.37058832162E+02  0.72415069110E+02 -0.32914537323E+02  0.87852936448E+02  0.41800000000E+01 0.  1.
         -5    1    3    3    0  502  0.18650840946E+02 -0.36892479260E+02 -0.60179893943E+02  0.73130027546E+02  0.41800000000E+01 0.  1.
        -11    1    1    2    0    0 -0.21203944857E+02 -0.35682486307E+02 -0.47232671923E+01  0.41775068636E+02  0.00000000000E+00 0. -1.
         11    1    1    2    0    0  0.39611936073E+02  0.15989645676E+00  0.42307662937E+02  0.57957479151E+02  0.00000000000E+00 0.  1.
</event>
<event>
 7    1  0.2420569E-009  0.1190791E+03  0.7561462E-02  0.1244624E+00
         -2   -1    0    0    0  501 -0.00000000000E+00  0.00000000000E+00  0.28166060586E+03  0.28166060586E+03  0.00000000000E+00 0.  1.
          2   -1    0    0  501    0  0.00000000000E+00 -0.00000000000E+00 -0.66725146702E+02  0.66725146702E+02  0.00000000000E+00 0. -1.
         25    2    1    2    0    0  0.24956799300E+02 -0.54749999776E+02  0.44629520915E+02  0.14580508180E+03  0.12508766300E+03 0.  0.
          5    1    3    3  502    0  0.67581823226E+02 -0.12153385046E+02 -0.30331565425E+01  0.68859857953E+02  0.41800000000E+01 0. -1.
         -5    1    3    3    0  502 -0.42625023926E+02 -0.42596614730E+02  0.47662677458E+02  0.76945223852E+02  0.41800000000E+01 0. -1.
        -11    1    1    2    0    0  0.11646353871E+02 -0.21459248749E+02  0.28949432458E+02  0.37870919648E+02  0.00000000000E+00 0.  1.
         11    1    1    2    0    0 -0.36603153171E+02  0.76209248525E+02  0.14135650579E+03  0.16470975111E+03  0.00000000000E+00 0. -1.
</event>
<event>
 7    1  0.2420569E-009  0.1916749E+03  0.7561462E-02  0.1156959E+00
         -3   -1    0    0    0  501 -0.00000000000E+00  0.00000000000E+00  0.50771262394E+03  0.50771262394E+03  0.00000000000E+00 0.  1.
          3   -1    0    0  501    0  0.00000000000E+00 -0.00000000000E+00 -0.77465503232E+02  0.77465503232E+02  0.00000000000E+00 0. -1.
         25    2    1    2    0    0  0.15868480167E+03 -0.17789580107E+02  0.16042692138E+03  0.25861588678E+03  0.12509214344E+03 0.  0.
          5    1    3    3  502    0  0.17882107300E+03 -0.18344340501E+02  0.12997529813E+03  0.22186604405E+03  0.41800000000E+01 0.  1.
         -5    1    3    3    0  502 -0.20136271331E+02  0.55476039402E+00  0.30451623247E+02  0.36749842729E+02  0.41800000000E+01 0.  1.
        -11    1    1    2    0    0 -0.96011998574E+02  0.54433778894E+02  0.14592208862E+03  0.18296064085E+03  0.00000000000E+00 0.  1.
         11    1    1    2    0    0 -0.62672803096E+02 -0.36644198787E+02  0.12389811071E+03  0.14360159954E+03  0.00000000000E+00 0. -1.
</event>
<event>
 7    1  0.2420569E-009  0.1374159E+03  0.7561462E-02  0.1216849E+00
         -1   -1    0    0    0  501 -0.00000000000E+00  0.00000000000E+00  0.33578236173E+02  0.33578236173E+02  0.00000000000E+00 0.  1.
          1   -1    0    0  501    0  0.00000000000E+00 -0.00000000000E+00 -0.74517184773E+03  0.74517184773E+03  0.00000000000E+00 0. -1.
         25    2    1    2    0    0  0.41038182624E+02  0.10201140852E+03 -0.29928334538E+03  0.34250733485E+03  0.12510113391E+03 0.  0.
          5    1    3    3  502    0  0.58787423970E+02  0.11741180021E+03 -0.19228156678E+03  0.23287585828E+03  0.41800000000E+01 0.  1.
         -5    1    3    3    0  502 -0.17749241346E+02 -0.15400391692E+02 -0.10700177860E+03  0.10963147658E+03  0.41800000000E+01 0.  1.
        -11    1    1    2    0    0 -0.42154417778E+00 -0.63873673572E+02 -0.33448760378E+03  0.34053190886E+03  0.00000000000E+00 0. -1.
         11    1    1    2    0    0 -0.40616638446E+02 -0.38137734946E+02 -0.77822662396E+02  0.95710840180E+02  0.00000000000E+00 0.  1.
</event>
<event>
 7    1  0.2420569E-009  0.1126249E+03  0.7561462E-02  0.1255785E+00
          3   -1    0    0  501    0  0.00000000000E+00  0.00000000000E+00  0.21871317537E+03  0.21871317537E+03  0.00000000000E+00 0. -1.
         -3   -1    0    0    0  501 -0.00000000000E+00 -0.00000000000E+00 -0.58496436687E+02  0.58496436687E+02  0.00000000000E+00 0.  1.
         25    2    1    2    0    0  0.34485620953E+02 -0.35564534327E+01  0.96769977128E+02  0.16190003184E+03  0.12508111537E+03 0.  0.
          5    1    3    3  502    0  0.10765680845E+02  0.60016208470E+02  0.54206949744E+02  0.81692784037E+02  0.41800000000E+01 0.  1.
         -5    1    3    3    0  502  0.23719940108E+02 -0.63572661902E+02  0.42563027385E+02  0.80207247803E+02  0.41800000000E+01 0.  1.
        -11    1    1    2    0    0  0.18999335631E+02  0.30752477306E+02  0.26828338413E+02  0.45016101085E+02  0.00000000000E+00 0. -1.
         11    1    1    2    0    0 -0.53484956584E+02 -0.27196023873E+02  0.36618423143E+02  0.70293479134E+02  0.00000000000E+00 0.  1.
</event>
<event>
 7    1  0.2420569E-009  0.1233931E+03  0.7561462E-02  0.1237602E+00
         -2   -1    0    0    0  501 -0.00000000000E+00  0.00000000000E+00  0.19474670286E+03  0.19474670286E+03  0.00000000000E+00 0.  1.
          2   -1    0    0  501    0  0.00000000000E+00 -0.00000000000E+00 -0.10707581267E+03  0.10707581267E+03  0.00000000000E+00 0. -1.
         25    2    1    2    0    0  0.58941210919E+02 -0.72585908168E+02  0.26636465370E+02  0.15842375956E+03  0.12508319590E+03 0.  0.
          5    1    3    3  502    0  0.82213785338E+02 -0.56970006015E+02  0.58366518397E+02  0.11588274658E+03  0.41800000000E+01 0.  1.
         -5    1    3    3    0  502 -0.23272574419E+02 -0.15615902153E+02 -0.31730053028E+02  0.42541012979E+02  0.41800000000E+01 0.  1.
        -11    1    1    2    0    0 -0.39150436315E+02  0.85958384715E+02  0.70336768207E+02  0.11776613065E+03  0.00000000000E+00 0.  1.
         11    1    1    2    0    0 -0.19790774604E+02 -0.13372476547E+02 -0.93023433803E+01  0.25632625320E+02  0.00000000000E+00 0. -1.
</event>
<event>
 7    1  0.2420569E-009  0.8802727E+02  0.7561462E-02  0.1307701E+00
          1   -1    0    0  501    0  0.00000000000E+00  0.00000000000E+00  0.24603456098E+03  0.24603456098E+03  0.00000000000E+00 0. -1.
         -1   -1    0    0    0  501 -0.00000000000E+00 -0.00000000000E+00 -0.47725237877E+02  0.47725237877E+02  0.00000000000E+00 0.  1.
         25    2    1    2    0    0  0.83829321987E+01  0.67286006150E+01  0.12084291593E+03  0.17425869059E+03  0.12509010071E+03 0.  0.
          5    1    3    3  502    0  0.53253225141E+02 -0.25070776941E+02  0.25864609773E+02  0.64427480806E+02  0.41800000000E+01 0. -1.
         -5    1    3    3    0  502 -0.44870292942E+02  0.31799377556E+02  0.94978306158E+02  0.10983120978E+03  0.41800000000E+01 0. -1.
        -11    1    1    2    0    0 -0.29316990742E+02  0.13950327656E+02 -0.41605590037E+01  0.32732366842E+02  0.00000000000E+00 0.  1.
         11    1    1    2    0    0  0.20934058543E+02 -0.20678928271E+02  0.81626966173E+02  0.86768741423E+02  0.00000000000E+00 0. -1.
</event>
<event>
 7    1  0.2420569E-009  0.2192829E+03  0.7561462E-02  0.1134419E+00
          2   -1    0    0  501    0  0.00000000000E+00  0.00000000000E+00  0.26854485330E+04  0.26854485330E+04  0.00000000000E+00 0. -1.
         -2   -1    0    0    0  501 -0.00000000000E+00 -0.00000000000E+00 -0.18479807197E+02  0.18479807197E+02  0.00000000000E+00 0.  1.
         25    2    1    2    0    0 -0.17660081023E+03 -0.67208996394E+02  0.15852111325E+04  0.16013263636E+04  0.12508754052E+03 0.  0.
          5    1    3    3  502    0  0.18818934607E+02 -0.30761967537E+01  0.95168854514E+02  0.97150391434E+02  0.41800000000E+01 0. -1.
         -5    1    3    3    0  502 -0.19541974483E+03 -0.64132799640E+02  0.14900422779E+04  0.15041759721E+04  0.41800000000E+01 0. -1.
        -11    1    1    2    0    0  0.67593398315E+02 -0.23451660299E+02  0.37458862443E+03  0.38136004696E+03  0.00000000000E+00 0.  1.
         11    1    1    2    0    0  0.10900741191E+03  0.90660656692E+02  0.70716896888E+03  0.72124192964E+03  0.00000000000E+00 0. -1.
</event>
<event>
 7    1  0.2420569E-009  0.9378453E+02  0.7561462E-02  0.1293937E+00
          1   -1    0    0  501    0  0.00000000000E+00  0.00000000000E+00  0.35095087571E+03  0.35095087571E+03  0.00000000000E+00 0. -1.
         -1   -1    0    0    0  501 -0.00000000000E+00 -0.00000000000E+00 -0.35698144973E+02  0.35698144973E+02  0.00000000000E+00 0.  1.
         25    2    1    2    0    0 -0.27608058816E+02  0.83773347976E+01  0.19920287130E+03  0.23699245026E+03  0.12510496752E+03 0.  0.
          5    1    3    3  502    0 -0.71406558149E+02  0.29771522070E+02  0.10115766480E+03  0.12741893745E+03  0.41800000000E+01 0. -1.
         -5    1    3    3    0  502  0.43798499332E+02 -0.21394187273E+02  0.98045206496E+02  0.10957351281E+03  0.41800000000E+01 0. -1.
        -11    1    1    2    0    0 -0.85126840494E+01 -0.21195318114E+02 -0.43954965024E+01  0.23260001917E+02  0.00000000000E+00 0.  1.
         11    1    1    2    0    0  0.36120742866E+02  0.12817983317E+02  0.12044535594E+03  0.12639656850E+03  0.00000000000E+00 0. -1.
</event>
<event>
 7    1  0.5140813E-009  0.7893590E+02  0.7561462E-02  0.1332099E+00
         -2   -1    0    0    0  501 -0.00000000000E+00  0.00000000000E+00  0.83032201826E+02  0.83032201826E+02  0.00000000000E+00 0.  1.
          2   -1    0    0  501    0  0.00000000000E+00 -0.00000000000E+00 -0.16884500451E+03  0.16884500451E+03  0.00000000000E+00 0. -1.
         25    2    1    2    0    0 -0.73877319330E+01 -0.97988771024E+01 -0.97103037340E+02  0.15882965624E+03  0.12508902136E+03 0.  0.
          5    1    3    3  502    0  0.20678117364E+00  0.47122604559E+02 -0.88854939799E+02  0.10066407177E+03  0.41800000000E+01 0. -1.
         -5    1    3    3    0  502 -0.75945131066E+01 -0.56921481661E+02 -0.82480975412E+01  0.58165584471E+02  0.41800000000E+01 0. -1.
        -11    1    1    2    0    0 -0.22319886493E+02  0.52883149776E+01  0.43389100612E+02  0.49079095961E+02  0.00000000000E+00 0.  1.
         11    1    1    2    0    0  0.29707618426E+02  0.45105621248E+01 -0.32098865957E+02  0.43968454134E+02  0.00000000000E+00 0. -1.
</event>
<event>
 7    1  0.2420569E-009  0.9209928E+02  0.7561462E-02  0.1297846E+00
          1   -1    0    0  501    0  0.00000000000E+00  0.00000000000E+00  0.13481551776E+03  0.13481551776E+03  0.00000000000E+00 0. -1.
         -1   -1    0    0    0  501 -0.00000000000E+00 -0.00000000000E+00 -0.17307844710E+03  0.17307844710E+03  0.00000000000E+00 0.  1.
         25    2    1    2    0    0 -0.50114207624E+02 -0.49665788157E+02 -0.10230690060E+03  0.17632305464E+03  0.12507994791E+03 0.  0.
          5    1    3    3  502    0 -0.22482695119E+02 -0.33335888313E+02 -0.12848501026E+03  0.13469455554E+03  0.41800000000E+01 0.  1.
         -5    1    3    3    0  502 -0.27631512505E+02 -0.16329899844E+02  0.26178109663E+02  0.41628499105E+02  0.41800000000E+01 0.  1.
        -11    1    1    2    0    0  0.74716044809E+02  0.32928498038E+02  0.31609799168E+02  0.87555426664E+02  0.00000000000E+00 0.  1.
         11    1    1    2    0    0 -0.24601837185E+02  0.16737290119E+02  0.32434172085E+02  0.44015483551E+02  0.00000000000E+00 0. -1.
</event>
<event>
 7    1  0.2420569E-009  0.1910364E+03  0.7561462E-02  0.1157530E+00
          1   -1    0    0  501    0  0.00000000000E+00  0.00000000000E+00  0.40931310485E+03  0.40931310485E+03  0.00000000000E+00 0. -1.
         -1   -1    0    0    0  501 -0.00000000000E+00 -0.00000000000E+00 -0.10719912856E+03  0.10719912856E+03  0.00000000000E+00 0.  1.
         25    2    1    2    0    0 -0.17060683942E+03 -0.39425160904E+02  0.12070098156E+03  0.24673509038E+03  0.12509372849E+03 0.  0.
          5    1    3    3  502    0 -0.17005569307E+03 -0.10602020270E+02  0.13191267876E+03  0.21552208424E+03  0.41800000000E+01 0. -1.
         -5    1    3    3    0  502 -0.55114635111E+00 -0.28823140634E+02 -0.11211697197E+02  0.31213006141E+02  0.41800000000E+01 0. -1.
        -11    1    1    2    0    0  0.19257301765E+02  0.23407590448E+02  0.83438887176E+02  0.88773908639E+02  0.00000000000E+00 0. -1.
         11    1    1    2    0    0  0.15134953765E+03  0.16017570456E+02  0.97974107554E+02  0.18100323440E+03  0.00000000000E+00 0.  1.
</event>
<event>
 7    1  0.2420569E-009  0.1421391E+03  0.7561462E-02  0.1210479E+00
         -2   -1    0    0    0  501 -0.00000000000E+00  0.00000000000E+00  0.79529163322E+02  0.79529163322E+02  0.00000000000E+00 0. -1.
          2   -1    0    0  501    0  0.00000000000E+00 -0.00000000000E+00 -0.33085608970E+03  0.33085608970E+03  0.00000000000E+00 0.  1.
         25    2    1    2    0    0  0.62317019041E+02 -0.92669222949E+02 -0.94832065570E+02  0.19264789568E+03  0.12509634410E+03 0.  0.
          5    1    3    3  502    0  0.33002869352E+02  0.24011102335E+02 -0.48832947357E+02  0.63779711260E+02  0.41800000000E+01 0.  1.
         -5    1    3    3    0  502  0.29314149689E+02 -0.11668032528E+03 -0.45999118213E+02  0.12886818442E+03  0.41800000000E+01 0.  1.
        -11    1    1    2    0    0 -0.63930375211E+02  0.52647536057E+02 -0.15719502734E+03  0.17767704564E+03  0.00000000000E+00 0.  1.
         11    1    1    2    0    0  0.16133561705E+01  0.40021686892E+02  0.70016653545E+00  0.40060311693E+02  0.00000000000E+00 0. -1.
</event>
<event>
 7    1  0.2420569E-009  0.9781430E+02  0.7561462E-02  0.1284960E+00
         -2   -1    0    0    0  501 -0.00000000000E+00  0.00000000000E+00  0.44444446338E+03  0.44444446338E+03  0.00000000000E+00 0.  1.
          2   -1    0    0  501    0  0.00000000000E+00 -0.00000000000E+00 -0.31065508374E+02  0.31065508374E+02  0.00000000000E+00 0. -1.
         25    2    1    2    0    0 -0.19601323379E+02  0.35267708834E+02  0.26420995326E+03  0.29509374264E+03  0.12508155091E+03 0.  0.
          5    1    3    3  502    0 -0.54141066704E+02 -0.17789445681E+02  0.67681645641E+02  0.88577632832E+02  0.41800000000E+01 0.  1.
         -5    1    3    3    0  502  0.34539743325E+02  0.53057154515E+02  0.19652830762E+03  0.20651610981E+03  0.41800000000E+01 0.  1.
        -11    1    1    2    0    0  0.15272610744E+02  0.16850598517E+02  0.42466001581E+00  0.22745892936E+02  0.00000000000E+00 0. -1.
         11    1    1    2    0    0  0.43287126350E+01 -0.52118307351E+02  0.14874434173E+03  0.15767033618E+03  0.00000000000E+00 0.  1.
</event>
<event>
 7    1  0.2420569E-009  0.3014741E+03  0.7561462E-02  0.1084506E+00
         -2   -1    0    0    0  501 -0.00000000000E+00  0.00000000000E+00  0.34360902649E+03  0.34360902649E+03  0.00000000000E+00 0.  1.
          2   -1    0    0  501    0  0.00000000000E+00 -0.00000000000E+00 -0.60925398988E+03  0.60925398988E+03  0.00000000000E+00 0. -1.
         25    2    1    2    0    0  0.15701038061E+03  0.24862705565E+03 -0.48110490801E+03  0.57756179231E+03  0.12509204216E+03 0.  0.
          5    1    3    3  502    0  0.15405831750E+03  0.20507113511E+03 -0.46457700600E+03  0.53069520683E+03  0.41800000000E+01 0.  1.
         -5    1    3    3    0  502  0.29520631099E+01  0.43555920533E+02 -0.16527902006E+02  0.46866585483E+02  0.41800000000E+01 0.  1.
        -11    1    1    2    0    0 -0.68224734461E+02 -0.17289654227E+03  0.99669847406E+02  0.21090734269E+03  0.00000000000E+00 0. -1.
         11    1    1    2    0    0 -0.88785646147E+02 -0.75730513380E+02  0.11579009721E+03  0.16439388136E+03  0.00000000000E+00 0.  1.
</event>
<event>
 7    1  0.2420569E-009  0.1048762E+03  0.7561462E-02  0.1270364E+00
          2   -1    0    0  501    0  0.00000000000E+00  0.00000000000E+00  0.12230751677E+04  0.12230751677E+04  0.00000000000E+00 0. -1.
         -2   -1    0    0    0  501 -0.00000000000E+00 -0.00000000000E+00 -0.30399840193E+02  0.30399840193E+02  0.00000000000E+00 0.  1.
         25    2    1    2    0    0 -0.94680672259E+01 -0.64951222702E+02  0.10960221488E+04  0.11050875761E+04  0.12508275062E+03 0.  0.
          5    1    3    3  502    0  0.34792348752E+02 -0.81608000794E+01  0.78454184251E+03  0.78536646303E+03  0.41800000000E+01 0.  1.
         -5    1    3    3    0  502 -0.44260415978E+02 -0.56790422622E+02  0.31148030627E+03  0.31972111303E+03  0.41800000000E+01 0.  1.
        -11    1    1    2    0    0 -0.10930192572E+02  0.77124630742E+02  0.97281026115E+02  0.12462453939E+03  0.00000000000E+00 0. -1.
         11    1    1    2    0    0  0.20398259798E+02 -0.12173408040E+02 -0.62784736982E+00  0.23762892467E+02  0.00000000000E+00 0.  1.
</event>
<event>
 7    1  0.2420569E-009  0.2733652E+03  0.7561462E-02  0.1099369E+00
         -2   -1    0    0    0  501 -0.00000000000E+00  0.00000000000E+00  0.10503447408E+03  0.10503447408E+03  0.00000000000E+00 0.  1.
          2   -1    0    0  501    0  0.00000000000E+00 -0.00000000000E+00 -0.98715709923E+03  0.98715709923E+03  0.00000000000E+00 0. -1.
         25    2    1    2    0    0  0.67823912026E+01 -0.26746419470E+03 -0.20799610618E+03  0.36123739881E+03  0.12508789645E+03 0.  0.
          5    1    3    3  502    0 -0.28936757772E+02 -0.56321286429E+02 -0.10707817169E+03  0.12446939587E+03  0.41800000000E+01 0.  1.
         -5    1    3    3    0  502  0.35719148974E+02 -0.21114290827E+03 -0.10091793449E+03  0.23676800294E+03  0.41800000000E+01 0.  1.
        -11    1    1    2    0    0  0.10231161726E+02  0.15584686243E+03 -0.27598531403E+03  0.31711325226E+03  0.00000000000E+00 0.  1.
         11    1    1    2    0    0 -0.17013552928E+02  0.11161733226E+03 -0.39814120494E+03  0.41384092224E+03  0.00000000000E+00 0. -1.
</event>
<event>
 7    1  0.2420569E-009  0.9911612E+02  0.7561462E-02  0.1282166E+00
         -4   -1    0    0    0  501 -0.00000000000E+00  0.00000000000E+00  0.34064048555E+02  0.34064048555E+02  0.00000000000E+00 0. -1.
          4   -1    0    0  501    0  0.00000000000E+00 -0.00000000000E+00 -0.48006925001E+03  0.48006925001E+03  0.00000000000E+00 0.  1.
         25    2    1    2    0    0  0.21194346897E+02  0.33996834540E+02 -0.13925024677E+03  0.19142452541E+03  0.12509089737E+03 0.  0.
          5    1    3    3  502    0  0.40944340635E+02 -0.27155696104E+02 -0.15105165218E+02  0.51570430259E+02  0.41800000000E+01 0.  1.
         -5    1    3    3    0  502 -0.19749993737E+02  0.61152530644E+02 -0.12414508155E+03  0.13985409515E+03  0.41800000000E+01 0.  1.
        -11    1    1    2    0    0 -0.49146881258E+02 -0.25135944466E+02 -0.27052196930E+03  0.27609666336E+03  0.00000000000E+00 0.  1.
         11    1    1    2    0    0  0.27952534361E+02 -0.88608900746E+01 -0.36232985389E+02  0.46612109803E+02  0.00000000000E+00 0. -1.
</event>
<event>
 7    1  0.2420569E-009  0.1657778E+03  0.7561462E-02  0.1182324E+00
          1   -1    0    0  501    0  0.00000000000E+00  0.00000000000E+00  0.64452041917E+02  0.64452041917E+02  0.00000000000E+00 0. -1.
         -1   -1    0    0    0  501 -0.00000000000E+00 -0.00000000000E+00 -0.56155179369E+03  0.56155179369E+03  0.00000000000E+00 0.  1.
         25    2    1    2    0    0  0.19243175290E+02 -0.14892860013E+03 -0.18341361336E+03  0.26802790103E+03  0.12509346279E+03 0.  0.
          5    1    3    3  502    0  0.48373734110E+02 -0.14333717213E+03 -0.10529813002E+03  0.18436575510E+03  0.41800000000E+01 0. -1.
         -5    1    3    3    0  502 -0.29130558820E+02 -0.55914279911E+01 -0.78115483338E+02  0.83662145928E+02  0.41800000000E+01 0. -1.
        -11    1    1    2    0    0 -0.10335726233E+02  0.59442541342E+02 -0.46834072866E+02  0.76378487411E+02  0.00000000000E+00 0. -1.
         11    1    1    2    0    0 -0.89074490569E+01  0.89486058783E+02 -0.26685206555E+03  0.28159744717E+03  0.00000000000E+00 0.  1.
</event>
<event>
 7    1  0.2420569E-009  0.1249317E+03  0.7561462E-02  0.1235176E+00
         -2   -1    0    0    0  501 -0.00000000000E+00  0.00000000000E+00  0.59242782178E+02  0.59242782178E+02  0.00000000000E+00 0. -1.
          2   -1    0    0  501    0  0.00000000000E+00 -0.00000000000E+00 -0.90488685105E+03  0.90488685105E+03  0.00000000000E+00 0.  1.
         25    2    1    2    0    0 -0.63477261810E+02 -0.21780740671E+02 -0.84028538892E+03  0.85219176361E+03  0.12508998244E+03 0.  0.
          5    1    3    3  502    0 -0.28774658602E+01 -0.63926420853E+02 -0.49080781753E+03  0.49497944730E+03  0.41800000000E+01 0.  1.
         -5    1    3    3    0  502 -0.60599795950E+02  0.42145680182E+02 -0.34947757138E+03  0.35721231631E+03  0.41800000000E+01 0.  1.
        -11    1    1    2    0    0 -0.19989424065E+02  0.20059038999E+02 -0.83223895453E+00  0.28330809055E+02  0.00000000000E+00 0. -1.
         11    1    1    2    0    0  0.83466685875E+02  0.17217016721E+01 -0.45264409988E+01  0.83607060562E+02  0.00000000000E+00 0.  1.
</event>
<event>
 7    1  0.2420569E-009  0.1095241E+03  0.7561462E-02  0.1261454E+00
          2   -1    0    0  501    0  0.00000000000E+00  0.00000000000E+00  0.54951436296E+03  0.54951436296E+03  0.00000000000E+00 0. -1.
         -2   -1    0    0    0  501 -0.00000000000E+00 -0.00000000000E+00 -0.31330699543E+02  0.31330699543E+02  0.00000000000E+00 0.  1.
         25    2    1    2    0    0  0.25125447377E+02  0.60761611458E+02  0.23001975283E+03  0.26996217047E+03  0.12508886945E+03 0.  0.
          5    1    3    3  502    0  0.54494941760E+02  0.79283220669E+02  0.11633293481E+03  0.15101772041E+03  0.41800000000E+01 0. -1.
         -5    1    3    3    0  502 -0.29369494383E+02 -0.18521609211E+02  0.11368681803E+03  0.11894445006E+03  0.41800000000E+01 0. -1.
        -11    1    1    2    0    0  0.17643335006E+02 -0.31016987288E+02  0.27464355763E+02  0.45029230596E+02  0.00000000000E+00 0.  1.
         11    1    1    2    0    0 -0.42768782383E+02 -0.29744624170E+02  0.26069955482E+03  0.26585366143E+03  0.00000000000E+00 0. -1.
</event>
<event>
 7    1  0.2420569E-009  0.9473625E+02  0.7561462E-02  0.1291771E+00
         -3   -1    0    0    0  501 -0.00000000000E+00  0.00000000000E+00  0.96281407936E+02  0.96281407936E+02  0.00000000000E+00 0.  1.
          3   -1    0    0  501    0  0.00000000000E+00 -0.00000000000E+00 -0.13277245616E+03  0.13277245616E+03  0.00000000000E+00 0. -1.
         25    2    1    2    0    0 -0.14177456747E+02 -0.26624209553E+02 -0.28572791540E+01  0.12870453146E+03  0.12508734373E+03 0.  0.
          5    1    3    3  502    0 -0.38694361522E+02  0.19507313835E+02  0.41423977786E+02  0.60093321111E+02  0.41800000000E+01 0. -1.
         -5    1    3    3    0  502  0.24516904775E+02 -0.46131523387E+02 -0.44281256940E+02  0.68611210352E+02  0.41800000000E+01 0. -1.
        -11    1    1    2    0    0  0.48665420424E+02 -0.20051223810E+01 -0.24829313488E+02  0.54670270432E+02  0.00000000000E+00 0. -1.
         11    1    1    2    0    0 -0.34487963677E+02  0.28629331934E+02 -0.88044555834E+01  0.45679062203E+02  0.00000000000E+00 0.  1.
</event>
<event>
 7    1  0.2420569E-009  0.8985607E+02  0.7561462E-02  0.1303201E+00
         -1   -1    0    0    0  501 -0.00000000000E+00  0.00000000000E+00  0.16869346701E+03  0.16869346701E+03  0.00000000000E+00 0.  1.
          1   -1    0    0  501    0  0.00000000000E+00 -0.00000000000E+00 -0.11272563518E+03  0.11272563518E+03  0.00000000000E+00 0. -1.
         25    2    1    2    0    0  0.99007475387E+01  0.70322689154E+02  0.77137853964E+02  0.16322028515E+03  0.12508919841E+03 0.  0.
          5    1    3    3  502    0 -0.42796636837E+01  0.79362228816E+02 -0.45474966320E+01  0.79717193939E+02  0.41800000000E+01 0. -1.
         -5    1    3    3    0  502  0.14180411222E+02 -0.90395396625E+01  0.81685350596E+02  0.83503091211E+02  0.41800000000E+01 0. -1.
        -11    1    1    2    0    0  0.16867413865E+02 -0.29451020249E+02 -0.50773825583E+02  0.61072527445E+02  0.00000000000E+00 0. -1.
         11    1    1    2    0    0 -0.26768161403E+02 -0.40871668905E+02  0.29603803448E+02  0.57126289593E+02  0.00000000000E+00 0.  1.
</event>
<event>
 7    1  0.2420569E-009  0.1001273E+03  0.7561462E-02  0.1280029E+00
          3   -1    0    0  501    0  0.00000000000E+00  0.00000000000E+00  0.31148828018E+03  0.31148828018E+03  0.00000000000E+00 0. -1.
         -3   -1    0    0    0  501 -0.00000000000E+00 -0.00000000000E+00 -0.56770331721E+02  0.56770331721E+02  0.00000000000E+00 0.  1.
         25    2    1    2    0    0 -0.59566215264E+02 -0.45208644761E+02  0.11649161562E+03  0.18657106805E+03  0.12508601585E+03 0.  0.
          5    1    3    3  502    0 -0.43368726260E+02 -0.53182190399E+02  0.14039559619E+03  0.15632526227E+03  0.41800000000E+01 0. -1.
         -5    1    3    3    0  502 -0.16197489004E+02  0.79735456379E+01 -0.23903980572E+02  0.30245805780E+02  0.41800000000E+01 0. -1.
        -11    1    1    2    0    0  0.79954471509E+02  0.46588487815E+02  0.89011276351E+02  0.12839864496E+03  0.00000000000E+00 0.  1.
         11    1    1    2    0    0 -0.20388256245E+02 -0.13798430540E+01  0.49215056491E+02  0.53288898891E+02  0.00000000000E+00 0. -1.
</event>
<event>
 7    1  0.2420569E-009  0.4412832E+03  0.7561462E-02  0.1030354E+00
          2   -1    0    0  501    0  0.00000000000E+00  0.00000000000E+00  0.12826857915E+03  0.12826857915E+03  0.00000000000E+00 0. -1.
         -2   -1    0    0    0  501 -0.00000000000E+00 -0.00000000000E+00 -0.16263587900E+04  0.16263587900E+04  0.00000000000E+00 0.  1.
         25    2    1    2    0    0 -0.46100719891E+02 -0.43033711000E+03 -0.93996684571E+03  0.10423528730E+04  0.12508611486E+03 0.  0.
          5    1    3    3  502    0  0.18199033626E+02 -0.33554300882E+02 -0.34317552287E+02  0.51500123568E+02  0.41800000000E+01 0. -1.
         -5    1    3    3    0  502 -0.64299753517E+02 -0.39678280912E+03 -0.90564929343E+03  0.99085274940E+03  0.41800000000E+01 0. -1.
        -11    1    1    2    0    0  0.70327088160E+02  0.23343706238E+03 -0.32166505163E+03  0.40361759979E+03  0.00000000000E+00 0.  1.
         11    1    1    2    0    0 -0.24226368269E+02  0.19690004762E+03 -0.23645831353E+03  0.30865689643E+03  0.00000000000E+00 0. -1.
</event>
<event>
 7    1  0.2420569E-009  0.1689050E+03  0.7561462E-02  0.1178995E+00
         -2   -1    0    0    0  501 -0.00000000000E+00  0.00000000000E+00  0.16501098699E+03  0.16501098699E+03  0.00000000000E+00 0. -1.
          2   -1    0    0  501    0  0.00000000000E+00 -0.00000000000E+00 -0.18870737390E+03  0.18870737390E+03  0.00000000000E+00 0.  1.
         25    2    1    2    0    0 -0.12399959058E+03  0.50653763253E+02 -0.48907983970E+02  0.18968479948E+03  0.12508649032E+03 0.  0.
          5    1    3    3  502    0 -0.13805259064E+03  0.13904925437E+02 -0.55641402338E+02  0.14955033530E+03  0.41800000000E+01 0. -1.
         -5    1    3    3    0  502  0.14053000064E+02  0.36748837815E+02  0.67334183678E+01  0.40134464173E+02  0.41800000000E+01 0. -1.
        -11    1    1    2    0    0  0.53365245613E+02  0.22343346235E+02 -0.49725032882E+01  0.58067205454E+02  0.00000000000E+00 0. -1.
         11    1    1    2    0    0  0.70634344967E+02 -0.72997109488E+02  0.30184100349E+02  0.10596635596E+03  0.00000000000E+00 0.  1.
</event>
<event>
 7    1  0.2420569E-009  0.1075912E+03  0.7561462E-02  0.1265097E+00
         -2   -1    0    0    0  501 -0.00000000000E+00  0.00000000000E+00  0.36543156270E+02  0.36543156270E+02  0.00000000000E+00 0.  1.
          2   -1    0    0  501    0  0.00000000000E+00 -0.00000000000E+00 -0.47342812879E+03  0.47342812879E+03  0.00000000000E+00 0. -1.
         25    2    1    2    0    0 -0.24333924306E+02  0.23900351285E+02 -0.37464952964E+03  0.39644969117E+03  0.12508685348E+03 0.  0.
          5    1    3    3  502    0 -0.55847108058E+02  0.54282352635E+02 -0.16867744847E+03  0.18583602263E+03  0.41800000000E+01 0. -1.
         -5    1    3    3    0  502  0.31513183751E+02 -0.30382001350E+02 -0.20597208117E+03  0.21061366854E+03  0.41800000000E+01 0. -1.
        -11    1    1    2    0    0  0.27073451893E+02  0.29330172948E+02 -0.37474346892E+02  0.54749954498E+02  0.00000000000E+00 0.  1.
         11    1    1    2    0    0 -0.27395275866E+01 -0.53230524233E+02 -0.24761095993E+02  0.58771639387E+02  0.00000000000E+00 0. -1.
</event>
<event>
 7    1  0.2420569E-009  0.6189985E+02  0.7561462E-02  0.1390028E+00
          1   -1    0    0  501    0  0.00000000000E+00  0.00000000000E+00  0.20723209304E+03  0.20723209304E+03  0.00000000000E+00 0. -1.
         -1   -1    0    0    0  501 -0.00000000000E+00 -0.00000000000E+00 -0.62613530244E+02  0.62613530244E+02  0.00000000000E+00 0.  1.
         25    2    1    2    0    0 -0.15546769185E+02  0.32923506862E+02  0.12898300502E+03  0.18333055446E+03  0.12509123581E+03 0.  0.
          5    1    3    3  502    0  0.16023753203E+02  0.25557073955E+02 -0.16213425147E+02  0.34500322475E+02  0.41800000000E+01 0. -1.
         -5    1    3    3    0  502 -0.31570522389E+02  0.73664329072E+01  0.14519643017E+03  0.14883023198E+03  0.41800000000E+01 0. -1.
        -11    1    1    2    0    0 -0.11419944389E+02 -0.31667413267E+02  0.38496964509E+02  0.51139578306E+02  0.00000000000E+00 0. -1.
         11    1    1    2    0    0  0.26966713574E+02 -0.12560935950E+01 -0.22861406732E+02  0.35375490525E+02  0.00000000000E+00 0.  1.
</event>
<event>
 7    1  0.2420569E-009  0.1019612E+03  0.7561462E-02  0.1276225E+00
          2   -1    0    0  501    0  0.00000000000E+00  0.00000000000E+00  0.20457352369E+03  0.20457352369E+03  0.00000000000E+00 0. -1.
         -2   -1    0    0    0  501 -0.00000000000E+00 -0.00000000000E+00 -0.79683689590E+02  0.79683689590E+02  0.00000000000E+00 0.  1.
         25    2    1    2    0    0  0.22780747285E+02 -0.52670319642E+02  0.33349055323E+02  0.14160755263E+03  0.12508962568E+03 0.  0.
          5    1    3    3  502    0  0.44730151308E+02 -0.80093112754E+01 -0.34609729641E+02  0.57273390758E+02  0.41800000000E+01 0.  1.
         -5    1    3    3    0  502 -0.21949404023E+02 -0.44661008367E+02  0.67958784964E+02  0.84334161875E+02  0.41800000000E+01 0.  1.
        -11    1    1    2    0    0 -0.55308470693E+02  0.12574577878E+02  0.57742098865E+02  0.80940082286E+02  0.00000000000E+00 0. -1.
         11    1    1    2    0    0  0.32527723408E+02  0.40095741764E+02  0.33798679914E+02  0.61709578362E+02  0.00000000000E+00 0.  1.
</event>
<event>
 7    1  0.2420569E-009  0.3139511E+03  0.7561462E-02  0.1078467E+00
         -1   -1    0    0    0  501 -0.00000000000E+00  0.00000000000E+00  0.53396397589E+02  0.53396397589E+02  0.00000000000E+00 0.  1.
          1   -1    0    0  501    0  0.00000000000E+00 -0.00000000000E+00 -0.22403285384E+04  0.22403285384E+04  0.00000000000E+00 0. -1.
         25    2    1    2    0    0  0.17006572163E+03  0.24528060448E+03 -0.15647036856E+04  0.15978208635E+04  0.12509581688E+03 0.  0.
          5    1    3    3  502    0  0.55730069773E+02  0.17440766247E+03 -0.74748481488E+03  0.76959398015E+03  0.41800000000E+01 0.  1.
         -5    1    3    3    0  502  0.11433565186E+03  0.70872942011E+02 -0.81721887072E+03  0.82822688332E+03  0.41800000000E+01 0.  1.
        -11    1    1    2    0    0 -0.22459927453E+02 -0.10207294229E+03 -0.24239869053E+03  0.26397056476E+03  0.00000000000E+00 0. -1.
         11    1    1    2    0    0 -0.14760579417E+03 -0.14320766219E+03 -0.37982976464E+03  0.43193350772E+03  0.00000000000E+00 0.  1.
</event>
<event>
 7    1  0.2420569E-009  0.2610887E+03  0.7561462E-02  0.1106491E+00
         -1   -1    0    0    0  501 -0.00000000000E+00  0.00000000000E+00  0.66075737638E+03  0.66075737638E+03  0.00000000000E+00 0.  1.
          1   -1    0    0  501    0  0.00000000000E+00 -0.00000000000E+00 -0.11812442378E+03  0.11812442378E+03  0.00000000000E+00 0. -1.
         25    2    1    2    0    0  0.96089223745E+02  0.21892243889E+03  0.41182616365E+03  0.49235052548E+03  0.12509227677E+03 0.  0.
          5    1    3    3  502    0  0.11660065145E+03  0.21950744818E+03  0.38566794818E+03  0.45884253331E+03  0.41800000000E+01 0. -1.
         -5    1    3    3    0  502 -0.20511427707E+02 -0.58500929731E+00  0.26158215475E+02  0.33507992170E+02  0.41800000000E+01 0. -1.
        -11    1    1    2    0    0 -0.91858745479E+02 -0.10858289781E+03  0.92475729223E+02  0.16964679576E+03  0.00000000000E+00 0.  1.
         11    1    1    2    0    0 -0.42304782657E+01 -0.11033954108E+03  0.38331059717E+02  0.11688447891E+03  0.00000000000E+00 0. -1.
</event>
<event>
 7    1  0.2420569E-009  0.2128491E+03  0.7561462E-02  0.1139329E+00
         -1   -1    0    0    0  501 -0.00000000000E+00  0.00000000000E+00  0.85959356608E+02  0.85959356608E+02  0.00000000000E+00 0.  1.
          1   -1    0    0  501    0  0.00000000000E+00 -0.00000000000E+00 -0.63337489633E+03  0.63337489633E+03  0.00000000000E+00 0. -1.
         25    2    1    2    0    0  0.42340485887E+02  0.19425214564E+03 -0.36608887215E+03  0.43496539109E+03  0.12508883366E+03 0.  0.
          5    1    3    3  502    0  0.31818815533E+02  0.20291676181E+03 -0.27768161666E+03  0.34541598381E+03  0.41800000000E+01 0.  1.
         -5    1    3    3    0  502  0.10521670354E+02 -0.86646161687E+01 -0.88407255491E+02  0.89549407278E+02  0.41800000000E+01 0.  1.
        -11    1    1    2    0    0  0.10192676117E+02 -0.95234749750E+01  0.68071908345E+01  0.15521761146E+02  0.00000000000E+00 0.  1.
         11    1    1    2    0    0 -0.52533162004E+02 -0.18472867066E+03 -0.18813385841E+03  0.26884710070E+03  0.00000000000E+00 0. -1.
</event>
<event>
 7    1  0.2420569E-009  0.1963199E+03  0.7561462E-02  0.1152882E+00
         -1   -1    0    0    0  501 -0.00000000000E+00  0.00000000000E+00  0.56305537320E+02  0.56305537320E+02  0.00000000000E+00 0.  1.
          1   -1    0    0  501    0  0.00000000000E+00 -0.00000000000E+00 -0.89085939838E+03  0.89085939838E+03  0.00000000000E+00 0. -1.
         25    2    1    2    0    0  0.14945556096E+03  0.68910584396E+02 -0.20749617347E+03  0.29289649435E+03  0.12509221020E+03 0.  0.
          5    1    3    3  502    0  0.64041807423E+01 -0.30694001741E+02 -0.23493366379E+02  0.39402359544E+02  0.41800000000E+01 0. -1.
         -5    1    3    3    0  502  0.14305138021E+03  0.99604586138E+02 -0.18400280709E+03  0.25349413480E+03  0.41800000000E+01 0. -1.
        -11    1    1    2    0    0 -0.11865510170E+02 -0.45569914466E+02 -0.16659404681E+03  0.17312129814E+03  0.00000000000E+00 0.  1.
         11    1    1    2    0    0 -0.13759005079E+03 -0.23340669931E+02 -0.46046364078E+03  0.48114714322E+03  0.00000000000E+00 0. -1.
</event>
<event>
 7    1  0.2420569E-009  0.1364415E+03  0.7561462E-02  0.1218199E+00
          2   -1    0    0  501    0  0.00000000000E+00  0.00000000000E+00  0.55314997452E+03  0.55314997452E+03  0.00000000000E+00 0. -1.
         -2   -1    0    0    0  501 -0.00000000000E+00 -0.00000000000E+00 -0.42968340612E+02  0.42968340612E+02  0.00000000000E+00 0.  1.
         25    2    1    2    0    0  0.79248136543E+02  0.37786387916E+02  0.40176605290E+03  0.42985037023E+03  0.12508917325E+03 0.  0.
          5    1    3    3  502    0  0.14113306326E+02 -0.43884521467E+02  0.93338440586E+02  0.10418528462E+03  0.41800000000E+01 0.  1.
         -5    1    3    3    0  502  0.65134830217E+02  0.81670909383E+02  0.30842761232E+03  0.32566508561E+03  0.41800000000E+01 0.  1.
        -11    1    1    2    0    0 -0.25867822284E+02 -0.59144369224E+02  0.36374132453E+02  0.74096411197E+02  0.00000000000E+00 0.  1.
         11    1    1    2    0    0 -0.53380314259E+02  0.21357981308E+02  0.72041448546E+02  0.92171533700E+02  0.00000000000E+00 0. -1.
</event>
<event>
 7    1  0.2420569E-009  0.1336209E+03  0.7561462E-02  0.1222180E+00
         -2   -1    0    0    0  501 -0.00000000000E+00  0.00000000000E+00  0.41443937660E+02  0.41443937660E+02  0.00000000000E+00 0.  1.
          2   -1    0    0  501    0  0.00000000000E+00 -0.00000000000E+00 -0.67785038732E+03  0.67785038732E+03  0.00000000000E+00 0. -1.
         25    2    1    2    0    0 -0.10099051204E+02 -0.10039608877E+03 -0.50293668523E+03  0.52799045439E+03  0.12508894880E+03 0.  0.
          5    1    3    3  502    0 -0.27867824214E+02  0.10923986510E+01 -0.21040043532E+02  0.35184723859E+02  0.41800000000E+01 0.  1.
         -5    1    3    3    0  502  0.17768773010E+02 -0.10148848742E+03 -0.48189664169E+03  0.49280573053E+03  0.41800000000E+01 0.  1.
        -11    1    1    2    0    0 -0.22719831286E+02  0.10057031110E+03 -0.11118702557E+03  0.15163486691E+03  0.00000000000E+00 0. -1.
         11    1    1    2    0    0  0.32818882489E+02 -0.17422233204E+00 -0.22282738868E+02  0.39669003677E+02  0.00000000000E+00 0.  1.
</event>
<event>
 7    1  0.2420569E-009  0.1477262E+03  0.7561462E-02  0.1203295E+00
         -2   -1    0    0    0  501 -0.00000000000E+00  0.00000000000E+00  0.68249246976E+02  0.68249246976E+02  0.00000000000E+00 0.  1.
          2   -1    0    0  501    0  0.00000000000E+00 -0.00000000000E+00 -0.32968572597E+03  0.32968572597E+03  0.00000000000E+00 0. -1.
         25    2    1    2    0    0 -0.12758411379E+02 -0.10266982889E+03 -0.12874055492E+03  0.20718624146E+03  0.12509251514E+03 0.  0.
          5    1    3    3  502    0 -0.27428249402E+02  0.22680986798E+02 -0.24062971461E+02  0.43165206161E+02  0.41800000000E+01 0.  1.
         -5    1    3    3    0  502  0.14669838023E+02 -0.12535081569E+03 -0.10467758346E+03  0.16402103530E+03  0.41800000000E+01 0.  1.
        -11    1    1    2    0    0  0.29787430909E+02  0.11061089061E+03 -0.12718679955E+03  0.17116816918E+03  0.00000000000E+00 0. -1.
         11    1    1    2    0    0 -0.17029019530E+02 -0.79410617175E+01 -0.55091245324E+01  0.19580562312E+02  0.00000000000E+00 0.  1.
</event>
<event>
 7    1  0.2420569E-009  0.2626606E+03  0.7561462E-02  0.1105555E+00
          2   -1    0    0  501    0  0.00000000000E+00  0.00000000000E+00  0.49647357220E+03  0.49647357220E+03  0.00000000000E+00 0. -1.
         -2   -1    0    0    0  501 -0.00000000000E+00 -0.00000000000E+00 -0.14841328251E+03  0.14841328251E+03  0.00000000000E+00 0.  1.
         25    2    1    2    0    0 -0.17016895862E+03  0.17961719344E+03  0.15093906696E+03  0.31567332849E+03  0.12508891930E+03 0.  0.
          5    1    3    3  502    0 -0.14972587767E+02 -0.19367427395E+02  0.14850446068E+02  0.28935856247E+02  0.41800000000E+01 0.  1.
         -5    1    3    3    0  502 -0.15519637086E+03  0.19898462083E+03  0.13608862089E+03  0.28673747225E+03  0.41800000000E+01 0.  1.
        -11    1    1    2    0    0  0.68534207450E+02 -0.85546201164E+02  0.33006351748E+02  0.11447492905E+03  0.00000000000E+00 0. -1.
         11    1    1    2    0    0  0.10163475117E+03 -0.94070992274E+02  0.16411487099E+03  0.21473859717E+03  0.00000000000E+00 0.  1.
</event>
<event>
 7    1  0.2420569E-009  0.1355820E+03  0.7561462E-02  0.1219400E+00
          1   -1    0    0  501    0  0.00000000000E+00  0.00000000000E+00  0.10327986078E+03  0.10327986078E+03  0.00000000000E+00 0. -1.
         -1   -1    0    0    0  501 -0.00000000000E+00 -0.00000000000E+00 -0.17909361969E+03  0.17909361969E+03  0.00000000000E+00 0.  1.
         25    2    1    2    0    0  0.81032229635E+02  0.27346622249E+00 -0.45307275419E+02  0.15577805560E+03  0.12509099239E+03 0.  0.
          5    1    3    3  502    0  0.11281499049E+03  0.13371003507E+02 -0.28067542685E+02  0.11709511162E+03  0.41800000000E+01 0.  1.
         -5    1    3    3    0  502 -0.31782760852E+02 -0.13097537284E+02 -0.17239732734E+02  0.38682943981E+02  0.41800000000E+01 0.  1.
        -11    1    1    2    0    0 -0.55953759937E+02  0.44528908087E+02 -0.16911498664E+02  0.73482281494E+02  0.00000000000E+00 0. -1.
         11    1    1    2    0    0 -0.25078469698E+02 -0.44802374310E+02 -0.13594984833E+02  0.53113143372E+02  0.00000000000E+00 0.  1.
</event>
<event>
 7    1  0.2420569E-009  0.1011533E+03  0.7561462E-02  0.1277889E+00
         -3   -1    0    0    0  501 -0.00000000000E+00  0.00000000000E+00  0.27303711923E+03  0.27303711923E+03  0.00000000000E+00 0.  1.
          3   -1    0    0  501    0  0.00000000000E+00 -0.00000000000E+00 -0.75230041663E+02  0.75230041663E+02  0.00000000000E+00 0. -1.
         25    2    1    2    0    0  0.31065959118E+02  0.53032671374E+02  0.18521249115E+02  0.14059959259E+03  0.12509057006E+03 0.  0.
          5    1    3    3  502    0  0.78887038480E+02  0.26275668481E+02  0.22453507258E+01  0.83283189145E+02  0.41800000000E+01 0.  1.
         -5    1    3    3    0  502 -0.47821079362E+02  0.26757002893E+02  0.16275898389E+02  0.57316403442E+02  0.41800000000E+01 0.  1.
        -11    1    1    2    0    0 -0.17678980867E+02 -0.45321701408E+02  0.18492866131E+03  0.19122032516E+03  0.00000000000E+00 0.  1.
         11    1    1    2    0    0 -0.13386978251E+02 -0.77109699650E+01 -0.56428328504E+01  0.16447243145E+02  0.00000000000E+00 0. -1.
</event>
<event>
 7    1  0.2420569E-009  0.1359227E+03  0.7561462E-02  0.1218923E+00
         -2   -1    0    0    0  501 -0.00000000000E+00  0.00000000000E+00  0.13012906538E+03  0.13012906538E+03  0.00000000000E+00 0.  1.
          2   -1    0    0  501    0  0.00000000000E+00 -0.00000000000E+00 -0.18107236102E+03  0.18107236102E+03  0.00000000000E+00 0. -1.
         25    2    1    2    0    0 -0.36597854931E+02 -0.98253403400E+02 -0.55620884164E+02  0.17244057851E+03  0.12509570775E+03 0.  0.
          5    1    3    3  502    0  0.41463089411E+02 -0.60220888599E+02 -0.42068472704E+02  0.84456923948E+02  0.41800000000E+01 0.  1.
         -5    1    3    3    0  502 -0.78060944342E+02 -0.38032514801E+02 -0.13552411460E+02  0.87983654561E+02  0.41800000000E+01 0.  1.
        -11    1    1    2    0    0  0.41736444289E+02  0.60045893496E+02  0.42644817669E+02  0.84652351305E+02  0.00000000000E+00 0.  1.
         11    1    1    2    0    0 -0.51385893580E+01  0.38207509904E+02 -0.37967229146E+02  0.54108496585E+02  0.00000000000E+00 0. -1.
</event>
<event>
 7    1  0.2420569E-009  0.1064522E+03  0.7561462E-02  0.1267285E+00
          3   -1    0    0  501    0  0.00000000000E+00  0.00000000000E+00  0.21868503311E+03  0.21868503311E+03  0.00000000000E+00 0. -1.
         -3   -1    0    0    0  501 -0.00000000000E+00 -0.00000000000E+00 -0.11484335312E+03  0.11484335312E+03  0.00000000000E+00 0.  1.
         25    2    1    2    0    0 -0.51937078847E+02 -0.29577943482E+01  0.16264816285E+03  0.21167791174E+03  0.12508758825E+03 0.  0.
          5    1    3    3  502    0  0.14486911871E+02  0.30132413748E+02  0.12280777590E+03  0.12734620213E+03  0.41800000000E+01 0. -1.
         -5    1    3    3    0  502 -0.66423990718E+02 -0.33090208096E+02  0.39840386945E+02  0.84331709616E+02  0.41800000000E+01 0. -1.
        -11    1    1    2    0    0  0.76587676008E+01 -0.41461971969E+02 -0.12788627624E+02  0.44060195610E+02  0.00000000000E+00 0.  1.
         11    1    1    2    0    0  0.44278311246E+02  0.44419766317E+02 -0.46017855237E+02  0.77790278873E+02  0.00000000000E+00 0. -1.
</event>
<event>
 7    1  0.2420569E-009  0.1993751E+03  0.7561462E-02  0.1150267E+00
         -2   -1    0    0    0  501 -0.00000000000E+00  0.00000000000E+00  0.38481236534E+02  0.38481236534E+02  0.00000000000E+00 0.  1.
          2   -1    0    0  501    0  0.00000000000E+00 -0.00000000000E+00 -0.12690420074E+04  0.12690420074E+04  0.00000000000E+00 0. -1.
         25    2    1    2    0    0 -0.15442856131E+03 -0.70495414469E+02 -0.36542835491E+03  0.42190442625E+03  0.12509068036E+03 0.  0.
          5    1    3    3  502    0  0.16549825312E+02  0.11843331101E+02 -0.29995972709E+02  0.36488244520E+02  0.41800000000E+01 0. -1.
         -5    1    3    3    0  502 -0.17097838662E+03 -0.82338745570E+02 -0.33543238220E+03  0.38541618173E+03  0.41800000000E+01 0. -1.
        -11    1    1    2    0    0  0.89730731977E+02  0.83034293707E+02 -0.51238122873E+03  0.52676448413E+03  0.00000000000E+00 0.  1.
         11    1    1    2    0    0  0.64697829332E+02 -0.12538879238E+02 -0.35275118719E+03  0.35885433351E+03  0.00000000000E+00 0. -1.
</event>
<event>
 7    1  0.2420569E-009  0.1319013E+03  0.7561462E-02  0.1224661E+00
          2   -1    0    0  501    0  0.00000000000E+00  0.00000000000E+00  0.22598816503E+03  0.22598816503E+03  0.00000000000E+00 0.  1.
         -2   -1    0    0    0  501 -0.00000000000E+00 -0.00000000000E+00 -0.26588753458E+03  0.26588753458E+03  0.00000000000E+00 0. -1.
         25    2    1    2    0    0 -0.64085445736E+02  0.61154489316E+02 -0.22159733813E+03  0.26944370826E+03  0.12509082995E+03 0.  0.
          5    1    3    3  502    0  0.25553037851E+02  0.57835905437E+02 -0.86575859849E+02  0.10728840389E+03  0.41800000000E+01 0.  1.
         -5    1    3    3    0  502 -0.89638483587E+02  0.33185838792E+01 -0.13502147828E+03  0.16215530437E+03  0.41800000000E+01 0.  1.
        -11    1    1    2    0    0  0.18390724724E+02 -0.62270782826E+02  0.46903954247E+02  0.80099001702E+02  0.00000000000E+00 0. -1.
         11    1    1    2    0    0  0.45694721012E+02  0.11162935099E+01  0.13479401433E+03  0.14233298964E+03  0.00000000000E+00 0.  1.
</event>
<event>
 7    1  0.2420569E-009  0.1342158E+03  0.7561462E-02  0.1221331E+00
          1   -1    0    0  501    0  0.00000000000E+00  0.00000000000E+00  0.10090770885E+03  0.10090770885E+03  0.00000000000E+00 0. -1.
         -1   -1    0    0    0  501 -0.00000000000E+00 -0.00000000000E+00 -0.21733145242E+03  0.21733145242E+03  0.00000000000E+00 0.  1.
         25    2    1    2    0    0  0.19002420203E+02  0.97822683667E+02 -0.63353462628E+02  0.17202144750E+03  0.12508935910E+03 0.  0.
          5    1    3    3  502    0  0.23953259196E+02  0.12641785314E+03 -0.61423742967E+02  0.14263793611E+03  0.41800000000E+01 0. -1.
         -5    1    3    3    0  502 -0.49508389925E+01 -0.28595169470E+02 -0.19297196606E+01  0.29383511392E+02  0.41800000000E+01 0. -1.
        -11    1    1    2    0    0 -0.27050934001E+02 -0.24141088701E+02 -0.61733687850E+02  0.71593249748E+02  0.00000000000E+00 0.  1.
         11    1    1    2    0    0  0.80485137973E+01 -0.73681594965E+02  0.86634069030E+01  0.74624464019E+02  0.00000000000E+00 0. -1.
</event>
<event>
 7    1  0.2420569E-009  0.1109424E+03  0.7561462E-02  0.1258835E+00
          1   -1    0    0  501    0  0.00000000000E+00  0.00000000000E+00  0.17471934993E+03  0.17471934993E+03  0.00000000000E+00 0. -1.
         -1   -1    0    0    0  501 -0.00000000000E+00 -0.00000000000E+00 -0.84604556234E+02  0.84604556234E+02  0.00000000000E+00 0.  1.
         25    2    1    2    0    0  0.28177336213E+02  0.46006991017E+02  0.38498299488E+02  0.14156145550E+03  0.12508765375E+03 0.  0.
          5    1    3    3  502    0  0.46888351923E+01  0.86483312137E+02  0.11768909441E+02  0.87506160258E+02  0.41800000000E+01 0. -1.
         -5    1    3    3    0  502  0.23488501021E+02 -0.40476321120E+02  0.26729390046E+02  0.54055295244E+02  0.41800000000E+01 0. -1.
        -11    1    1    2    0    0 -0.39661103025E+02  0.11266323731E+01  0.56461701812E+02  0.69008667319E+02  0.00000000000E+00 0. -1.
         11    1    1    2    0    0  0.11483766812E+02 -0.47133623390E+02 -0.48452075992E+01  0.48753783348E+02  0.00000000000E+00 0.  1.
</event>
<event>
 7    1  0.2420569E-009  0.1271136E+03  0.7561462E-02  0.1231803E+00
         -1   -1    0    0    0  501 -0.00000000000E+00  0.00000000000E+00  0.38100701642E+02  0.38100701642E+02  0.00000000000E+00 0.  1.
          1   -1    0    0  501    0  0.00000000000E+00 -0.00000000000E+00 -0.53622252456E+03  0.53622252456E+03  0.00000000000E+00 0. -1.
         25    2    1    2    0    0 -0.35058546611E+01  0.91613578310E+02 -0.33129233747E+03  0.36579742424E+03  0.12509118260E+03 0.  0.
          5    1    3    3  502    0  0.17166707679E+02 -0.24302187217E+02 -0.30777005336E+02  0.43011493970E+02  0.41800000000E+01 0.  1.
         -5    1    3    3    0  502 -0.20672562340E+02  0.11591576553E+03 -0.30051533213E+03  0.32278593027E+03  0.41800000000E+01 0.  1.
        -11    1    1    2    0    0 -0.23020446882E+02 -0.21904000919E+02 -0.11072449085E+03  0.11519391956E+03  0.00000000000E+00 0. -1.
         11    1    1    2    0    0  0.26526301543E+02 -0.69709577391E+02 -0.56104994604E+02  0.93331882404E+02  0.00000000000E+00 0.  1.
</event>
<event>
 7    1  0.2420569E-009  0.1393289E+03  0.7561462E-02  0.1214235E+00
         -3   -1    0    0    0  501 -0.00000000000E+00  0.00000000000E+00  0.30583518724E+02  0.30583518724E+02  0.00000000000E+00 0.  1.
          3   -1    0    0  501    0  0.00000000000E+00 -0.00000000000E+00 -0.18275574436E+04  0.18275574436E+04  0.00000000000E+00 0. -1.
         25    2    1    2    0    0  0.99246998591E+02  0.80245753747E+02 -0.15828344488E+04  0.15928911414E+04  0.12509175965E+03 0.  0.
          5    1    3    3  502    0  0.10394184547E+03  0.59086009964E+02 -0.15405821378E+04  0.15452203272E+04  0.41800000000E+01 0. -1.
         -5    1    3    3    0  502 -0.46948468759E+01  0.21159743783E+02 -0.42252310993E+02  0.47670814220E+02  0.41800000000E+01 0. -1.
        -11    1    1    2    0    0 -0.47170615365E+01 -0.29080527124E+02 -0.11605431602E+03  0.11973525794E+03  0.00000000000E+00 0. -1.
         11    1    1    2    0    0 -0.94529937055E+02 -0.51165226623E+02 -0.98085160049E+02  0.14551456297E+03  0.00000000000E+00 0.  1.
</event>
<event>
 7    1  0.2420569E-009  0.1259809E+03  0.7561462E-02  0.1233544E+00
         -2   -1    0    0    0  501 -0.00000000000E+00  0.00000000000E+00  0.17550408215E+03  0.17550408215E+03  0.00000000000E+00 0.  1.
          2   -1    0    0  501    0  0.00000000000E+00 -0.00000000000E+00 -0.16557646391E+03  0.16557646391E+03  0.00000000000E+00 0. -1.
         25    2    1    2    0    0 -0.37017205282E+02  0.81775137041E+02  0.10099890904E+03  0.18413305055E+03  0.12508698634E+03 0.  0.
          5    1    3    3  502    0 -0.78851536284E+02  0.50781547022E+02  0.35527537384E+02  0.10037932359E+03  0.41800000000E+01 0. -1.
         -5    1    3    3    0  502  0.41834331002E+02  0.30993590020E+02  0.65471371655E+02  0.83753726957E+02  0.41800000000E+01 0. -1.
        -11    1    1    2    0    0  0.24870673903E+02 -0.17783668549E+01  0.10527490537E+02  0.27065495859E+02  0.00000000000E+00 0.  1.
         11    1    1    2    0    0  0.12146531379E+02 -0.79996770186E+02 -0.10159878133E+03  0.12988199965E+03  0.00000000000E+00 0. -1.
</event>
<event>
 7    1  0.2420569E-009  0.1603413E+03  0.7561462E-02  0.1188312E+00
          4   -1    0    0  501    0  0.00000000000E+00  0.00000000000E+00  0.69203674069E+03  0.69203674069E+03  0.00000000000E+00 0.  1.
         -4   -1    0    0    0  501 -0.00000000000E+00 -0.00000000000E+00 -0.38015505116E+02  0.38015505116E+02  0.00000000000E+00 0. -1.
         25    2    1    2    0    0  0.34540412058E+02 -0.10396162752E+03  0.34908854526E+03  0.38666743254E+03  0.12509129023E+03 0.  0.
          5    1    3    3  502    0 -0.23935549482E+02 -0.10376509181E+03  0.20346077260E+03  0.22968209159E+03  0.41800000000E+01 0. -1.
         -5    1    3    3    0  502  0.58475961539E+02 -0.19653571382E+00  0.14562777265E+03  0.15698534095E+03  0.41800000000E+01 0. -1.
        -11    1    1    2    0    0 -0.75075913954E+02  0.66699028758E+02  0.16701317702E+03  0.19488087282E+03  0.00000000000E+00 0. -1.
         11    1    1    2    0    0  0.40535501897E+02  0.37262598767E+02  0.13791951330E+03  0.14850394045E+03  0.00000000000E+00 0.  1.
</event>
<event>
 7    1  0.2420569E-009  0.9499302E+02  0.7561462E-02  0.1291192E+00
          1   -1    0    0  501    0  0.00000000000E+00  0.00000000000E+00  0.12112954101E+04  0.12112954101E+04  0.00000000000E+00 0. -1.
         -1   -1    0    0    0  501 -0.00000000000E+00 -0.00000000000E+00 -0.12320830186E+02  0.12320830186E+02  0.00000000000E+00 0.  1.
         25    2    1    2    0    0  0.34022565799E+02 -0.41536538532E+01  0.89353838262E+03  0.90290224195E+03  0.12508728749E+03 0.  0.
          5    1    3    3  502    0  0.62415710548E+02 -0.16691050566E+02  0.82512463370E+03  0.82766082765E+03  0.41800000000E+01 0. -1.
         -5    1    3    3    0  502 -0.28393144749E+02  0.12537396713E+02  0.68413748915E+02  0.75241414299E+02  0.41800000000E+01 0. -1.
        -11    1    1    2    0    0  0.13191597606E+02 -0.31898775583E+02  0.72139683924E+02  0.79973021250E+02  0.00000000000E+00 0. -1.
         11    1    1    2    0    0 -0.47214163405E+02  0.36052429437E+02  0.23329651334E+03  0.24074097705E+03  0.00000000000E+00 0.  1.
</event>
<event>
 7    1  0.2420569E-009  0.9606000E+02  0.7561462E-02  0.1288806E+00
          1   -1    0    0  501    0  0.00000000000E+00  0.00000000000E+00  0.62259647967E+03  0.62259647967E+03  0.00000000000E+00 0. -1.
         -1   -1    0    0    0  501 -0.00000000000E+00 -0.00000000000E+00 -0.20042518658E+02  0.20042518658E+02  0.00000000000E+00 0.  1.
         25    2    1    2    0    0  0.33005592847E+01 -0.54446670310E+01  0.40818557666E+03  0.42697123670E+03  0.12509370043E+03 0.  0.
          5    1    3    3  502    0  0.66474465343E+01  0.50288197782E+02  0.85806986517E+02  0.99766741536E+02  0.41800000000E+01 0.  1.
         -5    1    3    3    0  502 -0.33468872496E+01 -0.55732864813E+02  0.32237859014E+03  0.32720449517E+03  0.41800000000E+01 0.  1.
        -11    1    1    2    0    0 -0.29320944574E+02  0.35129613908E+02  0.14726697398E+03  0.15421209158E+03  0.00000000000E+00 0. -1.
         11    1    1    2    0    0  0.26020385289E+02 -0.29684946877E+02  0.47101410370E+02  0.61455670043E+02  0.00000000000E+00 0.  1.
</event>
<event>
 7    1  0.2420569E-009  0.1853205E+03  0.7561462E-02  0.1162751E+00
          2   -1    0    0  501    0  0.00000000000E+00  0.00000000000E+00  0.38725392181E+03  0.38725392181E+03  0.00000000000E+00 0. -1.
         -2   -1    0    0    0  501 -0.00000000000E+00 -0.00000000000E+00 -0.10698903092E+03  0.10698903092E+03  0.00000000000E+00 0.  1.
         25    2    1    2    0    0  0.14581029908E+03 -0.49701655799E+02  0.55128119949E+02  0.20595470525E+03  0.12508930050E+03 0.  0.
          5    1    3    3  502    0 -0.17136830376E+02  0.91262153907E+01  0.21794874938E+02  0.29486399174E+02  0.41800000000E+01 0. -1.
         -5    1    3    3    0  502  0.16294712946E+03 -0.58827871190E+02  0.33333245011E+02  0.17646830608E+03  0.41800000000E+01 0. -1.
        -11    1    1    2    0    0 -0.12769209775E+03  0.33652486836E+01  0.13872347012E+03  0.18857570864E+03  0.00000000000E+00 0. -1.
         11    1    1    2    0    0 -0.18118201328E+02  0.46336407116E+02  0.86413300821E+02  0.99712538843E+02  0.00000000000E+00 0.  1.
</event>
<event>
 7    1  0.2420569E-009  0.1011858E+03  0.7561462E-02  0.1277822E+00
         -3   -1    0    0    0  501 -0.00000000000E+00  0.00000000000E+00  0.45279081803E+02  0.45279081803E+02  0.00000000000E+00 0.  1.
          3   -1    0    0  501    0  0.00000000000E+00 -0.00000000000E+00 -0.28073677570E+03  0.28073677570E+03  0.00000000000E+00 0. -1.
         25    2    1    2    0    0  0.12656316813E+02  0.23527981912E+02 -0.15148559222E+03  0.19826501969E+03  0.12508950833E+03 0.  0.
          5    1    3    3  502    0  0.68455769432E+02  0.42595130904E+01 -0.82891348888E+02  0.10766979122E+03  0.41800000000E+01 0. -1.
         -5    1    3    3    0  502 -0.55799452619E+02  0.19268468822E+02 -0.68594243335E+02  0.90595228473E+02  0.41800000000E+01 0. -1.
        -11    1    1    2    0    0  0.26137703647E+02  0.46236671168E+01  0.46966321455E+01  0.26955819466E+02  0.00000000000E+00 0.  1.
         11    1    1    2    0    0 -0.38794020461E+02 -0.28151649029E+02 -0.88668733819E+02  0.10079501835E+03  0.00000000000E+00 0. -1.
</event>
<event>
 7    1  0.2420569E-009  0.1072610E+03  0.7561462E-02  0.1265728E+00
          2   -1    0    0  501    0  0.00000000000E+00  0.00000000000E+00  0.91855939366E+02  0.91855939366E+02  0.00000000000E+00 0. -1.
         -2   -1    0    0    0  501 -0.00000000000E+00 -0.00000000000E+00 -0.17025918841E+03  0.17025918841E+03  0.00000000000E+00 0.  1.
         25    2    1    2    0    0  0.18529284709E+02  0.42359000750E+02 -0.87398944353E+02  0.15944847041E+03  0.12509044690E+03 0.  0.
          5    1    3    3  502    0 -0.23601105533E+02  0.74592256999E+02 -0.64651401086E+02  0.10157899906E+03  0.41800000000E+01 0.  1.
         -5    1    3    3    0  502  0.42130390242E+02 -0.32233256250E+02 -0.22747543267E+02  0.57869471356E+02  0.41800000000E+01 0.  1.
        -11    1    1    2    0    0 -0.19209756035E+02  0.15755069852E+02 -0.25074584556E+02  0.35298324941E+02  0.00000000000E+00 0.  1.
         11    1    1    2    0    0  0.68047132626E+00 -0.58114070602E+02  0.34070279866E+02  0.67368332422E+02  0.00000000000E+00 0. -1.
</event>
<event>
 7    1  0.2420569E-009  0.1218430E+03  0.7561462E-02  0.1240087E+00
          2   -1    0    0  501    0  0.00000000000E+00  0.00000000000E+00  0.78649069688E+02  0.78649069688E+02  0.00000000000E+00 0. -1.
         -2   -1    0    0    0  501 -0.00000000000E+00 -0.00000000000E+00 -0.29690240709E+03  0.29690240709E+03  0.00000000000E+00 0.  1.
         25    2    1    2    0    0 -0.97004289199E+02  0.74814658087E+01 -0.17441697182E+03  0.23565583166E+03  0.12508631613E+03 0.  0.
          5    1    3    3  502    0 -0.88430075031E+02  0.24049411158E+02 -0.40326765865E+02  0.10020964421E+03  0.41800000000E+01 0. -1.
         -5    1    3    3    0  502 -0.85742141676E+01 -0.16567945349E+02 -0.13409020596E+03  0.13544618745E+03  0.41800000000E+01 0. -1.
        -11    1    1    2    0    0  0.17346777934E+02 -0.42433801500E+02 -0.16261530028E+02  0.48641294939E+02  0.00000000000E+00 0. -1.
         11    1    1    2    0    0  0.79657511265E+02  0.34952335692E+02 -0.27574835554E+02  0.91254350182E+02  0.00000000000E+00 0.  1.
</event>
<event>
 7    1  0.2420569E-009  0.1313031E+03  0.7561462E-02  0.1225535E+00
          1   -1    0    0  501    0  0.00000000000E+00  0.00000000000E+00  0.18233491037E+03  0.18233491037E+03  0.00000000000E+00 0. -1.
         -1   -1    0    0    0  501 -0.00000000000E+00 -0.00000000000E+00 -0.11677918074E+03  0.11677918074E+03  0.00000000000E+00 0.  1.
         25    2    1    2    0    0 -0.92091566709E+02  0.66699317319E+01  0.18963600531E+02  0.15662932819E+03  0.12509110142E+03 0.  0.
          5    1    3    3  502    0 -0.95665365283E+02 -0.43332813458E+02  0.14986611683E+02  0.10616810146E+03  0.41800000000E+01 0.  1.
         -5    1    3    3    0  502  0.35737985743E+01  0.50002745190E+02  0.39769888474E+01  0.50461226730E+02  0.41800000000E+01 0.  1.
        -11    1    1    2    0    0  0.76365368799E+01 -0.20263642747E+02 -0.23454647093E+02  0.31922599881E+02  0.00000000000E+00 0.  1.
         11    1    1    2    0    0  0.84455029829E+02  0.13593711015E+02  0.70046776196E+02  0.11056216305E+03  0.00000000000E+00 0. -1.
</event>
<event>
 7    1  0.2420569E-009  0.1127581E+03  0.7561462E-02  0.1255546E+00
         -2   -1    0    0    0  501 -0.00000000000E+00  0.00000000000E+00  0.20694969835E+03  0.20694969835E+03  0.00000000000E+00 0.  1.
          2   -1    0    0  501    0  0.00000000000E+00 -0.00000000000E+00 -0.10735031191E+03  0.10735031191E+03  0.00000000000E+00 0. -1.
         25    2    1    2    0    0  0.89857549225E+01 -0.10080902061E+03  0.41338464257E+02  0.16613287660E+03  0.12509221251E+03 0.  0.
          5    1    3    3  502    0 -0.18757540056E+02 -0.29191887033E+02 -0.40719839835E+02  0.53661805166E+02  0.41800000000E+01 0. -1.
         -5    1    3    3    0  502  0.27743294979E+02 -0.71617133576E+02  0.82058304092E+02  0.11247107143E+03  0.41800000000E+01 0. -1.
        -11    1    1    2    0    0 -0.25141698662E+02  0.22653818138E+02  0.59385558152E+02  0.68351627668E+02  0.00000000000E+00 0.  1.
         11    1    1    2    0    0  0.16155943740E+02  0.78155202470E+02 -0.11246359647E+01  0.79815505995E+02  0.00000000000E+00 0. -1.
</event>
<event>
 7    1  0.2420569E-009  0.8085013E+02  0.7561462E-02  0.1326656E+00
         -3   -1    0    0    0  501 -0.00000000000E+00  0.00000000000E+00  0.51681660702E+02  0.51681660702E+02  0.00000000000E+00 0.  1.
          3   -1    0    0  501    0  0.00000000000E+00 -0.00000000000E+00 -0.28826712330E+03  0.28826712330E+03  0.00000000000E+00 0. -1.
         25    2    1    2    0    0 -0.30555440039E+02  0.48815960609E+02 -0.13860435143E+03  0.19538462210E+03  0.12508937362E+03 0.  0.
          5    1    3    3  502    0 -0.44384744663E+02  0.34781641356E+02 -0.12465016832E+01  0.56557884514E+02  0.41800000000E+01 0.  1.
         -5    1    3    3    0  502  0.13829304624E+02  0.14034319252E+02 -0.13735784974E+03  0.13882673759E+03  0.41800000000E+01 0.  1.
        -11    1    1    2    0    0  0.10230601074E+02 -0.60642409382E+02 -0.22469047221E+02  0.65475377792E+02  0.00000000000E+00 0.  1.
         11    1    1    2    0    0  0.20324838965E+02  0.11826448773E+02 -0.75512063952E+02  0.79088784109E+02  0.00000000000E+00 0. -1.
</event>
<event>
 7    1  0.2420569E-009  0.1049415E+03  0.7561462E-02  0.1270235E+00
          1   -1    0    0  501    0  0.00000000000E+00  0.00000000000E+00  0.14528093689E+03  0.14528093689E+03  0.00000000000E+00 0. -1.
         -1   -1    0    0    0  501 -0.00000000000E+00 -0.00000000000E+00 -0.13475166137E+03  0.13475166137E+03  0.00000000000E+00 0.  1.
         25    2    1    2    0    0  0.43712391492E+02 -0.63596411451E+02 -0.25965706148E+01  0.14700063535E+03  0.12508864015E+03 0.  0.
          5    1    3    3  502    0  0.10154109001E+02 -0.16603550311E+02 -0.61359650814E+02  0.64507851930E+02  0.41800000000E+01 0.  1.
         -5    1    3    3    0  502  0.33558282490E+02 -0.46992861140E+02  0.58763080200E+02  0.82492783420E+02  0.41800000000E+01 0.  1.
        -11    1    1    2    0    0 -0.71520926178E+02  0.10695728796E+02  0.11654364604E+02  0.73249339315E+02  0.00000000000E+00 0.  1.
         11    1    1    2    0    0  0.27808534686E+02  0.52900682656E+02  0.14714815325E+01  0.59782623602E+02  0.00000000000E+00 0. -1.
</event>
<event>
 7    1  0.2420569E-009  0.1012848E+03  0.7561462E-02  0.1277617E+00
         -1   -1    0    0    0  501 -0.00000000000E+00  0.00000000000E+00  0.29975434205E+03  0.29975434205E+03  0.00000000000E+00 0.  1.
          1   -1    0    0  501    0  0.00000000000E+00 -0.00000000000E+00 -0.10831766576E+03  0.10831766576E+03  0.00000000000E+00 0. -1.
         25    2    1    2    0    0 -0.44633011441E+02 -0.42491152789E+02 -0.47382158155E+02  0.14727663502E+03  0.12509090509E+03 0.  0.
          5    1    3    3  502    0 -0.29446119076E+02 -0.85920126714E+02 -0.43852166091E+02  0.10094467284E+03  0.41800000000E+01 0. -1.
         -5    1    3    3    0  502 -0.15186892365E+02  0.43428973924E+02 -0.35299920636E+01  0.46331962184E+02  0.41800000000E+01 0. -1.
        -11    1    1    2    0    0  0.44126235482E+02  0.30950706474E+02  0.24269718265E+03  0.24861012319E+03  0.00000000000E+00 0.  1.
         11    1    1    2    0    0  0.50677595945E+00  0.11540446316E+02 -0.38783481988E+01  0.12185249599E+02  0.00000000000E+00 0. -1.
</event>
<event>
 7    1  0.2420569E-009  0.7132267E+02  0.7561462E-02  0.1355652E+00
         -1   -1    0    0    0  501 -0.00000000000E+00  0.00000000000E+00  0.94917052935E+02  0.94917052935E+02  0.00000000000E+00 0.  1.
          1   -1    0    0  501    0  0.00000000000E+00 -0.00000000000E+00 -0.23613748535E+03  0.23613748535E+03  0.00000000000E+00 0. -1.
         25    2    1    2    0    0  0.96255680765E+01  0.13473961942E+02  0.35816000931E+02  0.13116722330E+03  0.12509138793E+03 0.  0.
          5    1    3    3  502    0  0.43076471392E+01  0.44487226103E+02  0.70861225742E+02  0.83883578988E+02  0.41800000000E+01 0. -1.
         -5    1    3    3    0  502  0.53179209372E+01 -0.31013264161E+02 -0.35045224810E+02  0.47283644307E+02  0.41800000000E+01 0. -1.
        -11    1    1    2    0    0  0.15597256901E+02 -0.31405564650E+02 -0.16149274411E+03  0.16525583292E+03  0.00000000000E+00 0. -1.
         11    1    1    2    0    0 -0.25222824977E+02  0.17931602708E+02 -0.15543689240E+02  0.34631482075E+02  0.00000000000E+00 0.  1.
</event>
<event>
 7    1  0.2420569E-009  0.1074210E+03  0.7561462E-02  0.1265422E+00
         -1   -1    0    0    0  501 -0.00000000000E+00  0.00000000000E+00  0.61386936897E+02  0.61386936897E+02  0.00000000000E+00 0.  1.
          1   -1    0    0  501    0  0.00000000000E+00 -0.00000000000E+00 -0.33614836554E+03  0.33614836554E+03  0.00000000000E+00 0. -1.
         25    2    1    2    0    0 -0.77846725641E+02  0.42993039590E+02 -0.11502532832E+03  0.19180063673E+03  0.12509254154E+03 0.  0.
          5    1    3    3  502    0 -0.74157094169E+02  0.55688370621E+02 -0.18971977746E+02  0.94751662664E+02  0.41800000000E+01 0. -1.
         -5    1    3    3    0  502 -0.36896314725E+01 -0.12695331031E+02 -0.96053350575E+02  0.97048974065E+02  0.41800000000E+01 0. -1.
        -11    1    1    2    0    0  0.88964815729E+00 -0.30100910532E+02 -0.25195119638E+01  0.30219269171E+02  0.00000000000E+00 0.  1.
         11    1    1    2    0    0  0.76957077484E+02 -0.12892129058E+02 -0.15721658836E+03  0.17551539654E+03  0.00000000000E+00 0. -1.
</event>
<event>
 7    1  0.2420569E-009  0.1125703E+03  0.7561462E-02  0.1255883E+00
         -2   -1    0    0    0  501 -0.00000000000E+00  0.00000000000E+00  0.29891028796E+03  0.29891028796E+03  0.00000000000E+00 0.  1.
          2   -1    0    0  501    0  0.00000000000E+00 -0.00000000000E+00 -0.67048340742E+02  0.67048340742E+02  0.00000000000E+00 0. -1.
         25    2    1    2    0    0 -0.77565476515E+02  0.26216739762E+02  0.83377390878E+02  0.17118090758E+03  0.12508954081E+03 0.  0.
          5    1    3    3  502    0 -0.59698025181E+02 -0.29418559094E+02 -0.30681159043E+01  0.66754711931E+02  0.41800000000E+01 0. -1.
         -5    1    3    3    0  502 -0.17867451334E+02  0.55635298856E+02  0.86445506782E+02  0.10442619565E+03  0.41800000000E+01 0. -1.
        -11    1    1    2    0    0  0.27296867333E+02 -0.39374416558E+02  0.12959719410E+02  0.49632831600E+02  0.00000000000E+00 0. -1.
         11    1    1    2    0    0  0.50268609183E+02  0.13157676796E+02  0.13552483693E+03  0.14514488952E+03  0.00000000000E+00 0.  1.
</event>
<event>
 7    1  0.2420569E-009  0.1217601E+03  0.7561462E-02  0.1240221E+00
         -1   -1    0    0    0  501 -0.00000000000E+00  0.00000000000E+00  0.39078542684E+02  0.39078542684E+02  0.00000000000E+00 0.  1.
          1   -1    0    0  501    0  0.00000000000E+00 -0.00000000000E+00 -0.38331973514E+03  0.38331973514E+03  0.00000000000E+00 0. -1.
         25    2    1    2    0    0  0.19266763851E+02 -0.54895090308E+02 -0.17523499516E+03  0.22302306562E+03  0.12508918875E+03 0.  0.
          5    1    3    3  502    0 -0.36514274234E+02 -0.70766551030E+02 -0.10482647520E+03  0.13170899464E+03  0.41800000000E+01 0. -1.
         -5    1    3    3    0  502  0.55781038085E+02  0.15871460722E+02 -0.70408519962E+02  0.91314070978E+02  0.41800000000E+01 0. -1.
        -11    1    1    2    0    0 -0.48202417941E+02  0.56715302493E+01 -0.72613835874E+02  0.87340760879E+02  0.00000000000E+00 0. -1.
         11    1    1    2    0    0  0.28935654090E+02  0.49223560059E+02 -0.96392361419E+02  0.11203445132E+03  0.00000000000E+00 0.  1.
</event>
<event>
 7    1  0.2420569E-009  0.1158015E+03  0.7561462E-02  0.1250188E+00
         -2   -1    0    0    0  501 -0.00000000000E+00  0.00000000000E+00  0.98072580696E+02  0.98072580696E+02  0.00000000000E+00 0.  1.
          2   -1    0    0  501    0  0.00000000000E+00 -0.00000000000E+00 -0.13984612576E+03  0.13984612576E+03  0.00000000000E+00 0. -1.
         25    2    1    2    0    0 -0.53868405399E+02 -0.40240213476E+02 -0.95701262397E+01  0.14233816541E+03  0.12508991221E+03 0.  0.
          5    1    3    3  502    0 -0.51082961851E+02  0.37647866380E+02  0.81739238491E+00  0.63600089345E+02  0.41800000000E+01 0. -1.
         -5    1    3    3    0  502 -0.27854435478E+01 -0.77888079855E+02 -0.10387518625E+02  0.78738076065E+02  0.41800000000E+01 0. -1.
        -11    1    1    2    0    0  0.21871403274E+02 -0.14719248144E+02 -0.82506671736E+01  0.27624048507E+02  0.00000000000E+00 0.  1.
         11    1    1    2    0    0  0.31997002126E+02  0.54959461620E+02 -0.23952751650E+02  0.67956492539E+02  0.00000000000E+00 0. -1.
</event>
<event>
 7    1  0.2420569E-009  0.5416488E+02  0.7561462E-02  0.1424090E+00
         -4   -1    0    0    0  501 -0.00000000000E+00  0.00000000000E+00  0.12819235319E+03  0.12819235319E+03  0.00000000000E+00 0.  1.
          4   -1    0    0  501    0  0.00000000000E+00 -0.00000000000E+00 -0.10671277137E+03  0.10671277137E+03  0.00000000000E+00 0. -1.
         25    2    1    2    0    0 -0.31972533946E+02 -0.18571652578E+02 -0.17274806052E+02  0.13158079240E+03  0.12509171355E+03 0.  0.
          5    1    3    3  502    0  0.11306307641E+02 -0.17997553920E+02 -0.64110550312E+02  0.67671113489E+02  0.41800000000E+01 0. -1.
         -5    1    3    3    0  502 -0.43278841587E+02 -0.57409865784E+00  0.46835744260E+02  0.63909678913E+02  0.41800000000E+01 0. -1.
        -11    1    1    2    0    0  0.21162245371E+02 -0.60462614396E+00  0.65411801518E+02  0.68752527079E+02  0.00000000000E+00 0.  1.
         11    1    1    2    0    0  0.10810288575E+02  0.19176278722E+02 -0.26657413644E+02  0.34571805086E+02  0.00000000000E+00 0. -1.
</event>
<event>
 7    1  0.2420569E-009  0.1320503E+03  0.7561462E-02  0.1224445E+00
          1   -1    0    0  501    0  0.00000000000E+00  0.00000000000E+00  0.83682112378E+03  0.83682112378E+03  0.00000000000E+00 0. -1.
         -1   -1    0    0    0  501 -0.00000000000E+00 -0.00000000000E+00 -0.26325770592E+02  0.26325770592E+02  0.00000000000E+00 0.  1.
         25    2    1    2    0    0 -0.93418286748E+02 -0.49022197810E+00  0.55299676922E+03  0.57461389291E+03  0.12509389487E+03 0.  0.
          5    1    3    3  502    0 -0.92017108375E+01 -0.40982629287E+02  0.63429239323E+02  0.76190473071E+02  0.41800000000E+01 0.  1.
         -5    1    3    3    0  502 -0.84216575911E+02  0.40492407309E+02  0.48956752990E+03  0.49842341983E+03  0.41800000000E+01 0.  1.
        -11    1    1    2    0    0  0.10239126954E+03 -0.21479252111E+02  0.22648969432E+03  0.24948529412E+03  0.00000000000E+00 0.  1.
         11    1    1    2    0    0 -0.89729827944E+01  0.21969474089E+02  0.31008889652E+02  0.39047707352E+02  0.00000000000E+00 0. -1.
</event>
<event>
 7    1  0.2909230E-009  0.7722070E+02  0.7561462E-02  0.1337129E+00
         -1   -1    0    0    0  501 -0.00000000000E+00  0.00000000000E+00  0.87844047945E+02  0.87844047945E+02  0.00000000000E+00 0.  1.
          1   -1    0    0  501    0  0.00000000000E+00 -0.00000000000E+00 -0.17038499421E+03  0.17038499421E+03  0.00000000000E+00 0. -1.
         25    2    1    2    0    0 -0.39298988428E+02  0.78237252857E+01 -0.47735378017E+01  0.13143580989E+03  0.12508782631E+03 0.  0.
          5    1    3    3  502    0  0.11904384317E+01 -0.24255635727E+02 -0.54375169675E+02  0.59698278747E+02  0.41800000000E+01 0.  1.
         -5    1    3    3    0  502 -0.40489426860E+02  0.32079361012E+02  0.49601631873E+02  0.71737531145E+02  0.41800000000E+01 0.  1.
        -11    1    1    2    0    0  0.55702539568E+01 -0.34514672696E+02  0.32029902978E+01  0.35107684448E+02  0.00000000000E+00 0.  1.
         11    1    1    2    0    0  0.33728734471E+02  0.26690947410E+02 -0.80970398763E+02  0.91685547817E+02  0.00000000000E+00 0. -1.
</event>
<event>
 7    1  0.2477099E-009  0.1636171E+03  0.7561462E-02  0.1184673E+00
         -1   -1    0    0    0  501 -0.00000000000E+00  0.00000000000E+00  0.34719384041E+02  0.34719384041E+02  0.00000000000E+00 0.  1.
          1   -1    0    0  501    0  0.00000000000E+00 -0.00000000000E+00 -0.89583035898E+03  0.89583035898E+03  0.00000000000E+00 0. -1.
         25    2    1    2    0    0 -0.11181415901E+03 -0.81553007617E+02 -0.46233327781E+03  0.49854872007E+03  0.12508184242E+03 0.  0.
          5    1    3    3  502    0 -0.55073321914E+02 -0.88508587276E+02 -0.16124218407E+03  0.19205039737E+03  0.41800000000E+01 0.  1.
         -5    1    3    3    0  502 -0.56740837097E+02  0.69555796584E+01 -0.30109109375E+03  0.30649832270E+03  0.41800000000E+01 0.  1.
        -11    1    1    2    0    0  0.10535690059E+03  0.24496461990E+02 -0.27678562677E+03  0.29717071919E+03  0.00000000000E+00 0.  1.
         11    1    1    2    0    0  0.64572584202E+01  0.57056545628E+02 -0.12199207035E+03  0.13483030377E+03  0.00000000000E+00 0. -1.
</event>
<event>
 7    1  0.2420569E-009  0.1300165E+03  0.7561462E-02  0.1227431E+00
          2   -1    0    0  501    0  0.00000000000E+00  0.00000000000E+00  0.72358906608E+03  0.72358906608E+03  0.00000000000E+00 0. -1.
         -2   -1    0    0    0  501 -0.00000000000E+00 -0.00000000000E+00 -0.28055534415E+02  0.28055534415E+02  0.00000000000E+00 0.  1.
         25    2    1    2    0    0 -0.87052748440E+02 -0.14077073016E+02  0.44156236993E+03  0.46733420896E+03  0.12509033270E+03 0.  0.
          5    1    3    3  502    0  0.32395663895E+02  0.20499096674E+00  0.91858662924E+02  0.97493627559E+02  0.41800000000E+01 0. -1.
         -5    1    3    3    0  502 -0.11944841233E+03 -0.14282063982E+02  0.34970370700E+03  0.36984058140E+03  0.41800000000E+01 0. -1.
        -11    1    1    2    0    0  0.64585836199E+02 -0.18718089227E+02  0.22576779880E+03  0.23556908982E+03  0.00000000000E+00 0. -1.
         11    1    1    2    0    0  0.22466912241E+02  0.32795162243E+02  0.28203362942E+02  0.48741301721E+02  0.00000000000E+00 0.  1.
</event>
<event>
 7    1  0.2420569E-009  0.1307349E+03  0.7561462E-02  0.1226369E+00
          2   -1    0    0  501    0  0.00000000000E+00  0.00000000000E+00  0.34086634705E+03  0.34086634705E+03  0.00000000000E+00 0. -1.
         -2   -1    0    0    0  501 -0.00000000000E+00 -0.00000000000E+00 -0.66872168063E+02  0.66872168063E+02  0.00000000000E+00 0.  1.
         25    2    1    2    0    0 -0.38041950073E+02  0.71096492285E+02  0.23322229597E+03  0.27666393657E+03  0.12509353813E+03 0.  0.
          5    1    3    3  502    0  0.32970803024E+02  0.59851315016E+02  0.15965189456E+03  0.17371083328E+03  0.41800000000E+01 0. -1.
         -5    1    3    3    0  502 -0.71012753097E+02  0.11245177269E+02  0.73570401407E+02  0.10295310329E+03  0.41800000000E+01 0. -1.
        -11    1    1    2    0    0 -0.20313059468E+02 -0.57626277071E+02  0.36178671104E+02  0.71009185581E+02  0.00000000000E+00 0. -1.
         11    1    1    2    0    0  0.58355009541E+02 -0.13470215214E+02  0.45932119186E+01  0.60065392966E+02  0.00000000000E+00 0.  1.
</event>
<event>
 7    1  0.2420569E-009  0.8390390E+02  0.7561462E-02  0.1318324E+00
          2   -1    0    0  501    0  0.00000000000E+00  0.00000000000E+00  0.41877509418E+03  0.41877509418E+03  0.00000000000E+00 0. -1.
         -2   -1    0    0    0  501 -0.00000000000E+00 -0.00000000000E+00 -0.34294834450E+02  0.34294834450E+02  0.00000000000E+00 0.  1.
         25    2    1    2    0    0  0.23004648356E+02  0.17156730229E+02  0.13567641656E+03  0.18675442763E+03  0.12508220893E+03 0.  0.
          5    1    3    3  502    0 -0.24496024064E+02  0.25829856555E+01  0.13458139627E+03  0.13688079351E+03  0.41800000000E+01 0. -1.
         -5    1    3    3    0  502  0.47500672420E+02  0.14573744573E+02  0.10950202936E+01  0.49873634123E+02  0.41800000000E+01 0. -1.
        -11    1    1    2    0    0  0.25137283360E+02  0.20020972791E+02  0.11362624871E+03  0.11808321964E+03  0.00000000000E+00 0. -1.
         11    1    1    2    0    0 -0.48141931716E+02 -0.37177703020E+02  0.13517759446E+03  0.14823228135E+03  0.00000000000E+00 0.  1.
</event>
<event>
 7    1  0.2420569E-009  0.1779236E+03  0.7561462E-02  0.1169828E+00
          3   -1    0    0  501    0  0.00000000000E+00  0.00000000000E+00  0.15152893773E+04  0.15152893773E+04  0.00000000000E+00 0. -1.
         -3   -1    0    0    0  501 -0.00000000000E+00 -0.00000000000E+00 -0.29577522123E+02  0.29577522123E+02  0.00000000000E+00 0.  1.
         25    2    1    2    0    0 -0.10336488190E+03  0.12116268147E+03  0.10775438809E+04  0.10964100693E+04  0.12509808335E+03 0.  0.
          5    1    3    3  502    0 -0.11395451381E+03  0.57126951860E+02  0.85823594579E+03  0.86766095389E+03  0.41800000000E+01 0.  1.
         -5    1    3    3    0  502  0.10589631915E+02  0.64035729613E+02  0.21930793514E+03  0.22874911538E+03  0.41800000000E+01 0.  1.
        -11    1    1    2    0    0  0.28590783865E+02 -0.60734788111E+02  0.70404759647E+02  0.97277837095E+02  0.00000000000E+00 0.  1.
         11    1    1    2    0    0  0.74774098035E+02 -0.60427893361E+02  0.33776321457E+03  0.35117899304E+03  0.00000000000E+00 0. -1.
</event>
<event>
 7    1  0.2420569E-009  0.9620426E+02  0.7561462E-02  0.1288487E+00
         -2   -1    0    0    0  501 -0.00000000000E+00  0.00000000000E+00  0.17873781546E+02  0.17873781546E+02  0.00000000000E+00 0.  1.
          2   -1    0    0  501    0  0.00000000000E+00 -0.00000000000E+00 -0.80728438512E+03  0.80728438512E+03  0.00000000000E+00 0. -1.
         25    2    1    2    0    0 -0.31162063258E+02  0.36542708912E+02 -0.48125560797E+03  0.49956114223E+03  0.12509168986E+03 0.  0.
          5    1    3    3  502    0  0.92265905912E+01  0.46426958184E+02 -0.61446413251E+02  0.77677065609E+02  0.41800000000E+01 0. -1.
         -5    1    3    3    0  502 -0.40388653850E+02 -0.98842492715E+01 -0.41980919471E+03  0.42188407663E+03  0.41800000000E+01 0. -1.
        -11    1    1    2    0    0  0.55675740258E+02 -0.50262540381E+02 -0.19294938111E+03  0.20701588029E+03  0.00000000000E+00 0.  1.
         11    1    1    2    0    0 -0.24513676999E+02  0.13719831469E+02 -0.11520561450E+03  0.11858114415E+03  0.00000000000E+00 0. -1.
</event>
<event>
 7    1  0.2420569E-009  0.2954634E+03  0.7561462E-02  0.1087531E+00
         -2   -1    0    0    0  501 -0.00000000000E+00  0.00000000000E+00  0.46833338933E+02  0.46833338933E+02  0.00000000000E+00 0.  1.
          2   -1    0    0  501    0  0.00000000000E+00 -0.00000000000E+00 -0.20123888656E+04  0.20123888656E+04  0.00000000000E+00 0. -1.
         25    2    1    2    0    0  0.15620632486E+03  0.23628692126E+03 -0.83639615646E+03  0.89187340494E+03  0.12509082625E+03 0.  0.
          5    1    3    3  502    0  0.11214025828E+03  0.67271865045E+02 -0.43124857680E+03  0.45065923794E+03  0.41800000000E+01 0.  1.
         -5    1    3    3    0  502  0.44066066581E+02  0.16901505622E+03 -0.40514757966E+03  0.44121416700E+03  0.41800000000E+01 0.  1.
        -11    1    1    2    0    0 -0.83916015727E+02 -0.95631308130E+02 -0.35265036072E+03  0.37489934876E+03  0.00000000000E+00 0. -1.
         11    1    1    2    0    0 -0.72290309132E+02 -0.14065561313E+03 -0.77650900946E+03  0.79244945080E+03  0.00000000000E+00 0.  1.
</event>
<event>
 7    1  0.2420569E-009  0.9858288E+02  0.7561462E-02  0.1283304E+00
         -2   -1    0    0    0  501 -0.00000000000E+00  0.00000000000E+00  0.12792233753E+03  0.12792233753E+03  0.00000000000E+00 0.  1.
          2   -1    0    0  501    0  0.00000000000E+00 -0.00000000000E+00 -0.14160973471E+03  0.14160973471E+03  0.00000000000E+00 0. -1.
         25    2    1    2    0    0 -0.56236986553E+01  0.82231192409E+02  0.15104931185E+00  0.14981011243E+03  0.12509776968E+03 0.  0.
          5    1    3    3  502    0  0.53425874877E+01  0.90273034242E+02  0.46184773552E+02  0.10162809484E+03  0.41800000000E+01 0.  1.
         -5    1    3    3    0  502 -0.10966286143E+02 -0.80418418329E+01 -0.46033724240E+02  0.48182017592E+02  0.41800000000E+01 0.  1.
        -11    1    1    2    0    0 -0.15827197089E+02 -0.57666479077E+02  0.28529512732E+02  0.66255988964E+02  0.00000000000E+00 0.  1.
         11    1    1    2    0    0  0.21450895745E+02 -0.24564713332E+02 -0.42367959221E+02  0.53465970840E+02  0.00000000000E+00 0. -1.
</event>
<event>
 7    1  0.2420569E-009  0.9775508E+02  0.7561462E-02  0.1285089E+00
         -2   -1    0    0    0  501 -0.00000000000E+00  0.00000000000E+00  0.17612996385E+03  0.17612996385E+03  0.00000000000E+00 0.  1.
          2   -1    0    0  501    0  0.00000000000E+00 -0.00000000000E+00 -0.79039763087E+02  0.79039763087E+02  0.00000000000E+00 0. -1.
         25    2    1    2    0    0 -0.46698988065E+02 -0.27549130128E+02  0.54554566582E+02  0.14684527905E+03  0.12509030813E+03 0.  0.
          5    1    3    3  502    0 -0.71444818039E+02  0.26380821860E+02  0.37322783358E+02  0.84916266665E+02  0.41800000000E+01 0.  1.
         -5    1    3    3    0  502  0.24745829974E+02 -0.53929951988E+02  0.17231783224E+02  0.61929012390E+02  0.41800000000E+01 0.  1.
        -11    1    1    2    0    0  0.32708271808E+02  0.31295788257E+02 -0.16008017878E+02  0.48015768699E+02  0.00000000000E+00 0. -1.
         11    1    1    2    0    0  0.13990716257E+02 -0.37466581293E+01  0.58543652059E+02  0.60308679185E+02  0.00000000000E+00 0.  1.
</event>
<event>
 7    1  0.2420569E-009  0.1281107E+03  0.7561462E-02  0.1230286E+00
         -1   -1    0    0    0  501 -0.00000000000E+00  0.00000000000E+00  0.30204259292E+02  0.30204259292E+02  0.00000000000E+00 0. -1.
          1   -1    0    0  501    0  0.00000000000E+00 -0.00000000000E+00 -0.63105972028E+03  0.63105972028E+03  0.00000000000E+00 0.  1.
         25    2    1    2    0    0 -0.73920757157E+02  0.32881333460E+02 -0.27534911911E+03  0.31306637952E+03  0.12509180694E+03 0.  0.
          5    1    3    3  502    0 -0.80347701347E+01  0.68499787856E+02 -0.92740717159E+02  0.11565073059E+03  0.41800000000E+01 0. -1.
         -5    1    3    3    0  502 -0.65885987023E+02 -0.35618454396E+02 -0.18260840195E+03  0.19741564893E+03  0.41800000000E+01 0. -1.
        -11    1    1    2    0    0  0.70100448446E+02  0.84464508701E+01 -0.12614020677E+03  0.14455714154E+03  0.00000000000E+00 0. -1.
         11    1    1    2    0    0  0.38203087109E+01 -0.41327784330E+02 -0.19936613511E+03  0.20364045851E+03  0.00000000000E+00 0.  1.
</event>
<event>
 7    1  0.2420569E-009  0.2440050E+03  0.7561462E-02  0.1117153E+00
         -2   -1    0    0    0  501 -0.00000000000E+00  0.00000000000E+00  0.49691078880E+03  0.49691078880E+03  0.00000000000E+00 0.  1.
          2   -1    0    0  501    0  0.00000000000E+00 -0.00000000000E+00 -0.13298390673E+03  0.13298390673E+03  0.00000000000E+00 0. -1.
         25    2    1    2    0    0  0.17832558205E+03 -0.14757490972E+03  0.20988759633E+03  0.33656968797E+03  0.12509190449E+03 0.  0.
          5    1    3    3  502    0  0.16368210857E+03 -0.15114985640E+03  0.13603089598E+03  0.26107468054E+03  0.41800000000E+01 0.  1.
         -5    1    3    3    0  502  0.14643473486E+02  0.35749466816E+01  0.73856700358E+02  0.75495007433E+02  0.41800000000E+01 0.  1.
        -11    1    1    2    0    0 -0.77100301689E+02  0.85684716572E+01  0.51560073709E+02  0.93146746738E+02  0.00000000000E+00 0. -1.
         11    1    1    2    0    0 -0.10122528037E+03  0.13900643807E+03  0.10247921202E+03  0.20017826082E+03  0.00000000000E+00 0.  1.
</event>
<event>
 7    1  0.2420569E-009  0.9886263E+02  0.7561462E-02  0.1282706E+00
          1   -1    0    0  501    0  0.00000000000E+00  0.00000000000E+00  0.69577222172E+03  0.69577222172E+03  0.00000000000E+00 0. -1.
         -1   -1    0    0    0  501 -0.00000000000E+00 -0.00000000000E+00 -0.23846544081E+02  0.23846544081E+02  0.00000000000E+00 0.  1.
         25    2    1    2    0    0 -0.38463781296E+02 -0.56705195902E+02  0.40044339121E+03  0.42508516150E+03  0.12509014050E+03 0.  0.
          5    1    3    3  502    0 -0.45475564798E+02  0.15951495858E+02  0.28030114665E+03  0.28444451555E+03  0.41800000000E+01 0.  1.
         -5    1    3    3    0  502  0.70117835019E+01 -0.72656691760E+02  0.12014224456E+03  0.14064064595E+03  0.41800000000E+01 0.  1.
        -11    1    1    2    0    0 -0.59307035041E+01  0.11149488246E+02 -0.28306768905E+01  0.12942065672E+02  0.00000000000E+00 0.  1.
         11    1    1    2    0    0  0.44394484800E+02  0.45555707656E+02  0.27431296331E+03  0.28159153862E+03  0.00000000000E+00 0. -1.
</event>
<event>
 7    1  0.2420569E-009  0.1645346E+03  0.7561462E-02  0.1183670E+00
          2   -1    0    0  501    0  0.00000000000E+00  0.00000000000E+00  0.10047642747E+04  0.10047642747E+04  0.00000000000E+00 0. -1.
         -2   -1    0    0    0  501 -0.00000000000E+00 -0.00000000000E+00 -0.31562344927E+02  0.31562344927E+02  0.00000000000E+00 0.  1.
         25    2    1    2    0    0 -0.13105706559E+03  0.44329409686E+02  0.56431614119E+03  0.59434125988E+03  0.12509106678E+03 0.  0.
          5    1    3    3  502    0 -0.24992380840E+02  0.57958292761E+02  0.33962775697E+03  0.34546818740E+03  0.41800000000E+01 0. -1.
         -5    1    3    3    0  502 -0.10606468475E+03 -0.13628883075E+02  0.22468838422E+03  0.24887307248E+03  0.41800000000E+01 0. -1.
        -11    1    1    2    0    0  0.97865177757E+02 -0.66997739234E+02  0.35803466316E+03  0.37716721770E+03  0.00000000000E+00 0. -1.
         11    1    1    2    0    0  0.33191887832E+02  0.22668329548E+02  0.50851125440E+02  0.64818142065E+02  0.00000000000E+00 0.  1.
</event>
<event>
 7    1  0.2420569E-009  0.1245652E+03  0.7561462E-02  0.1235750E+00
         -1   -1    0    0    0  501 -0.00000000000E+00  0.00000000000E+00  0.13900794739E+03  0.13900794739E+03  0.00000000000E+00 0.  1.
          1   -1    0    0  501    0  0.00000000000E+00 -0.00000000000E+00 -0.11469629288E+03  0.11469629288E+03  0.00000000000E+00 0. -1.
         25    2    1    2    0    0  0.48008475019E+02 -0.41199889664E+02  0.34835863043E+00  0.14017736864E+03  0.12508928309E+03 0.  0.
          5    1    3    3  502    0  0.59509074837E+02  0.29924979439E+02  0.95608669976E+01  0.67421932338E+02  0.41800000000E+01 0. -1.
         -5    1    3    3    0  502 -0.11500599818E+02 -0.71124869103E+02 -0.92125083672E+01  0.72755436302E+02  0.41800000000E+01 0. -1.
        -11    1    1    2    0    0 -0.62525147814E+02 -0.40916228078E+01  0.70779483288E+01  0.63057377355E+02  0.00000000000E+00 0. -1.
         11    1    1    2    0    0  0.14516672795E+02  0.45291512472E+02  0.16885347548E+02  0.50469494280E+02  0.00000000000E+00 0.  1.
</event>
<event>
 7    1  0.2420569E-009  0.1008119E+03  0.7561462E-02  0.1278598E+00
         -1   -1    0    0    0  501 -0.00000000000E+00  0.00000000000E+00  0.40618916182E+03  0.40618916182E+03  0.00000000000E+00 0.  1.
          1   -1    0    0  501    0  0.00000000000E+00 -0.00000000000E+00 -0.40174328073E+02  0.40174328073E+02  0.00000000000E+00 0. -1.
         25    2    1    2    0    0 -0.50922597227E+02 -0.28040471432E+02  0.26171359107E+03  0.29583962062E+03  0.12509076079E+03 0.  0.
          5    1    3    3  502    0 -0.66571582035E+02 -0.71881798806E+01  0.53095697223E+02  0.85557413053E+02  0.41800000000E+01 0.  1.
         -5    1    3    3    0  502  0.15648984808E+02 -0.20852291551E+02  0.20861789384E+03  0.21028220757E+03  0.41800000000E+01 0.  1.
        -11    1    1    2    0    0  0.44978504638E+02 -0.27205308064E+02  0.44270460506E+02  0.68724583227E+02  0.00000000000E+00 0.  1.
         11    1    1    2    0    0  0.59440925894E+01  0.55245779495E+02  0.60030782170E+02  0.81799286041E+02  0.00000000000E+00 0. -1.
</event>
<event>
 7    1  0.2420569E-009  0.9137061E+02  0.7561462E-02  0.1299566E+00
          1   -1    0    0  501    0  0.00000000000E+00  0.00000000000E+00  0.16264574185E+04  0.16264574185E+04  0.00000000000E+00 0. -1.
         -1   -1    0    0    0  501 -0.00000000000E+00 -0.00000000000E+00 -0.13536471863E+02  0.13536471863E+02  0.00000000000E+00 0.  1.
         25    2    1    2    0    0  0.53731857680E+02  0.15748996858E+02  0.13535203219E+04  0.13604412095E+04  0.12509148386E+03 0.  0.
          5    1    3    3  502    0  0.67763598021E+02 -0.97018331185E+01  0.12710697527E+04  0.12729186225E+04  0.41800000000E+01 0. -1.
         -5    1    3    3    0  502 -0.14031740340E+02  0.25450829976E+02  0.82450569150E+02  0.87522587008E+02  0.41800000000E+01 0. -1.
        -11    1    1    2    0    0 -0.28392116562E+02 -0.40443846276E+02  0.63393550435E+02  0.80377603978E+02  0.00000000000E+00 0.  1.
         11    1    1    2    0    0 -0.25339741118E+02  0.24694849418E+02  0.19600707434E+03  0.19917507690E+03  0.00000000000E+00 0. -1.
</event>
<event>
 7    1  0.2420569E-009  0.1359772E+03  0.7561462E-02  0.1218847E+00
          2   -1    0    0  501    0  0.00000000000E+00  0.00000000000E+00  0.91276244117E+03  0.91276244117E+03  0.00000000000E+00 0. -1.
         -2   -1    0    0    0  501 -0.00000000000E+00 -0.00000000000E+00 -0.21076600648E+02  0.21076600648E+02  0.00000000000E+00 0.  1.
         25    2    1    2    0    0  0.39076277595E+02 -0.73874742025E+02  0.42132010828E+03  0.44737319680E+03  0.12509080940E+03 0.  0.
          5    1    3    3  502    0  0.82827558280E+02 -0.58459387059E+02  0.32333624161E+03  0.33888302094E+03  0.41800000000E+01 0. -1.
         -5    1    3    3    0  502 -0.43751280685E+02 -0.15415354965E+02  0.97983866668E+02  0.10849017586E+03  0.41800000000E+01 0. -1.
        -11    1    1    2    0    0 -0.22786840449E+02 -0.18970120236E+02  0.12487049761E+03  0.12834230297E+03  0.00000000000E+00 0. -1.
         11    1    1    2    0    0 -0.16289437147E+02  0.92844862260E+02  0.34549523464E+03  0.35812354205E+03  0.00000000000E+00 0.  1.
</event>
<event>
 7    1  0.2420569E-009  0.1144242E+03  0.7561462E-02  0.1252590E+00
         -2   -1    0    0    0  501 -0.00000000000E+00  0.00000000000E+00  0.14827219680E+03  0.14827219680E+03  0.00000000000E+00 0.  1.
          2   -1    0    0  501    0  0.00000000000E+00 -0.00000000000E+00 -0.12569283972E+03  0.12569283972E+03  0.00000000000E+00 0. -1.
         25    2    1    2    0    0 -0.75270790468E+02 -0.30999866911E+02 -0.15999855017E+01  0.14925392043E+03  0.12508992430E+03 0.  0.
          5    1    3    3  502    0 -0.76617501729E+01 -0.47175141809E+02  0.44742514477E+02  0.65601535212E+02  0.41800000000E+01 0.  1.
         -5    1    3    3    0  502 -0.67609040295E+02  0.16175274898E+02 -0.46342499979E+02  0.83652385214E+02  0.41800000000E+01 0.  1.
        -11    1    1    2    0    0  0.36436255615E+02 -0.24198274547E+02  0.35430590920E+02  0.56289288388E+02  0.00000000000E+00 0.  1.
         11    1    1    2    0    0  0.38834534853E+02  0.55198141458E+02 -0.11251248334E+02  0.68421827707E+02  0.00000000000E+00 0. -1.
</event>
<event>
 7    1  0.2420569E-009  0.1271252E+03  0.7561462E-02  0.1231785E+00
         -2   -1    0    0    0  501 -0.00000000000E+00  0.00000000000E+00  0.69764720648E+02  0.69764720648E+02  0.00000000000E+00 0.  1.
          2   -1    0    0  501    0  0.00000000000E+00 -0.00000000000E+00 -0.42717229936E+03  0.42717229936E+03  0.00000000000E+00 0. -1.
         25    2    1    2    0    0  0.11427701746E+03  0.11745953469E+02 -0.29297108632E+03  0.33863837305E+03  0.12508671447E+03 0.  0.
          5    1    3    3  502    0  0.59207701110E+02 -0.53905976868E+01 -0.25222535893E+02  0.64716760820E+02  0.41800000000E+01 0.  1.
         -5    1    3    3    0  502  0.55069316350E+02  0.17136551156E+02 -0.26774855043E+03  0.27392161223E+03  0.41800000000E+01 0.  1.
        -11    1    1    2    0    0 -0.21520513206E+02 -0.35102022005E+02 -0.44433974561E+02  0.60577739581E+02  0.00000000000E+00 0.  1.
         11    1    1    2    0    0 -0.92756504254E+02  0.23356068536E+02 -0.20002517827E+02  0.97720907375E+02  0.00000000000E+00 0. -1.
</event>
<event>
 7    1  0.2420569E-009  0.1227456E+03  0.7561462E-02  0.1238635E+00
         -2   -1    0    0    0  501 -0.00000000000E+00  0.00000000000E+00  0.88849224172E+02  0.88849224172E+02  0.00000000000E+00 0.  1.
          2   -1    0    0  501    0  0.00000000000E+00 -0.00000000000E+00 -0.35333883454E+03  0.35333883454E+03  0.00000000000E+00 0. -1.
         25    2    1    2    0    0  0.22798635905E+02  0.75116743115E+02  0.40175016574E+01  0.14773658272E+03  0.12509058581E+03 0.  0.
          5    1    3    3  502    0  0.60351998921E+02 -0.17319251047E+00  0.16181005053E+02  0.62623406917E+02  0.41800000000E+01 0.  1.
         -5    1    3    3    0  502 -0.37553363016E+02  0.75289935625E+02 -0.12163503395E+02  0.85113175802E+02  0.41800000000E+01 0.  1.
        -11    1    1    2    0    0 -0.40528217551E+02 -0.25058146725E+02 -0.21041966810E+03  0.21574726848E+03  0.00000000000E+00 0. -1.
         11    1    1    2    0    0  0.17729581646E+02 -0.50058596389E+02 -0.58087443930E+02  0.78704207512E+02  0.00000000000E+00 0.  1.
</event>
<event>
 7    1  0.2420569E-009  0.9002849E+02  0.7561462E-02  0.1302783E+00
          1   -1    0    0  501    0  0.00000000000E+00  0.00000000000E+00  0.18204537008E+03  0.18204537008E+03  0.00000000000E+00 0. -1.
         -1   -1    0    0    0  501 -0.00000000000E+00 -0.00000000000E+00 -0.78855416135E+02  0.78855416135E+02  0.00000000000E+00 0.  1.
         25    2    1    2    0    0 -0.14698259332E+02 -0.23325305723E+02  0.12421479460E+02  0.12870030422E+03  0.12509742779E+03 0.  0.
          5    1    3    3  502    0  0.12506672017E+02 -0.70988974404E+02  0.14397503339E+02  0.73624804477E+02  0.41800000000E+01 0.  1.
         -5    1    3    3    0  502 -0.27204931349E+02  0.47663668681E+02 -0.19760238788E+01  0.55075499746E+02  0.41800000000E+01 0.  1.
        -11    1    1    2    0    0 -0.14876901541E+02 -0.42428627845E+00 -0.14211416354E+02  0.20578303455E+02  0.00000000000E+00 0.  1.
         11    1    1    2    0    0  0.29575160873E+02  0.23749592002E+02  0.10497989084E+03  0.11162217854E+03  0.00000000000E+00 0. -1.
</event>
<event>
 7    1  0.2420569E-009  0.1256749E+03  0.7561462E-02  0.1234018E+00
          2   -1    0    0  501    0  0.00000000000E+00  0.00000000000E+00  0.35158397644E+03  0.35158397644E+03  0.00000000000E+00 0. -1.
         -2   -1    0    0    0  501 -0.00000000000E+00 -0.00000000000E+00 -0.59699205120E+02  0.59699205120E+02  0.00000000000E+00 0.  1.
         25    2    1    2    0    0  0.47239118926E+02 -0.75784260350E+02  0.20682926460E+03  0.25768731487E+03  0.12509843754E+03 0.  0.
          5    1    3    3  502    0  0.50526556256E+02 -0.99198245026E+02  0.20536139817E+03  0.23363219162E+03  0.41800000000E+01 0. -1.
         -5    1    3    3    0  502 -0.32874373301E+01  0.23413984676E+02  0.14678664347E+01  0.24055123248E+02  0.41800000000E+01 0. -1.
        -11    1    1    2    0    0 -0.63110024085E+02  0.34984046969E+02  0.19464599531E+02  0.74737067892E+02  0.00000000000E+00 0.  1.
         11    1    1    2    0    0  0.15870905159E+02  0.40800213381E+02  0.65590907187E+02  0.78858798799E+02  0.00000000000E+00 0. -1.
</event>
<event>
 7    1  0.2420569E-009  0.2730219E+03  0.7561462E-02  0.1099562E+00
          1   -1    0    0  501    0  0.00000000000E+00  0.00000000000E+00  0.44628877905E+03  0.44628877905E+03  0.00000000000E+00 0. -1.
         -1   -1    0    0    0  501 -0.00000000000E+00 -0.00000000000E+00 -0.18377451814E+03  0.18377451814E+03  0.00000000000E+00 0.  1.
         25    2    1    2    0    0  0.16931459680E+03 -0.17944656598E+03  0.50602339250E+02  0.28120051213E+03  0.12507848958E+03 0.  0.
          5    1    3    3  502    0  0.16405565814E+03 -0.19331192249E+03  0.29811575108E+02  0.25532324758E+03  0.41800000000E+01 0.  1.
         -5    1    3    3    0  502  0.52589386641E+01  0.13865356513E+02  0.20790764143E+02  0.25877264553E+02  0.41800000000E+01 0.  1.
        -11    1    1    2    0    0 -0.11863273907E+03  0.19121801596E+03  0.16911885447E+03  0.28149465953E+03  0.00000000000E+00 0. -1.
         11    1    1    2    0    0 -0.50681857730E+02 -0.11771449981E+02  0.42793067186E+02  0.67368125526E+02  0.00000000000E+00 0.  1.
</event>
<event>
 7    1  0.2420569E-009  0.4311401E+03  0.7561462E-02  0.1033500E+00
          2   -1    0    0  501    0  0.00000000000E+00  0.00000000000E+00  0.10645964644E+04  0.10645964644E+04  0.00000000000E+00 0. -1.
         -2   -1    0    0    0  501 -0.00000000000E+00 -0.00000000000E+00 -0.19350828115E+03  0.19350828115E+03  0.00000000000E+00 0.  1.
         25    2    1    2    0    0  0.20984542609E+03 -0.36814472718E+03  0.27085425478E+03  0.51823890610E+03  0.12507555100E+03 0.  0.
          5    1    3    3  502    0  0.21274473483E+03 -0.37119110576E+03  0.24780034042E+03  0.49443466738E+03  0.41800000000E+01 0.  1.
         -5    1    3    3    0  502 -0.28993087405E+01  0.30463785782E+01  0.23053914365E+02  0.23804238723E+02  0.41800000000E+01 0.  1.
        -11    1    1    2    0    0 -0.11311290948E+03  0.25918215163E+03  0.34625367215E+03  0.44705874725E+03  0.00000000000E+00 0.  1.
         11    1    1    2    0    0 -0.96732516608E+02  0.10896257555E+03  0.25398025631E+03  0.29280709219E+03  0.00000000000E+00 0. -1.
</event>
<event>
 7    1  0.2420569E-009  0.9718877E+02  0.7561462E-02  0.1286321E+00
          3   -1    0    0  501    0  0.00000000000E+00  0.00000000000E+00  0.13121006971E+03  0.13121006971E+03  0.00000000000E+00 0. -1.
         -3   -1    0    0    0  501 -0.00000000000E+00 -0.00000000000E+00 -0.11499845825E+03  0.11499845825E+03  0.00000000000E+00 0.  1.
         25    2    1    2    0    0  0.77273589536E+00 -0.30711536722E+02 -0.38334682412E+02  0.13439521740E+03  0.12509488789E+03 0.  0.
          5    1    3    3  502    0  0.38464740484E+02 -0.50868138761E+02 -0.58778789218E+02  0.86830422453E+02  0.41800000000E+01 0. -1.
         -5    1    3    3    0  502 -0.37692004588E+02  0.20156602038E+02  0.20444106806E+02  0.47564794951E+02  0.41800000000E+01 0. -1.
        -11    1    1    2    0    0 -0.25904367084E+02  0.49683533529E+02  0.94669459295E+01  0.56825283133E+02  0.00000000000E+00 0.  1.
         11    1    1    2    0    0  0.25131631189E+02 -0.18971996807E+02  0.45079347944E+02  0.54988027425E+02  0.00000000000E+00 0. -1.
</event>
<event>
 7    1  0.2420569E-009  0.9415654E+02  0.7561462E-02  0.1293087E+00
         -1   -1    0    0    0  501 -0.00000000000E+00  0.00000000000E+00  0.30274522447E+03  0.30274522447E+03  0.00000000000E+00 0.  1.
          1   -1    0    0  501    0  0.00000000000E+00 -0.00000000000E+00 -0.47711208287E+02  0.47711208287E+02  0.00000000000E+00 0. -1.
         25    2    1    2    0    0 -0.71541129612E+01 -0.13895491993E+02  0.80571329422E+02  0.14961176294E+03  0.12509066494E+03 0.  0.
          5    1    3    3  502    0  0.37401766267E+02 -0.23242511856E+02 -0.12459594898E+02  0.45954546916E+02  0.41800000000E+01 0.  1.
         -5    1    3    3    0  502 -0.44555879228E+02  0.93470198629E+01  0.93030924319E+02  0.10365721602E+03  0.41800000000E+01 0.  1.
        -11    1    1    2    0    0 -0.38265415890E+02 -0.18569668607E+02  0.90749925123E+02  0.10022286942E+03  0.00000000000E+00 0.  1.
         11    1    1    2    0    0  0.45419528851E+02  0.32465160600E+02  0.83712761641E+02  0.10062180040E+03  0.00000000000E+00 0. -1.
</event>
<event>
 7    1  0.2420569E-009  0.1176693E+03  0.7561462E-02  0.1246992E+00
          1   -1    0    0  501    0  0.00000000000E+00  0.00000000000E+00  0.11521911321E+03  0.11521911321E+03  0.00000000000E+00 0. -1.
         -1   -1    0    0    0  501 -0.00000000000E+00 -0.00000000000E+00 -0.22527826745E+03  0.22527826745E+03  0.00000000000E+00 0.  1.
         25    2    1    2    0    0  0.31577643694E+01  0.66749198481E+02 -0.16198182143E+03  0.21528754293E+03  0.12508072871E+03 0.  0.
          5    1    3    3  502    0  0.44184387004E+02 -0.11113545928E+01 -0.11440543238E+03  0.12271744180E+03  0.41800000000E+01 0.  1.
         -5    1    3    3    0  502 -0.41026622635E+02  0.67860553074E+02 -0.47576389049E+02  0.92570101130E+02  0.41800000000E+01 0.  1.
        -11    1    1    2    0    0 -0.45762900119E+02 -0.26276397423E+02  0.37394023179E+02  0.64676155253E+02  0.00000000000E+00 0. -1.
         11    1    1    2    0    0  0.42605135749E+02 -0.40472801058E+02  0.14528644008E+02  0.60533682478E+02  0.00000000000E+00 0.  1.
</event>
<event>
 7    1  0.2420569E-009  0.9872276E+02  0.7561462E-02  0.1283005E+00
          1   -1    0    0  501    0  0.00000000000E+00  0.00000000000E+00  0.21251761413E+03  0.21251761413E+03  0.00000000000E+00 0. -1.
         -1   -1    0    0    0  501 -0.00000000000E+00 -0.00000000000E+00 -0.60822840352E+02  0.60822840352E+02  0.00000000000E+00 0.  1.
         25    2    1    2    0    0  0.11290563802E+02 -0.29246542174E+02  0.93936814564E+02  0.15954384037E+03  0.12508906751E+03 0.  0.
          5    1    3    3  502    0 -0.46731145107E+02 -0.14429650227E+01  0.81246942207E+02  0.93831871392E+02  0.41800000000E+01 0.  1.
         -5    1    3    3    0  502  0.58021708909E+02 -0.27803577151E+02  0.12689872357E+02  0.65711968982E+02  0.41800000000E+01 0.  1.
        -11    1    1    2    0    0 -0.44608295820E+02  0.28043838255E+02  0.60638514373E+02  0.80332971720E+02  0.00000000000E+00 0.  1.
         11    1    1    2    0    0  0.33317732017E+02  0.12027039189E+01 -0.28805551635E+01  0.33463642383E+02  0.00000000000E+00 0. -1.
</event>
<event>
 7    1  0.2420569E-009  0.9817698E+02  0.7561462E-02  0.1284177E+00
         -1   -1    0    0    0  501 -0.00000000000E+00  0.00000000000E+00  0.11220529396E+03  0.11220529396E+03  0.00000000000E+00 0.  1.
          1   -1    0    0  501    0  0.00000000000E+00 -0.00000000000E+00 -0.11101598983E+03  0.11101598983E+03  0.00000000000E+00 0. -1.
         25    2    1    2    0    0  0.66303622065E+01  0.21097645305E+02  0.20978459536E+02  0.12875096436E+03  0.12509053809E+03 0.  0.
          5    1    3    3  502    0 -0.39032671321E+02 -0.30085654825E+02 -0.14328310428E+02  0.51492416301E+02  0.41800000000E+01 0.  1.
         -5    1    3    3    0  502  0.45663033528E+02  0.51183300130E+02  0.35306769964E+02  0.77258548061E+02  0.41800000000E+01 0.  1.
        -11    1    1    2    0    0  0.17476172265E+02 -0.42491707437E+02  0.13746128985E+02  0.47957458857E+02  0.00000000000E+00 0.  1.
         11    1    1    2    0    0 -0.24106534471E+02  0.21394062132E+02 -0.33535284399E+02  0.46512860571E+02  0.00000000000E+00 0. -1.
</event>
<event>
 7    1  0.2420569E-009  0.8885609E+02  0.7561462E-02  0.1305646E+00
          4   -1    0    0  501    0  0.00000000000E+00  0.00000000000E+00  0.17248063866E+03  0.17248063866E+03  0.00000000000E+00 0. -1.
         -4   -1    0    0    0  501 -0.00000000000E+00 -0.00000000000E+00 -0.90229142978E+02  0.90229142978E+02  0.00000000000E+00 0.  1.
         25    2    1    2    0    0 -0.43833714861E+02 -0.25576373665E+02  0.80205793119E+02  0.15702316484E+03  0.12509100526E+03 0.  0.
          5    1    3    3  502    0 -0.70367707443E+02  0.18793323007E+02  0.75428050033E+02  0.10493648733E+03  0.41800000000E+01 0.  1.
         -5    1    3    3    0  502  0.26533992582E+02 -0.44369696672E+02  0.47777430857E+01  0.52086677511E+02  0.41800000000E+01 0.  1.
        -11    1    1    2    0    0  0.24466586987E+02  0.22579852545E+02 -0.44271841603E+02  0.55393678147E+02  0.00000000000E+00 0.  1.
         11    1    1    2    0    0  0.19367127875E+02  0.29965211204E+01  0.46317544165E+02  0.50292938654E+02  0.00000000000E+00 0. -1.
</event>
<event>
 7    1  0.2420569E-009  0.7150177E+02  0.7561462E-02  0.1355059E+00
          1   -1    0    0  501    0  0.00000000000E+00  0.00000000000E+00  0.83292958688E+02  0.83292958688E+02  0.00000000000E+00 0. -1.
         -1   -1    0    0    0  501 -0.00000000000E+00 -0.00000000000E+00 -0.15611291331E+03  0.15611291331E+03  0.00000000000E+00 0.  1.
         25    2    1    2    0    0  0.64463998613E+01 -0.20033320594E+02 -0.63780107249E+02  0.14197284714E+03  0.12508196208E+03 0.  0.
          5    1    3    3  502    0 -0.37108557532E+01  0.31796842386E+02 -0.80241982818E+02  0.86493108643E+02  0.41800000000E+01 0. -1.
         -5    1    3    3    0  502  0.10157255614E+02 -0.51830162980E+02  0.16461875569E+02  0.55479738494E+02  0.41800000000E+01 0. -1.
        -11    1    1    2    0    0 -0.29752091820E+02  0.16915661068E+02  0.34092705577E+02  0.48307754352E+02  0.00000000000E+00 0. -1.
         11    1    1    2    0    0  0.23305691958E+02  0.31176595260E+01 -0.43132552952E+02  0.49125270510E+02  0.00000000000E+00 0.  1.
</event>
<event>
 7    1  0.2420569E-009  0.9902491E+02  0.7561462E-02  0.1282360E+00
          2   -1    0    0  501    0  0.00000000000E+00  0.00000000000E+00  0.52194047655E+02  0.52194047655E+02  0.00000000000E+00 0. -1.
         -2   -1    0    0    0  501 -0.00000000000E+00 -0.00000000000E+00 -0.31262324715E+03  0.31262324715E+03  0.00000000000E+00 0.  1.
         25    2    1    2    0    0 -0.68820949904E+01 -0.46661130961E+02 -0.21113924564E+03  0.24989791921E+03  0.12507823393E+03 0.  0.
          5    1    3    3  502    0  0.33515086565E+02 -0.74338026977E-03 -0.17505447143E+03  0.17828292513E+03  0.41800000000E+01 0. -1.
         -5    1    3    3    0  502 -0.40397181555E+02 -0.46660387581E+02 -0.36084774213E+02  0.71614994078E+02  0.41800000000E+01 0. -1.
        -11    1    1    2    0    0 -0.25427921162E+02  0.61731733284E+02 -0.40893095084E+02  0.78291961876E+02  0.00000000000E+00 0. -1.
         11    1    1    2    0    0  0.32310016153E+02 -0.15070602322E+02 -0.83968587668E+01  0.36627413713E+02  0.00000000000E+00 0.  1.
</event>
<event>
 7    1  0.2420569E-009  0.9297561E+02  0.7561462E-02  0.1295802E+00
          3   -1    0    0  501    0  0.00000000000E+00  0.00000000000E+00  0.57753306966E+02  0.57753306966E+02  0.00000000000E+00 0. -1.
         -3   -1    0    0    0  501 -0.00000000000E+00 -0.00000000000E+00 -0.31885055673E+03  0.31885055673E+03  0.00000000000E+00 0.  1.
         25    2    1    2    0    0  0.23498182656E+01  0.94062665381E+01 -0.25616018856E+03  0.28523590156E+03  0.12508987906E+03 0.  0.
          5    1    3    3  502    0 -0.49014192916E+02 -0.58868166674E+01 -0.20544052686E+03  0.21132990369E+03  0.41800000000E+01 0. -1.
         -5    1    3    3    0  502  0.51364011182E+02  0.15293083205E+02 -0.50719661698E+02  0.73905997872E+02  0.41800000000E+01 0. -1.
        -11    1    1    2    0    0 -0.42640478984E-01  0.36594445982E+02 -0.21475025251E+02  0.42430319401E+02  0.00000000000E+00 0.  1.
         11    1    1    2    0    0 -0.23071777866E+01 -0.46000712520E+02  0.16537964043E+02  0.48937642734E+02  0.00000000000E+00 0. -1.
</event>
<event>
 7    1  0.2420569E-009  0.9314886E+02  0.7561462E-02  0.1295401E+00
         -2   -1    0    0    0  501 -0.00000000000E+00  0.00000000000E+00  0.37404998516E+02  0.37404998516E+02  0.00000000000E+00 0.  1.
          2   -1    0    0  501    0  0.00000000000E+00 -0.00000000000E+00 -0.41607096775E+03  0.41607096775E+03  0.00000000000E+00 0. -1.
         25    2    1    2    0    0 -0.52857318809E+02  0.32188239104E+02 -0.20924373072E+03  0.25151632685E+03  0.12509014724E+03 0.  0.
          5    1    3    3  502    0 -0.33239122143E+02  0.69004053062E+02 -0.19093591119E+03  0.20576781372E+03  0.41800000000E+01 0.  1.
         -5    1    3    3    0  502 -0.19618196666E+02 -0.36815813957E+02 -0.18307819530E+02  0.45748513131E+02  0.41800000000E+01 0.  1.
        -11    1    1    2    0    0  0.16988537826E+02  0.31898854580E+01  0.68769642634E+01  0.18603183173E+02  0.00000000000E+00 0.  1.
         11    1    1    2    0    0  0.35868780983E+02 -0.35378124562E+02 -0.17629920277E+03  0.18335645624E+03  0.00000000000E+00 0. -1.
</event>
<event>
 7    1  0.2420569E-009  0.1080316E+03  0.7561462E-02  0.1264259E+00
         -1   -1    0    0    0  501 -0.00000000000E+00  0.00000000000E+00  0.75412012425E+03  0.75412012425E+03  0.00000000000E+00 0.  1.
          1   -1    0    0  501    0  0.00000000000E+00 -0.00000000000E+00 -0.26471339925E+02  0.26471339925E+02  0.00000000000E+00 0. -1.
         25    2    1    2    0    0  0.69619575055E+02 -0.52487803785E+02  0.32971264974E+03  0.36326414889E+03  0.12509418727E+03 0.  0.
          5    1    3    3  502    0  0.47686961281E+02 -0.13897335905E+02  0.25854445173E+02  0.56152532950E+02  0.41800000000E+01 0. -1.
         -5    1    3    3    0  502  0.21932613773E+02 -0.38590467880E+02  0.30385820457E+03  0.30711161594E+03  0.41800000000E+01 0. -1.
        -11    1    1    2    0    0 -0.86182922450E+02  0.25339877845E+02  0.33469222416E+03  0.34653786293E+03  0.00000000000E+00 0. -1.
         11    1    1    2    0    0  0.16563347395E+02  0.27147925940E+02  0.63243910417E+02  0.70789452354E+02  0.00000000000E+00 0.  1.
</event>
<event>
 7    1  0.2420569E-009  0.1395414E+03  0.7561462E-02  0.1213947E+00
          1   -1    0    0  501    0  0.00000000000E+00  0.00000000000E+00  0.23098302025E+03  0.23098302025E+03  0.00000000000E+00 0. -1.
         -1   -1    0    0    0  501 -0.00000000000E+00 -0.00000000000E+00 -0.15487637270E+03  0.15487637270E+03  0.00000000000E+00 0.  1.
         25    2    1    2    0    0  0.10623246662E+03  0.40340997536E+02  0.14630490357E+03  0.22353775459E+03  0.12510503536E+03 0.  0.
          5    1    3    3  502    0  0.11724673921E+03  0.67153109937E+02  0.13781456587E+03  0.19304575881E+03  0.41800000000E+01 0.  1.
         -5    1    3    3    0  502 -0.11014272589E+02 -0.26812112401E+02  0.84903376921E+01  0.30491995773E+02  0.41800000000E+01 0.  1.
        -11    1    1    2    0    0 -0.79395338242E+02 -0.36927114956E+02 -0.50759332892E+00  0.87564200473E+02  0.00000000000E+00 0. -1.
         11    1    1    2    0    0 -0.26837128375E+02 -0.34138825800E+01 -0.69690662690E+02  0.74757437890E+02  0.00000000000E+00 0.  1.
</event>
<event>
 7    1  0.2420569E-009  0.1553833E+03  0.7561462E-02  0.1194010E+00
          3   -1    0    0  501    0  0.00000000000E+00  0.00000000000E+00  0.46472553924E+03  0.46472553924E+03  0.00000000000E+00 0. -1.
         -3   -1    0    0    0  501 -0.00000000000E+00 -0.00000000000E+00 -0.74715136643E+02  0.74715136643E+02  0.00000000000E+00 0.  1.
         25    2    1    2    0    0 -0.11015192213E+03  0.91111017617E+02  0.13312612344E+03  0.23196004402E+03  0.12509290068E+03 0.  0.
          5    1    3    3  502    0 -0.12002342075E+02  0.63161376396E+02  0.10962267052E+03  0.12715352128E+03  0.41800000000E+01 0.  1.
         -5    1    3    3    0  502 -0.98149580055E+02  0.27949641221E+02  0.23503452922E+02  0.10480652274E+03  0.41800000000E+01 0.  1.
        -11    1    1    2    0    0  0.56017881784E+02 -0.34081924512E+02  0.40062457726E+02  0.76841272615E+02  0.00000000000E+00 0.  1.
         11    1    1    2    0    0  0.54134040346E+02 -0.57029093105E+02  0.21682182144E+03  0.23063935925E+03  0.00000000000E+00 0. -1.
</event>
<event>
 7    1  0.2420569E-009  0.1156323E+03  0.7561462E-02  0.1250481E+00
          2   -1    0    0  501    0  0.00000000000E+00  0.00000000000E+00  0.16150559201E+04  0.16150559201E+04  0.00000000000E+00 0. -1.
         -2   -1    0    0    0  501 -0.00000000000E+00 -0.00000000000E+00 -0.10426771385E+02  0.10426771385E+02  0.00000000000E+00 0.  1.
         25    2    1    2    0    0  0.17690929770E+02 -0.46834709875E+02  0.12362961459E+04  0.12436170394E+04  0.12509484916E+03 0.  0.
          5    1    3    3  502    0 -0.46405551168E+02 -0.52322157077E+02  0.67873064962E+03  0.68233705046E+03  0.41800000000E+01 0. -1.
         -5    1    3    3    0  502  0.64096480937E+02  0.54874472026E+01  0.55756549623E+03  0.56127998889E+03  0.41800000000E+01 0. -1.
        -11    1    1    2    0    0 -0.30046421723E+02  0.66806488551E+02  0.31793412749E+03  0.32626370285E+03  0.00000000000E+00 0. -1.
         11    1    1    2    0    0  0.12355491953E+02 -0.19971778676E+02  0.50398875338E+02  0.55601949249E+02  0.00000000000E+00 0.  1.
</event>
<event>
 7    1  0.2420569E-009  0.1735550E+03  0.7561462E-02  0.1174190E+00
         -2   -1    0    0    0  501 -0.00000000000E+00  0.00000000000E+00  0.56653335013E+02  0.56653335013E+02  0.00000000000E+00 0.  1.
          2   -1    0    0  501    0  0.00000000000E+00 -0.00000000000E+00 -0.53553369059E+03  0.53553369059E+03  0.00000000000E+00 0. -1.
         25    2    1    2    0    0  0.10556977633E+03  0.86285765823E+02 -0.26618367947E+03  0.32417823016E+03  0.12509021798E+03 0.  0.
          5    1    3    3  502    0  0.89079843329E+02 -0.71998764808E+01 -0.14154304534E+03  0.16744838845E+03  0.41800000000E+01 0.  1.
         -5    1    3    3    0  502  0.16489933000E+02  0.93485642304E+02 -0.12464063412E+03  0.15672984171E+03  0.41800000000E+01 0.  1.
        -11    1    1    2    0    0 -0.70096908865E+02 -0.83709312679E+00 -0.82025727927E+02  0.10790040500E+03  0.00000000000E+00 0.  1.
         11    1    1    2    0    0 -0.35472867464E+02 -0.85448672697E+02 -0.13067094818E+03  0.16010839044E+03  0.00000000000E+00 0. -1.
</event>
<event>
 7    1  0.2420569E-009  0.1013462E+03  0.7561462E-02  0.1277490E+00
          2   -1    0    0  501    0  0.00000000000E+00  0.00000000000E+00  0.24107889624E+03  0.24107889624E+03  0.00000000000E+00 0. -1.
         -2   -1    0    0    0  501 -0.00000000000E+00 -0.00000000000E+00 -0.45018899034E+02  0.45018899034E+02  0.00000000000E+00 0.  1.
         25    2    1    2    0    0 -0.78134527869E+01 -0.19400208796E+02  0.10353907379E+03  0.16371858437E+03  0.12508403944E+03 0.  0.
          5    1    3    3  502    0 -0.61136466710E+02 -0.35109028620E+02  0.50975208043E+02  0.87099114160E+02  0.41800000000E+01 0.  1.
         -5    1    3    3    0  502  0.53323013923E+02  0.15708819824E+02  0.52563865744E+02  0.76619470215E+02  0.41800000000E+01 0.  1.
        -11    1    1    2    0    0  0.96654476770E-01 -0.28149946649E+02  0.17255582396E+02  0.33017933949E+02  0.00000000000E+00 0.  1.
         11    1    1    2    0    0  0.77167983101E+01  0.47550155444E+02  0.75265341022E+02  0.89361276950E+02  0.00000000000E+00 0. -1.
</event>
<event>
 7    1  0.2420569E-009  0.1061937E+03  0.7561462E-02  0.1267785E+00
         -1   -1    0    0    0  501 -0.00000000000E+00  0.00000000000E+00  0.40247948714E+02  0.40247948714E+02  0.00000000000E+00 0.  1.
          1   -1    0    0  501    0  0.00000000000E+00 -0.00000000000E+00 -0.41318782593E+03  0.41318782593E+03  0.00000000000E+00 0. -1.
         25    2    1    2    0    0 -0.55569050719E+02  0.39811866472E+02 -0.24039576142E+03  0.27948436484E+03  0.12509390061E+03 0.  0.
          5    1    3    3  502    0  0.24718365857E+02  0.10715782454E+02 -0.15938926647E+03  0.16170416281E+03  0.41800000000E+01 0. -1.
         -5    1    3    3    0  502 -0.80287416575E+02  0.29096084018E+02 -0.81006494951E+02  0.11778020203E+03  0.41800000000E+01 0. -1.
        -11    1    1    2    0    0 -0.17616823620E+02 -0.36443911456E+01 -0.66665842033E+02  0.69050478313E+02  0.00000000000E+00 0. -1.
         11    1    1    2    0    0  0.73185874339E+02 -0.36167475327E+02 -0.65878273764E+02  0.10490093149E+03  0.00000000000E+00 0.  1.
</event>
<event>
 7    1  0.2420569E-009  0.2128967E+03  0.7561462E-02  0.1139292E+00
          2   -1    0    0  501    0  0.00000000000E+00  0.00000000000E+00  0.26819998977E+03  0.26819998977E+03  0.00000000000E+00 0. -1.
         -2   -1    0    0    0  501 -0.00000000000E+00 -0.00000000000E+00 -0.35606877078E+03  0.35606877078E+03  0.00000000000E+00 0.  1.
         25    2    1    2    0    0 -0.15568515578E+03  0.11547351304E+03  0.17201925670E+03  0.28776727895E+03  0.12508949683E+03 0.  0.
          5    1    3    3  502    0 -0.74264708546E+02 -0.15905939459E+02  0.55499679692E+02  0.94159081831E+02  0.41800000000E+01 0. -1.
         -5    1    3    3    0  502 -0.81420447236E+02  0.13137945250E+03  0.11651957701E+03  0.19360819712E+03  0.41800000000E+01 0. -1.
        -11    1    1    2    0    0  0.49170821742E+02 -0.49757591113E+02 -0.16570880581E+03  0.17986938569E+03  0.00000000000E+00 0.  1.
         11    1    1    2    0    0  0.10651433404E+03 -0.65715921925E+02 -0.94179231892E+02  0.15663209591E+03  0.00000000000E+00 0. -1.
</event>
<event>
 7    1  0.3092291E-009  0.2334352E+03  0.7561462E-02  0.1124245E+00
         -1   -1    0    0    0  501 -0.00000000000E+00  0.00000000000E+00  0.61332068641E+02  0.61332068641E+02  0.00000000000E+00 0.  1.
          1   -1    0    0  501    0  0.00000000000E+00 -0.00000000000E+00 -0.10219196697E+04  0.10219196697E+04  0.00000000000E+00 0. -1.
         25    2    1    2    0    0  0.20463617068E+03 -0.80587093820E+02 -0.60047362336E+03  0.65160262672E+03  0.12508864361E+03 0.  0.
          5    1    3    3  502    0  0.18665041248E+03 -0.25269301409E+02 -0.38878710492E+03  0.43202985941E+03  0.41800000000E+01 0.  1.
         -5    1    3    3    0  502  0.17985758204E+02 -0.55317792411E+02 -0.21168651844E+03  0.21957276731E+03  0.41800000000E+01 0.  1.
        -11    1    1    2    0    0 -0.96673553605E+02  0.43358684620E+02 -0.92354425915E+02  0.14055280675E+03  0.00000000000E+00 0.  1.
         11    1    1    2    0    0 -0.10796261708E+03  0.37228409200E+02 -0.26775955178E+03  0.29109630487E+03  0.00000000000E+00 0. -1.
</event>
<event>
 7    1  0.2420569E-009  0.1307975E+03  0.7561462E-02  0.1226277E+00
          1   -1    0    0  501    0  0.00000000000E+00  0.00000000000E+00  0.24156282396E+03  0.24156282396E+03  0.00000000000E+00 0. -1.
         -1   -1    0    0    0  501 -0.00000000000E+00 -0.00000000000E+00 -0.98988258670E+02  0.98988258670E+02  0.00000000000E+00 0.  1.
         25    2    1    2    0    0  0.49577374167E+02  0.79408926398E+02  0.13990568164E+03  0.20973020761E+03  0.12509782816E+03 0.  0.
          5    1    3    3  502    0  0.90700574064E+02  0.43307780531E+02  0.10026292061E+03  0.14202916475E+03  0.41800000000E+01 0. -1.
         -5    1    3    3    0  502 -0.41123199898E+02  0.36101145866E+02  0.39642761033E+02  0.67701042865E+02  0.41800000000E+01 0. -1.
        -11    1    1    2    0    0 -0.48267418901E+02 -0.30296063025E+02  0.39567778550E+02  0.69377260407E+02  0.00000000000E+00 0. -1.
         11    1    1    2    0    0 -0.13099552656E+01 -0.49112863373E+02 -0.36898894901E+02  0.61443614610E+02  0.00000000000E+00 0.  1.
</event>
<event>
 7    1  0.2420569E-009  0.1069105E+03  0.7561462E-02  0.1266401E+00
         -1   -1    0    0    0  501 -0.00000000000E+00  0.00000000000E+00  0.19923299476E+02  0.19923299476E+02  0.00000000000E+00 0.  1.
          1   -1    0    0  501    0  0.00000000000E+00 -0.00000000000E+00 -0.10526410659E+04  0.10526410659E+04  0.00000000000E+00 0. -1.
         25    2    1    2    0    0 -0.75994206422E+02 -0.18733941130E+02 -0.78014910099E+03  0.79398076639E+03  0.12508700036E+03 0.  0.
          5    1    3    3  502    0 -0.77333855297E+02 -0.47256242971E+02 -0.73376283350E+03  0.73935042159E+03  0.41800000000E+01 0. -1.
         -5    1    3    3    0  502  0.13396488753E+01  0.28522301841E+02 -0.46386267489E+02  0.54630344800E+02  0.41800000000E+01 0. -1.
        -11    1    1    2    0    0  0.34002802621E+02  0.35376315561E+02 -0.46426054347E+02  0.67550372397E+02  0.00000000000E+00 0.  1.
         11    1    1    2    0    0  0.41991403801E+02 -0.16642374431E+02 -0.20614261114E+03  0.21103322664E+03  0.00000000000E+00 0. -1.
</event>
<event>
 7    1  0.2420569E-009  0.1357091E+03  0.7561462E-02  0.1219222E+00
         -3   -1    0    0    0  501 -0.00000000000E+00  0.00000000000E+00  0.39697108450E+02  0.39697108450E+02  0.00000000000E+00 0.  1.
          3   -1    0    0  501    0  0.00000000000E+00 -0.00000000000E+00 -0.65877980060E+03  0.65877980060E+03  0.00000000000E+00 0. -1.
         25    2    1    2    0    0 -0.87702360708E+02  0.48058167476E+02 -0.18885938261E+03  0.24762157780E+03  0.12508911966E+03 0.  0.
          5    1    3    3  502    0 -0.59575875707E+02  0.77742743809E+02 -0.18089367887E+03  0.20575036971E+03  0.41800000000E+01 0. -1.
         -5    1    3    3    0  502 -0.28126485001E+02 -0.29684576334E+02 -0.79657037417E+01  0.41871208088E+02  0.41800000000E+01 0. -1.
        -11    1    1    2    0    0 -0.13279215275E+01 -0.43088124629E+02 -0.10200436671E+03  0.11073951728E+03  0.00000000000E+00 0.  1.
         11    1    1    2    0    0  0.89030282236E+02 -0.49700428473E+01 -0.32821894282E+03  0.34011581396E+03  0.00000000000E+00 0. -1.
</event>
<event>
 7    1  0.2420569E-009  0.8019587E+02  0.7561462E-02  0.1328497E+00
         -1   -1    0    0    0  501 -0.00000000000E+00  0.00000000000E+00  0.71923744465E+02  0.71923744465E+02  0.00000000000E+00 0.  1.
          1   -1    0    0  501    0  0.00000000000E+00 -0.00000000000E+00 -0.18492488133E+03  0.18492488133E+03  0.00000000000E+00 0. -1.
         25    2    1    2    0    0  0.31676025197E+02  0.28225388924E+02 -0.33053856855E+02  0.13616462781E+03  0.12509278661E+03 0.  0.
          5    1    3    3  502    0  0.24623120356E+02  0.49615732905E+02 -0.72026729238E+02  0.90957908575E+02  0.41800000000E+01 0. -1.
         -5    1    3    3    0  502  0.70529048408E+01 -0.21390343981E+02  0.38972872383E+02  0.45206719236E+02  0.41800000000E+01 0. -1.
        -11    1    1    2    0    0 -0.16506805146E+02  0.23114167250E+02 -0.54090492211E+01  0.28913615430E+02  0.00000000000E+00 0.  1.
         11    1    1    2    0    0 -0.15169220051E+02 -0.51339556174E+02 -0.74538230793E+02  0.91770382558E+02  0.00000000000E+00 0. -1.
</event>
<event>
 7    1  0.2420569E-009  0.1067809E+03  0.7561462E-02  0.1266650E+00
         -2   -1    0    0    0  501 -0.00000000000E+00  0.00000000000E+00  0.18908329033E+03  0.18908329033E+03  0.00000000000E+00 0. -1.
          2   -1    0    0  501    0  0.00000000000E+00 -0.00000000000E+00 -0.11297628197E+03  0.11297628197E+03  0.00000000000E+00 0.  1.
         25    2    1    2    0    0 -0.85786682455E+02 -0.43435363226E+02  0.33011972155E+02  0.16119376287E+03  0.12509058006E+03 0.  0.
          5    1    3    3  502    0 -0.52939608478E+02  0.62350523214E+01  0.72156775468E+02  0.89808410905E+02  0.41800000000E+01 0.  1.
         -5    1    3    3    0  502 -0.32847073976E+02 -0.49670415547E+02 -0.39144803312E+02  0.71385351970E+02  0.41800000000E+01 0.  1.
        -11    1    1    2    0    0  0.11820569178E+02 -0.40560767784E+01 -0.26139775837E+02  0.28973530943E+02  0.00000000000E+00 0.  1.
         11    1    1    2    0    0  0.73966113277E+02  0.47491440004E+02  0.69234812033E+02  0.11189227848E+03  0.00000000000E+00 0. -1.
</event>
<event>
 7    1  0.2420569E-009  0.1870415E+03  0.7561462E-02  0.1161157E+00
         -1   -1    0    0    0  501 -0.00000000000E+00  0.00000000000E+00  0.68399148661E+02  0.68399148661E+02  0.00000000000E+00 0.  1.
          1   -1    0    0  501    0  0.00000000000E+00 -0.00000000000E+00 -0.85359030446E+03  0.85359030446E+03  0.00000000000E+00 0. -1.
         25    2    1    2    0    0 -0.10329227578E+03  0.12089123348E+03 -0.12757882730E+03  0.23918691801E+03  0.12510011992E+03 0.  0.
          5    1    3    3  502    0 -0.86582886207E+02  0.13996246026E+03 -0.75511090607E+02  0.18112284138E+03  0.41800000000E+01 0. -1.
         -5    1    3    3    0  502 -0.16709389577E+02 -0.19071226776E+02 -0.52067736695E+02  0.58064076633E+02  0.41800000000E+01 0. -1.
        -11    1    1    2    0    0 -0.17207319233E+02 -0.21598644288E+02 -0.98659130882E+02  0.10245104869E+03  0.00000000000E+00 0. -1.
         11    1    1    2    0    0  0.12049959502E+03 -0.99292589193E+02 -0.55895319762E+03  0.58035148643E+03  0.00000000000E+00 0.  1.
</event>
<event>
 7    1  0.2420569E-009  0.1302290E+03  0.7561462E-02  0.1227116E+00
         -1   -1    0    0    0  501 -0.00000000000E+00  0.00000000000E+00  0.23005043669E+03  0.23005043669E+03  0.00000000000E+00 0.  1.
          1   -1    0    0  501    0  0.00000000000E+00 -0.00000000000E+00 -0.83577408187E+02  0.83577408187E+02  0.00000000000E+00 0. -1.
         25    2    1    2    0    0 -0.36719521083E+02  0.61754893501E+02  0.27889269986E+02  0.14692728836E+03  0.12509127302E+03 0.  0.
          5    1    3    3  502    0 -0.77669591127E+02  0.10552541238E+02  0.12988264338E+02  0.79561855955E+02  0.41800000000E+01 0.  1.
         -5    1    3    3    0  502  0.40950070044E+02  0.51202352264E+02  0.14901005648E+02  0.67365432406E+02  0.41800000000E+01 0.  1.
        -11    1    1    2    0    0 -0.12055209804E+02 -0.66201096664E+02  0.58329898514E+02  0.89052177647E+02  0.00000000000E+00 0. -1.
         11    1    1    2    0    0  0.48774730887E+02  0.44462031630E+01  0.60253860001E+02  0.77648378867E+02  0.00000000000E+00 0.  1.
</event>
<event>
 7    1  0.2420569E-009  0.1837106E+03  0.7561462E-02  0.1164260E+00
          1   -1    0    0  501    0  0.00000000000E+00  0.00000000000E+00  0.35392465203E+03  0.35392465203E+03  0.00000000000E+00 0. -1.
         -1   -1    0    0    0  501 -0.00000000000E+00 -0.00000000000E+00 -0.14145319766E+03  0.14145319766E+03  0.00000000000E+00 0.  1.
         25    2    1    2    0    0  0.10278359759E+03 -0.10998622224E+03 -0.26100811231E+02  0.19745693612E+03  0.12508617933E+03 0.  0.
          5    1    3    3  502    0  0.12446852465E+03 -0.54974572104E+02 -0.23297442692E+02  0.13811176794E+03  0.41800000000E+01 0. -1.
         -5    1    3    3    0  502 -0.21684927058E+02 -0.55011650136E+02 -0.28033685386E+01  0.59345168189E+02  0.41800000000E+01 0. -1.
        -11    1    1    2    0    0 -0.57907930642E+02  0.53478444713E+01  0.12103470177E+03  0.13428077637E+03  0.00000000000E+00 0. -1.
         11    1    1    2    0    0 -0.44875666948E+02  0.10463837777E+03  0.11753756384E+03  0.16364013719E+03  0.00000000000E+00 0.  1.
</event>
<event>
 7    1  0.2420569E-009  0.1191644E+03  0.7561462E-02  0.1244482E+00
         -1   -1    0    0    0  501 -0.00000000000E+00  0.00000000000E+00  0.13759049528E+03  0.13759049528E+03  0.00000000000E+00 0.  1.
          1   -1    0    0  501    0  0.00000000000E+00 -0.00000000000E+00 -0.15599572708E+03  0.15599572708E+03  0.00000000000E+00 0. -1.
         25    2    1    2    0    0  0.56446761003E+02 -0.18383145990E+02  0.63587569841E+02  0.15236599775E+03  0.12509133202E+03 0.  0.
          5    1    3    3  502    0  0.63635675965E+02  0.42228953801E+02  0.27180248148E+02  0.81172791526E+02  0.41800000000E+01 0.  1.
         -5    1    3    3    0  502 -0.71889149620E+01 -0.60612099791E+02  0.36407321693E+02  0.71193206223E+02  0.41800000000E+01 0.  1.
        -11    1    1    2    0    0  0.12659081650E+02  0.28153738105E+02  0.32623163553E+01  0.31040747824E+02  0.00000000000E+00 0.  1.
         11    1    1    2    0    0 -0.69105842653E+02 -0.97705921146E+01 -0.85255117999E+02  0.11017947678E+03  0.00000000000E+00 0. -1.
</event>
<event>
 7    1  0.2420569E-009  0.1639078E+03  0.7561462E-02  0.1184354E+00
         -2   -1    0    0    0  501 -0.00000000000E+00  0.00000000000E+00  0.15446302668E+03  0.15446302668E+03  0.00000000000E+00 0.  1.
          2   -1    0    0  501    0  0.00000000000E+00 -0.00000000000E+00 -0.24416485751E+03  0.24416485751E+03  0.00000000000E+00 0. -1.
         25    2    1    2    0    0 -0.97509196821E+02  0.92278892317E+02 -0.13214011255E+03  0.22612462799E+03  0.12509156889E+03 0.  0.
          5    1    3    3  502    0  0.20553030362E+02 -0.12961930164E+02 -0.24550600584E+02  0.34794296655E+02  0.41800000000E+01 0.  1.
         -5    1    3    3    0  502 -0.11806222718E+03  0.10524082248E+03 -0.10758951197E+03  0.19133033134E+03  0.41800000000E+01 0.  1.
        -11    1    1    2    0    0  0.56248614034E+02 -0.16428018358E+02 -0.24233691257E+02  0.63411814040E+02  0.00000000000E+00 0. -1.
         11    1    1    2    0    0  0.41260582786E+02 -0.75850873959E+02  0.66671972972E+02  0.10909144216E+03  0.00000000000E+00 0.  1.
</event>
<event>
 7    1  0.2420569E-009  0.1123952E+03  0.7561462E-02  0.1256198E+00
          1   -1    0    0  501    0  0.00000000000E+00  0.00000000000E+00  0.35203767773E+03  0.35203767773E+03  0.00000000000E+00 0. -1.
         -1   -1    0    0    0  501 -0.00000000000E+00 -0.00000000000E+00 -0.97054244751E+02  0.97054244751E+02  0.00000000000E+00 0.  1.
         25    2    1    2    0    0 -0.91086087802E+02 -0.48796324103E+02  0.26725927256E+03  0.31265507772E+03  0.12509165526E+03 0.  0.
          5    1    3    3  502    0 -0.27231201208E+02  0.74920855866E+01 -0.35327614574E+01  0.28768428341E+02  0.41800000000E+01 0.  1.
         -5    1    3    3    0  502 -0.63854886594E+02 -0.56288409689E+02  0.27079203402E+03  0.28388664938E+03  0.41800000000E+01 0.  1.
        -11    1    1    2    0    0  0.50508157249E+02  0.41422491890E+01 -0.45020712628E+02  0.67787142900E+02  0.00000000000E+00 0.  1.
         11    1    1    2    0    0  0.40577930553E+02  0.44654074914E+02  0.32744873039E+02  0.68649701855E+02  0.00000000000E+00 0. -1.
</event>
<event>
 7    1  0.2420569E-009  0.1409032E+03  0.7561462E-02  0.1212119E+00
          1   -1    0    0  501    0  0.00000000000E+00  0.00000000000E+00  0.68990877673E+03  0.68990877673E+03  0.00000000000E+00 0. -1.
         -1   -1    0    0    0  501 -0.00000000000E+00 -0.00000000000E+00 -0.72369098138E+02  0.72369098138E+02  0.00000000000E+00 0.  1.
         25    2    1    2    0    0 -0.48389714284E+02 -0.10658003814E+03  0.58651527676E+03  0.61102266154E+03  0.12509058345E+03 0.  0.
          5    1    3    3  502    0 -0.51399596835E+02 -0.28373879812E+01  0.90065982551E+02  0.10382351823E+03  0.41800000000E+01 0. -1.
         -5    1    3    3    0  502  0.30098825509E+01 -0.10374265016E+03  0.49644929421E+03  0.50719914331E+03  0.41800000000E+01 0. -1.
        -11    1    1    2    0    0  0.29051838255E+02  0.15012459871E+02 -0.25899837278E+02  0.41715522631E+02  0.00000000000E+00 0.  1.
         11    1    1    2    0    0  0.19337876030E+02  0.91567578266E+02  0.56924239107E+02  0.10953969069E+03  0.00000000000E+00 0. -1.
</event>
<event>
 7    1  0.2420569E-009  0.8009618E+02  0.7561462E-02  0.1328779E+00
         -1   -1    0    0    0  501 -0.00000000000E+00  0.00000000000E+00  0.38992699173E+03  0.38992699173E+03  0.00000000000E+00 0.  1.
          1   -1    0    0  501    0  0.00000000000E+00 -0.00000000000E+00 -0.32881599552E+02  0.32881599552E+02  0.00000000000E+00 0. -1.
         25    2    1    2    0    0  0.23719772199E+02 -0.86992311130E+01  0.22264552881E+03  0.25662583064E+03  0.12508989263E+03 0.  0.
          5    1    3    3  502    0  0.42175173635E+02 -0.98480038860E+01  0.23160565435E+03  0.23565733593E+03  0.41800000000E+01 0. -1.
         -5    1    3    3    0  502 -0.18455401436E+02  0.11487727730E+01 -0.89601255321E+01  0.20968494715E+02  0.41800000000E+01 0. -1.
        -11    1    1    2    0    0  0.32983022099E+01 -0.41012182198E+02  0.58150407564E+02  0.71234456451E+02  0.00000000000E+00 0. -1.
         11    1    1    2    0    0 -0.27018074409E+02  0.49711413311E+02  0.76249455796E+02  0.94948304183E+02  0.00000000000E+00 0.  1.
</event>
<event>
 7    1  0.2420569E-009  0.1227583E+03  0.7561462E-02  0.1238615E+00
         -2   -1    0    0    0  501 -0.00000000000E+00  0.00000000000E+00  0.16635956429E+02  0.16635956429E+02  0.00000000000E+00 0.  1.
          2   -1    0    0  501    0  0.00000000000E+00 -0.00000000000E+00 -0.11887412358E+04  0.11887412358E+04  0.00000000000E+00 0. -1.
         25    2    1    2    0    0  0.34879060015E+02 -0.63141585898E+02 -0.84346203873E+03  0.85573212492E+03  0.12508337279E+03 0.  0.
          5    1    3    3  502    0  0.61117302942E+02 -0.88399461486E+02 -0.60978704069E+03  0.61919907696E+03  0.41800000000E+01 0. -1.
         -5    1    3    3    0  502 -0.26238242927E+02  0.25257875588E+02 -0.23367499804E+03  0.23653304796E+03  0.41800000000E+01 0. -1.
        -11    1    1    2    0    0 -0.30221926726E+02  0.79102857968E+02 -0.31978310389E+03  0.33080486775E+03  0.00000000000E+00 0. -1.
         11    1    1    2    0    0 -0.46571332894E+01 -0.15961272070E+02 -0.88601367746E+01  0.18840199581E+02  0.00000000000E+00 0.  1.
</event>
<event>
 7    1  0.2420569E-009  0.1191908E+03  0.7561462E-02  0.1244438E+00
          1   -1    0    0  501    0  0.00000000000E+00  0.00000000000E+00  0.23039840660E+04  0.23039840660E+04  0.00000000000E+00 0. -1.
         -1   -1    0    0    0  501 -0.00000000000E+00 -0.00000000000E+00 -0.23561913183E+02  0.23561913183E+02  0.00000000000E+00 0.  1.
         25    2    1    2    0    0  0.44864986251E+02  0.10826026714E+03  0.20351266055E+04  0.20423322898E+04  0.12509088428E+03 0.  0.
          5    1    3    3  502    0  0.26172931944E+02  0.27551475818E+02  0.13267884124E+03  0.13807698396E+03  0.41800000000E+01 0.  1.
         -5    1    3    3    0  502  0.18692054307E+02  0.80708791324E+02  0.19024477643E+04  0.19042553059E+04  0.41800000000E+01 0.  1.
        -11    1    1    2    0    0 -0.22666222136E+02 -0.52503857514E+02  0.20524645910E+03  0.21306459502E+03  0.00000000000E+00 0.  1.
         11    1    1    2    0    0 -0.22198764116E+02 -0.55756409628E+02  0.40049088228E+02  0.72149094317E+02  0.00000000000E+00 0. -1.
</event>
<event>
 7    1  0.2420569E-009  0.1178827E+03  0.7561462E-02  0.1246631E+00
          3   -1    0    0  501    0  0.00000000000E+00  0.00000000000E+00  0.12154959700E+03  0.12154959700E+03  0.00000000000E+00 0. -1.
         -3   -1    0    0    0  501 -0.00000000000E+00 -0.00000000000E+00 -0.13955660068E+03  0.13955660068E+03  0.00000000000E+00 0.  1.
         25    2    1    2    0    0  0.51940868519E+02  0.43283314147E+02  0.16165136056E+02  0.14311039822E+03  0.12509186763E+03 0.  0.
          5    1    3    3  502    0  0.55670679488E+02 -0.21059205168E+02  0.42610352796E+02  0.73320046661E+02  0.41800000000E+01 0.  1.
         -5    1    3    3    0  502 -0.37298109691E+01  0.64342519316E+02 -0.26445216740E+02  0.69790351555E+02  0.41800000000E+01 0.  1.
        -11    1    1    2    0    0  0.13071673073E+02 -0.44610429912E+02 -0.23538989984E+02  0.52106075877E+02  0.00000000000E+00 0.  1.
         11    1    1    2    0    0 -0.65012541591E+02  0.13271157648E+01 -0.10633149753E+02  0.65889723585E+02  0.00000000000E+00 0. -1.
</event>
<event>
 7    1  0.2420569E-009  0.8863195E+02  0.7561462E-02  0.1306199E+00
         -1   -1    0    0    0  501 -0.00000000000E+00  0.00000000000E+00  0.32131982347E+02  0.32131982347E+02  0.00000000000E+00 0.  1.
          1   -1    0    0  501    0  0.00000000000E+00 -0.00000000000E+00 -0.50292820332E+03  0.50292820332E+03  0.00000000000E+00 0. -1.
         25    2    1    2    0    0  0.95169190812E+01  0.56371455623E+02 -0.33134421009E+03  0.35875574232E+03  0.12509350233E+03 0.  0.
          5    1    3    3  502    0  0.46651198403E+02 -0.22393639063E+01 -0.48365772341E+02  0.67365194257E+02  0.41800000000E+01 0. -1.
         -5    1    3    3    0  502 -0.37134279322E+02  0.58610819529E+02 -0.28297843775E+03  0.29139054806E+03  0.41800000000E+01 0. -1.
        -11    1    1    2    0    0 -0.15394851545E+02 -0.28647730817E+02 -0.14397791799E+03  0.14760533460E+03  0.00000000000E+00 0. -1.
         11    1    1    2    0    0  0.58779324638E+01 -0.27723724806E+02  0.45259071154E+01  0.28699108738E+02  0.00000000000E+00 0.  1.
</event>
<event>
 7    1  0.2420569E-009  0.1231970E+03  0.7561462E-02  0.1237914E+00
          3   -1    0    0  501    0  0.00000000000E+00  0.00000000000E+00  0.15561921404E+02  0.15561921404E+02  0.00000000000E+00 0. -1.
         -3   -1    0    0    0  501 -0.00000000000E+00 -0.00000000000E+00 -0.10718148145E+04  0.10718148145E+04  0.00000000000E+00 0.  1.
         25    2    1    2    0    0 -0.51733788486E+02  0.34395364434E+02 -0.72757413794E+03  0.74085817198E+03  0.12508908350E+03 0.  0.
          5    1    3    3  502    0 -0.88298332713E+02  0.45528490975E+00 -0.50945380594E+03  0.51706620043E+03  0.41800000000E+01 0. -1.
         -5    1    3    3    0  502  0.36564544227E+02  0.33940079524E+02 -0.21812033201E+03  0.22379197154E+03  0.41800000000E+01 0. -1.
        -11    1    1    2    0    0 -0.20191896790E+02 -0.29620412552E+02 -0.14063552676E+03  0.14513246681E+03  0.00000000000E+00 0.  1.
         11    1    1    2    0    0  0.71925685276E+02 -0.47749518819E+01 -0.18804322838E+03  0.20138609710E+03  0.00000000000E+00 0. -1.
</event>
<event>
 7    1  0.2420569E-009  0.1023502E+03  0.7561462E-02  0.1275430E+00
         -1   -1    0    0    0  501 -0.00000000000E+00  0.00000000000E+00  0.36549745037E+03  0.36549745037E+03  0.00000000000E+00 0.  1.
          1   -1    0    0  501    0  0.00000000000E+00 -0.00000000000E+00 -0.33401885711E+02  0.33401885711E+02  0.00000000000E+00 0. -1.
         25    2    1    2    0    0 -0.14797266663E+02  0.32954313006E+02  0.17620781786E+03  0.21909221006E+03  0.12508899067E+03 0.  0.
          5    1    3    3  502    0 -0.46897606102E+02 -0.24607927297E+02  0.12402199832E+03  0.13492169585E+03  0.41800000000E+01 0.  1.
         -5    1    3    3    0  502  0.32100339440E+02  0.57562240303E+02  0.52185819544E+02  0.84170514210E+02  0.41800000000E+01 0.  1.
        -11    1    1    2    0    0  0.24303246545E+02 -0.55759990442E+02  0.83404800863E+02  0.10322879992E+03  0.00000000000E+00 0. -1.
         11    1    1    2    0    0 -0.95059798822E+01  0.22805677436E+02  0.72482945933E+02  0.76578326098E+02  0.00000000000E+00 0.  1.
</event>
<event>
 7    1  0.2420569E-009  0.1011966E+03  0.7561462E-02  0.1277800E+00
         -2   -1    0    0    0  501 -0.00000000000E+00  0.00000000000E+00  0.11380369047E+02  0.11380369047E+02  0.00000000000E+00 0.  1.
          2   -1    0    0  501    0  0.00000000000E+00 -0.00000000000E+00 -0.11278486152E+04  0.11278486152E+04  0.00000000000E+00 0. -1.
         25    2    1    2    0    0 -0.83581316346E+01 -0.38174496888E+02 -0.63556808659E+03  0.64894043878E+03  0.12509896011E+03 0.  0.
          5    1    3    3  502    0 -0.47521459731E+02 -0.46595886114E+02 -0.55370325150E+03  0.55770442786E+03  0.41800000000E+01 0.  1.
         -5    1    3    3    0  502  0.39163328096E+02  0.84213892262E+01 -0.81864835088E+02  0.91236010917E+02  0.41800000000E+01 0.  1.
        -11    1    1    2    0    0  0.79069636601E+01 -0.28081902637E+02 -0.15484979728E+03  0.15757402403E+03  0.00000000000E+00 0.  1.
         11    1    1    2    0    0  0.45116797454E+00  0.66256399525E+02 -0.32605036229E+03  0.33271452145E+03  0.00000000000E+00 0. -1.
</event>
<event>
 7    1  0.2420569E-009  0.1490601E+03  0.7561462E-02  0.1201633E+00
          1   -1    0    0  501    0  0.00000000000E+00  0.00000000000E+00  0.36311564186E+03  0.36311564186E+03  0.00000000000E+00 0. -1.
         -1   -1    0    0    0  501 -0.00000000000E+00 -0.00000000000E+00 -0.68318961419E+02  0.68318961419E+02  0.00000000000E+00 0.  1.
         25    2    1    2    0    0  0.47633894051E+02  0.89069688941E+02  0.22377736366E+03  0.27554753267E+03  0.12509091463E+03 0.  0.
          5    1    3    3  502    0  0.89793422732E+02  0.62701006453E+02  0.16920935798E+03  0.20160246577E+03  0.41800000000E+01 0. -1.
         -5    1    3    3    0  502 -0.42159528681E+02  0.26368682488E+02  0.54568005681E+02  0.73945066899E+02  0.41800000000E+01 0. -1.
        -11    1    1    2    0    0 -0.46884847379E+02  0.25909506617E+01  0.27507622920E+02  0.54420320265E+02  0.00000000000E+00 0.  1.
         11    1    1    2    0    0 -0.74904667225E+00 -0.91660639603E+02  0.43511693863E+02  0.10146675035E+03  0.00000000000E+00 0. -1.
</event>
<event>
 7    1  0.2420569E-009  0.8188740E+02  0.7561462E-02  0.1323779E+00
         -1   -1    0    0    0  501 -0.00000000000E+00  0.00000000000E+00  0.20448561196E+03  0.20448561196E+03  0.00000000000E+00 0.  1.
          1   -1    0    0  501    0  0.00000000000E+00 -0.00000000000E+00 -0.68908180548E+02  0.68908180548E+02  0.00000000000E+00 0. -1.
         25    2    1    2    0    0  0.26674931397E+01 -0.13155922263E+02  0.12979105783E+03  0.18076372907E+03  0.12509841424E+03 0.  0.
          5    1    3    3  502    0  0.13735757318E+02 -0.42141080632E+02  0.14072750328E+03  0.14760164053E+03  0.41800000000E+01 0.  1.
         -5    1    3    3    0  502 -0.11068264178E+02  0.28985158369E+02 -0.10936445454E+02  0.33162088547E+02  0.41800000000E+01 0.  1.
        -11    1    1    2    0    0  0.41159824500E+02  0.15686875469E+02  0.17172990179E+02  0.47277064276E+02  0.00000000000E+00 0.  1.
         11    1    1    2    0    0 -0.43827317640E+02 -0.25309532063E+01 -0.11386616591E+02  0.45352999163E+02  0.00000000000E+00 0. -1.
</event>
<event>
 7    1  0.2420569E-009  0.1465114E+03  0.7561462E-02  0.1204827E+00
         -1   -1    0    0    0  501 -0.00000000000E+00  0.00000000000E+00  0.13720880856E+03  0.13720880856E+03  0.00000000000E+00 0.  1.
          1   -1    0    0  501    0  0.00000000000E+00 -0.00000000000E+00 -0.21120895145E+03  0.21120895145E+03  0.00000000000E+00 0. -1.
         25    2    1    2    0    0  0.11052055781E+02 -0.99807221635E+02 -0.12591380873E+03  0.20392460734E+03  0.12508928340E+03 0.  0.
          5    1    3    3  502    0  0.57316738529E+02 -0.89125931633E+01 -0.50326415940E+02  0.76908148943E+02  0.41800000000E+01 0.  1.
         -5    1    3    3    0  502 -0.46264682748E+02 -0.90894628472E+02 -0.75587392789E+02  0.12701645840E+03  0.41800000000E+01 0.  1.
        -11    1    1    2    0    0  0.38164877007E+02  0.48136670202E+02  0.36607071552E+02  0.71510660343E+02  0.00000000000E+00 0.  1.
         11    1    1    2    0    0 -0.49216932789E+02  0.51670551434E+02  0.15306594287E+02  0.72982492334E+02  0.00000000000E+00 0. -1.
</event>
<event>
 7    1  0.2420569E-009  0.1493780E+03  0.7561462E-02  0.1201239E+00
         -2   -1    0    0    0  501 -0.00000000000E+00  0.00000000000E+00  0.80159980036E+02  0.80159980036E+02  0.00000000000E+00 0.  1.
          2   -1    0    0  501    0  0.00000000000E+00 -0.00000000000E+00 -0.41599772583E+03  0.41599772583E+03  0.00000000000E+00 0. -1.
         25    2    1    2    0    0 -0.63902747785E+02 -0.10427090535E+03 -0.28661602726E+03  0.33578661593E+03  0.12509165232E+03 0.  0.
          5    1    3    3  502    0 -0.87974262152E+02 -0.62188356775E+02 -0.11600264910E+03  0.15836966098E+03  0.41800000000E+01 0.  1.
         -5    1    3    3    0  502  0.24071514367E+02 -0.42082548579E+02 -0.17061337816E+03  0.17741695496E+03  0.41800000000E+01 0.  1.
        -11    1    1    2    0    0  0.20632318059E+02  0.96042238710E+02 -0.59891504701E+02  0.11505127770E+03  0.00000000000E+00 0. -1.
         11    1    1    2    0    0  0.43270429725E+02  0.82286666437E+01  0.10669786173E+02  0.45319812227E+02  0.00000000000E+00 0.  1.
</event>
<event>
 7    1  0.2420569E-009  0.9456032E+02  0.7561462E-02  0.1292169E+00
          4   -1    0    0  501    0  0.00000000000E+00  0.00000000000E+00  0.25154857712E+03  0.25154857712E+03  0.00000000000E+00 0. -1.
         -4   -1    0    0    0  501 -0.00000000000E+00 -0.00000000000E+00 -0.51474984561E+02  0.51474984561E+02  0.00000000000E+00 0.  1.
         25    2    1    2    0    0 -0.86164704036E+01 -0.18056791053E+02  0.15566970358E+03  0.20070216693E+03  0.12509201387E+03 0.  0.
          5    1    3    3  502    0  0.91068462707E+01  0.52464747507E+02  0.57739272275E+02  0.78656089038E+02  0.41800000000E+01 0. -1.
         -5    1    3    3    0  502 -0.17723316674E+02 -0.70521538560E+02  0.97930431300E+02  0.12204607789E+03  0.41800000000E+01 0. -1.
        -11    1    1    2    0    0 -0.85224573867E+01  0.36625304146E+02 -0.12850309648E+02  0.39738842984E+02  0.00000000000E+00 0.  1.
         11    1    1    2    0    0  0.17138927790E+02 -0.18568513093E+02  0.57254198635E+02  0.62582551767E+02  0.00000000000E+00 0. -1.
</event>
<event>
 7    1  0.2420569E-009  0.1276840E+03  0.7561462E-02  0.1230933E+00
         -2   -1    0    0    0  501 -0.00000000000E+00  0.00000000000E+00  0.52600110813E+02  0.52600110813E+02  0.00000000000E+00 0.  1.
          2   -1    0    0  501    0  0.00000000000E+00 -0.00000000000E+00 -0.46243185580E+03  0.46243185580E+03  0.00000000000E+00 0. -1.
         25    2    1    2    0    0  0.58104510368E+02  0.74783029973E+02 -0.16001973958E+03  0.22410087809E+03  0.12508497435E+03 0.  0.
          5    1    3    3  502    0  0.52363765894E+02  0.88456026665E+02 -0.17475055963E+03  0.20278477044E+03  0.41800000000E+01 0. -1.
         -5    1    3    3    0  502  0.57407444742E+01 -0.13672996692E+02  0.14730820054E+02  0.21316107645E+02  0.41800000000E+01 0. -1.
        -11    1    1    2    0    0 -0.86465606623E+02 -0.54366573709E+02 -0.12554643335E+03  0.16184539657E+03  0.00000000000E+00 0.  1.
         11    1    1    2    0    0  0.28361096255E+02 -0.20416456265E+02 -0.12426557206E+03  0.12908569195E+03  0.00000000000E+00 0. -1.
</event>
<event>
 7    1  0.2420569E-009  0.1974469E+03  0.7561462E-02  0.1151911E+00
          1   -1    0    0  501    0  0.00000000000E+00  0.00000000000E+00  0.13471030326E+04  0.13471030326E+04  0.00000000000E+00 0. -1.
         -1   -1    0    0    0  501 -0.00000000000E+00 -0.00000000000E+00 -0.38006863886E+02  0.38006863886E+02  0.00000000000E+00 0.  1.
         25    2    1    2    0    0  0.52126650747E+02 -0.17999130660E+03  0.48032682002E+03  0.53054195741E+03  0.12508739493E+03 0.  0.
          5    1    3    3  502    0  0.20458518678E+02 -0.10383556025E+03  0.11645117513E+03  0.15741258891E+03  0.41800000000E+01 0. -1.
         -5    1    3    3    0  502  0.31668132070E+02 -0.76155746355E+02  0.36387564489E+03  0.37312936850E+03  0.41800000000E+01 0. -1.
        -11    1    1    2    0    0 -0.17065366440E+02  0.16870064583E+03  0.72127668603E+03  0.74093939863E+03  0.00000000000E+00 0.  1.
         11    1    1    2    0    0 -0.35061284307E+02  0.11290660774E+02  0.10749266270E+03  0.11362854049E+03  0.00000000000E+00 0. -1.
</event>
<event>
 7    1  0.2420569E-009  0.1344729E+03  0.7561462E-02  0.1220966E+00
          1   -1    0    0  501    0  0.00000000000E+00  0.00000000000E+00  0.19924166844E+03  0.19924166844E+03  0.00000000000E+00 0. -1.
         -1   -1    0    0    0  501 -0.00000000000E+00 -0.00000000000E+00 -0.10206357206E+03  0.10206357206E+03  0.00000000000E+00 0.  1.
         25    2    1    2    0    0  0.83703890537E+02  0.32240826543E+02  0.29184560807E+02  0.15666774375E+03  0.12508889301E+03 0.  0.
          5    1    3    3  502    0 -0.95557383317E+01  0.56385234341E+02  0.74517647546E+01  0.57823939547E+02  0.41800000000E+01 0. -1.
         -5    1    3    3    0  502  0.93259628869E+02 -0.24144407798E+02  0.21732796052E+02  0.98843804201E+02  0.41800000000E+01 0. -1.
        -11    1    1    2    0    0 -0.18331362417E+02  0.23126394554E+02  0.48510434126E+02  0.56781433516E+02  0.00000000000E+00 0.  1.
         11    1    1    2    0    0 -0.65372528121E+02 -0.55367221097E+02  0.19483101447E+02  0.87856063233E+02  0.00000000000E+00 0. -1.
</event>
<event>
 7    1  0.2420569E-009  0.1852473E+03  0.7561462E-02  0.1162819E+00
          2   -1    0    0  501    0  0.00000000000E+00  0.00000000000E+00  0.10697689301E+04  0.10697689301E+04  0.00000000000E+00 0. -1.
         -2   -1    0    0    0  501 -0.00000000000E+00 -0.00000000000E+00 -0.35384019543E+02  0.35384019543E+02  0.00000000000E+00 0.  1.
         25    2    1    2    0    0  0.14946083870E+03  0.13166403005E+02  0.50077397840E+03  0.53752629833E+03  0.12509215592E+03 0.  0.
          5    1    3    3  502    0  0.16171885502E+03  0.22951249432E+02  0.35436362541E+03  0.39021891207E+03  0.41800000000E+01 0.  1.
         -5    1    3    3    0  502 -0.12258016318E+02 -0.97848464269E+01  0.14641035299E+03  0.14730738626E+03  0.41800000000E+01 0.  1.
        -11    1    1    2    0    0 -0.14454680952E+03 -0.50575596318E+02  0.38595683877E+03  0.41522807284E+03  0.00000000000E+00 0.  1.
         11    1    1    2    0    0 -0.49140291852E+01  0.37409193314E+02  0.14765409341E+03  0.15239857850E+03  0.00000000000E+00 0. -1.
</event>
<event>
 7    1  0.2420569E-009  0.1125676E+03  0.7561462E-02  0.1255888E+00
         -2   -1    0    0    0  501 -0.00000000000E+00  0.00000000000E+00  0.32974980938E+03  0.32974980938E+03  0.00000000000E+00 0.  1.
          2   -1    0    0  501    0  0.00000000000E+00 -0.00000000000E+00 -0.54680749175E+02  0.54680749175E+02  0.00000000000E+00 0. -1.
         25    2    1    2    0    0 -0.57075486466E+02 -0.14187739611E+02  0.75649767624E+02  0.15756627560E+03  0.12508133655E+03 0.  0.
          5    1    3    3  502    0  0.29298841147E+02 -0.11016838564E+02 -0.12571861875E+02  0.33989953449E+02  0.41800000000E+01 0. -1.
         -5    1    3    3    0  502 -0.86374327613E+02 -0.31709010468E+01  0.88221629499E+02  0.12357632215E+03  0.41800000000E+01 0. -1.
        -11    1    1    2    0    0  0.62083585476E+02  0.44445314003E+02  0.15627613685E+03  0.17393098767E+03  0.00000000000E+00 0.  1.
         11    1    1    2    0    0 -0.50080990099E+01 -0.30257574392E+02  0.43143155728E+02  0.52933295287E+02  0.00000000000E+00 0. -1.
</event>
<event>
 7    1  0.2420569E-009  0.7649278E+02  0.7561462E-02  0.1339310E+00
          2   -1    0    0  501    0  0.00000000000E+00  0.00000000000E+00  0.65295594873E+03  0.65295594873E+03  0.00000000000E+00 0. -1.
         -2   -1    0    0    0  501 -0.00000000000E+00 -0.00000000000E+00 -0.20121742245E+02  0.20121742245E+02  0.00000000000E+00 0.  1.
         25    2    1    2    0    0 -0.65022269749E+01  0.35116454485E+02  0.40195618560E+03  0.42248274380E+03  0.12508976510E+03 0.  0.
          5    1    3    3  502    0  0.62249152203E+01 -0.16339815506E+02  0.34149210118E+03  0.34196500802E+03  0.41800000000E+01 0.  1.
         -5    1    3    3    0  502 -0.12727142195E+02  0.51456269991E+02  0.60464084415E+02  0.80517735773E+02  0.41800000000E+01 0.  1.
        -11    1    1    2    0    0  0.39757300219E+02 -0.25446979342E+02  0.19538072323E+03  0.20100203653E+03  0.00000000000E+00 0. -1.
         11    1    1    2    0    0 -0.33255073244E+02 -0.96694751437E+01  0.35497297651E+02  0.49592910648E+02  0.00000000000E+00 0.  1.
</event>
<event>
 7    1  0.2962763E-009  0.1272454E+03  0.7561462E-02  0.1231601E+00
         -1   -1    0    0    0  501 -0.00000000000E+00  0.00000000000E+00  0.45333390894E+02  0.45333390894E+02  0.00000000000E+00 0.  1.
          1   -1    0    0  501    0  0.00000000000E+00 -0.00000000000E+00 -0.50875673438E+03  0.50875673438E+03  0.00000000000E+00 0. -1.
         25    2    1    2    0    0  0.42708590999E+02 -0.88125993058E+02 -0.32182673998E+03  0.35890394642E+03  0.12509747317E+03 0.  0.
          5    1    3    3  502    0  0.49328475584E+02 -0.10728591991E+02 -0.34636354327E+02  0.61364082578E+02  0.41800000000E+01 0.  1.
         -5    1    3    3    0  502 -0.66198845851E+01 -0.77397401067E+02 -0.28719038565E+03  0.29753986384E+03  0.41800000000E+01 0.  1.
        -11    1    1    2    0    0  0.13855108954E+02  0.62373615182E+02 -0.37893726280E+02  0.74285707955E+02  0.00000000000E+00 0.  1.
         11    1    1    2    0    0 -0.56563699953E+02  0.25752377876E+02 -0.10370287723E+03  0.12090047090E+03  0.00000000000E+00 0. -1.
</event>
<event>
 7    1  0.2420569E-009  0.9359090E+02  0.7561462E-02  0.1294382E+00
         -1   -1    0    0    0  501 -0.00000000000E+00  0.00000000000E+00  0.16688933485E+03  0.16688933485E+03  0.00000000000E+00 0.  1.
          1   -1    0    0  501    0  0.00000000000E+00 -0.00000000000E+00 -0.10041336382E+03  0.10041336382E+03  0.00000000000E+00 0. -1.
         25    2    1    2    0    0 -0.63280997520E+02 -0.21727967932E+02  0.61264657337E+02  0.15452522274E+03  0.12509235383E+03 0.  0.
          5    1    3    3  502    0 -0.20848426706E+02  0.79138992964E+01  0.91611399274E+02  0.94379063224E+02  0.41800000000E+01 0.  1.
         -5    1    3    3    0  502 -0.42432570814E+02 -0.29641867229E+02 -0.30346741936E+02  0.60146159519E+02  0.41800000000E+01 0.  1.
        -11    1    1    2    0    0  0.85753594215E+02  0.26167945867E+02  0.23063828047E+01  0.89687009725E+02  0.00000000000E+00 0.  1.
         11    1    1    2    0    0 -0.22472596695E+02 -0.44399779348E+01  0.29049308910E+01  0.23090466209E+02  0.00000000000E+00 0. -1.
</event>
<event>
 7    1  0.2420569E-009  0.2231887E+03  0.7561462E-02  0.1131528E+00
         -2   -1    0    0    0  501 -0.00000000000E+00  0.00000000000E+00  0.86347999259E+02  0.86347999259E+02  0.00000000000E+00 0. -1.
          2   -1    0    0  501    0  0.00000000000E+00 -0.00000000000E+00 -0.63701717707E+03  0.63701717707E+03  0.00000000000E+00 0.  1.
         25    2    1    2    0    0 -0.10109280984E+03 -0.17933773554E+03 -0.20772486866E+03  0.31808672212E+03  0.12509101542E+03 0.  0.
          5    1    3    3  502    0 -0.76771675253E+01 -0.13774075919E+03 -0.10876664011E+03  0.17572452886E+03  0.41800000000E+01 0.  1.
         -5    1    3    3    0  502 -0.93415642313E+02 -0.41596976349E+02 -0.98958228553E+02  0.14236219326E+03  0.41800000000E+01 0.  1.
        -11    1    1    2    0    0  0.99480069345E+01  0.13333059410E+02 -0.77115001797E+02  0.78888889061E+02  0.00000000000E+00 0.  1.
         11    1    1    2    0    0  0.91144802904E+02  0.16600467613E+03 -0.26582930736E+03  0.32638956515E+03  0.00000000000E+00 0. -1.
</event>
<event>
 7    1  0.2420569E-009  0.1256507E+03  0.7561462E-02  0.1234056E+00
         -3   -1    0    0    0  501 -0.00000000000E+00  0.00000000000E+00  0.15007998682E+03  0.15007998682E+03  0.00000000000E+00 0.  1.
          3   -1    0    0  501    0  0.00000000000E+00 -0.00000000000E+00 -0.16544250785E+03  0.16544250785E+03  0.00000000000E+00 0. -1.
         25    2    1    2    0    0 -0.10418656553E+03 -0.31303753969E+02  0.27914346675E+02  0.16811799816E+03  0.12509870145E+03 0.  0.
          5    1    3    3  502    0 -0.71026414354E+02 -0.30582083878E+02 -0.43816405547E+02  0.88979577350E+02  0.41800000000E+01 0.  1.
         -5    1    3    3    0  502 -0.33160151178E+02 -0.72167009095E+00  0.71730752222E+02  0.79138420810E+02  0.41800000000E+01 0.  1.
        -11    1    1    2    0    0  0.59248523115E+02 -0.28398478919E+02 -0.26329339367E+02  0.70782026022E+02  0.00000000000E+00 0. -1.
         11    1    1    2    0    0  0.44938042418E+02  0.59702232888E+02 -0.16947528335E+02  0.76622470495E+02  0.00000000000E+00 0.  1.
</event>
<event>
 7    1  0.2420569E-009  0.1142648E+03  0.7561462E-02  0.1252870E+00
          2   -1    0    0  501    0  0.00000000000E+00  0.00000000000E+00  0.63938047421E+03  0.63938047421E+03  0.00000000000E+00 0. -1.
         -2   -1    0    0    0  501 -0.00000000000E+00 -0.00000000000E+00 -0.42810189023E+02  0.42810189023E+02  0.00000000000E+00 0.  1.
         25    2    1    2    0    0 -0.48685743018E+02  0.81901850130E+02  0.48490743209E+03  0.50976525072E+03  0.12508868260E+03 0.  0.
          5    1    3    3  502    0  0.19781667560E+02  0.49087307632E+02  0.35728088580E+03  0.36120351867E+03  0.41800000000E+01 0. -1.
         -5    1    3    3    0  502 -0.68467410578E+02  0.32814542499E+02  0.12762654629E+03  0.14856173205E+03  0.41800000000E+01 0. -1.
        -11    1    1    2    0    0  0.45638637245E+02 -0.51357766140E+02  0.14086930580E+02  0.70135204895E+02  0.00000000000E+00 0.  1.
         11    1    1    2    0    0  0.30471057723E+01 -0.30544083990E+02  0.97575922513E+02  0.10229020762E+03  0.00000000000E+00 0. -1.
</event>
<event>
 7    1  0.2420569E-009  0.6207690E+02  0.7561462E-02  0.1389317E+00
          1   -1    0    0  501    0  0.00000000000E+00  0.00000000000E+00  0.25675662578E+02  0.25675662578E+02  0.00000000000E+00 0. -1.
         -1   -1    0    0    0  501 -0.00000000000E+00 -0.00000000000E+00 -0.67491009352E+03  0.67491009352E+03  0.00000000000E+00 0.  1.
         25    2    1    2    0    0  0.14722573409E+02 -0.27404138985E+02 -0.54446505623E+03  0.55951491546E+03  0.12508797772E+03 0.  0.
          5    1    3    3  502    0 -0.51981241409E+01 -0.35284089695E+02 -0.53418151008E+03  0.53538709883E+03  0.41800000000E+01 0. -1.
         -5    1    3    3    0  502  0.19920697550E+02  0.78799507099E+01 -0.10283546144E+02  0.24127816631E+02  0.41800000000E+01 0. -1.
        -11    1    1    2    0    0 -0.11251755853E+02  0.46074212019E+02 -0.15639243961E+02  0.49940173954E+02  0.00000000000E+00 0. -1.
         11    1    1    2    0    0 -0.34708175564E+01 -0.18670073034E+02 -0.89130130750E+02  0.91130666678E+02  0.00000000000E+00 0.  1.
</event>
<event>
 7    1  0.2420569E-009  0.6358054E+02  0.7561462E-02  0.1383392E+00
         -2   -1    0    0    0  501 -0.00000000000E+00  0.00000000000E+00  0.17873257578E+03  0.17873257578E+03  0.00000000000E+00 0.  1.
          2   -1    0    0  501    0  0.00000000000E+00 -0.00000000000E+00 -0.77256330819E+02  0.77256330819E+02  0.00000000000E+00 0. -1.
         25    2    1    2    0    0  0.33452269686E+02  0.17228143929E+02  0.30836227984E+02  0.13421903144E+03  0.12509201475E+03 0.  0.
          5    1    3    3  502    0  0.33448948826E+02  0.12704596936E+01 -0.45207859026E+02  0.56406286556E+02  0.41800000000E+01 0. -1.
         -5    1    3    3    0  502  0.33208596136E-02  0.15957684235E+02  0.76044087009E+02  0.77812744883E+02  0.41800000000E+01 0. -1.
        -11    1    1    2    0    0 -0.20217608791E+02  0.25303620224E+02 -0.61771466401E+01  0.32972443681E+02  0.00000000000E+00 0. -1.
         11    1    1    2    0    0 -0.13234660894E+02 -0.42531764153E+02  0.76817163617E+02  0.88797431478E+02  0.00000000000E+00 0.  1.
</event>
<event>
 7    1  0.2420569E-009  0.1131849E+03  0.7561462E-02  0.1254783E+00
          2   -1    0    0  501    0  0.00000000000E+00  0.00000000000E+00  0.46850474409E+03  0.46850474409E+03  0.00000000000E+00 0. -1.
         -2   -1    0    0    0  501 -0.00000000000E+00 -0.00000000000E+00 -0.45242023309E+02  0.45242023309E+02  0.00000000000E+00 0.  1.
         25    2    1    2    0    0 -0.46839809683E+02 -0.29877095369E+01  0.80414051559E+02  0.15593944090E+03  0.12509114821E+03 0.  0.
          5    1    3    3  502    0 -0.56831607388E+01 -0.56191227126E+02  0.83025170447E+01  0.57237719304E+02  0.41800000000E+01 0. -1.
         -5    1    3    3    0  502 -0.41156648944E+02  0.53203517589E+02  0.72111534515E+02  0.98701721597E+02  0.41800000000E+01 0. -1.
        -11    1    1    2    0    0 -0.27684230706E+02  0.27337363544E+01  0.89214294118E+02  0.93450950874E+02  0.00000000000E+00 0.  1.
         11    1    1    2    0    0  0.74524040389E+02  0.25397318250E+00  0.25363437510E+03  0.26435637562E+03  0.00000000000E+00 0. -1.
</event>
<event>
 7    1  0.2420569E-009  0.1019456E+03  0.7561462E-02  0.1276257E+00
         -2   -1    0    0    0  501 -0.00000000000E+00  0.00000000000E+00  0.24001801655E+02  0.24001801655E+02  0.00000000000E+00 0.  1.
          2   -1    0    0  501    0  0.00000000000E+00 -0.00000000000E+00 -0.69736308026E+03  0.69736308026E+03  0.00000000000E+00 0. -1.
         25    2    1    2    0    0 -0.22243979188E+02 -0.42504557625E+02 -0.22820561668E+03  0.26462703661E+03  0.12509289744E+03 0.  0.
          5    1    3    3  502    0 -0.44206027336E+02  0.97563613483E+01 -0.19182705306E+03  0.19714068612E+03  0.41800000000E+01 0. -1.
         -5    1    3    3    0  502  0.21962048148E+02 -0.52260918973E+02 -0.36378563626E+02  0.67486350489E+02  0.41800000000E+01 0. -1.
        -11    1    1    2    0    0  0.39528494321E+02 -0.14434992648E+02 -0.16014941834E+03  0.16558595070E+03  0.00000000000E+00 0.  1.
         11    1    1    2    0    0 -0.17284515133E+02  0.56939550273E+02 -0.28500624359E+03  0.29115189460E+03  0.00000000000E+00 0. -1.
</event>
<event>
 7    1  0.2420569E-009  0.1061013E+03  0.7561462E-02  0.1267965E+00
         -4   -1    0    0    0  501 -0.00000000000E+00  0.00000000000E+00  0.26129464521E+03  0.26129464521E+03  0.00000000000E+00 0.  1.
          4   -1    0    0  501    0  0.00000000000E+00 -0.00000000000E+00 -0.81627660069E+02  0.81627660069E+02  0.00000000000E+00 0. -1.
         25    2    1    2    0    0  0.65357458282E+02  0.34341376389E+02  0.17427457321E+03  0.22686897889E+03  0.12508788602E+03 0.  0.
          5    1    3    3  502    0  0.37716122983E+02 -0.33923440213E+02  0.13284863969E+03  0.14226573445E+03  0.41800000000E+01 0.  1.
         -5    1    3    3    0  502  0.27641335299E+02  0.68264816602E+02  0.41425933520E+02  0.84603244446E+02  0.41800000000E+01 0.  1.
        -11    1    1    2    0    0 -0.31977864154E+02  0.86310352275E+01  0.39718917367E+02  0.51717221134E+02  0.00000000000E+00 0.  1.
         11    1    1    2    0    0 -0.33379594128E+02 -0.42972411616E+02 -0.34326505436E+02  0.64336105258E+02  0.00000000000E+00 0. -1.
</event>
<event>
 7    1  0.2420569E-009  0.9450200E+02  0.7561462E-02  0.1292302E+00
          1   -1    0    0  501    0  0.00000000000E+00  0.00000000000E+00  0.10779110155E+03  0.10779110155E+03  0.00000000000E+00 0. -1.
         -1   -1    0    0    0  501 -0.00000000000E+00 -0.00000000000E+00 -0.21224400442E+03  0.21224400442E+03  0.00000000000E+00 0.  1.
         25    2    1    2    0    0 -0.16391805274E+02 -0.27796874870E+01  0.52401863777E+02  0.13663904004E+03  0.12509138257E+03 0.  0.
          5    1    3    3  502    0 -0.56846204574E+02 -0.27932418327E+02 -0.28844910156E+01  0.63541353908E+02  0.41800000000E+01 0.  1.
         -5    1    3    3    0  502  0.40454399300E+02  0.25152730840E+02  0.55286354793E+02  0.73097686131E+02  0.41800000000E+01 0.  1.
        -11    1    1    2    0    0  0.36846877526E+02  0.27240147696E+02 -0.35621680512E+02  0.58039832463E+02  0.00000000000E+00 0. -1.
         11    1    1    2    0    0 -0.20455072252E+02 -0.24460460209E+02 -0.12123308614E+03  0.12535623346E+03  0.00000000000E+00 0.  1.
</event>
<event>
 7    1  0.2420569E-009  0.1049652E+03  0.7561462E-02  0.1270188E+00
          1   -1    0    0  501    0  0.00000000000E+00  0.00000000000E+00  0.46752331191E+03  0.46752331191E+03  0.00000000000E+00 0. -1.
         -1   -1    0    0    0  501 -0.00000000000E+00 -0.00000000000E+00 -0.27844423150E+02  0.27844423150E+02  0.00000000000E+00 0.  1.
         25    2    1    2    0    0  0.24246748669E+02 -0.23996262991E+02  0.27735507616E+03  0.30616406334E+03  0.12508744921E+03 0.  0.
          5    1    3    3  502    0 -0.33405910455E+02 -0.53735934273E+02  0.15809690775E+03  0.17033969040E+03  0.41800000000E+01 0. -1.
         -5    1    3    3    0  502  0.57652659124E+02  0.29739671282E+02  0.11925816841E+03  0.13582437294E+03  0.41800000000E+01 0. -1.
        -11    1    1    2    0    0  0.12482066793E+02 -0.20386468321E+02  0.10590493276E+03  0.10856917087E+03  0.00000000000E+00 0. -1.
         11    1    1    2    0    0 -0.36728815462E+02  0.44382731312E+02  0.56418879845E+02  0.80634500848E+02  0.00000000000E+00 0.  1.
</event>
<event>
 7    1  0.2420569E-009  0.1553528E+03  0.7561462E-02  0.1194046E+00
         -1   -1    0    0    0  501 -0.00000000000E+00  0.00000000000E+00  0.11421184360E+03  0.11421184360E+03  0.00000000000E+00 0. -1.
          1   -1    0    0  501    0  0.00000000000E+00 -0.00000000000E+00 -0.31719978969E+03  0.31719978969E+03  0.00000000000E+00 0.  1.
         25    2    1    2    0    0  0.10718833717E+03 -0.99876485642E+02 -0.46564639177E+02  0.19819253755E+03  0.12508942526E+03 0.  0.
          5    1    3    3  502    0  0.10110420671E+03 -0.74585251741E+02  0.19367579179E+02  0.12719117860E+03  0.41800000000E+01 0. -1.
         -5    1    3    3    0  502  0.60841304659E+01 -0.25291233901E+02 -0.65932218357E+02  0.71001358953E+02  0.41800000000E+01 0. -1.
        -11    1    1    2    0    0 -0.22947865721E+02  0.62333768596E+02 -0.11346460267E+03  0.13147744790E+03  0.00000000000E+00 0.  1.
         11    1    1    2    0    0 -0.84240471450E+02  0.37542717046E+02 -0.42958704244E+02  0.10174164783E+03  0.00000000000E+00 0. -1.
</event>
<event>
 7    1  0.2420569E-009  0.1212067E+03  0.7561462E-02  0.1241119E+00
         -2   -1    0    0    0  501 -0.00000000000E+00  0.00000000000E+00  0.10500618085E+03  0.10500618085E+03  0.00000000000E+00 0.  1.
          2   -1    0    0  501    0  0.00000000000E+00 -0.00000000000E+00 -0.15420843716E+03  0.15420843716E+03  0.00000000000E+00 0. -1.
         25    2    1    2    0    0  0.62966048236E+02  0.11020328291E+02 -0.50453566214E+02  0.14926796132E+03  0.12509672685E+03 0.  0.
          5    1    3    3  502    0  0.49516761911E+02  0.63322120280E+02 -0.50650340156E+02  0.95102733845E+02  0.41800000000E+01 0. -1.
         -5    1    3    3    0  502  0.13449286324E+02 -0.52301791989E+02  0.19677394178E+00  0.54165227479E+02  0.41800000000E+01 0. -1.
        -11    1    1    2    0    0  0.22013231288E+02  0.37228424051E+00  0.91542008063E+01  0.23843664561E+02  0.00000000000E+00 0.  1.
         11    1    1    2    0    0 -0.84979279524E+02 -0.11392612532E+02 -0.79028909062E+01  0.86102992128E+02  0.00000000000E+00 0. -1.
</event>
<event>
 7    1  0.2420569E-009  0.1251934E+03  0.7561462E-02  0.1234767E+00
         -2   -1    0    0    0  501 -0.00000000000E+00  0.00000000000E+00  0.17288814072E+03  0.17288814072E+03  0.00000000000E+00 0.  1.
          2   -1    0    0  501    0  0.00000000000E+00 -0.00000000000E+00 -0.10345136481E+03  0.10345136481E+03  0.00000000000E+00 0. -1.
         25    2    1    2    0    0  0.61069763295E+02  0.35928565349E+02  0.65315911367E+02  0.15790464058E+03  0.12508928589E+03 0.  0.
          5    1    3    3  502    0  0.14490173904E+02 -0.45047012112E+02  0.36961885324E+02  0.60190130476E+02  0.41800000000E+01 0. -1.
         -5    1    3    3    0  502  0.46579589391E+02  0.80975577461E+02  0.28354026042E+02  0.97714510109E+02  0.41800000000E+01 0. -1.
        -11    1    1    2    0    0 -0.60452554230E+02 -0.60069976020E+02  0.22435262204E+02  0.88126354300E+02  0.00000000000E+00 0.  1.
         11    1    1    2    0    0 -0.61720906467E+00  0.24141410671E+02 -0.18314397657E+02  0.30308510649E+02  0.00000000000E+00 0. -1.
</event>
<event>
 7    1  0.2420569E-009  0.9803456E+02  0.7561462E-02  0.1284484E+00
          1   -1    0    0  501    0  0.00000000000E+00  0.00000000000E+00  0.47298113663E+02  0.47298113663E+02  0.00000000000E+00 0. -1.
         -1   -1    0    0    0  501 -0.00000000000E+00 -0.00000000000E+00 -0.29307934125E+03  0.29307934125E+03  0.00000000000E+00 0.  1.
         25    2    1    2    0    0 -0.18141216945E+02  0.16534210811E+01 -0.78964596374E+02  0.14904546590E+03  0.12508919166E+03 0.  0.
          5    1    3    3  502    0 -0.48698354293E+01 -0.50582569987E+02 -0.80128470856E+02  0.94975554357E+02  0.41800000000E+01 0. -1.
         -5    1    3    3    0  502 -0.13271381515E+02  0.52235991068E+02  0.11638744829E+01  0.54069911541E+02  0.41800000000E+01 0. -1.
        -11    1    1    2    0    0 -0.22061722005E+02  0.31813036517E+02 -0.49181852005E+02  0.62591081129E+02  0.00000000000E+00 0. -1.
         11    1    1    2    0    0  0.40202938949E+02 -0.33466457598E+02 -0.11763477921E+03  0.12874090789E+03  0.00000000000E+00 0.  1.
</event>
<event>
 7    1  0.2420569E-009  0.1388181E+03  0.7561462E-02  0.1214928E+00
         -1   -1    0    0    0  501 -0.00000000000E+00  0.00000000000E+00  0.20845704368E+03  0.20845704368E+03  0.00000000000E+00 0.  1.
          1   -1    0    0  501    0  0.00000000000E+00 -0.00000000000E+00 -0.12697184254E+03  0.12697184254E+03  0.00000000000E+00 0. -1.
         25    2    1    2    0    0 -0.92798979949E+02 -0.56622539682E+02 -0.11509785010E+02  0.16612777542E+03  0.12509276532E+03 0.  0.
          5    1    3    3  502    0 -0.44203829433E+02 -0.79230913390E+02  0.32693171179E+02  0.96528918024E+02  0.41800000000E+01 0. -1.
         -5    1    3    3    0  502 -0.48595150516E+02  0.22608373707E+02 -0.44202956189E+02  0.69598857399E+02  0.41800000000E+01 0. -1.
        -11    1    1    2    0    0  0.52590762666E+02 -0.11607404734E+02  0.66969048437E+02  0.85938196461E+02  0.00000000000E+00 0.  1.
         11    1    1    2    0    0  0.40208217283E+02  0.68229944416E+02  0.26025937713E+02  0.83362914332E+02  0.00000000000E+00 0. -1.
</event>
<event>
 7    1  0.2420569E-009  0.1416933E+03  0.7561462E-02  0.1211068E+00
         -1   -1    0    0    0  501 -0.00000000000E+00  0.00000000000E+00  0.48791183951E+03  0.48791183951E+03  0.00000000000E+00 0.  1.
          1   -1    0    0  501    0  0.00000000000E+00 -0.00000000000E+00 -0.56547406080E+02  0.56547406080E+02  0.00000000000E+00 0. -1.
         25    2    1    2    0    0 -0.10589966852E+03  0.38748047556E+02  0.31711882984E+03  0.35906587157E+03  0.12509115441E+03 0.  0.
          5    1    3    3  502    0 -0.95769321779E+02 -0.16200271254E+02  0.26604031921E+03  0.28324748124E+03  0.41800000000E+01 0.  1.
         -5    1    3    3    0  502 -0.10130346739E+02  0.54948318810E+02  0.51078510625E+02  0.75818390334E+02  0.41800000000E+01 0.  1.
        -11    1    1    2    0    0  0.96847159324E+02 -0.69739639059E+01  0.41689707046E+02  0.10566948526E+03  0.00000000000E+00 0. -1.
         11    1    1    2    0    0  0.90525091950E+01 -0.31774083650E+02  0.72555896545E+02  0.79723888754E+02  0.00000000000E+00 0.  1.
</event>
<event>
 7    1  0.2420569E-009  0.1386074E+03  0.7561462E-02  0.1215215E+00
          3   -1    0    0  501    0  0.00000000000E+00  0.00000000000E+00  0.28766238541E+02  0.28766238541E+02  0.00000000000E+00 0. -1.
         -3   -1    0    0    0  501 -0.00000000000E+00 -0.00000000000E+00 -0.68588181561E+03  0.68588181561E+03  0.00000000000E+00 0.  1.
         25    2    1    2    0    0 -0.89039096511E+02 -0.28274604943E+01 -0.31490172914E+03  0.35035027913E+03  0.12508502640E+03 0.  0.
          5    1    3    3  502    0 -0.10671296736E+03  0.34157358687E+02 -0.23869038564E+03  0.26371377505E+03  0.41800000000E+01 0. -1.
         -5    1    3    3    0  502  0.17673870849E+02 -0.36984819181E+02 -0.76211343495E+02  0.86636504073E+02  0.41800000000E+01 0. -1.
        -11    1    1    2    0    0 -0.76585811169E+01  0.23747954187E+02 -0.89337052283E+02  0.92756283364E+02  0.00000000000E+00 0.  1.
         11    1    1    2    0    0  0.96697677628E+02 -0.20920493693E+02 -0.25287679565E+03  0.27154149166E+03  0.00000000000E+00 0. -1.
</event>
<event>
 7    1  0.2420569E-009  0.2227582E+03  0.7561462E-02  0.1131843E+00
         -3   -1    0    0    0  501 -0.00000000000E+00  0.00000000000E+00  0.90449940020E+02  0.90449940020E+02  0.00000000000E+00 0.  1.
          3   -1    0    0  501    0  0.00000000000E+00 -0.00000000000E+00 -0.66120306512E+03  0.66120306512E+03  0.00000000000E+00 0. -1.
         25    2    1    2    0    0  0.58950623745E+00 -0.21862953418E+03 -0.32472811746E+03  0.41096731673E+03  0.12508622793E+03 0.  0.
          5    1    3    3  502    0  0.14481235918E+02 -0.19246217318E+03 -0.32828088480E+03  0.38083750606E+03  0.41800000000E+01 0. -1.
         -5    1    3    3    0  502 -0.13891729681E+02 -0.26167361007E+02  0.35527673348E+01  0.30129810675E+02  0.41800000000E+01 0. -1.
        -11    1    1    2    0    0  0.18874640749E+02  0.64915737992E+02 -0.13201687534E+03  0.14831979126E+03  0.00000000000E+00 0. -1.
         11    1    1    2    0    0 -0.19464146987E+02  0.15371379619E+03 -0.11400813229E+03  0.19236589715E+03  0.00000000000E+00 0.  1.
</event>
<event>
 7    1  0.2420569E-009  0.1687365E+03  0.7561462E-02  0.1179172E+00
          2   -1    0    0  501    0  0.00000000000E+00  0.00000000000E+00  0.85352110999E+03  0.85352110999E+03  0.00000000000E+00 0. -1.
         -2   -1    0    0    0  501 -0.00000000000E+00 -0.00000000000E+00 -0.52718880824E+02  0.52718880824E+02  0.00000000000E+00 0.  1.
         25    2    1    2    0    0  0.14699508194E+03  0.51543434144E+02  0.61718736302E+03  0.64871570191E+03  0.12509013199E+03 0.  0.
          5    1    3    3  502    0  0.11396179777E+03  0.47536505235E+02  0.23901158422E+03  0.26905579435E+03  0.41800000000E+01 0.  1.
         -5    1    3    3    0  502  0.33033284168E+02  0.40069289089E+01  0.37817577880E+03  0.37965990756E+03  0.41800000000E+01 0.  1.
        -11    1    1    2    0    0 -0.14084207135E+03 -0.72597637204E+02  0.15738402152E+03  0.22333077759E+03  0.00000000000E+00 0.  1.
         11    1    1    2    0    0 -0.61530105960E+01  0.21054203060E+02  0.26230844632E+02  0.34193511314E+02  0.00000000000E+00 0. -1.
</event>
<event>
 7    1  0.2420569E-009  0.1346891E+03  0.7561462E-02  0.1220659E+00
          1   -1    0    0  501    0  0.00000000000E+00  0.00000000000E+00  0.29473307923E+03  0.29473307923E+03  0.00000000000E+00 0. -1.
         -1   -1    0    0    0  501 -0.00000000000E+00 -0.00000000000E+00 -0.64796891632E+02  0.64796891632E+02  0.00000000000E+00 0.  1.
         25    2    1    2    0    0  0.86519949558E+02 -0.10859457624E+02  0.13039234458E+03  0.20063288698E+03  0.12509101615E+03 0.  0.
          5    1    3    3  502    0  0.96925021216E+02  0.32306876946E+02  0.63929093611E+02  0.12059268405E+03  0.41800000000E+01 0.  1.
         -5    1    3    3    0  502 -0.10405071658E+02 -0.43166334570E+02  0.66463250967E+02  0.80040202933E+02  0.41800000000E+01 0.  1.
        -11    1    1    2    0    0 -0.98378806367E+02  0.27446716540E+02  0.90980587937E+02  0.13678150157E+03  0.00000000000E+00 0. -1.
         11    1    1    2    0    0  0.11858856810E+02 -0.16587258916E+02  0.85632550809E+01  0.22115582307E+02  0.00000000000E+00 0.  1.
</event>
<event>
 7    1  0.2420569E-009  0.8285477E+02  0.7561462E-02  0.1321140E+00
          3   -1    0    0  501    0  0.00000000000E+00  0.00000000000E+00  0.10115508450E+03  0.10115508450E+03  0.00000000000E+00 0. -1.
         -3   -1    0    0    0  501 -0.00000000000E+00 -0.00000000000E+00 -0.14685589636E+03  0.14685589636E+03  0.00000000000E+00 0.  1.
         25    2    1    2    0    0  0.55456387662E+02 -0.37774463927E+01 -0.17274458393E+02  0.13797112090E+03  0.12509173936E+03 0.  0.
          5    1    3    3  502    0  0.39865786491E+02  0.68437530398E+01  0.52023056100E+02  0.66030210163E+02  0.41800000000E+01 0.  1.
         -5    1    3    3    0  502  0.15590601170E+02 -0.10621199432E+02 -0.69297514493E+02  0.71940910733E+02  0.41800000000E+01 0.  1.
        -11    1    1    2    0    0 -0.71446633558E+02  0.27967564676E+02 -0.15422759410E+02  0.78260255740E+02  0.00000000000E+00 0.  1.
         11    1    1    2    0    0  0.15990245896E+02 -0.24190118284E+02 -0.13003594055E+02  0.31779604226E+02  0.00000000000E+00 0. -1.
</event>
<event>
 7    1  0.2420569E-009  0.1152787E+03  0.7561462E-02  0.1251095E+00
          1   -1    0    0  501    0  0.00000000000E+00  0.00000000000E+00  0.91339243047E+02  0.91339243047E+02  0.00000000000E+00 0. -1.
         -1   -1    0    0    0  501 -0.00000000000E+00 -0.00000000000E+00 -0.19292777722E+03  0.19292777722E+03  0.00000000000E+00 0.  1.
         25    2    1    2    0    0 -0.74373814927E+02  0.79467990617E+01 -0.33745375664E+02  0.14959681485E+03  0.12508333491E+03 0.  0.
          5    1    3    3  502    0  0.12407295446E+02  0.36068481351E+02  0.20374413351E+02  0.43444970326E+02  0.41800000000E+01 0. -1.
         -5    1    3    3    0  502 -0.86781110373E+02 -0.28121682290E+02 -0.54119789015E+02  0.10615184452E+03  0.41800000000E+01 0. -1.
        -11    1    1    2    0    0  0.83880030623E+02  0.58815932023E+01 -0.78300788720E+02  0.11489763353E+03  0.00000000000E+00 0.  1.
         11    1    1    2    0    0 -0.95062156958E+01 -0.13828392264E+02  0.10457630213E+02  0.19772571890E+02  0.00000000000E+00 0. -1.
</event>
<event>
 7    1  0.2420569E-009  0.4219378E+03  0.7561462E-02  0.1036437E+00
         -2   -1    0    0    0  501 -0.00000000000E+00  0.00000000000E+00  0.11357009593E+03  0.11357009593E+03  0.00000000000E+00 0.  1.
          2   -1    0    0  501    0  0.00000000000E+00 -0.00000000000E+00 -0.15862301141E+04  0.15862301141E+04  0.00000000000E+00 0. -1.
         25    2    1    2    0    0  0.19771883255E+03  0.35779669721E+03 -0.81178573023E+03  0.91747181302E+03  0.12508893879E+03 0.  0.
          5    1    3    3  502    0  0.87460854909E+02  0.54935318700E+02 -0.23500036767E+03  0.25672930411E+03  0.41800000000E+01 0.  1.
         -5    1    3    3    0  502  0.11025797764E+03  0.30286137851E+03 -0.57678536256E+03  0.66074250891E+03  0.41800000000E+01 0.  1.
        -11    1    1    2    0    0 -0.87793574429E+02 -0.77549412084E+02 -0.16840774862E+03  0.20514090968E+03  0.00000000000E+00 0. -1.
         11    1    1    2    0    0 -0.10992525812E+03 -0.28024728512E+03 -0.49246653928E+03  0.57718748730E+03  0.00000000000E+00 0.  1.
</event>
<event>
 7    1  0.2420569E-009  0.1093715E+03  0.7561462E-02  0.1261738E+00
         -3   -1    0    0    0  501 -0.00000000000E+00  0.00000000000E+00  0.60692179313E+03  0.60692179313E+03  0.00000000000E+00 0.  1.
          3   -1    0    0  501    0  0.00000000000E+00 -0.00000000000E+00 -0.22779939578E+02  0.22779939578E+02  0.00000000000E+00 0. -1.
         25    2    1    2    0    0  0.29731270993E+02  0.17606354777E+02  0.38309482733E+03  0.40447891851E+03  0.12509043365E+03 0.  0.
          5    1    3    3  502    0  0.58560614562E+02 -0.26800576035E+02  0.29187550321E+03  0.29892540579E+03  0.41800000000E+01 0. -1.
         -5    1    3    3    0  502 -0.28829343569E+02  0.44406930812E+02  0.91219324117E+02  0.10555351272E+03  0.41800000000E+01 0. -1.
        -11    1    1    2    0    0  0.13675795599E+02 -0.46818523760E+02  0.10724338654E+03  0.11781402934E+03  0.00000000000E+00 0.  1.
         11    1    1    2    0    0 -0.43407066592E+02  0.29212168983E+02  0.93803639688E+02  0.10740878486E+03  0.00000000000E+00 0. -1.
</event>
<event>
 7    1  0.2420569E-009  0.8342722E+02  0.7561462E-02  0.1319598E+00
          1   -1    0    0  501    0  0.00000000000E+00  0.00000000000E+00  0.86821916955E+02  0.86821916955E+02  0.00000000000E+00 0. -1.
         -1   -1    0    0    0  501 -0.00000000000E+00 -0.00000000000E+00 -0.22068244747E+03  0.22068244747E+03  0.00000000000E+00 0.  1.
         25    2    1    2    0    0 -0.33424241481E+01 -0.46679963617E+02  0.65090024494E+01  0.13371765607E+03  0.12509138112E+03 0.  0.
          5    1    3    3  502    0 -0.25989918441E+02 -0.51313448057E+02  0.55089764145E+02  0.79755252652E+02  0.41800000000E+01 0.  1.
         -5    1    3    3    0  502  0.22647494293E+02  0.46334844400E+01 -0.48580761695E+02  0.53962403419E+02  0.41800000000E+01 0.  1.
        -11    1    1    2    0    0 -0.23524062318E+02  0.53092095138E+02 -0.42143770095E+02  0.71751302650E+02  0.00000000000E+00 0. -1.
         11    1    1    2    0    0  0.26866486466E+02 -0.64121315216E+01 -0.98225762871E+02  0.10203540570E+03  0.00000000000E+00 0.  1.
</event>
<event>
 7    1  0.2420569E-009  0.1732005E+03  0.7561462E-02  0.1174551E+00
          1   -1    0    0  501    0  0.00000000000E+00  0.00000000000E+00  0.76456228018E+03  0.76456228018E+03  0.00000000000E+00 0. -1.
         -1   -1    0    0    0  501 -0.00000000000E+00 -0.00000000000E+00 -0.51536824606E+02  0.51536824606E+02  0.00000000000E+00 0.  1.
         25    2    1    2    0    0 -0.87980028628E+02  0.11831467194E+03  0.21714406164E+03  0.29074874260E+03  0.12507773897E+03 0.  0.
          5    1    3    3  502    0 -0.41268734882E+02 -0.15580913127E+02  0.89673083571E+02  0.10002303560E+03  0.41800000000E+01 0.  1.
         -5    1    3    3    0  502 -0.46711293746E+02  0.13389558507E+03  0.12747097806E+03  0.19072570701E+03  0.41800000000E+01 0.  1.
        -11    1    1    2    0    0  0.51577228976E+02 -0.19890444140E+02  0.85888953648E+02  0.10214084724E+03  0.00000000000E+00 0.  1.
         11    1    1    2    0    0  0.36402799652E+02 -0.98424227802E+02  0.40999244029E+03  0.42320951494E+03  0.00000000000E+00 0. -1.
</event>
<event>
 7    1  0.2420569E-009  0.1085152E+03  0.7561462E-02  0.1263344E+00
          1   -1    0    0  501    0  0.00000000000E+00  0.00000000000E+00  0.39173274940E+03  0.39173274940E+03  0.00000000000E+00 0. -1.
         -1   -1    0    0    0  501 -0.00000000000E+00 -0.00000000000E+00 -0.34985147272E+02  0.34985147272E+02  0.00000000000E+00 0.  1.
         25    2    1    2    0    0  0.17150511705E+00  0.43044737070E+02  0.18435322880E+03  0.22690648512E+03  0.12509021233E+03 0.  0.
          5    1    3    3  502    0 -0.56419162285E+01 -0.36163660634E+02  0.11707933893E+03  0.12273828080E+03  0.41800000000E+01 0.  1.
         -5    1    3    3    0  502  0.58134213456E+01  0.79208397704E+02  0.67273889862E+02  0.10416820432E+03  0.41800000000E+01 0.  1.
        -11    1    1    2    0    0 -0.44885917016E+02 -0.12792535309E+02  0.88367801372E+02  0.99936293834E+02  0.00000000000E+00 0. -1.
         11    1    1    2    0    0  0.44714411898E+02 -0.30252201761E+02  0.84026571962E+02  0.99875117714E+02  0.00000000000E+00 0.  1.
</event>
<event>
 7    1  0.2420569E-009  0.1164358E+03  0.7561462E-02  0.1249095E+00
          1   -1    0    0  501    0  0.00000000000E+00  0.00000000000E+00  0.55193659051E+03  0.55193659051E+03  0.00000000000E+00 0. -1.
         -1   -1    0    0    0  501 -0.00000000000E+00 -0.00000000000E+00 -0.46223507110E+02  0.46223507110E+02  0.00000000000E+00 0.  1.
         25    2    1    2    0    0  0.82932446146E+01 -0.67473691369E+02  0.46336782009E+03  0.48474557395E+03  0.12508820023E+03 0.  0.
          5    1    3    3  502    0 -0.14272898105E+02 -0.95125959954E+02  0.24148189512E+03  0.25996854031E+03  0.41800000000E+01 0.  1.
         -5    1    3    3    0  502  0.22566142720E+02  0.27652268585E+02  0.22188592497E+03  0.22477703365E+03  0.41800000000E+01 0.  1.
        -11    1    1    2    0    0  0.22437842610E+02  0.66197864440E+02  0.13382361171E+02  0.71166717136E+02  0.00000000000E+00 0. -1.
         11    1    1    2    0    0 -0.30731087225E+02  0.12758269287E+01  0.28962902134E+02  0.42247806528E+02  0.00000000000E+00 0.  1.
</event>
<event>
 7    1  0.2420569E-009  0.1026200E+03  0.7561462E-02  0.1274881E+00
         -2   -1    0    0    0  501 -0.00000000000E+00  0.00000000000E+00  0.51147143908E+02  0.51147143908E+02  0.00000000000E+00 0.  1.
          2   -1    0    0  501    0  0.00000000000E+00 -0.00000000000E+00 -0.41313958062E+03  0.41313958062E+03  0.00000000000E+00 0. -1.
         25    2    1    2    0    0 -0.28344266860E+02  0.90965054340E+02 -0.20889913474E+03  0.26146547159E+03  0.12508919124E+03 0.  0.
          5    1    3    3  502    0 -0.39565557385E+02  0.44629727904E+02 -0.14854871385E+02  0.61606700511E+02  0.41800000000E+01 0.  1.
         -5    1    3    3    0  502  0.11221290525E+02  0.46335326435E+02 -0.19404426335E+03  0.19985877108E+03  0.41800000000E+01 0.  1.
        -11    1    1    2    0    0  0.22310545861E+00 -0.34618832067E+02  0.27568213483E+01  0.34729143003E+02  0.00000000000E+00 0.  1.
         11    1    1    2    0    0  0.28121161402E+02 -0.56346222272E+02 -0.15585012332E+03  0.16809210993E+03  0.00000000000E+00 0. -1.
</event>
<event>
 7    1  0.2420569E-009  0.1238816E+03  0.7561462E-02  0.1236828E+00
          2   -1    0    0  501    0  0.00000000000E+00  0.00000000000E+00  0.19758605315E+04  0.19758605315E+04  0.00000000000E+00 0. -1.
         -2   -1    0    0    0  501 -0.00000000000E+00 -0.00000000000E+00 -0.10351566774E+02  0.10351566774E+02  0.00000000000E+00 0.  1.
         25    2    1    2    0    0  0.72391246249E+02 -0.19949992949E+02  0.14216661483E+04  0.14291326557E+04  0.12508803244E+03 0.  0.
          5    1    3    3  502    0  0.97582998612E+02  0.10185316289E+02  0.11969226786E+04  0.12009444422E+04  0.41800000000E+01 0.  1.
         -5    1    3    3    0  502 -0.25191752363E+02 -0.30135309238E+02  0.22474346965E+03  0.22818821354E+03  0.41800000000E+01 0.  1.
        -11    1    1    2    0    0  0.28871113763E+01 -0.23142219530E+02  0.44319368000E+02  0.50080975597E+02  0.00000000000E+00 0.  1.
         11    1    1    2    0    0 -0.75278357625E+02  0.43092212479E+02  0.49952344851E+03  0.50699846697E+03  0.00000000000E+00 0. -1.
</event>
<event>
 7    1  0.2420569E-009  0.1082393E+03  0.7561462E-02  0.1263866E+00
         -2   -1    0    0    0  501 -0.00000000000E+00  0.00000000000E+00  0.65383229434E+03  0.65383229434E+03  0.00000000000E+00 0. -1.
          2   -1    0    0  501    0  0.00000000000E+00 -0.00000000000E+00 -0.23192606457E+02  0.23192606457E+02  0.00000000000E+00 0.  1.
         25    2    1    2    0    0 -0.40261157783E+02  0.34257400804E+02  0.29947845708E+03  0.32882944272E+03  0.12508767249E+03 0.  0.
          5    1    3    3  502    0  0.63940366162E+01 -0.31230796627E+02  0.19725555618E+02  0.37720237362E+02  0.41800000000E+01 0. -1.
         -5    1    3    3    0  502 -0.46655194399E+02  0.65488197432E+02  0.27975290146E+03  0.29110920536E+03  0.41800000000E+01 0. -1.
        -11    1    1    2    0    0 -0.12011164176E+02 -0.48229998514E+02  0.20465065326E+03  0.21059983547E+03  0.00000000000E+00 0. -1.
         11    1    1    2    0    0  0.52272321959E+02  0.13972597710E+02  0.12651057754E+03  0.13759562260E+03  0.00000000000E+00 0.  1.
</event>
<event>
 7    1  0.2420569E-009  0.8727682E+02  0.7561462E-02  0.1309584E+00
         -2   -1    0    0    0  501 -0.00000000000E+00  0.00000000000E+00  0.49708839139E+03  0.49708839139E+03  0.00000000000E+00 0.  1.
          2   -1    0    0  501    0  0.00000000000E+00 -0.00000000000E+00 -0.51623413426E+02  0.51623413426E+02  0.00000000000E+00 0. -1.
         25    2    1    2    0    0  0.66725505009E+02 -0.29118813349E+02  0.79600892327E+02  0.16517084840E+03  0.12507960982E+03 0.  0.
          5    1    3    3  502    0  0.38644352648E+01  0.69519278767E+01 -0.31332380420E+02  0.32595300641E+02  0.41800000000E+01 0.  1.
         -5    1    3    3    0  502  0.62861069744E+02 -0.36070741225E+02  0.11093327275E+03  0.13257554776E+03  0.41800000000E+01 0.  1.
        -11    1    1    2    0    0 -0.53746128464E+02  0.46644584855E+02  0.34842190429E+03  0.35561522325E+03  0.00000000000E+00 0. -1.
         11    1    1    2    0    0 -0.12979376545E+02 -0.17525771506E+02  0.17442181349E+02  0.27925733162E+02  0.00000000000E+00 0.  1.
</event>
<event>
 7    1  0.2420569E-009  0.2345400E+03  0.7561462E-02  0.1123484E+00
          2   -1    0    0  501    0  0.00000000000E+00  0.00000000000E+00  0.33771628405E+03  0.33771628405E+03  0.00000000000E+00 0. -1.
         -2   -1    0    0    0  501 -0.00000000000E+00 -0.00000000000E+00 -0.23248553747E+03  0.23248553747E+03  0.00000000000E+00 0.  1.
         25    2    1    2    0    0 -0.17572175652E+03  0.15049928907E+03  0.17036553167E+03  0.31336830898E+03  0.12508841261E+03 0.  0.
          5    1    3    3  502    0  0.10685886529E+01  0.73008055889E+01  0.59767756839E+02  0.60366388011E+02  0.41800000000E+01 0.  1.
         -5    1    3    3    0  502 -0.17679034518E+03  0.14319848348E+03  0.11059777483E+03  0.25300192097E+03  0.41800000000E+01 0.  1.
        -11    1    1    2    0    0  0.72286338679E+02 -0.44177725398E+02  0.18261148489E+02  0.86662885511E+02  0.00000000000E+00 0. -1.
         11    1    1    2    0    0  0.10343541785E+03 -0.10632156367E+03 -0.83395933572E+02  0.17017062703E+03  0.00000000000E+00 0.  1.
</event>
<event>
 7    1  0.2420569E-009  0.7054292E+02  0.7561462E-02  0.1358257E+00
          3   -1    0    0  501    0  0.00000000000E+00  0.00000000000E+00  0.89881454467E+03  0.89881454467E+03  0.00000000000E+00 0. -1.
         -3   -1    0    0    0  501 -0.00000000000E+00 -0.00000000000E+00 -0.14596193707E+02  0.14596193707E+02  0.00000000000E+00 0.  1.
         25    2    1    2    0    0  0.20723175682E+02  0.18658645866E+01  0.63384718202E+03  0.64640783945E+03  0.12509161956E+03 0.  0.
          5    1    3    3  502    0 -0.16357027802E+01  0.20735633007E+02  0.13051289553E+02  0.24908844991E+02  0.41800000000E+01 0. -1.
         -5    1    3    3    0  502  0.22358878462E+02 -0.18869768420E+02  0.62079589247E+03  0.62149899446E+03  0.41800000000E+01 0. -1.
        -11    1    1    2    0    0  0.21043182537E+02  0.30792991146E+02  0.74508566983E+02  0.83321968225E+02  0.00000000000E+00 0.  1.
         11    1    1    2    0    0 -0.41766358219E+02 -0.32658855732E+02  0.17586260195E+03  0.18368093070E+03  0.00000000000E+00 0. -1.
</event>
<event>
 7    1  0.2420569E-009  0.1625489E+03  0.7561462E-02  0.1185849E+00
         -1   -1    0    0    0  501 -0.00000000000E+00  0.00000000000E+00  0.22351722427E+03  0.22351722427E+03  0.00000000000E+00 0.  1.
          1   -1    0    0  501    0  0.00000000000E+00 -0.00000000000E+00 -0.37886207470E+03  0.37886207470E+03  0.00000000000E+00 0. -1.
         25    2    1    2    0    0 -0.58534833480E+02  0.10166919027E+03  0.16978765003E+03  0.24131673721E+03  0.12507186164E+03 0.  0.
          5    1    3    3  502    0  0.33069416708E+02  0.13533166297E+01  0.19304790833E+02  0.38543029673E+02  0.41800000000E+01 0.  1.
         -5    1    3    3    0  502 -0.91604250188E+02  0.10031587364E+03  0.15048285919E+03  0.20277370754E+03  0.41800000000E+01 0.  1.
        -11    1    1    2    0    0 -0.15383792683E+02 -0.76054622122E+02 -0.13969701001E+03  0.15980056705E+03  0.00000000000E+00 0.  1.
         11    1    1    2    0    0  0.73918626164E+02 -0.25614568152E+02 -0.18543549045E+03  0.20126199471E+03  0.00000000000E+00 0. -1.
</event>
<event>
 7    1  0.2420569E-009  0.8922646E+02  0.7561462E-02  0.1304736E+00
         -2   -1    0    0    0  501 -0.00000000000E+00  0.00000000000E+00  0.61693383865E+03  0.61693383865E+03  0.00000000000E+00 0.  1.
          2   -1    0    0  501    0  0.00000000000E+00 -0.00000000000E+00 -0.22046867557E+02  0.22046867557E+02  0.00000000000E+00 0. -1.
         25    2    1    2    0    0 -0.22838864754E+02  0.34001221606E+02  0.33576423817E+03  0.36064259981E+03  0.12509102426E+03 0.  0.
          5    1    3    3  502    0  0.31975424038E+02  0.27003459571E+02  0.34718208720E+02  0.54538435877E+02  0.41800000000E+01 0. -1.
         -5    1    3    3    0  502 -0.54814288792E+02  0.69977620350E+01  0.30104602945E+03  0.30610416393E+03  0.41800000000E+01 0. -1.
        -11    1    1    2    0    0  0.48106859747E+02 -0.20112892589E+02  0.23508807025E+03  0.24080116108E+03  0.00000000000E+00 0.  1.
         11    1    1    2    0    0 -0.25267994993E+02 -0.13888329018E+02  0.24034662668E+02  0.37536945313E+02  0.00000000000E+00 0. -1.
</event>
<event>
 7    1  0.2420569E-009  0.9541077E+02  0.7561462E-02  0.1290254E+00
         -4   -1    0    0    0  501 -0.00000000000E+00  0.00000000000E+00  0.13247997404E+03  0.13247997404E+03  0.00000000000E+00 0. -1.
          4   -1    0    0  501    0  0.00000000000E+00 -0.00000000000E+00 -0.99821175107E+02  0.99821175107E+02  0.00000000000E+00 0.  1.
         25    2    1    2    0    0  0.85393600414E+01 -0.36368479233E+02  0.78675754652E+01  0.13078769480E+03  0.12509170802E+03 0.  0.
          5    1    3    3  502    0 -0.10901179395E+02  0.44597837660E+02 -0.52164707407E+01  0.46394900615E+02  0.41800000000E+01 0. -1.
         -5    1    3    3    0  502  0.19440539436E+02 -0.80966316892E+02  0.13084046206E+02  0.84392794182E+02  0.41800000000E+01 0. -1.
        -11    1    1    2    0    0  0.10693097097E+02 -0.77592984479E+01  0.46767222034E+02  0.48597552353E+02  0.00000000000E+00 0. -1.
         11    1    1    2    0    0 -0.19232457138E+02  0.44127777681E+02 -0.21975998570E+02  0.52915901993E+02  0.00000000000E+00 0.  1.
</event>
<event>
 7    1  0.2420569E-009  0.1252156E+03  0.7561462E-02  0.1234733E+00
          1   -1    0    0  501    0  0.00000000000E+00  0.00000000000E+00  0.56354877544E+02  0.56354877544E+02  0.00000000000E+00 0. -1.
         -1   -1    0    0    0  501 -0.00000000000E+00 -0.00000000000E+00 -0.35925923568E+03  0.35925923568E+03  0.00000000000E+00 0.  1.
         25    2    1    2    0    0  0.48182923744E+02 -0.54281006454E+02 -0.85432937893E+02  0.16796930956E+03  0.12508749048E+03 0.  0.
          5    1    3    3  502    0  0.11773158916E+02  0.36341840360E+02 -0.51995756554E+02  0.64655763326E+02  0.41800000000E+01 0.  1.
         -5    1    3    3    0  502  0.36409764828E+02 -0.90622846814E+02 -0.33437181339E+02  0.10331354623E+03  0.41800000000E+01 0.  1.
        -11    1    1    2    0    0  0.42579916470E+01  0.61205016828E+02 -0.14888030563E+03  0.16102648845E+03  0.00000000000E+00 0. -1.
         11    1    1    2    0    0 -0.52440915391E+02 -0.69240103740E+01 -0.68591114606E+02  0.86618315209E+02  0.00000000000E+00 0.  1.
</event>
<event>
 7    1  0.2420569E-009  0.1857883E+03  0.7561462E-02  0.1162316E+00
         -1   -1    0    0    0  501 -0.00000000000E+00  0.00000000000E+00  0.68993769797E+02  0.68993769797E+02  0.00000000000E+00 0.  1.
          1   -1    0    0  501    0  0.00000000000E+00 -0.00000000000E+00 -0.70578412704E+03  0.70578412704E+03  0.00000000000E+00 0. -1.
         25    2    1    2    0    0 -0.14856914934E+03 -0.81794545857E+02 -0.48933546430E+03  0.53278171442E+03  0.12507605176E+03 0.  0.
          5    1    3    3  502    0  0.43651145156E+01  0.11341669939E+02 -0.13634855402E+03  0.13695286885E+03  0.41800000000E+01 0. -1.
         -5    1    3    3    0  502 -0.15293426386E+03 -0.93136215795E+02 -0.35298691028E+03  0.39582884557E+03  0.41800000000E+01 0. -1.
        -11    1    1    2    0    0  0.19720647917E+02 -0.93127938908E+01  0.52185251560E+01  0.22424653601E+02  0.00000000000E+00 0.  1.
         11    1    1    2    0    0  0.12884850143E+03  0.91107339747E+02 -0.15267341810E+03  0.21957152882E+03  0.00000000000E+00 0. -1.
</event>
<event>
 7    1  0.2420569E-009  0.1084346E+03  0.7561462E-02  0.1263497E+00
          2   -1    0    0  501    0  0.00000000000E+00  0.00000000000E+00  0.13634952417E+03  0.13634952417E+03  0.00000000000E+00 0. -1.
         -2   -1    0    0    0  501 -0.00000000000E+00 -0.00000000000E+00 -0.19150986914E+03  0.19150986914E+03  0.00000000000E+00 0.  1.
         25    2    1    2    0    0 -0.93618642299E+02 -0.21245428685E+02  0.42771209940E+02  0.16338255862E+03  0.12509462672E+03 0.  0.
          5    1    3    3  502    0 -0.44912470693E+02 -0.46920211150E+02  0.75114807628E+02  0.99389853421E+02  0.41800000000E+01 0. -1.
         -5    1    3    3    0  502 -0.48706171606E+02  0.25674782465E+02 -0.32343597687E+02  0.63992705198E+02  0.41800000000E+01 0. -1.
        -11    1    1    2    0    0  0.70839045276E+02  0.11400891098E+02 -0.11415288071E+03  0.13482963631E+03  0.00000000000E+00 0.  1.
         11    1    1    2    0    0  0.22779597024E+02  0.98445375863E+01  0.16221325798E+02  0.29647198375E+02  0.00000000000E+00 0. -1.
</event>
<event>
 7    1  0.2420569E-009  0.9833904E+02  0.7561462E-02  0.1283828E+00
          1   -1    0    0  501    0  0.00000000000E+00  0.00000000000E+00  0.22042754051E+03  0.22042754051E+03  0.00000000000E+00 0. -1.
         -1   -1    0    0    0  501 -0.00000000000E+00 -0.00000000000E+00 -0.53149740926E+02  0.53149740926E+02  0.00000000000E+00 0.  1.
         25    2    1    2    0    0 -0.19492911599E+02  0.41589873266E+02  0.95556495161E+02  0.16397771048E+03  0.12509178472E+03 0.  0.
          5    1    3    3  502    0 -0.62315262218E+02  0.16033237956E+02  0.10554670084E+02  0.65338580374E+02  0.41800000000E+01 0. -1.
         -5    1    3    3    0  502  0.42822350619E+02  0.25556635310E+02  0.85001825077E+02  0.98639130102E+02  0.41800000000E+01 0. -1.
        -11    1    1    2    0    0  0.44330183090E+02 -0.17828009640E+02  0.34498227900E+02  0.58933274037E+02  0.00000000000E+00 0.  1.
         11    1    1    2    0    0 -0.24837271491E+02 -0.23761863627E+02  0.37223076522E+02  0.50666296923E+02  0.00000000000E+00 0. -1.
</event>
<event>
 7    1  0.2420569E-009  0.1257466E+03  0.7561462E-02  0.1233907E+00
          2   -1    0    0  501    0  0.00000000000E+00  0.00000000000E+00  0.31986880931E+03  0.31986880931E+03  0.00000000000E+00 0. -1.
         -2   -1    0    0    0  501 -0.00000000000E+00 -0.00000000000E+00 -0.82314981532E+02  0.82314981532E+02  0.00000000000E+00 0.  1.
         25    2    1    2    0    0  0.89114905502E+02  0.44323556946E+02  0.44347102296E+02  0.16589458281E+03  0.12509317744E+03 0.  0.
          5    1    3    3  502    0  0.32019526587E+02 -0.24481648151E+02 -0.29281776005E+02  0.49994959596E+02  0.41800000000E+01 0. -1.
         -5    1    3    3    0  502  0.57095378915E+02  0.68805205096E+02  0.73628878301E+02  0.11589962322E+03  0.41800000000E+01 0. -1.
        -11    1    1    2    0    0 -0.74939449570E+02 -0.11499040571E-01  0.16663756035E+03  0.18271288339E+03  0.00000000000E+00 0. -1.
         11    1    1    2    0    0 -0.14175455932E+02 -0.44312057905E+02  0.26569165125E+02  0.53576324642E+02  0.00000000000E+00 0.  1.
</event>
<event>
 7    1  0.2420569E-009  0.9723897E+02  0.7561462E-02  0.1286212E+00
          2   -1    0    0  501    0  0.00000000000E+00  0.00000000000E+00  0.21378362482E+03  0.21378362482E+03  0.00000000000E+00 0. -1.
         -2   -1    0    0    0  501 -0.00000000000E+00 -0.00000000000E+00 -0.89634289645E+02  0.89634289645E+02  0.00000000000E+00 0.  1.
         25    2    1    2    0    0 -0.32896561744E+02  0.26223416478E+02  0.14816012349E+03  0.19841492314E+03  0.12508880119E+03 0.  0.
          5    1    3    3  502    0 -0.68481018424E+02  0.46642577293E+02  0.12794411103E+03  0.15248720552E+03  0.41800000000E+01 0.  1.
         -5    1    3    3    0  502  0.35584456680E+02 -0.20419160814E+02  0.20216012466E+02  0.45927717618E+02  0.41800000000E+01 0.  1.
        -11    1    1    2    0    0  0.33317137454E+02  0.94262083824E+01  0.26201306396E+02  0.43421118243E+02  0.00000000000E+00 0. -1.
         11    1    1    2    0    0 -0.42057571064E+00 -0.35649624861E+02 -0.50212094716E+02  0.61581873083E+02  0.00000000000E+00 0.  1.
</event>
<event>
 7    1  0.2420569E-009  0.2324758E+03  0.7561462E-02  0.1124909E+00
         -3   -1    0    0    0  501 -0.00000000000E+00  0.00000000000E+00  0.53814642802E+03  0.53814642802E+03  0.00000000000E+00 0.  1.
          3   -1    0    0  501    0  0.00000000000E+00 -0.00000000000E+00 -0.28591881620E+03  0.28591881620E+03  0.00000000000E+00 0. -1.
         25    2    1    2    0    0  0.69060644254E+02 -0.21414146111E+03  0.44500997116E+03  0.51410663648E+03  0.12508325743E+03 0.  0.
          5    1    3    3  502    0  0.11269971996E+02 -0.15514967529E+03  0.37411061214E+03  0.40518471902E+03  0.41800000000E+01 0. -1.
         -5    1    3    3    0  502  0.57790672258E+02 -0.58991785813E+02  0.70899359022E+02  0.10892191746E+03  0.41800000000E+01 0. -1.
        -11    1    1    2    0    0 -0.85045665358E+01  0.75733050975E+01 -0.50867781614E+02  0.52126901005E+02  0.00000000000E+00 0. -1.
         11    1    1    2    0    0 -0.60556077718E+02  0.20656815601E+03 -0.14191457773E+03  0.25783170673E+03  0.00000000000E+00 0.  1.
</event>
<event>
 7    1  0.2420569E-009  0.2492733E+03  0.7561462E-02  0.1113765E+00
         -2   -1    0    0    0  501 -0.00000000000E+00  0.00000000000E+00  0.43501996465E+02  0.43501996465E+02  0.00000000000E+00 0.  1.
          2   -1    0    0  501    0  0.00000000000E+00 -0.00000000000E+00 -0.21334137189E+04  0.21334137189E+04  0.00000000000E+00 0. -1.
         25    2    1    2    0    0 -0.24553746589E+03  0.21012458367E+02 -0.15723393395E+04  0.15964425461E+04  0.12509050216E+03 0.  0.
          5    1    3    3  502    0 -0.23924968947E+03  0.22002123649E+02 -0.15702724733E+04  0.15885520514E+04  0.41800000000E+01 0.  1.
         -5    1    3    3    0  502 -0.62877764180E+01 -0.98966528240E+00 -0.20668662448E+01  0.78904946441E+01  0.41800000000E+01 0.  1.
        -11    1    1    2    0    0  0.18300709229E+03 -0.35574078447E+02 -0.29628320011E+03  0.35005834593E+03  0.00000000000E+00 0.  1.
         11    1    1    2    0    0  0.62530373597E+02  0.14561620081E+02 -0.22128918285E+03  0.23041482341E+03  0.00000000000E+00 0. -1.
</event>
<event>
 7    1  0.2420569E-009  0.1430049E+03  0.7561462E-02  0.1209342E+00
          4   -1    0    0  501    0  0.00000000000E+00  0.00000000000E+00  0.46209952922E+02  0.46209952922E+02  0.00000000000E+00 0. -1.
         -4   -1    0    0    0  501 -0.00000000000E+00 -0.00000000000E+00 -0.51122506186E+03  0.51122506186E+03  0.00000000000E+00 0.  1.
         25    2    1    2    0    0  0.10186904009E+03  0.10952819059E+02 -0.19600503759E+03  0.25409165226E+03  0.12508927778E+03 0.  0.
          5    1    3    3  502    0  0.28425961959E+02  0.64424259031E+02 -0.79237897409E+02  0.10608787514E+03  0.41800000000E+01 0.  1.
         -5    1    3    3    0  502  0.73443078131E+02 -0.53471439971E+02 -0.11676714018E+03  0.14800377713E+03  0.41800000000E+01 0.  1.
        -11    1    1    2    0    0 -0.22589268199E+02 -0.35020634021E+02 -0.16598336378E+03  0.17113502534E+03  0.00000000000E+00 0.  1.
         11    1    1    2    0    0 -0.79279771891E+02  0.24067814961E+02 -0.10302670756E+03  0.13220833718E+03  0.00000000000E+00 0. -1.
</event>
<event>
 7    1  0.2420569E-009  0.1968336E+03  0.7561462E-02  0.1152438E+00
         -1   -1    0    0    0  501 -0.00000000000E+00  0.00000000000E+00  0.62490628562E+03  0.62490628562E+03  0.00000000000E+00 0.  1.
          1   -1    0    0  501    0  0.00000000000E+00 -0.00000000000E+00 -0.78215305734E+02  0.78215305734E+02  0.00000000000E+00 0. -1.
         25    2    1    2    0    0 -0.80500294793E+02 -0.14378524493E+03  0.12824369305E+03  0.24341034553E+03  0.12509059671E+03 0.  0.
          5    1    3    3  502    0  0.17159940606E+02  0.11916015436E+02  0.23912526200E+02  0.32027118115E+02  0.41800000000E+01 0.  1.
         -5    1    3    3    0  502 -0.97660235400E+02 -0.15570126037E+03  0.10433116685E+03  0.21138322742E+03  0.41800000000E+01 0.  1.
        -11    1    1    2    0    0 -0.12018741200E+02  0.67628167242E+02  0.18425222566E+03  0.19663901395E+03  0.00000000000E+00 0. -1.
         11    1    1    2    0    0  0.92519035994E+02  0.76157077690E+02  0.23419506118E+03  0.26307223188E+03  0.00000000000E+00 0.  1.
</event>
<event>
 7    1  0.2420569E-009  0.1217532E+03  0.7561462E-02  0.1240233E+00
         -1   -1    0    0    0  501 -0.00000000000E+00  0.00000000000E+00  0.12244386613E+03  0.12244386613E+03  0.00000000000E+00 0.  1.
          1   -1    0    0  501    0  0.00000000000E+00 -0.00000000000E+00 -0.22288901490E+03  0.22288901490E+03  0.00000000000E+00 0. -1.
         25    2    1    2    0    0  0.11386809864E+03  0.16917173699E+02 -0.41645876034E+01  0.17004974400E+03  0.12508971577E+03 0.  0.
          5    1    3    3  502    0  0.11786994184E+03  0.17039388720E+02  0.39850984714E+02  0.12565523205E+03  0.41800000000E+01 0. -1.
         -5    1    3    3    0  502 -0.40018432017E+01 -0.12221502085E+00 -0.44015572317E+02  0.44394511958E+02  0.41800000000E+01 0. -1.
        -11    1    1    2    0    0 -0.71802523339E+02  0.32993788524E+01 -0.41409535545E+01  0.71997470477E+02  0.00000000000E+00 0.  1.
         11    1    1    2    0    0 -0.42065575302E+02 -0.20216552552E+02 -0.92139607618E+02  0.10328566655E+03  0.00000000000E+00 0. -1.
</event>
<event>
 7    1  0.2420569E-009  0.6188368E+02  0.7561462E-02  0.1390093E+00
          1   -1    0    0  501    0  0.00000000000E+00  0.00000000000E+00  0.11743628233E+03  0.11743628233E+03  0.00000000000E+00 0. -1.
         -1   -1    0    0    0  501 -0.00000000000E+00 -0.00000000000E+00 -0.12433877552E+03  0.12433877552E+03  0.00000000000E+00 0.  1.
         25    2    1    2    0    0 -0.11697424559E+02  0.47236364941E+02  0.37645525915E+01  0.13429277779E+03  0.12510905002E+03 0.  0.
          5    1    3    3  502    0 -0.33850719682E+02  0.26442822189E+02 -0.53858215388E+02  0.69016475085E+02  0.41800000000E+01 0. -1.
         -5    1    3    3    0  502  0.22153295123E+02  0.20793542752E+02  0.57622767980E+02  0.65276302704E+02  0.41800000000E+01 0. -1.
        -11    1    1    2    0    0  0.30151133648E+00 -0.24558332797E+02  0.42206746483E+02  0.48832489876E+02  0.00000000000E+00 0. -1.
         11    1    1    2    0    0  0.11395913223E+02 -0.22678032144E+02 -0.52873792269E+02  0.58649790187E+02  0.00000000000E+00 0.  1.
</event>
<event>
 7    1  0.2420569E-009  0.1839068E+03  0.7561462E-02  0.1164075E+00
          1   -1    0    0  501    0  0.00000000000E+00  0.00000000000E+00  0.71069343067E+03  0.71069343067E+03  0.00000000000E+00 0. -1.
         -1   -1    0    0    0  501 -0.00000000000E+00 -0.00000000000E+00 -0.64369765849E+02  0.64369765849E+02  0.00000000000E+00 0.  1.
         25    2    1    2    0    0  0.16641410377E+03 -0.15907903871E+01  0.19429325092E+03  0.28476925609E+03  0.12508987694E+03 0.  0.
          5    1    3    3  502    0  0.15890271111E+03 -0.22564572902E+02  0.10310748826E+03  0.19080843295E+03  0.41800000000E+01 0. -1.
         -5    1    3    3    0  502  0.75113926551E+01  0.20973782515E+02  0.91185762666E+02  0.93960823142E+02  0.41800000000E+01 0. -1.
        -11    1    1    2    0    0 -0.91210132063E+02  0.40643718762E+02  0.30078881372E+03  0.31693076614E+03  0.00000000000E+00 0. -1.
         11    1    1    2    0    0 -0.75203971707E+02 -0.39052928375E+02  0.15124160018E+03  0.17336317429E+03  0.00000000000E+00 0.  1.
</event>
<event>
 7    1  0.2420569E-009  0.6805071E+02  0.7561462E-02  0.1366850E+00
         -1   -1    0    0    0  501 -0.00000000000E+00  0.00000000000E+00  0.58225360903E+02  0.58225360903E+02  0.00000000000E+00 0.  1.
          1   -1    0    0  501    0  0.00000000000E+00 -0.00000000000E+00 -0.24159729624E+03  0.24159729624E+03  0.00000000000E+00 0. -1.
         25    2    1    2    0    0  0.24869245662E+02 -0.20292686641E+02 -0.84805981422E+02  0.15450152471E+03  0.12509354157E+03 0.  0.
          5    1    3    3  502    0  0.33186172700E+02 -0.10682315186E+02 -0.11565955029E+03  0.12087198968E+03  0.41800000000E+01 0. -1.
         -5    1    3    3    0  502 -0.83169270375E+01 -0.96103714555E+01  0.30853568867E+02  0.33629535035E+02  0.41800000000E+01 0. -1.
        -11    1    1    2    0    0 -0.31611763636E+02  0.48894587043E+02 -0.20202271614E+02  0.61628857045E+02  0.00000000000E+00 0.  1.
         11    1    1    2    0    0  0.67425179732E+01 -0.28601900402E+02 -0.78363682305E+02  0.83692275388E+02  0.00000000000E+00 0. -1.
</event>
<event>
 7    1  0.2420569E-009  0.8266302E+02  0.7561462E-02  0.1321660E+00
          1   -1    0    0  501    0  0.00000000000E+00  0.00000000000E+00  0.21096599251E+03  0.21096599251E+03  0.00000000000E+00 0. -1.
         -1   -1    0    0    0  501 -0.00000000000E+00 -0.00000000000E+00 -0.67032677626E+02  0.67032677626E+02  0.00000000000E+00 0.  1.
         25    2    1    2    0    0  0.29771916763E+02  0.33736440640E+02  0.58171741977E+02  0.14511099012E+03  0.12509489772E+03 0.  0.
          5    1    3    3  502    0  0.22686780946E+02  0.54280648601E+02  0.89238825825E+02  0.10696784226E+03  0.41800000000E+01 0.  1.
         -5    1    3    3    0  502  0.70851358175E+01 -0.20544207962E+02 -0.31067083848E+02  0.38143147866E+02  0.41800000000E+01 0.  1.
        -11    1    1    2    0    0  0.19506734282E+02 -0.28672191517E+02  0.97785638129E+00  0.34692412021E+02  0.00000000000E+00 0.  1.
         11    1    1    2    0    0 -0.49278651045E+02 -0.50642491230E+01  0.84783716524E+02  0.98195267990E+02  0.00000000000E+00 0. -1.
</event>
<event>
 7    1  0.2420569E-009  0.1352649E+03  0.7561462E-02  0.1219846E+00
          2   -1    0    0  501    0  0.00000000000E+00  0.00000000000E+00  0.41067234766E+03  0.41067234766E+03  0.00000000000E+00 0. -1.
         -2   -1    0    0    0  501 -0.00000000000E+00 -0.00000000000E+00 -0.71940902387E+02  0.71940902387E+02  0.00000000000E+00 0.  1.
         25    2    1    2    0    0  0.11401363669E+03  0.23273650068E+02  0.90126215225E+02  0.19316151784E+03  0.12509142722E+03 0.  0.
          5    1    3    3  502    0  0.92014110553E+02 -0.88694088511E+00  0.11821811054E+03  0.14986786602E+03  0.41800000000E+01 0.  1.
         -5    1    3    3    0  502  0.21999526135E+02  0.24160590953E+02 -0.28091895315E+02  0.43293651818E+02  0.41800000000E+01 0.  1.
        -11    1    1    2    0    0 -0.10125944313E+01  0.23249167552E+02  0.63659079552E+02  0.67779256036E+02  0.00000000000E+00 0. -1.
         11    1    1    2    0    0 -0.11300104226E+03 -0.46522817620E+02  0.18494615050E+03  0.22167247618E+03  0.00000000000E+00 0.  1.
</event>
<event>
 7    1  0.2420569E-009  0.1155751E+03  0.7561462E-02  0.1250581E+00
         -1   -1    0    0    0  501 -0.00000000000E+00  0.00000000000E+00  0.34455159625E+03  0.34455159625E+03  0.00000000000E+00 0.  1.
          1   -1    0    0  501    0  0.00000000000E+00 -0.00000000000E+00 -0.47024571429E+02  0.47024571429E+02  0.00000000000E+00 0. -1.
         25    2    1    2    0    0 -0.18703370694E+02 -0.61995146293E+02  0.14105733058E+03  0.19934339377E+03  0.12508958346E+03 0.  0.
          5    1    3    3  502    0 -0.40860349727E+02  0.12957829035E+02  0.10435724157E+03  0.11289543738E+03  0.41800000000E+01 0.  1.
         -5    1    3    3    0  502  0.22156979033E+02 -0.74952975328E+02  0.36700089002E+02  0.86447956385E+02  0.41800000000E+01 0.  1.
        -11    1    1    2    0    0 -0.35955277536E+02  0.25784254051E+02  0.46389728130E+02  0.64106291545E+02  0.00000000000E+00 0.  1.
         11    1    1    2    0    0  0.54658648229E+02  0.36210892242E+02  0.11007996611E+03  0.12812648236E+03  0.00000000000E+00 0. -1.
</event>
<event>
 7    1  0.2420569E-009  0.9553612E+02  0.7561462E-02  0.1289973E+00
         -2   -1    0    0    0  501 -0.00000000000E+00  0.00000000000E+00  0.49393027080E+03  0.49393027080E+03  0.00000000000E+00 0.  1.
          2   -1    0    0  501    0  0.00000000000E+00 -0.00000000000E+00 -0.38405059761E+02  0.38405059761E+02  0.00000000000E+00 0. -1.
         25    2    1    2    0    0 -0.70491338738E+02  0.22873984378E+02  0.33515492762E+03  0.36533253533E+03  0.12508712109E+03 0.  0.
          5    1    3    3  502    0 -0.57785059439E+02  0.24456887519E+02  0.34368378948E+03  0.34938985674E+03  0.41800000000E+01 0.  1.
         -5    1    3    3    0  502 -0.12706279299E+02 -0.15829031406E+01 -0.85288618592E+01  0.15942678589E+02  0.41800000000E+01 0.  1.
        -11    1    1    2    0    0  0.11505361233E+02  0.32090602340E+02  0.46466509071E+02  0.57630864655E+02  0.00000000000E+00 0.  1.
         11    1    1    2    0    0  0.58985977506E+02 -0.54964586718E+02  0.73903774345E+02  0.10937193058E+03  0.00000000000E+00 0. -1.
</event>
<event>
 7    1  0.2420569E-009  0.1208885E+03  0.7561462E-02  0.1241638E+00
          2   -1    0    0  501    0  0.00000000000E+00  0.00000000000E+00  0.73744023425E+03  0.73744023425E+03  0.00000000000E+00 0. -1.
         -2   -1    0    0    0  501 -0.00000000000E+00 -0.00000000000E+00 -0.24862536656E+02  0.24862536656E+02  0.00000000000E+00 0.  1.
         25    2    1    2    0    0  0.80716912846E+02  0.13247097876E+02  0.39664322760E+03  0.42386732887E+03  0.12508779661E+03 0.  0.
          5    1    3    3  502    0 -0.15234491636E+02  0.44887191344E+02  0.14746743492E+03  0.15495504652E+03  0.41800000000E+01 0. -1.
         -5    1    3    3    0  502  0.95951404482E+02 -0.31640093468E+02  0.24917579268E+03  0.26891228234E+03  0.41800000000E+01 0. -1.
        -11    1    1    2    0    0 -0.50053906637E+02 -0.29771968761E+02  0.28787537369E+03  0.29370732792E+03  0.00000000000E+00 0. -1.
         11    1    1    2    0    0 -0.30663006209E+02  0.16524870885E+02  0.28059096303E+02  0.44728114121E+02  0.00000000000E+00 0.  1.
</event>
<event>
 7    1  0.2968310E-009  0.1035934E+03  0.7561462E-02  0.1272916E+00
          1   -1    0    0  501    0  0.00000000000E+00  0.00000000000E+00  0.50697625587E+03  0.50697625587E+03  0.00000000000E+00 0. -1.
         -1   -1    0    0    0  501 -0.00000000000E+00 -0.00000000000E+00 -0.27752239503E+02  0.27752239503E+02  0.00000000000E+00 0.  1.
         25    2    1    2    0    0 -0.46907794185E+02  0.13286028146E-01  0.28336690433E+03  0.31327670345E+03  0.12508057055E+03 0.  0.
          5    1    3    3  502    0 -0.73548008837E+02  0.22814906070E+02  0.98659721921E+02  0.12522397004E+03  0.41800000000E+01 0.  1.
         -5    1    3    3    0  502  0.26640214652E+02 -0.22801620042E+02  0.18470718240E+03  0.18805273342E+03  0.41800000000E+01 0.  1.
        -11    1    1    2    0    0 -0.23842397147E+02  0.23982496842E+01  0.17836723005E+02  0.29872398478E+02  0.00000000000E+00 0.  1.
         11    1    1    2    0    0  0.70750191332E+02 -0.24115357123E+01  0.17802038903E+03  0.19157939344E+03  0.00000000000E+00 0. -1.
</event>
<event>
 7    1  0.2420569E-009  0.1493450E+03  0.7561462E-02  0.1201280E+00
          2   -1    0    0  501    0  0.00000000000E+00  0.00000000000E+00  0.31386828167E+02  0.31386828167E+02  0.00000000000E+00 0. -1.
         -2   -1    0    0    0  501 -0.00000000000E+00 -0.00000000000E+00 -0.74696759551E+03  0.74696759551E+03  0.00000000000E+00 0.  1.
         25    2    1    2    0    0  0.70163378212E+02 -0.79193428609E+02 -0.33669551021E+03  0.37444051068E+03  0.12508929076E+03 0.  0.
          5    1    3    3  502    0  0.28072499933E+01  0.29963964008E+02 -0.33629884338E+02  0.45322856399E+02  0.41800000000E+01 0.  1.
         -5    1    3    3    0  502  0.67356128219E+02 -0.10915739262E+03 -0.30306562588E+03  0.32911765428E+03  0.41800000000E+01 0.  1.
        -11    1    1    2    0    0  0.20133383104E+02  0.32718374549E+02 -0.10469727745E+03  0.11152293510E+03  0.00000000000E+00 0.  1.
         11    1    1    2    0    0 -0.90296761316E+02  0.46475054060E+02 -0.27418797968E+03  0.29239097790E+03  0.00000000000E+00 0. -1.
</event>
<event>
 7    1  0.2420569E-009  0.2419294E+03  0.7561462E-02  0.1118514E+00
          2   -1    0    0  501    0  0.00000000000E+00  0.00000000000E+00  0.22361239883E+03  0.22361239883E+03  0.00000000000E+00 0. -1.
         -2   -1    0    0    0  501 -0.00000000000E+00 -0.00000000000E+00 -0.40087890700E+03  0.40087890700E+03  0.00000000000E+00 0.  1.
         25    2    1    2    0    0  0.18866097351E+03 -0.13466871907E+03  0.70639175784E+02  0.27270169027E+03  0.12509073465E+03 0.  0.
          5    1    3    3  502    0  0.28569151264E+02 -0.36044811268E+02 -0.34115970886E+02  0.57417738485E+02  0.41800000000E+01 0. -1.
         -5    1    3    3    0  502  0.16009182225E+03 -0.98623907802E+02  0.10475514667E+03  0.21528395178E+03  0.41800000000E+01 0. -1.
        -11    1    1    2    0    0 -0.12911151644E+02  0.55245605873E+02 -0.56209083193E+02  0.79863858149E+02  0.00000000000E+00 0. -1.
         11    1    1    2    0    0 -0.17574982187E+03  0.79423113196E+02 -0.19169660076E+03  0.27192575740E+03  0.00000000000E+00 0.  1.
</event>
<event>
 7    1  0.2420569E-009  0.7360397E+02  0.7561462E-02  0.1348249E+00
          1   -1    0    0  501    0  0.00000000000E+00  0.00000000000E+00  0.10155664310E+04  0.10155664310E+04  0.00000000000E+00 0. -1.
         -1   -1    0    0    0  501 -0.00000000000E+00 -0.00000000000E+00 -0.14824909531E+02  0.14824909531E+02  0.00000000000E+00 0.  1.
         25    2    1    2    0    0  0.18762814879E+02  0.58126732427E+01  0.79513158376E+03  0.80515084917E+03  0.12509126285E+03 0.  0.
          5    1    3    3  502    0  0.21455975688E+02  0.31815654163E+02  0.76088957907E+03  0.76186811108E+03  0.41800000000E+01 0. -1.
         -5    1    3    3    0  502 -0.26931608090E+01 -0.26002980920E+02  0.34242004694E+02  0.43282738099E+02  0.41800000000E+01 0. -1.
        -11    1    1    2    0    0  0.96266068266E+01 -0.38007950815E+02  0.14972371868E+03  0.15477230960E+03  0.00000000000E+00 0.  1.
         11    1    1    2    0    0 -0.28389421706E+02  0.32195277572E+02  0.55886219039E+02  0.70468181765E+02  0.00000000000E+00 0. -1.
</event>
<event>
 7    1  0.2420569E-009  0.1298873E+03  0.7561462E-02  0.1227623E+00
          1   -1    0    0  501    0  0.00000000000E+00  0.00000000000E+00  0.66232545033E+03  0.66232545033E+03  0.00000000000E+00 0. -1.
         -1   -1    0    0    0  501 -0.00000000000E+00 -0.00000000000E+00 -0.36948009340E+02  0.36948009340E+02  0.00000000000E+00 0.  1.
         25    2    1    2    0    0 -0.70776367381E+02 -0.40805198504E+02  0.50743506763E+03  0.52897666856E+03  0.12510639318E+03 0.  0.
          5    1    3    3  502    0  0.31156934456E+02 -0.26419057469E+02  0.88558895418E+02  0.97615938862E+02  0.41800000000E+01 0. -1.
         -5    1    3    3    0  502 -0.10193330184E+03 -0.14386141035E+02  0.41887617222E+03  0.43136072970E+03  0.41800000000E+01 0. -1.
        -11    1    1    2    0    0 -0.78583447436E+01  0.36058910719E+02  0.66972799972E+02  0.76467996968E+02  0.00000000000E+00 0.  1.
         11    1    1    2    0    0  0.78634712124E+02  0.47462877859E+01  0.50969573383E+02  0.93828794138E+02  0.00000000000E+00 0. -1.
</event>
<event>
 7    1  0.2420569E-009  0.1164178E+03  0.7561462E-02  0.1249126E+00
          1   -1    0    0  501    0  0.00000000000E+00  0.00000000000E+00  0.25105755791E+03  0.25105755791E+03  0.00000000000E+00 0. -1.
         -1   -1    0    0    0  501 -0.00000000000E+00 -0.00000000000E+00 -0.65625784070E+02  0.65625784070E+02  0.00000000000E+00 0.  1.
         25    2    1    2    0    0 -0.67597513254E+02 -0.71574651739E+01  0.10761039270E+03  0.17845966170E+03  0.12508877300E+03 0.  0.
          5    1    3    3  502    0 -0.10027207567E+03 -0.78584601352E+01  0.10491855026E+03  0.14540157889E+03  0.41800000000E+01 0.  1.
         -5    1    3    3    0  502  0.32674562419E+02  0.70099496133E+00  0.26918424418E+01  0.33058082808E+02  0.41800000000E+01 0.  1.
        -11    1    1    2    0    0  0.74164783946E+02  0.26528832343E+02  0.85613751794E+02  0.11633532834E+03  0.00000000000E+00 0. -1.
         11    1    1    2    0    0 -0.65672706925E+01 -0.19371367169E+02 -0.77923706546E+01  0.21888351943E+02  0.00000000000E+00 0.  1.
</event>
<event>
 7    1  0.2420569E-009  0.1306045E+03  0.7561462E-02  0.1226561E+00
         -1   -1    0    0    0  501 -0.00000000000E+00  0.00000000000E+00  0.10211228538E+03  0.10211228538E+03  0.00000000000E+00 0.  1.
          1   -1    0    0  501    0  0.00000000000E+00 -0.00000000000E+00 -0.16841927719E+03  0.16841927719E+03  0.00000000000E+00 0. -1.
         25    2    1    2    0    0  0.52492699653E+01 -0.71904357578E+02 -0.33248089214E+02  0.14815430111E+03  0.12508585063E+03 0.  0.
          5    1    3    3  502    0  0.55377505386E+02 -0.74612440565E+02 -0.13231031949E+02  0.93947948334E+02  0.41800000000E+01 0. -1.
         -5    1    3    3    0  502 -0.50128235420E+02  0.27080829871E+01 -0.20017057265E+02  0.54206352777E+02  0.41800000000E+01 0. -1.
        -11    1    1    2    0    0 -0.10026370983E+02  0.94346353544E+02 -0.27067031702E+02  0.98662995836E+02  0.00000000000E+00 0.  1.
         11    1    1    2    0    0  0.47771010174E+01 -0.22441995966E+02 -0.59918708905E+01  0.23714265619E+02  0.00000000000E+00 0. -1.
</event>
<event>
 7    1  0.2420569E-009  0.1243388E+03  0.7561462E-02  0.1236106E+00
          2   -1    0    0  501    0  0.00000000000E+00  0.00000000000E+00  0.16019740356E+03  0.16019740356E+03  0.00000000000E+00 0. -1.
         -2   -1    0    0    0  501 -0.00000000000E+00 -0.00000000000E+00 -0.18411693096E+03  0.18411693096E+03  0.00000000000E+00 0.  1.
         25    2    1    2    0    0  0.73145226772E+02  0.12667888306E+02 -0.12152815767E+03  0.18954595061E+03  0.12509146531E+03 0.  0.
          5    1    3    3  502    0  0.38567886083E+02  0.63881748941E+02 -0.33475589554E+02  0.81892900674E+02  0.41800000000E+01 0.  1.
         -5    1    3    3    0  502  0.34577340688E+02 -0.51213860635E+02 -0.88052568111E+02  0.10765304994E+03  0.41800000000E+01 0.  1.
        -11    1    1    2    0    0  0.22068808039E+01 -0.33699956999E+02  0.60002442270E+01  0.34301025574E+02  0.00000000000E+00 0.  1.
         11    1    1    2    0    0 -0.75352107576E+02  0.21032068693E+02  0.91608386037E+02  0.12046735833E+03  0.00000000000E+00 0. -1.
</event>
<event>
 7    1  0.2420569E-009  0.1975215E+03  0.7561462E-02  0.1151847E+00
         -2   -1    0    0    0  501 -0.00000000000E+00  0.00000000000E+00  0.18758740556E+03  0.18758740556E+03  0.00000000000E+00 0.  1.
          2   -1    0    0  501    0  0.00000000000E+00 -0.00000000000E+00 -0.21801167167E+03  0.21801167167E+03  0.00000000000E+00 0. -1.
         25    2    1    2    0    0 -0.14581868884E+03  0.92486669412E+02 -0.30011723708E+02  0.21533046225E+03  0.12509848272E+03 0.  0.
          5    1    3    3  502    0 -0.16144871620E+03  0.52809797970E+02 -0.18239408931E+02  0.17089385935E+03  0.41800000000E+01 0.  1.
         -5    1    3    3    0  502  0.15630027359E+02  0.39676871442E+02 -0.11772314777E+02  0.44436602907E+02  0.41800000000E+01 0.  1.
        -11    1    1    2    0    0  0.61020435786E+02 -0.73226278027E+02 -0.27470960607E+02  0.99197958920E+02  0.00000000000E+00 0. -1.
         11    1    1    2    0    0  0.84798253056E+02 -0.19260391385E+02  0.27058418203E+02  0.91070656050E+02  0.00000000000E+00 0.  1.
</event>
<event>
 7    1  0.2420569E-009  0.1456022E+03  0.7561462E-02  0.1205984E+00
          2   -1    0    0  501    0  0.00000000000E+00  0.00000000000E+00  0.81166155761E+03  0.81166155761E+03  0.00000000000E+00 0. -1.
         -2   -1    0    0    0  501 -0.00000000000E+00 -0.00000000000E+00 -0.30178112416E+02  0.30178112416E+02  0.00000000000E+00 0.  1.
         25    2    1    2    0    0 -0.10134204997E+03 -0.42083547353E+02  0.35249068719E+03  0.38979268689E+03  0.12508964044E+03 0.  0.
          5    1    3    3  502    0  0.32252198389E+01 -0.54590946381E+02  0.17473260864E+03  0.18313800914E+03  0.41800000000E+01 0.  1.
         -5    1    3    3    0  502 -0.10456726981E+03  0.12507399028E+02  0.17775807855E+03  0.20665467775E+03  0.41800000000E+01 0.  1.
        -11    1    1    2    0    0  0.67492127330E+02 -0.10622915284E+02  0.31144023643E+03  0.31884644337E+03  0.00000000000E+00 0. -1.
         11    1    1    2    0    0  0.33849922638E+02  0.52706462637E+02  0.11755252157E+03  0.13320053977E+03  0.00000000000E+00 0.  1.
</event>
<event>
 7    1  0.2420569E-009  0.1260232E+03  0.7561462E-02  0.1233479E+00
         -1   -1    0    0    0  501 -0.00000000000E+00  0.00000000000E+00  0.95320226912E+02  0.95320226912E+02  0.00000000000E+00 0.  1.
          1   -1    0    0  501    0  0.00000000000E+00 -0.00000000000E+00 -0.22420824763E+03  0.22420824763E+03  0.00000000000E+00 0. -1.
         25    2    1    2    0    0 -0.66749414971E+02  0.11330733019E+02 -0.14801935175E+03  0.20528174389E+03  0.12508795294E+03 0.  0.
          5    1    3    3  502    0 -0.35009489917E+01 -0.51249433187E+02 -0.39788870714E+02  0.65110580388E+02  0.41800000000E+01 0.  1.
         -5    1    3    3    0  502 -0.63248465979E+02  0.62580166205E+02 -0.10823048104E+03  0.14017116350E+03  0.41800000000E+01 0.  1.
        -11    1    1    2    0    0  0.79878319171E+02 -0.32733658290E+02  0.21688476683E+02  0.89008023680E+02  0.00000000000E+00 0.  1.
         11    1    1    2    0    0 -0.13128904200E+02  0.21402925271E+02 -0.25571456438E+01  0.25238706970E+02  0.00000000000E+00 0. -1.
</event>
<event>
 7    1  0.2420569E-009  0.1498733E+03  0.7561462E-02  0.1200629E+00
         -2   -1    0    0    0  501 -0.00000000000E+00  0.00000000000E+00  0.11787418239E+03  0.11787418239E+03  0.00000000000E+00 0.  1.
          2   -1    0    0  501    0  0.00000000000E+00 -0.00000000000E+00 -0.19949677809E+03  0.19949677809E+03  0.00000000000E+00 0. -1.
         25    2    1    2    0    0  0.48773778269E+02 -0.95169037773E+02 -0.62404520233E+02  0.17600716694E+03  0.12509265155E+03 0.  0.
          5    1    3    3  502    0 -0.35062519041E+02  0.10590535698E+01 -0.38763925084E+01  0.35538720501E+02  0.41800000000E+01 0. -1.
         -5    1    3    3    0  502  0.83836297310E+02 -0.96228091343E+02 -0.58528127725E+02  0.14046844644E+03  0.41800000000E+01 0. -1.
        -11    1    1    2    0    0 -0.66407952665E+02  0.37164889741E+02  0.45725049614E+01  0.76237477714E+02  0.00000000000E+00 0.  1.
         11    1    1    2    0    0  0.17634174395E+02  0.58004148032E+02 -0.23790580423E+02  0.65126315821E+02  0.00000000000E+00 0. -1.
</event>
<event>
 7    1  0.2420569E-009  0.1223021E+03  0.7561462E-02  0.1239347E+00
         -2   -1    0    0    0  501 -0.00000000000E+00  0.00000000000E+00  0.16298896700E+03  0.16298896700E+03  0.00000000000E+00 0. -1.
          2   -1    0    0  501    0  0.00000000000E+00 -0.00000000000E+00 -0.15390500419E+03  0.15390500419E+03  0.00000000000E+00 0.  1.
         25    2    1    2    0    0  0.13669769802E+02 -0.10742909408E+03  0.39696458363E+02  0.17015479982E+03  0.12509586017E+03 0.  0.
          5    1    3    3  502    0 -0.29520026179E+02 -0.48209204734E+02 -0.34026279012E+02  0.66112173085E+02  0.41800000000E+01 0.  1.
         -5    1    3    3    0  502  0.43189795981E+02 -0.59219889349E+02  0.73722737375E+02  0.10404262673E+03  0.41800000000E+01 0.  1.
        -11    1    1    2    0    0  0.12727748384E+02  0.26882485455E+02 -0.51472492199E+02  0.59448137534E+02  0.00000000000E+00 0.  1.
         11    1    1    2    0    0 -0.26397518186E+02  0.80546608628E+02  0.20859996643E+02  0.87291033833E+02  0.00000000000E+00 0. -1.
</event>
<event>
 7    1  0.2420569E-009  0.1052475E+03  0.7561462E-02  0.1269633E+00
          1   -1    0    0  501    0  0.00000000000E+00  0.00000000000E+00  0.17069468025E+03  0.17069468025E+03  0.00000000000E+00 0. -1.
         -1   -1    0    0    0  501 -0.00000000000E+00 -0.00000000000E+00 -0.89483902652E+02  0.89483902652E+02  0.00000000000E+00 0.  1.
         25    2    1    2    0    0 -0.41553588619E+02  0.41167181489E+02  0.55655106756E+02  0.14887957230E+03  0.12508476559E+03 0.  0.
          5    1    3    3  502    0 -0.34751291611E+01  0.74181242300E+02  0.95704469086E+00  0.74386299588E+02  0.41800000000E+01 0.  1.
         -5    1    3    3    0  502 -0.38078459458E+02 -0.33014060811E+02  0.54698062065E+02  0.74493272714E+02  0.41800000000E+01 0.  1.
        -11    1    1    2    0    0 -0.16465425184E+01 -0.42297486249E+02  0.46834863406E+02  0.63129176103E+02  0.00000000000E+00 0.  1.
         11    1    1    2    0    0  0.43200131138E+02  0.11303047596E+01 -0.21279192565E+02  0.48169834496E+02  0.00000000000E+00 0. -1.
</event>
<event>
 7    1  0.2420569E-009  0.2122858E+03  0.7561462E-02  0.1139769E+00
         -2   -1    0    0    0  501 -0.00000000000E+00  0.00000000000E+00  0.34657367173E+02  0.34657367173E+02  0.00000000000E+00 0.  1.
          2   -1    0    0  501    0  0.00000000000E+00 -0.00000000000E+00 -0.13631918615E+04  0.13631918615E+04  0.00000000000E+00 0. -1.
         25    2    1    2    0    0  0.62796164058E+02  0.17552429912E+03 -0.62203739092E+03  0.66130949830E+03  0.12509036351E+03 0.  0.
          5    1    3    3  502    0  0.84718012837E+02  0.68991374233E+02 -0.23379206106E+03  0.25809523753E+03  0.41800000000E+01 0. -1.
         -5    1    3    3    0  502 -0.21921848779E+02  0.10653292488E+03 -0.38824532985E+03  0.40321426077E+03  0.41800000000E+01 0. -1.
        -11    1    1    2    0    0  0.16741561921E+02 -0.81660203862E+02 -0.23879681084E+03  0.25292802466E+03  0.00000000000E+00 0.  1.
         11    1    1    2    0    0 -0.79537725979E+02 -0.93864095255E+02 -0.46770029255E+03  0.48361170570E+03  0.00000000000E+00 0. -1.
</event>
<event>
 7    1  0.2420569E-009  0.9744341E+02  0.7561462E-02  0.1285766E+00
         -1   -1    0    0    0  501 -0.00000000000E+00  0.00000000000E+00  0.18251455485E+02  0.18251455485E+02  0.00000000000E+00 0.  1.
          1   -1    0    0  501    0  0.00000000000E+00 -0.00000000000E+00 -0.79125858504E+03  0.79125858504E+03  0.00000000000E+00 0. -1.
         25    2    1    2    0    0 -0.46634975897E+02 -0.33528376454E+01 -0.53439475801E+03  0.55082639703E+03  0.12508357117E+03 0.  0.
          5    1    3    3  502    0 -0.38453410533E+02  0.37483941391E+02 -0.93156723023E+02  0.10760742580E+03  0.41800000000E+01 0.  1.
         -5    1    3    3    0  502 -0.81815653647E+01 -0.40836779037E+02 -0.44123803499E+03  0.44321897123E+03  0.41800000000E+01 0.  1.
        -11    1    1    2    0    0 -0.24663749562E+02 -0.10025761765E+02 -0.50920329503E+02  0.57460389819E+02  0.00000000000E+00 0.  1.
         11    1    1    2    0    0  0.71298725459E+02  0.13378599411E+02 -0.18769204204E+03  0.20122325367E+03  0.00000000000E+00 0. -1.
</event>
<event>
 7    1  0.2420569E-009  0.1182093E+03  0.7561462E-02  0.1246081E+00
         -1   -1    0    0    0  501 -0.00000000000E+00  0.00000000000E+00  0.21757495702E+02  0.21757495702E+02  0.00000000000E+00 0.  1.
          1   -1    0    0  501    0  0.00000000000E+00 -0.00000000000E+00 -0.73106528833E+03  0.73106528833E+03  0.00000000000E+00 0. -1.
         25    2    1    2    0    0  0.27370054097E+02 -0.44208389783E+02 -0.27984808385E+03  0.31091052394E+03  0.12508757840E+03 0.  0.
          5    1    3    3  502    0 -0.67058819357E+01 -0.82662803904E+02 -0.15509125309E+03  0.17592292968E+03  0.41800000000E+01 0. -1.
         -5    1    3    3    0  502  0.34075936032E+02  0.38454414122E+02 -0.12475683076E+03  0.13498759426E+03  0.41800000000E+01 0. -1.
        -11    1    1    2    0    0 -0.27322953444E+02 -0.22332246008E+02 -0.10734524197E+03  0.11299678744E+03  0.00000000000E+00 0.  1.
         11    1    1    2    0    0 -0.47100652828E-01  0.66540635791E+02 -0.32211446681E+03  0.32891547266E+03  0.00000000000E+00 0. -1.
</event>
<event>
 7    1  0.2420569E-009  0.1039648E+03  0.7561462E-02  0.1272173E+00
          1   -1    0    0  501    0  0.00000000000E+00  0.00000000000E+00  0.87624761138E+03  0.87624761138E+03  0.00000000000E+00 0. -1.
         -1   -1    0    0    0  501 -0.00000000000E+00 -0.00000000000E+00 -0.16384230691E+02  0.16384230691E+02  0.00000000000E+00 0.  1.
         25    2    1    2    0    0  0.15251121909E+02  0.50684163432E+02  0.49746154415E+03  0.51567354740E+03  0.12509891460E+03 0.  0.
          5    1    3    3  502    0 -0.48209261682E+02  0.32288664611E+02  0.13180565712E+03  0.14407253182E+03  0.41800000000E+01 0.  1.
         -5    1    3    3    0  502  0.63460383591E+02  0.18395498821E+02  0.36565588703E+03  0.37160101558E+03  0.41800000000E+01 0.  1.
        -11    1    1    2    0    0 -0.10696530612E+02 -0.66365424991E+02  0.35014866147E+03  0.35654294346E+03  0.00000000000E+00 0. -1.
         11    1    1    2    0    0 -0.45545912971E+01  0.15681261559E+02  0.12253175066E+02  0.20415351213E+02  0.00000000000E+00 0.  1.
</event>
<event>
 7    1  0.2420569E-009  0.1114262E+03  0.7561462E-02  0.1257951E+00
          2   -1    0    0  501    0  0.00000000000E+00  0.00000000000E+00  0.32605434746E+02  0.32605434746E+02  0.00000000000E+00 0. -1.
         -2   -1    0    0    0  501 -0.00000000000E+00 -0.00000000000E+00 -0.47309652728E+03  0.47309652728E+03  0.00000000000E+00 0.  1.
         25    2    1    2    0    0  0.51345317913E+02 -0.93710077152E+01 -0.31398761777E+03  0.34199373247E+03  0.12508929403E+03 0.  0.
          5    1    3    3  502    0 -0.26744741059E+02  0.35869552221E+02 -0.94547056477E+02  0.10468297015E+03  0.41800000000E+01 0.  1.
         -5    1    3    3    0  502  0.78090058972E+02 -0.45240559937E+02 -0.21944056129E+03  0.23731076232E+03  0.41800000000E+01 0.  1.
        -11    1    1    2    0    0 -0.64575651341E+02 -0.87151097397E+01 -0.12534401381E+03  0.14126956389E+03  0.00000000000E+00 0.  1.
         11    1    1    2    0    0  0.13230333428E+02  0.18086117455E+02 -0.11594609600E+01  0.22438665667E+02  0.00000000000E+00 0. -1.
</event>
<event>
 7    1  0.3068881E-009  0.1416945E+03  0.7561462E-02  0.1211067E+00
         -1   -1    0    0    0  501 -0.00000000000E+00  0.00000000000E+00  0.36580623524E+03  0.36580623524E+03  0.00000000000E+00 0.  1.
          1   -1    0    0  501    0  0.00000000000E+00 -0.00000000000E+00 -0.68250815531E+02  0.68250815531E+02  0.00000000000E+00 0. -1.
         25    2    1    2    0    0  0.12501879351E+02  0.11363164508E+03  0.15457220918E+03  0.22936712824E+03  0.12509302105E+03 0.  0.
          5    1    3    3  502    0 -0.45314496864E+02  0.98908811832E+02  0.89061993758E+02  0.14066224730E+03  0.41800000000E+01 0. -1.
         -5    1    3    3    0  502  0.57816376215E+02  0.14722833251E+02  0.65510215418E+02  0.88704880935E+02  0.41800000000E+01 0. -1.
        -11    1    1    2    0    0 -0.12546234669E+02 -0.72728518919E+02  0.14608492980E+03  0.16366933795E+03  0.00000000000E+00 0.  1.
         11    1    1    2    0    0  0.44355318216E-01 -0.40903126164E+02 -0.31017192698E+01  0.41020584587E+02  0.00000000000E+00 0. -1.
</event>
<event>
 7    1  0.2420569E-009  0.1166571E+03  0.7561462E-02  0.1248716E+00
          3   -1    0    0  501    0  0.00000000000E+00  0.00000000000E+00  0.27652605803E+02  0.27652605803E+02  0.00000000000E+00 0. -1.
         -3   -1    0    0    0  501 -0.00000000000E+00 -0.00000000000E+00 -0.56713892908E+03  0.56713892908E+03  0.00000000000E+00 0.  1.
         25    2    1    2    0    0  0.44115094025E+02 -0.60865147942E+02 -0.29142452296E+03  0.32592367731E+03  0.12508910061E+03 0.  0.
          5    1    3    3  502    0 -0.26034962383E+02  0.18269819532E+02 -0.30133271473E+02  0.44012407588E+02  0.41800000000E+01 0.  1.
         -5    1    3    3    0  502  0.70150056408E+02 -0.79134967474E+02 -0.26129125149E+03  0.28191126972E+03  0.41800000000E+01 0.  1.
        -11    1    1    2    0    0 -0.14867671550E+02 -0.10548852128E+02 -0.10256133902E+03  0.10416887347E+03  0.00000000000E+00 0.  1.
         11    1    1    2    0    0 -0.29247422475E+02  0.71414000070E+02 -0.14550046129E+03  0.16469898410E+03  0.00000000000E+00 0. -1.
</event>
<event>
 7    1  0.2420569E-009  0.1069530E+03  0.7561462E-02  0.1266319E+00
          1   -1    0    0  501    0  0.00000000000E+00  0.00000000000E+00  0.13633225129E+03  0.13633225129E+03  0.00000000000E+00 0. -1.
         -1   -1    0    0    0  501 -0.00000000000E+00 -0.00000000000E+00 -0.11259846648E+03  0.11259846648E+03  0.00000000000E+00 0.  1.
         25    2    1    2    0    0  0.54157377535E+02  0.29137936052E+02  0.35946012128E+02  0.14394449882E+03  0.12508342054E+03 0.  0.
          5    1    3    3  502    0 -0.17476133911E+02  0.43688626155E+02 -0.20500136366E+02  0.51496012495E+02  0.41800000000E+01 0.  1.
         -5    1    3    3    0  502  0.71633511446E+02 -0.14550690103E+02  0.56446148495E+02  0.92448486329E+02  0.41800000000E+01 0.  1.
        -11    1    1    2    0    0 -0.26809463783E+02  0.22511660045E+02 -0.27568409091E+02  0.44559391447E+02  0.00000000000E+00 0.  1.
         11    1    1    2    0    0 -0.27347913752E+02 -0.51649596098E+02  0.15356181772E+02  0.60426827504E+02  0.00000000000E+00 0. -1.
</event>
<event>
 7    1  0.2420569E-009  0.1221102E+03  0.7561462E-02  0.1239656E+00
         -2   -1    0    0    0  501 -0.00000000000E+00  0.00000000000E+00  0.26540404719E+02  0.26540404719E+02  0.00000000000E+00 0.  1.
          2   -1    0    0  501    0  0.00000000000E+00 -0.00000000000E+00 -0.74378185252E+03  0.74378185252E+03  0.00000000000E+00 0. -1.
         25    2    1    2    0    0  0.75869261092E+02  0.11795301291E+02 -0.44066369271E+03  0.46446353617E+03  0.12508641989E+03 0.  0.
          5    1    3    3  502    0  0.33954477263E+02 -0.49959499994E+02 -0.11110498780E+03  0.12653319280E+03  0.41800000000E+01 0.  1.
         -5    1    3    3    0  502  0.41914783829E+02  0.61754801285E+02 -0.32955870491E+03  0.33793034337E+03  0.41800000000E+01 0.  1.
        -11    1    1    2    0    0  0.45189275732E+01 -0.26768018270E+02 -0.13406965180E+02  0.30276958629E+02  0.00000000000E+00 0.  1.
         11    1    1    2    0    0 -0.80388188665E+02  0.14972716978E+02 -0.26317078991E+03  0.27558176244E+03  0.00000000000E+00 0. -1.
</event>
<event>
 7    1  0.2420569E-009  0.1036285E+03  0.7561462E-02  0.1272846E+00
         -2   -1    0    0    0  501 -0.00000000000E+00  0.00000000000E+00  0.80715521075E+03  0.80715521075E+03  0.00000000000E+00 0.  1.
          2   -1    0    0  501    0  0.00000000000E+00 -0.00000000000E+00 -0.22157677158E+02  0.22157677158E+02  0.00000000000E+00 0. -1.
         25    2    1    2    0    0  0.57540400087E+02 -0.57043278939E+02  0.45929168524E+03  0.48286826662E+03  0.12509227578E+03 0.  0.
          5    1    3    3  502    0  0.43038642774E+02 -0.44888791446E+01  0.39944720496E+03  0.40180594415E+03  0.41800000000E+01 0. -1.
         -5    1    3    3    0  502  0.14501757313E+02 -0.52554399794E+02  0.59844480287E+02  0.81062322467E+02  0.41800000000E+01 0. -1.
        -11    1    1    2    0    0 -0.25601390941E+02 -0.15439954878E+02  0.16014479492E+03  0.16291156731E+03  0.00000000000E+00 0.  1.
         11    1    1    2    0    0 -0.31939009145E+02  0.72483233817E+02  0.16556105343E+03  0.18353305398E+03  0.00000000000E+00 0. -1.
</event>
<event>
 7    1  0.2420569E-009  0.1927367E+03  0.7561462E-02  0.1156016E+00
         -2   -1    0    0    0  501 -0.00000000000E+00  0.00000000000E+00  0.53761998235E+02  0.53761998235E+02  0.00000000000E+00 0.  1.
          2   -1    0    0  501    0  0.00000000000E+00 -0.00000000000E+00 -0.90875887713E+03  0.90875887713E+03  0.00000000000E+00 0. -1.
         25    2    1    2    0    0 -0.15130034219E+03  0.11466865746E+03 -0.49879090225E+03  0.54816124449E+03  0.12509073203E+03 0.  0.
          5    1    3    3  502    0 -0.17440185176E+01  0.15416373632E+02 -0.19217861774E+03  0.19284916306E+03  0.41800000000E+01 0.  1.
         -5    1    3    3    0  502 -0.14955632367E+03  0.99252283831E+02 -0.30661228451E+03  0.35531208143E+03  0.41800000000E+01 0.  1.
        -11    1    1    2    0    0  0.61625056886E+02 -0.48356383500E+02 -0.62565463643E+02  0.10025180648E+03  0.00000000000E+00 0.  1.
         11    1    1    2    0    0  0.89675285305E+02 -0.66312273964E+02 -0.29364051301E+03  0.31410782441E+03  0.00000000000E+00 0. -1.
</event>
<event>
 7    1  0.2420569E-009  0.1147595E+03  0.7561462E-02  0.1252001E+00
         -1   -1    0    0    0  501 -0.00000000000E+00  0.00000000000E+00  0.26311260561E+02  0.26311260561E+02  0.00000000000E+00 0.  1.
          1   -1    0    0  501    0  0.00000000000E+00 -0.00000000000E+00 -0.67855611876E+03  0.67855611876E+03  0.00000000000E+00 0. -1.
         25    2    1    2    0    0  0.32633528095E+02 -0.73896942819E+02 -0.38889210776E+03  0.41642727047E+03  0.12509554266E+03 0.  0.
          5    1    3    3  502    0  0.11155039928E+02 -0.10705612250E+03 -0.30828274511E+03  0.32655959887E+03  0.41800000000E+01 0.  1.
         -5    1    3    3    0  502  0.21478488167E+02  0.33159179680E+02 -0.80609362658E+02  0.89867671602E+02  0.41800000000E+01 0.  1.
        -11    1    1    2    0    0 -0.36376442237E+01  0.24711624999E+02 -0.71910664743E+01  0.25992466267E+02  0.00000000000E+00 0.  1.
         11    1    1    2    0    0 -0.28995883871E+02  0.49185317819E+02 -0.25616168396E+03  0.26244764258E+03  0.00000000000E+00 0. -1.
</event>
<event>
 7    1  0.2420569E-009  0.1920860E+03  0.7561462E-02  0.1156593E+00
          1   -1    0    0  501    0  0.00000000000E+00  0.00000000000E+00  0.94900604698E+03  0.94900604698E+03  0.00000000000E+00 0.  1.
         -1   -1    0    0    0  501 -0.00000000000E+00 -0.00000000000E+00 -0.39610312933E+02  0.39610312933E+02  0.00000000000E+00 0. -1.
         25    2    1    2    0    0  0.30190551336E+02 -0.15680198959E+03  0.50070193970E+03  0.54022998747E+03  0.12509066160E+03 0.  0.
          5    1    3    3  502    0  0.57783362083E+02 -0.17176540908E+02  0.15350457323E+03  0.16496992724E+03  0.41800000000E+01 0.  1.
         -5    1    3    3    0  502 -0.27592810747E+02 -0.13962544868E+03  0.34719736647E+03  0.37526006024E+03  0.41800000000E+01 0.  1.
        -11    1    1    2    0    0  0.97340829857E+01 -0.74913824226E+01  0.55053550630E+02  0.56407150426E+02  0.00000000000E+00 0. -1.
         11    1    1    2    0    0 -0.39924634322E+02  0.16429337201E+03  0.35364024372E+03  0.39197922201E+03  0.00000000000E+00 0.  1.
</event>
<event>
 7    1  0.2420569E-009  0.1180366E+03  0.7561462E-02  0.1246372E+00
          1   -1    0    0  501    0  0.00000000000E+00  0.00000000000E+00  0.11407122989E+04  0.11407122989E+04  0.00000000000E+00 0. -1.
         -1   -1    0    0    0  501 -0.00000000000E+00 -0.00000000000E+00 -0.21562102233E+02  0.21562102233E+02  0.00000000000E+00 0.  1.
         25    2    1    2    0    0  0.34875054869E+02 -0.78806237637E+02  0.87522659263E+03  0.88831099093E+03  0.12509250823E+03 0.  0.
          5    1    3    3  502    0  0.61084177485E+02 -0.57162022111E+02  0.81282345408E+03  0.81712802755E+03  0.41800000000E+01 0.  1.
         -5    1    3    3    0  502 -0.26209122616E+02 -0.21644215526E+02  0.62403138555E+02  0.71182963380E+02  0.41800000000E+01 0.  1.
        -11    1    1    2    0    0 -0.59483599323E+02  0.38556584489E+02  0.18728214796E+03  0.20024862481E+03  0.00000000000E+00 0. -1.
         11    1    1    2    0    0  0.24608544453E+02  0.40249653148E+02  0.56641456079E+02  0.73714785392E+02  0.00000000000E+00 0.  1.
</event>
<event>
 7    1  0.2420569E-009  0.1274588E+03  0.7561462E-02  0.1231276E+00
         -1   -1    0    0    0  501 -0.00000000000E+00  0.00000000000E+00  0.63646441343E+02  0.63646441343E+02  0.00000000000E+00 0.  1.
          1   -1    0    0  501    0  0.00000000000E+00 -0.00000000000E+00 -0.29268518779E+03  0.29268518779E+03  0.00000000000E+00 0. -1.
         25    2    1    2    0    0  0.73265088544E+02 -0.44187381835E+02 -0.17035366711E+03  0.22800906154E+03  0.12508981706E+03 0.  0.
          5    1    3    3  502    0 -0.27939261922E+02  0.79935107474E+01 -0.94403654184E+01  0.30839770915E+02  0.41800000000E+01 0.  1.
         -5    1    3    3    0  502  0.10120435047E+03 -0.52180892583E+02 -0.16091330169E+03  0.19716929062E+03  0.41800000000E+01 0.  1.
        -11    1    1    2    0    0 -0.14789778538E+01  0.39660646339E+02 -0.34047438565E+02  0.52291321616E+02  0.00000000000E+00 0.  1.
         11    1    1    2    0    0 -0.71786110691E+02  0.45267354963E+01 -0.24637640774E+02  0.76031245980E+02  0.00000000000E+00 0. -1.
</event>
<event>
 7    1  0.2420569E-009  0.1232908E+03  0.7561462E-02  0.1237765E+00
          2   -1    0    0  501    0  0.00000000000E+00  0.00000000000E+00  0.47927627316E+02  0.47927627316E+02  0.00000000000E+00 0. -1.
         -2   -1    0    0    0  501 -0.00000000000E+00 -0.00000000000E+00 -0.48120113108E+03  0.48120113108E+03  0.00000000000E+00 0.  1.
         25    2    1    2    0    0  0.43711149475E+02  0.43016600844E+02 -0.38491750902E+03  0.40935342792E+03  0.12509055782E+03 0.  0.
          5    1    3    3  502    0 -0.42130626729E+02 -0.80261946574E+00 -0.13392762904E+03  0.14046250791E+03  0.41800000000E+01 0.  1.
         -5    1    3    3    0  502  0.85841776203E+02  0.43819220309E+02 -0.25098987998E+03  0.26889092001E+03  0.41800000000E+01 0.  1.
        -11    1    1    2    0    0 -0.46069281258E+02  0.15950624741E+02 -0.32753639009E+02  0.58733312299E+02  0.00000000000E+00 0.  1.
         11    1    1    2    0    0  0.23581317837E+01 -0.58967225585E+02 -0.15602355726E+02  0.61042018175E+02  0.00000000000E+00 0. -1.
</event>
<event>
 7    1  0.2420569E-009  0.1041972E+03  0.7561462E-02  0.1271709E+00
          1   -1    0    0  501    0  0.00000000000E+00  0.00000000000E+00  0.37890422673E+03  0.37890422673E+03  0.00000000000E+00 0. -1.
         -1   -1    0    0    0  501 -0.00000000000E+00 -0.00000000000E+00 -0.37770433752E+02  0.37770433752E+02  0.00000000000E+00 0.  1.
         25    2    1    2    0    0 -0.94248344518E+00  0.39799374130E+02  0.24564233758E+03  0.27851984633E+03  0.12509303870E+03 0.  0.
          5    1    3    3  502    0 -0.12040127837E+02 -0.39108320709E+02  0.14129248421E+03  0.14715795568E+03  0.41800000000E+01 0.  1.
         -5    1    3    3    0  502  0.11097644392E+02  0.78907694839E+02  0.10434985338E+03  0.13136189065E+03  0.41800000000E+01 0.  1.
        -11    1    1    2    0    0 -0.38397546895E+02 -0.16936753497E+02  0.79551512007E+02  0.89942583292E+02  0.00000000000E+00 0. -1.
         11    1    1    2    0    0  0.39340030340E+02 -0.22862620633E+02  0.15939943393E+02  0.48212230863E+02  0.00000000000E+00 0.  1.
</event>
<event>
 7    1  0.2420569E-009  0.8876036E+02  0.7561462E-02  0.1305882E+00
          2   -1    0    0  501    0  0.00000000000E+00  0.00000000000E+00  0.23189459385E+03  0.23189459385E+03  0.00000000000E+00 0. -1.
         -2   -1    0    0    0  501 -0.00000000000E+00 -0.00000000000E+00 -0.61850181616E+02  0.61850181616E+02  0.00000000000E+00 0.  1.
         25    2    1    2    0    0  0.42345559413E+02  0.26263136846E+02  0.89801750388E+02  0.16184762655E+03  0.12508957226E+03 0.  0.
          5    1    3    3  502    0  0.46673625898E+02 -0.13986559747E+02  0.10701553118E+03  0.11765988068E+03  0.41800000000E+01 0. -1.
         -5    1    3    3    0  502 -0.43280664851E+01  0.40249696593E+02 -0.17213780796E+02  0.44187745865E+02  0.41800000000E+01 0. -1.
        -11    1    1    2    0    0  0.18859744912E+02  0.45437225598E+01 -0.72993766651E+01  0.20727187280E+02  0.00000000000E+00 0.  1.
         11    1    1    2    0    0 -0.61205304324E+02 -0.30806859406E+02  0.87542038512E+02  0.11116996164E+03  0.00000000000E+00 0. -1.
</event>
<event>
 7    1  0.2420569E-009  0.1077891E+03  0.7561462E-02  0.1264720E+00
         -2   -1    0    0    0  501 -0.00000000000E+00  0.00000000000E+00  0.95310041966E+01  0.95310041966E+01  0.00000000000E+00 0. -1.
          2   -1    0    0  501    0  0.00000000000E+00 -0.00000000000E+00 -0.25356595920E+04  0.25356595920E+04  0.00000000000E+00 0.  1.
         25    2    1    2    0    0  0.35407190817E+02  0.26010969703E+02 -0.21934936009E+04  0.21974967399E+04  0.12508998671E+03 0.  0.
          5    1    3    3  502    0  0.52746191766E+02 -0.38637697059E+02 -0.10840579261E+04  0.10860359533E+04  0.41800000000E+01 0. -1.
         -5    1    3    3    0  502 -0.17339000949E+02  0.64648666762E+02 -0.11094356748E+04  0.11114607866E+04  0.41800000000E+01 0. -1.
        -11    1    1    2    0    0 -0.23194456687E+02 -0.50533197266E+02 -0.29988766270E+03  0.30499868375E+03  0.00000000000E+00 0.  1.
         11    1    1    2    0    0 -0.12212734130E+02  0.24522227562E+02 -0.32747324151E+02  0.42695172544E+02  0.00000000000E+00 0. -1.
</event>
<event>
 7    1  0.2420569E-009  0.1423182E+03  0.7561462E-02  0.1210243E+00
          2   -1    0    0  501    0  0.00000000000E+00  0.00000000000E+00  0.32643124537E+03  0.32643124537E+03  0.00000000000E+00 0. -1.
         -2   -1    0    0    0  501 -0.00000000000E+00 -0.00000000000E+00 -0.12133079649E+03  0.12133079649E+03  0.00000000000E+00 0.  1.
         25    2    1    2    0    0  0.18105637764E+02  0.11514280767E+03 -0.27138969948E+02  0.17311799035E+03  0.12509050570E+03 0.  0.
          5    1    3    3  502    0 -0.50809854068E+02  0.33157160221E+02  0.55283419379E+01  0.61066140446E+02  0.41800000000E+01 0. -1.
         -5    1    3    3    0  502  0.68915491832E+02  0.81985647448E+02 -0.32667311885E+02  0.11205184991E+03  0.41800000000E+01 0. -1.
        -11    1    1    2    0    0 -0.61593706851E+01 -0.27361322699E+02  0.21960533272E+01  0.28131876534E+02  0.00000000000E+00 0.  1.
         11    1    1    2    0    0 -0.11946267078E+02 -0.87781484970E+02  0.23004336550E+03  0.24651217498E+03  0.00000000000E+00 0. -1.
</event>
<event>
 7    1  0.2420569E-009  0.1377123E+03  0.7561462E-02  0.1216441E+00
          1   -1    0    0  501    0  0.00000000000E+00  0.00000000000E+00  0.20533014664E+03  0.20533014664E+03  0.00000000000E+00 0. -1.
         -1   -1    0    0    0  501 -0.00000000000E+00 -0.00000000000E+00 -0.11059217660E+03  0.11059217660E+03  0.00000000000E+00 0.  1.
         25    2    1    2    0    0 -0.93527333664E+02 -0.78460312609E+01  0.10071407851E+03  0.18601372376E+03  0.12509539348E+03 0.  0.
          5    1    3    3  502    0 -0.99370186684E+02 -0.46780173853E+02  0.96385556515E+02  0.14618641035E+03  0.41800000000E+01 0.  1.
         -5    1    3    3    0  502  0.58428530199E+01  0.38934142593E+02  0.43285219941E+01  0.39827313410E+02  0.41800000000E+01 0.  1.
        -11    1    1    2    0    0  0.10790273578E+03 -0.29528042325E+01  0.63175569874E+01  0.10812784548E+03  0.00000000000E+00 0. -1.
         11    1    1    2    0    0 -0.14375402115E+02  0.10798835493E+02 -0.12293665459E+02  0.21780753991E+02  0.00000000000E+00 0.  1.
</event>
<event>
 7    1  0.2420569E-009  0.3549871E+03  0.7561462E-02  0.1060587E+00
          2   -1    0    0  501    0  0.00000000000E+00  0.00000000000E+00  0.59879280347E+02  0.59879280347E+02  0.00000000000E+00 0. -1.
         -2   -1    0    0    0  501 -0.00000000000E+00 -0.00000000000E+00 -0.22445943156E+04  0.22445943156E+04  0.00000000000E+00 0.  1.
         25    2    1    2    0    0 -0.11842849038E+03 -0.32856545783E+03 -0.10739783136E+04  0.11362471072E+04  0.12508998053E+03 0.  0.
          5    1    3    3  502    0 -0.98898852474E+02 -0.18254727266E+03 -0.45790603368E+03  0.50279210203E+03  0.41800000000E+01 0.  1.
         -5    1    3    3    0  502 -0.19529637907E+02 -0.14601818517E+03 -0.61607227989E+03  0.63345500520E+03  0.41800000000E+01 0.  1.
        -11    1    1    2    0    0  0.90263328262E+02  0.15718183934E+03 -0.68125567552E+03  0.70495595215E+03  0.00000000000E+00 0.  1.
         11    1    1    2    0    0  0.28165162118E+02  0.17138361850E+03 -0.42948104615E+03  0.46327053657E+03  0.00000000000E+00 0. -1.
</event>
<event>
 7    1  0.2420569E-009  0.9812291E+02  0.7561462E-02  0.1284293E+00
         -1   -1    0    0    0  501 -0.00000000000E+00  0.00000000000E+00  0.19158898013E+02  0.19158898013E+02  0.00000000000E+00 0.  1.
          1   -1    0    0  501    0  0.00000000000E+00 -0.00000000000E+00 -0.77314553192E+03  0.77314553192E+03  0.00000000000E+00 0. -1.
         25    2    1    2    0    0 -0.27851620601E+02  0.14431192373E+02 -0.57852796546E+03  0.59272770930E+03  0.12509020132E+03 0.  0.
          5    1    3    3  502    0  0.17670111484E+02  0.48508032581E+02 -0.43832300878E+03  0.44137262545E+03  0.41800000000E+01 0. -1.
         -5    1    3    3    0  502 -0.45521732085E+02 -0.34076840209E+02 -0.14020495668E+03  0.15135508385E+03  0.41800000000E+01 0. -1.
        -11    1    1    2    0    0 -0.15177028162E+02  0.24885011824E+02 -0.25642689988E+02  0.38822075513E+02  0.00000000000E+00 0.  1.
         11    1    1    2    0    0  0.43028648763E+02 -0.39316204197E+02 -0.14981597846E+03  0.16075464512E+03  0.00000000000E+00 0. -1.
</event>
<event>
 7    1  0.2420569E-009  0.1160256E+03  0.7561462E-02  0.1249801E+00
          1   -1    0    0  501    0  0.00000000000E+00  0.00000000000E+00  0.65301363144E+03  0.65301363144E+03  0.00000000000E+00 0. -1.
         -1   -1    0    0    0  501 -0.00000000000E+00 -0.00000000000E+00 -0.35039982556E+02  0.35039982556E+02  0.00000000000E+00 0.  1.
         25    2    1    2    0    0  0.63788505729E+02 -0.52086057378E+02  0.47906860294E+03  0.50193194365E+03  0.12508804456E+03 0.  0.
          5    1    3    3  502    0  0.67199221310E+02  0.15990736278E+02  0.14138465330E+03  0.15741198042E+03  0.41800000000E+01 0.  1.
         -5    1    3    3    0  502 -0.34107155810E+01 -0.68076793656E+02  0.33768394964E+03  0.34451996323E+03  0.41800000000E+01 0.  1.
        -11    1    1    2    0    0 -0.19978446150E+02 -0.68528832982E+01  0.10156140340E+03  0.10373436741E+03  0.00000000000E+00 0. -1.
         11    1    1    2    0    0 -0.43810059579E+02  0.58938940676E+02  0.37343642543E+02  0.82387302946E+02  0.00000000000E+00 0.  1.
</event>
<event>
 7    1  0.2420569E-009  0.8060356E+02  0.7561462E-02  0.1327347E+00
         -2   -1    0    0    0  501 -0.00000000000E+00  0.00000000000E+00  0.28051693847E+02  0.28051693847E+02  0.00000000000E+00 0.  1.
          2   -1    0    0  501    0  0.00000000000E+00 -0.00000000000E+00 -0.57312117808E+03  0.57312117808E+03  0.00000000000E+00 0. -1.
         25    2    1    2    0    0 -0.97646062158E+01 -0.61414497415E+02 -0.28298529775E+03  0.31558750269E+03  0.12509078737E+03 0.  0.
          5    1    3    3  502    0  0.72652208659E+01  0.11275461548E+02  0.72952486434E+01  0.15830746038E+02  0.41800000000E+01 0.  1.
         -5    1    3    3    0  502 -0.17029827082E+02 -0.72689958962E+02 -0.29028054640E+03  0.29975675666E+03  0.41800000000E+01 0.  1.
        -11    1    1    2    0    0  0.20988237293E+02  0.56229713449E+02 -0.26594478609E+03  0.27263329956E+03  0.00000000000E+00 0. -1.
         11    1    1    2    0    0 -0.11223631077E+02  0.51847839663E+01  0.38605996171E+01  0.12952069670E+02  0.00000000000E+00 0.  1.
</event>
<event>
 7    1  0.2420569E-009  0.1097899E+03  0.7561462E-02  0.1260959E+00
         -2   -1    0    0    0  501 -0.00000000000E+00  0.00000000000E+00  0.37008533928E+02  0.37008533928E+02  0.00000000000E+00 0.  1.
          2   -1    0    0  501    0  0.00000000000E+00 -0.00000000000E+00 -0.69577459809E+03  0.69577459809E+03  0.00000000000E+00 0. -1.
         25    2    1    2    0    0 -0.24044624212E+02 -0.67634186880E+02 -0.56658840708E+03  0.58465572972E+03  0.12508945624E+03 0.  0.
          5    1    3    3  502    0  0.17437487890E+02  0.26633024652E+02 -0.63949986448E+02  0.71557369660E+02  0.41800000000E+01 0. -1.
         -5    1    3    3    0  502 -0.41482112101E+02 -0.94267211532E+02 -0.50263842063E+03  0.51309836006E+03  0.41800000000E+01 0. -1.
        -11    1    1    2    0    0  0.35719938651E+02  0.61716586404E+02 -0.19010591723E+02  0.73798737471E+02  0.00000000000E+00 0.  1.
         11    1    1    2    0    0 -0.11675314440E+02  0.59176004756E+01 -0.73167065360E+02  0.74328664835E+02  0.00000000000E+00 0. -1.
</event>
<event>
 7    1  0.2420569E-009  0.1701514E+03  0.7561462E-02  0.1177690E+00
         -1   -1    0    0    0  501 -0.00000000000E+00  0.00000000000E+00  0.33307417465E+03  0.33307417465E+03  0.00000000000E+00 0.  1.
          1   -1    0    0  501    0  0.00000000000E+00 -0.00000000000E+00 -0.10053158665E+03  0.10053158665E+03  0.00000000000E+00 0. -1.
         25    2    1    2    0    0 -0.12805156409E+03 -0.28101909282E+01  0.13917418933E+03  0.22676453397E+03  0.12509036195E+03 0.  0.
          5    1    3    3  502    0 -0.74426132796E+02  0.42204106218E+02  0.19191533016E+02  0.87785096481E+02  0.41800000000E+01 0. -1.
         -5    1    3    3    0  502 -0.53625431293E+02 -0.45014297146E+02  0.11998265631E+03  0.13897943749E+03  0.41800000000E+01 0. -1.
        -11    1    1    2    0    0  0.11845403396E+03  0.55595414370E+02  0.63687003573E+02  0.14552746368E+03  0.00000000000E+00 0. -1.
         11    1    1    2    0    0  0.95975301256E+01 -0.52785223442E+02  0.29681395105E+02  0.61313763656E+02  0.00000000000E+00 0.  1.
</event>
<event>
 7    1  0.2420569E-009  0.9034151E+02  0.7561462E-02  0.1302027E+00
          1   -1    0    0  501    0  0.00000000000E+00  0.00000000000E+00  0.46914204149E+03  0.46914204149E+03  0.00000000000E+00 0. -1.
         -1   -1    0    0    0  501 -0.00000000000E+00 -0.00000000000E+00 -0.36969010379E+02  0.36969010379E+02  0.00000000000E+00 0.  1.
         25    2    1    2    0    0 -0.58031328696E+02  0.32382408943E+02  0.17917239227E+03  0.22839720290E+03  0.12508509353E+03 0.  0.
          5    1    3    3  502    0 -0.42700165350E+02  0.25929537221E+02  0.19722491407E+03  0.20349639837E+03  0.41800000000E+01 0. -1.
         -5    1    3    3    0  502 -0.15331163346E+02  0.64528717219E+01 -0.18052521799E+02  0.24900804531E+02  0.41800000000E+01 0. -1.
        -11    1    1    2    0    0  0.82157902722E+02 -0.34654788956E+02  0.18154669455E+03  0.20226239809E+03  0.00000000000E+00 0. -1.
         11    1    1    2    0    0 -0.24126574026E+02  0.22723800131E+01  0.71453944294E+02  0.75451450883E+02  0.00000000000E+00 0.  1.
</event>
<event>
 7    1  0.2420569E-009  0.9253480E+02  0.7561462E-02  0.1296827E+00
          2   -1    0    0  501    0  0.00000000000E+00  0.00000000000E+00  0.14659560209E+03  0.14659560209E+03  0.00000000000E+00 0. -1.
         -2   -1    0    0    0  501 -0.00000000000E+00 -0.00000000000E+00 -0.10765934785E+03  0.10765934785E+03  0.00000000000E+00 0.  1.
         25    2    1    2    0    0  0.87567385628E+01 -0.51792127747E+02 -0.31814706432E+02  0.13934897186E+03  0.12508739124E+03 0.  0.
          5    1    3    3  502    0 -0.30561539326E+02  0.25698695465E+02 -0.33572575700E+02  0.52335655854E+02  0.41800000000E+01 0. -1.
         -5    1    3    3    0  502  0.39318277888E+02 -0.77490823212E+02  0.17578692681E+01  0.87013316007E+02  0.41800000000E+01 0. -1.
        -11    1    1    2    0    0  0.29658006949E+01  0.43417941909E+02  0.84117348604E+00  0.43527246940E+02  0.00000000000E+00 0.  1.
         11    1    1    2    0    0 -0.11722539258E+02  0.83741858379E+01  0.69909787184E+02  0.71378731141E+02  0.00000000000E+00 0. -1.
</event>
<event>
 7    1  0.2420569E-009  0.9905970E+02  0.7561462E-02  0.1282286E+00
         -1   -1    0    0    0  501 -0.00000000000E+00  0.00000000000E+00  0.40646359337E+02  0.40646359337E+02  0.00000000000E+00 0.  1.
          1   -1    0    0  501    0  0.00000000000E+00 -0.00000000000E+00 -0.30599669784E+03  0.30599669784E+03  0.00000000000E+00 0. -1.
         25    2    1    2    0    0  0.15904185915E+02  0.14857437438E+02 -0.19567106729E+03  0.23325746732E+03  0.12509273724E+03 0.  0.
          5    1    3    3  502    0 -0.38703804980E+02 -0.21447837872E+02 -0.26436156065E+02  0.51713992466E+02  0.41800000000E+01 0. -1.
         -5    1    3    3    0  502  0.54607990895E+02  0.36305275311E+02 -0.16923491122E+03  0.18154347485E+03  0.41800000000E+01 0. -1.
        -11    1    1    2    0    0  0.23795002703E+02 -0.35872203668E+02 -0.23841274357E+02  0.49207961882E+02  0.00000000000E+00 0.  1.
         11    1    1    2    0    0 -0.39699188618E+02  0.21014766229E+02 -0.45837996859E+02  0.64177627976E+02  0.00000000000E+00 0. -1.
</event>
<event>
 7    1  0.2420569E-009  0.1049922E+03  0.7561462E-02  0.1270135E+00
         -4   -1    0    0    0  501 -0.00000000000E+00  0.00000000000E+00  0.12675242559E+03  0.12675242559E+03  0.00000000000E+00 0. -1.
          4   -1    0    0  501    0  0.00000000000E+00 -0.00000000000E+00 -0.15616143446E+03  0.15616143446E+03  0.00000000000E+00 0.  1.
         25    2    1    2    0    0  0.21635345071E+02  0.75434231690E+02  0.29108042589E+02  0.15050719260E+03  0.12508687147E+03 0.  0.
          5    1    3    3  502    0 -0.19677612617E+02  0.20967962601E+02 -0.42457948443E+02  0.51449136824E+02  0.41800000000E+01 0.  1.
         -5    1    3    3    0  502  0.41312957687E+02  0.54466269089E+02  0.71565991032E+02  0.99058055774E+02  0.41800000000E+01 0.  1.
        -11    1    1    2    0    0 -0.36177159908E+02 -0.57798297372E+00  0.17051054851E+00  0.36182178448E+02  0.00000000000E+00 0. -1.
         11    1    1    2    0    0  0.14541814838E+02 -0.74856248716E+02 -0.58687562003E+02  0.96224489006E+02  0.00000000000E+00 0.  1.
</event>
<event>
 7    1  0.2420569E-009  0.1510674E+03  0.7561462E-02  0.1199168E+00
         -2   -1    0    0    0  501 -0.00000000000E+00  0.00000000000E+00  0.32771955536E+02  0.32771955536E+02  0.00000000000E+00 0.  1.
          2   -1    0    0  501    0  0.00000000000E+00 -0.00000000000E+00 -0.11523948716E+04  0.11523948716E+04  0.00000000000E+00 0. -1.
         25    2    1    2    0    0  0.11743449481E+03  0.41907772708E+02 -0.90237092382E+03  0.91949371374E+03  0.12509309924E+03 0.  0.
          5    1    3    3  502    0  0.12606654932E+03  0.60408836460E+02 -0.86877131757E+03  0.87995629267E+03  0.41800000000E+01 0. -1.
         -5    1    3    3    0  502 -0.86320545132E+01 -0.18501063751E+02 -0.33599606249E+02  0.39537421073E+02  0.41800000000E+01 0. -1.
        -11    1    1    2    0    0 -0.94996767214E+01  0.16258371604E+02 -0.33551893161E+01  0.19126834562E+02  0.00000000000E+00 0.  1.
         11    1    1    2    0    0 -0.10793481809E+03 -0.58166144312E+02 -0.21389680291E+03  0.24654627881E+03  0.00000000000E+00 0. -1.
</event>
<event>
 7    1  0.2420569E-009  0.7934907E+02  0.7561462E-02  0.1330909E+00
          1   -1    0    0  501    0  0.00000000000E+00  0.00000000000E+00  0.40814598791E+02  0.40814598791E+02  0.00000000000E+00 0. -1.
         -1   -1    0    0    0  501 -0.00000000000E+00 -0.00000000000E+00 -0.42773057090E+03  0.42773057090E+03  0.00000000000E+00 0.  1.
         25    2    1    2    0    0  0.40386914564E+02  0.53895791833E+02 -0.21301207298E+03  0.25604249467E+03  0.12509099326E+03 0.  0.
          5    1    3    3  502    0  0.39638890159E+01  0.16708356773E+01 -0.18706308591E+03  0.18715922264E+03  0.41800000000E+01 0.  1.
         -5    1    3    3    0  502  0.36423025548E+02  0.52224956156E+02 -0.25948987069E+02  0.68883272030E+02  0.41800000000E+01 0.  1.
        -11    1    1    2    0    0 -0.30239895504E+02  0.36485686870E+01 -0.14337741038E+03  0.14657709623E+03  0.00000000000E+00 0.  1.
         11    1    1    2    0    0 -0.10147019060E+02 -0.57544360520E+02 -0.30526488753E+02  0.65925578792E+02  0.00000000000E+00 0. -1.
</event>
<event>
 7    1  0.2420569E-009  0.1249004E+03  0.7561462E-02  0.1235225E+00
         -1   -1    0    0    0  501 -0.00000000000E+00  0.00000000000E+00  0.61280463654E+03  0.61280463654E+03  0.00000000000E+00 0.  1.
          1   -1    0    0  501    0  0.00000000000E+00 -0.00000000000E+00 -0.31582446790E+02  0.31582446790E+02  0.00000000000E+00 0. -1.
         25    2    1    2    0    0 -0.58255693185E+02  0.64413163468E+02  0.33323713529E+03  0.36638441732E+03  0.12509105284E+03 0.  0.
          5    1    3    3  502    0  0.11716200436E+02  0.62021764397E+02  0.24830456002E+03  0.25623542990E+03  0.41800000000E+01 0. -1.
         -5    1    3    3    0  502 -0.69971893621E+02  0.23913990712E+01  0.84932575270E+02  0.11014898741E+03  0.41800000000E+01 0. -1.
        -11    1    1    2    0    0  0.17941122938E+02 -0.73012878136E+02  0.10465065549E+03  0.12885854244E+03  0.00000000000E+00 0. -1.
         11    1    1    2    0    0  0.40314570248E+02  0.85997146686E+01  0.14333439898E+03  0.14914412357E+03  0.00000000000E+00 0.  1.
</event>
<event>
 7    1  0.2420569E-009  0.1210561E+03  0.7561462E-02  0.1241365E+00
          2   -1    0    0  501    0  0.00000000000E+00  0.00000000000E+00  0.13261817969E+04  0.13261817969E+04  0.00000000000E+00 0. -1.
         -2   -1    0    0    0  501 -0.00000000000E+00 -0.00000000000E+00 -0.14985065408E+02  0.14985065408E+02  0.00000000000E+00 0.  1.
         25    2    1    2    0    0  0.82127129513E+02  0.45858837822E+02  0.80319714542E+03  0.81830381038E+03  0.12509026043E+03 0.  0.
          5    1    3    3  502    0  0.40964686602E+02  0.63379273409E+02  0.20615178510E+03  0.21957019093E+03  0.41800000000E+01 0.  1.
         -5    1    3    3    0  502  0.41162442911E+02 -0.17520435587E+02  0.59704536032E+03  0.59873361945E+03  0.41800000000E+01 0.  1.
        -11    1    1    2    0    0 -0.32020830952E+01 -0.42482409876E+02  0.13391843531E+03  0.14053168967E+03  0.00000000000E+00 0.  1.
         11    1    1    2    0    0 -0.78925046418E+02 -0.33764279456E+01  0.37408115079E+03  0.38233136229E+03  0.00000000000E+00 0. -1.
</event>
<event>
 7    1  0.2420569E-009  0.3880821E+03  0.7561462E-02  0.1047986E+00
         -2   -1    0    0    0  501 -0.00000000000E+00  0.00000000000E+00  0.30660211823E+03  0.30660211823E+03  0.00000000000E+00 0.  1.
          2   -1    0    0  501    0  0.00000000000E+00 -0.00000000000E+00 -0.64103335280E+03  0.64103335280E+03  0.00000000000E+00 0. -1.
         25    2    1    2    0    0 -0.23331881587E+03  0.30183697186E+03 -0.37979546393E+03  0.55266257789E+03  0.12509237849E+03 0.  0.
          5    1    3    3  502    0 -0.18329063044E+03  0.16170104729E+03 -0.18032673285E+03  0.30377275533E+03  0.41800000000E+01 0.  1.
         -5    1    3    3    0  502 -0.50028185424E+02  0.14013592457E+03 -0.19946873108E+03  0.24888982256E+03  0.41800000000E+01 0.  1.
        -11    1    1    2    0    0  0.10490281527E+03 -0.11004024251E+03  0.60575940977E+02  0.16365482043E+03  0.00000000000E+00 0. -1.
         11    1    1    2    0    0  0.12841600060E+03 -0.19179672935E+03 -0.15211711622E+02  0.23131807272E+03  0.00000000000E+00 0.  1.
</event>
<event>
 7    1  0.2420569E-009  0.8616351E+02  0.7561462E-02  0.1312418E+00
         -1   -1    0    0    0  501 -0.00000000000E+00  0.00000000000E+00  0.55712138494E+02  0.55712138494E+02  0.00000000000E+00 0.  1.
          1   -1    0    0  501    0  0.00000000000E+00 -0.00000000000E+00 -0.26994130697E+03  0.26994130697E+03  0.00000000000E+00 0. -1.
         25    2    1    2    0    0 -0.91746369871E+01  0.65351990384E+01 -0.19116192974E+03  0.22872964460E+03  0.12508990425E+03 0.  0.
          5    1    3    3  502    0  0.40991911337E+02  0.35449903476E+02 -0.42070734567E+02  0.68734645984E+02  0.41800000000E+01 0. -1.
         -5    1    3    3    0  502 -0.50166548324E+02 -0.28914704437E+02 -0.14909119517E+03  0.15999499861E+03  0.41800000000E+01 0. -1.
        -11    1    1    2    0    0 -0.17819473962E+02  0.16609712190E+02  0.26452297576E+02  0.35960259153E+02  0.00000000000E+00 0.  1.
         11    1    1    2    0    0  0.26994110949E+02 -0.23144911228E+02 -0.49519536320E+02  0.60963541720E+02  0.00000000000E+00 0. -1.
</event>
<event>
 7    1  0.2420569E-009  0.1119476E+03  0.7561462E-02  0.1257005E+00
          3   -1    0    0  501    0  0.00000000000E+00  0.00000000000E+00  0.13792617061E+02  0.13792617061E+02  0.00000000000E+00 0. -1.
         -3   -1    0    0    0  501 -0.00000000000E+00 -0.00000000000E+00 -0.19629501159E+04  0.19629501159E+04  0.00000000000E+00 0.  1.
         25    2    1    2    0    0 -0.56147363520E+02  0.58725019748E+02 -0.15768772780E+04  0.15839157868E+04  0.12508443214E+03 0.  0.
          5    1    3    3  502    0 -0.14837975192E+02 -0.16031791532E+02 -0.50931667703E+02  0.55575993222E+02  0.41800000000E+01 0.  1.
         -5    1    3    3    0  502 -0.41309388328E+02  0.74756811281E+02 -0.15259456103E+04  0.15283397935E+04  0.41800000000E+01 0.  1.
        -11    1    1    2    0    0 -0.88514177899E+01  0.15271183327E+02 -0.18402723920E+02  0.25499350674E+02  0.00000000000E+00 0.  1.
         11    1    1    2    0    0  0.64998781310E+02 -0.73996203075E+02 -0.35387749691E+03  0.36732759557E+03  0.00000000000E+00 0. -1.
</event>
<event>
 7    1  0.2420569E-009  0.2921681E+03  0.7561462E-02  0.1089223E+00
          2   -1    0    0  501    0  0.00000000000E+00  0.00000000000E+00  0.21894915145E+04  0.21894915145E+04  0.00000000000E+00 0. -1.
         -2   -1    0    0    0  501 -0.00000000000E+00 -0.00000000000E+00 -0.65003951996E+02  0.65003951996E+02  0.00000000000E+00 0.  1.
         25    2    1    2    0    0  0.23791328160E+03  0.14782862825E+03  0.17559591865E+04  0.17825533885E+04  0.12509150787E+03 0.  0.
          5    1    3    3  502    0  0.25012594643E+03  0.12966833407E+03  0.16771721978E+04  0.17006766064E+04  0.41800000000E+01 0.  1.
         -5    1    3    3    0  502 -0.12212664830E+02  0.18160294188E+02  0.78786988699E+02  0.81876782151E+02  0.41800000000E+01 0.  1.
        -11    1    1    2    0    0 -0.14278230001E+03 -0.82810012220E+02  0.28598783549E+03  0.33020194634E+03  0.00000000000E+00 0.  1.
         11    1    1    2    0    0 -0.95130981593E+02 -0.65018616035E+02  0.82540540511E+02  0.14174013164E+03  0.00000000000E+00 0. -1.
</event>
<event>
 7    1  0.2420569E-009  0.2204955E+03  0.7561462E-02  0.1133514E+00
         -1   -1    0    0    0  501 -0.00000000000E+00  0.00000000000E+00  0.54392795838E+03  0.54392795838E+03  0.00000000000E+00 0.  1.
          1   -1    0    0  501    0  0.00000000000E+00 -0.00000000000E+00 -0.98966442395E+02  0.98966442395E+02  0.00000000000E+00 0. -1.
         25    2    1    2    0    0  0.13185471236E+03 -0.15098669381E+03  0.23117757972E+03  0.33056861553E+03  0.12509951770E+03 0.  0.
          5    1    3    3  502    0 -0.10042768441E+02 -0.72612830257E+02  0.60452444159E+02  0.95107574465E+02  0.41800000000E+01 0. -1.
         -5    1    3    3    0  502  0.14189748080E+03 -0.78373863553E+02  0.17072513556E+03  0.23546104106E+03  0.41800000000E+01 0. -1.
        -11    1    1    2    0    0 -0.14256044566E+02  0.44628803401E+02  0.87223094527E+00  0.46858571110E+02  0.00000000000E+00 0. -1.
         11    1    1    2    0    0 -0.11759866779E+03  0.10635789041E+03  0.21291170532E+03  0.26546721414E+03  0.00000000000E+00 0.  1.
</event>
<event>
 7    1  0.2420569E-009  0.1007743E+03  0.7561462E-02  0.1278676E+00
         -3   -1    0    0    0  501 -0.00000000000E+00  0.00000000000E+00  0.60544117112E+02  0.60544117112E+02  0.00000000000E+00 0.  1.
          3   -1    0    0  501    0  0.00000000000E+00 -0.00000000000E+00 -0.32786656859E+03  0.32786656859E+03  0.00000000000E+00 0. -1.
         25    2    1    2    0    0  0.32317575621E+02  0.35377716445E+02 -0.23913386319E+03  0.27409770526E+03  0.12509412053E+03 0.  0.
          5    1    3    3  502    0  0.55018979004E+02  0.79572428672E+01 -0.23061345655E+03  0.23725607370E+03  0.41800000000E+01 0. -1.
         -5    1    3    3    0  502 -0.22701403382E+02  0.27420473578E+02 -0.85204066363E+01  0.36841631560E+02  0.41800000000E+01 0. -1.
        -11    1    1    2    0    0 -0.54194220024E+02 -0.57382240755E+02 -0.13863152228E+02  0.80136895546E+02  0.00000000000E+00 0.  1.
         11    1    1    2    0    0  0.21876644403E+02  0.22004524310E+02 -0.14325436062E+02  0.34176084896E+02  0.00000000000E+00 0. -1.
</event>
<event>
 7    1  0.2420569E-009  0.1213896E+03  0.7561462E-02  0.1240822E+00
          1   -1    0    0  501    0  0.00000000000E+00  0.00000000000E+00  0.45012380544E+03  0.45012380544E+03  0.00000000000E+00 0. -1.
         -1   -1    0    0    0  501 -0.00000000000E+00 -0.00000000000E+00 -0.39953799454E+02  0.39953799454E+02  0.00000000000E+00 0.  1.
         25    2    1    2    0    0 -0.44844330999E+02 -0.63313679068E+02  0.25151378541E+03  0.29141959120E+03  0.12508620189E+03 0.  0.
          5    1    3    3  502    0  0.20227617040E+02 -0.70240338150E+02  0.83438856007E+02  0.11100620112E+03  0.41800000000E+01 0.  1.
         -5    1    3    3    0  502 -0.65071948040E+02  0.69266590821E+01  0.16807492940E+03  0.18041339009E+03  0.41800000000E+01 0.  1.
        -11    1    1    2    0    0  0.23296205586E+02  0.75654514984E+02  0.67032145133E+02  0.10372862340E+03  0.00000000000E+00 0.  1.
         11    1    1    2    0    0  0.21548125413E+02 -0.12340835915E+02  0.91624075437E+02  0.94929390284E+02  0.00000000000E+00 0. -1.
</event>
<event>
 7    1  0.2723267E-009  0.1107526E+03  0.7561462E-02  0.1259182E+00
          1   -1    0    0  501    0  0.00000000000E+00  0.00000000000E+00  0.62001820273E+02  0.62001820273E+02  0.00000000000E+00 0. -1.
         -1   -1    0    0    0  501 -0.00000000000E+00 -0.00000000000E+00 -0.22168068650E+03  0.22168068650E+03  0.00000000000E+00 0.  1.
         25    2    1    2    0    0 -0.17391385262E+02 -0.16906560982E+02 -0.13480465474E+03  0.18549354637E+03  0.12508904317E+03 0.  0.
          5    1    3    3  502    0 -0.68061679977E+02 -0.29431421348E+02 -0.89053243035E+02  0.11595927448E+03  0.41800000000E+01 0.  1.
         -5    1    3    3    0  502  0.50670294715E+02  0.12524860366E+02 -0.45751411701E+02  0.69534271883E+02  0.41800000000E+01 0.  1.
        -11    1    1    2    0    0  0.52773914352E+02 -0.53936804533E+01 -0.11522874342E+02  0.54285858729E+02  0.00000000000E+00 0. -1.
         11    1    1    2    0    0 -0.35382529090E+02  0.22300241435E+02 -0.13351337145E+02  0.43903101672E+02  0.00000000000E+00 0.  1.
</event>
<event>
 7    1  0.2420569E-009  0.9256226E+02  0.7561462E-02  0.1296763E+00
          2   -1    0    0  501    0  0.00000000000E+00  0.00000000000E+00  0.41248293331E+03  0.41248293331E+03  0.00000000000E+00 0. -1.
         -2   -1    0    0    0  501 -0.00000000000E+00 -0.00000000000E+00 -0.30436139818E+02  0.30436139818E+02  0.00000000000E+00 0.  1.
         25    2    1    2    0    0  0.96310750942E+01 -0.25044054808E+02  0.20966615020E+03  0.24561774266E+03  0.12509284026E+03 0.  0.
          5    1    3    3  502    0 -0.21453711917E+02 -0.68086044250E+02  0.14631818362E+03  0.16285715961E+03  0.41800000000E+01 0. -1.
         -5    1    3    3    0  502  0.31084787011E+02  0.43041989442E+02  0.63347966575E+02  0.82760583056E+02  0.41800000000E+01 0. -1.
        -11    1    1    2    0    0 -0.18230140128E+02 -0.12329937882E+02  0.13783914053E+01  0.22051424900E+02  0.00000000000E+00 0.  1.
         11    1    1    2    0    0  0.85990650337E+01  0.37373992690E+02  0.17100225189E+03  0.17524990556E+03  0.00000000000E+00 0. -1.
</event>
<event>
 7    1  0.2420569E-009  0.1578793E+03  0.7561462E-02  0.1191112E+00
         -2   -1    0    0    0  501 -0.00000000000E+00  0.00000000000E+00  0.26507393459E+03  0.26507393459E+03  0.00000000000E+00 0.  1.
          2   -1    0    0  501    0  0.00000000000E+00 -0.00000000000E+00 -0.17062353567E+03  0.17062353567E+03  0.00000000000E+00 0. -1.
         25    2    1    2    0    0 -0.12707613354E+03 -0.17854164861E+02 -0.83120127171E+02  0.19754512174E+03  0.12509198480E+03 0.  0.
          5    1    3    3  502    0 -0.12581601174E+03 -0.54354319067E+02 -0.44336908749E+02  0.14410862115E+03  0.41800000000E+01 0. -1.
         -5    1    3    3    0  502 -0.12601218039E+01  0.36500154206E+02 -0.38783218422E+02  0.53436500589E+02  0.41800000000E+01 0. -1.
        -11    1    1    2    0    0  0.83102045034E+02  0.40467937911E+02  0.58928825695E+02  0.10961847648E+03  0.00000000000E+00 0. -1.
         11    1    1    2    0    0  0.43974088511E+02 -0.22613773050E+02  0.11864170039E+03  0.12853387205E+03  0.00000000000E+00 0.  1.
</event>
<event>
 7    1  0.2420569E-009  0.9790527E+02  0.7561462E-02  0.1284764E+00
         -2   -1    0    0    0  501 -0.00000000000E+00  0.00000000000E+00  0.41990967514E+03  0.41990967514E+03  0.00000000000E+00 0.  1.
          2   -1    0    0  501    0  0.00000000000E+00 -0.00000000000E+00 -0.29652435199E+02  0.29652435199E+02  0.00000000000E+00 0. -1.
         25    2    1    2    0    0 -0.84094653955E+01  0.17096024649E+01  0.20390870485E+03  0.23937461034E+03  0.12509117599E+03 0.  0.
          5    1    3    3  502    0 -0.52135926156E+02 -0.13980627870E+02  0.17792940444E+03  0.18598375767E+03  0.41800000000E+01 0. -1.
         -5    1    3    3    0  502  0.43726460761E+02  0.15690230335E+02  0.25979300413E+02  0.53390852667E+02  0.41800000000E+01 0. -1.
        -11    1    1    2    0    0  0.51700616967E+02 -0.18999356716E+01  0.78939680609E+02  0.94382396266E+02  0.00000000000E+00 0.  1.
         11    1    1    2    0    0 -0.43291151571E+02  0.19033320668E+00  0.10740885448E+03  0.11580510374E+03  0.00000000000E+00 0. -1.
</event>
<event>
 7    1  0.2420569E-009  0.9214158E+02  0.7561462E-02  0.1297747E+00
         -2   -1    0    0    0  501 -0.00000000000E+00  0.00000000000E+00  0.40989527140E+02  0.40989527140E+02  0.00000000000E+00 0.  1.
          2   -1    0    0  501    0  0.00000000000E+00 -0.00000000000E+00 -0.30496486687E+03  0.30496486687E+03  0.00000000000E+00 0. -1.
         25    2    1    2    0    0  0.17283617225E+02 -0.14768892606E+01 -0.18271149682E+03  0.22210791439E+03  0.12509008728E+03 0.  0.
          5    1    3    3  502    0  0.59265638111E+02 -0.35869965630E+02 -0.80342252626E+02  0.10616694519E+03  0.41800000000E+01 0. -1.
         -5    1    3    3    0  502 -0.41982020886E+02  0.34393076369E+02 -0.10236924420E+03  0.11594096919E+03  0.41800000000E+01 0. -1.
        -11    1    1    2    0    0 -0.34052656059E+02 -0.14754670982E+02  0.22041452561E+01  0.37177169833E+02  0.00000000000E+00 0.  1.
         11    1    1    2    0    0  0.16769038834E+02  0.16231560243E+02 -0.83467988166E+02  0.86669309792E+02  0.00000000000E+00 0. -1.
</event>
<event>
 7    1  0.2420569E-009  0.1506321E+03  0.7561462E-02  0.1199698E+00
         -4   -1    0    0    0  501 -0.00000000000E+00  0.00000000000E+00  0.17537765691E+03  0.17537765691E+03  0.00000000000E+00 0. -1.
          4   -1    0    0  501    0  0.00000000000E+00 -0.00000000000E+00 -0.13879824416E+03  0.13879824416E+03  0.00000000000E+00 0.  1.
         25    2    1    2    0    0 -0.10684850766E+03  0.28467327959E+02  0.26864279327E+01  0.16697907739E+03  0.12509117891E+03 0.  0.
          5    1    3    3  502    0 -0.13077567431E+03  0.16799175457E+02  0.22116699758E+02  0.13375765434E+03  0.41800000000E+01 0.  1.
         -5    1    3    3    0  502  0.23927166646E+02  0.11668152503E+02 -0.19430271825E+02  0.33221423054E+02  0.41800000000E+01 0.  1.
        -11    1    1    2    0    0  0.47087046856E+02  0.32355297744E+02  0.21443834449E+02  0.61023711044E+02  0.00000000000E+00 0. -1.
         11    1    1    2    0    0  0.59761460805E+02 -0.60822625703E+02  0.12449150366E+02  0.86173112627E+02  0.00000000000E+00 0.  1.
</event>
<event>
 7    1  0.2420569E-009  0.1354439E+03  0.7561462E-02  0.1219594E+00
          3   -1    0    0  501    0  0.00000000000E+00  0.00000000000E+00  0.55219318172E+02  0.55219318172E+02  0.00000000000E+00 0. -1.
         -3   -1    0    0    0  501 -0.00000000000E+00 -0.00000000000E+00 -0.13996728651E+04  0.13996728651E+04  0.00000000000E+00 0.  1.
         25    2    1    2    0    0  0.10246984919E+03  0.16987007586E+02 -0.12985230652E+04  0.13086626576E+04  0.12508865712E+03 0.  0.
          5    1    3    3  502    0 -0.15458803600E+02  0.22131645661E+02 -0.82250077863E+02  0.86667941344E+02  0.41800000000E+01 0. -1.
         -5    1    3    3    0  502  0.11792865279E+03 -0.51446380751E+01 -0.12162729873E+04  0.12219947163E+04  0.41800000000E+01 0. -1.
        -11    1    1    2    0    0 -0.53493722839E+02 -0.44231056405E+02 -0.56128212848E+02  0.89265564533E+02  0.00000000000E+00 0.  1.
         11    1    1    2    0    0 -0.48976126351E+02  0.27244048819E+02  0.10197731116E+02  0.56963961136E+02  0.00000000000E+00 0. -1.
</event>
<event>
 7    1  0.2420569E-009  0.1505703E+03  0.7561462E-02  0.1199774E+00
         -1   -1    0    0    0  501 -0.00000000000E+00  0.00000000000E+00  0.20521014507E+03  0.20521014507E+03  0.00000000000E+00 0. -1.
          1   -1    0    0  501    0  0.00000000000E+00 -0.00000000000E+00 -0.13615915524E+03  0.13615915524E+03  0.00000000000E+00 0.  1.
         25    2    1    2    0    0 -0.52869414231E+02 -0.11481752121E+03  0.46430590642E+02  0.18380149695E+03  0.12509577290E+03 0.  0.
          5    1    3    3  502    0 -0.20441385388E+02  0.23133715502E+02 -0.76258372771E+01  0.32072493256E+02  0.41800000000E+01 0. -1.
         -5    1    3    3    0  502 -0.32428028843E+02 -0.13795123671E+03  0.54056427919E+02  0.15172900370E+03  0.41800000000E+01 0. -1.
        -11    1    1    2    0    0  0.19918584610E+02  0.68740220846E+02 -0.32434571215E+02  0.78574610306E+02  0.00000000000E+00 0.  1.
         11    1    1    2    0    0  0.32950829621E+02  0.46077300360E+02  0.55054970406E+02  0.78993193045E+02  0.00000000000E+00 0. -1.
</event>
<event>
 7    1  0.2420569E-009  0.1465495E+03  0.7561462E-02  0.1204778E+00
          1   -1    0    0  501    0  0.00000000000E+00  0.00000000000E+00  0.33681183240E+03  0.33681183240E+03  0.00000000000E+00 0. -1.
         -1   -1    0    0    0  501 -0.00000000000E+00 -0.00000000000E+00 -0.15234114974E+03  0.15234114974E+03  0.00000000000E+00 0.  1.
         25    2    1    2    0    0 -0.12961239686E+03  0.22964514774E+02  0.25578342300E+03  0.31368927205E+03  0.12509619321E+03 0.  0.
          5    1    3    3  502    0 -0.80763917751E+02  0.27138856510E+02  0.24999177765E+03  0.26414520483E+03  0.41800000000E+01 0. -1.
         -5    1    3    3    0  502 -0.48848479112E+02 -0.41743417363E+01  0.57916453517E+01  0.49544067217E+02  0.41800000000E+01 0. -1.
        -11    1    1    2    0    0  0.12325527466E+03  0.11271243688E+02 -0.65913658025E+02  0.14022665218E+03  0.00000000000E+00 0.  1.
         11    1    1    2    0    0  0.63571222008E+01 -0.34235758461E+02 -0.53990823161E+01  0.35237057907E+02  0.00000000000E+00 0. -1.
</event>
<event>
 7    1  0.2420569E-009  0.1097887E+03  0.7561462E-02  0.1260962E+00
         -2   -1    0    0    0  501 -0.00000000000E+00  0.00000000000E+00  0.28619973611E+02  0.28619973611E+02  0.00000000000E+00 0.  1.
          2   -1    0    0  501    0  0.00000000000E+00 -0.00000000000E+00 -0.57980022373E+03  0.57980022373E+03  0.00000000000E+00 0. -1.
         25    2    1    2    0    0  0.61132227946E+02 -0.35002237295E+02 -0.31293630214E+03  0.34429467466E+03  0.12508951951E+03 0.  0.
          5    1    3    3  502    0  0.56578441172E+02 -0.67090888953E+02 -0.29328348847E+03  0.30616169649E+03  0.41800000000E+01 0. -1.
         -5    1    3    3    0  502  0.45537867745E+01  0.32088651658E+02 -0.19652813672E+02  0.38132978174E+02  0.41800000000E+01 0. -1.
        -11    1    1    2    0    0 -0.75378781393E+02  0.19250843336E+02 -0.22727511237E+03  0.24022183988E+03  0.00000000000E+00 0. -1.
         11    1    1    2    0    0  0.14246553447E+02  0.15751393960E+02 -0.10968835608E+02  0.23903682800E+02  0.00000000000E+00 0.  1.
</event>
<event>
 7    1  0.2420569E-009  0.5603961E+02  0.7561462E-02  0.1415245E+00
         -1   -1    0    0    0  501 -0.00000000000E+00  0.00000000000E+00  0.29929631883E+02  0.29929631883E+02  0.00000000000E+00 0.  1.
          1   -1    0    0  501    0  0.00000000000E+00 -0.00000000000E+00 -0.43280449377E+03  0.43280449377E+03  0.00000000000E+00 0. -1.
         25    2    1    2    0    0 -0.26979640708E+02  0.20298226505E+02 -0.38059108222E+03  0.40204087769E+03  0.12508947378E+03 0.  0.
          5    1    3    3  502    0 -0.42274031039E+02  0.27918961981E+01 -0.37546644219E+03  0.37787221385E+03  0.41800000000E+01 0.  1.
         -5    1    3    3    0  502  0.15294390331E+02  0.17506330307E+02 -0.51246400332E+01  0.24168663842E+02  0.41800000000E+01 0.  1.
        -11    1    1    2    0    0  0.12267162516E+02  0.75416173639E+01 -0.25247916132E+02  0.29065727889E+02  0.00000000000E+00 0. -1.
         11    1    1    2    0    0  0.14712478191E+02 -0.27839843869E+02  0.29641364692E+01  0.31627520077E+02  0.00000000000E+00 0.  1.
</event>
<event>
 7    1  0.2420569E-009  0.8270965E+02  0.7561462E-02  0.1321533E+00
         -2   -1    0    0    0  501 -0.00000000000E+00  0.00000000000E+00  0.14402442841E+03  0.14402442841E+03  0.00000000000E+00 0. -1.
          2   -1    0    0  501    0  0.00000000000E+00 -0.00000000000E+00 -0.10166133016E+03  0.10166133016E+03  0.00000000000E+00 0.  1.
         25    2    1    2    0    0 -0.25188479987E+02  0.23619567585E+02  0.72211992200E+02  0.14850617601E+03  0.12508864457E+03 0.  0.
          5    1    3    3  502    0 -0.48763110922E+02  0.35630597593E+02  0.95460567566E+02  0.11303792652E+03  0.41800000000E+01 0.  1.
         -5    1    3    3    0  502  0.23574630935E+02 -0.12011030008E+02 -0.23248575366E+02  0.35468249493E+02  0.41800000000E+01 0.  1.
        -11    1    1    2    0    0  0.43479557889E+01  0.24906450724E+02 -0.36020665655E+02  0.44008230611E+02  0.00000000000E+00 0.  1.
         11    1    1    2    0    0  0.20840524198E+02 -0.48526018309E+02  0.61717716983E+01  0.53171351945E+02  0.00000000000E+00 0. -1.
</event>
<event>
 7    1  0.2420569E-009  0.2128034E+03  0.7561462E-02  0.1139365E+00
          1   -1    0    0  501    0  0.00000000000E+00  0.00000000000E+00  0.88799342545E+02  0.88799342545E+02  0.00000000000E+00 0. -1.
         -1   -1    0    0    0  501 -0.00000000000E+00 -0.00000000000E+00 -0.72635903876E+03  0.72635903876E+03  0.00000000000E+00 0.  1.
         25    2    1    2    0    0  0.20824055287E+03 -0.19635988412E+02 -0.17751752251E+03  0.30151304057E+03  0.12509173806E+03 0.  0.
          5    1    3    3  502    0  0.58923246012E+01 -0.80871904840E+01 -0.72308931017E+02  0.73117549494E+02  0.41800000000E+01 0. -1.
         -5    1    3    3    0  502  0.20234822827E+03 -0.11548797928E+02 -0.10520859150E+03  0.22839549107E+03  0.41800000000E+01 0. -1.
        -11    1    1    2    0    0 -0.50850537446E+02 -0.10162213925E+02 -0.21294922422E+03  0.21917212379E+03  0.00000000000E+00 0.  1.
         11    1    1    2    0    0 -0.15739001542E+03  0.29798202337E+02 -0.24709294948E+03  0.29447321695E+03  0.00000000000E+00 0. -1.
</event>
<event>
 7    1  0.2420569E-009  0.7004317E+02  0.7561462E-02  0.1359946E+00
          2   -1    0    0  501    0  0.00000000000E+00  0.00000000000E+00  0.64091924729E+03  0.64091924729E+03  0.00000000000E+00 0. -1.
         -2   -1    0    0    0  501 -0.00000000000E+00 -0.00000000000E+00 -0.19136449745E+02  0.19136449745E+02  0.00000000000E+00 0.  1.
         25    2    1    2    0    0  0.10670418218E+02  0.22407869380E+02  0.35430807085E+03  0.37656053714E+03  0.12509060167E+03 0.  0.
          5    1    3    3  502    0  0.25166022243E+02  0.25525007997E+02  0.35872441931E+03  0.36053506920E+03  0.41800000000E+01 0. -1.
         -5    1    3    3    0  502 -0.14495604025E+02 -0.31171386172E+01 -0.44163484586E+01  0.16025467947E+02  0.41800000000E+01 0. -1.
        -11    1    1    2    0    0 -0.10613745831E+01  0.32668297946E+02  0.56848058487E+02  0.65574735687E+02  0.00000000000E+00 0.  1.
         11    1    1    2    0    0 -0.96090436346E+01 -0.55076167326E+02  0.21062666821E+03  0.21792042421E+03  0.00000000000E+00 0. -1.
</event>
<event>
 7    1  0.2420569E-009  0.3505725E+03  0.7561462E-02  0.1062380E+00
          1   -1    0    0  501    0  0.00000000000E+00  0.00000000000E+00  0.44523567994E+03  0.44523567994E+03  0.00000000000E+00 0. -1.
         -1   -1    0    0    0  501 -0.00000000000E+00 -0.00000000000E+00 -0.28523815331E+03  0.28523815331E+03  0.00000000000E+00 0.  1.
         25    2    1    2    0    0  0.18643511705E+03  0.28449608715E+03  0.98409859535E+02  0.37553665190E+03  0.12508876845E+03 0.  0.
          5    1    3    3  502    0  0.32020391871E+01 -0.96393009010E+01 -0.73233032283E+01  0.13201225208E+02  0.41800000000E+01 0.  1.
         -5    1    3    3    0  502  0.18323307786E+03  0.29413538805E+03  0.10573316276E+03  0.36233542669E+03  0.41800000000E+01 0.  1.
        -11    1    1    2    0    0 -0.75598735694E+02 -0.74465925332E+02  0.49650775565E+02  0.11715605997E+03  0.00000000000E+00 0. -1.
         11    1    1    2    0    0 -0.11083638136E+03 -0.21003016182E+03  0.11936891534E+02  0.23778112138E+03  0.00000000000E+00 0.  1.
</event>
<event>
 7    1  0.2420569E-009  0.1439119E+03  0.7561462E-02  0.1208160E+00
          2   -1    0    0  501    0  0.00000000000E+00  0.00000000000E+00  0.59746425772E+03  0.59746425772E+03  0.00000000000E+00 0. -1.
         -2   -1    0    0    0  501 -0.00000000000E+00 -0.00000000000E+00 -0.36084817963E+02  0.36084817963E+02  0.00000000000E+00 0.  1.
         25    2    1    2    0    0 -0.43440117906E+02 -0.88649049267E+02  0.30381966343E+03  0.34307367244E+03  0.12508980395E+03 0.  0.
          5    1    3    3  502    0  0.33110201602E+02  0.81333261111E+01  0.48082905626E+02  0.59092086249E+02  0.41800000000E+01 0. -1.
         -5    1    3    3    0  502 -0.76550319508E+02 -0.96782375378E+02  0.25573675781E+03  0.28398158619E+03  0.41800000000E+01 0. -1.
        -11    1    1    2    0    0 -0.17966799639E+02  0.59269877691E+02  0.15951091864E+03  0.17111241175E+03  0.00000000000E+00 0. -1.
         11    1    1    2    0    0  0.61406917545E+02  0.29379171576E+02  0.98048857681E+02  0.11936299149E+03  0.00000000000E+00 0.  1.
</event>
<event>
 7    1  0.2420569E-009  0.7295095E+02  0.7561462E-02  0.1350336E+00
         -2   -1    0    0    0  501 -0.00000000000E+00  0.00000000000E+00  0.34335742464E+03  0.34335742464E+03  0.00000000000E+00 0.  1.
          2   -1    0    0  501    0  0.00000000000E+00 -0.00000000000E+00 -0.44030703763E+02  0.44030703763E+02  0.00000000000E+00 0. -1.
         25    2    1    2    0    0 -0.29966968739E+02  0.38445619897E+02  0.21286566069E+03  0.25166404033E+03  0.12508762844E+03 0.  0.
          5    1    3    3  502    0 -0.94276785346E+01  0.15503668552E+02 -0.13611484655E+02  0.23064903547E+02  0.41800000000E+01 0.  1.
         -5    1    3    3    0  502 -0.20539290204E+02  0.22941951345E+02  0.22647714534E+03  0.22859913678E+03  0.41800000000E+01 0.  1.
        -11    1    1    2    0    0 -0.27814965202E+02 -0.23774508945E+02  0.60492508591E+02  0.70698254295E+02  0.00000000000E+00 0.  1.
         11    1    1    2    0    0  0.57781933941E+02 -0.14671110952E+02  0.25968551593E+02  0.65025833776E+02  0.00000000000E+00 0. -1.
</event>
<event>
 7    1  0.2420569E-009  0.1049978E+03  0.7561462E-02  0.1270124E+00
         -1   -1    0    0    0  501 -0.00000000000E+00  0.00000000000E+00  0.29449896997E+02  0.29449896997E+02  0.00000000000E+00 0.  1.
          1   -1    0    0  501    0  0.00000000000E+00 -0.00000000000E+00 -0.68196546232E+03  0.68196546232E+03  0.00000000000E+00 0. -1.
         25    2    1    2    0    0 -0.52687270819E+02 -0.23113986960E+02 -0.31331506383E+03  0.34223434848E+03  0.12509122734E+03 0.  0.
          5    1    3    3  502    0  0.59060384922E+01 -0.22444665403E+02 -0.26534523091E+03  0.26639108142E+03  0.41800000000E+01 0.  1.
         -5    1    3    3    0  502 -0.58593309311E+02 -0.66932155770E+00 -0.47969832919E+02  0.75843267056E+02  0.41800000000E+01 0.  1.
        -11    1    1    2    0    0  0.46174799228E+02  0.68063725488E+02 -0.12102352207E+03  0.14632660628E+03  0.00000000000E+00 0.  1.
         11    1    1    2    0    0  0.65124715907E+01 -0.44949738528E+02 -0.21817697943E+03  0.22285440456E+03  0.00000000000E+00 0. -1.
</event>
<event>
 7    1  0.2420569E-009  0.1032241E+03  0.7561462E-02  0.1273658E+00
          2   -1    0    0  501    0  0.00000000000E+00  0.00000000000E+00  0.93428713206E+02  0.93428713206E+02  0.00000000000E+00 0. -1.
         -2   -1    0    0    0  501 -0.00000000000E+00 -0.00000000000E+00 -0.18717767394E+03  0.18717767394E+03  0.00000000000E+00 0.  1.
         25    2    1    2    0    0  0.56742956324E+02  0.47604079730E+02 -0.39656772733E+02  0.15068926966E+03  0.12509470359E+03 0.  0.
          5    1    3    3  502    0 -0.19120657644E+02  0.52486837176E+02  0.13761950604E+02  0.57683024452E+02  0.41800000000E+01 0. -1.
         -5    1    3    3    0  502  0.75863613968E+02 -0.48827574461E+01 -0.53418723336E+02  0.93006245207E+02  0.41800000000E+01 0. -1.
        -11    1    1    2    0    0 -0.21215557401E+02 -0.21532644226E+02  0.25099330026E+02  0.39290342464E+02  0.00000000000E+00 0. -1.
         11    1    1    2    0    0 -0.35527398923E+02 -0.26071435505E+02 -0.79191518028E+02  0.90626775023E+02  0.00000000000E+00 0.  1.
</event>
<event>
 7    1  0.2420569E-009  0.1080417E+03  0.7561462E-02  0.1264240E+00
          1   -1    0    0  501    0  0.00000000000E+00  0.00000000000E+00  0.57548546475E+03  0.57548546475E+03  0.00000000000E+00 0. -1.
         -1   -1    0    0    0  501 -0.00000000000E+00 -0.00000000000E+00 -0.25807116555E+02  0.25807116555E+02  0.00000000000E+00 0.  1.
         25    2    1    2    0    0 -0.46770964985E+02  0.25462812765E+02  0.35330146703E+03  0.37855742625E+03  0.12509164787E+03 0.  0.
          5    1    3    3  502    0  0.40920549921E+02  0.18283268471E+02  0.85251798825E+02  0.96405969290E+02  0.41800000000E+01 0.  1.
         -5    1    3    3    0  502 -0.87691514906E+02  0.71795442933E+01  0.26804966820E+03  0.28215145696E+03  0.41800000000E+01 0.  1.
        -11    1    1    2    0    0  0.50918094947E+02 -0.41957180252E+02  0.19478198183E+03  0.20565280892E+03  0.00000000000E+00 0. -1.
         11    1    1    2    0    0 -0.41471299617E+01  0.16494367488E+02  0.15948993366E+01  0.17082346140E+02  0.00000000000E+00 0.  1.
</event>
<event>
 7    1  0.2420569E-009  0.1996197E+03  0.7561462E-02  0.1150060E+00
         -2   -1    0    0    0  501 -0.00000000000E+00  0.00000000000E+00  0.77119921712E+02  0.77119921712E+02  0.00000000000E+00 0.  1.
          2   -1    0    0  501    0  0.00000000000E+00 -0.00000000000E+00 -0.54280289535E+03  0.54280289535E+03  0.00000000000E+00 0. -1.
         25    2    1    2    0    0  0.16878285421E+03  0.38464452726E+02 -0.27252091870E+03  0.34624080195E+03  0.12509146975E+03 0.  0.
          5    1    3    3  502    0  0.10226550686E+03 -0.38247513094E+02 -0.11369110962E+03  0.15768400984E+03  0.41800000000E+01 0. -1.
         -5    1    3    3    0  502  0.66517347348E+02  0.76711965820E+02 -0.15882980908E+03  0.18855679211E+03  0.41800000000E+01 0. -1.
        -11    1    1    2    0    0 -0.24284473585E+02 -0.36503470438E+02 -0.20138181058E+02  0.48247127869E+02  0.00000000000E+00 0.  1.
         11    1    1    2    0    0 -0.14449838063E+03 -0.19609822877E+01 -0.17302387388E+03  0.22543488725E+03  0.00000000000E+00 0. -1.
</event>
<event>
 7    1  0.2420569E-009  0.1924454E+03  0.7561462E-02  0.1156274E+00
          1   -1    0    0  501    0  0.00000000000E+00  0.00000000000E+00  0.89727723133E+02  0.89727723133E+02  0.00000000000E+00 0. -1.
         -1   -1    0    0    0  501 -0.00000000000E+00 -0.00000000000E+00 -0.46953508057E+03  0.46953508057E+03  0.00000000000E+00 0.  1.
         25    2    1    2    0    0 -0.65290397685E+02  0.14421742183E+03 -0.10145272072E+03  0.22583350598E+03  0.12508643848E+03 0.  0.
          5    1    3    3  502    0 -0.38923177683E+02  0.16373554291E+03 -0.89554056107E+02  0.19068755371E+03  0.41800000000E+01 0.  1.
         -5    1    3    3    0  502 -0.26367220002E+02 -0.19518121087E+02 -0.11898664616E+02  0.35145952271E+02  0.41800000000E+01 0.  1.
        -11    1    1    2    0    0  0.73187535355E+02 -0.49343212304E+02 -0.12874091507E+03  0.15609417396E+03  0.00000000000E+00 0.  1.
         11    1    1    2    0    0 -0.78971376706E+01 -0.94874209522E+02 -0.14961372165E+03  0.17733512376E+03  0.00000000000E+00 0. -1.
</event>
<event>
 7    1  0.2420569E-009  0.1203583E+03  0.7561462E-02  0.1242507E+00
          2   -1    0    0  501    0  0.00000000000E+00  0.00000000000E+00  0.56853784764E+02  0.56853784764E+02  0.00000000000E+00 0. -1.
         -2   -1    0    0    0  501 -0.00000000000E+00 -0.00000000000E+00 -0.27929065626E+03  0.27929065626E+03  0.00000000000E+00 0.  1.
         25    2    1    2    0    0 -0.38695055720E+02  0.47034149107E+02 -0.12121761922E+03  0.18453362099E+03  0.12509767203E+03 0.  0.
          5    1    3    3  502    0  0.39523333371E+02  0.80566658713E+01 -0.75776200843E+02  0.85944800657E+02  0.41800000000E+01 0. -1.
         -5    1    3    3    0  502 -0.78218389091E+02  0.38977483236E+02 -0.45441418375E+02  0.98588820336E+02  0.41800000000E+01 0. -1.
        -11    1    1    2    0    0 -0.16358923633E+02 -0.54694114946E+02 -0.55808120543E+02  0.79834872773E+02  0.00000000000E+00 0. -1.
         11    1    1    2    0    0  0.55053979353E+02  0.76599658396E+01 -0.45411131734E+02  0.71775947257E+02  0.00000000000E+00 0.  1.
</event>
<event>
 7    1  0.2420569E-009  0.1294875E+03  0.7561462E-02  0.1228218E+00
          1   -1    0    0  501    0  0.00000000000E+00  0.00000000000E+00  0.49389014036E+02  0.49389014036E+02  0.00000000000E+00 0. -1.
         -1   -1    0    0    0  501 -0.00000000000E+00 -0.00000000000E+00 -0.40941179497E+03  0.40941179497E+03  0.00000000000E+00 0.  1.
         25    2    1    2    0    0  0.88951683512E+02  0.13172448833E+02 -0.18268869561E+03  0.23897315327E+03  0.12508834107E+03 0.  0.
          5    1    3    3  502    0 -0.23556870367E+02 -0.24042393713E+02 -0.27485799928E+02  0.43656665409E+02  0.41800000000E+01 0.  1.
         -5    1    3    3    0  502  0.11250855388E+03  0.37214842546E+02 -0.15520289568E+03  0.19531648786E+03  0.41800000000E+01 0.  1.
        -11    1    1    2    0    0 -0.45131159026E+02 -0.35386536697E+02 -0.30423968633E+02  0.64920307777E+02  0.00000000000E+00 0. -1.
         11    1    1    2    0    0 -0.43820524486E+02  0.22214087864E+02 -0.14691011669E+03  0.15490734796E+03  0.00000000000E+00 0.  1.
</event>
<event>
 7    1  0.2420569E-009  0.1172996E+03  0.7561462E-02  0.1247619E+00
          2   -1    0    0  501    0  0.00000000000E+00  0.00000000000E+00  0.72842546083E+03  0.72842546083E+03  0.00000000000E+00 0. -1.
         -2   -1    0    0    0  501 -0.00000000000E+00 -0.00000000000E+00 -0.26911092639E+02  0.26911092639E+02  0.00000000000E+00 0.  1.
         25    2    1    2    0    0  0.89108162198E+02  0.18467008319E+02  0.39042288630E+03  0.41995119228E+03  0.12509068227E+03 0.  0.
          5    1    3    3  502    0  0.98973961539E+02  0.18305320394E+02  0.15865468150E+03  0.18793538831E+03  0.41800000000E+01 0. -1.
         -5    1    3    3    0  502 -0.98657993402E+01  0.16168792556E+00  0.23176820480E+03  0.23201580397E+03  0.41800000000E+01 0. -1.
        -11    1    1    2    0    0 -0.64420150936E+02  0.28220987107E+02  0.20772707910E+03  0.21931009861E+03  0.00000000000E+00 0.  1.
         11    1    1    2    0    0 -0.24688011263E+02 -0.46687995427E+02  0.10336440280E+03  0.11607526258E+03  0.00000000000E+00 0. -1.
</event>
<event>
 7    1  0.2420569E-009  0.8519078E+02  0.7561462E-02  0.1314934E+00
          1   -1    0    0  501    0  0.00000000000E+00  0.00000000000E+00  0.90064544899E+02  0.90064544899E+02  0.00000000000E+00 0. -1.
         -1   -1    0    0    0  501 -0.00000000000E+00 -0.00000000000E+00 -0.16024033845E+03  0.16024033845E+03  0.00000000000E+00 0.  1.
         25    2    1    2    0    0  0.17370350771E+02  0.49619189661E+02 -0.33006367484E+02  0.13964287239E+03  0.12508764306E+03 0.  0.
          5    1    3    3  502    0  0.45092205069E+01 -0.64513804019E+01  0.43177576347E+02  0.44087740676E+02  0.41800000000E+01 0.  1.
         -5    1    3    3    0  502  0.12861130264E+02  0.56070570063E+02 -0.76183943831E+02  0.95555131712E+02  0.41800000000E+01 0.  1.
        -11    1    1    2    0    0 -0.14660683333E+02 -0.75934425971E+02 -0.23176824784E+02  0.80734985542E+02  0.00000000000E+00 0. -1.
         11    1    1    2    0    0 -0.27096674385E+01  0.26315236310E+02 -0.13992601281E+02  0.29927025417E+02  0.00000000000E+00 0.  1.
</event>
<event>
 7    1  0.2420569E-009  0.9825284E+02  0.7561462E-02  0.1284013E+00
          2   -1    0    0  501    0  0.00000000000E+00  0.00000000000E+00  0.29941771822E+03  0.29941771822E+03  0.00000000000E+00 0. -1.
         -2   -1    0    0    0  501 -0.00000000000E+00 -0.00000000000E+00 -0.43620686904E+02  0.43620686904E+02  0.00000000000E+00 0.  1.
         25    2    1    2    0    0  0.84244386415E+01 -0.32589594366E+02  0.16389893221E+03  0.20891218979E+03  0.12509352596E+03 0.  0.
          5    1    3    3  502    0  0.11433400199E+02  0.47625871143E+02  0.63131382965E+02  0.80012437517E+02  0.41800000000E+01 0.  1.
         -5    1    3    3    0  502 -0.30089615573E+01 -0.80215465509E+02  0.10076754924E+03  0.12889975228E+03  0.41800000000E+01 0.  1.
        -11    1    1    2    0    0 -0.30212213234E+02  0.31973456956E+01 -0.47818259363E+01  0.30754946062E+02  0.00000000000E+00 0.  1.
         11    1    1    2    0    0  0.21787774593E+02  0.29392248670E+02  0.96679925039E+02  0.10337126926E+03  0.00000000000E+00 0. -1.
</event>
<event>
 7    1  0.2420569E-009  0.1223311E+03  0.7561462E-02  0.1239300E+00
         -2   -1    0    0    0  501 -0.00000000000E+00  0.00000000000E+00  0.66406929928E+02  0.66406929928E+02  0.00000000000E+00 0.  1.
          2   -1    0    0  501    0  0.00000000000E+00 -0.00000000000E+00 -0.31745425149E+03  0.31745425149E+03  0.00000000000E+00 0. -1.
         25    2    1    2    0    0 -0.52798308960E+02 -0.60250029824E+02 -0.20917539843E+03  0.25655383425E+03  0.12509114693E+03 0.  0.
          5    1    3    3  502    0 -0.65936309406E+02 -0.91726262102E+02 -0.14611708940E+03  0.18474030494E+03  0.41800000000E+01 0.  1.
         -5    1    3    3    0  502  0.13138000445E+02  0.31476232278E+02 -0.63058309030E+02  0.71813529309E+02  0.41800000000E+01 0.  1.
        -11    1    1    2    0    0  0.51600048974E+02  0.17497072958E+02  0.14655924471E+02  0.56422590673E+02  0.00000000000E+00 0.  1.
         11    1    1    2    0    0  0.11982599865E+01  0.42752956866E+02 -0.56527847602E+02  0.70884756488E+02  0.00000000000E+00 0. -1.
</event>
<event>
 7    1  0.2420569E-009  0.9217867E+02  0.7561462E-02  0.1297660E+00
          2   -1    0    0  501    0  0.00000000000E+00  0.00000000000E+00  0.49480145701E+02  0.49480145701E+02  0.00000000000E+00 0. -1.
         -2   -1    0    0    0  501 -0.00000000000E+00 -0.00000000000E+00 -0.29078376498E+03  0.29078376498E+03  0.00000000000E+00 0.  1.
         25    2    1    2    0    0  0.30484222315E+02 -0.31889242647E+02 -0.99431287338E+02  0.16577065426E+03  0.12508843793E+03 0.  0.
          5    1    3    3  502    0  0.45062639201E+02  0.34935967440E+01 -0.11546693556E+03  0.12406825653E+03  0.41800000000E+01 0.  1.
         -5    1    3    3    0  502 -0.14578416886E+02 -0.35382839391E+02  0.16035648225E+02  0.41702397728E+02  0.41800000000E+01 0.  1.
        -11    1    1    2    0    0 -0.27659966027E+02 -0.28674519739E+02 -0.43947268108E+02  0.59318329183E+02  0.00000000000E+00 0.  1.
         11    1    1    2    0    0 -0.28242562873E+01  0.60563762386E+02 -0.97925063829E+02  0.11517492724E+03  0.00000000000E+00 0. -1.
</event>
<event>
 7    1  0.2420569E-009  0.1031228E+03  0.7561462E-02  0.1273863E+00
         -2   -1    0    0    0  501 -0.00000000000E+00  0.00000000000E+00  0.84661961733E+02  0.84661961733E+02  0.00000000000E+00 0.  1.
          2   -1    0    0  501    0  0.00000000000E+00 -0.00000000000E+00 -0.18572076565E+03  0.18572076565E+03  0.00000000000E+00 0. -1.
         25    2    1    2    0    0  0.39391419402E+01 -0.56142723631E+02 -0.23395162751E+02  0.13914476122E+03  0.12508560540E+03 0.  0.
          5    1    3    3  502    0  0.60174173551E+02 -0.37378092998E+02 -0.34146696586E+02  0.78749744676E+02  0.41800000000E+01 0. -1.
         -5    1    3    3    0  502 -0.56235031611E+02 -0.18764630632E+02  0.10751533836E+02  0.60395016540E+02  0.41800000000E+01 0. -1.
        -11    1    1    2    0    0  0.19612402572E+02  0.46385108946E+02 -0.91826691500E+00  0.50369314873E+02  0.00000000000E+00 0.  1.
         11    1    1    2    0    0 -0.23551544513E+02  0.97576146846E+01 -0.76745374248E+02  0.80868651291E+02  0.00000000000E+00 0. -1.
</event>
<event>
 7    1  0.2420569E-009  0.1159812E+03  0.7561462E-02  0.1249878E+00
          3   -1    0    0  501    0  0.00000000000E+00  0.00000000000E+00  0.40056517958E+03  0.40056517958E+03  0.00000000000E+00 0. -1.
         -3   -1    0    0    0  501 -0.00000000000E+00 -0.00000000000E+00 -0.57073492132E+02  0.57073492132E+02  0.00000000000E+00 0.  1.
         25    2    1    2    0    0 -0.50561822257E+02 -0.73947013241E+02  0.10352680231E+03  0.18544451622E+03  0.12508881310E+03 0.  0.
          5    1    3    3  502    0 -0.30526241377E+02 -0.79930543058E+02  0.62866116110E+01  0.85893754206E+02  0.41800000000E+01 0.  1.
         -5    1    3    3    0  502 -0.20035580880E+02  0.59835298170E+01  0.97240190704E+02  0.99550762018E+02  0.41800000000E+01 0.  1.
        -11    1    1    2    0    0 -0.24026130352E+02  0.77402148114E+01  0.78027998558E+02  0.82009355710E+02  0.00000000000E+00 0. -1.
         11    1    1    2    0    0  0.74587952609E+02  0.66206798429E+02  0.16193688658E+03  0.19018479978E+03  0.00000000000E+00 0.  1.
</event>
<event>
 7    1  0.2420569E-009  0.1107800E+03  0.7561462E-02  0.1259132E+00
         -1   -1    0    0    0  501 -0.00000000000E+00  0.00000000000E+00  0.19098537090E+02  0.19098537090E+02  0.00000000000E+00 0.  1.
          1   -1    0    0  501    0  0.00000000000E+00 -0.00000000000E+00 -0.69858724213E+03  0.69858724213E+03  0.00000000000E+00 0. -1.
         25    2    1    2    0    0 -0.38669086984E+02 -0.15541259296E+02 -0.38526065949E+03  0.40719772093E+03  0.12508948460E+03 0.  0.
          5    1    3    3  502    0  0.23602632684E+02 -0.53527928319E+02 -0.18079224870E+03  0.19006744321E+03  0.41800000000E+01 0.  1.
         -5    1    3    3    0  502 -0.62271719668E+02  0.37986669023E+02 -0.20446841078E+03  0.21713027772E+03  0.41800000000E+01 0.  1.
        -11    1    1    2    0    0  0.48087172551E+02  0.40690158311E+02 -0.13452683483E+03  0.14854472201E+03  0.00000000000E+00 0.  1.
         11    1    1    2    0    0 -0.94180855669E+01 -0.25148899016E+02 -0.15970121073E+03  0.16194333628E+03  0.00000000000E+00 0. -1.
</event>
<event>
 7    1  0.2420569E-009  0.1054639E+03  0.7561462E-02  0.1269208E+00
          2   -1    0    0  501    0  0.00000000000E+00  0.00000000000E+00  0.50783387227E+03  0.50783387227E+03  0.00000000000E+00 0. -1.
         -2   -1    0    0    0  501 -0.00000000000E+00 -0.00000000000E+00 -0.24554042363E+02  0.24554042363E+02  0.00000000000E+00 0.  1.
         25    2    1    2    0    0  0.13469211085E+02 -0.14828099150E+02  0.30941995255E+03  0.33434933082E+03  0.12508987094E+03 0.  0.
          5    1    3    3  502    0  0.99715617028E+01 -0.67820822914E+02  0.12788166186E+03  0.14515608118E+03  0.41800000000E+01 0.  1.
         -5    1    3    3    0  502  0.34976493822E+01  0.52992723763E+02  0.18153829068E+03  0.18919324963E+03  0.41800000000E+01 0.  1.
        -11    1    1    2    0    0  0.36343968843E+02  0.14593789208E+02  0.43750983341E+02  0.58719769226E+02  0.00000000000E+00 0. -1.
         11    1    1    2    0    0 -0.49813179928E+02  0.23430994242E+00  0.13010889402E+03  0.13931881459E+03  0.00000000000E+00 0.  1.
</event>
<event>
 7    1  0.2420569E-009  0.2542550E+03  0.7561462E-02  0.1110645E+00
          2   -1    0    0  501    0  0.00000000000E+00  0.00000000000E+00  0.97998467914E+03  0.97998467914E+03  0.00000000000E+00 0. -1.
         -2   -1    0    0    0  501 -0.00000000000E+00 -0.00000000000E+00 -0.11611761631E+03  0.11611761631E+03  0.00000000000E+00 0.  1.
         25    2    1    2    0    0  0.13919051481E+03  0.21058869634E+03  0.75636172071E+03  0.80712602690E+03  0.12509105605E+03 0.  0.
          5    1    3    3  502    0  0.83003200808E+02  0.13034049315E+03  0.62119722626E+03  0.64014189194E+03  0.41800000000E+01 0. -1.
         -5    1    3    3    0  502  0.56187314001E+02  0.80248203182E+02  0.13516449445E+03  0.16698413496E+03  0.41800000000E+01 0. -1.
        -11    1    1    2    0    0 -0.74131743309E+02 -0.14834763135E+03  0.10982947837E+03  0.19890965138E+03  0.00000000000E+00 0.  1.
         11    1    1    2    0    0 -0.65058771500E+02 -0.62241064988E+02 -0.23241362542E+01  0.90066617175E+02  0.00000000000E+00 0. -1.
</event>
<event>
 7    1  0.2420569E-009  0.1110496E+03  0.7561462E-02  0.1258638E+00
         -1   -1    0    0    0  501 -0.00000000000E+00  0.00000000000E+00  0.25976890702E+03  0.25976890702E+03  0.00000000000E+00 0.  1.
          1   -1    0    0  501    0  0.00000000000E+00 -0.00000000000E+00 -0.52776626154E+02  0.52776626154E+02  0.00000000000E+00 0. -1.
         25    2    1    2    0    0 -0.19793206092E+02 -0.36800410624E+02  0.13957268796E+03  0.19202731507E+03  0.12509161953E+03 0.  0.
          5    1    3    3  502    0  0.36173888296E+02 -0.52575241640E+02  0.10854982137E+03  0.12598905646E+03  0.41800000000E+01 0.  1.
         -5    1    3    3    0  502 -0.55967094388E+02  0.15774831017E+02  0.31022866591E+02  0.66038258604E+02  0.41800000000E+01 0.  1.
        -11    1    1    2    0    0 -0.18250352483E+02  0.54800697007E+02  0.40865063036E+02  0.70754117443E+02  0.00000000000E+00 0. -1.
         11    1    1    2    0    0  0.38043558574E+02 -0.18000286383E+02  0.26554529870E+02  0.49764100670E+02  0.00000000000E+00 0.  1.
</event>
<event>
 7    1  0.2420569E-009  0.1261692E+03  0.7561462E-02  0.1233253E+00
          1   -1    0    0  501    0  0.00000000000E+00  0.00000000000E+00  0.18341569366E+03  0.18341569366E+03  0.00000000000E+00 0. -1.
         -1   -1    0    0    0  501 -0.00000000000E+00 -0.00000000000E+00 -0.10342454642E+03  0.10342454642E+03  0.00000000000E+00 0.  1.
         25    2    1    2    0    0  0.42033995053E+02  0.65910194830E+02  0.77777850660E+02  0.16675829634E+03  0.12509166568E+03 0.  0.
          5    1    3    3  502    0  0.86263050460E+02  0.51273737651E+02  0.57926417929E+02  0.11594504018E+03  0.41800000000E+01 0. -1.
         -5    1    3    3    0  502 -0.44229055407E+02  0.14636457180E+02  0.19851432731E+02  0.50813256168E+02  0.41800000000E+01 0. -1.
        -11    1    1    2    0    0 -0.54609293833E+02 -0.21033187065E+02 -0.27656448521E+02  0.64725953649E+02  0.00000000000E+00 0.  1.
         11    1    1    2    0    0  0.12575298780E+02 -0.44877007766E+02  0.29869745109E+02  0.55355990085E+02  0.00000000000E+00 0. -1.
</event>
<event>
 7    1  0.2420569E-009  0.1038707E+03  0.7561462E-02  0.1272361E+00
         -2   -1    0    0    0  501 -0.00000000000E+00  0.00000000000E+00  0.35863620757E+02  0.35863620757E+02  0.00000000000E+00 0. -1.
          2   -1    0    0  501    0  0.00000000000E+00 -0.00000000000E+00 -0.47667627931E+03  0.47667627931E+03  0.00000000000E+00 0.  1.
         25    2    1    2    0    0 -0.51408597281E+02 -0.20560232044E+02 -0.33687529640E+03  0.36359253813E+03  0.12509596893E+03 0.  0.
          5    1    3    3  502    0  0.78120583925E+01 -0.45474424770E+02 -0.25629933961E+03  0.26045301966E+03  0.41800000000E+01 0. -1.
         -5    1    3    3    0  502 -0.59220655673E+02  0.24914192727E+02 -0.80575956782E+02  0.10313951846E+03  0.41800000000E+01 0. -1.
        -11    1    1    2    0    0  0.21791881739E+02 -0.30806381621E+02 -0.12090777857E+02  0.39624565203E+02  0.00000000000E+00 0. -1.
         11    1    1    2    0    0  0.29616715542E+02  0.51366613665E+02 -0.91846584296E+02  0.10932279673E+03  0.00000000000E+00 0.  1.
</event>
<event>
 7    1  0.2420569E-009  0.1067685E+03  0.7561462E-02  0.1266674E+00
          4   -1    0    0  501    0  0.00000000000E+00  0.00000000000E+00  0.53687253241E+02  0.53687253241E+02  0.00000000000E+00 0.  1.
         -4   -1    0    0    0  501 -0.00000000000E+00 -0.00000000000E+00 -0.21845879548E+03  0.21845879548E+03  0.00000000000E+00 0. -1.
         25    2    1    2    0    0  0.12723183080E+02  0.13972169775E+01 -0.90376223329E+02  0.15485220921E+03  0.12509002099E+03 0.  0.
          5    1    3    3  502    0 -0.52887550730E+02 -0.15324159734E+02 -0.24916945882E+02  0.60582584014E+02  0.41800000000E+01 0.  1.
         -5    1    3    3    0  502  0.65610733810E+02  0.16721376712E+02 -0.65459277447E+02  0.94269625193E+02  0.41800000000E+01 0.  1.
        -11    1    1    2    0    0 -0.85584469217E-01  0.43671555444E+02 -0.31994412111E+02  0.54137366817E+02  0.00000000000E+00 0.  1.
         11    1    1    2    0    0 -0.12637598610E+02 -0.45068772421E+02 -0.42400906803E+02  0.63156472700E+02  0.00000000000E+00 0. -1.
</event>
<event>
 7    1  0.2420569E-009  0.1862190E+03  0.7561462E-02  0.1161916E+00
          1   -1    0    0  501    0  0.00000000000E+00  0.00000000000E+00  0.30851076733E+03  0.30851076733E+03  0.00000000000E+00 0. -1.
         -1   -1    0    0    0  501 -0.00000000000E+00 -0.00000000000E+00 -0.15527961375E+03  0.15527961375E+03  0.00000000000E+00 0.  1.
         25    2    1    2    0    0 -0.21348106400E+02 -0.16846366556E+03 -0.10401720542E+02  0.21116825778E+03  0.12509232208E+03 0.  0.
          5    1    3    3  502    0  0.29203435451E+02 -0.35577742173E+02 -0.45295391340E+02  0.64712914143E+02  0.41800000000E+01 0. -1.
         -5    1    3    3    0  502 -0.50551541851E+02 -0.13288592339E+03  0.34893670798E+02  0.14645534364E+03  0.41800000000E+01 0. -1.
        -11    1    1    2    0    0 -0.25187580449E+02  0.82129122797E+02  0.39860978194E+02  0.94702189008E+02  0.00000000000E+00 0.  1.
         11    1    1    2    0    0  0.46535686848E+02  0.86334542766E+02  0.12377189593E+03  0.15791993429E+03  0.00000000000E+00 0. -1.
</event>
<event>
 7    1  0.2420569E-009  0.1302019E+03  0.7561462E-02  0.1227156E+00
         -1   -1    0    0    0  501 -0.00000000000E+00  0.00000000000E+00  0.60896684833E+02  0.60896684833E+02  0.00000000000E+00 0.  1.
          1   -1    0    0  501    0  0.00000000000E+00 -0.00000000000E+00 -0.34632698404E+03  0.34632698404E+03  0.00000000000E+00 0. -1.
         25    2    1    2    0    0  0.60842618636E+02  0.70336121461E+02 -0.12492475054E+03  0.19975110120E+03  0.12508123324E+03 0.  0.
          5    1    3    3  502    0 -0.23008742569E+02  0.22995088417E+02  0.96811850399E+01  0.34196111909E+02  0.41800000000E+01 0.  1.
         -5    1    3    3    0  502  0.83851361205E+02  0.47341033045E+02 -0.13460593558E+03  0.16555498929E+03  0.41800000000E+01 0.  1.
        -11    1    1    2    0    0  0.24629672025E+02 -0.22034511016E+02 -0.35119451510E+02  0.48223607228E+02  0.00000000000E+00 0.  1.
         11    1    1    2    0    0 -0.85472290661E+02 -0.48301610445E+02 -0.12538609715E+03  0.15924896044E+03  0.00000000000E+00 0. -1.
</event>
<event>
 7    1  0.2420569E-009  0.2551036E+03  0.7561462E-02  0.1110121E+00
          2   -1    0    0  501    0  0.00000000000E+00  0.00000000000E+00  0.41394566228E+03  0.41394566228E+03  0.00000000000E+00 0. -1.
         -2   -1    0    0    0  501 -0.00000000000E+00 -0.00000000000E+00 -0.18445563685E+03  0.18445563685E+03  0.00000000000E+00 0.  1.
         25    2    1    2    0    0 -0.20998567391E+03  0.10828613479E+03  0.17166429984E+02  0.26789145063E+03  0.12510504692E+03 0.  0.
          5    1    3    3  502    0 -0.19163022339E+03  0.12735070603E+03  0.38902350554E+02  0.23339068131E+03  0.41800000000E+01 0. -1.
         -5    1    3    3    0  502 -0.18355450522E+02 -0.19064571242E+02 -0.21735920571E+02  0.34500769319E+02  0.41800000000E+01 0. -1.
        -11    1    1    2    0    0  0.13900005003E+03 -0.20674701876E+02  0.11812170265E+03  0.18357884911E+03  0.00000000000E+00 0.  1.
         11    1    1    2    0    0  0.70985623884E+02 -0.87611432913E+02  0.94201892794E+02  0.14693099939E+03  0.00000000000E+00 0. -1.
</event>
<event>
 7    1  0.2420569E-009  0.1060228E+03  0.7561462E-02  0.1268118E+00
         -1   -1    0    0    0  501 -0.00000000000E+00  0.00000000000E+00  0.80881739712E+03  0.80881739712E+03  0.00000000000E+00 0.  1.
          1   -1    0    0  501    0  0.00000000000E+00 -0.00000000000E+00 -0.22207349588E+02  0.22207349588E+02  0.00000000000E+00 0. -1.
         25    2    1    2    0    0 -0.47847782887E+02  0.31490825949E+02  0.58896168386E+03  0.60481764979E+03  0.12508973576E+03 0.  0.
          5    1    3    3  502    0  0.14353040718E+02  0.58545350680E+02  0.17087526089E+03  0.18124402072E+03  0.41800000000E+01 0.  1.
         -5    1    3    3    0  502 -0.62200823606E+02 -0.27054524731E+02  0.41808642297E+03  0.42357362906E+03  0.41800000000E+01 0.  1.
        -11    1    1    2    0    0  0.32985752575E+02 -0.50015627629E+02  0.54154049125E+02  0.80760658223E+02  0.00000000000E+00 0. -1.
         11    1    1    2    0    0  0.14862030313E+02  0.18524801680E+02  0.14349431455E+03  0.14544643870E+03  0.00000000000E+00 0.  1.
</event>
<event>
 7    1  0.2420569E-009  0.1015623E+03  0.7561462E-02  0.1277045E+00
         -3   -1    0    0    0  501 -0.00000000000E+00  0.00000000000E+00  0.61994487501E+02  0.61994487501E+02  0.00000000000E+00 0.  1.
          3   -1    0    0  501    0  0.00000000000E+00 -0.00000000000E+00 -0.24057049152E+03  0.24057049152E+03  0.00000000000E+00 0. -1.
         25    2    1    2    0    0 -0.35590282070E+02 -0.23627838132E+02 -0.56906149268E+02  0.14392806951E+03  0.12510809908E+03 0.  0.
          5    1    3    3  502    0  0.10148240904E+02  0.46728888968E+02 -0.24311672306E+02  0.53806186150E+02  0.41800000000E+01 0. -1.
         -5    1    3    3    0  502 -0.45738522974E+02 -0.70356727100E+02 -0.32594476962E+02  0.90121883361E+02  0.41800000000E+01 0. -1.
        -11    1    1    2    0    0  0.37099547159E+02 -0.92138269266E+01 -0.63852841403E+01  0.38756197693E+02  0.00000000000E+00 0.  1.
         11    1    1    2    0    0 -0.15092650891E+01  0.32841665058E+02 -0.11528457061E+03  0.11988071181E+03  0.00000000000E+00 0. -1.
</event>
<event>
 7    1  0.2572146E-009  0.1188886E+03  0.7561462E-02  0.1244942E+00
          2   -1    0    0  501    0  0.00000000000E+00  0.00000000000E+00  0.33795193042E+03  0.33795193042E+03  0.00000000000E+00 0. -1.
         -2   -1    0    0    0  501 -0.00000000000E+00 -0.00000000000E+00 -0.43591770263E+02  0.43591770263E+02  0.00000000000E+00 0.  1.
         25    2    1    2    0    0 -0.44748958849E+02  0.28443113601E+02  0.14673150573E+03  0.19997960128E+03  0.12510086381E+03 0.  0.
          5    1    3    3  502    0 -0.87488092014E+02  0.85137513372E+01  0.86807462513E+02  0.12361091438E+03  0.41800000000E+01 0. -1.
         -5    1    3    3    0  502  0.42739133165E+02  0.19929362264E+02  0.59924043212E+02  0.76368686901E+02  0.41800000000E+01 0. -1.
        -11    1    1    2    0    0  0.60088357625E+02  0.10117965330E+02  0.10895979845E+03  0.12484078509E+03  0.00000000000E+00 0. -1.
         11    1    1    2    0    0 -0.15339398777E+02 -0.38561078931E+02  0.38668855984E+02  0.56723314310E+02  0.00000000000E+00 0.  1.
</event>
<event>
 7    1  0.2420569E-009  0.7728401E+02  0.7561462E-02  0.1336941E+00
          3   -1    0    0  501    0  0.00000000000E+00  0.00000000000E+00  0.14940258674E+03  0.14940258674E+03  0.00000000000E+00 0. -1.
         -3   -1    0    0    0  501 -0.00000000000E+00 -0.00000000000E+00 -0.95562610916E+02  0.95562610916E+02  0.00000000000E+00 0.  1.
         25    2    1    2    0    0  0.38862310506E+02 -0.30814192171E+02  0.43075659551E+02  0.14128876010E+03  0.12508879913E+03 0.  0.
          5    1    3    3  502    0  0.51459045560E+02 -0.27826853913E+02  0.81567024572E+02  0.10046401876E+03  0.41800000000E+01 0.  1.
         -5    1    3    3    0  502 -0.12596735054E+02 -0.29873382587E+01 -0.38491365021E+02  0.40824741335E+02  0.41800000000E+01 0.  1.
        -11    1    1    2    0    0 -0.21362914911E+02 -0.19573300169E+02 -0.25971571937E+02  0.38910291208E+02  0.00000000000E+00 0.  1.
         11    1    1    2    0    0 -0.17499395595E+02  0.50387492340E+02  0.36735888210E+02  0.64766146351E+02  0.00000000000E+00 0. -1.
</event>
<event>
 7    1  0.2420569E-009  0.1763542E+03  0.7561462E-02  0.1171379E+00
          1   -1    0    0  501    0  0.00000000000E+00  0.00000000000E+00  0.42401136780E+02  0.42401136780E+02  0.00000000000E+00 0. -1.
         -1   -1    0    0    0  501 -0.00000000000E+00 -0.00000000000E+00 -0.11842949470E+04  0.11842949470E+04  0.00000000000E+00 0.  1.
         25    2    1    2    0    0  0.57063620428E+01  0.17432592582E+03 -0.83613465177E+03  0.86324392586E+03  0.12508728417E+03 0.  0.
          5    1    3    3  502    0 -0.64340675840E+01  0.61993589026E+02 -0.57886849305E+03  0.58222917047E+03  0.41800000000E+01 0.  1.
         -5    1    3    3    0  502  0.12140429627E+02  0.11233233679E+03 -0.25726615872E+03  0.28101475538E+03  0.41800000000E+01 0.  1.
        -11    1    1    2    0    0  0.11872569471E+02 -0.10454252831E+03 -0.25364240857E+03  0.27459892490E+03  0.00000000000E+00 0.  1.
         11    1    1    2    0    0 -0.17578931514E+02 -0.69783397508E+02 -0.52116749887E+02  0.88853233029E+02  0.00000000000E+00 0. -1.
</event>
<event>
 7    1  0.2420569E-009  0.1256752E+03  0.7561462E-02  0.1234018E+00
          2   -1    0    0  501    0  0.00000000000E+00  0.00000000000E+00  0.38123773238E+03  0.38123773238E+03  0.00000000000E+00 0. -1.
         -2   -1    0    0    0  501 -0.00000000000E+00 -0.00000000000E+00 -0.74260775761E+02  0.74260775761E+02  0.00000000000E+00 0.  1.
         25    2    1    2    0    0  0.30437698529E+02 -0.10179456356E+03  0.66009218715E+02  0.17689826880E+03  0.12508874404E+03 0.  0.
          5    1    3    3  502    0  0.35429991407E+02 -0.17917651361E+02  0.82055986164E+02  0.91252308392E+02  0.41800000000E+01 0.  1.
         -5    1    3    3    0  502 -0.49922928780E+01 -0.83876912203E+02 -0.16046767450E+02  0.85645960409E+02  0.41800000000E+01 0.  1.
        -11    1    1    2    0    0  0.14626028341E+02  0.71542697967E+02  0.19230790208E+03  0.20570514709E+03  0.00000000000E+00 0.  1.
         11    1    1    2    0    0 -0.45063726870E+02  0.30251865597E+02  0.48659835822E+02  0.72895092247E+02  0.00000000000E+00 0. -1.
</event>
<event>
 7    1  0.2420569E-009  0.7949541E+02  0.7561462E-02  0.1330490E+00
          1   -1    0    0  501    0  0.00000000000E+00  0.00000000000E+00  0.51334466735E+02  0.51334466735E+02  0.00000000000E+00 0. -1.
         -1   -1    0    0    0  501 -0.00000000000E+00 -0.00000000000E+00 -0.22869598351E+03  0.22869598351E+03  0.00000000000E+00 0.  1.
         25    2    1    2    0    0  0.12236410183E+02  0.21262597438E+01 -0.98548411337E+02  0.15972972518E+03  0.12509014756E+03 0.  0.
          5    1    3    3  502    0  0.66019539487E+02  0.12349908796E+02 -0.35358454937E+02  0.76018369996E+02  0.41800000000E+01 0.  1.
         -5    1    3    3    0  502 -0.53783129304E+02 -0.10223649053E+02 -0.63189956400E+02  0.83711355188E+02  0.41800000000E+01 0.  1.
        -11    1    1    2    0    0 -0.23831793579E+02 -0.59817474980E+01 -0.96066169224E+02  0.99158683723E+02  0.00000000000E+00 0.  1.
         11    1    1    2    0    0  0.11595383396E+02  0.38554877542E+01  0.17253063785E+02  0.21142041337E+02  0.00000000000E+00 0. -1.
</event>
<event>
 7    1  0.2420569E-009  0.1057356E+03  0.7561462E-02  0.1268677E+00
          2   -1    0    0  501    0  0.00000000000E+00  0.00000000000E+00  0.16019942287E+04  0.16019942287E+04  0.00000000000E+00 0. -1.
         -2   -1    0    0    0  501 -0.00000000000E+00 -0.00000000000E+00 -0.11976304944E+02  0.11976304944E+02  0.00000000000E+00 0.  1.
         25    2    1    2    0    0 -0.85871655059E+01 -0.62836568804E+02  0.12087839770E+04  0.12168929448E+04  0.12509021633E+03 0.  0.
          5    1    3    3  502    0 -0.54688089986E+02 -0.38550252677E+02  0.34050584013E+03  0.34704266126E+03  0.41800000000E+01 0.  1.
         -5    1    3    3    0  502  0.46100924480E+02 -0.24286316127E+02  0.86827813685E+03  0.86985028350E+03  0.41800000000E+01 0.  1.
        -11    1    1    2    0    0  0.36820340189E+02  0.47265012572E+02  0.33731118677E+03  0.34259094498E+03  0.00000000000E+00 0. -1.
         11    1    1    2    0    0 -0.28233174683E+02  0.15571556232E+02  0.43922759989E+02  0.54486643879E+02  0.00000000000E+00 0.  1.
</event>
<event>
 7    1  0.2420569E-009  0.1206597E+03  0.7561462E-02  0.1242013E+00
         -1   -1    0    0    0  501 -0.00000000000E+00  0.00000000000E+00  0.33079958067E+03  0.33079958067E+03  0.00000000000E+00 0.  1.
          1   -1    0    0  501    0  0.00000000000E+00 -0.00000000000E+00 -0.47115295150E+02  0.47115295150E+02  0.00000000000E+00 0. -1.
         25    2    1    2    0    0 -0.33717140150E+02  0.40402287788E+02  0.11962130813E+03  0.18090233457E+03  0.12508879605E+03 0.  0.
          5    1    3    3  502    0  0.37400935278E+02 -0.17143580755E+02  0.55027318722E+02  0.68834660793E+02  0.41800000000E+01 0. -1.
         -5    1    3    3    0  502 -0.71118075428E+02  0.57545868543E+02  0.64593989405E+02  0.11206767378E+03  0.41800000000E+01 0. -1.
        -11    1    1    2    0    0  0.66401712295E+02 -0.18125382766E+02  0.11456158590E+03  0.13364906981E+03  0.00000000000E+00 0.  1.
         11    1    1    2    0    0 -0.32684572144E+02 -0.22276905022E+02  0.49501391491E+02  0.63363471442E+02  0.00000000000E+00 0. -1.
</event>
<event>
 7    1  0.2420569E-009  0.1723778E+03  0.7561462E-02  0.1175391E+00
         -1   -1    0    0    0  501 -0.00000000000E+00  0.00000000000E+00  0.86226660465E+02  0.86226660465E+02  0.00000000000E+00 0.  1.
          1   -1    0    0  501    0  0.00000000000E+00 -0.00000000000E+00 -0.50670755510E+03  0.50670755510E+03  0.00000000000E+00 0. -1.
         25    2    1    2    0    0 -0.13745061423E+03 -0.41790592866E+02 -0.69457953625E+02  0.20275737795E+03  0.12508805693E+03 0.  0.
          5    1    3    3  502    0 -0.50050162421E+01  0.28083482145E+02  0.13146663954E+02  0.31686579653E+02  0.41800000000E+01 0. -1.
         -5    1    3    3    0  502 -0.13244559799E+03 -0.69874075012E+02 -0.82604617579E+02  0.17107079830E+03  0.41800000000E+01 0. -1.
        -11    1    1    2    0    0  0.37952163516E+02  0.53863499849E+02 -0.98668891934E+02  0.11864734960E+03  0.00000000000E+00 0.  1.
         11    1    1    2    0    0  0.99498450711E+02 -0.12072906983E+02 -0.25235404908E+03  0.27152948802E+03  0.00000000000E+00 0. -1.
</event>
<event>
 7    1  0.2420569E-009  0.1052684E+03  0.7561462E-02  0.1269592E+00
         -1   -1    0    0    0  501 -0.00000000000E+00  0.00000000000E+00  0.11932800293E+03  0.11932800293E+03  0.00000000000E+00 0.  1.
          1   -1    0    0  501    0  0.00000000000E+00 -0.00000000000E+00 -0.14182601934E+03  0.14182601934E+03  0.00000000000E+00 0. -1.
         25    2    1    2    0    0 -0.57451005981E+02  0.17164419389E+02  0.26891945757E+02  0.14130065994E+03  0.12508982521E+03 0.  0.
          5    1    3    3  502    0 -0.42695637659E+02 -0.52169776790E+02  0.16553021448E+02  0.69541915451E+02  0.41800000000E+01 0. -1.
         -5    1    3    3    0  502 -0.14755368321E+02  0.69334196179E+02  0.10338924309E+02  0.71758744485E+02  0.41800000000E+01 0. -1.
        -11    1    1    2    0    0  0.21959318126E+02  0.12901588746E+02  0.22661964205E+02  0.34091454448E+02  0.00000000000E+00 0.  1.
         11    1    1    2    0    0  0.35491687855E+02 -0.30066008135E+02 -0.72051926371E+02  0.85761907895E+02  0.00000000000E+00 0. -1.
</event>
<event>
 7    1  0.2420569E-009  0.1360233E+03  0.7561462E-02  0.1218782E+00
         -1   -1    0    0    0  501 -0.00000000000E+00  0.00000000000E+00  0.71342681207E+02  0.71342681207E+02  0.00000000000E+00 0.  1.
          1   -1    0    0  501    0  0.00000000000E+00 -0.00000000000E+00 -0.35160714190E+03  0.35160714190E+03  0.00000000000E+00 0. -1.
         25    2    1    2    0    0 -0.96172806281E+02 -0.14179391996E+02 -0.23013770804E+03  0.27939116143E+03  0.12508314274E+03 0.  0.
          5    1    3    3  502    0 -0.34692499892E+02  0.55381872057E+02 -0.95920007694E+02  0.11614147225E+03  0.41800000000E+01 0.  1.
         -5    1    3    3    0  502 -0.61480306389E+02 -0.69561264053E+02 -0.13421770034E+03  0.16324968918E+03  0.41800000000E+01 0.  1.
        -11    1    1    2    0    0  0.15018655346E+02  0.27555661782E+02  0.18508363577E+02  0.36433968037E+02  0.00000000000E+00 0.  1.
         11    1    1    2    0    0  0.81154150935E+02 -0.13376269786E+02 -0.68635116229E+02  0.10712469364E+03  0.00000000000E+00 0. -1.
</event>
<event>
 7    1  0.2420569E-009  0.1046125E+03  0.7561462E-02  0.1270885E+00
          2   -1    0    0  501    0  0.00000000000E+00  0.00000000000E+00  0.18276964928E+03  0.18276964928E+03  0.00000000000E+00 0. -1.
         -2   -1    0    0    0  501 -0.00000000000E+00 -0.00000000000E+00 -0.82955955019E+02  0.82955955019E+02  0.00000000000E+00 0.  1.
         25    2    1    2    0    0 -0.32502827199E+02 -0.35476366622E+02  0.22807140714E+02  0.13594996946E+03  0.12508885707E+03 0.  0.
          5    1    3    3  502    0 -0.53513250081E+02 -0.73080439756E+02  0.17499174671E+02  0.92347778118E+02  0.41800000000E+01 0. -1.
         -5    1    3    3    0  502  0.21010422882E+02  0.37604073135E+02  0.53079660438E+01  0.43602191339E+02  0.41800000000E+01 0. -1.
        -11    1    1    2    0    0  0.59530250047E+01  0.46241577502E+02 -0.10422143723E+01  0.46634838987E+02  0.00000000000E+00 0.  1.
         11    1    1    2    0    0  0.26549802194E+02 -0.10765210880E+02  0.78048767922E+02  0.83140795858E+02  0.00000000000E+00 0. -1.
</event>
<event>
 7    1  0.2420569E-009  0.9889528E+02  0.7561462E-02  0.1282636E+00
         -1   -1    0    0    0  501 -0.00000000000E+00  0.00000000000E+00  0.25961501996E+02  0.25961501996E+02  0.00000000000E+00 0.  1.
          1   -1    0    0  501    0  0.00000000000E+00 -0.00000000000E+00 -0.76339230988E+03  0.76339230988E+03  0.00000000000E+00 0. -1.
         25    2    1    2    0    0  0.52222889757E+02  0.61813985938E+02 -0.51105866138E+03  0.53233218485E+03  0.12509356732E+03 0.  0.
          5    1    3    3  502    0  0.70796750195E+02  0.46633186446E+02 -0.49704015248E+03  0.50423528188E+03  0.41800000000E+01 0. -1.
         -5    1    3    3    0  502 -0.18573860438E+02  0.15180799492E+02 -0.14018508900E+02  0.28096902971E+02  0.41800000000E+01 0. -1.
        -11    1    1    2    0    0 -0.29611909901E+02 -0.87432141174E+01 -0.90517500494E+01  0.32175195105E+02  0.00000000000E+00 0. -1.
         11    1    1    2    0    0 -0.22610979855E+02 -0.53070771820E+02 -0.21732039645E+03  0.22484643192E+03  0.00000000000E+00 0.  1.
</event>
<event>
 7    1  0.2420569E-009  0.2375003E+03  0.7561462E-02  0.1121469E+00
          3   -1    0    0  501    0  0.00000000000E+00  0.00000000000E+00  0.43384696780E+02  0.43384696780E+02  0.00000000000E+00 0. -1.
         -3   -1    0    0    0  501 -0.00000000000E+00 -0.00000000000E+00 -0.15453267092E+04  0.15453267092E+04  0.00000000000E+00 0.  1.
         25    2    1    2    0    0  0.16443066380E+03  0.16348299781E+03 -0.65725439614E+03  0.70809237219E+03  0.12508929822E+03 0.  0.
          5    1    3    3  502    0  0.15899611048E+03  0.16926874675E+03 -0.50814381966E+03  0.55871216707E+03  0.41800000000E+01 0. -1.
         -5    1    3    3    0  502  0.54345533160E+01 -0.57857489466E+01 -0.14911057648E+03  0.14938020511E+03  0.41800000000E+01 0. -1.
        -11    1    1    2    0    0 -0.44310292091E+02 -0.63730095921E+02 -0.44116280714E+03  0.44793922525E+03  0.00000000000E+00 0.  1.
         11    1    1    2    0    0 -0.12012037171E+03 -0.99752901887E+02 -0.40352480912E+03  0.43267980853E+03  0.00000000000E+00 0. -1.
</event>
<event>
 7    1  0.2903991E-009  0.1260589E+03  0.7561462E-02  0.1233424E+00
         -1   -1    0    0    0  501 -0.00000000000E+00  0.00000000000E+00  0.53296696122E+02  0.53296696122E+02  0.00000000000E+00 0.  1.
          1   -1    0    0  501    0  0.00000000000E+00 -0.00000000000E+00 -0.35671186546E+03  0.35671186546E+03  0.00000000000E+00 0. -1.
         25    2    1    2    0    0 -0.22770315070E+02 -0.62039733288E+02 -0.86894508904E+02  0.16602790826E+03  0.12508874805E+03 0.  0.
          5    1    3    3  502    0  0.49653409149E+02 -0.86736409873E+01 -0.22741941390E+02  0.55455940947E+02  0.41800000000E+01 0. -1.
         -5    1    3    3    0  502 -0.72423724220E+02 -0.53366092301E+02 -0.64152567514E+02  0.11057196732E+03  0.41800000000E+01 0. -1.
        -11    1    1    2    0    0  0.42905692589E+02 -0.33738881992E+01 -0.68431257334E+02  0.80840080149E+02  0.00000000000E+00 0. -1.
         11    1    1    2    0    0 -0.20135377518E+02  0.65413621487E+02 -0.14808940310E+03  0.16314057317E+03  0.00000000000E+00 0.  1.
</event>
<event>
 7    1  0.2420569E-009  0.1351947E+03  0.7561462E-02  0.1219945E+00
         -2   -1    0    0    0  501 -0.00000000000E+00  0.00000000000E+00  0.12485063633E+03  0.12485063633E+03  0.00000000000E+00 0.  1.
          2   -1    0    0  501    0  0.00000000000E+00 -0.00000000000E+00 -0.18556994079E+03  0.18556994079E+03  0.00000000000E+00 0. -1.
         25    2    1    2    0    0 -0.10484949463E+03 -0.15767596019E+02 -0.31901620715E+02  0.16704883914E+03  0.12508224352E+03 0.  0.
          5    1    3    3  502    0  0.28817122161E+01 -0.50459740042E+02 -0.10364110909E+02  0.51762697238E+02  0.41800000000E+01 0.  1.
         -5    1    3    3    0  502 -0.10773120685E+03  0.34692144023E+02 -0.21537509805E+02  0.11528614190E+03  0.41800000000E+01 0.  1.
        -11    1    1    2    0    0  0.32365194737E+02  0.63582042971E+00 -0.55842915129E+02  0.64547201861E+02  0.00000000000E+00 0. -1.
         11    1    1    2    0    0  0.72484299893E+02  0.15131775589E+02  0.27025231388E+02  0.78824536123E+02  0.00000000000E+00 0.  1.
</event>
<event>
 7    1  0.3044348E-009  0.1068155E+03  0.7561462E-02  0.1266583E+00
         -2   -1    0    0    0  501 -0.00000000000E+00  0.00000000000E+00  0.34487777145E+02  0.34487777145E+02  0.00000000000E+00 0. -1.
          2   -1    0    0  501    0  0.00000000000E+00 -0.00000000000E+00 -0.67554814683E+03  0.67554814683E+03  0.00000000000E+00 0.  1.
         25    2    1    2    0    0  0.24763648660E+02 -0.97144198521E+02 -0.25751949193E+03  0.30333647883E+03  0.12508595870E+03 0.  0.
          5    1    3    3  502    0 -0.61494724373E+01 -0.34608358419E+02  0.11261026336E+01  0.35416027316E+02  0.41800000000E+01 0.  1.
         -5    1    3    3    0  502  0.30913121097E+02 -0.62535840103E+02 -0.25864559456E+03  0.26792045152E+03  0.41800000000E+01 0.  1.
        -11    1    1    2    0    0 -0.64238004786E+00  0.76773906648E+02 -0.35785586503E+03  0.36599926985E+03  0.00000000000E+00 0.  1.
         11    1    1    2    0    0 -0.24121268612E+02  0.20370291873E+02 -0.25685012732E+02  0.40700175300E+02  0.00000000000E+00 0. -1.
</event>
<event>
 7    1  0.2420569E-009  0.8115312E+02  0.7561462E-02  0.1325811E+00
          2   -1    0    0  501    0  0.00000000000E+00  0.00000000000E+00  0.31665578331E+03  0.31665578331E+03  0.00000000000E+00 0. -1.
         -2   -1    0    0    0  501 -0.00000000000E+00 -0.00000000000E+00 -0.52656219329E+02  0.52656219329E+02  0.00000000000E+00 0.  1.
         25    2    1    2    0    0  0.47709388670E+02  0.77935516526E+01  0.16888012425E+03  0.21565043314E+03  0.12509071801E+03 0.  0.
          5    1    3    3  502    0 -0.21488112357E+02 -0.28067930783E+02  0.11608889473E+03  0.12142343921E+03  0.41800000000E+01 0. -1.
         -5    1    3    3    0  502  0.69197501026E+02  0.35861482436E+02  0.52791229524E+02  0.94226993932E+02  0.41800000000E+01 0. -1.
        -11    1    1    2    0    0 -0.28078718264E+02 -0.18028847862E+01 -0.21398906644E+02  0.35349370836E+02  0.00000000000E+00 0.  1.
         11    1    1    2    0    0 -0.19630670405E+02 -0.59906668664E+01  0.11651834637E+03  0.11831219866E+03  0.00000000000E+00 0. -1.
</event>
<event>
 7    1  0.2420569E-009  0.7631113E+02  0.7561462E-02  0.1339858E+00
         -3   -1    0    0    0  501 -0.00000000000E+00  0.00000000000E+00  0.21571841864E+03  0.21571841864E+03  0.00000000000E+00 0.  1.
          3   -1    0    0  501    0  0.00000000000E+00 -0.00000000000E+00 -0.10188007042E+03  0.10188007042E+03  0.00000000000E+00 0. -1.
         25    2    1    2    0    0 -0.51434893981E+02 -0.52217614056E+01  0.15765820910E+03  0.20779428061E+03  0.12509810969E+03 0.  0.
          5    1    3    3  502    0 -0.27046309003E+02  0.10199998191E+02  0.17258503494E+03  0.17503887990E+03  0.41800000000E+01 0.  1.
         -5    1    3    3    0  502 -0.24388584978E+02 -0.15421759596E+02 -0.14926825833E+02  0.32755400711E+02  0.41800000000E+01 0.  1.
        -11    1    1    2    0    0  0.58438759954E+02 -0.24761917152E+02 -0.10317371637E+02  0.64301550242E+02  0.00000000000E+00 0.  1.
         11    1    1    2    0    0 -0.70038659729E+01  0.29983678558E+02 -0.33502489248E+02  0.45502658211E+02  0.00000000000E+00 0. -1.
</event>
<event>
 7    1  0.2420569E-009  0.1037488E+03  0.7561462E-02  0.1272605E+00
         -4   -1    0    0    0  501 -0.00000000000E+00  0.00000000000E+00  0.39901559347E+03  0.39901559347E+03  0.00000000000E+00 0.  1.
          4   -1    0    0  501    0  0.00000000000E+00 -0.00000000000E+00 -0.35345078349E+02  0.35345078349E+02  0.00000000000E+00 0. -1.
         25    2    1    2    0    0 -0.21233628849E+02 -0.30202002767E+02  0.14622559206E+03  0.19593951371E+03  0.12508933326E+03 0.  0.
          5    1    3    3  502    0  0.25597154594E+02 -0.61664357456E+02  0.11005624376E+03  0.12879268805E+03  0.41800000000E+01 0. -1.
         -5    1    3    3    0  502 -0.46830783443E+02  0.31462354688E+02  0.36169348295E+02  0.67146825662E+02  0.41800000000E+01 0. -1.
        -11    1    1    2    0    0  0.18897155981E+02  0.55496654272E+02  0.19781056312E+03  0.20631529275E+03  0.00000000000E+00 0.  1.
         11    1    1    2    0    0  0.23364728681E+01 -0.25294651504E+02  0.19634359946E+02  0.32105865362E+02  0.00000000000E+00 0. -1.
</event>
<event>
 7    1  0.2420569E-009  0.1582371E+03  0.7561462E-02  0.1190701E+00
         -2   -1    0    0    0  501 -0.00000000000E+00  0.00000000000E+00  0.39984372223E+02  0.39984372223E+02  0.00000000000E+00 0.  1.
          2   -1    0    0  501    0  0.00000000000E+00 -0.00000000000E+00 -0.98625080503E+03  0.98625080503E+03  0.00000000000E+00 0. -1.
         25    2    1    2    0    0  0.12960015245E+03 -0.61360077651E+02 -0.71655579267E+03  0.74139116936E+03  0.12508958132E+03 0.  0.
          5    1    3    3  502    0  0.10727032835E+03 -0.30586899436E+02 -0.25634878444E+03  0.27959730586E+03  0.41800000000E+01 0. -1.
         -5    1    3    3    0  502  0.22329824103E+02 -0.30773178215E+02 -0.46020700823E+03  0.46179386350E+03  0.41800000000E+01 0. -1.
        -11    1    1    2    0    0 -0.13121941897E+02  0.47524573739E+02 -0.88156839813E+02  0.10100692488E+03  0.00000000000E+00 0. -1.
         11    1    1    2    0    0 -0.11647821056E+03  0.13835503912E+02 -0.14155380033E+03  0.18383708301E+03  0.00000000000E+00 0.  1.
</event>
<event>
 7    1  0.2420569E-009  0.1298769E+03  0.7561462E-02  0.1227639E+00
          2   -1    0    0  501    0  0.00000000000E+00  0.00000000000E+00  0.23177711000E+02  0.23177711000E+02  0.00000000000E+00 0.  1.
         -2   -1    0    0    0  501 -0.00000000000E+00 -0.00000000000E+00 -0.84337281483E+03  0.84337281483E+03  0.00000000000E+00 0. -1.
         25    2    1    2    0    0  0.33303818362E+02  0.64947402755E+02 -0.30039334454E+03  0.33348267495E+03  0.12508886285E+03 0.  0.
          5    1    3    3  502    0  0.20707558160E+02 -0.34939207775E+02 -0.57535828984E+02  0.70550657133E+02  0.41800000000E+01 0. -1.
         -5    1    3    3    0  502  0.12596260201E+02  0.99886610530E+02 -0.24285751555E+03  0.26293201782E+03  0.41800000000E+01 0. -1.
        -11    1    1    2    0    0 -0.49622532550E+01 -0.83912129977E+02 -0.36488257739E+03  0.37443980130E+03  0.00000000000E+00 0.  1.
         11    1    1    2    0    0 -0.28341565107E+02  0.18964727222E+02 -0.15491918191E+03  0.15862804958E+03  0.00000000000E+00 0. -1.
</event>
<event>
 7    1  0.2420569E-009  0.8201733E+02  0.7561462E-02  0.1323422E+00
          1   -1    0    0  501    0  0.00000000000E+00  0.00000000000E+00  0.10430130997E+04  0.10430130997E+04  0.00000000000E+00 0. -1.
         -1   -1    0    0    0  501 -0.00000000000E+00 -0.00000000000E+00 -0.11364858606E+02  0.11364858606E+02  0.00000000000E+00 0.  1.
         25    2    1    2    0    0 -0.76270059454E+00 -0.13554021808E+02  0.56650854333E+03  0.58031294281E+03  0.12508752418E+03 0.  0.
          5    1    3    3  502    0  0.20454147089E+02  0.22693982515E+02  0.33103390638E+02  0.45240422713E+02  0.41800000000E+01 0. -1.
         -5    1    3    3    0  502 -0.21216847683E+02 -0.36248004324E+02  0.53340515269E+03  0.53507252010E+03  0.41800000000E+01 0. -1.
        -11    1    1    2    0    0 -0.10035042771E+02  0.51020942556E+02  0.29147194010E+03  0.29607385992E+03  0.00000000000E+00 0.  1.
         11    1    1    2    0    0  0.10797743365E+02 -0.37466920747E+02  0.17366775771E+03  0.17799115562E+03  0.00000000000E+00 0. -1.
</event>
<event>
 7    1  0.2420569E-009  0.1461164E+03  0.7561462E-02  0.1205328E+00
          3   -1    0    0  501    0  0.00000000000E+00  0.00000000000E+00  0.46933126908E+03  0.46933126908E+03  0.00000000000E+00 0. -1.
         -3   -1    0    0    0  501 -0.00000000000E+00 -0.00000000000E+00 -0.20287803942E+03  0.20287803942E+03  0.00000000000E+00 0.  1.
         25    2    1    2    0    0 -0.13099730225E+03  0.55641433137E+02 -0.13757063084E+03  0.23415746202E+03  0.12509107191E+03 0.  0.
          5    1    3    3  502    0 -0.58813020398E+02  0.23952649978E+02  0.12251050044E+02  0.64809423979E+02  0.41800000000E+01 0. -1.
         -5    1    3    3    0  502 -0.72184281849E+02  0.31688783159E+02 -0.14982168089E+03  0.16934803804E+03  0.41800000000E+01 0. -1.
        -11    1    1    2    0    0  0.12142349817E+03 -0.63713870721E+02  0.40276283646E+03  0.42546565744E+03  0.00000000000E+00 0. -1.
         11    1    1    2    0    0  0.95738040741E+01  0.80724375848E+01  0.12610240443E+01  0.12586189044E+02  0.00000000000E+00 0.  1.
</event>
<event>
 7    1  0.2420569E-009  0.9188946E+02  0.7561462E-02  0.1298340E+00
          1   -1    0    0  501    0  0.00000000000E+00  0.00000000000E+00  0.37392767868E+03  0.37392767868E+03  0.00000000000E+00 0. -1.
         -1   -1    0    0    0  501 -0.00000000000E+00 -0.00000000000E+00 -0.47488539801E+02  0.47488539801E+02  0.00000000000E+00 0.  1.
         25    2    1    2    0    0  0.32544031663E+02 -0.86794757180E+01  0.16240335562E+03  0.20774308324E+03  0.12509153217E+03 0.  0.
          5    1    3    3  502    0  0.52366697506E+02  0.20848971825E+02  0.16237807048E+03  0.17193330336E+03  0.41800000000E+01 0.  1.
         -5    1    3    3    0  502 -0.19822665843E+02 -0.29528447543E+02  0.25285145849E-01  0.35809779876E+02  0.41800000000E+01 0.  1.
        -11    1    1    2    0    0 -0.10588741873E+02  0.46515354358E+02  0.41208609353E+01  0.47882994271E+02  0.00000000000E+00 0.  1.
         11    1    1    2    0    0 -0.21955289790E+02 -0.37835878640E+02  0.15991492232E+03  0.16579014097E+03  0.00000000000E+00 0. -1.
</event>
<event>
 7    1  0.2420569E-009  0.1187310E+03  0.7561462E-02  0.1245205E+00
          1   -1    0    0  501    0  0.00000000000E+00  0.00000000000E+00  0.80316781589E+02  0.80316781589E+02  0.00000000000E+00 0. -1.
         -1   -1    0    0    0  501 -0.00000000000E+00 -0.00000000000E+00 -0.18834990772E+03  0.18834990772E+03  0.00000000000E+00 0.  1.
         25    2    1    2    0    0  0.51602156372E+02 -0.15308686104E+02 -0.34346677047E+02  0.14044346670E+03  0.12509010634E+03 0.  0.
          5    1    3    3  502    0  0.27454008084E+02 -0.69995610824E+02 -0.27319143213E+02  0.80105655733E+02  0.41800000000E+01 0.  1.
         -5    1    3    3    0  502  0.24148148288E+02  0.54686924720E+02 -0.70275338344E+01  0.60337810971E+02  0.41800000000E+01 0.  1.
        -11    1    1    2    0    0  0.79883268689E+01 -0.27643592538E+02 -0.34643501258E+02  0.45035028078E+02  0.00000000000E+00 0.  1.
         11    1    1    2    0    0 -0.59590483241E+02  0.42952278643E+02 -0.39042947821E+02  0.83188194523E+02  0.00000000000E+00 0. -1.
</event>
<event>
 7    1  0.2420569E-009  0.1034763E+03  0.7561462E-02  0.1273151E+00
         -4   -1    0    0    0  501 -0.00000000000E+00  0.00000000000E+00  0.52547185488E+03  0.52547185488E+03  0.00000000000E+00 0.  1.
          4   -1    0    0  501    0  0.00000000000E+00 -0.00000000000E+00 -0.28981342573E+02  0.28981342573E+02  0.00000000000E+00 0. -1.
         25    2    1    2    0    0  0.54666904824E+02  0.22732384413E+02  0.27517234733E+03  0.30801216985E+03  0.12508574762E+03 0.  0.
          5    1    3    3  502    0 -0.26917797969E+02  0.20394379595E+02  0.18689274173E+02  0.38823445696E+02  0.41800000000E+01 0. -1.
         -5    1    3    3    0  502  0.81584702793E+02  0.23380048178E+01  0.25648307315E+03  0.26918872415E+03  0.41800000000E+01 0. -1.
        -11    1    1    2    0    0 -0.90062648247E+01  0.24138053053E+02  0.13858164054E+03  0.14095612617E+03  0.00000000000E+00 0.  1.
         11    1    1    2    0    0 -0.45660640000E+02 -0.46870437466E+02  0.82736524439E+02  0.10548490143E+03  0.00000000000E+00 0. -1.
</event>
<event>
 7    1  0.2420569E-009  0.1191065E+03  0.7561462E-02  0.1244578E+00
         -2   -1    0    0    0  501 -0.00000000000E+00  0.00000000000E+00  0.16565106006E+02  0.16565106006E+02  0.00000000000E+00 0.  1.
          2   -1    0    0  501    0  0.00000000000E+00 -0.00000000000E+00 -0.14029196080E+04  0.14029196080E+04  0.00000000000E+00 0. -1.
         25    2    1    2    0    0 -0.62653832580E+01  0.82816598746E+02 -0.10673482342E+04  0.10778574953E+04  0.12508670220E+03 0.  0.
          5    1    3    3  502    0  0.62874370947E+01 -0.18066677995E+02 -0.31955713147E+02  0.37477682982E+02  0.41800000000E+01 0.  1.
         -5    1    3    3    0  502 -0.12552820353E+02  0.10088327674E+03 -0.10353925210E+04  0.10403798123E+04  0.41800000000E+01 0.  1.
        -11    1    1    2    0    0  0.43861279754E+02 -0.35350205750E+02 -0.10423965074E+03  0.11848777867E+03  0.00000000000E+00 0.  1.
         11    1    1    2    0    0 -0.37595896496E+02 -0.47466392995E+02 -0.21476661704E+03  0.22313944002E+03  0.00000000000E+00 0. -1.
</event>
<event>
 7    1  0.2420569E-009  0.9990796E+02  0.7561462E-02  0.1280490E+00
          1   -1    0    0  501    0  0.00000000000E+00  0.00000000000E+00  0.11594218972E+04  0.11594218972E+04  0.00000000000E+00 0. -1.
         -1   -1    0    0    0  501 -0.00000000000E+00 -0.00000000000E+00 -0.13786090120E+02  0.13786090120E+02  0.00000000000E+00 0.  1.
         25    2    1    2    0    0 -0.88572717903E+01  0.25171284263E+02  0.90776474690E+03  0.91673137442E+03  0.12509009679E+03 0.  0.
          5    1    3    3  502    0 -0.25034673534E+02  0.72421276074E+02  0.49033250645E+03  0.49630133526E+03  0.41800000000E+01 0. -1.
         -5    1    3    3    0  502  0.16177401744E+02 -0.47249991811E+02  0.41743224046E+03  0.42043003916E+03  0.41800000000E+01 0. -1.
        -11    1    1    2    0    0  0.31748549101E+02  0.79196721487E+01  0.28867581866E+02  0.43635179153E+02  0.00000000000E+00 0.  1.
         11    1    1    2    0    0 -0.22891277310E+02 -0.33090956412E+02  0.20900347834E+03  0.21284143377E+03  0.00000000000E+00 0. -1.
</event>
<event>
 7    1  0.2420569E-009  0.1481200E+03  0.7561462E-02  0.1202802E+00
          2   -1    0    0  501    0  0.00000000000E+00  0.00000000000E+00  0.48199228531E+03  0.48199228531E+03  0.00000000000E+00 0. -1.
         -2   -1    0    0    0  501 -0.00000000000E+00 -0.00000000000E+00 -0.47897538052E+02  0.47897538052E+02  0.00000000000E+00 0.  1.
         25    2    1    2    0    0  0.98935418571E+02  0.38741566404E+02  0.21635555771E+03  0.27156335591E+03  0.12509117837E+03 0.  0.
          5    1    3    3  502    0  0.12755867532E+03  0.43140121826E+02  0.17326621593E+03  0.21947879110E+03  0.41800000000E+01 0. -1.
         -5    1    3    3    0  502 -0.28623256744E+02 -0.43985554220E+01  0.43089341782E+02  0.52084564812E+02  0.41800000000E+01 0. -1.
        -11    1    1    2    0    0 -0.49103230509E+02 -0.60470450486E+02  0.16557814857E+03  0.18298613585E+03  0.00000000000E+00 0. -1.
         11    1    1    2    0    0 -0.49832188062E+02  0.21728884082E+02  0.52161040977E+02  0.75340331605E+02  0.00000000000E+00 0.  1.
</event>
<event>
 7    1  0.2420569E-009  0.5672198E+02  0.7561462E-02  0.1412127E+00
         -2   -1    0    0    0  501 -0.00000000000E+00  0.00000000000E+00  0.62786617449E+02  0.62786617449E+02  0.00000000000E+00 0. -1.
          2   -1    0    0  501    0  0.00000000000E+00 -0.00000000000E+00 -0.19630307838E+03  0.19630307838E+03  0.00000000000E+00 0.  1.
         25    2    1    2    0    0 -0.45623347371E+01 -0.21559857289E+02 -0.60829724965E+02  0.14083405044E+03  0.12509329311E+03 0.  0.
          5    1    3    3  502    0  0.13193742604E+01 -0.31401543490E+02 -0.97321413775E+02  0.10235588728E+03  0.41800000000E+01 0.  1.
         -5    1    3    3    0  502 -0.58817089975E+01  0.98416862009E+01  0.36491688810E+02  0.38478163161E+02  0.41800000000E+01 0.  1.
        -11    1    1    2    0    0 -0.29563530481E+02  0.76798139995E+00 -0.72494109814E+02  0.78294240450E+02  0.00000000000E+00 0.  1.
         11    1    1    2    0    0  0.34125865218E+02  0.20791875890E+02 -0.19262615483E+00  0.39961404939E+02  0.00000000000E+00 0. -1.
</event>
<event>
 7    1  0.2420569E-009  0.1005133E+03  0.7561462E-02  0.1279220E+00
          3   -1    0    0  501    0  0.00000000000E+00  0.00000000000E+00  0.13925892703E+03  0.13925892703E+03  0.00000000000E+00 0. -1.
         -3   -1    0    0    0  501 -0.00000000000E+00 -0.00000000000E+00 -0.15049987559E+03  0.15049987559E+03  0.00000000000E+00 0.  1.
         25    2    1    2    0    0 -0.23150836974E+01  0.64303179343E+02 -0.77460547485E+02  0.16058990298E+03  0.12509485216E+03 0.  0.
          5    1    3    3  502    0 -0.31992023165E+02  0.41439329676E+02  0.19919069051E+02  0.56168935383E+02  0.41800000000E+01 0. -1.
         -5    1    3    3    0  502  0.29676939468E+02  0.22863849667E+02 -0.97379616536E+02  0.10442096760E+03  0.41800000000E+01 0. -1.
        -11    1    1    2    0    0  0.42681042576E+02 -0.11230948693E+02  0.28940106748E+02  0.52776276702E+02  0.00000000000E+00 0.  1.
         11    1    1    2    0    0 -0.40365958879E+02 -0.53072230650E+02  0.37279492171E+02  0.76392622935E+02  0.00000000000E+00 0. -1.
</event>
<event>
 7    1  0.2420569E-009  0.1005929E+03  0.7561462E-02  0.1279054E+00
         -1   -1    0    0    0  501 -0.00000000000E+00  0.00000000000E+00  0.18133763562E+02  0.18133763562E+02  0.00000000000E+00 0.  1.
          1   -1    0    0  501    0  0.00000000000E+00 -0.00000000000E+00 -0.10105130161E+04  0.10105130161E+04  0.00000000000E+00 0. -1.
         25    2    1    2    0    0  0.68910053031E+02  0.13004722008E+02 -0.66657098979E+03  0.68182236549E+03  0.12508851046E+03 0.  0.
          5    1    3    3  502    0  0.57815199732E+02 -0.85786023416E+01 -0.64883299385E+03  0.65147364955E+03  0.41800000000E+01 0. -1.
         -5    1    3    3    0  502  0.11094853299E+02  0.21583324350E+02 -0.17737995937E+02  0.30348715946E+02  0.41800000000E+01 0. -1.
        -11    1    1    2    0    0 -0.18191683552E+02  0.40403406752E+02 -0.14402040075E+03  0.15068260835E+03  0.00000000000E+00 0.  1.
         11    1    1    2    0    0 -0.50718369479E+02 -0.53408128761E+02 -0.18178786199E+03  0.19614180581E+03  0.00000000000E+00 0. -1.
</event>
<event>
 7    1  0.2420569E-009  0.1936520E+03  0.7561462E-02  0.1155208E+00
         -3   -1    0    0    0  501 -0.00000000000E+00  0.00000000000E+00  0.12872181308E+03  0.12872181308E+03  0.00000000000E+00 0. -1.
          3   -1    0    0  501    0  0.00000000000E+00 -0.00000000000E+00 -0.32943884828E+03  0.32943884828E+03  0.00000000000E+00 0.  1.
         25    2    1    2    0    0  0.16298312416E+03  0.15997780512E+02 -0.37474059112E+02  0.20944914480E+03  0.12508081951E+03 0.  0.
          5    1    3    3  502    0  0.45925391952E+02 -0.48784089355E+02  0.90572802749E+01  0.67738731359E+02  0.41800000000E+01 0.  1.
         -5    1    3    3    0  502  0.11705773221E+03  0.64781869867E+02 -0.46531339387E+02  0.14171041344E+03  0.41800000000E+01 0.  1.
        -11    1    1    2    0    0 -0.59660852809E+02  0.36995806813E+02 -0.47507151037E+02  0.84764594491E+02  0.00000000000E+00 0.  1.
         11    1    1    2    0    0 -0.10332227135E+03 -0.52993587325E+02 -0.11573582505E+03  0.16394692206E+03  0.00000000000E+00 0. -1.
</event>
<event>
 7    1  0.2420569E-009  0.1593184E+03  0.7561462E-02  0.1189468E+00
         -2   -1    0    0    0  501 -0.00000000000E+00  0.00000000000E+00  0.81159056854E+02  0.81159056854E+02  0.00000000000E+00 0.  1.
          2   -1    0    0  501    0  0.00000000000E+00 -0.00000000000E+00 -0.51490167792E+03  0.51490167792E+03  0.00000000000E+00 0. -1.
         25    2    1    2    0    0  0.13809667889E+03 -0.60807449797E+02 -0.27385308597E+03  0.33676642670E+03  0.12509146569E+03 0.  0.
          5    1    3    3  502    0  0.22109173611E+02 -0.16802920810E+02  0.76556440365E+01  0.29107301337E+02  0.41800000000E+01 0. -1.
         -5    1    3    3    0  502  0.11598750527E+03 -0.44004528987E+02 -0.28150873001E+03  0.30765912537E+03  0.41800000000E+01 0. -1.
        -11    1    1    2    0    0 -0.10851395132E+03  0.11757255063E+02 -0.16911122069E+03  0.20127621728E+03  0.00000000000E+00 0. -1.
         11    1    1    2    0    0 -0.29582727564E+02  0.49050194734E+02  0.92216855979E+01  0.58018090789E+02  0.00000000000E+00 0.  1.
</event>
<event>
 7    1  0.2420569E-009  0.1021196E+03  0.7561462E-02  0.1275901E+00
         -1   -1    0    0    0  501 -0.00000000000E+00  0.00000000000E+00  0.22247794841E+02  0.22247794841E+02  0.00000000000E+00 0.  1.
          1   -1    0    0  501    0  0.00000000000E+00 -0.00000000000E+00 -0.81819239772E+03  0.81819239772E+03  0.00000000000E+00 0. -1.
         25    2    1    2    0    0  0.12298884530E+02  0.74323340880E+02 -0.55637508447E+03  0.57521735739E+03  0.12508617857E+03 0.  0.
          5    1    3    3  502    0  0.20419855449E+01 -0.25620968816E+02 -0.31847612096E+02  0.41138139776E+02  0.41800000000E+01 0. -1.
         -5    1    3    3    0  502  0.10256898985E+02  0.99944309696E+02 -0.52452747237E+03  0.53407921762E+03  0.41800000000E+01 0. -1.
        -11    1    1    2    0    0  0.48539099402E+01 -0.23723188332E+02 -0.51037799823E+01  0.24746690212E+02  0.00000000000E+00 0.  1.
         11    1    1    2    0    0 -0.17152794471E+02 -0.50600152548E+02 -0.23446573843E+03  0.24047614496E+03  0.00000000000E+00 0. -1.
</event>
<event>
 7    1  0.2420569E-009  0.9310102E+02  0.7561462E-02  0.1295511E+00
         -2   -1    0    0    0  501 -0.00000000000E+00  0.00000000000E+00  0.11513022435E+03  0.11513022435E+03  0.00000000000E+00 0.  1.
          2   -1    0    0  501    0  0.00000000000E+00 -0.00000000000E+00 -0.18353075068E+03  0.18353075068E+03  0.00000000000E+00 0. -1.
         25    2    1    2    0    0  0.64210852833E+02  0.61209182127E+02  0.76047484008E+01  0.15353211364E+03  0.12507869572E+03 0.  0.
          5    1    3    3  502    0  0.24985012266E+02  0.23504863026E+02  0.65447982961E+02  0.74011082261E+02  0.41800000000E+01 0.  1.
         -5    1    3    3    0  502  0.39225840567E+02  0.37704319101E+02 -0.57843234560E+02  0.79521031378E+02  0.41800000000E+01 0.  1.
        -11    1    1    2    0    0 -0.68900871764E+02 -0.50626799771E+02 -0.19825883235E+02  0.87769406008E+02  0.00000000000E+00 0.  1.
         11    1    1    2    0    0  0.46900189308E+01 -0.10582382356E+02 -0.56179391488E+02  0.57359455383E+02  0.00000000000E+00 0. -1.
</event>
<event>
 7    1  0.2420569E-009  0.1076812E+03  0.7561462E-02  0.1264925E+00
          3   -1    0    0  501    0  0.00000000000E+00  0.00000000000E+00  0.56488989744E+02  0.56488989744E+02  0.00000000000E+00 0.  1.
         -3   -1    0    0    0  501 -0.00000000000E+00 -0.00000000000E+00 -0.30599284633E+03  0.30599284633E+03  0.00000000000E+00 0. -1.
         25    2    1    2    0    0  0.49873245653E+02  0.27772275422E+02 -0.20749812231E+03  0.24892159177E+03  0.12509135932E+03 0.  0.
          5    1    3    3  502    0 -0.93623823763E+01 -0.41448617756E+02 -0.41632530151E+02  0.59635409652E+02  0.41800000000E+01 0. -1.
         -5    1    3    3    0  502  0.59235628029E+02  0.69220893177E+02 -0.16586559216E+03  0.18928618212E+03  0.41800000000E+01 0. -1.
        -11    1    1    2    0    0 -0.62061707304E+02 -0.15084682714E+02  0.43116059845E+01  0.64014007156E+02  0.00000000000E+00 0.  1.
         11    1    1    2    0    0  0.12188461651E+02 -0.12687592708E+02 -0.46317340262E+02  0.49546237143E+02  0.00000000000E+00 0. -1.
</event>
<event>
 7    1  0.2420569E-009  0.1220586E+03  0.7561462E-02  0.1239739E+00
          1   -1    0    0  501    0  0.00000000000E+00  0.00000000000E+00  0.43186563917E+03  0.43186563917E+03  0.00000000000E+00 0. -1.
         -1   -1    0    0    0  501 -0.00000000000E+00 -0.00000000000E+00 -0.43115809562E+02  0.43115809562E+02  0.00000000000E+00 0.  1.
         25    2    1    2    0    0  0.71373349284E+02 -0.48275321035E+01  0.13795373478E+03  0.19949094142E+03  0.12509173720E+03 0.  0.
          5    1    3    3  502    0  0.21750681178E+02  0.56702848984E+02  0.83820610840E+02  0.10359378561E+03  0.41800000000E+01 0.  1.
         -5    1    3    3    0  502  0.49622668106E+02 -0.61530381088E+02  0.54133123939E+02  0.95897155819E+02  0.41800000000E+01 0.  1.
        -11    1    1    2    0    0 -0.42661457410E+02  0.40137384350E+02  0.19433923894E+03  0.20297475056E+03  0.00000000000E+00 0. -1.
         11    1    1    2    0    0 -0.28711891874E+02 -0.35309852246E+02  0.56456855890E+02  0.72515756754E+02  0.00000000000E+00 0.  1.
</event>
<event>
 7    1  0.2420569E-009  0.7641932E+02  0.7561462E-02  0.1339531E+00
         -1   -1    0    0    0  501 -0.00000000000E+00  0.00000000000E+00  0.66671079061E+02  0.66671079061E+02  0.00000000000E+00 0.  1.
          1   -1    0    0  501    0  0.00000000000E+00 -0.00000000000E+00 -0.20504324540E+03  0.20504324540E+03  0.00000000000E+00 0. -1.
         25    2    1    2    0    0 -0.32738677865E+02  0.37291728764E-01 -0.47648170386E+02  0.13780232278E+03  0.12508920658E+03 0.  0.
          5    1    3    3  502    0  0.13644469981E+02  0.21094029640E+02  0.33389360584E+02  0.41993469108E+02  0.41800000000E+01 0. -1.
         -5    1    3    3    0  502 -0.46383147846E+02 -0.21056737911E+02 -0.81037530971E+02  0.95808853669E+02  0.41800000000E+01 0. -1.
        -11    1    1    2    0    0 -0.15256728093E+02  0.19225917315E+02 -0.76403680810E+02  0.80249150089E+02  0.00000000000E+00 0. -1.
         11    1    1    2    0    0  0.47995405958E+02 -0.19263209043E+02 -0.14320315146E+02  0.53662851598E+02  0.00000000000E+00 0.  1.
</event>
<event>
 7    1  0.2420569E-009  0.1105217E+03  0.7561462E-02  0.1259607E+00
          2   -1    0    0  501    0  0.00000000000E+00  0.00000000000E+00  0.85998959677E+02  0.85998959677E+02  0.00000000000E+00 0. -1.
         -2   -1    0    0    0  501 -0.00000000000E+00 -0.00000000000E+00 -0.18718578261E+03  0.18718578261E+03  0.00000000000E+00 0.  1.
         25    2    1    2    0    0  0.15301251449E+02 -0.24916416602E+02 -0.77515606787E+02  0.15003618054E+03  0.12508888865E+03 0.  0.
          5    1    3    3  502    0 -0.46300863434E+02 -0.11474901866E+02  0.26530898121E+01  0.47957842039E+02  0.41800000000E+01 0. -1.
         -5    1    3    3    0  502  0.61602114883E+02 -0.13441514736E+02 -0.80168696599E+02  0.10207833850E+03  0.41800000000E+01 0. -1.
        -11    1    1    2    0    0  0.35946530173E+02  0.42615134799E+02  0.13561945173E+02  0.57377078196E+02  0.00000000000E+00 0. -1.
         11    1    1    2    0    0 -0.51247781622E+02 -0.17698718197E+02 -0.37233161321E+02  0.65771483555E+02  0.00000000000E+00 0.  1.
</event>
<event>
 7    1  0.2420569E-009  0.1342246E+03  0.7561462E-02  0.1221318E+00
         -1   -1    0    0    0  501 -0.00000000000E+00  0.00000000000E+00  0.20826346522E+03  0.20826346522E+03  0.00000000000E+00 0.  1.
          1   -1    0    0  501    0  0.00000000000E+00 -0.00000000000E+00 -0.92884348210E+02  0.92884348210E+02  0.00000000000E+00 0. -1.
         25    2    1    2    0    0  0.42135460652E+01 -0.85043460388E+02  0.83055745508E+02  0.17261607158E+03  0.12509159516E+03 0.  0.
          5    1    3    3  502    0 -0.83472459780E+01  0.30969483520E+02  0.30893549199E+02  0.44728840886E+02  0.41800000000E+01 0.  1.
         -5    1    3    3    0  502  0.12560792043E+02 -0.11601294391E+03  0.52162196310E+02  0.12788723069E+03  0.41800000000E+01 0.  1.
        -11    1    1    2    0    0 -0.10505456040E+02  0.10133246638E+03  0.13351060484E+02  0.10274669904E+03  0.00000000000E+00 0. -1.
         11    1    1    2    0    0  0.62919099743E+01 -0.16289005987E+02  0.18972311017E+02  0.25785042806E+02  0.00000000000E+00 0.  1.
</event>
<event>
 7    1  0.2420569E-009  0.1244784E+03  0.7561462E-02  0.1235887E+00
          2   -1    0    0  501    0  0.00000000000E+00  0.00000000000E+00  0.11731266914E+04  0.11731266914E+04  0.00000000000E+00 0. -1.
         -2   -1    0    0    0  501 -0.00000000000E+00 -0.00000000000E+00 -0.27344968194E+02  0.27344968194E+02  0.00000000000E+00 0.  1.
         25    2    1    2    0    0  0.83112733879E+02 -0.12391624015E+02  0.98740121795E+03  0.99883500089E+03  0.12509562306E+03 0.  0.
          5    1    3    3  502    0  0.30355898946E+02  0.47204893696E+02  0.63710661057E+03  0.63958743595E+03  0.41800000000E+01 0. -1.
         -5    1    3    3    0  502  0.52756834933E+02 -0.59596517711E+02  0.35029460738E+03  0.35924756494E+03  0.41800000000E+01 0. -1.
        -11    1    1    2    0    0 -0.74936149796E+02 -0.21622052096E+02  0.63701876455E+02  0.10070188055E+03  0.00000000000E+00 0.  1.
         11    1    1    2    0    0 -0.81765840837E+01  0.34013676111E+02  0.94678628825E+02  0.10093477818E+03  0.00000000000E+00 0. -1.
</event>
<event>
 7    1  0.2420569E-009  0.1319586E+03  0.7561462E-02  0.1224578E+00
         -1   -1    0    0    0  501 -0.00000000000E+00  0.00000000000E+00  0.12925497784E+02  0.12925497784E+02  0.00000000000E+00 0.  1.
          1   -1    0    0  501    0  0.00000000000E+00 -0.00000000000E+00 -0.13969308881E+04  0.13969308881E+04  0.00000000000E+00 0. -1.
         25    2    1    2    0    0 -0.36370836253E+02 -0.68847519664E+02 -0.80878159167E+03  0.82209385901E+03  0.12509129184E+03 0.  0.
          5    1    3    3  502    0  0.44615391822E+02 -0.74691712135E+01 -0.22974378860E+03  0.23419223409E+03  0.41800000000E+01 0. -1.
         -5    1    3    3    0  502 -0.80986228074E+02 -0.61378348450E+02 -0.57903780307E+03  0.58790162492E+03  0.41800000000E+01 0. -1.
        -11    1    1    2    0    0 -0.10063164561E+02  0.69621001084E+02 -0.41595142635E+03  0.42185772502E+03  0.00000000000E+00 0. -1.
         11    1    1    2    0    0  0.46434000814E+02 -0.77348142004E+00 -0.15927237228E+03  0.16590480185E+03  0.00000000000E+00 0.  1.
</event>
<event>
 7    1  0.2420569E-009  0.8446384E+02  0.7561462E-02  0.1316841E+00
         -1   -1    0    0    0  501 -0.00000000000E+00  0.00000000000E+00  0.36608644193E+03  0.36608644193E+03  0.00000000000E+00 0.  1.
          1   -1    0    0  501    0  0.00000000000E+00 -0.00000000000E+00 -0.37939627500E+02  0.37939627500E+02  0.00000000000E+00 0. -1.
         25    2    1    2    0    0  0.36098058591E+02 -0.94114063319E+01  0.13525492358E+03  0.18797112267E+03  0.12509038413E+03 0.  0.
          5    1    3    3  502    0  0.51721856382E+02 -0.18819965628E+02  0.15271176030E+03  0.16238132795E+03  0.41800000000E+01 0.  1.
         -5    1    3    3    0  502 -0.15623797791E+02  0.94085592960E+01 -0.17456836721E+02  0.25589794719E+02  0.41800000000E+01 0.  1.
        -11    1    1    2    0    0 -0.26999017580E+02 -0.38070837761E+02  0.11820818578E+03  0.12708859438E+03  0.00000000000E+00 0.  1.
         11    1    1    2    0    0 -0.90990410113E+01  0.47482244093E+02  0.74683705082E+02  0.88966352382E+02  0.00000000000E+00 0. -1.
</event>
<event>
 7    1  0.2420569E-009  0.2122450E+03  0.7561462E-02  0.1139800E+00
         -2   -1    0    0    0  501 -0.00000000000E+00  0.00000000000E+00  0.14912284551E+03  0.14912284551E+03  0.00000000000E+00 0.  1.
          2   -1    0    0  501    0  0.00000000000E+00 -0.00000000000E+00 -0.48614564353E+03  0.48614564353E+03  0.00000000000E+00 0. -1.
         25    2    1    2    0    0 -0.13192980315E+03  0.13683422502E+03 -0.35623480159E+03  0.42270227075E+03  0.12507956562E+03 0.  0.
          5    1    3    3  502    0 -0.98568755001E+02  0.14337576451E+02 -0.17457578230E+03  0.20103617019E+03  0.41800000000E+01 0. -1.
         -5    1    3    3    0  502 -0.33361048148E+02  0.12249664857E+03 -0.18165901929E+03  0.22166610055E+03  0.41800000000E+01 0. -1.
        -11    1    1    2    0    0  0.21938218093E+02 -0.59214367166E+02 -0.29110566906E+02  0.69534536725E+02  0.00000000000E+00 0.  1.
         11    1    1    2    0    0  0.10999158506E+03 -0.77619857855E+02  0.48322570469E+02  0.14303168157E+03  0.00000000000E+00 0. -1.
</event>
<event>
 7    1  0.2420569E-009  0.2333751E+03  0.7561462E-02  0.1124287E+00
         -2   -1    0    0    0  501 -0.00000000000E+00  0.00000000000E+00  0.53684559669E+02  0.53684559669E+02  0.00000000000E+00 0.  1.
          2   -1    0    0  501    0  0.00000000000E+00 -0.00000000000E+00 -0.13710083201E+04  0.13710083201E+04  0.00000000000E+00 0. -1.
         25    2    1    2    0    0  0.20066109838E+03 -0.85847108552E+02 -0.97881700338E+03  0.10106262085E+04  0.12509198491E+03 0.  0.
          5    1    3    3  502    0  0.13896532033E+03 -0.11392029342E+03 -0.78307074871E+03  0.80343416868E+03  0.41800000000E+01 0. -1.
         -5    1    3    3    0  502  0.61695778048E+02  0.28073184864E+02 -0.19574625466E+03  0.20719203979E+03  0.41800000000E+01 0. -1.
        -11    1    1    2    0    0 -0.18663710440E+03  0.74116709541E+02 -0.23570020342E+03  0.30964702689E+03  0.00000000000E+00 0.  1.
         11    1    1    2    0    0 -0.14023993975E+02  0.11730399011E+02 -0.10280655363E+03  0.10441964441E+03  0.00000000000E+00 0. -1.
</event>
<event>
 7    1  0.2420569E-009  0.8892780E+02  0.7561462E-02  0.1305469E+00
          1   -1    0    0  501    0  0.00000000000E+00  0.00000000000E+00  0.75985110445E+02  0.75985110445E+02  0.00000000000E+00 0. -1.
         -1   -1    0    0    0  501 -0.00000000000E+00 -0.00000000000E+00 -0.17084325926E+03  0.17084325926E+03  0.00000000000E+00 0.  1.
         25    2    1    2    0    0  0.25486310606E+02 -0.17094211713E+02 -0.42005054271E+02  0.13548456738E+03  0.12509947766E+03 0.  0.
          5    1    3    3  502    0 -0.24525882319E+02  0.19588481608E+02  0.27711209485E+02  0.42078629331E+02  0.41800000000E+01 0. -1.
         -5    1    3    3    0  502  0.50012192925E+02 -0.36682693321E+02 -0.69716263756E+02  0.93405938047E+02  0.41800000000E+01 0. -1.
        -11    1    1    2    0    0 -0.45221387735E+02 -0.13876442547E+02 -0.38954404958E+00  0.47304136299E+02  0.00000000000E+00 0. -1.
         11    1    1    2    0    0  0.19735077129E+02  0.30970654259E+02 -0.52463550491E+02  0.64039666025E+02  0.00000000000E+00 0.  1.
</event>
<event>
 7    1  0.2420569E-009  0.1705016E+03  0.7561462E-02  0.1177326E+00
         -2   -1    0    0    0  501 -0.00000000000E+00  0.00000000000E+00  0.24523604133E+02  0.24523604133E+02  0.00000000000E+00 0.  1.
          2   -1    0    0  501    0  0.00000000000E+00 -0.00000000000E+00 -0.17299313803E+04  0.17299313803E+04  0.00000000000E+00 0. -1.
         25    2    1    2    0    0  0.42294779684E+02 -0.15557113922E+03 -0.11715461291E+04  0.11891849096E+04  0.12509671821E+03 0.  0.
          5    1    3    3  502    0  0.40602229155E+02 -0.10996447872E+03 -0.41515985669E+03  0.43141152812E+03  0.41800000000E+01 0. -1.
         -5    1    3    3    0  502  0.16925505298E+01 -0.45606660501E+02 -0.75638627242E+03  0.75777338150E+03  0.41800000000E+01 0. -1.
        -11    1    1    2    0    0 -0.63485456515E+02  0.10051280622E+03 -0.42659340752E+03  0.44284891639E+03  0.00000000000E+00 0. -1.
         11    1    1    2    0    0  0.21190676831E+02  0.55058332994E+02 -0.10726823957E+03  0.12242115846E+03  0.00000000000E+00 0.  1.
</event>
<event>
 7    1  0.2420569E-009  0.7129856E+02  0.7561462E-02  0.1355732E+00
         -1   -1    0    0    0  501 -0.00000000000E+00  0.00000000000E+00  0.40838857491E+02  0.40838857491E+02  0.00000000000E+00 0.  1.
          1   -1    0    0  501    0  0.00000000000E+00 -0.00000000000E+00 -0.31370062205E+03  0.31370062205E+03  0.00000000000E+00 0. -1.
         25    2    1    2    0    0  0.28997370439E+02  0.13914115554E+02 -0.13029012761E+03  0.18346079837E+03  0.12509155479E+03 0.  0.
          5    1    3    3  502    0 -0.30230453551E+02 -0.63872116842E+01 -0.11461834304E+03  0.11878347426E+03  0.41800000000E+01 0.  1.
         -5    1    3    3    0  502  0.59227823990E+02  0.20301327239E+02 -0.15671784565E+02  0.64677324107E+02  0.41800000000E+01 0.  1.
        -11    1    1    2    0    0  0.67138249178E+01 -0.10936390924E+02  0.87758950033E+01  0.15546588841E+02  0.00000000000E+00 0.  1.
         11    1    1    2    0    0 -0.35711195356E+02 -0.29777246303E+01 -0.15134753195E+03  0.15553209233E+03  0.00000000000E+00 0. -1.
</event>
<event>
 7    1  0.2420569E-009  0.7545360E+02  0.7561462E-02  0.1342472E+00
          4   -1    0    0  501    0  0.00000000000E+00  0.00000000000E+00  0.25033954956E+03  0.25033954956E+03  0.00000000000E+00 0. -1.
         -4   -1    0    0    0  501 -0.00000000000E+00 -0.00000000000E+00 -0.60212991019E+02  0.60212991019E+02  0.00000000000E+00 0.  1.
         25    2    1    2    0    0  0.31899528326E+02 -0.37926301206E+02  0.68635572437E+02  0.15104100751E+03  0.12508620994E+03 0.  0.
          5    1    3    3  502    0  0.38715146489E+02  0.93709439576E+01 -0.24021861873E+02  0.46703312582E+02  0.41800000000E+01 0. -1.
         -5    1    3    3    0  502 -0.68156181629E+01 -0.47297245163E+02  0.92657434310E+02  0.10433769493E+03  0.41800000000E+01 0. -1.
        -11    1    1    2    0    0 -0.36399817940E+02  0.14744862034E+02  0.37789732409E+01  0.39454256313E+02  0.00000000000E+00 0.  1.
         11    1    1    2    0    0  0.45002896146E+01  0.23181439172E+02  0.11771201287E+03  0.12005727675E+03  0.00000000000E+00 0. -1.
</event>
<event>
 7    1  0.2420569E-009  0.1371403E+03  0.7561462E-02  0.1217230E+00
          2   -1    0    0  501    0  0.00000000000E+00  0.00000000000E+00  0.14151178575E+03  0.14151178575E+03  0.00000000000E+00 0. -1.
         -2   -1    0    0    0  501 -0.00000000000E+00 -0.00000000000E+00 -0.16797972778E+03  0.16797972778E+03  0.00000000000E+00 0.  1.
         25    2    1    2    0    0 -0.43694049544E+02  0.98713094411E+02  0.25968381497E+01  0.16524943012E+03  0.12508871098E+03 0.  0.
          5    1    3    3  502    0 -0.74120915100E+02  0.26371465844E+02  0.26471574147E+02  0.83111857781E+02  0.41800000000E+01 0.  1.
         -5    1    3    3    0  502  0.30426865556E+02  0.72341628567E+02 -0.23874735997E+02  0.82137572342E+02  0.41800000000E+01 0.  1.
        -11    1    1    2    0    0  0.21182416000E+02 -0.67564393641E+01  0.26402979130E+02  0.34517553902E+02  0.00000000000E+00 0. -1.
         11    1    1    2    0    0  0.22511633544E+02 -0.91956655047E+02 -0.55467759307E+02  0.10972452950E+03  0.00000000000E+00 0.  1.
</event>
<event>
 7    1  0.2420569E-009  0.1001811E+03  0.7561462E-02  0.1279916E+00
         -2   -1    0    0    0  501 -0.00000000000E+00  0.00000000000E+00  0.80322992401E+02  0.80322992401E+02  0.00000000000E+00 0.  1.
          2   -1    0    0  501    0  0.00000000000E+00 -0.00000000000E+00 -0.12925891899E+03  0.12925891899E+03  0.00000000000E+00 0. -1.
         25    2    1    2    0    0 -0.18138496880E+02 -0.59934406051E+01 -0.27105224281E+02  0.12940525199E+03  0.12508437016E+03 0.  0.
          5    1    3    3  502    0 -0.52294617658E+02 -0.47379139242E+02 -0.39106496701E+01  0.70797425463E+02  0.41800000000E+01 0. -1.
         -5    1    3    3    0  502  0.34156120778E+02  0.41385698637E+02 -0.23194574611E+02  0.58607826522E+02  0.41800000000E+01 0. -1.
        -11    1    1    2    0    0 -0.14719354423E+02  0.31160116931E+02 -0.17242812395E+02  0.38534748748E+02  0.00000000000E+00 0.  1.
         11    1    1    2    0    0  0.32857851303E+02 -0.25166676326E+02 -0.45878899159E+01  0.41641910660E+02  0.00000000000E+00 0. -1.
</event>
<event>
 7    1  0.2420569E-009  0.1588335E+03  0.7561462E-02  0.1190020E+00
         -1   -1    0    0    0  501 -0.00000000000E+00  0.00000000000E+00  0.10962219079E+03  0.10962219079E+03  0.00000000000E+00 0.  1.
          1   -1    0    0  501    0  0.00000000000E+00 -0.00000000000E+00 -0.31056154989E+03  0.31056154989E+03  0.00000000000E+00 0. -1.
         25    2    1    2    0    0 -0.11035831305E+02 -0.12537661075E+03 -0.19502476596E+03  0.26367301003E+03  0.12509081816E+03 0.  0.
          5    1    3    3  502    0 -0.30473367546E+02 -0.13864320813E+03 -0.12330365680E+03  0.18807399999E+03  0.41800000000E+01 0. -1.
         -5    1    3    3    0  502  0.19437536241E+02  0.13266597383E+02 -0.71721109158E+02  0.75599010047E+02  0.41800000000E+01 0. -1.
        -11    1    1    2    0    0 -0.22232546333E+01 -0.12773758147E+02  0.10598854314E+02  0.16746565950E+02  0.00000000000E+00 0.  1.
         11    1    1    2    0    0  0.13259085939E+02  0.13815036889E+03 -0.16513447458E+02  0.13976416469E+03  0.00000000000E+00 0. -1.
</event>
<event>
 7    1  0.2593316E-009  0.1907886E+03  0.7561462E-02  0.1157752E+00
          4   -1    0    0  501    0  0.00000000000E+00  0.00000000000E+00  0.85479457237E+03  0.85479457237E+03  0.00000000000E+00 0. -1.
         -4   -1    0    0    0  501 -0.00000000000E+00 -0.00000000000E+00 -0.44764869949E+02  0.44764869949E+02  0.00000000000E+00 0.  1.
         25    2    1    2    0    0 -0.74663176781E+02  0.14398347628E+03  0.43098297408E+03  0.47717794068E+03  0.12508649693E+03 0.  0.
          5    1    3    3  502    0  0.20729042275E+02  0.94867820764E+02  0.21659978905E+03  0.23740795612E+03  0.41800000000E+01 0.  1.
         -5    1    3    3    0  502 -0.95392219056E+02  0.49115655511E+02  0.21438318503E+03  0.23976998456E+03  0.41800000000E+01 0.  1.
        -11    1    1    2    0    0  0.76779153250E+02 -0.72848432339E+02  0.15810214504E+03  0.19025830004E+03  0.00000000000E+00 0.  1.
         11    1    1    2    0    0 -0.21159764690E+01 -0.71135043936E+02  0.22094458331E+03  0.23212320161E+03  0.00000000000E+00 0. -1.
</event>
<event>
 7    1  0.2420569E-009  0.1750225E+03  0.7561462E-02  0.1172709E+00
         -2   -1    0    0    0  501 -0.00000000000E+00  0.00000000000E+00  0.76809493480E+02  0.76809493480E+02  0.00000000000E+00 0. -1.
          2   -1    0    0  501    0  0.00000000000E+00 -0.00000000000E+00 -0.87262033741E+03  0.87262033741E+03  0.00000000000E+00 0.  1.
         25    2    1    2    0    0  0.17269960459E+03  0.10418122216E+02 -0.70125916862E+03  0.73303799569E+03  0.12508633361E+03 0.  0.
          5    1    3    3  502    0  0.35678791015E+02 -0.11806602267E+02 -0.32042568770E+02  0.49563803312E+02  0.41800000000E+01 0. -1.
         -5    1    3    3    0  502  0.13702081357E+03  0.22224724483E+02 -0.66921659986E+03  0.68347419238E+03  0.41800000000E+01 0. -1.
        -11    1    1    2    0    0 -0.10497514397E+03 -0.11665402477E+02 -0.10372653094E+03  0.14803734558E+03  0.00000000000E+00 0.  1.
         11    1    1    2    0    0 -0.67724460619E+02  0.12472802611E+01  0.91748556378E+01  0.68354489612E+02  0.00000000000E+00 0. -1.
</event>
<event>
 7    1  0.2420569E-009  0.9445953E+02  0.7561462E-02  0.1292398E+00
         -2   -1    0    0    0  501 -0.00000000000E+00  0.00000000000E+00  0.24201137336E+02  0.24201137336E+02  0.00000000000E+00 0.  1.
          2   -1    0    0  501    0  0.00000000000E+00 -0.00000000000E+00 -0.48735379985E+03  0.48735379985E+03  0.00000000000E+00 0. -1.
         25    2    1    2    0    0 -0.70858260019E+01 -0.85821099119E+01 -0.23000013220E+03  0.26205295521E+03  0.12509128261E+03 0.  0.
          5    1    3    3  502    0 -0.52867796053E+02  0.14366458603E+02 -0.48062997373E+02  0.72999473346E+02  0.41800000000E+01 0.  1.
         -5    1    3    3    0  502  0.45781970051E+02 -0.22948568515E+02 -0.18193713482E+03  0.18905348187E+03  0.41800000000E+01 0.  1.
        -11    1    1    2    0    0  0.41548241225E+02  0.20234903787E+02 -0.17422119960E+03  0.18024631500E+03  0.00000000000E+00 0. -1.
         11    1    1    2    0    0 -0.34462415223E+02 -0.11652793875E+02 -0.58931330719E+02  0.69255666977E+02  0.00000000000E+00 0.  1.
</event>
<event>
 7    1  0.2420569E-009  0.1308241E+03  0.7561462E-02  0.1226238E+00
         -4   -1    0    0    0  501 -0.00000000000E+00  0.00000000000E+00  0.82168183311E+02  0.82168183311E+02  0.00000000000E+00 0.  1.
          4   -1    0    0  501    0  0.00000000000E+00 -0.00000000000E+00 -0.33663882473E+03  0.33663882473E+03  0.00000000000E+00 0. -1.
         25    2    1    2    0    0 -0.11851408745E+03  0.34765428566E+02 -0.17002043793E+03  0.24454847496E+03  0.12507111316E+03 0.  0.
          5    1    3    3  502    0 -0.97265644160E+02  0.15016845015E+02 -0.32184726900E+02  0.10363127044E+03  0.41800000000E+01 0.  1.
         -5    1    3    3    0  502 -0.21248443286E+02  0.19748583551E+02 -0.13783571103E+03  0.14091720452E+03  0.41800000000E+01 0.  1.
        -11    1    1    2    0    0  0.33614935500E+02 -0.35555885903E+02 -0.74001304004E+02  0.88715150371E+02  0.00000000000E+00 0. -1.
         11    1    1    2    0    0  0.84899151946E+02  0.79045733715E+00 -0.10448899482E+02  0.85543382703E+02  0.00000000000E+00 0.  1.
</event>
<event>
 7    1  0.2420569E-009  0.6237306E+02  0.7561462E-02  0.1388135E+00
          1   -1    0    0  501    0  0.00000000000E+00  0.00000000000E+00  0.42297099612E+03  0.42297099612E+03  0.00000000000E+00 0. -1.
         -1   -1    0    0    0  501 -0.00000000000E+00 -0.00000000000E+00 -0.49753128441E+02  0.49753128441E+02  0.00000000000E+00 0.  1.
         25    2    1    2    0    0 -0.80950237350E+01  0.11769730053E+01  0.32255290678E+03  0.34605565769E+03  0.12508887188E+03 0.  0.
          5    1    3    3  502    0  0.30868388258E+01  0.30718237315E+02  0.11245675009E+02  0.33122141901E+02  0.41800000000E+01 0.  1.
         -5    1    3    3    0  502 -0.11181862561E+02 -0.29541264310E+02  0.31130723178E+03  0.31293351579E+03  0.41800000000E+01 0.  1.
        -11    1    1    2    0    0  0.33731485488E+02 -0.90261330986E+01 -0.27235153344E+02  0.44283606105E+02  0.00000000000E+00 0.  1.
         11    1    1    2    0    0 -0.25636461753E+02  0.78491600933E+01  0.77900114241E+02  0.82384860770E+02  0.00000000000E+00 0. -1.
</event>
<event>
 7    1  0.2420569E-009  0.1962188E+03  0.7561462E-02  0.1152969E+00
         -1   -1    0    0    0  501 -0.00000000000E+00  0.00000000000E+00  0.67349347050E+02  0.67349347050E+02  0.00000000000E+00 0.  1.
          1   -1    0    0  501    0  0.00000000000E+00 -0.00000000000E+00 -0.69178905193E+03  0.69178905193E+03  0.00000000000E+00 0. -1.
         25    2    1    2    0    0  0.98638421361E+02 -0.15427617225E+03 -0.26844274141E+03  0.34819539022E+03  0.12509136208E+03 0.  0.
          5    1    3    3  502    0 -0.14116592454E+02 -0.17496489406E+02  0.39209713450E+01  0.23200253024E+02  0.41800000000E+01 0. -1.
         -5    1    3    3    0  502  0.11275501382E+03 -0.13677968284E+03 -0.27236371275E+03  0.32499513720E+03  0.41800000000E+01 0. -1.
        -11    1    1    2    0    0 -0.62269376249E+02  0.13993413574E+03 -0.33050895295E+03  0.36427353121E+03  0.00000000000E+00 0.  1.
         11    1    1    2    0    0 -0.36369045112E+02  0.14342036511E+02 -0.25488010519E+02  0.46669477540E+02  0.00000000000E+00 0. -1.
</event>
<event>
 7    1  0.2420569E-009  0.7995776E+02  0.7561462E-02  0.1329171E+00
          1   -1    0    0  501    0  0.00000000000E+00  0.00000000000E+00  0.14589008498E+03  0.14589008498E+03  0.00000000000E+00 0. -1.
         -1   -1    0    0    0  501 -0.00000000000E+00 -0.00000000000E+00 -0.10979051101E+03  0.10979051101E+03  0.00000000000E+00 0.  1.
         25    2    1    2    0    0 -0.88694049287E+01  0.34828448035E+02 -0.35224704733E+02  0.13482808805E+03  0.12508455687E+03 0.  0.
          5    1    3    3  502    0 -0.31468743252E+02  0.66508838371E+01  0.39867958849E+02  0.51394966684E+02  0.41800000000E+01 0.  1.
         -5    1    3    3    0  502  0.22599338323E+02  0.28177564198E+02 -0.75092663581E+02  0.83433121364E+02  0.41800000000E+01 0.  1.
        -11    1    1    2    0    0 -0.28290673088E+02  0.12514030736E+02  0.50764834129E+01  0.31348585819E+02  0.00000000000E+00 0.  1.
         11    1    1    2    0    0  0.37160078016E+02 -0.47342478771E+02  0.66247795295E+02  0.89503922126E+02  0.00000000000E+00 0. -1.
</event>
<event>
 7    1  0.2420569E-009  0.1074143E+03  0.7561462E-02  0.1265434E+00
          1   -1    0    0  501    0  0.00000000000E+00  0.00000000000E+00  0.38544330868E+02  0.38544330868E+02  0.00000000000E+00 0. -1.
         -1   -1    0    0    0  501 -0.00000000000E+00 -0.00000000000E+00 -0.40547700169E+03  0.40547700169E+03  0.00000000000E+00 0.  1.
         25    2    1    2    0    0 -0.46740712942E+02 -0.12362763765E+02 -0.27346891632E+03  0.30458178046E+03  0.12508909072E+03 0.  0.
          5    1    3    3  502    0 -0.44036772017E+02  0.43654351664E+02 -0.21353144110E+03  0.22239174545E+03  0.41800000000E+01 0.  1.
         -5    1    3    3    0  502 -0.27039409252E+01 -0.56017115428E+02 -0.59937475223E+02  0.82190035002E+02  0.41800000000E+01 0.  1.
        -11    1    1    2    0    0 -0.93781120795E+01 -0.26546605072E+02 -0.65472579305E+01  0.28905670956E+02  0.00000000000E+00 0. -1.
         11    1    1    2    0    0  0.56118825022E+02  0.38909368836E+02 -0.86916496568E+02  0.11053388114E+03  0.00000000000E+00 0.  1.
</event>
<event>
 7    1  0.2420569E-009  0.2698130E+03  0.7561462E-02  0.1101387E+00
         -1   -1    0    0    0  501 -0.00000000000E+00  0.00000000000E+00  0.34030564091E+03  0.34030564091E+03  0.00000000000E+00 0.  1.
          1   -1    0    0  501    0  0.00000000000E+00 -0.00000000000E+00 -0.32083193095E+03  0.32083193095E+03  0.00000000000E+00 0. -1.
         25    2    1    2    0    0 -0.25425890328E+03 -0.46697393083E+02 -0.16269434478E+03  0.33006902118E+03  0.12509145655E+03 0.  0.
          5    1    3    3  502    0 -0.23231903256E+03 -0.74164638047E+02 -0.16518819750E+03  0.29457959777E+03  0.41800000000E+01 0. -1.
         -5    1    3    3    0  502 -0.21939870715E+02  0.27467244964E+02  0.24938527146E+01  0.35489423414E+02  0.41800000000E+01 0. -1.
        -11    1    1    2    0    0  0.62567953641E+02  0.25100108093E+02  0.10178754743E+03  0.12208795625E+03  0.00000000000E+00 0. -1.
         11    1    1    2    0    0  0.19169094964E+03  0.21597284990E+02  0.80380507323E+02  0.20898059443E+03  0.00000000000E+00 0.  1.
</event>
<event>
 7    1  0.2420569E-009  0.1021573E+03  0.7561462E-02  0.1275824E+00
          1   -1    0    0  501    0  0.00000000000E+00  0.00000000000E+00  0.13169018207E+03  0.13169018207E+03  0.00000000000E+00 0.  1.
         -1   -1    0    0    0  501 -0.00000000000E+00 -0.00000000000E+00 -0.11983226431E+03  0.11983226431E+03  0.00000000000E+00 0. -1.
         25    2    1    2    0    0  0.28646235792E+02  0.49148394469E+02  0.33196471725E+02  0.14136811796E+03  0.12508703984E+03 0.  0.
          5    1    3    3  502    0 -0.41412272770E+01  0.61301887496E+02  0.68078867077E+02  0.91800194534E+02  0.41800000000E+01 0. -1.
         -5    1    3    3    0  502  0.32787463069E+02 -0.12153493027E+02 -0.34882395352E+02  0.49567923426E+02  0.41800000000E+01 0. -1.
        -11    1    1    2    0    0  0.29600762638E+02 -0.38069412778E+02 -0.40457091252E+01  0.48392696767E+02  0.00000000000E+00 0. -1.
         11    1    1    2    0    0 -0.58246998431E+02 -0.11078981691E+02 -0.17292844845E+02  0.61761631652E+02  0.00000000000E+00 0.  1.
</event>
<event>
 7    1  0.2573620E-009  0.1006210E+03  0.7561462E-02  0.1278995E+00
          1   -1    0    0  501    0  0.00000000000E+00  0.00000000000E+00  0.12749148580E+04  0.12749148580E+04  0.00000000000E+00 0. -1.
         -1   -1    0    0    0  501 -0.00000000000E+00 -0.00000000000E+00 -0.17993100745E+02  0.17993100745E+02  0.00000000000E+00 0.  1.
         25    2    1    2    0    0  0.11844842734E+02 -0.57527885475E+02  0.10490084246E+04  0.10580721628E+04  0.12509304156E+03 0.  0.
          5    1    3    3  502    0 -0.45459369383E+02 -0.35566864591E+02  0.77897401965E+03  0.78112070246E+03  0.41800000000E+01 0.  1.
         -5    1    3    3    0  502  0.57304212117E+02 -0.21961020884E+02  0.27003440490E+03  0.27695146036E+03  0.41800000000E+01 0.  1.
        -11    1    1    2    0    0  0.22518279439E+02  0.31651225997E+02  0.17861372138E+03  0.18278877012E+03  0.00000000000E+00 0. -1.
         11    1    1    2    0    0 -0.34363122172E+02  0.25876659478E+02  0.29299611310E+02  0.52047025794E+02  0.00000000000E+00 0.  1.
</event>
<event>
 7    1  0.2420569E-009  0.9331494E+02  0.7561462E-02  0.1295017E+00
         -2   -1    0    0    0  501 -0.00000000000E+00  0.00000000000E+00  0.11471555808E+03  0.11471555808E+03  0.00000000000E+00 0.  1.
          2   -1    0    0  501    0  0.00000000000E+00 -0.00000000000E+00 -0.13954253602E+03  0.13954253602E+03  0.00000000000E+00 0. -1.
         25    2    1    2    0    0  0.20154243850E+02  0.52705942542E+02  0.19496277885E+02  0.13860521887E+03  0.12508873619E+03 0.  0.
          5    1    3    3  502    0  0.24337091112E+02 -0.41922642700E+01 -0.45550578696E+02  0.51982657715E+02  0.41800000000E+01 0.  1.
         -5    1    3    3    0  502 -0.41828472621E+01  0.56898206812E+02  0.65046856581E+02  0.86622561153E+02  0.41800000000E+01 0.  1.
        -11    1    1    2    0    0  0.32619532244E+02 -0.45493647563E+01 -0.25827413308E+02  0.41854341252E+02  0.00000000000E+00 0. -1.
         11    1    1    2    0    0 -0.52773776094E+02 -0.48156577786E+02 -0.18495842515E+02  0.73798533980E+02  0.00000000000E+00 0.  1.
</event>
<event>
 7    1  0.2420569E-009  0.7503917E+02  0.7561462E-02  0.1343750E+00
         -3   -1    0    0    0  501 -0.00000000000E+00  0.00000000000E+00  0.24765303775E+03  0.24765303775E+03  0.00000000000E+00 0.  1.
          3   -1    0    0  501    0  0.00000000000E+00 -0.00000000000E+00 -0.77537147692E+02  0.77537147692E+02  0.00000000000E+00 0. -1.
         25    2    1    2    0    0 -0.37047996080E+02  0.14529971713E+02  0.18267630376E+03  0.22494821259E+03  0.12508953714E+03 0.  0.
          5    1    3    3  502    0  0.74736912182E+01  0.39515538163E+01  0.17856402493E+03  0.17881290288E+03  0.41800000000E+01 0. -1.
         -5    1    3    3    0  502 -0.44521687298E+02  0.10578417897E+02  0.41122788288E+01  0.46135309712E+02  0.41800000000E+01 0. -1.
        -11    1    1    2    0    0  0.32574948367E+02  0.33343007035E+02  0.91209204009E+01  0.47498153313E+02  0.00000000000E+00 0.  1.
         11    1    1    2    0    0  0.44730477134E+01 -0.47872978748E+02 -0.21681334106E+02  0.52743819531E+02  0.00000000000E+00 0. -1.
</event>
<event>
 7    1  0.2420569E-009  0.9508356E+02  0.7561462E-02  0.1290988E+00
          1   -1    0    0  501    0  0.00000000000E+00  0.00000000000E+00  0.40741176228E+03  0.40741176228E+03  0.00000000000E+00 0. -1.
         -1   -1    0    0    0  501 -0.00000000000E+00 -0.00000000000E+00 -0.34912894984E+02  0.34912894984E+02  0.00000000000E+00 0.  1.
         25    2    1    2    0    0  0.44174369774E+02 -0.53038489449E+01  0.25201857912E+03  0.28485029057E+03  0.12508724178E+03 0.  0.
          5    1    3    3  502    0  0.26652790001E+02  0.39297434856E+02  0.27071605019E+02  0.54817914949E+02  0.41800000000E+01 0. -1.
         -5    1    3    3    0  502  0.17521579773E+02 -0.44601283801E+02  0.22494697410E+03  0.23003237562E+03  0.41800000000E+01 0. -1.
        -11    1    1    2    0    0  0.15810269753E+01 -0.34026228440E+02  0.17936215033E+02  0.38496645021E+02  0.00000000000E+00 0.  1.
         11    1    1    2    0    0 -0.45755396749E+02  0.39330077385E+02  0.10254407314E+03  0.11897772167E+03  0.00000000000E+00 0. -1.
</event>
<event>
 7    1  0.2420569E-009  0.8775269E+02  0.7561462E-02  0.1308387E+00
          2   -1    0    0  501    0  0.00000000000E+00  0.00000000000E+00  0.10952332011E+03  0.10952332011E+03  0.00000000000E+00 0. -1.
         -2   -1    0    0    0  501 -0.00000000000E+00 -0.00000000000E+00 -0.14064146132E+03  0.14064146132E+03  0.00000000000E+00 0.  1.
         25    2    1    2    0    0  0.46156332433E+02  0.20559852888E+02  0.31635512813E+02  0.13856177778E+03  0.12508175733E+03 0.  0.
          5    1    3    3  502    0 -0.14205653560E+02 -0.76619854381E+01  0.62732526061E+02  0.64910313818E+02  0.41800000000E+01 0.  1.
         -5    1    3    3    0  502  0.60361985993E+02  0.28221838326E+02 -0.31097013248E+02  0.73651463967E+02  0.41800000000E+01 0.  1.
        -11    1    1    2    0    0  0.17236371953E+02 -0.22864452740E+02 -0.16001367984E+02  0.32801211785E+02  0.00000000000E+00 0.  1.
         11    1    1    2    0    0 -0.63392704386E+02  0.23045998522E+01 -0.46752286044E+02  0.78801791859E+02  0.00000000000E+00 0. -1.
</event>
<event>
 7    1  0.2420569E-009  0.2065618E+03  0.7561462E-02  0.1144318E+00
         -2   -1    0    0    0  501 -0.00000000000E+00  0.00000000000E+00  0.19932031206E+02  0.19932031206E+02  0.00000000000E+00 0.  1.
          2   -1    0    0  501    0  0.00000000000E+00 -0.00000000000E+00 -0.27956276917E+04  0.27956276917E+04  0.00000000000E+00 0. -1.
         25    2    1    2    0    0 -0.16918123190E+03  0.51107424060E+02 -0.20981045021E+04  0.21092475560E+04  0.12509393472E+03 0.  0.
          5    1    3    3  502    0 -0.42316417964E+01  0.48426706926E+02 -0.35263276503E+03  0.35599212366E+03  0.41800000000E+01 0. -1.
         -5    1    3    3    0  502 -0.16494959010E+03  0.26807171339E+01 -0.17454717371E+04  0.17532554323E+04  0.41800000000E+01 0. -1.
        -11    1    1    2    0    0  0.58869120513E+02  0.26371526386E+02 -0.22734641029E+03  0.23632058951E+03  0.00000000000E+00 0.  1.
         11    1    1    2    0    0  0.11031211139E+03 -0.77478950446E+02 -0.45024474808E+03  0.46999157743E+03  0.00000000000E+00 0. -1.
</event>
<event>
 7    1  0.2420569E-009  0.7860440E+02  0.7561462E-02  0.1333059E+00
          4   -1    0    0  501    0  0.00000000000E+00  0.00000000000E+00  0.21801662738E+03  0.21801662738E+03  0.00000000000E+00 0. -1.
         -4   -1    0    0    0  501 -0.00000000000E+00 -0.00000000000E+00 -0.95967593101E+02  0.95967593101E+02  0.00000000000E+00 0.  1.
         25    2    1    2    0    0  0.94712087011E+01  0.28722513077E+02  0.16225601381E+03  0.20709499731E+03  0.12508651942E+03 0.  0.
          5    1    3    3  502    0 -0.26071671487E+02  0.95585216372E+01 -0.10237037547E+02  0.29889241003E+02  0.41800000000E+01 0. -1.
         -5    1    3    3    0  502  0.35542880188E+02  0.19163991440E+02  0.17249305136E+03  0.17720575631E+03  0.41800000000E+01 0. -1.
        -11    1    1    2    0    0  0.62439722994E+01  0.28507319965E+02  0.81885668051E+01  0.30310181589E+02  0.00000000000E+00 0. -1.
         11    1    1    2    0    0 -0.15715181000E+02 -0.57229833042E+02 -0.48395546341E+02  0.76579041582E+02  0.00000000000E+00 0.  1.
</event>
<event>
 7    1  0.2420569E-009  0.1459591E+03  0.7561462E-02  0.1205528E+00
          2   -1    0    0  501    0  0.00000000000E+00  0.00000000000E+00  0.22758675057E+04  0.22758675057E+04  0.00000000000E+00 0. -1.
         -2   -1    0    0    0  501 -0.00000000000E+00 -0.00000000000E+00 -0.19729200725E+02  0.19729200725E+02  0.00000000000E+00 0.  1.
         25    2    1    2    0    0  0.62926981412E+02  0.10997492944E+03  0.18805732889E+04  0.18889833035E+04  0.12509091146E+03 0.  0.
          5    1    3    3  502    0  0.37197143246E+02 -0.46062087620E+01  0.98653869356E+03  0.98725929265E+03  0.41800000000E+01 0.  1.
         -5    1    3    3    0  502  0.25729838167E+02  0.11458113820E+03  0.89403459530E+03  0.90172401088E+03  0.41800000000E+01 0.  1.
        -11    1    1    2    0    0  0.52680270913E+01 -0.34805032034E+02  0.29361426433E+02  0.45839237848E+02  0.00000000000E+00 0.  1.
         11    1    1    2    0    0 -0.68195008504E+02 -0.75169897404E+02  0.34620358969E+03  0.36077416506E+03  0.00000000000E+00 0. -1.
</event>
<event>
 7    1  0.2420569E-009  0.2095246E+03  0.7561462E-02  0.1141943E+00
         -2   -1    0    0    0  501 -0.00000000000E+00  0.00000000000E+00  0.16751367042E+03  0.16751367042E+03  0.00000000000E+00 0.  1.
          2   -1    0    0  501    0  0.00000000000E+00 -0.00000000000E+00 -0.27499669612E+03  0.27499669612E+03  0.00000000000E+00 0. -1.
         25    2    1    2    0    0  0.22589120703E+02  0.18360809912E+03 -0.59562335069E+02  0.23112324810E+03  0.12509229239E+03 0.  0.
          5    1    3    3  502    0 -0.11666491382E+02  0.18151920707E+03 -0.27569203064E+02  0.18401864827E+03  0.41800000000E+01 0.  1.
         -5    1    3    3    0  502  0.34255612085E+02  0.20888920591E+01 -0.31993132005E+02  0.47104599827E+02  0.41800000000E+01 0.  1.
        -11    1    1    2    0    0  0.79673679829E+01 -0.16806219006E+03 -0.53714698920E+02  0.17661723461E+03  0.00000000000E+00 0.  1.
         11    1    1    2    0    0 -0.30556488686E+02 -0.15545909060E+02  0.57940082946E+01  0.34769883829E+02  0.00000000000E+00 0. -1.
</event>
<event>
 7    1  0.2420569E-009  0.1921824E+03  0.7561462E-02  0.1156508E+00
         -2   -1    0    0    0  501 -0.00000000000E+00  0.00000000000E+00  0.31462291935E+03  0.31462291935E+03  0.00000000000E+00 0.  1.
          2   -1    0    0  501    0  0.00000000000E+00 -0.00000000000E+00 -0.12826658563E+03  0.12826658563E+03  0.00000000000E+00 0. -1.
         25    2    1    2    0    0  0.16330278383E+03  0.11627108979E+02  0.53465476493E+02  0.21284791310E+03  0.12507073226E+03 0.  0.
          5    1    3    3  502    0  0.14481664328E+03 -0.40570392875E+02  0.40938246726E+02  0.15592058682E+03  0.41800000000E+01 0.  1.
         -5    1    3    3    0  502  0.18486140543E+02  0.52197501854E+02  0.12527229767E+02  0.56927326282E+02  0.41800000000E+01 0.  1.
        -11    1    1    2    0    0 -0.14868541938E+03  0.13516769772E+02  0.13445100274E+03  0.20091572646E+03  0.00000000000E+00 0.  1.
         11    1    1    2    0    0 -0.14617364448E+02 -0.25143878751E+02 -0.15601455149E+01  0.29125865413E+02  0.00000000000E+00 0. -1.
</event>
<event>
 7    1  0.2420569E-009  0.1092458E+03  0.7561462E-02  0.1261973E+00
          3   -1    0    0  501    0  0.00000000000E+00  0.00000000000E+00  0.50413799640E+02  0.50413799640E+02  0.00000000000E+00 0. -1.
         -3   -1    0    0    0  501 -0.00000000000E+00 -0.00000000000E+00 -0.24886002986E+03  0.24886002986E+03  0.00000000000E+00 0.  1.
         25    2    1    2    0    0  0.84614967251E+01  0.22045742289E+01 -0.14520952089E+03  0.19186033196E+03  0.12509246559E+03 0.  0.
          5    1    3    3  502    0  0.43023993637E+02  0.50108666683E+02 -0.77169715543E+02  0.10165913585E+03  0.41800000000E+01 0. -1.
         -5    1    3    3    0  502 -0.34562496912E+02 -0.47904092455E+02 -0.68039805351E+02  0.90201196106E+02  0.41800000000E+01 0. -1.
        -11    1    1    2    0    0 -0.41154823454E+02 -0.29393892740E+02 -0.32384496331E+02  0.60053942640E+02  0.00000000000E+00 0.  1.
         11    1    1    2    0    0  0.32693326729E+02  0.27189318512E+02 -0.20852212996E+02  0.47359554903E+02  0.00000000000E+00 0. -1.
</event>
<event>
 7    1  0.2420569E-009  0.1377408E+03  0.7561462E-02  0.1216402E+00
         -3   -1    0    0    0  501 -0.00000000000E+00  0.00000000000E+00  0.12955324092E+03  0.12955324092E+03  0.00000000000E+00 0.  1.
          3   -1    0    0  501    0  0.00000000000E+00 -0.00000000000E+00 -0.25265015253E+03  0.25265015253E+03  0.00000000000E+00 0. -1.
         25    2    1    2    0    0  0.54650623699E+02 -0.11679700444E+03 -0.13344277562E+03  0.22379652435E+03  0.12509867717E+03 0.  0.
          5    1    3    3  502    0 -0.66740447692E+01 -0.66883141254E+02  0.14735196319E+01  0.67361273130E+02  0.41800000000E+01 0. -1.
         -5    1    3    3    0  502  0.61324668468E+02 -0.49913863189E+02 -0.13491629525E+03  0.15643525122E+03  0.41800000000E+01 0. -1.
        -11    1    1    2    0    0 -0.11022765372E+02  0.22475018552E+02 -0.36624512283E+02  0.44361951212E+02  0.00000000000E+00 0. -1.
         11    1    1    2    0    0 -0.43627858327E+02  0.94321985892E+02  0.46970376299E+02  0.11404491788E+03  0.00000000000E+00 0.  1.
</event>
<event>
 7    1  0.2420569E-009  0.1030477E+03  0.7561462E-02  0.1274015E+00
         -1   -1    0    0    0  501 -0.00000000000E+00  0.00000000000E+00  0.22563975664E+02  0.22563975664E+02  0.00000000000E+00 0.  1.
          1   -1    0    0  501    0  0.00000000000E+00 -0.00000000000E+00 -0.63148377088E+03  0.63148377088E+03  0.00000000000E+00 0. -1.
         25    2    1    2    0    0 -0.18593363521E+02 -0.87933698395E+01 -0.21627612289E+03  0.25068943804E+03  0.12508715558E+03 0.  0.
          5    1    3    3  502    0  0.21298597418E+01  0.51721148358E+02 -0.14887915917E+03  0.15767716996E+03  0.41800000000E+01 0. -1.
         -5    1    3    3    0  502 -0.20723223263E+02 -0.60514518198E+02 -0.67396963717E+02  0.93012268080E+02  0.41800000000E+01 0. -1.
        -11    1    1    2    0    0 -0.13968903864E+01 -0.38599446742E+02 -0.21397331198E+03  0.21743147617E+03  0.00000000000E+00 0. -1.
         11    1    1    2    0    0  0.19990253907E+02  0.47392816581E+02 -0.17867036035E+03  0.18592683234E+03  0.00000000000E+00 0.  1.
</event>
<event>
 7    1  0.2420569E-009  0.1030250E+03  0.7561462E-02  0.1274060E+00
          2   -1    0    0  501    0  0.00000000000E+00  0.00000000000E+00  0.65270324126E+03  0.65270324126E+03  0.00000000000E+00 0. -1.
         -2   -1    0    0    0  501 -0.00000000000E+00 -0.00000000000E+00 -0.27590799832E+02  0.27590799832E+02  0.00000000000E+00 0.  1.
         25    2    1    2    0    0 -0.15801431399E+02  0.58566758078E+02  0.47450215394E+03  0.49444500606E+03  0.12507525546E+03 0.  0.
          5    1    3    3  502    0  0.12612068423E+02 -0.14192032570E+02  0.32619432405E+03  0.32677314379E+03  0.41800000000E+01 0.  1.
         -5    1    3    3    0  502 -0.28413499821E+02  0.72758790648E+02  0.14830782990E+03  0.16767186227E+03  0.41800000000E+01 0.  1.
        -11    1    1    2    0    0  0.52719802482E+02 -0.44110324153E+02  0.86761477076E+02  0.11069169876E+03  0.00000000000E+00 0. -1.
         11    1    1    2    0    0 -0.36918371083E+02 -0.14456433925E+02  0.63848810402E+02  0.75157336269E+02  0.00000000000E+00 0.  1.
</event>
<event>
 7    1  0.2420569E-009  0.8904585E+02  0.7561462E-02  0.1305179E+00
         -1   -1    0    0    0  501 -0.00000000000E+00  0.00000000000E+00  0.43378388030E+02  0.43378388030E+02  0.00000000000E+00 0.  1.
          1   -1    0    0  501    0  0.00000000000E+00 -0.00000000000E+00 -0.39993974808E+03  0.39993974808E+03  0.00000000000E+00 0. -1.
         25    2    1    2    0    0 -0.71767361460E+01  0.28492411752E+01 -0.32103956713E+03  0.34463271152E+03  0.12508268654E+03 0.  0.
          5    1    3    3  502    0  0.51538129948E+00  0.59204487771E+02 -0.22717294126E+03  0.23479875347E+03  0.41800000000E+01 0. -1.
         -5    1    3    3    0  502 -0.76921174455E+01 -0.56355246595E+02 -0.93866625865E+02  0.10983395805E+03  0.41800000000E+01 0. -1.
        -11    1    1    2    0    0 -0.26830529373E+02  0.36686107929E+01  0.19712397175E+02  0.33494993865E+02  0.00000000000E+00 0.  1.
         11    1    1    2    0    0  0.34007265519E+02 -0.65178519681E+01 -0.55234190100E+02  0.65190430727E+02  0.00000000000E+00 0. -1.
</event>
<event>
 7    1  0.4238679E-009  0.1345733E+03  0.7561462E-02  0.1220823E+00
          2   -1    0    0  501    0  0.00000000000E+00  0.00000000000E+00  0.91561325356E+03  0.91561325356E+03  0.00000000000E+00 0. -1.
         -2   -1    0    0    0  501 -0.00000000000E+00 -0.00000000000E+00 -0.31023950388E+02  0.31023950388E+02  0.00000000000E+00 0.  1.
         25    2    1    2    0    0 -0.11688260179E+03  0.63896034482E+01  0.32084084263E+03  0.36371540689E+03  0.12509069222E+03 0.  0.
          5    1    3    3  502    0 -0.47400096837E+02  0.17207167201E+02  0.19462139264E+02  0.54213495072E+02  0.41800000000E+01 0.  1.
         -5    1    3    3    0  502 -0.69482504956E+02 -0.10817563753E+02  0.30137870336E+03  0.30950191182E+03  0.41800000000E+01 0.  1.
        -11    1    1    2    0    0  0.73770214642E+02 -0.48140409199E+02  0.32141027203E+03  0.33326281901E+03  0.00000000000E+00 0.  1.
         11    1    1    2    0    0  0.43112387150E+02  0.41750805751E+02  0.24233818851E+03  0.24965897804E+03  0.00000000000E+00 0. -1.
</event>
<event>
 7    1  0.2420569E-009  0.1132519E+03  0.7561462E-02  0.1254664E+00
          2   -1    0    0  501    0  0.00000000000E+00  0.00000000000E+00  0.43571497468E+02  0.43571497468E+02  0.00000000000E+00 0. -1.
         -2   -1    0    0    0  501 -0.00000000000E+00 -0.00000000000E+00 -0.39743460965E+03  0.39743460965E+03  0.00000000000E+00 0.  1.
         25    2    1    2    0    0 -0.37551815938E+02  0.50469099060E+02 -0.23822196381E+03  0.27632047963E+03  0.12508411002E+03 0.  0.
          5    1    3    3  502    0 -0.83813960814E+02  0.36409092096E+02 -0.15661777036E+03  0.18137530264E+03  0.41800000000E+01 0.  1.
         -5    1    3    3    0  502  0.46262144876E+02  0.14060006964E+02 -0.81604193454E+02  0.94945176990E+02  0.41800000000E+01 0.  1.
        -11    1    1    2    0    0  0.91695711132E+01 -0.56700937289E+02 -0.12208484239E+03  0.13492140700E+03  0.00000000000E+00 0.  1.
         11    1    1    2    0    0  0.28382244825E+02  0.62318382292E+01  0.64436940226E+01  0.29764220495E+02  0.00000000000E+00 0. -1.
</event>
<event>
 7    1  0.3840117E-009  0.6777365E+02  0.7561462E-02  0.1367832E+00
         -1   -1    0    0    0  501 -0.00000000000E+00  0.00000000000E+00  0.15987327303E+02  0.15987327303E+02  0.00000000000E+00 0.  1.
          1   -1    0    0  501    0  0.00000000000E+00 -0.00000000000E+00 -0.82074141335E+03  0.82074141335E+03  0.00000000000E+00 0. -1.
         25    2    1    2    0    0 -0.19917181478E+02 -0.17540456650E+01 -0.56773730593E+03  0.58170141926E+03  0.12510444368E+03 0.  0.
          5    1    3    3  502    0 -0.42055132862E+02  0.11635014881E+01 -0.55301947149E+03  0.55463320869E+03  0.41800000000E+01 0. -1.
         -5    1    3    3    0  502  0.22137951383E+02 -0.29175471532E+01 -0.14717834445E+02  0.27068210572E+02  0.41800000000E+01 0. -1.
        -11    1    1    2    0    0 -0.22057464689E+02  0.14839516521E+02 -0.19138373214E+02  0.32756989000E+02  0.00000000000E+00 0.  1.
         11    1    1    2    0    0  0.41974646167E+02 -0.13085470856E+02 -0.21787840690E+03  0.22227033239E+03  0.00000000000E+00 0. -1.
</event>
<event>
 7    1  0.2420569E-009  0.1050004E+03  0.7561462E-02  0.1270119E+00
          4   -1    0    0  501    0  0.00000000000E+00  0.00000000000E+00  0.26119305833E+02  0.26119305833E+02  0.00000000000E+00 0. -1.
         -4   -1    0    0    0  501 -0.00000000000E+00 -0.00000000000E+00 -0.57707084626E+03  0.57707084626E+03  0.00000000000E+00 0.  1.
         25    2    1    2    0    0  0.96750866367E+01 -0.52745662384E+02 -0.35510795133E+03  0.38029859170E+03  0.12509855933E+03 0.  0.
          5    1    3    3  502    0  0.90732912250E+01 -0.89249769234E+02 -0.17746720790E+03  0.19889677775E+03  0.41800000000E+01 0.  1.
         -5    1    3    3    0  502  0.60179541169E+00  0.36504106850E+02 -0.17764074344E+03  0.18140181395E+03  0.41800000000E+01 0.  1.
        -11    1    1    2    0    0  0.22507814901E+02  0.45044272280E+02 -0.42124821731E+02  0.65651266574E+02  0.00000000000E+00 0.  1.
         11    1    1    2    0    0 -0.32182901538E+02  0.77013901046E+01 -0.15371876737E+03  0.15724029382E+03  0.00000000000E+00 0. -1.
</event>
<event>
 7    1  0.2420569E-009  0.9319530E+02  0.7561462E-02  0.1295293E+00
         -2   -1    0    0    0  501 -0.00000000000E+00  0.00000000000E+00  0.64658150814E+02  0.64658150814E+02  0.00000000000E+00 0.  1.
          2   -1    0    0  501    0  0.00000000000E+00 -0.00000000000E+00 -0.26739002882E+03  0.26739002882E+03  0.00000000000E+00 0. -1.
         25    2    1    2    0    0 -0.51331117113E+02  0.15105006027E+01 -0.17938244480E+03  0.22463866584E+03  0.12508918215E+03 0.  0.
          5    1    3    3  502    0  0.66706348011E+01  0.48412805250E+02 -0.29679744143E+02  0.57329370250E+02  0.41800000000E+01 0. -1.
         -5    1    3    3    0  502 -0.58001751914E+02 -0.46902304648E+02 -0.14970270066E+03  0.16730929559E+03  0.41800000000E+01 0. -1.
        -11    1    1    2    0    0  0.46717521864E+02 -0.14445059573E+02 -0.54586990520E+02  0.73286602658E+02  0.00000000000E+00 0. -1.
         11    1    1    2    0    0  0.46135952488E+01  0.12934558970E+02  0.31237557319E+02  0.34122911132E+02  0.00000000000E+00 0.  1.
</event>
<event>
 7    1  0.2420569E-009  0.3043467E+03  0.7561462E-02  0.1083088E+00
         -2   -1    0    0    0  501 -0.00000000000E+00  0.00000000000E+00  0.15443167381E+03  0.15443167381E+03  0.00000000000E+00 0.  1.
          2   -1    0    0  501    0  0.00000000000E+00 -0.00000000000E+00 -0.10310207731E+04  0.10310207731E+04  0.00000000000E+00 0. -1.
         25    2    1    2    0    0 -0.28313841966E+03  0.96107676202E+02 -0.80088913897E+03  0.86398777240E+03  0.12508959919E+03 0.  0.
          5    1    3    3  502    0 -0.22474497204E+02  0.26181820424E+02 -0.25914015798E+02  0.43354346496E+02  0.41800000000E+01 0. -1.
         -5    1    3    3    0  502 -0.26066392245E+03  0.69925855778E+02 -0.77497512317E+03  0.82063342590E+03  0.41800000000E+01 0. -1.
        -11    1    1    2    0    0  0.11752196382E+03 -0.68774986001E+02 -0.70945833438E+02  0.15354061991E+03  0.00000000000E+00 0.  1.
         11    1    1    2    0    0  0.16561645584E+03 -0.27332690201E+02 -0.47541268945E+01  0.16792405462E+03  0.00000000000E+00 0. -1.
</event>
<event>
 7    1  0.2420569E-009  0.1170475E+03  0.7561462E-02  0.1248049E+00
          3   -1    0    0  501    0  0.00000000000E+00  0.00000000000E+00  0.76939254356E+03  0.76939254356E+03  0.00000000000E+00 0. -1.
         -3   -1    0    0    0  501 -0.00000000000E+00 -0.00000000000E+00 -0.19279601139E+02  0.19279601139E+02  0.00000000000E+00 0.  1.
         25    2    1    2    0    0  0.35800688464E+02  0.42199744875E+02  0.45322528666E+03  0.47341648312E+03  0.12508996066E+03 0.  0.
          5    1    3    3  502    0  0.68190030997E+02  0.66826418190E+02  0.30225926418E+03  0.31700754830E+03  0.41800000000E+01 0. -1.
         -5    1    3    3    0  502 -0.32389342533E+02 -0.24626673315E+02  0.15096602247E+03  0.15640893481E+03  0.41800000000E+01 0. -1.
        -11    1    1    2    0    0  0.25985116089E+02 -0.15984964852E+02  0.43514458795E+02  0.53143705966E+02  0.00000000000E+00 0.  1.
         11    1    1    2    0    0 -0.61785804553E+02 -0.26214780023E+02  0.25337319697E+03  0.26211195562E+03  0.00000000000E+00 0. -1.
</event>
<event>
 7    1  0.2420569E-009  0.9588656E+02  0.7561462E-02  0.1289192E+00
          2   -1    0    0  501    0  0.00000000000E+00  0.00000000000E+00  0.77264180501E+03  0.77264180501E+03  0.00000000000E+00 0. -1.
         -2   -1    0    0    0  501 -0.00000000000E+00 -0.00000000000E+00 -0.25771074152E+02  0.25771074152E+02  0.00000000000E+00 0.  1.
         25    2    1    2    0    0  0.28850270471E+02 -0.65777827730E+02  0.60028918963E+03  0.61737560631E+03  0.12508583993E+03 0.  0.
          5    1    3    3  502    0  0.14072510236E+02  0.23998058607E+02  0.34824851309E+03  0.34938294410E+03  0.41800000000E+01 0. -1.
         -5    1    3    3    0  502  0.14777760236E+02 -0.89775886337E+02  0.25204067654E+03  0.26799266220E+03  0.41800000000E+01 0. -1.
        -11    1    1    2    0    0 -0.99021086461E+01  0.12089586132E+02 -0.70882832626E+01  0.17159650582E+02  0.00000000000E+00 0.  1.
         11    1    1    2    0    0 -0.18948161825E+02  0.53688241598E+02  0.15366982449E+03  0.16387762227E+03  0.00000000000E+00 0. -1.
</event>
<event>
 7    1  0.2420569E-009  0.1905666E+03  0.7561462E-02  0.1157951E+00
          2   -1    0    0  501    0  0.00000000000E+00  0.00000000000E+00  0.18812360220E+04  0.18812360220E+04  0.00000000000E+00 0. -1.
         -2   -1    0    0    0  501 -0.00000000000E+00 -0.00000000000E+00 -0.24806933926E+02  0.24806933926E+02  0.00000000000E+00 0.  1.
         25    2    1    2    0    0 -0.13104043863E+03  0.11527874151E+03  0.12669824146E+04  0.12850494278E+04  0.12508720220E+03 0.  0.
          5    1    3    3  502    0  0.19373611898E+01  0.36540943399E+02  0.56715610195E+03  0.56835069305E+03  0.41800000000E+01 0.  1.
         -5    1    3    3    0  502 -0.13297779982E+03  0.78737798115E+02  0.69982631266E+03  0.71669873474E+03  0.41800000000E+01 0.  1.
        -11    1    1    2    0    0  0.85109389630E+02 -0.11587287847E+03  0.37350034739E+03  0.40021574391E+03  0.00000000000E+00 0.  1.
         11    1    1    2    0    0  0.45931049002E+02  0.59413695586E+00  0.21594632603E+03  0.22077778418E+03  0.00000000000E+00 0. -1.
</event>
<event>
 7    1  0.2420569E-009  0.8876546E+02  0.7561462E-02  0.1305869E+00
         -1   -1    0    0    0  501 -0.00000000000E+00  0.00000000000E+00  0.98884511666E+02  0.98884511666E+02  0.00000000000E+00 0.  1.
          1   -1    0    0  501    0  0.00000000000E+00 -0.00000000000E+00 -0.14490232009E+03  0.14490232009E+03  0.00000000000E+00 0. -1.
         25    2    1    2    0    0  0.33326593449E+02  0.29962313207E+02 -0.43884298855E+02  0.13993407625E+03  0.12508921603E+03 0.  0.
          5    1    3    3  502    0  0.10140221807E+02 -0.46738376604E+02 -0.34565845169E+02  0.59157163541E+02  0.41800000000E+01 0.  1.
         -5    1    3    3    0  502  0.23186371642E+02  0.76700689811E+02 -0.93184536855E+01  0.80776912708E+02  0.41800000000E+01 0.  1.
        -11    1    1    2    0    0 -0.13529560951E+02 -0.25686392533E+02 -0.46649694244E+02  0.54945734629E+02  0.00000000000E+00 0. -1.
         11    1    1    2    0    0 -0.19797032498E+02 -0.42759206737E+01  0.44516184674E+02  0.48907020879E+02  0.00000000000E+00 0.  1.
</event>
<event>
 7    1  0.2420569E-009  0.1856007E+03  0.7561462E-02  0.1162490E+00
         -1   -1    0    0    0  501 -0.00000000000E+00  0.00000000000E+00  0.28824204358E+03  0.28824204358E+03  0.00000000000E+00 0.  1.
          1   -1    0    0  501    0  0.00000000000E+00 -0.00000000000E+00 -0.13737098882E+03  0.13737098882E+03  0.00000000000E+00 0. -1.
         25    2    1    2    0    0 -0.13707941213E+03  0.89658662537E+02  0.11260253040E+03  0.23485325464E+03  0.12508908970E+03 0.  0.
          5    1    3    3  502    0 -0.22141372077E+02 -0.25396446436E+02 -0.47200528125E+01  0.34277852143E+02  0.41800000000E+01 0.  1.
         -5    1    3    3    0  502 -0.11493804005E+03  0.11505510897E+03  0.11732258322E+03  0.20057540249E+03  0.41800000000E+01 0.  1.
        -11    1    1    2    0    0  0.92506226232E+02 -0.91286296993E+02 -0.29933561423E+01  0.12999826957E+03  0.00000000000E+00 0.  1.
         11    1    1    2    0    0  0.44573185899E+02  0.16276344566E+01  0.41261880496E+02  0.60761508187E+02  0.00000000000E+00 0. -1.
</event>
<event>
 7    1  0.2420569E-009  0.1472729E+03  0.7561462E-02  0.1203865E+00
         -1   -1    0    0    0  501 -0.00000000000E+00  0.00000000000E+00  0.35442022075E+02  0.35442022075E+02  0.00000000000E+00 0.  1.
          1   -1    0    0  501    0  0.00000000000E+00 -0.00000000000E+00 -0.10984702488E+04  0.10984702488E+04  0.00000000000E+00 0. -1.
         25    2    1    2    0    0  0.83290895537E+02  0.81273499705E+02 -0.89036199620E+03  0.90660550416E+03  0.12508517440E+03 0.  0.
          5    1    3    3  502    0  0.42719599392E+02 -0.15123319703E+02 -0.51242585280E+03  0.51444281120E+03  0.41800000000E+01 0.  1.
         -5    1    3    3    0  502  0.40571296145E+02  0.96396819408E+02 -0.37793614340E+03  0.39216269296E+03  0.41800000000E+01 0.  1.
        -11    1    1    2    0    0  0.12766851676E+02 -0.35955037330E+02 -0.69245563104E+02  0.79061401585E+02  0.00000000000E+00 0. -1.
         11    1    1    2    0    0 -0.96057747213E+02 -0.45318462375E+02 -0.10342066740E+03  0.14824536511E+03  0.00000000000E+00 0.  1.
</event>
<event>
 7    1  0.2420569E-009  0.1959542E+03  0.7561462E-02  0.1153198E+00
         -2   -1    0    0    0  501 -0.00000000000E+00  0.00000000000E+00  0.10697535905E+03  0.10697535905E+03  0.00000000000E+00 0.  1.
          2   -1    0    0  501    0  0.00000000000E+00 -0.00000000000E+00 -0.42213168053E+03  0.42213168053E+03  0.00000000000E+00 0. -1.
         25    2    1    2    0    0 -0.14718299984E+03  0.81872666591E+02 -0.25541975703E+03  0.33053369827E+03  0.12508918591E+03 0.  0.
          5    1    3    3  502    0 -0.67396129759E+02 -0.26866473115E+02 -0.67491384072E+02  0.99179660254E+02  0.41800000000E+01 0. -1.
         -5    1    3    3    0  502 -0.79786870078E+02  0.10873913971E+03 -0.18792837296E+03  0.23135403801E+03  0.41800000000E+01 0. -1.
        -11    1    1    2    0    0  0.77090962038E+02 -0.75653516623E+00 -0.27028871957E+01  0.77142040241E+02  0.00000000000E+00 0. -1.
         11    1    1    2    0    0  0.70092037799E+02 -0.81116131425E+02 -0.57033677246E+02  0.12143130107E+03  0.00000000000E+00 0.  1.
</event>
<event>
 7    1  0.2420569E-009  0.9691802E+02  0.7561462E-02  0.1286914E+00
          1   -1    0    0  501    0  0.00000000000E+00  0.00000000000E+00  0.48520956865E+03  0.48520956865E+03  0.00000000000E+00 0. -1.
         -1   -1    0    0    0  501 -0.00000000000E+00 -0.00000000000E+00 -0.31615007569E+02  0.31615007569E+02  0.00000000000E+00 0.  1.
         25    2    1    2    0    0  0.47072369780E+02 -0.36932872109E+02  0.26285094339E+03  0.29718375694E+03  0.12509085462E+03 0.  0.
          5    1    3    3  502    0  0.42425629730E+00  0.19356108509E+02 -0.42241040774E+01  0.20252268645E+02  0.41800000000E+01 0. -1.
         -5    1    3    3    0  502  0.46648113483E+02 -0.56288980618E+02  0.26707504746E+03  0.27693148829E+03  0.41800000000E+01 0. -1.
        -11    1    1    2    0    0  0.13865449783E+02 -0.15224907517E+02  0.12269650000E+02  0.23970665775E+02  0.00000000000E+00 0.  1.
         11    1    1    2    0    0 -0.60937819563E+02  0.52157779626E+02  0.17847396769E+03  0.19567015351E+03  0.00000000000E+00 0. -1.
</event>
<event>
 7    1  0.2420569E-009  0.1478418E+03  0.7561462E-02  0.1203150E+00
         -2   -1    0    0    0  501 -0.00000000000E+00  0.00000000000E+00  0.45994737894E+02  0.45994737894E+02  0.00000000000E+00 0.  1.
          2   -1    0    0  501    0  0.00000000000E+00 -0.00000000000E+00 -0.65286554716E+03  0.65286554716E+03  0.00000000000E+00 0. -1.
         25    2    1    2    0    0  0.24309219951E+01 -0.12239351447E+03 -0.43912783586E+03  0.47272404984E+03  0.12509472136E+03 0.  0.
          5    1    3    3  502    0  0.37863164952E+02  0.48044206888E+00 -0.48486322194E+02  0.61662354194E+02  0.41800000000E+01 0. -1.
         -5    1    3    3    0  502 -0.35432242957E+02 -0.12287395654E+03 -0.39064151366E+03  0.41106169565E+03  0.41800000000E+01 0. -1.
        -11    1    1    2    0    0  0.19504008238E+02  0.73616142011E+02 -0.36574516479E+02  0.84483359057E+02  0.00000000000E+00 0.  1.
         11    1    1    2    0    0 -0.21934930234E+02  0.48777372458E+02 -0.13116845693E+03  0.14165287615E+03  0.00000000000E+00 0. -1.
</event>
<event>
 7    1  0.2420569E-009  0.1831873E+03  0.7561462E-02  0.1164754E+00
          1   -1    0    0  501    0  0.00000000000E+00  0.00000000000E+00  0.11790035418E+04  0.11790035418E+04  0.00000000000E+00 0. -1.
         -1   -1    0    0    0  501 -0.00000000000E+00 -0.00000000000E+00 -0.33459922379E+02  0.33459922379E+02  0.00000000000E+00 0.  1.
         25    2    1    2    0    0  0.75295915017E+02 -0.13763388154E+03  0.43219146433E+03  0.47649661040E+03  0.12508795992E+03 0.  0.
          5    1    3    3  502    0 -0.19513863301E+02 -0.39307576993E-01  0.97948793342E+01  0.22230710002E+02  0.41800000000E+01 0. -1.
         -5    1    3    3    0  502  0.94809778318E+02 -0.13759457397E+03  0.42239658499E+03  0.45426590040E+03  0.41800000000E+01 0. -1.
        -11    1    1    2    0    0 -0.67268966530E+02  0.34088089249E+02  0.25046807072E+03  0.26157478116E+03  0.00000000000E+00 0.  1.
         11    1    1    2    0    0 -0.80269484874E+01  0.10354579229E+03  0.46288408440E+03  0.47439207266E+03  0.00000000000E+00 0. -1.
</event>
<event>
 7    1  0.2420569E-009  0.1084210E+03  0.7561462E-02  0.1263522E+00
          2   -1    0    0  501    0  0.00000000000E+00  0.00000000000E+00  0.17258423143E+03  0.17258423143E+03  0.00000000000E+00 0.  1.
         -2   -1    0    0    0  501 -0.00000000000E+00 -0.00000000000E+00 -0.10084128301E+03  0.10084128301E+03  0.00000000000E+00 0. -1.
         25    2    1    2    0    0 -0.25831032222E+02 -0.12864000492E+02 -0.32534089954E+02  0.13243747629E+03  0.12509393823E+03 0.  0.
          5    1    3    3  502    0 -0.71586507559E+02  0.66897144122E+01  0.14532551130E+01  0.72034468790E+02  0.41800000000E+01 0.  1.
         -5    1    3    3    0  502  0.45755475337E+02 -0.19553714904E+02 -0.33987345067E+02  0.60403007496E+02  0.41800000000E+01 0.  1.
        -11    1    1    2    0    0 -0.67879893648E+01 -0.35725968661E+02  0.39734767740E+02  0.53863470030E+02  0.00000000000E+00 0.  1.
         11    1    1    2    0    0  0.32619021587E+02  0.48589969152E+02  0.64542270634E+02  0.87124568120E+02  0.00000000000E+00 0. -1.
</event>
<event>
 7    1  0.2420569E-009  0.1103680E+03  0.7561462E-02  0.1259890E+00
          2   -1    0    0  501    0  0.00000000000E+00  0.00000000000E+00  0.93272874217E+03  0.93272874217E+03  0.00000000000E+00 0. -1.
         -2   -1    0    0    0  501 -0.00000000000E+00 -0.00000000000E+00 -0.18506555010E+02  0.18506555010E+02  0.00000000000E+00 0.  1.
         25    2    1    2    0    0  0.22133550300E+02  0.16692272097E+02  0.76025520428E+03  0.77097612043E+03  0.12509067371E+03 0.  0.
          5    1    3    3  502    0  0.55983035546E+02  0.53588396857E+02  0.48560681023E+03  0.49176952232E+03  0.41800000000E+01 0.  1.
         -5    1    3    3    0  502 -0.33849485247E+02 -0.36896124760E+02  0.27464839405E+03  0.27920659811E+03  0.41800000000E+01 0.  1.
        -11    1    1    2    0    0 -0.55421398618E+02  0.48248002420E+00  0.10356412536E+03  0.11746187583E+03  0.00000000000E+00 0. -1.
         11    1    1    2    0    0  0.33287848319E+02 -0.17174752121E+02  0.50402857523E+02  0.62797300918E+02  0.00000000000E+00 0.  1.
</event>
<event>
 7    1  0.2420569E-009  0.1050234E+03  0.7561462E-02  0.1270074E+00
         -1   -1    0    0    0  501 -0.00000000000E+00  0.00000000000E+00  0.28977626133E+02  0.28977626133E+02  0.00000000000E+00 0.  1.
          1   -1    0    0  501    0  0.00000000000E+00 -0.00000000000E+00 -0.44717861439E+03  0.44717861439E+03  0.00000000000E+00 0. -1.
         25    2    1    2    0    0 -0.30999990710E+02  0.17965406880E+02 -0.26900488298E+03  0.29882282243E+03  0.12509075454E+03 0.  0.
          5    1    3    3  502    0  0.37165867424E+02 -0.15206470365E+02 -0.37191608169E+02  0.54892864386E+02  0.41800000000E+01 0. -1.
         -5    1    3    3    0  502 -0.68165858134E+02  0.33171877244E+02 -0.23181327481E+03  0.24392995805E+03  0.41800000000E+01 0. -1.
        -11    1    1    2    0    0 -0.56754607838E+01  0.31591606877E+02 -0.69671890160E+02  0.76709926076E+02  0.00000000000E+00 0. -1.
         11    1    1    2    0    0  0.36675451494E+02 -0.49557013757E+02 -0.79524215123E+02  0.10062349202E+03  0.00000000000E+00 0.  1.
</event>
<event>
 7    1  0.2420569E-009  0.3574361E+03  0.7561462E-02  0.1059604E+00
          2   -1    0    0  501    0  0.00000000000E+00  0.00000000000E+00  0.10211563698E+04  0.10211563698E+04  0.00000000000E+00 0. -1.
         -2   -1    0    0    0  501 -0.00000000000E+00 -0.00000000000E+00 -0.14379468259E+03  0.14379468259E+03  0.00000000000E+00 0.  1.
         25    2    1    2    0    0 -0.23260711129E+03  0.25242678894E+03  0.64707761843E+03  0.74309178620E+03  0.12510238383E+03 0.  0.
          5    1    3    3  502    0  0.13613327821E+02  0.60040597395E+01  0.16022830273E+02  0.22261512026E+02  0.41800000000E+01 0. -1.
         -5    1    3    3    0  502 -0.24622043912E+03  0.24642272920E+03  0.63105478816E+03  0.72083027417E+03  0.41800000000E+01 0. -1.
        -11    1    1    2    0    0  0.43937146745E+02 -0.97392186083E+02  0.93406722373E+02  0.14191732297E+03  0.00000000000E+00 0.  1.
         11    1    1    2    0    0  0.18866996455E+03 -0.15503460286E+03  0.13687734638E+03  0.27994194320E+03  0.00000000000E+00 0. -1.
</event>
<event>
 7    1  0.2420569E-009  0.1175260E+03  0.7561462E-02  0.1247235E+00
          2   -1    0    0  501    0  0.00000000000E+00  0.00000000000E+00  0.14007028194E+04  0.14007028194E+04  0.00000000000E+00 0. -1.
         -2   -1    0    0    0  501 -0.00000000000E+00 -0.00000000000E+00 -0.11532349606E+02  0.11532349606E+02  0.00000000000E+00 0.  1.
         25    2    1    2    0    0 -0.55374154918E+02 -0.77395517833E+01  0.95044951096E+03  0.96027505145E+03  0.12509078251E+03 0.  0.
          5    1    3    3  502    0 -0.25254297143E+02 -0.61875827198E+02  0.65233999030E+03  0.65576774308E+03  0.41800000000E+01 0.  1.
         -5    1    3    3    0  502 -0.30119857774E+02  0.54136275414E+02  0.29810952066E+03  0.30450730838E+03  0.41800000000E+01 0.  1.
        -11    1    1    2    0    0  0.80501568316E+02  0.77206815333E+01  0.28715937051E+03  0.29832970937E+03  0.00000000000E+00 0. -1.
         11    1    1    2    0    0 -0.25127413398E+02  0.18870250067E-01  0.15156158833E+03  0.15363040818E+03  0.00000000000E+00 0.  1.
</event>
<event>
 7    1  0.2420569E-009  0.1288929E+03  0.7561462E-02  0.1229108E+00
         -2   -1    0    0    0  501 -0.00000000000E+00  0.00000000000E+00  0.61864401241E+02  0.61864401241E+02  0.00000000000E+00 0.  1.
          2   -1    0    0  501    0  0.00000000000E+00 -0.00000000000E+00 -0.33184093841E+03  0.33184093841E+03  0.00000000000E+00 0. -1.
         25    2    1    2    0    0 -0.36818053854E+02  0.73072408604E+02 -0.88762153221E+02  0.17384263539E+03  0.12508955210E+03 0.  0.
          5    1    3    3  502    0  0.43561550878E+02  0.15844068910E+02 -0.10198983288E+02  0.47645932614E+02  0.41800000000E+01 0. -1.
         -5    1    3    3    0  502 -0.80379604733E+02  0.57228339694E+02 -0.78563169933E+02  0.12619670277E+03  0.41800000000E+01 0. -1.
        -11    1    1    2    0    0 -0.19380996061E+02 -0.46384661415E+02 -0.12965917903E+03  0.13906351976E+03  0.00000000000E+00 0.  1.
         11    1    1    2    0    0  0.56199049915E+02 -0.26687747189E+02 -0.51555204923E+02  0.80799184501E+02  0.00000000000E+00 0. -1.
</event>
<event>
 7    1  0.2420569E-009  0.1521576E+03  0.7561462E-02  0.1197847E+00
         -1   -1    0    0    0  501 -0.00000000000E+00  0.00000000000E+00  0.86388387619E+02  0.86388387619E+02  0.00000000000E+00 0.  1.
          1   -1    0    0  501    0  0.00000000000E+00 -0.00000000000E+00 -0.27655620718E+03  0.27655620718E+03  0.00000000000E+00 0. -1.
         25    2    1    2    0    0 -0.10419975026E+03 -0.16946969781E+02 -0.11901076247E+03  0.20238018201E+03  0.12509751695E+03 0.  0.
          5    1    3    3  502    0 -0.11328007078E+03  0.28711320187E+02 -0.83876802571E+02  0.14390797321E+03  0.41800000000E+01 0. -1.
         -5    1    3    3    0  502  0.90803205259E+01 -0.45658289968E+02 -0.35133959903E+02  0.58472208802E+02  0.41800000000E+01 0. -1.
        -11    1    1    2    0    0  0.27496657837E+02  0.50043291726E+02 -0.45988079980E+02  0.73316442488E+02  0.00000000000E+00 0.  1.
         11    1    1    2    0    0  0.76703092421E+02 -0.33096321944E+02 -0.25168977112E+02  0.87247970303E+02  0.00000000000E+00 0. -1.
</event>
<event>
 7    1  0.2420569E-009  0.1427199E+03  0.7561462E-02  0.1209715E+00
          2   -1    0    0  501    0  0.00000000000E+00  0.00000000000E+00  0.44734846882E+03  0.44734846882E+03  0.00000000000E+00 0. -1.
         -2   -1    0    0    0  501 -0.00000000000E+00 -0.00000000000E+00 -0.53162922956E+02  0.53162922956E+02  0.00000000000E+00 0.  1.
         25    2    1    2    0    0 -0.51969479704E+02 -0.73529439877E+02  0.11996602201E+03  0.19531315358E+03  0.12509187093E+03 0.  0.
          5    1    3    3  502    0 -0.20961839360E+02 -0.10609428318E+03  0.93141320918E+02  0.14278716222E+03  0.41800000000E+01 0. -1.
         -5    1    3    3    0  502 -0.31007640344E+02  0.32564843302E+02  0.26824701096E+02  0.52525991356E+02  0.41800000000E+01 0. -1.
        -11    1    1    2    0    0  0.28213709403E+02 -0.20625214270E+02  0.97228929138E+02  0.10331929889E+03  0.00000000000E+00 0. -1.
         11    1    1    2    0    0  0.23755770301E+02  0.94154654148E+02  0.17699059471E+03  0.20187893931E+03  0.00000000000E+00 0.  1.
</event>
<event>
 7    1  0.2420569E-009  0.1770916E+03  0.7561462E-02  0.1170648E+00
         -1   -1    0    0    0  501 -0.00000000000E+00  0.00000000000E+00  0.25396476512E+02  0.25396476512E+02  0.00000000000E+00 0.  1.
          1   -1    0    0  501    0  0.00000000000E+00 -0.00000000000E+00 -0.15432541447E+04  0.15432541447E+04  0.00000000000E+00 0. -1.
         25    2    1    2    0    0  0.14373382611E+03 -0.74557805519E+02 -0.94335560860E+03  0.96529033401E+03  0.12508935017E+03 0.  0.
          5    1    3    3  502    0  0.15774324740E+02 -0.56906269963E+02 -0.49968582066E+03  0.50318042951E+03  0.41800000000E+01 0. -1.
         -5    1    3    3    0  502  0.12795950137E+03 -0.17651535556E+02 -0.44366978795E+03  0.46210990450E+03  0.41800000000E+01 0. -1.
        -11    1    1    2    0    0 -0.94146030062E+02  0.29277280442E+02 -0.20110258612E+03  0.22397072190E+03  0.00000000000E+00 0.  1.
         11    1    1    2    0    0 -0.49587796052E+02  0.45280525076E+02 -0.37339947342E+03  0.37938956525E+03  0.00000000000E+00 0. -1.
</event>
<event>
 7    1  0.2420569E-009  0.1056915E+03  0.7561462E-02  0.1268763E+00
         -2   -1    0    0    0  501 -0.00000000000E+00  0.00000000000E+00  0.21964674996E+02  0.21964674996E+02  0.00000000000E+00 0.  1.
          2   -1    0    0  501    0  0.00000000000E+00 -0.00000000000E+00 -0.72475256216E+03  0.72475256216E+03  0.00000000000E+00 0. -1.
         25    2    1    2    0    0  0.10770226445E+02  0.53383585916E+02 -0.28921910440E+03  0.31977904077E+03  0.12508053223E+03 0.  0.
          5    1    3    3  502    0 -0.35077159698E+02 -0.72902915382E+01 -0.19652814315E+03  0.19981075780E+03  0.41800000000E+01 0.  1.
         -5    1    3    3    0  502  0.45847386143E+02  0.60673877454E+02 -0.92690961256E+02  0.11996828297E+03  0.41800000000E+01 0.  1.
        -11    1    1    2    0    0 -0.11500089812E+02  0.21436655802E+02 -0.48250912440E+02  0.54036402813E+02  0.00000000000E+00 0.  1.
         11    1    1    2    0    0  0.72986336788E+00 -0.74820241718E+02 -0.36531787032E+03  0.37290179357E+03  0.00000000000E+00 0. -1.
</event>
<event>
 7    1  0.2420569E-009  0.1346439E+03  0.7561462E-02  0.1220723E+00
         -2   -1    0    0    0  501 -0.00000000000E+00  0.00000000000E+00  0.75211131063E+02  0.75211131063E+02  0.00000000000E+00 0.  1.
          2   -1    0    0  501    0  0.00000000000E+00 -0.00000000000E+00 -0.31973449414E+03  0.31973449414E+03  0.00000000000E+00 0. -1.
         25    2    1    2    0    0  0.48480299880E+02  0.89735002349E+02 -0.79399040883E+02  0.17986694378E+03  0.12508077249E+03 0.  0.
          5    1    3    3  502    0  0.61482380496E+02  0.11401803475E+02 -0.78368613851E+02  0.10034538490E+03  0.41800000000E+01 0.  1.
         -5    1    3    3    0  502 -0.13002080616E+02  0.78333198874E+02 -0.10304270315E+01  0.79521558876E+02  0.41800000000E+01 0.  1.
        -11    1    1    2    0    0 -0.39635334236E+01 -0.81785719672E+02 -0.62747824877E+02  0.10315959997E+03  0.00000000000E+00 0.  1.
         11    1    1    2    0    0 -0.44516766457E+02 -0.79492826768E+01 -0.10237649732E+03  0.11191908146E+03  0.00000000000E+00 0. -1.
</event>
<event>
 7    1  0.2420569E-009  0.1005367E+03  0.7561462E-02  0.1279171E+00
         -4   -1    0    0    0  501 -0.00000000000E+00  0.00000000000E+00  0.28096954167E+03  0.28096954167E+03  0.00000000000E+00 0.  1.
          4   -1    0    0  501    0  0.00000000000E+00 -0.00000000000E+00 -0.51956988429E+02  0.51956988429E+02  0.00000000000E+00 0. -1.
         25    2    1    2    0    0 -0.47159550487E+02 -0.23112635159E+02  0.12149857640E+03  0.18211703906E+03  0.12508594943E+03 0.  0.
          5    1    3    3  502    0 -0.36114759647E+02 -0.69898254599E+02  0.10468021169E+03  0.13101702554E+03  0.41800000000E+01 0.  1.
         -5    1    3    3    0  502 -0.11044790840E+02  0.46785619440E+02  0.16818364704E+02  0.51100013526E+02  0.41800000000E+01 0.  1.
        -11    1    1    2    0    0  0.14493182303E+02  0.36083402818E+02  0.10890066301E+03  0.11563485070E+03  0.00000000000E+00 0.  1.
         11    1    1    2    0    0  0.32666368184E+02 -0.12970767659E+02 -0.13866861706E+01  0.35174640332E+02  0.00000000000E+00 0. -1.
</event>
<event>
 7    1  0.2420569E-009  0.2727568E+03  0.7561462E-02  0.1099712E+00
         -1   -1    0    0    0  501 -0.00000000000E+00  0.00000000000E+00  0.21755465738E+03  0.21755465738E+03  0.00000000000E+00 0.  1.
          1   -1    0    0  501    0  0.00000000000E+00 -0.00000000000E+00 -0.34809458728E+03  0.34809458728E+03  0.00000000000E+00 0. -1.
         25    2    1    2    0    0  0.93907960568E+02 -0.23418396708E+03 -0.73256789834E+02  0.29098893978E+03  0.12508864984E+03 0.  0.
          5    1    3    3  502    0  0.50165366324E+02 -0.89035086179E+01 -0.41672982166E+01  0.51290108389E+02  0.41800000000E+01 0. -1.
         -5    1    3    3    0  502  0.43742594244E+02 -0.22528045847E+03 -0.69089491618E+02  0.23969883139E+03  0.41800000000E+01 0. -1.
        -11    1    1    2    0    0  0.94944183611E+01  0.71331053132E+02  0.45007218907E+01  0.72100760179E+02  0.00000000000E+00 0.  1.
         11    1    1    2    0    0 -0.10340237893E+03  0.16285291395E+03 -0.61783861953E+02  0.20255954470E+03  0.00000000000E+00 0. -1.
</event>
<event>
 7    1  0.2921919E-009  0.1021820E+03  0.7561462E-02  0.1275773E+00
         -1   -1    0    0    0  501 -0.00000000000E+00  0.00000000000E+00  0.33390838803E+03  0.33390838803E+03  0.00000000000E+00 0.  1.
          1   -1    0    0  501    0  0.00000000000E+00 -0.00000000000E+00 -0.39510144274E+02  0.39510144274E+02  0.00000000000E+00 0. -1.
         25    2    1    2    0    0  0.15388522215E+02  0.24367725776E+02  0.20717840465E+03  0.24372374710E+03  0.12509109030E+03 0.  0.
          5    1    3    3  502    0  0.58372784425E+02  0.48300666191E+02  0.15055792073E+03  0.16859862458E+03  0.41800000000E+01 0.  1.
         -5    1    3    3    0  502 -0.42984262210E+02 -0.23932940415E+02  0.56620483919E+02  0.75125122521E+02  0.41800000000E+01 0.  1.
        -11    1    1    2    0    0 -0.45325213994E+02 -0.14762631639E+02  0.85884548453E+02  0.98226605253E+02  0.00000000000E+00 0.  1.
         11    1    1    2    0    0  0.29936691779E+02 -0.96050941372E+01  0.13352906521E+01  0.31468179947E+02  0.00000000000E+00 0. -1.
</event>
<event>
 7    1  0.2420569E-009  0.1335422E+03  0.7561462E-02  0.1222292E+00
          1   -1    0    0  501    0  0.00000000000E+00  0.00000000000E+00  0.61118746863E+03  0.61118746863E+03  0.00000000000E+00 0. -1.
         -1   -1    0    0    0  501 -0.00000000000E+00 -0.00000000000E+00 -0.34903066212E+02  0.34903066212E+02  0.00000000000E+00 0.  1.
         25    2    1    2    0    0  0.71526915760E+02 -0.62324315768E+02  0.36101963083E+03  0.39367909296E+03  0.12509050471E+03 0.  0.
          5    1    3    3  502    0  0.26003096393E+02  0.28463877603E+02  0.19650503409E+03  0.20029491799E+03  0.41800000000E+01 0.  1.
         -5    1    3    3    0  502  0.45523819367E+02 -0.90788193371E+02  0.16451459674E+03  0.19338417496E+03  0.41800000000E+01 0.  1.
        -11    1    1    2    0    0  0.14438744681E+01  0.53083742375E+02  0.12609026380E+03  0.13681638463E+03  0.00000000000E+00 0.  1.
         11    1    1    2    0    0 -0.72970790228E+02  0.92405733933E+01  0.89174507781E+02  0.11559505725E+03  0.00000000000E+00 0. -1.
</event>
<event>
 7    1  0.2420569E-009  0.1195568E+03  0.7561462E-02  0.1243830E+00
         -1   -1    0    0    0  501 -0.00000000000E+00  0.00000000000E+00  0.64300727927E+02  0.64300727927E+02  0.00000000000E+00 0.  1.
          1   -1    0    0  501    0  0.00000000000E+00 -0.00000000000E+00 -0.22412363480E+03  0.22412363480E+03  0.00000000000E+00 0. -1.
         25    2    1    2    0    0 -0.17132946204E+02 -0.48801055504E+02 -0.94002890477E+02  0.16480077789E+03  0.12509065557E+03 0.  0.
          5    1    3    3  502    0  0.52922195766E+02 -0.35110399885E+02 -0.39679512170E+02  0.75002900416E+02  0.41800000000E+01 0.  1.
         -5    1    3    3    0  502 -0.70055141970E+02 -0.13690655619E+02 -0.54323378307E+02  0.89797877472E+02  0.41800000000E+01 0.  1.
        -11    1    1    2    0    0 -0.44528028611E+01  0.72079740479E+02 -0.52047609897E+02  0.89018369660E+02  0.00000000000E+00 0.  1.
         11    1    1    2    0    0  0.21585749065E+02 -0.23278684976E+02 -0.13772406502E+02  0.34605215181E+02  0.00000000000E+00 0. -1.
</event>
<event>
 7    1  0.2670115E-009  0.1012279E+03  0.7561462E-02  0.1277735E+00
         -1   -1    0    0    0  501 -0.00000000000E+00  0.00000000000E+00  0.19994404413E+02  0.19994404413E+02  0.00000000000E+00 0.  1.
          1   -1    0    0  501    0  0.00000000000E+00 -0.00000000000E+00 -0.61978729906E+03  0.61978729906E+03  0.00000000000E+00 0. -1.
         25    2    1    2    0    0  0.29964072356E+01 -0.11511581914E+02 -0.40376631231E+03  0.42286567342E+03  0.12508656133E+03 0.  0.
          5    1    3    3  502    0 -0.20690297495E+02 -0.64016247446E+02 -0.19868762638E+03  0.20981042306E+03  0.41800000000E+01 0.  1.
         -5    1    3    3    0  502  0.23686704731E+02  0.52504665532E+02 -0.20507868593E+03  0.21305525036E+03  0.41800000000E+01 0.  1.
        -11    1    1    2    0    0 -0.23091724026E+02 -0.25980519975E+02 -0.31264382740E+02  0.46751222067E+02  0.00000000000E+00 0.  1.
         11    1    1    2    0    0  0.20095316790E+02  0.37492101888E+02 -0.16476219960E+03  0.17016480799E+03  0.00000000000E+00 0. -1.
</event>
<event>
 7    1  0.2420569E-009  0.2234435E+03  0.7561462E-02  0.1131342E+00
          3   -1    0    0  501    0  0.00000000000E+00  0.00000000000E+00  0.13905165702E+04  0.13905165702E+04  0.00000000000E+00 0. -1.
         -3   -1    0    0    0  501 -0.00000000000E+00 -0.00000000000E+00 -0.39268231119E+02  0.39268231119E+02  0.00000000000E+00 0.  1.
         25    2    1    2    0    0 -0.37223209310E+02 -0.20270868026E+03  0.73124207650E+03  0.76996012792E+03  0.12508895945E+03 0.  0.
          5    1    3    3  502    0  0.59351548395E+01 -0.16591519756E+03  0.64941066150E+03  0.67030944981E+03  0.41800000000E+01 0.  1.
         -5    1    3    3    0  502 -0.43158364150E+02 -0.36793482699E+02  0.81831415005E+02  0.99650678106E+02  0.41800000000E+01 0.  1.
        -11    1    1    2    0    0  0.65591776942E+02  0.15698089887E+03  0.50409309013E+03  0.53202925421E+03  0.00000000000E+00 0.  1.
         11    1    1    2    0    0 -0.28368567632E+02  0.45727781388E+02  0.11591317249E+03  0.12779541923E+03  0.00000000000E+00 0. -1.
</event>
<event>
 7    1  0.2420569E-009  0.8859330E+02  0.7561462E-02  0.1306294E+00
         -1   -1    0    0    0  501 -0.00000000000E+00  0.00000000000E+00  0.64540103641E+02  0.64540103641E+02  0.00000000000E+00 0.  1.
          1   -1    0    0  501    0  0.00000000000E+00 -0.00000000000E+00 -0.27152381348E+03  0.27152381348E+03  0.00000000000E+00 0. -1.
         25    2    1    2    0    0  0.72389914342E+02  0.13533194341E+02 -0.90872105236E+02  0.17125559050E+03  0.12508913111E+03 0.  0.
          5    1    3    3  502    0  0.58895127973E+02 -0.89494511630E+01  0.15436968236E+02  0.61680638481E+02  0.41800000000E+01 0.  1.
         -5    1    3    3    0  502  0.13494786369E+02  0.22482645504E+02 -0.10630907347E+03  0.10957495202E+03  0.41800000000E+01 0.  1.
        -11    1    1    2    0    0 -0.12284918143E+02  0.18958672498E+02  0.73036044905E+01  0.23742222205E+02  0.00000000000E+00 0.  1.
         11    1    1    2    0    0 -0.60104996199E+02 -0.32491866839E+02 -0.12341520909E+03  0.14106610441E+03  0.00000000000E+00 0. -1.
</event>
<event>
 7    1  0.2420569E-009  0.1378834E+03  0.7561462E-02  0.1216206E+00
         -2   -1    0    0    0  501 -0.00000000000E+00  0.00000000000E+00  0.22575905040E+02  0.22575905040E+02  0.00000000000E+00 0.  1.
          2   -1    0    0  501    0  0.00000000000E+00 -0.00000000000E+00 -0.93556786421E+03  0.93556786421E+03  0.00000000000E+00 0. -1.
         25    2    1    2    0    0  0.76264340731E+02  0.51070789556E+02 -0.41534861489E+03  0.44338132775E+03  0.12509218477E+03 0.  0.
          5    1    3    3  502    0 -0.15959331701E+02  0.56952333555E+02 -0.11939704994E+03  0.13330940140E+03  0.41800000000E+01 0. -1.
         -5    1    3    3    0  502  0.92223672432E+02 -0.58815439989E+01 -0.29595156495E+03  0.31007192635E+03  0.41800000000E+01 0. -1.
        -11    1    1    2    0    0 -0.91001376700E+02 -0.57758981428E+02 -0.47407050793E+03  0.48616889759E+03  0.00000000000E+00 0. -1.
         11    1    1    2    0    0  0.14737035970E+02  0.66881918725E+01 -0.23572836348E+02  0.28593543907E+02  0.00000000000E+00 0.  1.
</event>
<event>
 7    1  0.2420569E-009  0.9851813E+02  0.7561462E-02  0.1283443E+00
         -2   -1    0    0    0  501 -0.00000000000E+00  0.00000000000E+00  0.53117108266E+02  0.53117108266E+02  0.00000000000E+00 0.  1.
          2   -1    0    0  501    0  0.00000000000E+00 -0.00000000000E+00 -0.28390653379E+03  0.28390653379E+03  0.00000000000E+00 0. -1.
         25    2    1    2    0    0  0.49498194553E+02 -0.71586460113E+01 -0.16236588034E+03  0.21097843909E+03  0.12509158719E+03 0.  0.
          5    1    3    3  502    0  0.52709805900E+02  0.52682602551E+02 -0.89035025547E+02  0.11618299542E+03  0.41800000000E+01 0. -1.
         -5    1    3    3    0  502 -0.32116113472E+01 -0.59841248563E+02 -0.73330854789E+02  0.94795443672E+02  0.41800000000E+01 0. -1.
        -11    1    1    2    0    0 -0.36140903790E+01  0.15300543169E+02 -0.77062931020E+02  0.78650261334E+02  0.00000000000E+00 0. -1.
         11    1    1    2    0    0 -0.45884104173E+02 -0.81418971578E+01  0.86393858306E+01  0.47394941636E+02  0.00000000000E+00 0.  1.
</event>
<event>
 7    1  0.2420569E-009  0.8396076E+02  0.7561462E-02  0.1318173E+00
          3   -1    0    0  501    0  0.00000000000E+00  0.00000000000E+00  0.17250064883E+03  0.17250064883E+03  0.00000000000E+00 0. -1.
         -3   -1    0    0    0  501 -0.00000000000E+00 -0.00000000000E+00 -0.78499567404E+02  0.78499567404E+02  0.00000000000E+00 0.  1.
         25    2    1    2    0    0  0.31150373734E+02  0.13343142669E+02  0.26618462885E+02  0.13230225247E+03  0.12508780198E+03 0.  0.
          5    1    3    3  502    0  0.65475286852E+02  0.78297801005E+01  0.55984509753E+02  0.86602865871E+02  0.41800000000E+01 0. -1.
         -5    1    3    3    0  502 -0.34324913118E+02  0.55133625687E+01 -0.29366046867E+02  0.45699386604E+02  0.41800000000E+01 0. -1.
        -11    1    1    2    0    0 -0.13069144378E+02 -0.35735919358E+02 -0.72256467730E+01  0.38730716988E+02  0.00000000000E+00 0.  1.
         11    1    1    2    0    0 -0.18081229357E+02  0.22392776689E+02  0.74608265313E+02  0.79967246770E+02  0.00000000000E+00 0. -1.
</event>
<event>
 7    1  0.2420569E-009  0.1031741E+03  0.7561462E-02  0.1273759E+00
         -2   -1    0    0    0  501 -0.00000000000E+00  0.00000000000E+00  0.27556647985E+02  0.27556647985E+02  0.00000000000E+00 0.  1.
          2   -1    0    0  501    0  0.00000000000E+00 -0.00000000000E+00 -0.48203812239E+03  0.48203812239E+03  0.00000000000E+00 0. -1.
         25    2    1    2    0    0 -0.27976181528E+02 -0.22949690307E+02 -0.19573115087E+03  0.23508997850E+03  0.12508900653E+03 0.  0.
          5    1    3    3  502    0  0.23283342647E+02  0.34298497055E+02 -0.27029665832E+02  0.49664637118E+02  0.41800000000E+01 0. -1.
         -5    1    3    3    0  502 -0.51259524175E+02 -0.57248187361E+02 -0.16870148504E+03  0.18542534139E+03  0.41800000000E+01 0. -1.
        -11    1    1    2    0    0  0.20411914411E+02  0.52970446679E+02 -0.20239892535E+03  0.21020903752E+03  0.00000000000E+00 0. -1.
         11    1    1    2    0    0  0.75642671169E+01 -0.30020756372E+02 -0.56351398179E+02  0.64295754346E+02  0.00000000000E+00 0.  1.
</event>
<event>
 7    1  0.2420569E-009  0.1232349E+03  0.7561462E-02  0.1237854E+00
         -2   -1    0    0    0  501 -0.00000000000E+00  0.00000000000E+00  0.60593441635E+02  0.60593441635E+02  0.00000000000E+00 0. -1.
          2   -1    0    0  501    0  0.00000000000E+00 -0.00000000000E+00 -0.28191489039E+03  0.28191489039E+03  0.00000000000E+00 0.  1.
         25    2    1    2    0    0  0.14911206331E+02  0.62638179931E+02 -0.80957435461E+02  0.16231933275E+03  0.12509026248E+03 0.  0.
          5    1    3    3  502    0 -0.32441784879E+02  0.82816588219E+02 -0.51861643940E+02  0.10304445256E+03  0.41800000000E+01 0. -1.
         -5    1    3    3    0  502  0.47352991210E+02 -0.20178408288E+02 -0.29095791521E+02  0.59274880192E+02  0.41800000000E+01 0. -1.
        -11    1    1    2    0    0 -0.40263472265E+02 -0.68780978519E+02 -0.12922202347E+03  0.15182325762E+03  0.00000000000E+00 0.  1.
         11    1    1    2    0    0  0.25352265935E+02  0.61427985880E+01 -0.11141989825E+02  0.28365741657E+02  0.00000000000E+00 0. -1.
</event>
<event>
 7    1  0.2420569E-009  0.9583915E+02  0.7561462E-02  0.1289297E+00
         -4   -1    0    0    0  501 -0.00000000000E+00  0.00000000000E+00  0.26107207854E+03  0.26107207854E+03  0.00000000000E+00 0.  1.
          4   -1    0    0  501    0  0.00000000000E+00 -0.00000000000E+00 -0.60870055197E+02  0.60870055197E+02  0.00000000000E+00 0. -1.
         25    2    1    2    0    0  0.49780321460E+02 -0.26212766981E+02  0.15533313987E+03  0.20722291698E+03  0.12509102055E+03 0.  0.
          5    1    3    3  502    0  0.55387912043E+02 -0.45311601971E+02  0.25926136369E+02  0.76227285277E+02  0.41800000000E+01 0.  1.
         -5    1    3    3    0  502 -0.56075905827E+01  0.19098834990E+02  0.12940700350E+03  0.13099563170E+03  0.41800000000E+01 0.  1.
        -11    1    1    2    0    0 -0.37607003697E+02 -0.26209481312E+02  0.39724295329E+02  0.60656766128E+02  0.00000000000E+00 0.  1.
         11    1    1    2    0    0 -0.12173317763E+02  0.52422248293E+02  0.51445881501E+01  0.54062450636E+02  0.00000000000E+00 0. -1.
</event>
<event>
 7    1  0.2420569E-009  0.9906951E+02  0.7561462E-02  0.1282265E+00
          1   -1    0    0  501    0  0.00000000000E+00  0.00000000000E+00  0.66002366583E+03  0.66002366583E+03  0.00000000000E+00 0. -1.
         -1   -1    0    0    0  501 -0.00000000000E+00 -0.00000000000E+00 -0.23701987144E+02  0.23701987144E+02  0.00000000000E+00 0.  1.
         25    2    1    2    0    0 -0.31706132671E+02  0.54174346461E+02  0.37962408723E+03  0.40460164571E+03  0.12509158822E+03 0.  0.
          5    1    3    3  502    0 -0.19553371531E+02  0.77005992232E+02  0.36698925506E+03  0.37551410480E+03  0.41800000000E+01 0. -1.
         -5    1    3    3    0  502 -0.12152761139E+02 -0.22831645771E+02  0.12634832169E+02  0.29087540904E+02  0.41800000000E+01 0. -1.
        -11    1    1    2    0    0  0.20880634275E+02  0.12829166621E+02  0.16556071302E+02  0.29575190631E+02  0.00000000000E+00 0.  1.
         11    1    1    2    0    0  0.10825498396E+02 -0.67003513081E+02  0.24014152015E+03  0.24954881663E+03  0.00000000000E+00 0. -1.
</event>
<event>
 7    1  0.2420569E-009  0.7737211E+02  0.7561462E-02  0.1336679E+00
         -2   -1    0    0    0  501 -0.00000000000E+00  0.00000000000E+00  0.51823703604E+03  0.51823703604E+03  0.00000000000E+00 0.  1.
          2   -1    0    0  501    0  0.00000000000E+00 -0.00000000000E+00 -0.35975649723E+02  0.35975649723E+02  0.00000000000E+00 0. -1.
         25    2    1    2    0    0 -0.13098868770E+02  0.12022900298E+02  0.43144407624E+03  0.44956262982E+03  0.12508571748E+03 0.  0.
          5    1    3    3  502    0  0.21574240099E+02  0.54455478443E+02  0.12346167311E+03  0.13671541279E+03  0.41800000000E+01 0. -1.
         -5    1    3    3    0  502 -0.34673108869E+02 -0.42432578144E+02  0.30798240313E+03  0.31284721703E+03  0.41800000000E+01 0. -1.
        -11    1    1    2    0    0 -0.55712272171E+01 -0.20000697369E+02  0.72222472896E+02  0.75147535283E+02  0.00000000000E+00 0.  1.
         11    1    1    2    0    0  0.18670095987E+02  0.79777970706E+01 -0.21405162813E+02  0.29502520660E+02  0.00000000000E+00 0. -1.
</event>
<event>
 7    1  0.2420569E-009  0.1215393E+03  0.7561462E-02  0.1240579E+00
          2   -1    0    0  501    0  0.00000000000E+00  0.00000000000E+00  0.50641450993E+02  0.50641450993E+02  0.00000000000E+00 0. -1.
         -2   -1    0    0    0  501 -0.00000000000E+00 -0.00000000000E+00 -0.36499104906E+03  0.36499104906E+03  0.00000000000E+00 0.  1.
         25    2    1    2    0    0  0.57341573148E+02  0.88628568012E+01 -0.25804530650E+03  0.29257328297E+03  0.12508053190E+03 0.  0.
          5    1    3    3  502    0 -0.30321230719E+02  0.31806396562E+02 -0.57698480931E+02  0.72647167848E+02  0.41800000000E+01 0. -1.
         -5    1    3    3    0  502  0.87662803867E+02 -0.22943539761E+02 -0.20034682557E+03  0.21992611513E+03  0.41800000000E+01 0. -1.
        -11    1    1    2    0    0 -0.72352804360E+02  0.20540046081E+02 -0.30512435626E+02  0.81165451515E+02  0.00000000000E+00 0.  1.
         11    1    1    2    0    0  0.15011231212E+02 -0.29402902882E+02 -0.25791855944E+02  0.41893765568E+02  0.00000000000E+00 0. -1.
</event>
<event>
 7    1  0.2420569E-009  0.9582235E+02  0.7561462E-02  0.1289335E+00
         -1   -1    0    0    0  501 -0.00000000000E+00  0.00000000000E+00  0.34786858860E+02  0.34786858860E+02  0.00000000000E+00 0.  1.
          1   -1    0    0  501    0  0.00000000000E+00 -0.00000000000E+00 -0.44983179322E+03  0.44983179322E+03  0.00000000000E+00 0. -1.
         25    2    1    2    0    0 -0.18130846177E+02  0.54681825318E+02 -0.18396848321E+03  0.22980581781E+03  0.12508989359E+03 0.  0.
          5    1    3    3  502    0 -0.13916449554E+02 -0.13715332377E+02 -0.15332790355E+03  0.15462437168E+03  0.41800000000E+01 0. -1.
         -5    1    3    3    0  502 -0.42143966227E+01  0.68397157695E+02 -0.30640579662E+02  0.75181446127E+02  0.41800000000E+01 0. -1.
        -11    1    1    2    0    0 -0.34540676431E+02 -0.23890383150E+02 -0.60456530690E+02  0.73612504633E+02  0.00000000000E+00 0.  1.
         11    1    1    2    0    0  0.52671522608E+02 -0.30791442168E+02 -0.17061992046E+03  0.18120032964E+03  0.00000000000E+00 0. -1.
</event>
<event>
 7    1  0.2420569E-009  0.1445650E+03  0.7561462E-02  0.1207315E+00
          1   -1    0    0  501    0  0.00000000000E+00  0.00000000000E+00  0.17452828435E+04  0.17452828435E+04  0.00000000000E+00 0. -1.
         -1   -1    0    0    0  501 -0.00000000000E+00 -0.00000000000E+00 -0.15421195539E+02  0.15421195539E+02  0.00000000000E+00 0.  1.
         25    2    1    2    0    0 -0.95003109392E+02  0.69458854192E+02  0.11248152950E+04  0.11378529220E+04  0.12509876461E+03 0.  0.
          5    1    3    3  502    0 -0.85645537918E+02 -0.23128526022E+00  0.37225486076E+03  0.38200309609E+03  0.41800000000E+01 0.  1.
         -5    1    3    3    0  502 -0.93575714736E+01  0.69690139453E+02  0.75256043424E+03  0.75584982587E+03  0.41800000000E+01 0.  1.
        -11    1    1    2    0    0  0.11788745465E+00 -0.30290536175E+02  0.50531528533E+02  0.58914903505E+02  0.00000000000E+00 0.  1.
         11    1    1    2    0    0  0.94885221937E+02 -0.39168318018E+02  0.55451482444E+03  0.56393621359E+03  0.00000000000E+00 0. -1.
</event>
<event>
 7    1  0.2420569E-009  0.8442121E+02  0.7561462E-02  0.1316953E+00
          2   -1    0    0  501    0  0.00000000000E+00  0.00000000000E+00  0.44777184059E+03  0.44777184059E+03  0.00000000000E+00 0. -1.
         -2   -1    0    0    0  501 -0.00000000000E+00 -0.00000000000E+00 -0.39370327751E+02  0.39370327751E+02  0.00000000000E+00 0.  1.
         25    2    1    2    0    0 -0.24193999259E+02 -0.11727059892E+02  0.35919938320E+03  0.38130572936E+03  0.12508792436E+03 0.  0.
          5    1    3    3  502    0  0.33209220185E+02  0.36642833034E+02  0.10351206343E+03  0.11479446499E+03  0.41800000000E+01 0. -1.
         -5    1    3    3    0  502 -0.57403219443E+02 -0.48369892926E+02  0.25568731977E+03  0.26651126437E+03  0.41800000000E+01 0. -1.
        -11    1    1    2    0    0  0.20546716877E+02  0.23787268396E+02 -0.18834209677E+02  0.36643269045E+02  0.00000000000E+00 0.  1.
         11    1    1    2    0    0  0.36472823816E+01 -0.12060208504E+02  0.68036339313E+02  0.69193169931E+02  0.00000000000E+00 0. -1.
</event>
<event>
 7    1  0.2420569E-009  0.9530381E+02  0.7561462E-02  0.1290493E+00
          2   -1    0    0  501    0  0.00000000000E+00  0.00000000000E+00  0.91625175598E+03  0.91625175598E+03  0.00000000000E+00 0. -1.
         -2   -1    0    0    0  501 -0.00000000000E+00 -0.00000000000E+00 -0.17892223627E+02  0.17892223627E+02  0.00000000000E+00 0.  1.
         25    2    1    2    0    0 -0.20651642409E+02 -0.61821649033E+02  0.57606891898E+03  0.59308636994E+03  0.12509051193E+03 0.  0.
          5    1    3    3  502    0 -0.41215625946E+02 -0.28744604065E+02  0.74318565716E+02  0.89809251723E+02  0.41800000000E+01 0.  1.
         -5    1    3    3    0  502  0.20563983537E+02 -0.33077044968E+02  0.50175035327E+03  0.50327711822E+03  0.41800000000E+01 0.  1.
        -11    1    1    2    0    0  0.38013151446E+02  0.12838919068E+01  0.57940031179E+02  0.69308695517E+02  0.00000000000E+00 0.  1.
         11    1    1    2    0    0 -0.17361509037E+02  0.60537757126E+02  0.26435058219E+03  0.27174891415E+03  0.00000000000E+00 0. -1.
</event>
<event>
 7    1  0.2420569E-009  0.1724681E+03  0.7561462E-02  0.1175298E+00
         -2   -1    0    0    0  501 -0.00000000000E+00  0.00000000000E+00  0.72179255094E+02  0.72179255094E+02  0.00000000000E+00 0.  1.
          2   -1    0    0  501    0  0.00000000000E+00 -0.00000000000E+00 -0.48623329139E+03  0.48623329139E+03  0.00000000000E+00 0. -1.
         25    2    1    2    0    0 -0.42709364049E+02  0.13110450157E+03 -0.12113402739E+03  0.22211668136E+03  0.12509951014E+03 0.  0.
          5    1    3    3  502    0  0.42698441676E+02  0.57785452520E+02 -0.33411753390E+02  0.79348176470E+02  0.41800000000E+01 0. -1.
         -5    1    3    3    0  502 -0.85407805725E+02  0.73319049046E+02 -0.87722273998E+02  0.14276850489E+03  0.41800000000E+01 0. -1.
        -11    1    1    2    0    0 -0.23568937452E+02 -0.19797745202E+02 -0.28970655424E+02  0.42269899496E+02  0.00000000000E+00 0.  1.
         11    1    1    2    0    0  0.66278301500E+02 -0.11130675636E+03 -0.26394935348E+03  0.29402596563E+03  0.00000000000E+00 0. -1.
</event>
<event>
 7    1  0.2420569E-009  0.1089836E+03  0.7561462E-02  0.1262464E+00
         -1   -1    0    0    0  501 -0.00000000000E+00  0.00000000000E+00  0.93119393314E+02  0.93119393314E+02  0.00000000000E+00 0.  1.
          1   -1    0    0  501    0  0.00000000000E+00 -0.00000000000E+00 -0.13135993616E+03  0.13135993616E+03  0.00000000000E+00 0. -1.
         25    2    1    2    0    0  0.33638742625E+01 -0.22786133572E+02 -0.29681163772E+02  0.13061227057E+03  0.12509224679E+03 0.  0.
          5    1    3    3  502    0  0.57096382246E+01 -0.73979008454E+02 -0.27192435392E+02  0.79135293031E+02  0.41800000000E+01 0.  1.
         -5    1    3    3    0  502 -0.23457639621E+01  0.51192874882E+02 -0.24887283805E+01  0.51476977536E+02  0.41800000000E+01 0.  1.
        -11    1    1    2    0    0 -0.29768312438E+02  0.47507050986E+02  0.22729878510E+01  0.56109168525E+02  0.00000000000E+00 0.  1.
         11    1    1    2    0    0  0.26404438175E+02 -0.24720917413E+02 -0.10832366927E+02  0.37757890386E+02  0.00000000000E+00 0. -1.
</event>
<event>
 7    1  0.2420569E-009  0.1077951E+03  0.7561462E-02  0.1264708E+00
         -2   -1    0    0    0  501 -0.00000000000E+00  0.00000000000E+00  0.40735485439E+03  0.40735485439E+03  0.00000000000E+00 0. -1.
          2   -1    0    0  501    0  0.00000000000E+00 -0.00000000000E+00 -0.32055161229E+02  0.32055161229E+02  0.00000000000E+00 0.  1.
         25    2    1    2    0    0 -0.82682946801E+01  0.27111932420E+02  0.15697552219E+03  0.20271226595E+03  0.12509007404E+03 0.  0.
          5    1    3    3  502    0  0.43700216978E+00  0.76628674880E+02  0.81669996017E+02  0.11206964546E+03  0.41800000000E+01 0.  1.
         -5    1    3    3    0  502 -0.87052968498E+01 -0.49516742460E+02  0.75305526168E+02  0.90642620486E+02  0.41800000000E+01 0.  1.
        -11    1    1    2    0    0  0.45799958678E+02 -0.88064461489E+01  0.14500818523E+03  0.15232387696E+03  0.00000000000E+00 0. -1.
         11    1    1    2    0    0 -0.37531663998E+02 -0.18305486271E+02  0.73315985751E+02  0.84373872714E+02  0.00000000000E+00 0.  1.
</event>
<event>
 7    1  0.2420569E-009  0.9259263E+02  0.7561462E-02  0.1296692E+00
         -2   -1    0    0    0  501 -0.00000000000E+00  0.00000000000E+00  0.18183215263E+03  0.18183215263E+03  0.00000000000E+00 0.  1.
          2   -1    0    0  501    0  0.00000000000E+00 -0.00000000000E+00 -0.16927827409E+03  0.16927827409E+03  0.00000000000E+00 0. -1.
         25    2    1    2    0    0  0.95267938625E+01  0.84607166628E+02 -0.10174861249E+03  0.18234378300E+03  0.12508933851E+03 0.  0.
          5    1    3    3  502    0 -0.12287528406E+02  0.57703170291E+02  0.14563971671E+02  0.60911582534E+02  0.41800000000E+01 0. -1.
         -5    1    3    3    0  502  0.21814322268E+02  0.26903996337E+02 -0.11631258416E+03  0.12143220047E+03  0.41800000000E+01 0. -1.
        -11    1    1    2    0    0 -0.21296336411E+02 -0.44145187750E+02  0.11668421044E+03  0.12656040658E+03  0.00000000000E+00 0.  1.
         11    1    1    2    0    0  0.11769542548E+02 -0.40461978878E+02 -0.23817194025E+01  0.42206237144E+02  0.00000000000E+00 0. -1.
</event>
<event>
 7    1  0.2420569E-009  0.7886960E+02  0.7561462E-02  0.1332290E+00
          1   -1    0    0  501    0  0.00000000000E+00  0.00000000000E+00  0.53032390980E+03  0.53032390980E+03  0.00000000000E+00 0. -1.
         -1   -1    0    0    0  501 -0.00000000000E+00 -0.00000000000E+00 -0.28964861258E+02  0.28964861258E+02  0.00000000000E+00 0.  1.
         25    2    1    2    0    0 -0.64124375066E+01  0.54090957616E+02  0.21814894002E+03  0.25730036122E+03  0.12509022664E+03 0.  0.
          5    1    3    3  502    0 -0.31843576896E+02  0.28518140814E+02  0.75679656531E+01  0.43612432277E+02  0.41800000000E+01 0.  1.
         -5    1    3    3    0  502  0.25431139389E+02  0.25572816803E+02  0.21058097437E+03  0.21368792894E+03  0.41800000000E+01 0.  1.
        -11    1    1    2    0    0  0.11245014720E+02  0.94918013114E+01  0.35323911467E+01  0.15133487219E+02  0.00000000000E+00 0.  1.
         11    1    1    2    0    0 -0.48325772138E+01 -0.63582758928E+02  0.27967771737E+03  0.28685492262E+03  0.00000000000E+00 0. -1.
</event>
<event>
 7    1  0.2420569E-009  0.1527956E+03  0.7561462E-02  0.1197079E+00
          1   -1    0    0  501    0  0.00000000000E+00  0.00000000000E+00  0.35430476388E+03  0.35430476388E+03  0.00000000000E+00 0. -1.
         -1   -1    0    0    0  501 -0.00000000000E+00 -0.00000000000E+00 -0.14238525492E+03  0.14238525492E+03  0.00000000000E+00 0.  1.
         25    2    1    2    0    0  0.12010061119E+03 -0.67991032260E+02  0.26479262854E+03  0.32374309073E+03  0.12509002913E+03 0.  0.
          5    1    3    3  502    0  0.16517908212E+02  0.21808985597E+02  0.25406485116E+01  0.27792093108E+02  0.41800000000E+01 0.  1.
         -5    1    3    3    0  502  0.10358270298E+03 -0.89800017857E+02  0.26225198003E+03  0.29595099762E+03  0.41800000000E+01 0.  1.
        -11    1    1    2    0    0 -0.43739548557E+02  0.99757354668E+01 -0.62093731618E+02  0.76604796927E+02  0.00000000000E+00 0. -1.
         11    1    1    2    0    0 -0.76361062635E+02  0.58015296794E+02  0.92206120369E+01  0.96342131153E+02  0.00000000000E+00 0.  1.
</event>
<event>
 7    1  0.2420569E-009  0.9480139E+02  0.7561462E-02  0.1291624E+00
          1   -1    0    0  501    0  0.00000000000E+00  0.00000000000E+00  0.50896201437E+02  0.50896201437E+02  0.00000000000E+00 0. -1.
         -1   -1    0    0    0  501 -0.00000000000E+00 -0.00000000000E+00 -0.26669774842E+03  0.26669774842E+03  0.00000000000E+00 0.  1.
         25    2    1    2    0    0 -0.26721852609E+02 -0.14533623045E+02 -0.15125648125E+03  0.19862146408E+03  0.12508668701E+03 0.  0.
          5    1    3    3  502    0  0.16201668996E+02 -0.56593092787E+02 -0.37563991857E+02  0.69955686786E+02  0.41800000000E+01 0.  1.
         -5    1    3    3    0  502 -0.42923521605E+02  0.42059469743E+02 -0.11369248939E+03  0.12866577729E+03  0.41800000000E+01 0.  1.
        -11    1    1    2    0    0 -0.14238198456E+02  0.24368684803E+02 -0.70956120008E+02  0.76363145960E+02  0.00000000000E+00 0.  1.
         11    1    1    2    0    0  0.40960051066E+02 -0.98350617589E+01  0.64110542721E+01  0.42609339821E+02  0.00000000000E+00 0. -1.
</event>
<event>
 7    1  0.2420569E-009  0.1017945E+03  0.7561462E-02  0.1276567E+00
          1   -1    0    0  501    0  0.00000000000E+00  0.00000000000E+00  0.17156966554E+03  0.17156966554E+03  0.00000000000E+00 0. -1.
         -1   -1    0    0    0  501 -0.00000000000E+00 -0.00000000000E+00 -0.85681438899E+02  0.85681438899E+02  0.00000000000E+00 0.  1.
         25    2    1    2    0    0  0.35229391171E+02  0.34127260820E+02  0.66895727971E+02  0.15009379573E+03  0.12508928476E+03 0.  0.
          5    1    3    3  502    0 -0.41885275236E+02 -0.57869613526E+01  0.41818346406E+02  0.59616371069E+02  0.41800000000E+01 0. -1.
         -5    1    3    3    0  502  0.77114666407E+02  0.39914222173E+02  0.25077381565E+02  0.90477424659E+02  0.41800000000E+01 0. -1.
        -11    1    1    2    0    0  0.15307600790E+02 -0.75716520949E+01 -0.28280071528E+02  0.33036570691E+02  0.00000000000E+00 0.  1.
         11    1    1    2    0    0 -0.50536991961E+02 -0.26555608725E+02  0.47272570194E+02  0.74120738015E+02  0.00000000000E+00 0. -1.
</event>
<event>
 7    1  0.2420569E-009  0.1370069E+03  0.7561462E-02  0.1217414E+00
         -1   -1    0    0    0  501 -0.00000000000E+00  0.00000000000E+00  0.21654311256E+02  0.21654311256E+02  0.00000000000E+00 0.  1.
          1   -1    0    0  501    0  0.00000000000E+00 -0.00000000000E+00 -0.16350275304E+04  0.16350275304E+04  0.00000000000E+00 0. -1.
         25    2    1    2    0    0 -0.40987231166E+02 -0.10207561271E+03 -0.13183383903E+04  0.13288201649E+04  0.12509011031E+03 0.  0.
          5    1    3    3  502    0 -0.36623417825E+02 -0.11923301056E+03 -0.75946303745E+03  0.76964885707E+03  0.41800000000E+01 0. -1.
         -5    1    3    3    0  502 -0.43638133410E+01  0.17157397850E+02 -0.55887535281E+03  0.55917130787E+03  0.41800000000E+01 0. -1.
        -11    1    1    2    0    0 -0.12259166549E+02  0.64984569601E+02 -0.83026555646E+02  0.10614466729E+03  0.00000000000E+00 0.  1.
         11    1    1    2    0    0  0.53246397716E+02  0.37091043105E+02 -0.21200827323E+03  0.22171700942E+03  0.00000000000E+00 0. -1.
</event>
<event>
 7    1  0.2420569E-009  0.1033502E+03  0.7561462E-02  0.1273405E+00
          1   -1    0    0  501    0  0.00000000000E+00  0.00000000000E+00  0.22134827487E+02  0.22134827487E+02  0.00000000000E+00 0. -1.
         -1   -1    0    0    0  501 -0.00000000000E+00 -0.00000000000E+00 -0.56644181899E+03  0.56644181899E+03  0.00000000000E+00 0.  1.
         25    2    1    2    0    0  0.25429477986E+02 -0.10963132786E+02 -0.27408293899E+03  0.30255716417E+03  0.12511007759E+03 0.  0.
          5    1    3    3  502    0  0.52662074556E+02  0.33013011097E+02 -0.78540173793E+02  0.10024561984E+03  0.41800000000E+01 0. -1.
         -5    1    3    3    0  502 -0.27232596571E+02 -0.43976143883E+02 -0.19554276520E+03  0.20231154433E+03  0.41800000000E+01 0. -1.
        -11    1    1    2    0    0 -0.10431262189E+02 -0.38987051357E+02 -0.14117086237E+03  0.14682647509E+03  0.00000000000E+00 0.  1.
         11    1    1    2    0    0 -0.14998215797E+02  0.49950184143E+02 -0.12905319014E+03  0.13919300722E+03  0.00000000000E+00 0. -1.
</event>
<event>
 7    1  0.2420569E-009  0.1371936E+03  0.7561462E-02  0.1217156E+00
         -1   -1    0    0    0  501 -0.00000000000E+00  0.00000000000E+00  0.23564678279E+03  0.23564678279E+03  0.00000000000E+00 0.  1.
          1   -1    0    0  501    0  0.00000000000E+00 -0.00000000000E+00 -0.98769512092E+02  0.98769512092E+02  0.00000000000E+00 0. -1.
         25    2    1    2    0    0  0.59777601387E+02 -0.84334053053E+02  0.10728780533E+03  0.19453457391E+03  0.12508970038E+03 0.  0.
          5    1    3    3  502    0  0.18018688939E+02  0.31555821928E+02  0.39634287773E+02  0.53933219965E+02  0.41800000000E+01 0.  1.
         -5    1    3    3    0  502  0.41758912448E+02 -0.11588987498E+03  0.67653517562E+02  0.14060135394E+03  0.41800000000E+01 0.  1.
        -11    1    1    2    0    0 -0.76446079064E+01  0.53380594577E+02  0.52316009756E+02  0.75132501517E+02  0.00000000000E+00 0.  1.
         11    1    1    2    0    0 -0.52132993480E+02  0.30953458475E+02 -0.22726544389E+02  0.64749219460E+02  0.00000000000E+00 0. -1.
</event>
<event>
 7    1  0.2420569E-009  0.1076965E+03  0.7561462E-02  0.1264896E+00
         -2   -1    0    0    0  501 -0.00000000000E+00  0.00000000000E+00  0.56959940294E+03  0.56959940294E+03  0.00000000000E+00 0.  1.
          2   -1    0    0  501    0  0.00000000000E+00 -0.00000000000E+00 -0.25739280712E+02  0.25739280712E+02  0.00000000000E+00 0. -1.
         25    2    1    2    0    0  0.43389263062E+02  0.21633853095E+01  0.33302747874E+03  0.35838806437E+03  0.12508954675E+03 0.  0.
          5    1    3    3  502    0  0.70711205860E+02 -0.32576123279E+02  0.13925653005E+03  0.15959677943E+03  0.41800000000E+01 0. -1.
         -5    1    3    3    0  502 -0.27321942798E+02  0.34739508588E+02  0.19377094869E+03  0.19879128495E+03  0.41800000000E+01 0. -1.
        -11    1    1    2    0    0 -0.67728526721E+02  0.42537787712E+01  0.19671369944E+03  0.20809019081E+03  0.00000000000E+00 0.  1.
         11    1    1    2    0    0  0.24339263659E+02 -0.64171640807E+01  0.14118944059E+02  0.28860428473E+02  0.00000000000E+00 0. -1.
</event>
<event>
 7    1  0.2420569E-009  0.9009272E+02  0.7561462E-02  0.1302627E+00
         -1   -1    0    0    0  501 -0.00000000000E+00  0.00000000000E+00  0.12218328910E+03  0.12218328910E+03  0.00000000000E+00 0.  1.
          1   -1    0    0  501    0  0.00000000000E+00 -0.00000000000E+00 -0.10040262562E+03  0.10040262562E+03  0.00000000000E+00 0. -1.
         25    2    1    2    0    0 -0.61829122463E+01 -0.14772265613E+02 -0.41533549968E+01  0.12617587996E+03  0.12508658638E+03 0.  0.
          5    1    3    3  502    0 -0.39016083700E+02  0.38763420356E+02  0.20125991282E+02  0.58714440047E+02  0.41800000000E+01 0. -1.
         -5    1    3    3    0  502  0.32833171454E+02 -0.53535685969E+02 -0.24279346279E+02  0.67461439917E+02  0.41800000000E+01 0. -1.
        -11    1    1    2    0    0  0.32997115721E+02  0.41970467001E+01 -0.22422306968E+02  0.40114644417E+02  0.00000000000E+00 0. -1.
         11    1    1    2    0    0 -0.26814203475E+02  0.10575218913E+02  0.48356325440E+02  0.56295390336E+02  0.00000000000E+00 0.  1.
</event>
<event>
 7    1  0.2420569E-009  0.1123695E+03  0.7561462E-02  0.1256244E+00
          1   -1    0    0  501    0  0.00000000000E+00  0.00000000000E+00  0.20173148495E+02  0.20173148495E+02  0.00000000000E+00 0.  1.
         -1   -1    0    0    0  501 -0.00000000000E+00 -0.00000000000E+00 -0.64580460689E+03  0.64580460689E+03  0.00000000000E+00 0. -1.
         25    2    1    2    0    0 -0.29540608501E+02  0.18544495125E+02 -0.31992649521E+03  0.34527792141E+03  0.12508930742E+03 0.  0.
          5    1    3    3  502    0 -0.50892281832E+02  0.62336559689E+02 -0.21168606926E+03  0.22650460336E+03  0.41800000000E+01 0. -1.
         -5    1    3    3    0  502  0.21351673331E+02 -0.43792064564E+02 -0.10824042595E+03  0.11877331806E+03  0.41800000000E+01 0. -1.
        -11    1    1    2    0    0  0.61315556269E+02 -0.83089921493E+01 -0.16879402090E+03  0.17977780253E+03  0.00000000000E+00 0. -1.
         11    1    1    2    0    0 -0.31774947768E+02 -0.10235502976E+02 -0.13691094229E+03  0.14092203144E+03  0.00000000000E+00 0.  1.
</event>
<event>
 7    1  0.2420569E-009  0.9795851E+02  0.7561462E-02  0.1284648E+00
         -4   -1    0    0    0  501 -0.00000000000E+00  0.00000000000E+00  0.49572218992E+03  0.49572218992E+03  0.00000000000E+00 0.  1.
          4   -1    0    0  501    0  0.00000000000E+00 -0.00000000000E+00 -0.36163292002E+02  0.36163292002E+02  0.00000000000E+00 0. -1.
         25    2    1    2    0    0 -0.19088418955E+02  0.59267644007E+02  0.34662452362E+03  0.37372816360E+03  0.12508860271E+03 0.  0.
          5    1    3    3  502    0 -0.41177831117E+02 -0.84272323357E+01  0.25046001228E+03  0.25399669717E+03  0.41800000000E+01 0.  1.
         -5    1    3    3    0  502  0.22089412162E+02  0.67694876343E+02  0.96164511334E+02  0.11973146643E+03  0.41800000000E+01 0.  1.
        -11    1    1    2    0    0  0.21440856309E+02  0.15389200617E+01  0.90950065206E+02  0.93455834249E+02  0.00000000000E+00 0.  1.
         11    1    1    2    0    0 -0.23524373536E+01 -0.60806564069E+02  0.21984309096E+02  0.64701484077E+02  0.00000000000E+00 0. -1.
</event>
<event>
 7    1  0.2420569E-009  0.1560874E+03  0.7561462E-02  0.1193186E+00
          2   -1    0    0  501    0  0.00000000000E+00  0.00000000000E+00  0.71943246865E+03  0.71943246865E+03  0.00000000000E+00 0. -1.
         -2   -1    0    0    0  501 -0.00000000000E+00 -0.00000000000E+00 -0.44053551240E+02  0.44053551240E+02  0.00000000000E+00 0.  1.
         25    2    1    2    0    0 -0.13157019767E+03 -0.30330208109E+02  0.26933461774E+03  0.32622008174E+03  0.12509103476E+03 0.  0.
          5    1    3    3  502    0 -0.55350764965E+01  0.23561026545E+02  0.12395790124E+03  0.12636768860E+03  0.41800000000E+01 0.  1.
         -5    1    3    3    0  502 -0.12603512117E+03 -0.53891234654E+02  0.14537671651E+03  0.19985239314E+03  0.41800000000E+01 0.  1.
        -11    1    1    2    0    0  0.75533547291E+02  0.50567755246E+02  0.15909346197E+03  0.18322975817E+03  0.00000000000E+00 0.  1.
         11    1    1    2    0    0  0.56036650377E+02 -0.20237547137E+02  0.24695083769E+03  0.25403617998E+03  0.00000000000E+00 0. -1.
</event>
<event>
 7    1  0.2420569E-009  0.1124603E+03  0.7561462E-02  0.1256080E+00
          2   -1    0    0  501    0  0.00000000000E+00  0.00000000000E+00  0.54851844481E+03  0.54851844481E+03  0.00000000000E+00 0. -1.
         -2   -1    0    0    0  501 -0.00000000000E+00 -0.00000000000E+00 -0.51822792877E+02  0.51822792877E+02  0.00000000000E+00 0.  1.
         25    2    1    2    0    0 -0.63858253401E+02  0.32992588242E+02  0.46029587907E+03  0.48237544070E+03  0.12508949634E+03 0.  0.
          5    1    3    3  502    0 -0.90023909044E+02 -0.30188072826E+01  0.37917820529E+03  0.38975248706E+03  0.41800000000E+01 0. -1.
         -5    1    3    3    0  502  0.26165655643E+02  0.36011395524E+02  0.81117673780E+02  0.92622953647E+02  0.41800000000E+01 0. -1.
        -11    1    1    2    0    0  0.38447817417E+02  0.10333189365E+02 -0.18201918497E+02  0.43775784442E+02  0.00000000000E+00 0.  1.
         11    1    1    2    0    0  0.25410435984E+02 -0.43325777606E+02  0.54601691360E+02  0.74190012546E+02  0.00000000000E+00 0. -1.
</event>
<event>
 7    1  0.2420569E-009  0.1361752E+03  0.7561462E-02  0.1218570E+00
          1   -1    0    0  501    0  0.00000000000E+00  0.00000000000E+00  0.26254109724E+03  0.26254109724E+03  0.00000000000E+00 0. -1.
         -1   -1    0    0    0  501 -0.00000000000E+00 -0.00000000000E+00 -0.17262542629E+03  0.17262542629E+03  0.00000000000E+00 0.  1.
         25    2    1    2    0    0 -0.30705825121E+02 -0.95428395222E+02 -0.10958434258E+03  0.19418236625E+03  0.12509451192E+03 0.  0.
          5    1    3    3  502    0 -0.73401914174E+02 -0.27985830079E+02 -0.68500665199E+02  0.10431136670E+03  0.41800000000E+01 0.  1.
         -5    1    3    3    0  502  0.42696089053E+02 -0.67442565143E+02 -0.41083677378E+02  0.89870999551E+02  0.41800000000E+01 0.  1.
        -11    1    1    2    0    0  0.37439152549E+02  0.29993091398E+02  0.15322041393E+03  0.16055457303E+03  0.00000000000E+00 0. -1.
         11    1    1    2    0    0 -0.67333274276E+01  0.65435303825E+02  0.46279599597E+02  0.80429584257E+02  0.00000000000E+00 0.  1.
</event>
<event>
 7    1  0.2420569E-009  0.8383110E+02  0.7561462E-02  0.1318518E+00
         -2   -1    0    0    0  501 -0.00000000000E+00  0.00000000000E+00  0.25763670808E+03  0.25763670808E+03  0.00000000000E+00 0.  1.
          2   -1    0    0  501    0  0.00000000000E+00 -0.00000000000E+00 -0.61915078635E+02  0.61915078635E+02  0.00000000000E+00 0. -1.
         25    2    1    2    0    0  0.50713423682E+02 -0.31685465723E+02  0.15103345759E+03  0.20502581443E+03  0.12509460097E+03 0.  0.
          5    1    3    3  502    0  0.11184862531E+02 -0.18231533934E+02  0.16052831766E+03  0.16200093564E+03  0.41800000000E+01 0. -1.
         -5    1    3    3    0  502  0.39528561151E+02 -0.13453931790E+02 -0.94948600659E+01  0.43024878791E+02  0.41800000000E+01 0. -1.
        -11    1    1    2    0    0  0.91612219678E+01  0.42139658961E+02  0.90350258327E+01  0.44060305685E+02  0.00000000000E+00 0. -1.
         11    1    1    2    0    0 -0.59874645650E+02 -0.10454193237E+02  0.35653146025E+02  0.70465666601E+02  0.00000000000E+00 0.  1.
</event>
<event>
 7    1  0.2420569E-009  0.3017677E+03  0.7561462E-02  0.1084360E+00
         -1   -1    0    0    0  501 -0.00000000000E+00  0.00000000000E+00  0.33715938479E+03  0.33715938479E+03  0.00000000000E+00 0.  1.
          1   -1    0    0  501    0  0.00000000000E+00 -0.00000000000E+00 -0.31332385489E+03  0.31332385489E+03  0.00000000000E+00 0. -1.
         25    2    1    2    0    0 -0.18048124989E+03 -0.23362298066E+03  0.91507472883E+02  0.33342843728E+03  0.12509087311E+03 0.  0.
          5    1    3    3  502    0 -0.11875294358E+03 -0.87033378552E+02  0.93213594923E+02  0.17430811017E+03  0.41800000000E+01 0.  1.
         -5    1    3    3    0  502 -0.61728306309E+02 -0.14658960211E+03 -0.17061220403E+01  0.15912032711E+03  0.41800000000E+01 0.  1.
        -11    1    1    2    0    0  0.11005941136E+03  0.11498108348E+03 -0.80733139630E+02  0.17847006310E+03  0.00000000000E+00 0.  1.
         11    1    1    2    0    0  0.70421838533E+02  0.11864189718E+03  0.13061196651E+02  0.13858473930E+03  0.00000000000E+00 0. -1.
</event>
<event>
 7    1  0.2420569E-009  0.6111839E+02  0.7561462E-02  0.1393197E+00
          2   -1    0    0  501    0  0.00000000000E+00  0.00000000000E+00  0.10090123736E+03  0.10090123736E+03  0.00000000000E+00 0. -1.
         -2   -1    0    0    0  501 -0.00000000000E+00 -0.00000000000E+00 -0.12771432419E+03  0.12771432419E+03  0.00000000000E+00 0.  1.
         25    2    1    2    0    0 -0.29455982196E+02  0.16727190073E+02 -0.61763322980E+01  0.12974399283E+03  0.12509157773E+03 0.  0.
          5    1    3    3  502    0 -0.40662703304E+02 -0.12327158866E+02 -0.56256447722E+02  0.70623470575E+02  0.41800000000E+01 0.  1.
         -5    1    3    3    0  502  0.11206721108E+02  0.29054348940E+02  0.50080115424E+02  0.59120522251E+02  0.41800000000E+01 0.  1.
        -11    1    1    2    0    0  0.28304728500E+02  0.29069580205E+01 -0.53486587070E+02  0.60584016513E+02  0.00000000000E+00 0.  1.
         11    1    1    2    0    0  0.11512536961E+01 -0.19634148094E+02  0.32849832536E+02  0.38287552208E+02  0.00000000000E+00 0. -1.
</event>
<event>
 7    1  0.2420569E-009  0.1152485E+03  0.7561462E-02  0.1251148E+00
          3   -1    0    0  501    0  0.00000000000E+00  0.00000000000E+00  0.35128494263E+03  0.35128494263E+03  0.00000000000E+00 0. -1.
         -3   -1    0    0    0  501 -0.00000000000E+00 -0.00000000000E+00 -0.43400892215E+02  0.43400892215E+02  0.00000000000E+00 0.  1.
         25    2    1    2    0    0 -0.54700176467E+02  0.11793128215E+02  0.18542103830E+03  0.23056263925E+03  0.12508789708E+03 0.  0.
          5    1    3    3  502    0  0.59566372834E+01  0.56878071202E+02  0.10805570561E+03  0.12232785630E+03  0.41800000000E+01 0. -1.
         -5    1    3    3    0  502 -0.60656813750E+02 -0.45084942987E+02  0.77365332687E+02  0.10823478295E+03  0.41800000000E+01 0. -1.
        -11    1    1    2    0    0  0.26971868543E+02  0.34322789744E+02  0.19215131352E+02  0.47694411218E+02  0.00000000000E+00 0.  1.
         11    1    1    2    0    0  0.27728307924E+02 -0.46115917960E+02  0.10324788076E+03  0.11642878438E+03  0.00000000000E+00 0. -1.
</event>
<event>
 7    1  0.2420569E-009  0.1158461E+03  0.7561462E-02  0.1250111E+00
          1   -1    0    0  501    0  0.00000000000E+00  0.00000000000E+00  0.26375542548E+03  0.26375542548E+03  0.00000000000E+00 0. -1.
         -1   -1    0    0    0  501 -0.00000000000E+00 -0.00000000000E+00 -0.77276296630E+02  0.77276296630E+02  0.00000000000E+00 0.  1.
         25    2    1    2    0    0 -0.56419056413E+02  0.18829579177E+02  0.17531233758E+02  0.13961654853E+03  0.12509106078E+03 0.  0.
          5    1    3    3  502    0 -0.86448016051E+01  0.68291890715E+02  0.19947320871E+01  0.68992508929E+02  0.41800000000E+01 0.  1.
         -5    1    3    3    0  502 -0.47774254808E+02 -0.49462311539E+02  0.15536501671E+02  0.70624039600E+02  0.41800000000E+01 0.  1.
        -11    1    1    2    0    0 -0.11243390805E+02  0.14548883267E+02  0.23591459274E+01  0.18537783326E+02  0.00000000000E+00 0.  1.
         11    1    1    2    0    0  0.67662447219E+02 -0.33378462444E+02  0.16658874917E+03  0.18287739026E+03  0.00000000000E+00 0. -1.
</event>
<event>
 7    1  0.2420569E-009  0.1925861E+03  0.7561462E-02  0.1156149E+00
          1   -1    0    0  501    0  0.00000000000E+00  0.00000000000E+00  0.12573988040E+04  0.12573988040E+04  0.00000000000E+00 0. -1.
         -1   -1    0    0    0  501 -0.00000000000E+00 -0.00000000000E+00 -0.42431577926E+02  0.42431577926E+02  0.00000000000E+00 0.  1.
         25    2    1    2    0    0 -0.14416681602E+03 -0.97550398886E+02  0.91871935007E+03  0.94339440952E+03  0.12509043352E+03 0.  0.
          5    1    3    3  502    0 -0.16054056398E+03 -0.68623735822E+02  0.66822136801E+03  0.69066617035E+03  0.41800000000E+01 0.  1.
         -5    1    3    3    0  502  0.16373747959E+02 -0.28926663064E+02  0.25049798206E+03  0.25272823917E+03  0.41800000000E+01 0.  1.
        -11    1    1    2    0    0  0.31850327096E+02  0.39044675676E+02  0.23247232030E+02  0.55492015929E+02  0.00000000000E+00 0.  1.
         11    1    1    2    0    0  0.11231648892E+03  0.58505723209E+02  0.27300064401E+03  0.30094395652E+03  0.00000000000E+00 0. -1.
</event>
<event>
 7    1  0.2420569E-009  0.9286001E+02  0.7561462E-02  0.1296070E+00
          2   -1    0    0  501    0  0.00000000000E+00  0.00000000000E+00  0.26945267544E+03  0.26945267544E+03  0.00000000000E+00 0. -1.
         -2   -1    0    0    0  501 -0.00000000000E+00 -0.00000000000E+00 -0.76083133365E+02  0.76083133365E+02  0.00000000000E+00 0.  1.
         25    2    1    2    0    0 -0.86000845114E+02  0.72372482873E+01  0.61522071913E+02  0.16395828428E+03  0.12509528580E+03 0.  0.
          5    1    3    3  502    0 -0.86143749943E+02  0.15807622648E+02  0.94923026203E+02  0.12922259822E+03  0.41800000000E+01 0.  1.
         -5    1    3    3    0  502  0.14290482849E+00 -0.85703743603E+01 -0.33400954290E+02  0.34735686059E+02  0.41800000000E+01 0.  1.
        -11    1    1    2    0    0  0.46039925353E+02  0.59461782115E+01  0.13154614231E+03  0.13949702261E+03  0.00000000000E+00 0. -1.
         11    1    1    2    0    0  0.39960919762E+02 -0.13183426499E+02  0.30132785374E+00  0.42080501909E+02  0.00000000000E+00 0.  1.
</event>
<event>
 7    1  0.2420569E-009  0.2847763E+03  0.7561462E-02  0.1093108E+00
          2   -1    0    0  501    0  0.00000000000E+00  0.00000000000E+00  0.51873302555E+03  0.51873302555E+03  0.00000000000E+00 0. -1.
         -2   -1    0    0    0  501 -0.00000000000E+00 -0.00000000000E+00 -0.17620815005E+03  0.17620815005E+03  0.00000000000E+00 0.  1.
         25    2    1    2    0    0  0.10194423690E+03 -0.25758502642E+03  0.23538409507E+03  0.38444134369E+03  0.12508717463E+03 0.  0.
          5    1    3    3  502    0  0.55833251827E+02 -0.10851853669E+03  0.28700996230E+02  0.12543860809E+03  0.41800000000E+01 0.  1.
         -5    1    3    3    0  502  0.46110985072E+02 -0.14906648973E+03  0.20668309884E+03  0.25900273560E+03  0.41800000000E+01 0.  1.
        -11    1    1    2    0    0 -0.88074622178E+02  0.10040730627E+03  0.52718525351E+02  0.14358972505E+03  0.00000000000E+00 0. -1.
         11    1    1    2    0    0 -0.13869614720E+02  0.15717772015E+03  0.54422255080E+02  0.16691010686E+03  0.00000000000E+00 0.  1.
</event>
<event>
 7    1  0.2420569E-009  0.9549210E+02  0.7561462E-02  0.1290072E+00
         -2   -1    0    0    0  501 -0.00000000000E+00  0.00000000000E+00  0.13297180108E+03  0.13297180108E+03  0.00000000000E+00 0. -1.
          2   -1    0    0  501    0  0.00000000000E+00 -0.00000000000E+00 -0.95621785173E+02  0.95621785173E+02  0.00000000000E+00 0.  1.
         25    2    1    2    0    0 -0.15215252926E+02  0.22699206924E+02  0.65727994438E+01  0.12820362179E+03  0.12508480736E+03 0.  0.
          5    1    3    3  502    0  0.37958151720E+02 -0.50213439549E+01  0.43149318419E+02  0.57839184444E+02  0.41800000000E+01 0.  1.
         -5    1    3    3    0  502 -0.53173404646E+02  0.27720550879E+02 -0.36576518975E+02  0.70364437346E+02  0.41800000000E+01 0.  1.
        -11    1    1    2    0    0  0.40982852713E+02 -0.43112506991E+02  0.71612543337E+01  0.59912987234E+02  0.00000000000E+00 0.  1.
         11    1    1    2    0    0 -0.25767599787E+02  0.20413300067E+02  0.23615962134E+02  0.40476977234E+02  0.00000000000E+00 0. -1.
</event>
<event>
 7    1  0.2420569E-009  0.1283179E+03  0.7561462E-02  0.1229973E+00
          2   -1    0    0  501    0  0.00000000000E+00  0.00000000000E+00  0.35986667371E+03  0.35986667371E+03  0.00000000000E+00 0. -1.
         -2   -1    0    0    0  501 -0.00000000000E+00 -0.00000000000E+00 -0.74399313934E+02  0.74399313934E+02  0.00000000000E+00 0.  1.
         25    2    1    2    0    0  0.40674853725E+01  0.10298884628E+03  0.24332296902E+03  0.29236486707E+03  0.12509157185E+03 0.  0.
          5    1    3    3  502    0 -0.19545077069E+02  0.37071557166E+01  0.15793307625E+03  0.15923593192E+03  0.41800000000E+01 0.  1.
         -5    1    3    3    0  502  0.23612562442E+02  0.99281690562E+02  0.85389892773E+02  0.13312893515E+03  0.41800000000E+01 0.  1.
        -11    1    1    2    0    0 -0.41835450819E+02 -0.28396676966E+02  0.25589595834E+02  0.56669247594E+02  0.00000000000E+00 0. -1.
         11    1    1    2    0    0  0.37767965446E+02 -0.74592169313E+02  0.16554794919E+02  0.85231872979E+02  0.00000000000E+00 0.  1.
</event>
<event>
 7    1  0.2420569E-009  0.1012613E+03  0.7561462E-02  0.1277666E+00
         -1   -1    0    0    0  501 -0.00000000000E+00  0.00000000000E+00  0.63245463571E+02  0.63245463571E+02  0.00000000000E+00 0.  1.
          1   -1    0    0  501    0  0.00000000000E+00 -0.00000000000E+00 -0.21113848335E+03  0.21113848335E+03  0.00000000000E+00 0. -1.
         25    2    1    2    0    0 -0.11616210210E+02 -0.25947698301E+02 -0.11289186113E+03  0.17088147000E+03  0.12509070747E+03 0.  0.
          5    1    3    3  502    0 -0.57098144982E+02 -0.23561427273E+02 -0.16316496419E+02  0.64023741463E+02  0.41800000000E+01 0. -1.
         -5    1    3    3    0  502  0.45481934772E+02 -0.23862710277E+01 -0.96575364711E+02  0.10685772854E+03  0.41800000000E+01 0. -1.
        -11    1    1    2    0    0 -0.32880859702E+02  0.36519948784E+02 -0.29802617167E+02  0.57472198357E+02  0.00000000000E+00 0. -1.
         11    1    1    2    0    0  0.44497069912E+02 -0.10572250483E+02 -0.51985414841E+01  0.46030278563E+02  0.00000000000E+00 0.  1.
</event>
<event>
 7    1  0.2420569E-009  0.1013068E+03  0.7561462E-02  0.1277572E+00
         -2   -1    0    0    0  501 -0.00000000000E+00  0.00000000000E+00  0.53453190224E+03  0.53453190224E+03  0.00000000000E+00 0.  1.
          2   -1    0    0  501    0  0.00000000000E+00 -0.00000000000E+00 -0.28440481359E+02  0.28440481359E+02  0.00000000000E+00 0. -1.
         25    2    1    2    0    0  0.52768032298E+02  0.22393245818E+02  0.32465922805E+03  0.35261487870E+03  0.12509082954E+03 0.  0.
          5    1    3    3  502    0  0.84304219722E+02 -0.54891861448E+01  0.14342985898E+03  0.16651405188E+03  0.41800000000E+01 0.  1.
         -5    1    3    3    0  502 -0.31536187424E+02  0.27882431963E+02  0.18122936907E+03  0.18610082682E+03  0.41800000000E+01 0.  1.
        -11    1    1    2    0    0 -0.48909110707E+02 -0.36546892100E+02  0.18537149601E+03  0.19516753820E+03  0.00000000000E+00 0.  1.
         11    1    1    2    0    0 -0.38589215912E+01  0.14153646282E+02 -0.39393031764E+01  0.15189966703E+02  0.00000000000E+00 0. -1.
</event>
<event>
 7    1  0.2420569E-009  0.1590475E+03  0.7561462E-02  0.1189776E+00
         -2   -1    0    0    0  501 -0.00000000000E+00  0.00000000000E+00  0.11247369573E+03  0.11247369573E+03  0.00000000000E+00 0.  1.
          2   -1    0    0  501    0  0.00000000000E+00 -0.00000000000E+00 -0.23854490481E+03  0.23854490481E+03  0.00000000000E+00 0. -1.
         25    2    1    2    0    0 -0.92194077169E+02  0.78578378652E+02 -0.87593099919E+02  0.19492074826E+03  0.12508891834E+03 0.  0.
          5    1    3    3  502    0 -0.45153017618E+01  0.78897810930E+02 -0.13984533173E+02  0.80363499723E+02  0.41800000000E+01 0. -1.
         -5    1    3    3    0  502 -0.87678775407E+02 -0.31943227838E+00 -0.73608566746E+02  0.11455724854E+03  0.41800000000E+01 0. -1.
        -11    1    1    2    0    0 -0.80502297820E+01 -0.44617660745E+02 -0.14180692711E+02  0.47504040835E+02  0.00000000000E+00 0. -1.
         11    1    1    2    0    0  0.10024430695E+03 -0.33960717907E+02 -0.24297416453E+02  0.10859381144E+03  0.00000000000E+00 0.  1.
</event>
<event>
 7    1  0.2420569E-009  0.1044522E+03  0.7561462E-02  0.1271203E+00
         -1   -1    0    0    0  501 -0.00000000000E+00  0.00000000000E+00  0.25906687040E+02  0.25906687040E+02  0.00000000000E+00 0.  1.
          1   -1    0    0  501    0  0.00000000000E+00 -0.00000000000E+00 -0.61522523092E+03  0.61522523092E+03  0.00000000000E+00 0. -1.
         25    2    1    2    0    0  0.19556332407E+02  0.57347579041E+02 -0.37377402427E+03  0.39878043662E+03  0.12509044910E+03 0.  0.
          5    1    3    3  502    0  0.46243790980E+02 -0.16954519279E+02 -0.22433958128E+03  0.22972083941E+03  0.41800000000E+01 0. -1.
         -5    1    3    3    0  502 -0.26687458573E+02  0.74302098320E+02 -0.14943444299E+03  0.16905959721E+03  0.41800000000E+01 0. -1.
        -11    1    1    2    0    0  0.14564002870E+02 -0.39090990483E+02 -0.26577692830E+02  0.49463011157E+02  0.00000000000E+00 0.  1.
         11    1    1    2    0    0 -0.34120335277E+02 -0.18256588558E+02 -0.18896682678E+03  0.19288847018E+03  0.00000000000E+00 0. -1.
</event>
<event>
 7    1  0.2420569E-009  0.2023506E+03  0.7561462E-02  0.1147771E+00
         -3   -1    0    0    0  501 -0.00000000000E+00  0.00000000000E+00  0.57233457262E+03  0.57233457262E+03  0.00000000000E+00 0.  1.
          3   -1    0    0  501    0  0.00000000000E+00 -0.00000000000E+00 -0.78860792435E+02  0.78860792435E+02  0.00000000000E+00 0. -1.
         25    2    1    2    0    0  0.13709125444E+03 -0.12014084171E+03  0.25719999068E+03  0.33915627083E+03  0.12508919598E+03 0.  0.
          5    1    3    3  502    0  0.42889082715E+02 -0.11378622927E+03  0.10883027657E+03  0.16324301175E+03  0.41800000000E+01 0. -1.
         -5    1    3    3    0  502  0.94202171720E+02 -0.63546124446E+01  0.14836971411E+03  0.17591325908E+03  0.41800000000E+01 0. -1.
        -11    1    1    2    0    0 -0.13164022344E+03  0.93849084815E+02  0.14593049294E+03  0.21779005468E+03  0.00000000000E+00 0. -1.
         11    1    1    2    0    0 -0.54510309935E+01  0.26291756899E+02  0.90343296564E+02  0.94249039538E+02  0.00000000000E+00 0.  1.
</event>
<event>
 7    1  0.2453270E-009  0.8475997E+02  0.7561462E-02  0.1316061E+00
          1   -1    0    0  501    0  0.00000000000E+00  0.00000000000E+00  0.12281673412E+03  0.12281673412E+03  0.00000000000E+00 0. -1.
         -1   -1    0    0    0  501 -0.00000000000E+00 -0.00000000000E+00 -0.14073404833E+03  0.14073404833E+03  0.00000000000E+00 0.  1.
         25    2    1    2    0    0  0.25782406455E+02  0.64624559298E+02 -0.34804234363E+02  0.14731098309E+03  0.12509246525E+03 0.  0.
          5    1    3    3  502    0 -0.22505433318E+01  0.39842079634E+02  0.44260073868E+02  0.59740127165E+02  0.41800000000E+01 0.  1.
         -5    1    3    3    0  502  0.28032949787E+02  0.24782479663E+02 -0.79064308231E+02  0.87570855929E+02  0.41800000000E+01 0.  1.
        -11    1    1    2    0    0 -0.40936564824E+02 -0.21926510315E+02 -0.26534252199E+02  0.53484958015E+02  0.00000000000E+00 0.  1.
         11    1    1    2    0    0  0.15154158368E+02 -0.42698048983E+02  0.43421172352E+02  0.62754841336E+02  0.00000000000E+00 0. -1.
</event>
<event>
 7    1  0.2420569E-009  0.1424673E+03  0.7561462E-02  0.1210047E+00
         -2   -1    0    0    0  501 -0.00000000000E+00  0.00000000000E+00  0.45707567512E+02  0.45707567512E+02  0.00000000000E+00 0.  1.
          2   -1    0    0  501    0  0.00000000000E+00 -0.00000000000E+00 -0.60789047879E+03  0.60789047879E+03  0.00000000000E+00 0. -1.
         25    2    1    2    0    0  0.10150635741E+03  0.68860262309E+02 -0.24372672767E+03  0.30016033703E+03  0.12509290078E+03 0.  0.
          5    1    3    3  502    0  0.23605593302E+02 -0.19059561565E+02 -0.11981035612E+01  0.30649612956E+02  0.41800000000E+01 0.  1.
         -5    1    3    3    0  502  0.77900764113E+02  0.87919823874E+02 -0.24252862411E+03  0.26951072408E+03  0.41800000000E+01 0.  1.
        -11    1    1    2    0    0 -0.40495072371E+02 -0.63773948284E+02 -0.25199713068E+03  0.26307702529E+03  0.00000000000E+00 0.  1.
         11    1    1    2    0    0 -0.61011285044E+02 -0.50863140252E+01 -0.66459052928E+02  0.90360683979E+02  0.00000000000E+00 0. -1.
</event>
<event>
 7    1  0.2420569E-009  0.1910083E+03  0.7561462E-02  0.1157555E+00
          4   -1    0    0  501    0  0.00000000000E+00  0.00000000000E+00  0.21954402426E+02  0.21954402426E+02  0.00000000000E+00 0. -1.
         -4   -1    0    0    0  501 -0.00000000000E+00 -0.00000000000E+00 -0.19421345508E+04  0.19421345508E+04  0.00000000000E+00 0.  1.
         25    2    1    2    0    0 -0.15799576754E+03 -0.70917460700E+02 -0.11181081139E+04  0.11383348016E+04  0.12509363434E+03 0.  0.
          5    1    3    3  502    0 -0.13175490773E+02 -0.35278261260E+02 -0.69426109517E+02  0.79092391273E+02  0.41800000000E+01 0.  1.
         -5    1    3    3    0  502 -0.14482027676E+03 -0.35639199441E+02 -0.10486820044E+04  0.10592424103E+04  0.41800000000E+01 0.  1.
        -11    1    1    2    0    0  0.60926586134E+02 -0.17747838319E+02 -0.30954288613E+03  0.31598074786E+03  0.00000000000E+00 0. -1.
         11    1    1    2    0    0  0.97069181403E+02  0.88665299019E+02 -0.49252914830E+03  0.50977340373E+03  0.00000000000E+00 0.  1.
</event>
<event>
 7    1  0.2420569E-009  0.9124460E+02  0.7561462E-02  0.1299865E+00
         -1   -1    0    0    0  501 -0.00000000000E+00  0.00000000000E+00  0.31118203610E+03  0.31118203610E+03  0.00000000000E+00 0.  1.
          1   -1    0    0  501    0  0.00000000000E+00 -0.00000000000E+00 -0.57191235730E+02  0.57191235730E+02  0.00000000000E+00 0. -1.
         25    2    1    2    0    0 -0.29848989827E+02  0.21413374518E+02  0.19246750446E+03  0.23246407151E+03  0.12508520883E+03 0.  0.
          5    1    3    3  502    0 -0.11010438727E+02  0.62172128670E+02  0.17136555254E+03  0.18267519903E+03  0.41800000000E+01 0. -1.
         -5    1    3    3    0  502 -0.18838551100E+02 -0.40758754153E+02  0.21101951923E+02  0.49788872477E+02  0.41800000000E+01 0. -1.
        -11    1    1    2    0    0 -0.20529310346E+02 -0.49800954649E+01  0.77687083467E+02  0.80507992596E+02  0.00000000000E+00 0.  1.
         11    1    1    2    0    0  0.50378300173E+02 -0.16433279053E+02 -0.16163787563E+02  0.55401207722E+02  0.00000000000E+00 0. -1.
</event>
<event>
 7    1  0.2420569E-009  0.1190641E+03  0.7561462E-02  0.1244649E+00
          2   -1    0    0  501    0  0.00000000000E+00  0.00000000000E+00  0.15462331331E+03  0.15462331331E+03  0.00000000000E+00 0. -1.
         -2   -1    0    0    0  501 -0.00000000000E+00 -0.00000000000E+00 -0.10450068559E+03  0.10450068559E+03  0.00000000000E+00 0.  1.
         25    2    1    2    0    0 -0.53062188818E+02 -0.86838320583E-01 -0.11168705953E+02  0.13634651487E+03  0.12510007475E+03 0.  0.
          5    1    3    3  502    0 -0.64187578176E+02 -0.50408777949E+02  0.57973572504E+01  0.81927845312E+02  0.41800000000E+01 0.  1.
         -5    1    3    3    0  502  0.11125389358E+02  0.50321939628E+02 -0.16966063203E+02  0.54418669562E+02  0.41800000000E+01 0.  1.
        -11    1    1    2    0    0  0.53467769446E+01  0.41302950665E+02  0.13916669937E+02  0.43911222478E+02  0.00000000000E+00 0.  1.
         11    1    1    2    0    0  0.47715411873E+02 -0.41216112345E+02  0.47374663728E+02  0.78866261547E+02  0.00000000000E+00 0. -1.
</event>
<event>
 7    1  0.2420569E-009  0.9893496E+02  0.7561462E-02  0.1282552E+00
          2   -1    0    0  501    0  0.00000000000E+00  0.00000000000E+00  0.23996134520E+03  0.23996134520E+03  0.00000000000E+00 0. -1.
         -2   -1    0    0    0  501 -0.00000000000E+00 -0.00000000000E+00 -0.79784034853E+02  0.79784034853E+02  0.00000000000E+00 0.  1.
         25    2    1    2    0    0 -0.30778823550E+02  0.58404539350E+02  0.25366462821E+02  0.14369846035E+03  0.12508942351E+03 0.  0.
          5    1    3    3  502    0  0.11142721216E+02 -0.30855695117E+02 -0.15926009572E+02  0.36706189371E+02  0.41800000000E+01 0. -1.
         -5    1    3    3    0  502 -0.41921544766E+02  0.89260234466E+02  0.41292472393E+02  0.10699227098E+03  0.41800000000E+01 0. -1.
        -11    1    1    2    0    0  0.15383014318E+02 -0.32603667953E+02 -0.18737102574E+01  0.36099128572E+02  0.00000000000E+00 0.  1.
         11    1    1    2    0    0  0.15395809232E+02 -0.25800871397E+02  0.13668455778E+03  0.13994779113E+03  0.00000000000E+00 0. -1.
</event>
<event>
 7    1  0.2420569E-009  0.8811538E+02  0.7561462E-02  0.1307481E+00
         -3   -1    0    0    0  501 -0.00000000000E+00  0.00000000000E+00  0.38398308515E+02  0.38398308515E+02  0.00000000000E+00 0. -1.
          3   -1    0    0  501    0  0.00000000000E+00 -0.00000000000E+00 -0.32512832319E+03  0.32512832319E+03  0.00000000000E+00 0.  1.
         25    2    1    2    0    0  0.14606579468E+02 -0.26629424263E+02 -0.14919818578E+03  0.19705496614E+03  0.12509229649E+03 0.  0.
          5    1    3    3  502    0  0.43172125600E+02  0.24622907451E+02 -0.12287144359E+03  0.13260838604E+03  0.41800000000E+01 0. -1.
         -5    1    3    3    0  502 -0.28565546132E+02 -0.51252331715E+02 -0.26326742189E+02  0.64446580098E+02  0.41800000000E+01 0. -1.
        -11    1    1    2    0    0  0.78074113772E+01 -0.16874127638E+02  0.19108489018E+01  0.18690724959E+02  0.00000000000E+00 0. -1.
         11    1    1    2    0    0 -0.22413990845E+02  0.43503551902E+02 -0.13944267780E+03  0.14778094061E+03  0.00000000000E+00 0.  1.
</event>
<event>
 7    1  0.2420569E-009  0.6476100E+02  0.7561462E-02  0.1378873E+00
         -1   -1    0    0    0  501 -0.00000000000E+00  0.00000000000E+00  0.12097662984E+03  0.12097662984E+03  0.00000000000E+00 0.  1.
          1   -1    0    0  501    0  0.00000000000E+00 -0.00000000000E+00 -0.89436151342E+02  0.89436151342E+02  0.00000000000E+00 0. -1.
         25    2    1    2    0    0 -0.19955616182E+01  0.22328757480E+02  0.50818988295E+00  0.12710210600E+03  0.12510847860E+03 0.  0.
          5    1    3    3  502    0 -0.28231970235E+02  0.73363081652E+01 -0.55776478471E+02  0.63082117209E+02  0.41800000000E+01 0. -1.
         -5    1    3    3    0  502  0.26236408617E+02  0.14992449315E+02  0.56284668354E+02  0.64019988795E+02  0.41800000000E+01 0. -1.
        -11    1    1    2    0    0  0.96796102329E+01  0.22275382459E+02  0.29243627429E+02  0.38014171873E+02  0.00000000000E+00 0.  1.
         11    1    1    2    0    0 -0.76840486147E+01 -0.44604139939E+02  0.17886611856E+01  0.45296503305E+02  0.00000000000E+00 0. -1.
</event>
<event>
 7    1  0.2420569E-009  0.1803969E+03  0.7561462E-02  0.1167419E+00
          2   -1    0    0  501    0  0.00000000000E+00  0.00000000000E+00  0.90589818769E+03  0.90589818769E+03  0.00000000000E+00 0.  1.
         -2   -1    0    0    0  501 -0.00000000000E+00 -0.00000000000E+00 -0.41608937480E+02  0.41608937480E+02  0.00000000000E+00 0. -1.
         25    2    1    2    0    0  0.57419437735E+02 -0.14782438528E+03  0.50774269750E+03  0.54644256042E+03  0.12509110386E+03 0.  0.
          5    1    3    3  502    0  0.48354921554E+01 -0.14290266107E+03  0.30477808133E+03  0.33667744769E+03  0.41800000000E+01 0.  1.
         -5    1    3    3    0  502  0.52583945579E+02 -0.49217242068E+01  0.20296461617E+03  0.20976511273E+03  0.41800000000E+01 0.  1.
        -11    1    1    2    0    0 -0.28240344956E+02  0.12377809630E+03  0.33334346699E+03  0.35670211829E+03  0.00000000000E+00 0. -1.
         11    1    1    2    0    0 -0.29179092779E+02  0.24046288976E+02  0.23203085723E+02  0.44362446461E+02  0.00000000000E+00 0.  1.
</event>
<event>
 7    1  0.2420569E-009  0.1024760E+03  0.7561462E-02  0.1275174E+00
          2   -1    0    0  501    0  0.00000000000E+00  0.00000000000E+00  0.39991206541E+02  0.39991206541E+02  0.00000000000E+00 0.  1.
         -2   -1    0    0    0  501 -0.00000000000E+00 -0.00000000000E+00 -0.40997164420E+03  0.40997164420E+03  0.00000000000E+00 0. -1.
         25    2    1    2    0    0  0.89204720103E+01 -0.47955411178E+02 -0.12083572727E+03  0.18063160336E+03  0.12508879592E+03 0.  0.
          5    1    3    3  502    0 -0.31423165935E+02  0.20546199969E+02 -0.85616869791E+02  0.93580353084E+02  0.41800000000E+01 0.  1.
         -5    1    3    3    0  502  0.40343637945E+02 -0.68501611146E+02 -0.35218857477E+02  0.87051250274E+02  0.41800000000E+01 0.  1.
        -11    1    1    2    0    0 -0.33869491164E+02  0.52234087927E+02 -0.22800710452E+03  0.23635308774E+03  0.00000000000E+00 0. -1.
         11    1    1    2    0    0  0.24949019153E+02 -0.42786767497E+01 -0.21137605875E+02  0.32978159645E+02  0.00000000000E+00 0.  1.
</event>
<event>
 7    1  0.2420569E-009  0.1622411E+03  0.7561462E-02  0.1186190E+00
          2   -1    0    0  501    0  0.00000000000E+00  0.00000000000E+00  0.12085163778E+04  0.12085163778E+04  0.00000000000E+00 0. -1.
         -2   -1    0    0    0  501 -0.00000000000E+00 -0.00000000000E+00 -0.34221265888E+02  0.34221265888E+02  0.00000000000E+00 0.  1.
         25    2    1    2    0    0  0.11337836342E+03  0.11809245980E+02  0.92534811366E+03  0.94069674228E+03  0.12508844033E+03 0.  0.
          5    1    3    3  502    0  0.10245008234E+03 -0.33946326899E+02  0.78991884268E+03  0.79726885233E+03  0.41800000000E+01 0. -1.
         -5    1    3    3    0  502  0.10928281082E+02  0.45755572879E+02  0.13542927098E+03  0.14342788995E+03  0.41800000000E+01 0. -1.
        -11    1    1    2    0    0 -0.26216784346E+02  0.54001869356E+02  0.68167183395E+02  0.90831088111E+02  0.00000000000E+00 0.  1.
         11    1    1    2    0    0 -0.87161579079E+02 -0.65811115336E+02  0.18077981481E+03  0.21120981325E+03  0.00000000000E+00 0. -1.
</event>
<event>
 7    1  0.2420569E-009  0.1097758E+03  0.7561462E-02  0.1260986E+00
         -1   -1    0    0    0  501 -0.00000000000E+00  0.00000000000E+00  0.15593345179E+03  0.15593345179E+03  0.00000000000E+00 0.  1.
          1   -1    0    0  501    0  0.00000000000E+00 -0.00000000000E+00 -0.11573960907E+03  0.11573960907E+03  0.00000000000E+00 0. -1.
         25    2    1    2    0    0  0.74704504356E+01  0.72191326554E+02  0.51603047753E+02  0.15354841859E+03  0.12508735769E+03 0.  0.
          5    1    3    3  502    0  0.43015372799E+02 -0.43891310584E+00  0.57993305320E+02  0.72327109743E+02  0.41800000000E+01 0. -1.
         -5    1    3    3    0  502 -0.35544922363E+02  0.72630239660E+02 -0.63902575676E+01  0.81221308846E+02  0.41800000000E+01 0. -1.
        -11    1    1    2    0    0 -0.34888574535E+02 -0.40094350960E+02 -0.40531893982E+02  0.66840137954E+02  0.00000000000E+00 0. -1.
         11    1    1    2    0    0  0.27418124099E+02 -0.32096975594E+02  0.29122688950E+02  0.51284504318E+02  0.00000000000E+00 0.  1.
</event>
<event>
 7    1  0.2420569E-009  0.1045576E+03  0.7561462E-02  0.1270994E+00
         -1   -1    0    0    0  501 -0.00000000000E+00  0.00000000000E+00  0.16429809058E+03  0.16429809058E+03  0.00000000000E+00 0.  1.
          1   -1    0    0  501    0  0.00000000000E+00 -0.00000000000E+00 -0.84478861859E+02  0.84478861859E+02  0.00000000000E+00 0. -1.
         25    2    1    2    0    0 -0.22233449846E+01  0.34111442264E+02  0.77741337902E+02  0.15121018103E+03  0.12510903034E+03 0.  0.
          5    1    3    3  502    0 -0.56089592125E+02  0.20172087272E+02  0.74244843040E+02  0.95303329258E+02  0.41800000000E+01 0.  1.
         -5    1    3    3    0  502  0.53866247140E+02  0.13939354992E+02  0.34964948614E+01  0.55906851771E+02  0.41800000000E+01 0.  1.
        -11    1    1    2    0    0 -0.17045579715E+02  0.25636745919E+02  0.13741751654E+02  0.33713947672E+02  0.00000000000E+00 0.  1.
         11    1    1    2    0    0  0.19268924700E+02 -0.59748188183E+02 -0.11663860831E+02  0.63852823741E+02  0.00000000000E+00 0. -1.
</event>
<event>
 7    1  0.2420569E-009  0.6532808E+02  0.7561462E-02  0.1376742E+00
          2   -1    0    0  501    0  0.00000000000E+00  0.00000000000E+00  0.20476895118E+03  0.20476895118E+03  0.00000000000E+00 0.  1.
         -2   -1    0    0    0  501 -0.00000000000E+00 -0.00000000000E+00 -0.86689337596E+02  0.86689337596E+02  0.00000000000E+00 0. -1.
         25    2    1    2    0    0 -0.25986772521E+02  0.16524498875E+02  0.14251900063E+03  0.19211705506E+03  0.12509566698E+03 0.  0.
          5    1    3    3  502    0 -0.25568195383E+02  0.24162250102E+02  0.16460450785E+03  0.16837358269E+03  0.41800000000E+01 0. -1.
         -5    1    3    3    0  502 -0.41857713873E+00 -0.76377512267E+01 -0.22085507223E+02  0.23743472365E+02  0.41800000000E+01 0. -1.
        -11    1    1    2    0    0  0.54239742148E+02 -0.20494546837E+02 -0.36338769570E+02  0.68428665428E+02  0.00000000000E+00 0. -1.
         11    1    1    2    0    0 -0.28252969627E+02  0.39700479616E+01  0.11899382526E+02  0.30912568286E+02  0.00000000000E+00 0.  1.
</event>
<event>
 7    1  0.2420569E-009  0.9914161E+02  0.7561462E-02  0.1282111E+00
         -1   -1    0    0    0  501 -0.00000000000E+00  0.00000000000E+00  0.15776550018E+03  0.15776550018E+03  0.00000000000E+00 0.  1.
          1   -1    0    0  501    0  0.00000000000E+00 -0.00000000000E+00 -0.14800741533E+03  0.14800741533E+03  0.00000000000E+00 0. -1.
         25    2    1    2    0    0  0.23893844392E+00  0.33004600890E+02  0.10822923126E+03  0.16867284807E+03  0.12509037695E+03 0.  0.
          5    1    3    3  502    0  0.39901141665E+02 -0.30090733670E+02  0.66067476962E+02  0.82945387280E+02  0.41800000000E+01 0. -1.
         -5    1    3    3    0  502 -0.39662203221E+02  0.63095334560E+02  0.42161754299E+02  0.85727460788E+02  0.41800000000E+01 0. -1.
        -11    1    1    2    0    0 -0.32893184406E+02 -0.18731929170E+02 -0.64229253948E+01  0.38394019345E+02  0.00000000000E+00 0.  1.
         11    1    1    2    0    0  0.32654245962E+02 -0.14272671721E+02 -0.92048221016E+02  0.98706048090E+02  0.00000000000E+00 0. -1.
</event>
<event>
 7    1  0.2420569E-009  0.1021481E+03  0.7561462E-02  0.1275843E+00
          2   -1    0    0  501    0  0.00000000000E+00  0.00000000000E+00  0.24371434195E+03  0.24371434195E+03  0.00000000000E+00 0.  1.
         -2   -1    0    0    0  501 -0.00000000000E+00 -0.00000000000E+00 -0.45566854120E+02  0.45566854120E+02  0.00000000000E+00 0. -1.
         25    2    1    2    0    0 -0.24540611506E+02 -0.18653302536E+02  0.12357981844E+03  0.17852266058E+03  0.12509269167E+03 0.  0.
          5    1    3    3  502    0  0.45140144215E+02 -0.30829582968E+02  0.73756491571E+02  0.91899881690E+02  0.41800000000E+01 0. -1.
         -5    1    3    3    0  502 -0.69680755722E+02  0.12176280432E+02  0.49823326866E+02  0.86622778893E+02  0.41800000000E+01 0. -1.
        -11    1    1    2    0    0  0.40748981458E+02 -0.13232928121E+02  0.24908631180E+02  0.49558347266E+02  0.00000000000E+00 0. -1.
         11    1    1    2    0    0 -0.16208369951E+02  0.31886230657E+02  0.49659038215E+02  0.61200188222E+02  0.00000000000E+00 0.  1.
</event>
<event>
 7    1  0.2420569E-009  0.1420677E+03  0.7561462E-02  0.1210574E+00
         -1   -1    0    0    0  501 -0.00000000000E+00  0.00000000000E+00  0.44350306449E+03  0.44350306449E+03  0.00000000000E+00 0.  1.
          1   -1    0    0  501    0  0.00000000000E+00 -0.00000000000E+00 -0.67618695381E+02  0.67618695381E+02  0.00000000000E+00 0. -1.
         25    2    1    2    0    0  0.10987553113E+03 -0.40722893656E+02  0.29841024494E+03  0.34413774684E+03  0.12510446876E+03 0.  0.
          5    1    3    3  502    0  0.10361371187E+03  0.20039373040E+02  0.22492982747E+03  0.24849200680E+03  0.41800000000E+01 0. -1.
         -5    1    3    3    0  502  0.62618192535E+01 -0.60762266695E+02  0.73480417473E+02  0.95645740032E+02  0.41800000000E+01 0. -1.
        -11    1    1    2    0    0 -0.95237552151E+02  0.37129434623E+02  0.97940294753E+02  0.14156654828E+03  0.00000000000E+00 0.  1.
         11    1    1    2    0    0 -0.14637978975E+02  0.35934590326E+01 -0.20466170585E+02  0.25417464758E+02  0.00000000000E+00 0. -1.
</event>
<event>
 7    1  0.2420569E-009  0.2676976E+03  0.7561462E-02  0.1102605E+00
          1   -1    0    0  501    0  0.00000000000E+00  0.00000000000E+00  0.11078709457E+03  0.11078709457E+03  0.00000000000E+00 0. -1.
         -1   -1    0    0    0  501 -0.00000000000E+00 -0.00000000000E+00 -0.73010264935E+03  0.73010264935E+03  0.00000000000E+00 0.  1.
         25    2    1    2    0    0 -0.19431005333E+03  0.17574392458E+03 -0.34505932098E+03  0.45094933249E+03  0.12508813543E+03 0.  0.
          5    1    3    3  502    0 -0.85244958777E+02  0.12139818764E+03 -0.26907674651E+03  0.30728486925E+03  0.41800000000E+01 0. -1.
         -5    1    3    3    0  502 -0.10906509456E+03  0.54345736942E+02 -0.75982574468E+02  0.14366446324E+03  0.41800000000E+01 0. -1.
        -11    1    1    2    0    0  0.88631189658E+02 -0.10726685503E+03 -0.20034795023E+03  0.24392820077E+03  0.00000000000E+00 0.  1.
         11    1    1    2    0    0  0.10567886368E+03 -0.68477069547E+02 -0.73908283574E+02  0.14601221066E+03  0.00000000000E+00 0. -1.
</event>
<event>
 7    1  0.2420569E-009  0.2067844E+03  0.7561462E-02  0.1144138E+00
         -2   -1    0    0    0  501 -0.00000000000E+00  0.00000000000E+00  0.23306432676E+03  0.23306432676E+03  0.00000000000E+00 0. -1.
          2   -1    0    0  501    0  0.00000000000E+00 -0.00000000000E+00 -0.22217017999E+03  0.22217017999E+03  0.00000000000E+00 0.  1.
         25    2    1    2    0    0  0.17478208296E+03  0.25995983440E+02 -0.86674613942E+02  0.23321152616E+03  0.12510219643E+03 0.  0.
          5    1    3    3  502    0  0.10618486346E+03  0.75647691421E+02 -0.64798408570E+02  0.14565062512E+03  0.41800000000E+01 0. -1.
         -5    1    3    3    0  502  0.68597219507E+02 -0.49651707981E+02 -0.21876205372E+02  0.87560901040E+02  0.41800000000E+01 0. -1.
        -11    1    1    2    0    0 -0.17235541090E+03 -0.45842566252E+02  0.94364050370E+02  0.20177339406E+03  0.00000000000E+00 0.  1.
         11    1    1    2    0    0 -0.24266720625E+01  0.19846582812E+02  0.32047103428E+01  0.20249586539E+02  0.00000000000E+00 0. -1.
</event>
<event>
 7    1  0.2420569E-009  0.6005609E+02  0.7561462E-02  0.1397597E+00
          2   -1    0    0  501    0  0.00000000000E+00  0.00000000000E+00  0.96469396176E+03  0.96469396176E+03  0.00000000000E+00 0. -1.
         -2   -1    0    0    0  501 -0.00000000000E+00 -0.00000000000E+00 -0.13797657522E+02  0.13797657522E+02  0.00000000000E+00 0.  1.
         25    2    1    2    0    0 -0.10822268102E+02 -0.50114627023E+01  0.72713272623E+03  0.73791017360E+03  0.12508871458E+03 0.  0.
          5    1    3    3  502    0 -0.91840766038E+01 -0.30272597625E+02  0.44302964346E+02  0.54598557489E+02  0.41800000000E+01 0.  1.
         -5    1    3    3    0  502 -0.16381914981E+01  0.25261134923E+02  0.68282976188E+03  0.68331161611E+03  0.41800000000E+01 0.  1.
        -11    1    1    2    0    0 -0.19863341025E+01 -0.27515516184E+02  0.20593682086E+02  0.34425991575E+02  0.00000000000E+00 0.  1.
         11    1    1    2    0    0  0.12808602204E+02  0.32526978887E+02  0.20316989593E+03  0.20615545411E+03  0.00000000000E+00 0. -1.
</event>
<event>
 7    1  0.2420569E-009  0.1278704E+03  0.7561462E-02  0.1230650E+00
         -3   -1    0    0    0  501 -0.00000000000E+00  0.00000000000E+00  0.19582389717E+03  0.19582389717E+03  0.00000000000E+00 0.  1.
          3   -1    0    0  501    0  0.00000000000E+00 -0.00000000000E+00 -0.92842355152E+02  0.92842355152E+02  0.00000000000E+00 0. -1.
         25    2    1    2    0    0 -0.16938403716E+02 -0.71551592175E+02  0.26207920353E+02  0.14744838825E+03  0.12509049622E+03 0.  0.
          5    1    3    3  502    0  0.13445323645E+02  0.32721479887E+02 -0.89309916882E-01  0.35622357448E+02  0.41800000000E+01 0. -1.
         -5    1    3    3    0  502 -0.30383727361E+02 -0.10427307206E+03  0.26297230270E+02  0.11182603080E+03  0.41800000000E+01 0. -1.
        -11    1    1    2    0    0  0.30701584757E+02 -0.71577333174E+01  0.16865306489E+01  0.31569999025E+02  0.00000000000E+00 0.  1.
         11    1    1    2    0    0 -0.13763181041E+02  0.78709325492E+02  0.75087091017E+02  0.10964786505E+03  0.00000000000E+00 0. -1.
</event>
<event>
 7    1  0.2420569E-009  0.2167078E+03  0.7561462E-02  0.1136362E+00
          2   -1    0    0  501    0  0.00000000000E+00  0.00000000000E+00  0.55508071538E+03  0.55508071538E+03  0.00000000000E+00 0.  1.
         -2   -1    0    0    0  501 -0.00000000000E+00 -0.00000000000E+00 -0.10255649527E+03  0.10255649527E+03  0.00000000000E+00 0. -1.
         25    2    1    2    0    0  0.12665428009E+03 -0.16768616202E+03  0.19174807478E+03  0.31076477878E+03  0.12508983951E+03 0.  0.
          5    1    3    3  502    0 -0.97001392881E+01 -0.14700624876E+02  0.70123779056E+02  0.72422495560E+02  0.41800000000E+01 0. -1.
         -5    1    3    3    0  502  0.13635441938E+03 -0.15298553715E+03  0.12162429572E+03  0.23834228322E+03  0.41800000000E+01 0. -1.
        -11    1    1    2    0    0 -0.74283133419E+02  0.10569155891E+03  0.22218064267E+03  0.25700764096E+03  0.00000000000E+00 0.  1.
         11    1    1    2    0    0 -0.52371146673E+02  0.61994603111E+02  0.38595502670E+02  0.89864790909E+02  0.00000000000E+00 0. -1.
</event>
<event>
 7    1  0.2420569E-009  0.1125040E+03  0.7561462E-02  0.1256002E+00
          2   -1    0    0  501    0  0.00000000000E+00  0.00000000000E+00  0.14909686836E+03  0.14909686836E+03  0.00000000000E+00 0. -1.
         -2   -1    0    0    0  501 -0.00000000000E+00 -0.00000000000E+00 -0.10381755141E+03  0.10381755141E+03  0.00000000000E+00 0.  1.
         25    2    1    2    0    0  0.28198504728E+02  0.31481189628E+02 -0.18948882411E+02  0.13338884724E+03  0.12508918200E+03 0.  0.
          5    1    3    3  502    0  0.17794245491E+02  0.79325853295E+02 -0.20730901129E+01  0.81430929481E+02  0.41800000000E+01 0.  1.
         -5    1    3    3    0  502  0.10404259237E+02 -0.47844663667E+02 -0.16875792298E+02  0.51957917754E+02  0.41800000000E+01 0.  1.
        -11    1    1    2    0    0 -0.16048005542E+02  0.28799842265E+02  0.35912150745E+01  0.33164231065E+02  0.00000000000E+00 0.  1.
         11    1    1    2    0    0 -0.12150499186E+02 -0.60281031893E+02  0.60636984285E+02  0.86361341465E+02  0.00000000000E+00 0. -1.
</event>
<event>
 7    1  0.2420569E-009  0.6927031E+02  0.7561462E-02  0.1362592E+00
         -2   -1    0    0    0  501 -0.00000000000E+00  0.00000000000E+00  0.37404793380E+03  0.37404793380E+03  0.00000000000E+00 0.  1.
          2   -1    0    0  501    0  0.00000000000E+00 -0.00000000000E+00 -0.47206451133E+02  0.47206451133E+02  0.00000000000E+00 0. -1.
         25    2    1    2    0    0  0.43674348217E+01 -0.11247011052E+02  0.30592222051E+03  0.33072889397E+03  0.12509047350E+03 0.  0.
          5    1    3    3  502    0 -0.17658632253E+02  0.42329142037E+02  0.23298538241E+03  0.23749367228E+03  0.41800000000E+01 0.  1.
         -5    1    3    3    0  502  0.22026067074E+02 -0.53576153089E+02  0.72936838105E+02  0.93235221688E+02  0.41800000000E+01 0.  1.
        -11    1    1    2    0    0 -0.15341893234E+02 -0.37794962312E+01 -0.31315264145E+02  0.35075690274E+02  0.00000000000E+00 0. -1.
         11    1    1    2    0    0  0.10974458412E+02  0.15026507283E+02  0.52234526297E+02  0.55449800685E+02  0.00000000000E+00 0.  1.
</event>
<event>
 7    1  0.2420569E-009  0.1066228E+03  0.7561462E-02  0.1266955E+00
         -2   -1    0    0    0  501 -0.00000000000E+00  0.00000000000E+00  0.11929730167E+03  0.11929730167E+03  0.00000000000E+00 0.  1.
          2   -1    0    0  501    0  0.00000000000E+00 -0.00000000000E+00 -0.10917706816E+03  0.10917706816E+03  0.00000000000E+00 0. -1.
         25    2    1    2    0    0 -0.41245580680E+01 -0.13405411589E+02 -0.28332818768E+02  0.12901244715E+03  0.12507895851E+03 0.  0.
          5    1    3    3  502    0  0.48390337094E+02 -0.40265767809E+02 -0.29990005115E+02  0.69855777056E+02  0.41800000000E+01 0. -1.
         -5    1    3    3    0  502 -0.52514895162E+02  0.26860356220E+02  0.16571863470E+01  0.59156670095E+02  0.41800000000E+01 0. -1.
        -11    1    1    2    0    0  0.26706912312E+02 -0.31173357970E+02  0.23502090457E+02  0.47301011281E+02  0.00000000000E+00 0.  1.
         11    1    1    2    0    0 -0.22582354244E+02  0.44578769559E+02  0.14950961820E+02  0.52160911398E+02  0.00000000000E+00 0. -1.
</event>
<event>
 7    1  0.2420569E-009  0.7435244E+02  0.7561462E-02  0.1345888E+00
         -1   -1    0    0    0  501 -0.00000000000E+00  0.00000000000E+00  0.40469617953E+02  0.40469617953E+02  0.00000000000E+00 0.  1.
          1   -1    0    0  501    0  0.00000000000E+00 -0.00000000000E+00 -0.39292361897E+03  0.39292361897E+03  0.00000000000E+00 0. -1.
         25    2    1    2    0    0 -0.46318367763E+02  0.39429745684E+02 -0.16300422046E+03  0.21428510793E+03  0.12509050945E+03 0.  0.
          5    1    3    3  502    0 -0.18077213407E+02  0.21747011513E+02  0.15589868762E+02  0.32561243255E+02  0.41800000000E+01 0.  1.
         -5    1    3    3    0  502 -0.28241154356E+02  0.17682734172E+02 -0.17859408922E+03  0.18172386467E+03  0.41800000000E+01 0.  1.
        -11    1    1    2    0    0 -0.14879115373E+02 -0.25793925250E+01  0.15559742597E+01  0.15180987978E+02  0.00000000000E+00 0.  1.
         11    1    1    2    0    0  0.61197483136E+02 -0.36850353159E+02 -0.19100575482E+03  0.20392714102E+03  0.00000000000E+00 0. -1.
</event>
<event>
 7    1  0.2420569E-009  0.1004145E+03  0.7561462E-02  0.1279427E+00
          1   -1    0    0  501    0  0.00000000000E+00  0.00000000000E+00  0.24320927587E+04  0.24320927587E+04  0.00000000000E+00 0. -1.
         -1   -1    0    0    0  501 -0.00000000000E+00 -0.00000000000E+00 -0.22542511603E+02  0.22542511603E+02  0.00000000000E+00 0.  1.
         25    2    1    2    0    0  0.65137980952E+02 -0.68442946004E+01  0.22731355111E+04  0.22775167753E+04  0.12509120161E+03 0.  0.
          5    1    3    3  502    0  0.59583240666E+02 -0.43506490356E+02  0.20461953420E+04  0.20475292006E+04  0.41800000000E+01 0. -1.
         -5    1    3    3    0  502  0.55547402860E+01  0.36662195755E+02  0.22694016914E+03  0.22998757468E+03  0.41800000000E+01 0. -1.
        -11    1    1    2    0    0 -0.22363739208E+02 -0.27011032173E+02  0.57659724578E+01  0.35538417647E+02  0.00000000000E+00 0.  1.
         11    1    1    2    0    0 -0.42774241744E+02  0.33855326774E+02  0.13064876350E+03  0.14158007739E+03  0.00000000000E+00 0. -1.
</event>
<event>
 7    1  0.2420569E-009  0.1313487E+03  0.7561462E-02  0.1225468E+00
          2   -1    0    0  501    0  0.00000000000E+00  0.00000000000E+00  0.11706863142E+03  0.11706863142E+03  0.00000000000E+00 0.  1.
         -2   -1    0    0    0  501 -0.00000000000E+00 -0.00000000000E+00 -0.16864625189E+03  0.16864625189E+03  0.00000000000E+00 0. -1.
         25    2    1    2    0    0  0.61696505151E+01  0.76118916701E+02 -0.76240822976E+02  0.16520272281E+03  0.12508845858E+03 0.  0.
          5    1    3    3  502    0  0.18703814492E+02  0.10921027573E+03 -0.55886223752E+02  0.12416706249E+03  0.41800000000E+01 0. -1.
         -5    1    3    3    0  502 -0.12534163976E+02 -0.33091359028E+02 -0.20354599225E+02  0.41035660328E+02  0.41800000000E+01 0. -1.
        -11    1    1    2    0    0 -0.45818523497E+02 -0.27451207925E+02  0.21748060087E+02  0.57670477973E+02  0.00000000000E+00 0.  1.
         11    1    1    2    0    0  0.39648872982E+02 -0.48667708775E+02  0.29151424178E+01  0.62841682517E+02  0.00000000000E+00 0. -1.
</event>
<event>
 7    1  0.2420569E-009  0.1234763E+03  0.7561462E-02  0.1237470E+00
          3   -1    0    0  501    0  0.00000000000E+00  0.00000000000E+00  0.58573188098E+02  0.58573188098E+02  0.00000000000E+00 0. -1.
         -3   -1    0    0    0  501 -0.00000000000E+00 -0.00000000000E+00 -0.30728729433E+03  0.30728729433E+03  0.00000000000E+00 0.  1.
         25    2    1    2    0    0  0.57888604182E+02  0.38350851030E+02 -0.18413577662E+03  0.23318507985E+03  0.12508964372E+03 0.  0.
          5    1    3    3  502    0  0.52566011231E+02 -0.32013634427E+02 -0.13084815530E+03  0.14466088093E+03  0.41800000000E+01 0. -1.
         -5    1    3    3    0  502  0.53225929508E+01  0.70364485457E+02 -0.53287621322E+02  0.88524198926E+02  0.41800000000E+01 0. -1.
        -11    1    1    2    0    0 -0.28262661519E+02  0.29306951620E+02 -0.32740793252E+02  0.52245908856E+02  0.00000000000E+00 0. -1.
         11    1    1    2    0    0 -0.29625942663E+02 -0.67657802650E+02 -0.31837536359E+02  0.80429493717E+02  0.00000000000E+00 0.  1.
</event>
<event>
 7    1  0.2420569E-009  0.7747570E+02  0.7561462E-02  0.1336372E+00
          1   -1    0    0  501    0  0.00000000000E+00  0.00000000000E+00  0.27084055899E+03  0.27084055899E+03  0.00000000000E+00 0. -1.
         -1   -1    0    0    0  501 -0.00000000000E+00 -0.00000000000E+00 -0.47301580957E+02  0.47301580957E+02  0.00000000000E+00 0.  1.
         25    2    1    2    0    0 -0.26509904254E+02 -0.14633184860E+02  0.15515178392E+03  0.20158551269E+03  0.12509091794E+03 0.  0.
          5    1    3    3  502    0 -0.44647169274E+02 -0.45167255522E+02  0.15305866013E+03  0.16576452135E+03  0.41800000000E+01 0. -1.
         -5    1    3    3    0  502  0.18137265020E+02  0.30534070662E+02  0.20931237852E+01  0.35820991343E+02  0.41800000000E+01 0. -1.
        -11    1    1    2    0    0  0.32151797026E+02  0.26978612486E+02 -0.46873363887E+01  0.42232152515E+02  0.00000000000E+00 0.  1.
         11    1    1    2    0    0 -0.56418927717E+01 -0.12345427626E+02  0.73074530500E+02  0.74324474738E+02  0.00000000000E+00 0. -1.
</event>
<event>
 7    1  0.2420569E-009  0.1109905E+03  0.7561462E-02  0.1258747E+00
          2   -1    0    0  501    0  0.00000000000E+00  0.00000000000E+00  0.16704332889E+03  0.16704332889E+03  0.00000000000E+00 0. -1.
         -2   -1    0    0    0  501 -0.00000000000E+00 -0.00000000000E+00 -0.32787880574E+03  0.32787880574E+03  0.00000000000E+00 0.  1.
         25    2    1    2    0    0  0.14220827939E+02 -0.63694854355E+02 -0.29078412372E+03  0.32320716557E+03  0.12509276099E+03 0.  0.
          5    1    3    3  502    0  0.34789357097E+02  0.14977537588E+02 -0.25859982981E+02  0.46052547370E+02  0.41800000000E+01 0. -1.
         -5    1    3    3    0  502 -0.20568529158E+02 -0.78672391943E+02 -0.26492414074E+03  0.27715461820E+03  0.41800000000E+01 0. -1.
        -11    1    1    2    0    0 -0.18168350446E+02  0.81864850820E+02  0.70914166845E+02  0.10982149979E+03  0.00000000000E+00 0.  1.
         11    1    1    2    0    0  0.39475225065E+01 -0.18169996466E+02  0.59034480022E+02  0.61893469259E+02  0.00000000000E+00 0. -1.
</event>
<event>
 7    1  0.2420569E-009  0.9495045E+02  0.7561462E-02  0.1291288E+00
          1   -1    0    0  501    0  0.00000000000E+00  0.00000000000E+00  0.12957802939E+03  0.12957802939E+03  0.00000000000E+00 0. -1.
         -1   -1    0    0    0  501 -0.00000000000E+00 -0.00000000000E+00 -0.12013706341E+03  0.12013706341E+03  0.00000000000E+00 0.  1.
         25    2    1    2    0    0 -0.53537823492E+02 -0.11246340971E+02  0.33505275310E+02  0.14056365321E+03  0.12507101343E+03 0.  0.
          5    1    3    3  502    0 -0.16272216513E+02  0.26238377174E+02  0.69713038917E+02  0.76358481271E+02  0.41800000000E+01 0.  1.
         -5    1    3    3    0  502 -0.37265606980E+02 -0.37484718145E+02 -0.36207763607E+02  0.64205171936E+02  0.41800000000E+01 0.  1.
        -11    1    1    2    0    0 -0.57859983546E+01  0.39565576512E+02 -0.15386563110E+02  0.42844590627E+02  0.00000000000E+00 0.  1.
         11    1    1    2    0    0  0.59323821847E+02 -0.28319235541E+02 -0.86777462255E+01  0.66306848965E+02  0.00000000000E+00 0. -1.
</event>
<event>
 7    1  0.2420569E-009  0.7808032E+02  0.7561462E-02  0.1334589E+00
         -1   -1    0    0    0  501 -0.00000000000E+00  0.00000000000E+00  0.21419013631E+02  0.21419013631E+02  0.00000000000E+00 0.  1.
          1   -1    0    0  501    0  0.00000000000E+00 -0.00000000000E+00 -0.60034753099E+03  0.60034753099E+03  0.00000000000E+00 0. -1.
         25    2    1    2    0    0 -0.10881717479E+02  0.23352482222E+02 -0.38840759186E+03  0.40886920693E+03  0.12509924365E+03 0.  0.
          5    1    3    3  502    0  0.10783973641E+02 -0.17032268006E+02 -0.34498051975E+03  0.34559430500E+03  0.41800000000E+01 0. -1.
         -5    1    3    3    0  502 -0.21665691121E+02  0.40384750227E+02 -0.43427072110E+02  0.63274901933E+02  0.41800000000E+01 0. -1.
        -11    1    1    2    0    0  0.41696118515E+02 -0.37099172081E+02 -0.15070328827E+03  0.16070593009E+03  0.00000000000E+00 0. -1.
         11    1    1    2    0    0 -0.30814401036E+02  0.13746689860E+02 -0.39817637224E+02  0.52191407601E+02  0.00000000000E+00 0.  1.
</event>
<event>
 7    1  0.2420569E-009  0.1621058E+03  0.7561462E-02  0.1186340E+00
         -2   -1    0    0    0  501 -0.00000000000E+00  0.00000000000E+00  0.10702879440E+03  0.10702879440E+03  0.00000000000E+00 0.  1.
          2   -1    0    0  501    0  0.00000000000E+00 -0.00000000000E+00 -0.40011401823E+03  0.40011401823E+03  0.00000000000E+00 0. -1.
         25    2    1    2    0    0  0.34131562883E+01  0.15664191094E+03 -0.24992531862E+03  0.32040365195E+03  0.12508995723E+03 0.  0.
          5    1    3    3  502    0 -0.34836317933E+01 -0.36914866408E+01 -0.10167043139E+03  0.10188283360E+03  0.41800000000E+01 0.  1.
         -5    1    3    3    0  502  0.68967880816E+01  0.16033339758E+03 -0.14825488722E+03  0.21852081835E+03  0.41800000000E+01 0.  1.
        -11    1    1    2    0    0  0.22775480403E+01 -0.11977485530E+03  0.11733891156E+02  0.12036979434E+03  0.00000000000E+00 0.  1.
         11    1    1    2    0    0 -0.56907043286E+01 -0.36867055642E+02 -0.54893796371E+02  0.66369366333E+02  0.00000000000E+00 0. -1.
</event>
<event>
 7    1  0.2420569E-009  0.1641746E+03  0.7561462E-02  0.1184063E+00
         -2   -1    0    0    0  501 -0.00000000000E+00  0.00000000000E+00  0.59768452624E+02  0.59768452624E+02  0.00000000000E+00 0.  1.
          2   -1    0    0  501    0  0.00000000000E+00 -0.00000000000E+00 -0.65479934699E+03  0.65479934699E+03  0.00000000000E+00 0. -1.
         25    2    1    2    0    0  0.47313408099E+02 -0.13224839394E+03 -0.15555871544E+03  0.24407930074E+03  0.12509194544E+03 0.  0.
          5    1    3    3  502    0 -0.41848575395E+02 -0.27635696033E+02 -0.36265197537E+02  0.62029605111E+02  0.41800000000E+01 0. -1.
         -5    1    3    3    0  502  0.89161983494E+02 -0.10461269791E+03 -0.11929351791E+03  0.18204969563E+03  0.41800000000E+01 0. -1.
        -11    1    1    2    0    0 -0.30335147219E+02  0.90013612412E+02 -0.39708994704E+03  0.40829290664E+03  0.00000000000E+00 0. -1.
         11    1    1    2    0    0 -0.16978260880E+02  0.42234781530E+02 -0.42382231888E+02  0.62195592233E+02  0.00000000000E+00 0.  1.
</event>
<event>
 7    1  0.2420569E-009  0.1026791E+03  0.7561462E-02  0.1274761E+00
          3   -1    0    0  501    0  0.00000000000E+00  0.00000000000E+00  0.89435525215E+02  0.89435525215E+02  0.00000000000E+00 0. -1.
         -3   -1    0    0    0  501 -0.00000000000E+00 -0.00000000000E+00 -0.14285789927E+03  0.14285789927E+03  0.00000000000E+00 0.  1.
         25    2    1    2    0    0 -0.41348304000E+01  0.60669867030E+01 -0.63807067102E+02  0.14061852929E+03  0.12509326049E+03 0.  0.
          5    1    3    3  502    0 -0.54159595855E+02 -0.22906481630E+02 -0.57440491938E+02  0.82309484496E+02  0.41800000000E+01 0.  1.
         -5    1    3    3    0  502  0.50024765455E+02  0.28973468333E+02 -0.63665751643E+01  0.58309044799E+02  0.41800000000E+01 0.  1.
        -11    1    1    2    0    0  0.24412582996E+02 -0.41194391987E+02 -0.53224111964E+01  0.48179665842E+02  0.00000000000E+00 0. -1.
         11    1    1    2    0    0 -0.20277752596E+02  0.35127405284E+02  0.15707104243E+02  0.43495229348E+02  0.00000000000E+00 0.  1.
</event>
<event>
 7    1  0.2420569E-009  0.9022498E+02  0.7561462E-02  0.1302308E+00
         -2   -1    0    0    0  501 -0.00000000000E+00  0.00000000000E+00  0.21457222964E+03  0.21457222964E+03  0.00000000000E+00 0.  1.
          2   -1    0    0  501    0  0.00000000000E+00 -0.00000000000E+00 -0.61230292438E+02  0.61230292438E+02  0.00000000000E+00 0. -1.
         25    2    1    2    0    0 -0.12184932507E+02 -0.17730329323E+02  0.42383113723E+02  0.13382280906E+03  0.12509747694E+03 0.  0.
          5    1    3    3  502    0 -0.22966184351E+02 -0.55589098689E+02  0.64653218487E+02  0.88403080135E+02  0.41800000000E+01 0.  1.
         -5    1    3    3    0  502  0.10781251844E+02  0.37858769366E+02 -0.22270104763E+02  0.45419728923E+02  0.41800000000E+01 0.  1.
        -11    1    1    2    0    0  0.17009267021E+02  0.47480056379E+02  0.95751295039E+02  0.10822190823E+03  0.00000000000E+00 0.  1.
         11    1    1    2    0    0 -0.48243345143E+01 -0.29749727056E+02  0.15207528444E+02  0.33757804798E+02  0.00000000000E+00 0. -1.
</event>
<event>
 7    1  0.2420569E-009  0.1105400E+03  0.7561462E-02  0.1259573E+00
         -1   -1    0    0    0  501 -0.00000000000E+00  0.00000000000E+00  0.19098638176E+03  0.19098638176E+03  0.00000000000E+00 0.  1.
          1   -1    0    0  501    0  0.00000000000E+00 -0.00000000000E+00 -0.85477715029E+02  0.85477715029E+02  0.00000000000E+00 0. -1.
         25    2    1    2    0    0 -0.35942047535E+02  0.38362459609E+02  0.92490106296E+01  0.13600079872E+03  0.12508862445E+03 0.  0.
          5    1    3    3  502    0  0.37312148498E+02 -0.13495026356E+02 -0.15505155086E+02  0.42804139941E+02  0.41800000000E+01 0.  1.
         -5    1    3    3    0  502 -0.73254196032E+02  0.51857485964E+02  0.24754165715E+02  0.93196658777E+02  0.41800000000E+01 0.  1.
        -11    1    1    2    0    0 -0.18507072977E+01 -0.51341167225E+02  0.84355898827E+02  0.98768710817E+02  0.00000000000E+00 0.  1.
         11    1    1    2    0    0  0.37792754832E+02  0.12978707616E+02  0.11903757276E+02  0.41694587256E+02  0.00000000000E+00 0. -1.
</event>
<event>
 7    1  0.2420569E-009  0.1260488E+03  0.7561462E-02  0.1233439E+00
          2   -1    0    0  501    0  0.00000000000E+00  0.00000000000E+00  0.12624728910E+04  0.12624728910E+04  0.00000000000E+00 0. -1.
         -2   -1    0    0    0  501 -0.00000000000E+00 -0.00000000000E+00 -0.15648382759E+02  0.15648382759E+02  0.00000000000E+00 0.  1.
         25    2    1    2    0    0 -0.14902383132E+02 -0.87215634811E+02  0.61440725505E+03  0.63322135018E+03  0.12507739723E+03 0.  0.
          5    1    3    3  502    0  0.30400561469E+02 -0.89307109430E+00  0.35068134754E+03  0.35202254420E+03  0.41800000000E+01 0. -1.
         -5    1    3    3    0  502 -0.45302944600E+02 -0.86322563716E+02  0.26372590751E+03  0.28119880598E+03  0.41800000000E+01 0. -1.
        -11    1    1    2    0    0 -0.55137736429E+01  0.99724429827E+02  0.55318210606E+03  0.56212614783E+03  0.00000000000E+00 0.  1.
         11    1    1    2    0    0  0.20416156775E+02 -0.12508795016E+02  0.79235147118E+02  0.82773775732E+02  0.00000000000E+00 0. -1.
</event>
<event>
 7    1  0.2590681E-009  0.8946194E+02  0.7561462E-02  0.1304160E+00
          2   -1    0    0  501    0  0.00000000000E+00  0.00000000000E+00  0.31885012335E+03  0.31885012335E+03  0.00000000000E+00 0. -1.
         -2   -1    0    0    0  501 -0.00000000000E+00 -0.00000000000E+00 -0.40869676854E+02  0.40869676854E+02  0.00000000000E+00 0.  1.
         25    2    1    2    0    0 -0.18078205168E+02 -0.90905415160E+00  0.10823494120E+03  0.16640179855E+03  0.12508840147E+03 0.  0.
          5    1    3    3  502    0  0.43439035570E+02 -0.34868854658E+02  0.51782910830E+02  0.76169082248E+02  0.41800000000E+01 0. -1.
         -5    1    3    3    0  502 -0.61517240737E+02  0.33959800507E+02  0.56452030367E+02  0.90232716300E+02  0.41800000000E+01 0. -1.
        -11    1    1    2    0    0 -0.10028809444E+02  0.17400825077E+02 -0.39186160831E+00  0.20087789519E+02  0.00000000000E+00 0.  1.
         11    1    1    2    0    0  0.28107014612E+02 -0.16491770926E+02  0.17013736690E+03  0.17323021213E+03  0.00000000000E+00 0. -1.
</event>
<event>
 7    1  0.2420569E-009  0.1991093E+03  0.7561462E-02  0.1150493E+00
         -1   -1    0    0    0  501 -0.00000000000E+00  0.00000000000E+00  0.58876299680E+02  0.58876299680E+02  0.00000000000E+00 0.  1.
          1   -1    0    0  501    0  0.00000000000E+00 -0.00000000000E+00 -0.80756471772E+03  0.80756471772E+03  0.00000000000E+00 0. -1.
         25    2    1    2    0    0  0.18312340106E+03 -0.44643255501E+02 -0.40284898623E+03  0.46201932959E+03  0.12508938776E+03 0.  0.
          5    1    3    3  502    0  0.11393176992E+03 -0.63556462997E+02 -0.34785295668E+03  0.37153603332E+03  0.41800000000E+01 0. -1.
         -5    1    3    3    0  502  0.69191631136E+02  0.18913207496E+02 -0.54996029554E+02  0.90483296269E+02  0.41800000000E+01 0. -1.
        -11    1    1    2    0    0 -0.94412029011E+02  0.50248966631E+02 -0.25873982708E+03  0.27997301297E+03  0.00000000000E+00 0. -1.
         11    1    1    2    0    0 -0.88711372046E+02 -0.56057111299E+01 -0.87099604726E+02  0.12444867485E+03  0.00000000000E+00 0.  1.
</event>
<event>
 7    1  0.2420569E-009  0.1337060E+03  0.7561462E-02  0.1222058E+00
         -2   -1    0    0    0  501 -0.00000000000E+00  0.00000000000E+00  0.62533367170E+02  0.62533367170E+02  0.00000000000E+00 0.  1.
          2   -1    0    0  501    0  0.00000000000E+00 -0.00000000000E+00 -0.46225404031E+03  0.46225404031E+03  0.00000000000E+00 0. -1.
         25    2    1    2    0    0 -0.44241707315E+02 -0.10261410545E+03 -0.10811002623E+03  0.19955383563E+03  0.12508785809E+03 0.  0.
          5    1    3    3  502    0 -0.68208437346E+02 -0.54885002303E+02 -0.10587113483E+02  0.88285410884E+02  0.41800000000E+01 0. -1.
         -5    1    3    3    0  502  0.23966730031E+02 -0.47729103148E+02 -0.97522912745E+02  0.11126842475E+03  0.41800000000E+01 0. -1.
        -11    1    1    2    0    0  0.56838869380E+02  0.64103669265E+02 -0.26027219309E+03  0.27401013117E+03  0.00000000000E+00 0. -1.
         11    1    1    2    0    0 -0.12597162065E+02  0.38510436186E+02 -0.31338453818E+02  0.51223440680E+02  0.00000000000E+00 0.  1.
</event>
<event>
 7    1  0.2420569E-009  0.8621352E+02  0.7561462E-02  0.1312289E+00
         -1   -1    0    0    0  501 -0.00000000000E+00  0.00000000000E+00  0.37537588020E+03  0.37537588020E+03  0.00000000000E+00 0. -1.
          1   -1    0    0  501    0  0.00000000000E+00 -0.00000000000E+00 -0.33888652614E+02  0.33888652614E+02  0.00000000000E+00 0.  1.
         25    2    1    2    0    0 -0.14387711862E+01 -0.31015383372E+02  0.17794706267E+03  0.21970988278E+03  0.12507298434E+03 0.  0.
          5    1    3    3  502    0  0.33170389994E+02 -0.52288345897E+01  0.17275583870E+03  0.17603882438E+03  0.41800000000E+01 0.  1.
         -5    1    3    3    0  502 -0.34609161180E+02 -0.25786548782E+02  0.51912239676E+01  0.43671058402E+02  0.41800000000E+01 0.  1.
        -11    1    1    2    0    0 -0.12873904427E+01 -0.32063190871E+02  0.65591295510E+02  0.73020022115E+02  0.00000000000E+00 0. -1.
         11    1    1    2    0    0  0.27261616289E+01  0.63078574243E+02  0.97948869409E+02  0.11653462792E+03  0.00000000000E+00 0.  1.
</event>
<event>
 7    1  0.2420569E-009  0.1221747E+03  0.7561462E-02  0.1239552E+00
          1   -1    0    0  501    0  0.00000000000E+00  0.00000000000E+00  0.45591860691E+02  0.45591860691E+02  0.00000000000E+00 0. -1.
         -1   -1    0    0    0  501 -0.00000000000E+00 -0.00000000000E+00 -0.39124703438E+03  0.39124703438E+03  0.00000000000E+00 0.  1.
         25    2    1    2    0    0  0.39883317991E+02 -0.63463873465E+02 -0.16128791607E+03  0.21744106084E+03  0.12509388787E+03 0.  0.
          5    1    3    3  502    0  0.12660572737E+02  0.38180359676E+02 -0.48028942655E+02  0.62787591923E+02  0.41800000000E+01 0. -1.
         -5    1    3    3    0  502  0.27222745253E+02 -0.10164423314E+03 -0.11325897342E+03  0.15465346892E+03  0.41800000000E+01 0. -1.
        -11    1    1    2    0    0 -0.55866017885E+02  0.34912108319E+02 -0.17239888495E+03  0.18455688227E+03  0.00000000000E+00 0.  1.
         11    1    1    2    0    0  0.15982699894E+02  0.28551765146E+02 -0.11968372666E+02  0.34840951955E+02  0.00000000000E+00 0. -1.
</event>
<event>
 7    1  0.2420569E-009  0.1093713E+03  0.7561462E-02  0.1261739E+00
         -1   -1    0    0    0  501 -0.00000000000E+00  0.00000000000E+00  0.78893158583E+02  0.78893158583E+02  0.00000000000E+00 0.  1.
          1   -1    0    0  501    0  0.00000000000E+00 -0.00000000000E+00 -0.22527308748E+03  0.22527308748E+03  0.00000000000E+00 0. -1.
         25    2    1    2    0    0  0.24437658742E+02 -0.43309082191E+02 -0.14906817481E+03  0.20085608072E+03  0.12509583788E+03 0.  0.
          5    1    3    3  502    0 -0.41844692860E+02 -0.51709070308E+02 -0.86735845053E+02  0.10938640450E+03  0.41800000000E+01 0.  1.
         -5    1    3    3    0  502  0.66282351602E+02  0.83999881164E+01 -0.62332329761E+02  0.91469676220E+02  0.41800000000E+01 0.  1.
        -11    1    1    2    0    0  0.19428362721E+02 -0.48317320052E+01 -0.25434876897E+02  0.32368810218E+02  0.00000000000E+00 0. -1.
         11    1    1    2    0    0 -0.43866021463E+02  0.48140814196E+02  0.28123122812E+02  0.70941355127E+02  0.00000000000E+00 0.  1.
</event>
<event>
 7    1  0.2420569E-009  0.9640472E+02  0.7561462E-02  0.1288043E+00
          2   -1    0    0  501    0  0.00000000000E+00  0.00000000000E+00  0.12855193218E+03  0.12855193218E+03  0.00000000000E+00 0. -1.
         -2   -1    0    0    0  501 -0.00000000000E+00 -0.00000000000E+00 -0.12978810393E+03  0.12978810393E+03  0.00000000000E+00 0.  1.
         25    2    1    2    0    0  0.34165792496E+02  0.46998437982E+02  0.41627708673E+02  0.14406956002E+03  0.12508803878E+03 0.  0.
          5    1    3    3  502    0 -0.42541648764E+02 -0.28418490808E+01  0.28755221134E+02  0.51596541824E+02  0.41800000000E+01 0. -1.
         -5    1    3    3    0  502  0.76707441260E+02  0.49840287063E+02  0.12872487539E+02  0.92473018198E+02  0.41800000000E+01 0. -1.
        -11    1    1    2    0    0 -0.18428206894E+02 -0.30189500468E+02  0.24535387328E+02  0.43046370105E+02  0.00000000000E+00 0. -1.
         11    1    1    2    0    0 -0.15737585602E+02 -0.16808937514E+02 -0.67399267749E+02  0.71224105990E+02  0.00000000000E+00 0.  1.
</event>
<event>
 7    1  0.2420569E-009  0.1460604E+03  0.7561462E-02  0.1205399E+00
          2   -1    0    0  501    0  0.00000000000E+00  0.00000000000E+00  0.15115565011E+03  0.15115565011E+03  0.00000000000E+00 0.  1.
         -2   -1    0    0    0  501 -0.00000000000E+00 -0.00000000000E+00 -0.15612786656E+03  0.15612786656E+03  0.00000000000E+00 0. -1.
         25    2    1    2    0    0 -0.98094795058E+02 -0.42009015867E+02  0.17246680347E+02  0.16533320029E+03  0.12510105077E+03 0.  0.
          5    1    3    3  502    0 -0.45931283576E+02  0.36630938250E+02 -0.22232848076E+02  0.62954589837E+02  0.41800000000E+01 0.  1.
         -5    1    3    3    0  502 -0.52163511483E+02 -0.78639954117E+02  0.39479528423E+02  0.10237861045E+03  0.41800000000E+01 0.  1.
        -11    1    1    2    0    0  0.74856723162E+02  0.69928218414E+02 -0.73528874547E+01  0.10270126429E+03  0.00000000000E+00 0.  1.
         11    1    1    2    0    0  0.23238071896E+02 -0.27919202547E+02 -0.14866009333E+02  0.39249052088E+02  0.00000000000E+00 0. -1.
</event>
<event>
 7    1  0.2420569E-009  0.8810485E+02  0.7561462E-02  0.1307507E+00
          1   -1    0    0  501    0  0.00000000000E+00  0.00000000000E+00  0.47062349231E+03  0.47062349231E+03  0.00000000000E+00 0. -1.
         -1   -1    0    0    0  501 -0.00000000000E+00 -0.00000000000E+00 -0.57731324506E+02  0.57731324506E+02  0.00000000000E+00 0.  1.
         25    2    1    2    0    0 -0.66817325895E+01 -0.59212319525E+02  0.33763237528E+03  0.36495747794E+03  0.12509034949E+03 0.  0.
          5    1    3    3  502    0 -0.15321696948E+02 -0.84968512368E+01 -0.48132369768E+01  0.18643779888E+02  0.41800000000E+01 0.  1.
         -5    1    3    3    0  502  0.86399643585E+01 -0.50715468289E+02  0.34244561226E+03  0.34631369806E+03  0.41800000000E+01 0.  1.
        -11    1    1    2    0    0 -0.25666715061E+02 -0.12025232628E+02 -0.23909187962E+02  0.37081474496E+02  0.00000000000E+00 0.  1.
         11    1    1    2    0    0  0.32348447651E+02  0.71237552153E+02  0.99168980484E+02  0.12631586437E+03  0.00000000000E+00 0. -1.
</event>
<event>
 7    1  0.2420569E-009  0.1509624E+03  0.7561462E-02  0.1199295E+00
         -2   -1    0    0    0  501 -0.00000000000E+00  0.00000000000E+00  0.31484410575E+02  0.31484410575E+02  0.00000000000E+00 0.  1.
          2   -1    0    0  501    0  0.00000000000E+00 -0.00000000000E+00 -0.80292909539E+03  0.80292909539E+03  0.00000000000E+00 0. -1.
         25    2    1    2    0    0 -0.30989883837E+02  0.10714275914E+03 -0.33305453554E+03  0.37284405481E+03  0.12508965517E+03 0.  0.
          5    1    3    3  502    0  0.43895659836E+02  0.18575305472E+02 -0.13576536810E+03  0.14394991664E+03  0.41800000000E+01 0. -1.
         -5    1    3    3    0  502 -0.74885543673E+02  0.88567453664E+02 -0.19728916743E+03  0.22889413817E+03  0.41800000000E+01 0. -1.
        -11    1    1    2    0    0  0.29617085593E+02  0.12256492018E+01 -0.16201654364E+03  0.16470590271E+03  0.00000000000E+00 0. -1.
         11    1    1    2    0    0  0.13727982440E+01 -0.10836840834E+03 -0.27637360564E+03  0.29686354844E+03  0.00000000000E+00 0.  1.
</event>
<event>
 7    1  0.2420569E-009  0.1080529E+03  0.7561462E-02  0.1264219E+00
         -2   -1    0    0    0  501 -0.00000000000E+00  0.00000000000E+00  0.31509458299E+02  0.31509458299E+02  0.00000000000E+00 0.  1.
          2   -1    0    0  501    0  0.00000000000E+00 -0.00000000000E+00 -0.47767346265E+03  0.47767346265E+03  0.00000000000E+00 0. -1.
         25    2    1    2    0    0  0.39780864920E+02 -0.12898366572E+02 -0.16631087468E+03  0.21226360191E+03  0.12509054554E+03 0.  0.
          5    1    3    3  502    0  0.80943002637E+02  0.38428764719E+01 -0.74396070587E+02  0.11008535368E+03  0.41800000000E+01 0. -1.
         -5    1    3    3    0  502 -0.41162137717E+02 -0.16741243044E+02 -0.91914804091E+02  0.10217824823E+03  0.41800000000E+01 0. -1.
        -11    1    1    2    0    0 -0.97952594397E+01  0.45204623109E+02 -0.81337784991E+02  0.93569441193E+02  0.00000000000E+00 0. -1.
         11    1    1    2    0    0 -0.29985605480E+02 -0.32306256536E+02 -0.19851534469E+03  0.20334987785E+03  0.00000000000E+00 0.  1.
</event>
<event>
 7    1  0.2420569E-009  0.1064188E+03  0.7561462E-02  0.1267349E+00
          1   -1    0    0  501    0  0.00000000000E+00  0.00000000000E+00  0.65441461520E+02  0.65441461520E+02  0.00000000000E+00 0. -1.
         -1   -1    0    0    0  501 -0.00000000000E+00 -0.00000000000E+00 -0.27065113394E+03  0.27065113394E+03  0.00000000000E+00 0.  1.
         25    2    1    2    0    0 -0.49915354410E+02  0.58239762339E+02 -0.13089152294E+03  0.19662543712E+03  0.12508220985E+03 0.  0.
          5    1    3    3  502    0 -0.54821518457E+02 -0.18840301359E+02 -0.94969487129E+02  0.11134195852E+03  0.41800000000E+01 0.  1.
         -5    1    3    3    0  502  0.49061640468E+01  0.77080063699E+02 -0.35922035814E+02  0.85283478602E+02  0.41800000000E+01 0.  1.
        -11    1    1    2    0    0  0.43211086700E+02 -0.44210051349E+02 -0.95151761327E+02  0.11347063205E+03  0.00000000000E+00 0.  1.
         11    1    1    2    0    0  0.67042677100E+01 -0.14029710990E+02  0.20833611855E+02  0.25996526286E+02  0.00000000000E+00 0. -1.
</event>
<event>
 7    1  0.2420569E-009  0.2966188E+03  0.7561462E-02  0.1086943E+00
         -2   -1    0    0    0  501 -0.00000000000E+00  0.00000000000E+00  0.13635029721E+03  0.13635029721E+03  0.00000000000E+00 0. -1.
          2   -1    0    0  501    0  0.00000000000E+00 -0.00000000000E+00 -0.69665718882E+03  0.69665718882E+03  0.00000000000E+00 0.  1.
         25    2    1    2    0    0  0.12801344334E+03  0.25689915512E+03 -0.30830172593E+03  0.43941098830E+03  0.12508974718E+03 0.  0.
          5    1    3    3  502    0  0.48866363397E+02  0.33842623963E+02 -0.13084494029E+02  0.61007549142E+02  0.41800000000E+01 0. -1.
         -5    1    3    3    0  502  0.79147079943E+02  0.22305653116E+03 -0.29521723190E+03  0.37840343916E+03  0.41800000000E+01 0. -1.
        -11    1    1    2    0    0 -0.16310077784E+02 -0.11592002949E+03 -0.13655994088E+03  0.17986686556E+03  0.00000000000E+00 0.  1.
         11    1    1    2    0    0 -0.11170336556E+03 -0.14097912563E+03 -0.11544522480E+03  0.21372963217E+03  0.00000000000E+00 0. -1.
</event>
<event>
 7    1  0.2420569E-009  0.7765104E+02  0.7561462E-02  0.1335853E+00
         -2   -1    0    0    0  501 -0.00000000000E+00  0.00000000000E+00  0.16169780624E+02  0.16169780624E+02  0.00000000000E+00 0.  1.
          2   -1    0    0  501    0  0.00000000000E+00 -0.00000000000E+00 -0.10862037823E+04  0.10862037823E+04  0.00000000000E+00 0. -1.
         25    2    1    2    0    0  0.25699770366E+02  0.28216828537E+02 -0.85659246534E+03  0.86651872414E+03  0.12508948794E+03 0.  0.
          5    1    3    3  502    0  0.76567006224E+01 -0.24596706037E+02 -0.38486306328E+02  0.46500442869E+02  0.41800000000E+01 0.  1.
         -5    1    3    3    0  502  0.18043069744E+02  0.52813534574E+02 -0.81810615901E+03  0.82001828127E+03  0.41800000000E+01 0.  1.
        -11    1    1    2    0    0 -0.36755784628E+02 -0.41840401991E+02 -0.21089643911E+03  0.21812591540E+03  0.00000000000E+00 0. -1.
         11    1    1    2    0    0  0.11056014262E+02  0.13623573454E+02 -0.25450972480E+01  0.17728923403E+02  0.00000000000E+00 0.  1.
</event>
<event>
 7    1  0.2420569E-009  0.1831120E+03  0.7561462E-02  0.1164825E+00
          1   -1    0    0  501    0  0.00000000000E+00  0.00000000000E+00  0.48210398472E+03  0.48210398472E+03  0.00000000000E+00 0. -1.
         -1   -1    0    0    0  501 -0.00000000000E+00 -0.00000000000E+00 -0.10393133524E+03  0.10393133524E+03  0.00000000000E+00 0.  1.
         25    2    1    2    0    0 -0.10912619774E+03 -0.13305464711E+03  0.75030686624E+02  0.22558585584E+03  0.12508920126E+03 0.  0.
          5    1    3    3  502    0 -0.79453725711E+02 -0.11307130420E+03 -0.44444067227E+01  0.13833018295E+03  0.41800000000E+01 0. -1.
         -5    1    3    3    0  502 -0.29672472030E+02 -0.19983342904E+02  0.79475093346E+02  0.87255672895E+02  0.41800000000E+01 0. -1.
        -11    1    1    2    0    0  0.50485528446E+02  0.12232480912E+03  0.23672172356E+03  0.27119978229E+03  0.00000000000E+00 0.  1.
         11    1    1    2    0    0  0.58640669295E+02  0.10729837985E+02  0.66420239293E+02  0.89249681828E+02  0.00000000000E+00 0. -1.
</event>
<event>
 7    1  0.2420569E-009  0.1200147E+03  0.7561462E-02  0.1243073E+00
          1   -1    0    0  501    0  0.00000000000E+00  0.00000000000E+00  0.95480123011E+03  0.95480123011E+03  0.00000000000E+00 0. -1.
         -1   -1    0    0    0  501 -0.00000000000E+00 -0.00000000000E+00 -0.22582192637E+02  0.22582192637E+02  0.00000000000E+00 0.  1.
         25    2    1    2    0    0  0.23743332616E+02  0.82544324385E+02  0.65526575918E+03  0.67260571351E+03  0.12509164385E+03 0.  0.
          5    1    3    3  502    0  0.73179652420E+01  0.92817770070E+02  0.64206161615E+03  0.64879063062E+03  0.41800000000E+01 0.  1.
         -5    1    3    3    0  502  0.16425367374E+02 -0.10273445685E+02  0.13204143030E+02  0.23815082884E+02  0.41800000000E+01 0.  1.
        -11    1    1    2    0    0 -0.22763480648E+02  0.16403274126E+02  0.68799975954E+02  0.74301279561E+02  0.00000000000E+00 0. -1.
         11    1    1    2    0    0 -0.97985196801E+00 -0.98947598511E+02  0.20815330234E+03  0.23047642967E+03  0.00000000000E+00 0.  1.
</event>
<event>
 7    1  0.2420569E-009  0.1817571E+03  0.7561462E-02  0.1166113E+00
         -2   -1    0    0    0  501 -0.00000000000E+00  0.00000000000E+00  0.44181127244E+03  0.44181127244E+03  0.00000000000E+00 0. -1.
          2   -1    0    0  501    0  0.00000000000E+00 -0.00000000000E+00 -0.14914697308E+03  0.14914697308E+03  0.00000000000E+00 0.  1.
         25    2    1    2    0    0 -0.25219289527E+02 -0.15088705398E+03  0.35151405453E+03  0.40325186931E+03  0.12508806479E+03 0.  0.
          5    1    3    3  502    0 -0.69243437403E+02 -0.11466582738E+03  0.28889129933E+03  0.31846280916E+03  0.41800000000E+01 0. -1.
         -5    1    3    3    0  502  0.44024147876E+02 -0.36221226602E+02  0.62622755196E+02  0.84789060150E+02  0.41800000000E+01 0. -1.
        -11    1    1    2    0    0  0.34730805037E+02  0.15715307895E+03 -0.40259018025E+02  0.16590391067E+03  0.00000000000E+00 0. -1.
         11    1    1    2    0    0 -0.95115155106E+01 -0.62660249671E+01 -0.18590737136E+02  0.21802465536E+02  0.00000000000E+00 0.  1.
</event>
<event>
 7    1  0.2420569E-009  0.1469215E+03  0.7561462E-02  0.1204308E+00
          1   -1    0    0  501    0  0.00000000000E+00  0.00000000000E+00  0.81063498201E+03  0.81063498201E+03  0.00000000000E+00 0. -1.
         -1   -1    0    0    0  501 -0.00000000000E+00 -0.00000000000E+00 -0.50982777232E+02  0.50982777232E+02  0.00000000000E+00 0.  1.
         25    2    1    2    0    0 -0.33903454256E+02 -0.11137813346E+03  0.66255716129E+03  0.68423951744E+03  0.12508873821E+03 0.  0.
          5    1    3    3  502    0 -0.27202883024E+02  0.57921029114E+01  0.31001686855E+02  0.41858359844E+02  0.41800000000E+01 0.  1.
         -5    1    3    3    0  502 -0.67005712320E+01 -0.11717023637E+03  0.63155547443E+03  0.64238115760E+03  0.41800000000E+01 0.  1.
        -11    1    1    2    0    0  0.34301875072E+02  0.12756183413E+03  0.83823903123E+02  0.15644515619E+03  0.00000000000E+00 0. -1.
         11    1    1    2    0    0 -0.39842081515E+00 -0.16183700674E+02  0.13271140364E+02  0.20933085611E+02  0.00000000000E+00 0.  1.
</event>
<event>
 7    1  0.2420569E-009  0.1778674E+03  0.7561462E-02  0.1169883E+00
          1   -1    0    0  501    0  0.00000000000E+00  0.00000000000E+00  0.52444387286E+02  0.52444387286E+02  0.00000000000E+00 0. -1.
         -1   -1    0    0    0  501 -0.00000000000E+00 -0.00000000000E+00 -0.74099425501E+03  0.74099425501E+03  0.00000000000E+00 0.  1.
         25    2    1    2    0    0  0.17826272289E+02  0.16354580776E+03 -0.36862365708E+03  0.42260602611E+03  0.12508974988E+03 0.  0.
          5    1    3    3  502    0 -0.10101822569E+02  0.53670541753E+02 -0.24018384075E+02  0.59807433023E+02  0.41800000000E+01 0. -1.
         -5    1    3    3    0  502  0.27928094858E+02  0.10987526600E+03 -0.34460527300E+03  0.36279859308E+03  0.41800000000E+01 0. -1.
        -11    1    1    2    0    0 -0.52840580684E+02 -0.70531750166E+02 -0.15169028217E+03  0.17543316806E+03  0.00000000000E+00 0.  1.
         11    1    1    2    0    0  0.35014308395E+02 -0.93014057591E+02 -0.16823592847E+03  0.19539944813E+03  0.00000000000E+00 0. -1.
</event>
<event>
 7    1  0.2420569E-009  0.1096573E+03  0.7561462E-02  0.1261206E+00
          1   -1    0    0  501    0  0.00000000000E+00  0.00000000000E+00  0.36082466575E+03  0.36082466575E+03  0.00000000000E+00 0. -1.
         -1   -1    0    0    0  501 -0.00000000000E+00 -0.00000000000E+00 -0.77206202030E+02  0.77206202030E+02  0.00000000000E+00 0.  1.
         25    2    1    2    0    0 -0.88141482544E+02  0.15267576850E+02  0.26572373580E+03  0.30701646986E+03  0.12509192279E+03 0.  0.
          5    1    3    3  502    0  0.57121001397E+01  0.31240889982E+01 -0.11609493764E+02  0.13951371457E+02  0.41800000000E+01 0.  1.
         -5    1    3    3    0  502 -0.93853582684E+02  0.12143487852E+02  0.27733322957E+03  0.29306509840E+03  0.41800000000E+01 0.  1.
        -11    1    1    2    0    0 -0.74150908148E+01 -0.19843250661E+02 -0.19023857470E+02  0.28471833830E+02  0.00000000000E+00 0.  1.
         11    1    1    2    0    0  0.95556573359E+02  0.45756738105E+01  0.36918585385E+02  0.10254256409E+03  0.00000000000E+00 0. -1.
</event>
<event>
 7    1  0.2420569E-009  0.1213001E+03  0.7561462E-02  0.1240968E+00
          1   -1    0    0  501    0  0.00000000000E+00  0.00000000000E+00  0.31125258614E+03  0.31125258614E+03  0.00000000000E+00 0. -1.
         -1   -1    0    0    0  501 -0.00000000000E+00 -0.00000000000E+00 -0.62923277653E+02  0.62923277653E+02  0.00000000000E+00 0.  1.
         25    2    1    2    0    0  0.72828082601E+02  0.42581200044E+02  0.10472194729E+03  0.18365050439E+03  0.12507491077E+03 0.  0.
          5    1    3    3  502    0  0.10173928632E+02  0.71776540238E+02  0.22219736620E+02  0.75937932865E+02  0.41800000000E+01 0. -1.
         -5    1    3    3    0  502  0.62654153969E+02 -0.29195340194E+02  0.82502210668E+02  0.10771257152E+03  0.41800000000E+01 0. -1.
        -11    1    1    2    0    0 -0.61052971405E+02 -0.48890002317E+01  0.26131138345E+02  0.66589819281E+02  0.00000000000E+00 0.  1.
         11    1    1    2    0    0 -0.11775111196E+02 -0.37692199812E+02  0.11747622285E+03  0.12393554012E+03  0.00000000000E+00 0. -1.
</event>
<event>
 7    1  0.2420569E-009  0.1373529E+03  0.7561462E-02  0.1216936E+00
         -2   -1    0    0    0  501 -0.00000000000E+00  0.00000000000E+00  0.35538191884E+02  0.35538191884E+02  0.00000000000E+00 0.  1.
          2   -1    0    0  501    0  0.00000000000E+00 -0.00000000000E+00 -0.62283028896E+03  0.62283028896E+03  0.00000000000E+00 0. -1.
         25    2    1    2    0    0 -0.30627226137E+02 -0.84842925838E+02 -0.21395953336E+03  0.26374786699E+03  0.12509159196E+03 0.  0.
          5    1    3    3  502    0  0.48434782501E+02 -0.41126442427E+02 -0.93200801776E+02  0.11287681017E+03  0.41800000000E+01 0.  1.
         -5    1    3    3    0  502 -0.79062008638E+02 -0.43716483411E+02 -0.12075873158E+03  0.15087105682E+03  0.41800000000E+01 0.  1.
        -11    1    1    2    0    0  0.53816690445E+02  0.31341921062E+02 -0.25768963574E+03  0.26510846942E+03  0.00000000000E+00 0. -1.
         11    1    1    2    0    0 -0.23189464308E+02  0.53501004776E+02 -0.11564292798E+03  0.12951214444E+03  0.00000000000E+00 0.  1.
</event>
<event>
 7    1  0.2420569E-009  0.1281828E+03  0.7561462E-02  0.1230177E+00
          1   -1    0    0  501    0  0.00000000000E+00  0.00000000000E+00  0.90403171280E+02  0.90403171280E+02  0.00000000000E+00 0. -1.
         -1   -1    0    0    0  501 -0.00000000000E+00 -0.00000000000E+00 -0.30449911122E+03  0.30449911122E+03  0.00000000000E+00 0.  1.
         25    2    1    2    0    0  0.70632338347E+02  0.47952994130E+02 -0.33890324412E+01  0.15148612982E+03  0.12509254623E+03 0.  0.
          5    1    3    3  502    0 -0.35201060207E+02  0.11520739431E+02  0.10236913049E+02  0.38653704422E+02  0.41800000000E+01 0.  1.
         -5    1    3    3    0  502  0.10583339855E+03  0.36432254699E+02 -0.13625945490E+02  0.11283242540E+03  0.41800000000E+01 0.  1.
        -11    1    1    2    0    0 -0.69888272117E+01 -0.42652848288E+02 -0.14695074204E+03  0.15317516039E+03  0.00000000000E+00 0.  1.
         11    1    1    2    0    0 -0.63643511135E+02 -0.53001458421E+01 -0.63756165459E+02  0.90240992290E+02  0.00000000000E+00 0. -1.
</event>
<event>
 7    1  0.2420569E-009  0.8140657E+02  0.7561462E-02  0.1325107E+00
          2   -1    0    0  501    0  0.00000000000E+00  0.00000000000E+00  0.23159998710E+03  0.23159998710E+03  0.00000000000E+00 0. -1.
         -2   -1    0    0    0  501 -0.00000000000E+00 -0.00000000000E+00 -0.56796137805E+02  0.56796137805E+02  0.00000000000E+00 0.  1.
         25    2    1    2    0    0 -0.13138270068E+01  0.33081003007E+02  0.11946794448E+03  0.17611461463E+03  0.12509072238E+03 0.  0.
          5    1    3    3  502    0  0.24377525822E+02  0.39669538180E+02  0.13652351720E+03  0.14430550639E+03  0.41800000000E+01 0. -1.
         -5    1    3    3    0  502 -0.25691352829E+02 -0.65885351734E+01 -0.17055572724E+02  0.31809108237E+02  0.41800000000E+01 0. -1.
        -11    1    1    2    0    0 -0.31401971392E+02 -0.44586482321E+02  0.10396906120E+02  0.55516969207E+02  0.00000000000E+00 0.  1.
         11    1    1    2    0    0  0.32715798399E+02  0.11505479314E+02  0.44938998697E+02  0.56764541071E+02  0.00000000000E+00 0. -1.
</event>
<event>
 7    1  0.2420569E-009  0.1726771E+03  0.7561462E-02  0.1175084E+00
         -1   -1    0    0    0  501 -0.00000000000E+00  0.00000000000E+00  0.14278700375E+03  0.14278700375E+03  0.00000000000E+00 0.  1.
          1   -1    0    0  501    0  0.00000000000E+00 -0.00000000000E+00 -0.65008579389E+03  0.65008579389E+03  0.00000000000E+00 0. -1.
         25    2    1    2    0    0 -0.13816228101E+03 -0.77952124794E+02 -0.56776074214E+03  0.60263174924E+03  0.12508962874E+03 0.  0.
          5    1    3    3  502    0 -0.59359659510E+02  0.16276733027E+02 -0.88626654983E+02  0.10798452476E+03  0.41800000000E+01 0.  1.
         -5    1    3    3    0  502 -0.78802621499E+02 -0.94228857821E+02 -0.47913408716E+03  0.49464722447E+03  0.41800000000E+01 0.  1.
        -11    1    1    2    0    0  0.42115205326E+02  0.38013443823E+02  0.64805489110E+02  0.86130504758E+02  0.00000000000E+00 0.  1.
         11    1    1    2    0    0  0.96047075682E+02  0.39938680971E+02 -0.43435371115E+01  0.10411054365E+03  0.00000000000E+00 0. -1.
</event>
<event>
 7    1  0.2420569E-009  0.1123838E+03  0.7561462E-02  0.1256218E+00
         -2   -1    0    0    0  501 -0.00000000000E+00  0.00000000000E+00  0.15336228285E+03  0.15336228285E+03  0.00000000000E+00 0.  1.
          2   -1    0    0  501    0  0.00000000000E+00 -0.00000000000E+00 -0.11955049633E+03  0.11955049633E+03  0.00000000000E+00 0. -1.
         25    2    1    2    0    0  0.12173782060E+01 -0.33442002061E+02 -0.55528102686E+02  0.14088780191E+03  0.12508458349E+03 0.  0.
          5    1    3    3  502    0 -0.51545902220E+02  0.18593023419E+02 -0.28416977705E+02  0.61868227528E+02  0.41800000000E+01 0. -1.
         -5    1    3    3    0  502  0.52763280426E+02 -0.52035025479E+02 -0.27111124980E+02  0.79019574383E+02  0.41800000000E+01 0. -1.
        -11    1    1    2    0    0  0.34307936406E+02  0.46458900143E+02  0.41933570642E+02  0.71371480647E+02  0.00000000000E+00 0.  1.
         11    1    1    2    0    0 -0.35525314612E+02 -0.13016898082E+02  0.47406318562E+02  0.60653496631E+02  0.00000000000E+00 0. -1.
</event>
<event>
 7    1  0.2420569E-009  0.8165082E+02  0.7561462E-02  0.1324431E+00
         -2   -1    0    0    0  501 -0.00000000000E+00  0.00000000000E+00  0.12665052415E+03  0.12665052415E+03  0.00000000000E+00 0.  1.
          2   -1    0    0  501    0  0.00000000000E+00 -0.00000000000E+00 -0.11997526556E+03  0.11997526556E+03  0.00000000000E+00 0. -1.
         25    2    1    2    0    0 -0.50144287870E+02 -0.33091541245E+02  0.42529241064E+01  0.13883902611E+03  0.12509471651E+03 0.  0.
          5    1    3    3  502    0  0.20072865661E+02  0.42318234826E+01  0.44821841573E+02  0.49470174326E+02  0.41800000000E+01 0. -1.
         -5    1    3    3    0  502 -0.70217153531E+02 -0.37323364728E+02 -0.40568917467E+02  0.89368851783E+02  0.41800000000E+01 0. -1.
        -11    1    1    2    0    0  0.32079406234E+02  0.10381986826E+02  0.45018620937E+02  0.56245445912E+02  0.00000000000E+00 0.  1.
         11    1    1    2    0    0  0.18064881636E+02  0.22709554419E+02 -0.42596286453E+02  0.51541317698E+02  0.00000000000E+00 0. -1.
</event>
<event>
 7    1  0.2420569E-009  0.1311896E+03  0.7561462E-02  0.1225701E+00
         -1   -1    0    0    0  501 -0.00000000000E+00  0.00000000000E+00  0.18125594356E+03  0.18125594356E+03  0.00000000000E+00 0.  1.
          1   -1    0    0  501    0  0.00000000000E+00 -0.00000000000E+00 -0.13257723790E+03  0.13257723790E+03  0.00000000000E+00 0. -1.
         25    2    1    2    0    0  0.10477530938E+03 -0.14120222962E+02  0.58285986699E+02  0.17384791973E+03  0.12509435157E+03 0.  0.
          5    1    3    3  502    0  0.10999794881E+02  0.43663421333E+02 -0.69647998295E+01  0.45754460838E+02  0.41800000000E+01 0. -1.
         -5    1    3    3    0  502  0.93775514498E+02 -0.57783644294E+02  0.65250786528E+02  0.12809345889E+03  0.41800000000E+01 0. -1.
        -11    1    1    2    0    0 -0.34201314889E+02 -0.29258968512E+01  0.39502053881E+02  0.52332619592E+02  0.00000000000E+00 0.  1.
         11    1    1    2    0    0 -0.70573994491E+02  0.17046119813E+02 -0.49109334911E+02  0.87652642142E+02  0.00000000000E+00 0. -1.
</event>
<event>
 7    1  0.2420569E-009  0.1833757E+03  0.7561462E-02  0.1164575E+00
          2   -1    0    0  501    0  0.00000000000E+00  0.00000000000E+00  0.26158180656E+03  0.26158180656E+03  0.00000000000E+00 0. -1.
         -2   -1    0    0    0  501 -0.00000000000E+00 -0.00000000000E+00 -0.16090894356E+03  0.16090894356E+03  0.00000000000E+00 0.  1.
         25    2    1    2    0    0  0.11280368045E+03 -0.12926522479E+03  0.24501601650E+02  0.21374467915E+03  0.12510911525E+03 0.  0.
          5    1    3    3  502    0  0.93288995982E+01 -0.15876046314E+02  0.54148146046E+02  0.57346066426E+02  0.41800000000E+01 0.  1.
         -5    1    3    3    0  502  0.10347478085E+03 -0.11338917847E+03 -0.29646544396E+02  0.15639861272E+03  0.41800000000E+01 0.  1.
        -11    1    1    2    0    0  0.15582286692E+02  0.72430343063E+01  0.54535828319E+01  0.18028055087E+02  0.00000000000E+00 0.  1.
         11    1    1    2    0    0 -0.12838596714E+03  0.12202219048E+03  0.70717678520E+02  0.19071801589E+03  0.00000000000E+00 0. -1.
</event>
<event>
 7    1  0.2420569E-009  0.1035557E+03  0.7561462E-02  0.1272992E+00
         -2   -1    0    0    0  501 -0.00000000000E+00  0.00000000000E+00  0.51931039837E+02  0.51931039837E+02  0.00000000000E+00 0.  1.
          2   -1    0    0  501    0  0.00000000000E+00 -0.00000000000E+00 -0.29142714884E+03  0.29142714884E+03  0.00000000000E+00 0. -1.
         25    2    1    2    0    0 -0.11424583985E+02  0.46798423979E+02 -0.18015166210E+03  0.22454883103E+03  0.12508773942E+03 0.  0.
          5    1    3    3  502    0  0.44022746355E+02  0.30109604760E+02 -0.14974150284E+03  0.15901125925E+03  0.41800000000E+01 0. -1.
         -5    1    3    3    0  502 -0.55447330340E+02  0.16688819220E+02 -0.30410159259E+02  0.65537571781E+02  0.41800000000E+01 0. -1.
        -11    1    1    2    0    0 -0.27269383624E+02 -0.49769232777E+02 -0.56208769385E+02  0.79875037216E+02  0.00000000000E+00 0. -1.
         11    1    1    2    0    0  0.38693967609E+02  0.29708087973E+01 -0.31356775237E+01  0.38934320435E+02  0.00000000000E+00 0.  1.
</event>
<event>
 7    1  0.2420569E-009  0.1264840E+03  0.7561462E-02  0.1232768E+00
         -2   -1    0    0    0  501 -0.00000000000E+00  0.00000000000E+00  0.32857066674E+02  0.32857066674E+02  0.00000000000E+00 0. -1.
          2   -1    0    0  501    0  0.00000000000E+00 -0.00000000000E+00 -0.79328914887E+03  0.79328914887E+03  0.00000000000E+00 0.  1.
         25    2    1    2    0    0 -0.11916217207E+03 -0.28842848903E+02 -0.41025666664E+03  0.44608220995E+03  0.12508905756E+03 0.  0.
          5    1    3    3  502    0 -0.35884547230E+02 -0.28221252278E+02 -0.31974876767E+03  0.32301839984E+03  0.41800000000E+01 0.  1.
         -5    1    3    3    0  502 -0.83277624842E+02 -0.62159662412E+00 -0.90507898977E+02  0.12306381011E+03  0.41800000000E+01 0.  1.
        -11    1    1    2    0    0  0.79708791613E+02  0.27307212325E+02 -0.31846767340E+03  0.32942500559E+03  0.00000000000E+00 0.  1.
         11    1    1    2    0    0  0.39453380459E+02  0.15356365776E+01 -0.31707742151E+02  0.50639000007E+02  0.00000000000E+00 0. -1.
</event>
<event>
 7    1  0.2420569E-009  0.7149852E+02  0.7561462E-02  0.1355070E+00
          1   -1    0    0  501    0  0.00000000000E+00  0.00000000000E+00  0.21140486955E+03  0.21140486955E+03  0.00000000000E+00 0. -1.
         -1   -1    0    0    0  501 -0.00000000000E+00 -0.00000000000E+00 -0.57681029085E+02  0.57681029085E+02  0.00000000000E+00 0.  1.
         25    2    1    2    0    0  0.33518681997E+02 -0.27431333255E+02  0.94462395389E+02  0.16262685809E+03  0.12509344804E+03 0.  0.
          5    1    3    3  502    0  0.30201188738E+02 -0.18609511319E+01  0.12135271241E+03  0.12513803638E+03  0.41800000000E+01 0. -1.
         -5    1    3    3    0  502  0.33174932597E+01 -0.25570382123E+02 -0.26890317023E+02  0.37488821708E+02  0.41800000000E+01 0. -1.
        -11    1    1    2    0    0 -0.52933197204E+02  0.25826494137E+00  0.24748270322E+02  0.58433440348E+02  0.00000000000E+00 0. -1.
         11    1    1    2    0    0  0.19414515206E+02  0.27173068314E+02  0.34513174750E+02  0.48025600190E+02  0.00000000000E+00 0.  1.
</event>
<event>
 7    1  0.2420569E-009  0.2570481E+03  0.7561462E-02  0.1108930E+00
          1   -1    0    0  501    0  0.00000000000E+00  0.00000000000E+00  0.65484174783E+03  0.65484174783E+03  0.00000000000E+00 0. -1.
         -1   -1    0    0    0  501 -0.00000000000E+00 -0.00000000000E+00 -0.11655398407E+03  0.11655398407E+03  0.00000000000E+00 0.  1.
         25    2    1    2    0    0  0.20552200054E+03 -0.12986456618E+03  0.17478569230E+03  0.32450000115E+03  0.12508442852E+03 0.  0.
          5    1    3    3  502    0  0.21444466363E+03 -0.11127404717E+03  0.12854251941E+03  0.27369523019E+03  0.41800000000E+01 0.  1.
         -5    1    3    3    0  502 -0.89226630855E+01 -0.18590519012E+02  0.46243172892E+02  0.50804770965E+02  0.41800000000E+01 0.  1.
        -11    1    1    2    0    0 -0.11909042949E+03  0.11133723865E+03  0.17780096607E+03  0.24122954762E+03  0.00000000000E+00 0.  1.
         11    1    1    2    0    0 -0.86431571053E+02  0.18527327524E+02  0.18570110539E+03  0.20566618313E+03  0.00000000000E+00 0. -1.
</event>
<event>
 7    1  0.2420569E-009  0.1131507E+03  0.7561462E-02  0.1254844E+00
         -1   -1    0    0    0  501 -0.00000000000E+00  0.00000000000E+00  0.27856862818E+02  0.27856862818E+02  0.00000000000E+00 0.  1.
          1   -1    0    0  501    0  0.00000000000E+00 -0.00000000000E+00 -0.76616702465E+03  0.76616702465E+03  0.00000000000E+00 0. -1.
         25    2    1    2    0    0  0.71020736213E+02 -0.27125381383E+02 -0.47419927206E+03  0.49627971147E+03  0.12509544797E+03 0.  0.
          5    1    3    3  502    0 -0.14255705177E+02  0.27109678263E+02 -0.40545932420E+02  0.50986319944E+02  0.41800000000E+01 0. -1.
         -5    1    3    3    0  502  0.85276441390E+02 -0.54235059646E+02 -0.43365333965E+03  0.44529339153E+03  0.41800000000E+01 0. -1.
        -11    1    1    2    0    0 -0.59812934835E+02 -0.51883374691E+01 -0.25552138833E+03  0.26247987716E+03  0.00000000000E+00 0. -1.
         11    1    1    2    0    0 -0.11207801378E+02  0.32313718852E+02 -0.85895014391E+01  0.35264298841E+02  0.00000000000E+00 0.  1.
</event>
<event>
 7    1  0.2420569E-009  0.1060868E+03  0.7561462E-02  0.1267993E+00
         -2   -1    0    0    0  501 -0.00000000000E+00  0.00000000000E+00  0.16579133061E+03  0.16579133061E+03  0.00000000000E+00 0.  1.
          2   -1    0    0  501    0  0.00000000000E+00 -0.00000000000E+00 -0.12307012726E+03  0.12307012726E+03  0.00000000000E+00 0. -1.
         25    2    1    2    0    0  0.71380444140E+02 -0.27789006164E+01 -0.38121169290E+02  0.14900108377E+03  0.12508081117E+03 0.  0.
          5    1    3    3  502    0  0.83357003820E+02 -0.94657841470E+01  0.22295972380E+02  0.86905546081E+02  0.41800000000E+01 0.  1.
         -5    1    3    3    0  502 -0.11976559679E+02  0.66868835306E+01 -0.60417141670E+02  0.62095537687E+02  0.41800000000E+01 0.  1.
        -11    1    1    2    0    0 -0.11369836315E+02 -0.39060126284E+02  0.24157348042E+02  0.47313255093E+02  0.00000000000E+00 0.  1.
         11    1    1    2    0    0 -0.60010607825E+02  0.41839026900E+02  0.56685024602E+02  0.92547119013E+02  0.00000000000E+00 0. -1.
</event>
<event>
 7    1  0.2420569E-009  0.1306512E+03  0.7561462E-02  0.1226493E+00
         -1   -1    0    0    0  501 -0.00000000000E+00  0.00000000000E+00  0.21175543370E+02  0.21175543370E+02  0.00000000000E+00 0.  1.
          1   -1    0    0  501    0  0.00000000000E+00 -0.00000000000E+00 -0.12345425972E+04  0.12345425972E+04  0.00000000000E+00 0. -1.
         25    2    1    2    0    0  0.88446524580E+02  0.11510591284E+02 -0.96272832731E+03  0.97491035344E+03  0.12509629732E+03 0.  0.
          5    1    3    3  502    0 -0.14274869384E+02  0.28367980441E+02 -0.48003737237E+03  0.48110483835E+03  0.41800000000E+01 0. -1.
         -5    1    3    3    0  502  0.10272139396E+03 -0.16857389157E+02 -0.48269095494E+03  0.49380551509E+03  0.41800000000E+01 0. -1.
        -11    1    1    2    0    0 -0.87032176332E+02 -0.40552181272E+02 -0.17229635939E+03  0.19724379478E+03  0.00000000000E+00 0.  1.
         11    1    1    2    0    0 -0.14143482485E+01  0.29041589988E+02 -0.78342367129E+02  0.83563992350E+02  0.00000000000E+00 0. -1.
</event>
<event>
 7    1  0.2420569E-009  0.1729810E+03  0.7561462E-02  0.1174774E+00
          2   -1    0    0  501    0  0.00000000000E+00  0.00000000000E+00  0.15885732353E+03  0.15885732353E+03  0.00000000000E+00 0.  1.
         -2   -1    0    0    0  501 -0.00000000000E+00 -0.00000000000E+00 -0.23406644613E+03  0.23406644613E+03  0.00000000000E+00 0. -1.
         25    2    1    2    0    0 -0.16622856493E+02  0.15188290560E+03 -0.81675788012E+02  0.21368906377E+03  0.12508934909E+03 0.  0.
          5    1    3    3  502    0  0.26819780181E+02  0.53763591831E+02 -0.87408154841E+02  0.10614839777E+03  0.41800000000E+01 0. -1.
         -5    1    3    3    0  502 -0.43442636673E+02  0.98119313766E+02  0.57323668290E+01  0.10754066600E+03  0.41800000000E+01 0. -1.
        -11    1    1    2    0    0 -0.34728437240E+02 -0.97735550099E+02 -0.44382294129E+01  0.10381714688E+03  0.00000000000E+00 0.  1.
         11    1    1    2    0    0  0.51351293733E+02 -0.54147355498E+02  0.10904894828E+02  0.75417559008E+02  0.00000000000E+00 0. -1.
</event>
<event>
 7    1  0.2420569E-009  0.9795352E+02  0.7561462E-02  0.1284659E+00
          2   -1    0    0  501    0  0.00000000000E+00  0.00000000000E+00  0.50616006515E+03  0.50616006515E+03  0.00000000000E+00 0. -1.
         -2   -1    0    0    0  501 -0.00000000000E+00 -0.00000000000E+00 -0.33767955120E+02  0.33767955120E+02  0.00000000000E+00 0.  1.
         25    2    1    2    0    0 -0.65750487464E+02  0.32453905248E+02  0.28424457530E+03  0.31908514898E+03  0.12507586155E+03 0.  0.
          5    1    3    3  502    0 -0.41447762727E+02 -0.47142140407E+00  0.27338332230E+03  0.27653942321E+03  0.41800000000E+01 0. -1.
         -5    1    3    3    0  502 -0.24302724737E+02  0.32925326653E+02  0.10861253000E+02  0.42545725773E+02  0.41800000000E+01 0. -1.
        -11    1    1    2    0    0 -0.21294958138E+02 -0.71065626291E+01  0.21255264583E+02  0.30915445120E+02  0.00000000000E+00 0.  1.
         11    1    1    2    0    0  0.87045445602E+02 -0.25347342619E+02  0.16689227015E+03  0.18992742617E+03  0.00000000000E+00 0. -1.
</event>
<event>
 7    1  0.2420569E-009  0.1060262E+03  0.7561462E-02  0.1268111E+00
         -2   -1    0    0    0  501 -0.00000000000E+00  0.00000000000E+00  0.37090592700E+02  0.37090592700E+02  0.00000000000E+00 0. -1.
          2   -1    0    0  501    0  0.00000000000E+00 -0.00000000000E+00 -0.38380555784E+03  0.38380555784E+03  0.00000000000E+00 0.  1.
         25    2    1    2    0    0  0.64799720814E+02 -0.32350868139E+02 -0.26179608541E+03  0.29905057032E+03  0.12509384793E+03 0.  0.
          5    1    3    3  502    0  0.37024887282E+02  0.36445040437E+02 -0.41700773613E+02  0.66749608018E+02  0.41800000000E+01 0.  1.
         -5    1    3    3    0  502  0.27774833532E+02 -0.68795908576E+02 -0.22009531179E+03  0.23230096230E+03  0.41800000000E+01 0.  1.
        -11    1    1    2    0    0 -0.28546431418E+02 -0.96561479185E+01 -0.42017732356E+02  0.51707153970E+02  0.00000000000E+00 0.  1.
         11    1    1    2    0    0 -0.36253289396E+02  0.42007016058E+02 -0.42901147376E+02  0.70138426246E+02  0.00000000000E+00 0. -1.
</event>
<event>
 7    1  0.2420569E-009  0.1560145E+03  0.7561462E-02  0.1193271E+00
          2   -1    0    0  501    0  0.00000000000E+00  0.00000000000E+00  0.20857439905E+03  0.20857439905E+03  0.00000000000E+00 0.  1.
         -2   -1    0    0    0  501 -0.00000000000E+00 -0.00000000000E+00 -0.14507950430E+03  0.14507950430E+03  0.00000000000E+00 0. -1.
         25    2    1    2    0    0  0.56575042999E+02  0.11503426920E+03  0.77207834930E+02  0.19504444860E+03  0.12509064143E+03 0.  0.
          5    1    3    3  502    0 -0.35687247027E+02  0.25986433106E+02 -0.17894858670E+01  0.44379600783E+02  0.41800000000E+01 0. -1.
         -5    1    3    3    0  502  0.92262290026E+02  0.89047836092E+02  0.78997320797E+02  0.15066484781E+03  0.41800000000E+01 0. -1.
        -11    1    1    2    0    0 -0.22062071620E+02 -0.98832307804E+02 -0.43513712435E+02  0.11021798057E+03  0.00000000000E+00 0. -1.
         11    1    1    2    0    0 -0.34512971378E+02 -0.16201961395E+02  0.29800772253E+02  0.48391474180E+02  0.00000000000E+00 0.  1.
</event>
<event>
 7    1  0.2420569E-009  0.1865294E+03  0.7561462E-02  0.1161629E+00
          1   -1    0    0  501    0  0.00000000000E+00  0.00000000000E+00  0.23857862282E+03  0.23857862282E+03  0.00000000000E+00 0. -1.
         -1   -1    0    0    0  501 -0.00000000000E+00 -0.00000000000E+00 -0.22951877994E+03  0.22951877994E+03  0.00000000000E+00 0.  1.
         25    2    1    2    0    0 -0.32689016956E+02  0.16086172790E+03  0.13004638913E+03  0.24393380378E+03  0.12508625012E+03 0.  0.
          5    1    3    3  502    0  0.46430015035E+02  0.82914281613E+02  0.55972488366E+02  0.11036718826E+03  0.41800000000E+01 0.  1.
         -5    1    3    3    0  502 -0.79119031991E+02  0.77947446288E+02  0.74073900767E+02  0.13356661552E+03  0.41800000000E+01 0.  1.
        -11    1    1    2    0    0  0.35515069505E+02 -0.10468047655E+03 -0.12608528211E+03  0.16768071057E+03  0.00000000000E+00 0.  1.
         11    1    1    2    0    0 -0.28260525490E+01 -0.56181251351E+02  0.50987358583E+01  0.56482888415E+02  0.00000000000E+00 0. -1.
</event>
<event>
 7    1  0.4189471E-009  0.1134044E+03  0.7561462E-02  0.1254392E+00
         -2   -1    0    0    0  501 -0.00000000000E+00  0.00000000000E+00  0.37641568216E+02  0.37641568216E+02  0.00000000000E+00 0.  1.
          2   -1    0    0  501    0  0.00000000000E+00 -0.00000000000E+00 -0.50606835200E+03  0.50606835200E+03  0.00000000000E+00 0. -1.
         25    2    1    2    0    0  0.11514264354E+02 -0.83093920665E+02 -0.22709520497E+03  0.27250133086E+03  0.12509022850E+03 0.  0.
          5    1    3    3  502    0 -0.42693851135E+01 -0.99233875388E+02 -0.22881529082E+03  0.24947845475E+03  0.41800000000E+01 0. -1.
         -5    1    3    3    0  502  0.15783649468E+02  0.16139954723E+02  0.17200858490E+01  0.23022876109E+02  0.41800000000E+01 0. -1.
        -11    1    1    2    0    0 -0.36476566111E+02  0.36643926776E+02 -0.47082417394E+02  0.69929044556E+02  0.00000000000E+00 0.  1.
         11    1    1    2    0    0  0.24962301757E+02  0.46449993889E+02 -0.19424916143E+03  0.20127954480E+03  0.00000000000E+00 0. -1.
</event>
<event>
 7    1  0.2420569E-009  0.1464827E+03  0.7561462E-02  0.1204863E+00
          3   -1    0    0  501    0  0.00000000000E+00  0.00000000000E+00  0.16165047734E+03  0.16165047734E+03  0.00000000000E+00 0. -1.
         -3   -1    0    0    0  501 -0.00000000000E+00 -0.00000000000E+00 -0.17382035348E+03  0.17382035348E+03  0.00000000000E+00 0.  1.
         25    2    1    2    0    0 -0.11739070646E+03 -0.45629755746E+02  0.15222445230E+02  0.17816283644E+03  0.12509045079E+03 0.  0.
          5    1    3    3  502    0 -0.10057584362E+03 -0.11429002334E+02 -0.41681028927E+02  0.10954863298E+03  0.41800000000E+01 0. -1.
         -5    1    3    3    0  502 -0.16814862841E+02 -0.34200753412E+02  0.56903474157E+02  0.68614203467E+02  0.41800000000E+01 0. -1.
        -11    1    1    2    0    0  0.11363240568E+03  0.62991825082E+01 -0.30055239117E+02  0.11770862636E+03  0.00000000000E+00 0.  1.
         11    1    1    2    0    0  0.37583007814E+01  0.39330573238E+02  0.26629177497E+01  0.39599368011E+02  0.00000000000E+00 0. -1.
</event>
<event>
 7    1  0.2420569E-009  0.1238921E+03  0.7561462E-02  0.1236811E+00
         -1   -1    0    0    0  501 -0.00000000000E+00  0.00000000000E+00  0.37542285969E+02  0.37542285969E+02  0.00000000000E+00 0.  1.
          1   -1    0    0  501    0  0.00000000000E+00 -0.00000000000E+00 -0.54616435499E+03  0.54616435499E+03  0.00000000000E+00 0. -1.
         25    2    1    2    0    0 -0.87747055508E+02  0.42044809060E+02 -0.25846505214E+03  0.30318372214E+03  0.12509546145E+03 0.  0.
          5    1    3    3  502    0 -0.85842448530E+02  0.54162172035E+00 -0.24448068323E+03  0.25914763398E+03  0.41800000000E+01 0. -1.
         -5    1    3    3    0  502 -0.19046069777E+01  0.41503187339E+02 -0.13984368910E+02  0.44036088165E+02  0.41800000000E+01 0. -1.
        -11    1    1    2    0    0 -0.12294094061E+02 -0.65517738802E+01 -0.78643558674E+01  0.15997455515E+02  0.00000000000E+00 0.  1.
         11    1    1    2    0    0  0.10004114957E+03 -0.35493035179E+02 -0.24229266101E+03  0.26452546330E+03  0.00000000000E+00 0. -1.
</event>
<event>
 7    1  0.2420569E-009  0.1448690E+03  0.7561462E-02  0.1206924E+00
         -1   -1    0    0    0  501 -0.00000000000E+00  0.00000000000E+00  0.15401737271E+03  0.15401737271E+03  0.00000000000E+00 0.  1.
          1   -1    0    0  501    0  0.00000000000E+00 -0.00000000000E+00 -0.57410900388E+03  0.57410900388E+03  0.00000000000E+00 0. -1.
         25    2    1    2    0    0  0.47111275004E+02  0.12254085838E+03  0.83671183397E+02  0.19970993407E+03  0.12508979426E+03 0.  0.
          5    1    3    3  502    0 -0.77346141506E+00  0.59171560881E+02 -0.25554482892E+02  0.64593930485E+02  0.41800000000E+01 0.  1.
         -5    1    3    3    0  502  0.47884736419E+02  0.63369297501E+02  0.10922566629E+03  0.13511600358E+03  0.41800000000E+01 0.  1.
        -11    1    1    2    0    0  0.11769340732E+02 -0.72956409255E+02 -0.16150971222E+03  0.17761346282E+03  0.00000000000E+00 0. -1.
         11    1    1    2    0    0 -0.58880615735E+02 -0.49584449127E+02 -0.34225310235E+03  0.35080297970E+03  0.00000000000E+00 0.  1.
</event>
<event>
 7    1  0.2420569E-009  0.5139476E+02  0.7561462E-02  0.1437961E+00
         -2   -1    0    0    0  501 -0.00000000000E+00  0.00000000000E+00  0.61354251726E+02  0.61354251726E+02  0.00000000000E+00 0.  1.
          2   -1    0    0  501    0  0.00000000000E+00 -0.00000000000E+00 -0.24207097576E+03  0.24207097576E+03  0.00000000000E+00 0. -1.
         25    2    1    2    0    0  0.43406214667E+02  0.14016830517E+02 -0.57178010201E+02  0.14491187642E+03  0.12509818571E+03 0.  0.
          5    1    3    3  502    0 -0.17992029630E+00  0.11226264120E+02 -0.89574724324E+02  0.90372368648E+02  0.41800000000E+01 0.  1.
         -5    1    3    3    0  502  0.43586134964E+02  0.27905663971E+01  0.32396714122E+02  0.54539507770E+02  0.41800000000E+01 0.  1.
        -11    1    1    2    0    0 -0.26011388046E+02 -0.13998946971E+02 -0.13466356090E+03  0.13786528736E+03  0.00000000000E+00 0. -1.
         11    1    1    2    0    0 -0.17394826621E+02 -0.17883545250E-01  0.11124847062E+02  0.20648063714E+02  0.00000000000E+00 0.  1.
</event>
<event>
 7    1  0.2547188E-009  0.2249131E+03  0.7561462E-02  0.1130272E+00
          2   -1    0    0  501    0  0.00000000000E+00  0.00000000000E+00  0.12449160051E+04  0.12449160051E+04  0.00000000000E+00 0. -1.
         -2   -1    0    0    0  501 -0.00000000000E+00 -0.00000000000E+00 -0.49346430285E+02  0.49346430285E+02  0.00000000000E+00 0.  1.
         25    2    1    2    0    0  0.18846172030E+03 -0.84645401757E+02  0.40029827065E+03  0.46751297142E+03  0.12508800462E+03 0.  0.
          5    1    3    3  502    0  0.14975914838E+03 -0.22495229009E+02  0.17967111199E+03  0.23501706052E+03  0.41800000000E+01 0. -1.
         -5    1    3    3    0  502  0.38702571921E+02 -0.62150172749E+02  0.22062715866E+03  0.23249591089E+03  0.41800000000E+01 0. -1.
        -11    1    1    2    0    0 -0.10927216208E+03  0.26196039763E+00  0.42450852465E+03  0.43834685071E+03  0.00000000000E+00 0. -1.
         11    1    1    2    0    0 -0.79189558220E+02  0.84383441360E+02  0.37076277949E+03  0.38840261323E+03  0.00000000000E+00 0.  1.
</event>
<event>
 7    1  0.2420569E-009  0.1493308E+03  0.7561462E-02  0.1201298E+00
          1   -1    0    0  501    0  0.00000000000E+00  0.00000000000E+00  0.30153666189E+03  0.30153666189E+03  0.00000000000E+00 0.  1.
         -1   -1    0    0    0  501 -0.00000000000E+00 -0.00000000000E+00 -0.21544093708E+03  0.21544093708E+03  0.00000000000E+00 0. -1.
         25    2    1    2    0    0  0.10557429955E+03 -0.69339516909E+02 -0.14168512657E+03  0.22731607744E+03  0.12507606743E+03 0.  0.
          5    1    3    3  502    0  0.10140681938E+03 -0.20025800373E+02 -0.34276231522E+02  0.10898031081E+03  0.41800000000E+01 0.  1.
         -5    1    3    3    0  502  0.41674801683E+01 -0.49313716536E+02 -0.10740889504E+03  0.11833576663E+03  0.41800000000E+01 0.  1.
        -11    1    1    2    0    0 -0.51214848936E+02 -0.71462464940E+01  0.17396869783E+03  0.18149142519E+03  0.00000000000E+00 0.  1.
         11    1    1    2    0    0 -0.54359450614E+02  0.76485763403E+02  0.53812153539E+02  0.10817009634E+03  0.00000000000E+00 0. -1.
</event>
<event>
 7    1  0.2420569E-009  0.1172308E+03  0.7561462E-02  0.1247737E+00
          1   -1    0    0  501    0  0.00000000000E+00  0.00000000000E+00  0.78719504633E+02  0.78719504633E+02  0.00000000000E+00 0. -1.
         -1   -1    0    0    0  501 -0.00000000000E+00 -0.00000000000E+00 -0.26471800791E+03  0.26471800791E+03  0.00000000000E+00 0.  1.
         25    2    1    2    0    0  0.55515022061E+02  0.63554813088E+02 -0.16288634809E+03  0.22203645282E+03  0.12508833697E+03 0.  0.
          5    1    3    3  502    0 -0.37002051300E+01  0.85552315844E+02 -0.76261286654E+02  0.11474382993E+03  0.41800000000E+01 0.  1.
         -5    1    3    3    0  502  0.59215227191E+02 -0.21997502756E+02 -0.86625061431E+02  0.10729262289E+03  0.41800000000E+01 0.  1.
        -11    1    1    2    0    0 -0.23965765871E+02 -0.37495336316E+02 -0.54115461611E+02  0.70062410497E+02  0.00000000000E+00 0.  1.
         11    1    1    2    0    0 -0.31549256190E+02 -0.26059476772E+02  0.31003306418E+02  0.51338649229E+02  0.00000000000E+00 0. -1.
</event>
<event>
 7    1  0.2420569E-009  0.1076859E+03  0.7561462E-02  0.1264916E+00
         -1   -1    0    0    0  501 -0.00000000000E+00  0.00000000000E+00  0.30582085898E+02  0.30582085898E+02  0.00000000000E+00 0.  1.
          1   -1    0    0  501    0  0.00000000000E+00 -0.00000000000E+00 -0.54684888438E+03  0.54684888438E+03  0.00000000000E+00 0. -1.
         25    2    1    2    0    0  0.17144885404E+02  0.58898756207E+02 -0.35895436554E+03  0.38504582836E+03  0.12509613431E+03 0.  0.
          5    1    3    3  502    0 -0.22461511705E+02  0.85510977984E+02 -0.19320746093E+03  0.21251645165E+03  0.41800000000E+01 0. -1.
         -5    1    3    3    0  502  0.39606397109E+02 -0.26612221778E+02 -0.16574690461E+03  0.17252937671E+03  0.41800000000E+01 0. -1.
        -11    1    1    2    0    0  0.17714435912E+02 -0.20831960204E+02 -0.13217316922E+03  0.13497228778E+03  0.00000000000E+00 0. -1.
         11    1    1    2    0    0 -0.34859321316E+02 -0.38066796003E+02 -0.25139263727E+02  0.57412854146E+02  0.00000000000E+00 0.  1.
</event>
<event>
 7    1  0.2420569E-009  0.1401220E+03  0.7561462E-02  0.1213165E+00
         -1   -1    0    0    0  501 -0.00000000000E+00  0.00000000000E+00  0.14464308197E+03  0.14464308197E+03  0.00000000000E+00 0.  1.
          1   -1    0    0  501    0  0.00000000000E+00 -0.00000000000E+00 -0.19069366072E+03  0.19069366072E+03  0.00000000000E+00 0. -1.
         25    2    1    2    0    0 -0.12906658802E+03 -0.20084242782E+02 -0.38068451926E+02  0.18482027745E+03  0.12509103474E+03 0.  0.
          5    1    3    3  502    0 -0.58912456751E+02 -0.37516121084E+01  0.45327981474E+02  0.74544285216E+02  0.41800000000E+01 0.  1.
         -5    1    3    3    0  502 -0.70154131271E+02 -0.16332630674E+02 -0.83396433400E+02  0.11027599223E+03  0.41800000000E+01 0.  1.
        -11    1    1    2    0    0  0.99734232318E+02  0.45945076614E+02 -0.14867745157E+02  0.11081027483E+03  0.00000000000E+00 0.  1.
         11    1    1    2    0    0  0.29332355704E+02 -0.25860833832E+02  0.68856183252E+01  0.39706190416E+02  0.00000000000E+00 0. -1.
</event>
<event>
 7    1  0.2584743E-009  0.1700851E+03  0.7561462E-02  0.1177759E+00
          1   -1    0    0  501    0  0.00000000000E+00  0.00000000000E+00  0.57122375328E+03  0.57122375328E+03  0.00000000000E+00 0. -1.
         -1   -1    0    0    0  501 -0.00000000000E+00 -0.00000000000E+00 -0.59005739021E+02  0.59005739021E+02  0.00000000000E+00 0.  1.
         25    2    1    2    0    0  0.73705291180E+02  0.12648223831E+03  0.30303996176E+03  0.35904110399E+03  0.12508824634E+03 0.  0.
          5    1    3    3  502    0  0.97166367882E+02  0.45269957174E+02  0.18382327574E+03  0.21283594897E+03  0.41800000000E+01 0.  1.
         -5    1    3    3    0  502 -0.23461076702E+02  0.81212281138E+02  0.11921668602E+03  0.14620515502E+03  0.41800000000E+01 0.  1.
        -11    1    1    2    0    0 -0.40292411822E+02 -0.90990576766E+02  0.64669070450E+02  0.11867961992E+03  0.00000000000E+00 0.  1.
         11    1    1    2    0    0 -0.33412879359E+02 -0.35491661545E+02  0.14450898205E+03  0.15250876840E+03  0.00000000000E+00 0. -1.
</event>
<event>
 7    1  0.2420569E-009  0.2956120E+03  0.7561462E-02  0.1087455E+00
          2   -1    0    0  501    0  0.00000000000E+00  0.00000000000E+00  0.45682123564E+03  0.45682123564E+03  0.00000000000E+00 0. -1.
         -2   -1    0    0    0  501 -0.00000000000E+00 -0.00000000000E+00 -0.30523197599E+03  0.30523197599E+03  0.00000000000E+00 0.  1.
         25    2    1    2    0    0 -0.27680132176E+03  0.73407108708E+02 -0.14288847274E+03  0.34361727069E+03  0.12509251672E+03 0.  0.
          5    1    3    3  502    0 -0.27236313948E+03  0.89982426312E+02 -0.11185106669E+03  0.30790688578E+03  0.41800000000E+01 0. -1.
         -5    1    3    3    0  502 -0.44381822730E+01 -0.16575317604E+02 -0.31037406058E+02  0.35710384909E+02  0.41800000000E+01 0. -1.
        -11    1    1    2    0    0  0.59181753323E+02 -0.21496700773E+02  0.23909483445E+02  0.67351699823E+02  0.00000000000E+00 0.  1.
         11    1    1    2    0    0  0.21761956843E+03 -0.51910407935E+02  0.27056824895E+03  0.35108424111E+03  0.00000000000E+00 0. -1.
</event>
<event>
 7    1  0.2420569E-009  0.2981434E+03  0.7561462E-02  0.1086172E+00
         -1   -1    0    0    0  501 -0.00000000000E+00  0.00000000000E+00  0.26332701239E+03  0.26332701239E+03  0.00000000000E+00 0.  1.
          1   -1    0    0  501    0  0.00000000000E+00 -0.00000000000E+00 -0.36757657474E+03  0.36757657474E+03  0.00000000000E+00 0. -1.
         25    2    1    2    0    0  0.27981211278E+03  0.77166370667E+02 -0.33799490917E+02  0.31786647940E+03  0.12508887207E+03 0.  0.
          5    1    3    3  502    0  0.20248376507E+03  0.99057420632E+02 -0.59879162337E+02  0.23327030282E+03  0.41800000000E+01 0. -1.
         -5    1    3    3    0  502  0.77328347718E+02 -0.21891049965E+02  0.26079671420E+02  0.84596176573E+02  0.41800000000E+01 0. -1.
        -11    1    1    2    0    0 -0.12421222104E+03 -0.38170735619E+02 -0.79560792789E+02  0.15236666520E+03  0.00000000000E+00 0.  1.
         11    1    1    2    0    0 -0.15559989174E+03 -0.38995635048E+02  0.91107213512E+01  0.16067044254E+03  0.00000000000E+00 0. -1.
</event>
<event>
 7    1  0.2420569E-009  0.7802076E+02  0.7561462E-02  0.1334764E+00
         -2   -1    0    0    0  501 -0.00000000000E+00  0.00000000000E+00  0.12588317003E+03  0.12588317003E+03  0.00000000000E+00 0.  1.
          2   -1    0    0  501    0  0.00000000000E+00 -0.00000000000E+00 -0.15241144609E+03  0.15241144609E+03  0.00000000000E+00 0. -1.
         25    2    1    2    0    0 -0.21463796797E+01 -0.32851654945E+02 -0.88242429958E+02  0.15658187977E+03  0.12508924993E+03 0.  0.
          5    1    3    3  502    0 -0.22829522049E+02 -0.28303881583E+01 -0.11097799074E+03  0.11341421870E+03  0.41800000000E+01 0.  1.
         -5    1    3    3    0  502  0.20683142369E+02 -0.30021266786E+02  0.22735560785E+02  0.43167661066E+02  0.41800000000E+01 0.  1.
        -11    1    1    2    0    0  0.32854225898E+02 -0.17321558301E+02  0.49076133532E+02  0.61545945632E+02  0.00000000000E+00 0.  1.
         11    1    1    2    0    0 -0.30707846218E+02  0.50173213246E+02  0.12638020364E+02  0.60166790720E+02  0.00000000000E+00 0. -1.
</event>
<event>
 7    1  0.2420569E-009  0.1089237E+03  0.7561462E-02  0.1262576E+00
          1   -1    0    0  501    0  0.00000000000E+00  0.00000000000E+00  0.12951925003E+03  0.12951925003E+03  0.00000000000E+00 0. -1.
         -1   -1    0    0    0  501 -0.00000000000E+00 -0.00000000000E+00 -0.13266942758E+03  0.13266942758E+03  0.00000000000E+00 0.  1.
         25    2    1    2    0    0 -0.17803004922E+02 -0.69598958615E+02  0.83605356934E+01  0.14449340153E+03  0.12508989769E+03 0.  0.
          5    1    3    3  502    0 -0.69797158257E+02 -0.55643711721E+02  0.12985429867E+02  0.90299278755E+02  0.41800000000E+01 0.  1.
         -5    1    3    3    0  502  0.51994153336E+02 -0.13955246894E+02 -0.46248941733E+01  0.54194122773E+02  0.41800000000E+01 0.  1.
        -11    1    1    2    0    0 -0.41126343628E+01  0.17357524014E+02 -0.47390780246E+02  0.50636779653E+02  0.00000000000E+00 0.  1.
         11    1    1    2    0    0  0.21915639285E+02  0.52241434601E+02  0.35880067003E+02  0.67058496423E+02  0.00000000000E+00 0. -1.
</event>
<event>
 7    1  0.2420569E-009  0.1109205E+03  0.7561462E-02  0.1258875E+00
         -1   -1    0    0    0  501 -0.00000000000E+00  0.00000000000E+00  0.43043137798E+02  0.43043137798E+02  0.00000000000E+00 0.  1.
          1   -1    0    0  501    0  0.00000000000E+00 -0.00000000000E+00 -0.62815806902E+03  0.62815806902E+03  0.00000000000E+00 0. -1.
         25    2    1    2    0    0  0.39156669858E+02 -0.10060353471E+03 -0.44647859412E+03  0.47607399032E+03  0.12509593625E+03 0.  0.
          5    1    3    3  502    0  0.18348044529E+02 -0.85424579773E+02 -0.11969911992E+03  0.14825438030E+03  0.41800000000E+01 0.  1.
         -5    1    3    3    0  502  0.20808625328E+02 -0.15178954937E+02 -0.32677947419E+03  0.32781961002E+03  0.41800000000E+01 0.  1.
        -11    1    1    2    0    0 -0.16327727685E+01  0.11161252998E+02  0.11677319158E+02  0.16235741378E+02  0.00000000000E+00 0.  1.
         11    1    1    2    0    0 -0.37523897089E+02  0.89442281713E+02 -0.15031365626E+03  0.17889147512E+03  0.00000000000E+00 0. -1.
</event>
<event>
 7    1  0.2420569E-009  0.1019159E+03  0.7561462E-02  0.1276318E+00
         -2   -1    0    0    0  501 -0.00000000000E+00  0.00000000000E+00  0.12868976814E+02  0.12868976814E+02  0.00000000000E+00 0.  1.
          2   -1    0    0  501    0  0.00000000000E+00 -0.00000000000E+00 -0.10247819630E+04  0.10247819630E+04  0.00000000000E+00 0. -1.
         25    2    1    2    0    0  0.38887733529E+02 -0.80894147903E+01 -0.63789155654E+03  0.65125340799E+03  0.12509064337E+03 0.  0.
          5    1    3    3  502    0  0.71178840906E+02  0.15501855979E+02 -0.54725932474E+03  0.55210232371E+03  0.41800000000E+01 0. -1.
         -5    1    3    3    0  502 -0.32291107377E+02 -0.23591270770E+02 -0.90632231796E+02  0.99151084273E+02  0.41800000000E+01 0. -1.
        -11    1    1    2    0    0 -0.27533903031E+02  0.44603450172E+02 -0.28058827779E+03  0.28544240262E+03  0.00000000000E+00 0. -1.
         11    1    1    2    0    0 -0.11353830499E+02 -0.36514035382E+02 -0.93433151908E+02  0.10095512925E+03  0.00000000000E+00 0.  1.
</event>
<event>
 7    1  0.2420569E-009  0.1061997E+03  0.7561462E-02  0.1267774E+00
          1   -1    0    0  501    0  0.00000000000E+00  0.00000000000E+00  0.64007132469E+03  0.64007132469E+03  0.00000000000E+00 0. -1.
         -1   -1    0    0    0  501 -0.00000000000E+00 -0.00000000000E+00 -0.26477161967E+02  0.26477161967E+02  0.00000000000E+00 0.  1.
         25    2    1    2    0    0  0.66249369249E+01  0.59816557988E+02  0.23140795951E+03  0.26985088419E+03  0.12509174863E+03 0.  0.
          5    1    3    3  502    0  0.52161813034E+02  0.27485197933E+02  0.42459630163E+02  0.72777630066E+02  0.41800000000E+01 0. -1.
         -5    1    3    3    0  502 -0.45536876109E+02  0.32331360055E+02  0.18894832934E+03  0.19707325412E+03  0.41800000000E+01 0. -1.
        -11    1    1    2    0    0  0.34795957608E+02 -0.21768074359E+02  0.86933076993E+02  0.96135152793E+02  0.00000000000E+00 0.  1.
         11    1    1    2    0    0 -0.41420894533E+02 -0.38048483629E+02  0.29525312622E+03  0.30056244968E+03  0.00000000000E+00 0. -1.
</event>
<event>
 7    1  0.2420569E-009  0.1013476E+03  0.7561462E-02  0.1277487E+00
         -1   -1    0    0    0  501 -0.00000000000E+00  0.00000000000E+00  0.28993099719E+02  0.28993099719E+02  0.00000000000E+00 0.  1.
          1   -1    0    0  501    0  0.00000000000E+00 -0.00000000000E+00 -0.54825665955E+03  0.54825665955E+03  0.00000000000E+00 0. -1.
         25    2    1    2    0    0  0.25892225269E+02  0.42369878316E+02 -0.19486916628E+03  0.23681698765E+03  0.12507069904E+03 0.  0.
          5    1    3    3  502    0  0.39751892932E+02  0.64991519571E+02 -0.54159765424E+02  0.93567425949E+02  0.41800000000E+01 0.  1.
         -5    1    3    3    0  502 -0.13859667663E+02 -0.22621641255E+02 -0.14070940085E+03  0.14324956171E+03  0.41800000000E+01 0.  1.
        -11    1    1    2    0    0  0.24454722849E+02 -0.42681495418E+02 -0.20572970553E+03  0.21152885207E+03  0.00000000000E+00 0. -1.
         11    1    1    2    0    0 -0.50346948118E+02  0.31161710255E+00 -0.11866468803E+03  0.12890391955E+03  0.00000000000E+00 0.  1.
</event>
<event>
 7    1  0.2420569E-009  0.9983296E+02  0.7561462E-02  0.1280648E+00
         -2   -1    0    0    0  501 -0.00000000000E+00  0.00000000000E+00  0.14824624739E+03  0.14824624739E+03  0.00000000000E+00 0.  1.
          2   -1    0    0  501    0  0.00000000000E+00 -0.00000000000E+00 -0.12176201111E+03  0.12176201111E+03  0.00000000000E+00 0. -1.
         25    2    1    2    0    0  0.41554961895E+02 -0.72253882288E+02  0.16956892377E+02  0.15127116779E+03  0.12509193276E+03 0.  0.
          5    1    3    3  502    0  0.26916514733E+02 -0.74716192403E+02 -0.42274949027E+02  0.90064709447E+02  0.41800000000E+01 0. -1.
         -5    1    3    3    0  502  0.14638447162E+02  0.24623101155E+01  0.59231841404E+02  0.61206458340E+02  0.41800000000E+01 0. -1.
        -11    1    1    2    0    0  0.17119220755E+02  0.16761175863E+02  0.27012389056E+02  0.36106424609E+02  0.00000000000E+00 0.  1.
         11    1    1    2    0    0 -0.58674182649E+02  0.55492706425E+02 -0.17485045157E+02  0.82630666100E+02  0.00000000000E+00 0. -1.
</event>
<event>
 7    1  0.2420569E-009  0.1003976E+03  0.7561462E-02  0.1279462E+00
         -2   -1    0    0    0  501 -0.00000000000E+00  0.00000000000E+00  0.29746306021E+03  0.29746306021E+03  0.00000000000E+00 0.  1.
          2   -1    0    0  501    0  0.00000000000E+00 -0.00000000000E+00 -0.61264258300E+02  0.61264258300E+02  0.00000000000E+00 0. -1.
         25    2    1    2    0    0 -0.50462402177E+01 -0.53418315446E+00  0.23299680820E+02  0.12734288759E+03  0.12509031138E+03 0.  0.
          5    1    3    3  502    0  0.35008052185E+01 -0.54828153620E+02 -0.18547219426E+02  0.58136510172E+02  0.41800000000E+01 0.  1.
         -5    1    3    3    0  502 -0.85470454362E+01  0.54293970465E+02  0.41846900246E+02  0.69206377414E+02  0.41800000000E+01 0.  1.
        -11    1    1    2    0    0 -0.19264661236E+02  0.39900224980E+02  0.10794323596E+03  0.11668289213E+03  0.00000000000E+00 0. -1.
         11    1    1    2    0    0  0.24310901453E+02 -0.39366041826E+02  0.10495588513E+03  0.11470153879E+03  0.00000000000E+00 0.  1.
</event>
<event>
 7    1  0.2420569E-009  0.9278332E+02  0.7561462E-02  0.1296248E+00
         -1   -1    0    0    0  501 -0.00000000000E+00  0.00000000000E+00  0.96836121203E+02  0.96836121203E+02  0.00000000000E+00 0.  1.
          1   -1    0    0  501    0  0.00000000000E+00 -0.00000000000E+00 -0.13286816000E+03  0.13286816000E+03  0.00000000000E+00 0. -1.
         25    2    1    2    0    0 -0.21528197505E+02  0.32110979332E+01 -0.46348415196E+02  0.13516391989E+03  0.12508930894E+03 0.  0.
          5    1    3    3  502    0  0.30821625866E+02 -0.22300105288E+02 -0.63649299941E+02  0.74269597413E+02  0.41800000000E+01 0.  1.
         -5    1    3    3    0  502 -0.52349823371E+02  0.25511203221E+02  0.17300884745E+02  0.60894322475E+02  0.41800000000E+01 0.  1.
        -11    1    1    2    0    0 -0.15216200731E+02  0.33608235652E+02 -0.10738303784E+02  0.38423396993E+02  0.00000000000E+00 0. -1.
         11    1    1    2    0    0  0.36744398236E+02 -0.36819333586E+02  0.21054680181E+02  0.56116964324E+02  0.00000000000E+00 0.  1.
</event>
<event>
 7    1  0.2420569E-009  0.1189059E+03  0.7561462E-02  0.1244913E+00
         -1   -1    0    0    0  501 -0.00000000000E+00  0.00000000000E+00  0.98536345313E+03  0.98536345313E+03  0.00000000000E+00 0.  1.
          1   -1    0    0  501    0  0.00000000000E+00 -0.00000000000E+00 -0.38963434149E+02  0.38963434149E+02  0.00000000000E+00 0. -1.
         25    2    1    2    0    0  0.11461921389E+03 -0.17307263486E+02  0.79151021410E+03  0.80967458507E+03  0.12508960433E+03 0.  0.
          5    1    3    3  502    0  0.20783636313E+02 -0.17997304142E+02  0.54755500516E+03  0.54826072134E+03  0.41800000000E+01 0. -1.
         -5    1    3    3    0  502  0.93835577580E+02  0.69004065543E+00  0.24395520895E+03  0.26141386373E+03  0.41800000000E+01 0. -1.
        -11    1    1    2    0    0 -0.69440084307E+02  0.75330253269E+01  0.20891035530E+02  0.72904781357E+02  0.00000000000E+00 0. -1.
         11    1    1    2    0    0 -0.45179129586E+02  0.97742381593E+01  0.13399876935E+03  0.14174752085E+03  0.00000000000E+00 0.  1.
</event>
<event>
 7    1  0.2420569E-009  0.1515400E+03  0.7561462E-02  0.1198593E+00
          1   -1    0    0  501    0  0.00000000000E+00  0.00000000000E+00  0.63717917490E+03  0.63717917490E+03  0.00000000000E+00 0. -1.
         -1   -1    0    0    0  501 -0.00000000000E+00 -0.00000000000E+00 -0.49394978099E+02  0.49394978099E+02  0.00000000000E+00 0.  1.
         25    2    1    2    0    0 -0.92204226607E+02 -0.10558743211E+03  0.30742567027E+03  0.36029160248E+03  0.12509664604E+03 0.  0.
          5    1    3    3  502    0 -0.25231661774E+02 -0.38469398976E+02  0.89034436371E+01  0.47045458038E+02  0.41800000000E+01 0.  1.
         -5    1    3    3    0  502 -0.66972564833E+02 -0.67118033139E+02  0.29852222663E+03  0.31324614444E+03  0.41800000000E+01 0.  1.
        -11    1    1    2    0    0  0.61445980584E+02  0.10883204253E+02  0.14827282934E+03  0.16086915362E+03  0.00000000000E+00 0.  1.
         11    1    1    2    0    0  0.30758246024E+02  0.94704227861E+02  0.13208569720E+03  0.16541339691E+03  0.00000000000E+00 0. -1.
</event>
<event>
 7    1  0.2420569E-009  0.1611639E+03  0.7561462E-02  0.1187389E+00
          2   -1    0    0  501    0  0.00000000000E+00  0.00000000000E+00  0.39000225700E+02  0.39000225700E+02  0.00000000000E+00 0. -1.
         -2   -1    0    0    0  501 -0.00000000000E+00 -0.00000000000E+00 -0.69654259087E+03  0.69654259087E+03  0.00000000000E+00 0.  1.
         25    2    1    2    0    0  0.10945170902E+03 -0.57144969566E+02 -0.39030705363E+03  0.42805686755E+03  0.12509141293E+03 0.  0.
          5    1    3    3  502    0  0.13722241478E+03 -0.41196477078E+02 -0.31186273754E+03  0.34322438769E+03  0.41800000000E+01 0. -1.
         -5    1    3    3    0  502 -0.27770705766E+02 -0.15948492488E+02 -0.78444316092E+02  0.84832479856E+02  0.41800000000E+01 0. -1.
        -11    1    1    2    0    0 -0.74685579917E+02  0.76495815610E+02 -0.15406477547E+03  0.18752466690E+03  0.00000000000E+00 0.  1.
         11    1    1    2    0    0 -0.34766129099E+02 -0.19350846044E+02 -0.11317053607E+03  0.11996128212E+03  0.00000000000E+00 0. -1.
</event>
<event>
 7    1  0.2420569E-009  0.3945893E+03  0.7561462E-02  0.1045669E+00
         -2   -1    0    0    0  501 -0.00000000000E+00  0.00000000000E+00  0.17544098734E+03  0.17544098734E+03  0.00000000000E+00 0.  1.
          2   -1    0    0  501    0  0.00000000000E+00 -0.00000000000E+00 -0.91170242896E+03  0.91170242896E+03  0.00000000000E+00 0. -1.
         25    2    1    2    0    0  0.30048151532E+03  0.23218875023E+03 -0.45305490956E+03  0.60424104230E+03  0.12509088436E+03 0.  0.
          5    1    3    3  502    0  0.66742173043E+01  0.55869321560E+02 -0.77191679341E+02  0.95613566128E+02  0.41800000000E+01 0. -1.
         -5    1    3    3    0  502  0.29380729802E+03  0.17631942867E+03 -0.37586323022E+03  0.50862747618E+03  0.41800000000E+01 0. -1.
        -11    1    1    2    0    0 -0.78635230381E+02 -0.11462939392E+03 -0.84128643632E+02  0.16248392563E+03  0.00000000000E+00 0.  1.
         11    1    1    2    0    0 -0.22184628494E+03 -0.11755935630E+03 -0.19907788842E+03  0.32041844837E+03  0.00000000000E+00 0. -1.
</event>
<event>
 7    1  0.2420569E-009  0.9526159E+02  0.7561462E-02  0.1290588E+00
          3   -1    0    0  501    0  0.00000000000E+00  0.00000000000E+00  0.27122038139E+03  0.27122038139E+03  0.00000000000E+00 0. -1.
         -3   -1    0    0    0  501 -0.00000000000E+00 -0.00000000000E+00 -0.49579918967E+02  0.49579918967E+02  0.00000000000E+00 0.  1.
         25    2    1    2    0    0 -0.31237819457E+02 -0.26066161950E+02  0.11374699665E+03  0.17390451526E+03  0.12509658277E+03 0.  0.
          5    1    3    3  502    0  0.37315008231E+02  0.19830609329E+02  0.14707493162E+02  0.44938242742E+02  0.41800000000E+01 0. -1.
         -5    1    3    3    0  502 -0.68552827688E+02 -0.45896771279E+02  0.99039503484E+02  0.12896627252E+03  0.41800000000E+01 0. -1.
        -11    1    1    2    0    0 -0.59092781761E+01  0.27650248447E+02  0.10595684170E+03  0.10966452531E+03  0.00000000000E+00 0. -1.
         11    1    1    2    0    0  0.37147097633E+02 -0.15840864975E+01  0.19366240782E+01  0.37231259788E+02  0.00000000000E+00 0.  1.
</event>
<event>
 7    1  0.2420569E-009  0.9365067E+02  0.7561462E-02  0.1294244E+00
         -1   -1    0    0    0  501 -0.00000000000E+00  0.00000000000E+00  0.15380426579E+02  0.15380426579E+02  0.00000000000E+00 0.  1.
          1   -1    0    0  501    0  0.00000000000E+00 -0.00000000000E+00 -0.92170517216E+03  0.92170517216E+03  0.00000000000E+00 0. -1.
         25    2    1    2    0    0 -0.46477777748E+02 -0.63569578092E+01 -0.59263822479E+03  0.60750974123E+03  0.12508966972E+03 0.  0.
          5    1    3    3  502    0 -0.68672623856E+02  0.24835466773E+01 -0.15987927439E+03  0.17407168653E+03  0.41800000000E+01 0.  1.
         -5    1    3    3    0  502  0.22194846108E+02 -0.88405044866E+01 -0.43275895040E+03  0.43343805471E+03  0.41800000000E+01 0.  1.
        -11    1    1    2    0    0  0.29229808361E+02 -0.37226634619E+02 -0.97689424857E+02  0.10855149815E+03  0.00000000000E+00 0.  1.
         11    1    1    2    0    0  0.17247969387E+02  0.43583592428E+02 -0.21599709594E+03  0.22102435936E+03  0.00000000000E+00 0. -1.
</event>
<event>
 7    1  0.2420569E-009  0.1681196E+03  0.7561462E-02  0.1179823E+00
          1   -1    0    0  501    0  0.00000000000E+00  0.00000000000E+00  0.10767107007E+04  0.10767107007E+04  0.00000000000E+00 0. -1.
         -1   -1    0    0    0  501 -0.00000000000E+00 -0.00000000000E+00 -0.27967080490E+02  0.27967080490E+02  0.00000000000E+00 0.  1.
         25    2    1    2    0    0  0.30488319039E+01 -0.13045841853E+03  0.66234729900E+03  0.68657118527E+03  0.12508938248E+03 0.  0.
          5    1    3    3  502    0  0.51786499418E+02 -0.11811527281E+03  0.51083386591E+03  0.52687927475E+03  0.41800000000E+01 0. -1.
         -5    1    3    3    0  502 -0.48737667514E+02 -0.12343145718E+02  0.15151343309E+03  0.15969191053E+03  0.41800000000E+01 0. -1.
        -11    1    1    2    0    0 -0.44796413990E+02  0.60407751228E+02  0.22575997408E+03  0.23795667885E+03  0.00000000000E+00 0. -1.
         11    1    1    2    0    0  0.41747582086E+02  0.70050667303E+02  0.16063634714E+03  0.18014991707E+03  0.00000000000E+00 0.  1.
</event>
<event>
 7    1  0.2420569E-009  0.1159433E+03  0.7561462E-02  0.1249943E+00
          2   -1    0    0  501    0  0.00000000000E+00  0.00000000000E+00  0.11078395447E+04  0.11078395447E+04  0.00000000000E+00 0. -1.
         -2   -1    0    0    0  501 -0.00000000000E+00 -0.00000000000E+00 -0.16817172765E+02  0.16817172765E+02  0.00000000000E+00 0.  1.
         25    2    1    2    0    0 -0.44884681992E+02 -0.21721389128E+02  0.87035766407E+03  0.88071394094E+03  0.12509248153E+03 0.  0.
          5    1    3    3  502    0 -0.57058956985E+02 -0.66609446324E+02  0.54737794745E+03  0.55437589474E+03  0.41800000000E+01 0.  1.
         -5    1    3    3    0  502  0.12174274993E+02  0.44888057196E+02  0.32297971662E+03  0.32633804620E+03  0.41800000000E+01 0.  1.
        -11    1    1    2    0    0  0.60435997919E+02 -0.10745200947E+02  0.94044707902E+02  0.11230483637E+03  0.00000000000E+00 0.  1.
         11    1    1    2    0    0 -0.15551315927E+02  0.32466590075E+02  0.12662000000E+03  0.13163794019E+03  0.00000000000E+00 0. -1.
</event>
<event>
 7    1  0.2420569E-009  0.1523761E+03  0.7561462E-02  0.1197583E+00
         -2   -1    0    0    0  501 -0.00000000000E+00  0.00000000000E+00  0.63955127682E+02  0.63955127682E+02  0.00000000000E+00 0.  1.
          2   -1    0    0  501    0  0.00000000000E+00 -0.00000000000E+00 -0.44942585449E+03  0.44942585449E+03  0.00000000000E+00 0. -1.
         25    2    1    2    0    0 -0.11018000983E+03 -0.57905705271E+02 -0.26192578181E+03  0.31582486962E+03  0.12509007884E+03 0.  0.
          5    1    3    3  502    0 -0.25266833598E+02  0.38107048794E+02 -0.48136872028E+02  0.66522108329E+02  0.41800000000E+01 0.  1.
         -5    1    3    3    0  502 -0.84913176235E+02 -0.96012754065E+02 -0.21378890978E+03  0.24930276129E+03  0.41800000000E+01 0.  1.
        -11    1    1    2    0    0  0.10990506951E+03  0.46746184412E+02 -0.13588796196E+03  0.18091398030E+03  0.00000000000E+00 0.  1.
         11    1    1    2    0    0  0.27494032383E+00  0.11159520859E+02  0.12343016967E+02  0.16642132250E+02  0.00000000000E+00 0. -1.
</event>
<event>
 7    1  0.2420569E-009  0.9367339E+02  0.7561462E-02  0.1294192E+00
         -1   -1    0    0    0  501 -0.00000000000E+00  0.00000000000E+00  0.33738494927E+02  0.33738494927E+02  0.00000000000E+00 0.  1.
          1   -1    0    0  501    0  0.00000000000E+00 -0.00000000000E+00 -0.53788634011E+03  0.53788634011E+03  0.00000000000E+00 0. -1.
         25    2    1    2    0    0  0.29133428686E+02  0.43984959980E+02 -0.40152952936E+03  0.42385910595E+03  0.12508855012E+03 0.  0.
          5    1    3    3  502    0  0.57836612791E+02  0.48214909731E+02 -0.38020075494E+03  0.38760784016E+03  0.41800000000E+01 0. -1.
         -5    1    3    3    0  502 -0.28703184104E+02 -0.42299497508E+01 -0.21328774427E+02  0.36251265787E+02  0.41800000000E+01 0. -1.
        -11    1    1    2    0    0 -0.48347635516E+02 -0.21134365878E+02 -0.14491185592E+02  0.54718824374E+02  0.00000000000E+00 0.  1.
         11    1    1    2    0    0  0.19214206830E+02 -0.22850594102E+02 -0.88127130231E+02  0.93046904718E+02  0.00000000000E+00 0. -1.
</event>
<event>
 7    1  0.2420569E-009  0.1699262E+03  0.7561462E-02  0.1177925E+00
          2   -1    0    0  501    0  0.00000000000E+00  0.00000000000E+00  0.11501445177E+03  0.11501445177E+03  0.00000000000E+00 0. -1.
         -2   -1    0    0    0  501 -0.00000000000E+00 -0.00000000000E+00 -0.41825045619E+03  0.41825045619E+03  0.00000000000E+00 0.  1.
         25    2    1    2    0    0 -0.12957301541E+03  0.74618018500E+02 -0.28867027113E+03  0.34833227963E+03  0.12509131300E+03 0.  0.
          5    1    3    3  502    0 -0.15425063900E+01  0.47440029873E+02 -0.15095648233E+03  0.15829803448E+03  0.41800000000E+01 0.  1.
         -5    1    3    3    0  502 -0.12803050902E+03  0.27177988627E+02 -0.13771378880E+03  0.19003424515E+03  0.41800000000E+01 0.  1.
        -11    1    1    2    0    0  0.11970372460E+03 -0.41495590065E+02  0.28355167500E+02  0.12982635019E+03  0.00000000000E+00 0.  1.
         11    1    1    2    0    0  0.98692908045E+01 -0.33122428434E+02 -0.42920900790E+02  0.55106278145E+02  0.00000000000E+00 0. -1.
</event>
<event>
 7    1  0.2420569E-009  0.1129197E+03  0.7561462E-02  0.1255257E+00
          1   -1    0    0  501    0  0.00000000000E+00  0.00000000000E+00  0.15707652366E+03  0.15707652366E+03  0.00000000000E+00 0.  1.
         -1   -1    0    0    0  501 -0.00000000000E+00 -0.00000000000E+00 -0.87062713157E+02  0.87062713157E+02  0.00000000000E+00 0. -1.
         25    2    1    2    0    0 -0.38710642511E+02  0.35020675263E+01  0.43824210986E+02  0.13812598712E+03  0.12508976188E+03 0.  0.
          5    1    3    3  502    0 -0.53179132465E+02 -0.50809650620E+02  0.16515962377E+02  0.75497616777E+02  0.41800000000E+01 0.  1.
         -5    1    3    3    0  502  0.14468489954E+02  0.54311718146E+02  0.27308248609E+02  0.62628370341E+02  0.41800000000E+01 0.  1.
        -11    1    1    2    0    0  0.59535023936E+02  0.21475249585E+02  0.34997881967E+02  0.72321899601E+02  0.00000000000E+00 0.  1.
         11    1    1    2    0    0 -0.20824381425E+02 -0.24977317112E+02 -0.88082824472E+01  0.33691350099E+02  0.00000000000E+00 0. -1.
</event>
<event>
 7    1  0.3225358E-009  0.2115102E+03  0.7561462E-02  0.1140376E+00
          2   -1    0    0  501    0  0.00000000000E+00  0.00000000000E+00  0.13997480070E+04  0.13997480070E+04  0.00000000000E+00 0. -1.
         -2   -1    0    0    0  501 -0.00000000000E+00 -0.00000000000E+00 -0.35784437976E+02  0.35784437976E+02  0.00000000000E+00 0.  1.
         25    2    1    2    0    0  0.17822140973E+03  0.79922059154E+02  0.71601958484E+03  0.75264967419E+03  0.12508828789E+03 0.  0.
          5    1    3    3  502    0  0.15902930061E+03  0.14921798453E+02  0.43132580432E+03  0.45996999945E+03  0.41800000000E+01 0.  1.
         -5    1    3    3    0  502  0.19192109124E+02  0.65000260701E+02  0.28469378052E+03  0.29267967475E+03  0.41800000000E+01 0.  1.
        -11    1    1    2    0    0 -0.60313105679E+02 -0.25866357433E+02  0.98667566775E+02  0.11849906285E+03  0.00000000000E+00 0.  1.
         11    1    1    2    0    0 -0.11790830405E+03 -0.54055701721E+02  0.54927641743E+03  0.56438370794E+03  0.00000000000E+00 0. -1.
</event>
<event>
 7    1  0.2420569E-009  0.1279426E+03  0.7561462E-02  0.1230541E+00
          3   -1    0    0  501    0  0.00000000000E+00  0.00000000000E+00  0.10948047491E+03  0.10948047491E+03  0.00000000000E+00 0. -1.
         -3   -1    0    0    0  501 -0.00000000000E+00 -0.00000000000E+00 -0.43617341882E+03  0.43617341882E+03  0.00000000000E+00 0.  1.
         25    2    1    2    0    0  0.88792616069E+02  0.30851672507E+02 -0.37316934431E+03  0.40464634692E+03  0.12508937678E+03 0.  0.
          5    1    3    3  502    0  0.11099125590E+03  0.31698351931E+02 -0.20784000159E+03  0.23777885327E+03  0.41800000000E+01 0. -1.
         -5    1    3    3    0  502 -0.22198639826E+02 -0.84667942430E+00 -0.16532934271E+03  0.16686749365E+03  0.41800000000E+01 0. -1.
        -11    1    1    2    0    0 -0.10068334015E+03 -0.22283491989E+02  0.12337008919E+02  0.10385514329E+03  0.00000000000E+00 0.  1.
         11    1    1    2    0    0  0.11890724080E+02 -0.85681805181E+01  0.34139391474E+02  0.37152403512E+02  0.00000000000E+00 0. -1.
</event>
<event>
 7    1  0.2448232E-009  0.1069516E+03  0.7561462E-02  0.1266322E+00
         -1   -1    0    0    0  501 -0.00000000000E+00  0.00000000000E+00  0.15922451070E+03  0.15922451070E+03  0.00000000000E+00 0.  1.
          1   -1    0    0  501    0  0.00000000000E+00 -0.00000000000E+00 -0.15253807813E+03  0.15253807813E+03  0.00000000000E+00 0. -1.
         25    2    1    2    0    0 -0.19291201913E+02 -0.74331530915E+02  0.84941046178E+02  0.16958780378E+03  0.12509082663E+03 0.  0.
          5    1    3    3  502    0 -0.61831561992E+02 -0.45081321413E+02  0.89222234080E+02  0.11761610031E+03  0.41800000000E+01 0.  1.
         -5    1    3    3    0  502  0.42540360079E+02 -0.29250209502E+02 -0.42811879017E+01  0.51971703468E+02  0.41800000000E+01 0.  1.
        -11    1    1    2    0    0 -0.96528065256E+01  0.36982212591E+02 -0.86168504009E+02  0.94264902298E+02  0.00000000000E+00 0. -1.
         11    1    1    2    0    0  0.28944008439E+02  0.37349318324E+02  0.79138904032E+01  0.47909882750E+02  0.00000000000E+00 0.  1.
</event>
<event>
 7    1  0.2420569E-009  0.9734356E+02  0.7561462E-02  0.1285983E+00
          2   -1    0    0  501    0  0.00000000000E+00  0.00000000000E+00  0.73767996768E+02  0.73767996768E+02  0.00000000000E+00 0. -1.
         -2   -1    0    0    0  501 -0.00000000000E+00 -0.00000000000E+00 -0.26952402276E+03  0.26952402276E+03  0.00000000000E+00 0.  1.
         25    2    1    2    0    0 -0.58330594115E+02  0.40758922492E+02 -0.16936549816E+03  0.22224976848E+03  0.12508612894E+03 0.  0.
          5    1    3    3  502    0 -0.39412107932E+02  0.73801176558E+02 -0.51541790404E+02  0.98356273166E+02  0.41800000000E+01 0. -1.
         -5    1    3    3    0  502 -0.18918486183E+02 -0.33042254066E+02 -0.11782370776E+03  0.12389349532E+03  0.41800000000E+01 0. -1.
        -11    1    1    2    0    0  0.38161606621E+02 -0.17968951801E+02 -0.61502402406E+02  0.74577053780E+02  0.00000000000E+00 0. -1.
         11    1    1    2    0    0  0.20168987495E+02 -0.22789970691E+02  0.35111874574E+02  0.46465197264E+02  0.00000000000E+00 0.  1.
</event>
<event>
 7    1  0.2420569E-009  0.6798881E+02  0.7561462E-02  0.1367069E+00
         -1   -1    0    0    0  501 -0.00000000000E+00  0.00000000000E+00  0.30665404834E+03  0.30665404834E+03  0.00000000000E+00 0.  1.
          1   -1    0    0  501    0  0.00000000000E+00 -0.00000000000E+00 -0.38074960132E+02  0.38074960132E+02  0.00000000000E+00 0. -1.
         25    2    1    2    0    0 -0.64887361354E+01 -0.59589913550E+01  0.17555804083E+03  0.21573979049E+03  0.12508164624E+03 0.  0.
          5    1    3    3  502    0 -0.19160430088E+02  0.39847704552E+02  0.15923768804E+03  0.16531507896E+03  0.41800000000E+01 0. -1.
         -5    1    3    3    0  502  0.12671693953E+02 -0.45806695907E+02  0.16320352788E+02  0.50424711528E+02  0.41800000000E+01 0. -1.
        -11    1    1    2    0    0 -0.16852241828E+02  0.10801746262E+02 -0.10607796309E+02  0.22653942692E+02  0.00000000000E+00 0. -1.
         11    1    1    2    0    0  0.23340977964E+02 -0.48427549075E+01  0.10362884368E+03  0.10633527529E+03  0.00000000000E+00 0.  1.
</event>
<event>
 7    1  0.2420569E-009  0.1462465E+03  0.7561462E-02  0.1205163E+00
         -1   -1    0    0    0  501 -0.00000000000E+00  0.00000000000E+00  0.33059299815E+02  0.33059299815E+02  0.00000000000E+00 0.  1.
          1   -1    0    0  501    0  0.00000000000E+00 -0.00000000000E+00 -0.71324150619E+03  0.71324150619E+03  0.00000000000E+00 0. -1.
         25    2    1    2    0    0 -0.28595587789E+02 -0.10131060584E+03 -0.40832250209E+03  0.43983762487E+03  0.12509326139E+03 0.  0.
          5    1    3    3  502    0  0.25527744886E+02 -0.10501312229E+03 -0.29301009226E+03  0.31233284838E+03  0.41800000000E+01 0.  1.
         -5    1    3    3    0  502 -0.54123332674E+02  0.37025164500E+01 -0.11531240982E+03  0.12750477649E+03  0.41800000000E+01 0.  1.
        -11    1    1    2    0    0  0.53259798105E+02  0.50243711469E+02 -0.21068634710E+03  0.22304657247E+03  0.00000000000E+00 0.  1.
         11    1    1    2    0    0 -0.24664210317E+02  0.51066894369E+02 -0.61173357188E+02  0.83416608663E+02  0.00000000000E+00 0. -1.
</event>
<event>
 7    1  0.2420569E-009  0.1426804E+03  0.7561462E-02  0.1209767E+00
          2   -1    0    0  501    0  0.00000000000E+00  0.00000000000E+00  0.51369339118E+03  0.51369339118E+03  0.00000000000E+00 0.  1.
         -2   -1    0    0    0  501 -0.00000000000E+00 -0.00000000000E+00 -0.72584130791E+02  0.72584130791E+02  0.00000000000E+00 0. -1.
         25    2    1    2    0    0  0.10338295861E+03 -0.49789925324E+02  0.63824447046E+02  0.18135183802E+03  0.12509139186E+03 0.  0.
          5    1    3    3  502    0  0.61486912405E+02  0.12913831533E+02 -0.22301251591E+02  0.66799892698E+02  0.41800000000E+01 0. -1.
         -5    1    3    3    0  502  0.41896046202E+02 -0.62703756857E+02  0.86125698637E+02  0.11455194532E+03  0.41800000000E+01 0. -1.
        -11    1    1    2    0    0 -0.97713967564E+02  0.97138730695E+00  0.26021265565E+03  0.27795609224E+03  0.00000000000E+00 0. -1.
         11    1    1    2    0    0 -0.56689910431E+01  0.48818538017E+02  0.11707215769E+03  0.12696959172E+03  0.00000000000E+00 0.  1.
</event>
<event>
 7    1  0.2420569E-009  0.7471195E+02  0.7561462E-02  0.1344765E+00
         -2   -1    0    0    0  501 -0.00000000000E+00  0.00000000000E+00  0.20062502726E+02  0.20062502726E+02  0.00000000000E+00 0.  1.
          2   -1    0    0  501    0  0.00000000000E+00 -0.00000000000E+00 -0.73577537431E+03  0.73577537431E+03  0.00000000000E+00 0. -1.
         25    2    1    2    0    0 -0.43835622509E+02  0.32196268941E+02 -0.44104663328E+03  0.46165693263E+03  0.12508728623E+03 0.  0.
          5    1    3    3  502    0 -0.70919359433E+01  0.13759184874E+02  0.24670019034E+01  0.16222491246E+02  0.41800000000E+01 0. -1.
         -5    1    3    3    0  502 -0.36743686565E+02  0.18437084067E+02 -0.44351363519E+03  0.44543444138E+03  0.41800000000E+01 0. -1.
        -11    1    1    2    0    0 -0.15716554481E+02 -0.28321537637E+02 -0.17532947418E+03  0.17829622569E+03  0.00000000000E+00 0. -1.
         11    1    1    2    0    0  0.59552176990E+02 -0.38747313037E+01 -0.99336764119E+02  0.11588471872E+03  0.00000000000E+00 0.  1.
</event>
<event>
 7    1  0.2420569E-009  0.2537466E+03  0.7561462E-02  0.1110960E+00
         -2   -1    0    0    0  501 -0.00000000000E+00  0.00000000000E+00  0.92343564108E+02  0.92343564108E+02  0.00000000000E+00 0.  1.
          2   -1    0    0  501    0  0.00000000000E+00 -0.00000000000E+00 -0.12675727060E+04  0.12675727060E+04  0.00000000000E+00 0. -1.
         25    2    1    2    0    0  0.24885864301E+03  0.13576555517E+01 -0.18367102879E+03  0.33363951029E+03  0.12509120103E+03 0.  0.
          5    1    3    3  502    0  0.22647146771E+03  0.22165422787E+02 -0.19606054959E+03  0.30039614371E+03  0.41800000000E+01 0. -1.
         -5    1    3    3    0  502  0.22387175305E+02 -0.20807767236E+02  0.12389520797E+02  0.33243366572E+02  0.41800000000E+01 0. -1.
        -11    1    1    2    0    0 -0.12491042803E+03 -0.55518259398E+01 -0.32385047930E+03  0.34714920531E+03  0.00000000000E+00 0.  1.
         11    1    1    2    0    0 -0.12394821498E+03  0.41941703881E+01 -0.66770763379E+03  0.67912755450E+03  0.00000000000E+00 0. -1.
</event>
<event>
 7    1  0.2420569E-009  0.9272150E+02  0.7561462E-02  0.1296392E+00
          2   -1    0    0  501    0  0.00000000000E+00  0.00000000000E+00  0.43254397965E+03  0.43254397965E+03  0.00000000000E+00 0. -1.
         -2   -1    0    0    0  501 -0.00000000000E+00 -0.00000000000E+00 -0.32026691661E+02  0.32026691661E+02  0.00000000000E+00 0.  1.
         25    2    1    2    0    0  0.38164958163E+02  0.36920803746E+01  0.27467092253E+03  0.30424129503E+03  0.12509378253E+03 0.  0.
          5    1    3    3  502    0  0.78592782189E+02 -0.25876839169E+01  0.11512583114E+03  0.13948100558E+03  0.41800000000E+01 0.  1.
         -5    1    3    3    0  502 -0.40427824026E+02  0.62797642915E+01  0.15954509139E+03  0.16476028945E+03  0.41800000000E+01 0.  1.
        -11    1    1    2    0    0 -0.20153961850E+01  0.21445791890E+02 -0.51362451510E+01  0.22144182663E+02  0.00000000000E+00 0.  1.
         11    1    1    2    0    0 -0.36149561978E+02 -0.25137872265E+02  0.13098261061E+03  0.13818519362E+03  0.00000000000E+00 0. -1.
</event>
<event>
 7    1  0.2420569E-009  0.1991752E+03  0.7561462E-02  0.1150437E+00
          1   -1    0    0  501    0  0.00000000000E+00  0.00000000000E+00  0.11458089141E+04  0.11458089141E+04  0.00000000000E+00 0. -1.
         -1   -1    0    0    0  501 -0.00000000000E+00 -0.00000000000E+00 -0.42718720348E+02  0.42718720348E+02  0.00000000000E+00 0.  1.
         25    2    1    2    0    0 -0.10346542313E+03  0.16101143565E+03  0.52480677379E+03  0.57245078602E+03  0.12509187185E+03 0.  0.
          5    1    3    3  502    0 -0.14392491476E+02  0.17862764614E+02  0.24239553803E+03  0.24351445836E+03  0.41800000000E+01 0. -1.
         -5    1    3    3    0  502 -0.89072931657E+02  0.14314867103E+03  0.28241123576E+03  0.32893632766E+03  0.41800000000E+01 0. -1.
        -11    1    1    2    0    0 -0.12752682337E+02 -0.18913427005E+02  0.12443898095E+03  0.12651248400E+03  0.00000000000E+00 0. -1.
         11    1    1    2    0    0  0.11621810547E+03 -0.14209800864E+03  0.45384443902E+03  0.48956436444E+03  0.00000000000E+00 0.  1.
</event>
<event>
 7    1  0.2420569E-009  0.8208558E+02  0.7561462E-02  0.1323235E+00
         -2   -1    0    0    0  501 -0.00000000000E+00  0.00000000000E+00  0.51825647480E+03  0.51825647480E+03  0.00000000000E+00 0.  1.
          2   -1    0    0  501    0  0.00000000000E+00 -0.00000000000E+00 -0.28752202421E+02  0.28752202421E+02  0.00000000000E+00 0. -1.
         25    2    1    2    0    0  0.31043425006E+02 -0.75895624933E+01  0.37959993587E+03  0.40095482188E+03  0.12508941675E+03 0.  0.
          5    1    3    3  502    0 -0.40666277326E+02  0.17977441386E+02  0.21449570961E+03  0.21909545032E+03  0.41800000000E+01 0.  1.
         -5    1    3    3    0  502  0.71709702332E+02 -0.25567003880E+02  0.16510422626E+03  0.18185937156E+03  0.41800000000E+01 0.  1.
        -11    1    1    2    0    0 -0.18748042040E+02  0.18855829831E+02  0.12237485486E+03  0.12523033379E+03  0.00000000000E+00 0.  1.
         11    1    1    2    0    0 -0.12295382967E+02 -0.11266267338E+02 -0.12470518347E+02  0.20823521553E+02  0.00000000000E+00 0. -1.
</event>
<event>
 7    1  0.2420569E-009  0.1253513E+03  0.7561462E-02  0.1234521E+00
          1   -1    0    0  501    0  0.00000000000E+00  0.00000000000E+00  0.18239157650E+04  0.18239157650E+04  0.00000000000E+00 0. -1.
         -1   -1    0    0    0  501 -0.00000000000E+00 -0.00000000000E+00 -0.14511475951E+02  0.14511475951E+02  0.00000000000E+00 0.  1.
         25    2    1    2    0    0  0.10111326417E+03  0.41735883138E+02  0.12408957180E+04  0.12519717155E+04  0.12508084278E+03 0.  0.
          5    1    3    3  502    0  0.81457362892E+02  0.38349131556E+02  0.36935498629E+03  0.38019276185E+03  0.41800000000E+01 0.  1.
         -5    1    3    3    0  502  0.19655901278E+02  0.33867515813E+01  0.87154073175E+03  0.87177895366E+03  0.41800000000E+01 0.  1.
        -11    1    1    2    0    0 -0.34400414682E+02 -0.61627399780E+02  0.35284531392E+03  0.35983487948E+03  0.00000000000E+00 0. -1.
         11    1    1    2    0    0 -0.66712849489E+02  0.19891516643E+02  0.21566325703E+03  0.22662064592E+03  0.00000000000E+00 0.  1.
</event>
<event>
 7    1  0.2420569E-009  0.1123428E+03  0.7561462E-02  0.1256292E+00
         -1   -1    0    0    0  501 -0.00000000000E+00  0.00000000000E+00  0.47480505192E+02  0.47480505192E+02  0.00000000000E+00 0.  1.
          1   -1    0    0  501    0  0.00000000000E+00 -0.00000000000E+00 -0.29445273653E+03  0.29445273653E+03  0.00000000000E+00 0. -1.
         25    2    1    2    0    0  0.45210967946E+02  0.18048029325E+02 -0.13852829766E+03  0.19289258606E+03  0.12509075712E+03 0.  0.
          5    1    3    3  502    0  0.47738794348E+02 -0.43366422905E+02 -0.37960294338E+02  0.74953955650E+02  0.41800000000E+01 0. -1.
         -5    1    3    3    0  502 -0.25278264016E+01  0.61414452231E+02 -0.10056800332E+03  0.11793863041E+03  0.41800000000E+01 0. -1.
        -11    1    1    2    0    0  0.28784829738E+01  0.30193358200E+02 -0.16238937452E+02  0.34403889797E+02  0.00000000000E+00 0.  1.
         11    1    1    2    0    0 -0.48089450920E+02 -0.48241387526E+02 -0.92204996221E+02  0.11463676587E+03  0.00000000000E+00 0. -1.
</event>
<event>
 7    1  0.2420569E-009  0.1022013E+03  0.7561462E-02  0.1275734E+00
          1   -1    0    0  501    0  0.00000000000E+00  0.00000000000E+00  0.41761544363E+02  0.41761544363E+02  0.00000000000E+00 0. -1.
         -1   -1    0    0    0  501 -0.00000000000E+00 -0.00000000000E+00 -0.37587063245E+03  0.37587063245E+03  0.00000000000E+00 0.  1.
         25    2    1    2    0    0 -0.34506031533E+02  0.51261153750E+02 -0.17002319819E+03  0.21994159566E+03  0.12509214796E+03 0.  0.
          5    1    3    3  502    0 -0.19947115352E+02 -0.25733144990E+02 -0.12549647710E+03  0.12971861981E+03  0.41800000000E+01 0.  1.
         -5    1    3    3    0  502 -0.14558916181E+02  0.76994298740E+02 -0.44526721093E+02  0.90222975844E+02  0.41800000000E+01 0.  1.
        -11    1    1    2    0    0  0.40073936583E+02  0.14517903371E+01 -0.12651922034E+03  0.13272204491E+03  0.00000000000E+00 0.  1.
         11    1    1    2    0    0 -0.55679050503E+01 -0.52712944087E+02 -0.37566669555E+02  0.64968536250E+02  0.00000000000E+00 0. -1.
</event>
<event>
 7    1  0.2420569E-009  0.1901847E+03  0.7561462E-02  0.1158295E+00
         -2   -1    0    0    0  501 -0.00000000000E+00  0.00000000000E+00  0.63333450149E+02  0.63333450149E+02  0.00000000000E+00 0.  1.
          2   -1    0    0  501    0  0.00000000000E+00 -0.00000000000E+00 -0.75474948710E+03  0.75474948710E+03  0.00000000000E+00 0. -1.
         25    2    1    2    0    0  0.57015088854E+02  0.17887250622E+03 -0.38281909220E+03  0.44434679272E+03  0.12509005161E+03 0.  0.
          5    1    3    3  502    0  0.13241600569E+02  0.29384807681E+02 -0.16321119241E+01  0.32541405892E+02  0.41800000000E+01 0. -1.
         -5    1    3    3    0  502  0.43773488285E+02  0.14948769854E+03 -0.38118698028E+03  0.41180538683E+03  0.41800000000E+01 0. -1.
        -11    1    1    2    0    0 -0.24657606350E+02 -0.13662769934E+03 -0.28182875797E+03  0.31416965893E+03  0.00000000000E+00 0. -1.
         11    1    1    2    0    0 -0.32357482504E+02 -0.42244806880E+02 -0.26768186786E+02  0.59566485595E+02  0.00000000000E+00 0.  1.
</event>
<event>
 7    1  0.2420569E-009  0.1359435E+03  0.7561462E-02  0.1218894E+00
          2   -1    0    0  501    0  0.00000000000E+00  0.00000000000E+00  0.22361433279E+03  0.22361433279E+03  0.00000000000E+00 0. -1.
         -2   -1    0    0    0  501 -0.00000000000E+00 -0.00000000000E+00 -0.10356342116E+03  0.10356342116E+03  0.00000000000E+00 0.  1.
         25    2    1    2    0    0 -0.75769472009E+02  0.67284134067E+02  0.10214496636E+03  0.19065644108E+03  0.12509243297E+03 0.  0.
          5    1    3    3  502    0  0.17586361080E+02  0.55102239996E+02  0.70408580664E+02  0.91216103730E+02  0.41800000000E+01 0. -1.
         -5    1    3    3    0  502 -0.93355833089E+02  0.12181894071E+02  0.31736385693E+02  0.99440337347E+02  0.41800000000E+01 0. -1.
        -11    1    1    2    0    0  0.66503308615E+02 -0.17159401834E+02  0.41612811862E+02  0.80304179462E+02  0.00000000000E+00 0. -1.
         11    1    1    2    0    0  0.92661633937E+01 -0.50124732232E+02 -0.23706866584E+02  0.56217133408E+02  0.00000000000E+00 0.  1.
</event>
<event>
 7    1  0.2420569E-009  0.1153645E+03  0.7561462E-02  0.1250946E+00
          2   -1    0    0  501    0  0.00000000000E+00  0.00000000000E+00  0.71717881134E+03  0.71717881134E+03  0.00000000000E+00 0.  1.
         -2   -1    0    0    0  501 -0.00000000000E+00 -0.00000000000E+00 -0.26781695110E+02  0.26781695110E+02  0.00000000000E+00 0. -1.
         25    2    1    2    0    0 -0.12719926821E+02  0.67074955762E+02  0.25267873732E+03  0.29009691596E+03  0.12509528420E+03 0.  0.
          5    1    3    3  502    0 -0.49498740529E+02  0.13154517847E+02  0.19887547091E+03  0.20540713713E+03  0.41800000000E+01 0.  1.
         -5    1    3    3    0  502  0.36778813708E+02  0.53920437916E+02  0.53803266412E+02  0.84689778837E+02  0.41800000000E+01 0.  1.
        -11    1    1    2    0    0 -0.27938154046E+02 -0.67740165926E+02  0.34376914046E+03  0.35149180995E+03  0.00000000000E+00 0.  1.
         11    1    1    2    0    0  0.40658080866E+02  0.66521016371E+00  0.93949238447E+02  0.10237178053E+03  0.00000000000E+00 0. -1.
</event>
<event>
 7    1  0.2420569E-009  0.2293787E+03  0.7561462E-02  0.1127078E+00
         -2   -1    0    0    0  501 -0.00000000000E+00  0.00000000000E+00  0.22773793166E+03  0.22773793166E+03  0.00000000000E+00 0.  1.
          2   -1    0    0  501    0  0.00000000000E+00 -0.00000000000E+00 -0.24932347170E+03  0.24932347170E+03  0.00000000000E+00 0. -1.
         25    2    1    2    0    0 -0.12807860870E+03 -0.16451857212E+03 -0.47166118903E+02  0.24768292485E+03  0.12510674606E+03 0.  0.
          5    1    3    3  502    0 -0.10777953077E+03 -0.17661190741E+03 -0.65962642191E+02  0.21720206181E+03  0.41800000000E+01 0.  1.
         -5    1    3    3    0  502 -0.20299077937E+02  0.12093335293E+02  0.18796523287E+02  0.30480863034E+02  0.41800000000E+01 0.  1.
        -11    1    1    2    0    0  0.69013030055E+02  0.15271534220E+03  0.22215500228E+02  0.16905118311E+03  0.00000000000E+00 0. -1.
         11    1    1    2    0    0  0.59065578648E+02  0.11803229916E+02  0.33650786334E+01  0.60327295412E+02  0.00000000000E+00 0.  1.
</event>
<event>
 7    1  0.2420569E-009  0.7947824E+02  0.7561462E-02  0.1330539E+00
         -4   -1    0    0    0  501 -0.00000000000E+00  0.00000000000E+00  0.21146427881E+02  0.21146427881E+02  0.00000000000E+00 0.  1.
          4   -1    0    0  501    0  0.00000000000E+00 -0.00000000000E+00 -0.61360894508E+03  0.61360894508E+03  0.00000000000E+00 0. -1.
         25    2    1    2    0    0  0.29293616209E+02 -0.10011961974E+02 -0.38373248546E+03  0.40479212473E+03  0.12509072113E+03 0.  0.
          5    1    3    3  502    0  0.22651931878E+02 -0.32085839427E+02 -0.37879680604E+03  0.38085050056E+03  0.41800000000E+01 0.  1.
         -5    1    3    3    0  502  0.66416843309E+01  0.22073877454E+02 -0.49356794196E+01  0.23941624170E+02  0.41800000000E+01 0.  1.
        -11    1    1    2    0    0  0.33033711385E+02  0.93943263578E+00 -0.61239643208E+02  0.69587373292E+02  0.00000000000E+00 0.  1.
         11    1    1    2    0    0 -0.62327327594E+02  0.90725293379E+01 -0.14749038853E+03  0.16037587494E+03  0.00000000000E+00 0. -1.
</event>
<event>
 7    1  0.2420569E-009  0.1311149E+03  0.7561462E-02  0.1225811E+00
          2   -1    0    0  501    0  0.00000000000E+00  0.00000000000E+00  0.23578592065E+03  0.23578592065E+03  0.00000000000E+00 0.  1.
         -2   -1    0    0    0  501 -0.00000000000E+00 -0.00000000000E+00 -0.10923589344E+03  0.10923589344E+03  0.00000000000E+00 0. -1.
         25    2    1    2    0    0 -0.75723795116E+02  0.25659590558E+02 -0.25692796158E+02  0.15066647848E+03  0.12509100778E+03 0.  0.
          5    1    3    3  502    0 -0.10587437110E+03  0.31274326980E+02 -0.56464836899E-01  0.11047597735E+03  0.41800000000E+01 0.  1.
         -5    1    3    3    0  502  0.30150575982E+02 -0.56147364213E+01 -0.25636331321E+02  0.40190501125E+02  0.41800000000E+01 0.  1.
        -11    1    1    2    0    0 -0.39837829613E+01  0.25682378188E+02  0.31592281313E+02  0.40908768188E+02  0.00000000000E+00 0.  1.
         11    1    1    2    0    0  0.79707578077E+02 -0.51341968747E+02  0.12065054206E+03  0.15344656743E+03  0.00000000000E+00 0. -1.
</event>
<event>
 7    1  0.2420569E-009  0.1207923E+03  0.7561462E-02  0.1241796E+00
          1   -1    0    0  501    0  0.00000000000E+00  0.00000000000E+00  0.63174095301E+02  0.63174095301E+02  0.00000000000E+00 0. -1.
         -1   -1    0    0    0  501 -0.00000000000E+00 -0.00000000000E+00 -0.31254893251E+03  0.31254893251E+03  0.00000000000E+00 0.  1.
         25    2    1    2    0    0 -0.51310258192E+02 -0.53604590455E+02 -0.20053061310E+03  0.24772139736E+03  0.12508864539E+03 0.  0.
          5    1    3    3  502    0 -0.43520249491E+02 -0.85924050772E+02 -0.88790066633E+02  0.13106526218E+03  0.41800000000E+01 0.  1.
         -5    1    3    3    0  502 -0.77900087012E+01  0.32319460317E+02 -0.11174054647E+03  0.11665613518E+03  0.41800000000E+01 0.  1.
        -11    1    1    2    0    0  0.51162259213E+02  0.74718253576E+02 -0.20828605195E+02  0.92920530453E+02  0.00000000000E+00 0. -1.
         11    1    1    2    0    0  0.14799897932E+00 -0.21113663121E+02 -0.28015618918E+02  0.35081100004E+02  0.00000000000E+00 0.  1.
</event>
<event>
 7    1  0.2420569E-009  0.1099299E+03  0.7561462E-02  0.1260700E+00
         -1   -1    0    0    0  501 -0.00000000000E+00  0.00000000000E+00  0.68042104576E+02  0.68042104576E+02  0.00000000000E+00 0.  1.
          1   -1    0    0  501    0  0.00000000000E+00 -0.00000000000E+00 -0.26597932047E+03  0.26597932047E+03  0.00000000000E+00 0. -1.
         25    2    1    2    0    0  0.68214127030E+02 -0.33713191243E+02 -0.73696079869E+02  0.16392203419E+03  0.12509826024E+03 0.  0.
          5    1    3    3  502    0  0.93789279490E+02 -0.56227448027E+02 -0.68757118086E+02  0.12923996497E+03  0.41800000000E+01 0. -1.
         -5    1    3    3    0  502 -0.25575152460E+02  0.22514256784E+02 -0.49389617832E+01  0.34682069220E+02  0.41800000000E+01 0. -1.
        -11    1    1    2    0    0 -0.33817943365E+02  0.16077560236E+02  0.25648483587E+01  0.37532914671E+02  0.00000000000E+00 0.  1.
         11    1    1    2    0    0 -0.34396183666E+02  0.17635631007E+02 -0.12680598439E+03  0.13256647618E+03  0.00000000000E+00 0. -1.
</event>
<event>
 7    1  0.2420569E-009  0.1205644E+03  0.7561462E-02  0.1242169E+00
         -1   -1    0    0    0  501 -0.00000000000E+00  0.00000000000E+00  0.16781229876E+03  0.16781229876E+03  0.00000000000E+00 0.  1.
          1   -1    0    0  501    0  0.00000000000E+00 -0.00000000000E+00 -0.13106939499E+03  0.13106939499E+03  0.00000000000E+00 0. -1.
         25    2    1    2    0    0  0.82484777697E+02 -0.32453278755E+02 -0.32611053038E+02  0.15674392154E+03  0.12509285473E+03 0.  0.
          5    1    3    3  502    0  0.77869193348E+02  0.25046814154E+02 -0.50478341866E+02  0.96210652059E+02  0.41800000000E+01 0. -1.
         -5    1    3    3    0  502  0.46155843485E+01 -0.57500092909E+02  0.17867288828E+02  0.60533269477E+02  0.41800000000E+01 0. -1.
        -11    1    1    2    0    0 -0.16083760759E+02  0.31053762598E+02 -0.12129852238E+02  0.37015629766E+02  0.00000000000E+00 0. -1.
         11    1    1    2    0    0 -0.66401016938E+02  0.13995161573E+01  0.81483809047E+02  0.10512214245E+03  0.00000000000E+00 0.  1.
</event>
<event>
 7    1  0.2420569E-009  0.1065540E+03  0.7561462E-02  0.1267088E+00
         -1   -1    0    0    0  501 -0.00000000000E+00  0.00000000000E+00  0.19463112501E+03  0.19463112501E+03  0.00000000000E+00 0. -1.
          1   -1    0    0  501    0  0.00000000000E+00 -0.00000000000E+00 -0.91148126130E+02  0.91148126130E+02  0.00000000000E+00 0.  1.
         25    2    1    2    0    0 -0.71247108989E+02 -0.82108597337E+01  0.62520705962E+02  0.15716447516E+03  0.12509302467E+03 0.  0.
          5    1    3    3  502    0 -0.72044675194E+02  0.34052175082E+02  0.78352957215E+02  0.11183310850E+03  0.41800000000E+01 0. -1.
         -5    1    3    3    0  502  0.79756620492E+00 -0.42263034815E+02 -0.15832251253E+02  0.45331366662E+02  0.41800000000E+01 0. -1.
        -11    1    1    2    0    0  0.51788844459E+02  0.31399335513E+02  0.65820880189E+02  0.89444904550E+02  0.00000000000E+00 0. -1.
         11    1    1    2    0    0  0.19458264529E+02 -0.23188475779E+02 -0.24858587267E+02  0.39169871437E+02  0.00000000000E+00 0.  1.
</event>
<event>
 7    1  0.2420569E-009  0.8678239E+02  0.7561462E-02  0.1310836E+00
         -1   -1    0    0    0  501 -0.00000000000E+00  0.00000000000E+00  0.18740929631E+03  0.18740929631E+03  0.00000000000E+00 0.  1.
          1   -1    0    0  501    0  0.00000000000E+00 -0.00000000000E+00 -0.78817484454E+02  0.78817484454E+02  0.00000000000E+00 0. -1.
         25    2    1    2    0    0 -0.11881554592E+02  0.12296188172E+02  0.11882225299E+03  0.17337564620E+03  0.12509204335E+03 0.  0.
          5    1    3    3  502    0  0.37299126655E+02  0.67076386880E+01  0.11766576992E+03  0.12368881549E+03  0.41800000000E+01 0.  1.
         -5    1    3    3    0  502 -0.49180681248E+02  0.55885494840E+01  0.11564830654E+01  0.49686830714E+02  0.41800000000E+01 0.  1.
        -11    1    1    2    0    0  0.47645632412E+02  0.86985103684E+00 -0.22657360958E+02  0.52765698464E+02  0.00000000000E+00 0.  1.
         11    1    1    2    0    0 -0.35764077820E+02 -0.13166039209E+02  0.12426919829E+02  0.40085436098E+02  0.00000000000E+00 0. -1.
</event>
<event>
 7    1  0.2420569E-009  0.1570359E+03  0.7561462E-02  0.1192084E+00
          2   -1    0    0  501    0  0.00000000000E+00  0.00000000000E+00  0.69082698740E+02  0.69082698740E+02  0.00000000000E+00 0. -1.
         -2   -1    0    0    0  501 -0.00000000000E+00 -0.00000000000E+00 -0.43249864511E+03  0.43249864511E+03  0.00000000000E+00 0.  1.
         25    2    1    2    0    0  0.70403436067E+02 -0.11235056212E+03 -0.20892885399E+03  0.27726405576E+03  0.12507916680E+03 0.  0.
          5    1    3    3  502    0 -0.34290617747E+02 -0.27687447756E+02 -0.30784179843E+02  0.53921974716E+02  0.41800000000E+01 0.  1.
         -5    1    3    3    0  502  0.10469405381E+03 -0.84663114369E+02 -0.17814467414E+03  0.22334208104E+03  0.41800000000E+01 0.  1.
        -11    1    1    2    0    0 -0.67959640530E+02  0.90858477475E+02 -0.16501624344E+03  0.20026017145E+03  0.00000000000E+00 0.  1.
         11    1    1    2    0    0 -0.24437955367E+01  0.21492084649E+02  0.10529151056E+02  0.24057116643E+02  0.00000000000E+00 0. -1.
</event>
<event>
 7    1  0.2420569E-009  0.7448460E+02  0.7561462E-02  0.1345475E+00
          1   -1    0    0  501    0  0.00000000000E+00  0.00000000000E+00  0.14183713436E+03  0.14183713436E+03  0.00000000000E+00 0. -1.
         -1   -1    0    0    0  501 -0.00000000000E+00 -0.00000000000E+00 -0.73883657317E+02  0.73883657317E+02  0.00000000000E+00 0.  1.
         25    2    1    2    0    0 -0.75430684470E+01  0.48186195913E+01  0.73652870689E+02  0.14544155296E+03  0.12509349699E+03 0.  0.
          5    1    3    3  502    0  0.20316391532E+02  0.37669259470E+02  0.89548805890E+02  0.99338763382E+02  0.41800000000E+01 0. -1.
         -5    1    3    3    0  502 -0.27859459979E+02 -0.32850639878E+02 -0.15895935201E+02  0.46102789575E+02  0.41800000000E+01 0. -1.
        -11    1    1    2    0    0  0.29515818973E+02  0.14993148494E+02  0.12678522541E+02  0.35450289213E+02  0.00000000000E+00 0. -1.
         11    1    1    2    0    0 -0.21972750526E+02 -0.19811768085E+02 -0.18377916188E+02  0.34828949507E+02  0.00000000000E+00 0.  1.
</event>
<event>
 7    1  0.2420569E-009  0.1133003E+03  0.7561462E-02  0.1254577E+00
         -2   -1    0    0    0  501 -0.00000000000E+00  0.00000000000E+00  0.19721846984E+02  0.19721846984E+02  0.00000000000E+00 0.  1.
          2   -1    0    0  501    0  0.00000000000E+00 -0.00000000000E+00 -0.13845207148E+04  0.13845207148E+04  0.00000000000E+00 0. -1.
         25    2    1    2    0    0  0.39005202673E+02  0.69401364784E+02 -0.11325474771E+04  0.11422124949E+04  0.12509052865E+03 0.  0.
          5    1    3    3  502    0  0.25659581295E+02 -0.10903101368E+02 -0.77411567740E+03  0.77462884411E+03  0.41800000000E+01 0.  1.
         -5    1    3    3    0  502  0.13345621379E+02  0.80304466152E+02 -0.35843179968E+03  0.36758365078E+03  0.41800000000E+01 0.  1.
        -11    1    1    2    0    0 -0.66066296796E+02 -0.41457987195E+02 -0.11898893479E+03  0.14227398524E+03  0.00000000000E+00 0.  1.
         11    1    1    2    0    0  0.27061094123E+02 -0.27943377589E+02 -0.11326245590E+03  0.11975608161E+03  0.00000000000E+00 0. -1.
</event>
<event>
 7    1  0.2420569E-009  0.1149571E+03  0.7561462E-02  0.1251656E+00
         -1   -1    0    0    0  501 -0.00000000000E+00  0.00000000000E+00  0.42324130614E+02  0.42324130614E+02  0.00000000000E+00 0.  1.
          1   -1    0    0  501    0  0.00000000000E+00 -0.00000000000E+00 -0.39242834767E+03  0.39242834767E+03  0.00000000000E+00 0. -1.
         25    2    1    2    0    0 -0.98308613271E+01  0.65405239708E+02 -0.23620057265E+03  0.27534257209E+03  0.12509328628E+03 0.  0.
          5    1    3    3  502    0  0.44031806273E+02  0.41985960095E+02 -0.46431855812E+02  0.76648616706E+02  0.41800000000E+01 0.  1.
         -5    1    3    3    0  502 -0.53862667600E+02  0.23419279613E+02 -0.18976871683E+03  0.19869395539E+03  0.41800000000E+01 0.  1.
        -11    1    1    2    0    0  0.44271420239E+02 -0.10934051932E+02 -0.34717369735E+02  0.57313243696E+02  0.00000000000E+00 0.  1.
         11    1    1    2    0    0 -0.34440558912E+02 -0.54471187775E+02 -0.79186274673E+02  0.10209666249E+03  0.00000000000E+00 0. -1.
</event>
<event>
 7    1  0.2420569E-009  0.1158533E+03  0.7561462E-02  0.1250099E+00
         -2   -1    0    0    0  501 -0.00000000000E+00  0.00000000000E+00  0.54099325698E+02  0.54099325698E+02  0.00000000000E+00 0.  1.
          2   -1    0    0  501    0  0.00000000000E+00 -0.00000000000E+00 -0.34730597648E+03  0.34730597648E+03  0.00000000000E+00 0. -1.
         25    2    1    2    0    0  0.45225125972E+02 -0.19584281381E+01 -0.14805337034E+03  0.19903858066E+03  0.12508960252E+03 0.  0.
          5    1    3    3  502    0 -0.21815662054E+02  0.45578754790E+02 -0.54246442536E+02  0.74252911909E+02  0.41800000000E+01 0. -1.
         -5    1    3    3    0  502  0.67040788027E+02 -0.47537182928E+02 -0.93806927808E+02  0.12478566875E+03  0.41800000000E+01 0. -1.
        -11    1    1    2    0    0 -0.43997231757E+02  0.40709840819E+02 -0.87706937980E+01  0.60580298872E+02  0.00000000000E+00 0.  1.
         11    1    1    2    0    0 -0.12278942159E+01 -0.38751412681E+02 -0.13638258664E+03  0.14178642265E+03  0.00000000000E+00 0. -1.
</event>
<event>
 7    1  0.2420569E-009  0.9150966E+02  0.7561462E-02  0.1299236E+00
         -2   -1    0    0    0  501 -0.00000000000E+00  0.00000000000E+00  0.38391737982E+02  0.38391737982E+02  0.00000000000E+00 0.  1.
          2   -1    0    0  501    0  0.00000000000E+00 -0.00000000000E+00 -0.41112854466E+03  0.41112854466E+03  0.00000000000E+00 0. -1.
         25    2    1    2    0    0  0.15031847023E+02  0.72907282904E+01 -0.30971150599E+03  0.33443572228E+03  0.12508766624E+03 0.  0.
          5    1    3    3  502    0 -0.78490233495E+01  0.55715261336E+02 -0.76139400441E+02  0.94765385098E+02  0.41800000000E+01 0. -1.
         -5    1    3    3    0  502  0.22880870372E+02 -0.48424533046E+02 -0.23357210555E+03  0.23967033718E+03  0.41800000000E+01 0. -1.
        -11    1    1    2    0    0 -0.36640727462E+02 -0.25482761990E+02 -0.72632040877E+02  0.85248621277E+02  0.00000000000E+00 0. -1.
         11    1    1    2    0    0  0.21608880439E+02  0.18192033699E+02  0.96067401983E+01  0.29835939087E+02  0.00000000000E+00 0.  1.
</event>
<event>
 7    1  0.2420569E-009  0.1269306E+03  0.7561462E-02  0.1232083E+00
          1   -1    0    0  501    0  0.00000000000E+00  0.00000000000E+00  0.10973328512E+03  0.10973328512E+03  0.00000000000E+00 0. -1.
         -1   -1    0    0    0  501 -0.00000000000E+00 -0.00000000000E+00 -0.21330313000E+03  0.21330313000E+03  0.00000000000E+00 0.  1.
         25    2    1    2    0    0  0.31461974375E+02  0.81239989985E+02  0.10846805065E+02  0.15281737613E+03  0.12508279444E+03 0.  0.
          5    1    3    3  502    0 -0.42983976946E+02  0.57159312477E+02  0.18782609691E+02  0.74061245627E+02  0.41800000000E+01 0. -1.
         -5    1    3    3    0  502  0.74445951321E+02  0.24080677508E+02 -0.79358046261E+01  0.78756130507E+02  0.41800000000E+01 0. -1.
        -11    1    1    2    0    0 -0.15773288632E+02 -0.86028617995E+02 -0.43980154935E+02  0.97897772071E+02  0.00000000000E+00 0. -1.
         11    1    1    2    0    0 -0.15688685744E+02  0.47886280100E+01 -0.70436495014E+02  0.72321266916E+02  0.00000000000E+00 0.  1.
</event>
<event>
 7    1  0.2420569E-009  0.9466105E+02  0.7561462E-02  0.1291941E+00
          1   -1    0    0  501    0  0.00000000000E+00  0.00000000000E+00  0.24273917728E+03  0.24273917728E+03  0.00000000000E+00 0. -1.
         -1   -1    0    0    0  501 -0.00000000000E+00 -0.00000000000E+00 -0.46915365369E+02  0.46915365369E+02  0.00000000000E+00 0.  1.
         25    2    1    2    0    0 -0.89572783919E+00  0.11970986620E+02  0.12390175042E+03  0.17647264115E+03  0.12508733937E+03 0.  0.
          5    1    3    3  502    0  0.46628718286E+02  0.38347230048E+02  0.10013986537E+03  0.11700518133E+03  0.41800000000E+01 0. -1.
         -5    1    3    3    0  502 -0.47524446125E+02 -0.26376243428E+02  0.23761885047E+02  0.59467459824E+02  0.41800000000E+01 0. -1.
        -11    1    1    2    0    0 -0.31423777218E+02 -0.24276689241E+02  0.67504771996E+02  0.78317977868E+02  0.00000000000E+00 0. -1.
         11    1    1    2    0    0  0.32319505057E+02  0.12305702620E+02  0.44172894955E+01  0.34863923626E+02  0.00000000000E+00 0.  1.
</event>
<event>
 7    1  0.2420569E-009  0.1084961E+03  0.7561462E-02  0.1263380E+00
         -1   -1    0    0    0  501 -0.00000000000E+00  0.00000000000E+00  0.15142043139E+03  0.15142043139E+03  0.00000000000E+00 0.  1.
          1   -1    0    0  501    0  0.00000000000E+00 -0.00000000000E+00 -0.14308481414E+03  0.14308481414E+03  0.00000000000E+00 0. -1.
         25    2    1    2    0    0 -0.71817450233E+02  0.53824273016E+02  0.43900371147E+02  0.16009357658E+03  0.12509161503E+03 0.  0.
          5    1    3    3  502    0  0.21095564418E+02  0.75098241768E+01  0.51096477228E+02  0.55944103196E+02  0.41800000000E+01 0. -1.
         -5    1    3    3    0  502 -0.92913014652E+02  0.46314448840E+02 -0.71961060807E+01  0.10414947338E+03  0.41800000000E+01 0. -1.
        -11    1    1    2    0    0  0.25342592862E+02 -0.25148377339E+02  0.31717456967E+02  0.47756517588E+02  0.00000000000E+00 0.  1.
         11    1    1    2    0    0  0.46474857372E+02 -0.28675895678E+02 -0.67282210860E+02  0.86655151370E+02  0.00000000000E+00 0. -1.
</event>
<event>
 7    1  0.2420569E-009  0.1175886E+03  0.7561462E-02  0.1247129E+00
          3   -1    0    0  501    0  0.00000000000E+00  0.00000000000E+00  0.34335485677E+03  0.34335485677E+03  0.00000000000E+00 0. -1.
         -3   -1    0    0    0  501 -0.00000000000E+00 -0.00000000000E+00 -0.44980004130E+02  0.44980004130E+02  0.00000000000E+00 0.  1.
         25    2    1    2    0    0  0.10101519500E+02  0.61409041072E+02  0.16310364686E+03  0.21476783215E+03  0.12509720654E+03 0.  0.
          5    1    3    3  502    0  0.70528385736E+01 -0.33560770699E+02  0.12686488049E+02  0.36803359098E+02  0.41800000000E+01 0.  1.
         -5    1    3    3    0  502  0.30486809263E+01  0.94969811771E+02  0.15041715882E+03  0.17796447305E+03  0.41800000000E+01 0.  1.
        -11    1    1    2    0    0 -0.23088107092E+01  0.21812001887E+02  0.47738601602E+02  0.52536350426E+02  0.00000000000E+00 0.  1.
         11    1    1    2    0    0 -0.77927087908E+01 -0.83221042960E+02  0.87532604171E+02  0.12103067832E+03  0.00000000000E+00 0. -1.
</event>
<event>
 7    1  0.2517134E-009  0.2297981E+03  0.7561462E-02  0.1126782E+00
         -2   -1    0    0    0  501 -0.00000000000E+00  0.00000000000E+00  0.38942183009E+02  0.38942183009E+02  0.00000000000E+00 0.  1.
          2   -1    0    0  501    0  0.00000000000E+00 -0.00000000000E+00 -0.15390117434E+04  0.15390117434E+04  0.00000000000E+00 0. -1.
         25    2    1    2    0    0  0.79721257850E+02 -0.19883374658E+03 -0.62529818785E+03  0.67270831121E+03  0.12509320733E+03 0.  0.
          5    1    3    3  502    0 -0.21896076248E+02 -0.58326193040E+02 -0.86524604146E+02  0.10670221400E+03  0.41800000000E+01 0.  1.
         -5    1    3    3    0  502  0.10161733410E+03 -0.14050755354E+03 -0.53877358370E+03  0.56600609721E+03  0.41800000000E+01 0.  1.
        -11    1    1    2    0    0 -0.81456664000E+02  0.12108434222E+03 -0.68079681018E+03  0.69626209346E+03  0.00000000000E+00 0. -1.
         11    1    1    2    0    0  0.17354061493E+01  0.77749404355E+02 -0.19397456236E+03  0.20898352173E+03  0.00000000000E+00 0.  1.
</event>
<event>
 7    1  0.2420569E-009  0.1069841E+03  0.7561462E-02  0.1266259E+00
         -1   -1    0    0    0  501 -0.00000000000E+00  0.00000000000E+00  0.15286814374E+03  0.15286814374E+03  0.00000000000E+00 0.  1.
          1   -1    0    0  501    0  0.00000000000E+00 -0.00000000000E+00 -0.12382298908E+03  0.12382298908E+03  0.00000000000E+00 0. -1.
         25    2    1    2    0    0 -0.37994888576E+02 -0.61045906782E+02 -0.28521413866E+02  0.14706653981E+03  0.12507950187E+03 0.  0.
          5    1    3    3  502    0 -0.33573672734E+01 -0.90330795862E+02 -0.41717669697E+02  0.99643168160E+02  0.41800000000E+01 0. -1.
         -5    1    3    3    0  502 -0.34637521303E+02  0.29284889080E+02  0.13196255831E+02  0.47423371647E+02  0.41800000000E+01 0. -1.
        -11    1    1    2    0    0  0.76814456535E+00  0.28412546971E+02  0.72535757815E+02  0.77905706038E+02  0.00000000000E+00 0.  1.
         11    1    1    2    0    0  0.37226744011E+02  0.32633359811E+02 -0.14969189283E+02  0.51718886975E+02  0.00000000000E+00 0. -1.
</event>
<event>
 7    1  0.2420569E-009  0.1463295E+03  0.7561462E-02  0.1205057E+00
          1   -1    0    0  501    0  0.00000000000E+00  0.00000000000E+00  0.15511477068E+04  0.15511477068E+04  0.00000000000E+00 0. -1.
         -1   -1    0    0    0  501 -0.00000000000E+00 -0.00000000000E+00 -0.15384275837E+02  0.15384275837E+02  0.00000000000E+00 0.  1.
         25    2    1    2    0    0  0.45877942340E+02  0.97349528037E+02  0.94143436178E+03  0.95578684963E+03  0.12509247853E+03 0.  0.
          5    1    3    3  502    0  0.78453147815E+02  0.44563543625E+02  0.36499932806E+03  0.37600902610E+03  0.41800000000E+01 0.  1.
         -5    1    3    3    0  502 -0.32575205474E+02  0.52785984413E+02  0.57643503372E+03  0.57977782353E+03  0.41800000000E+01 0.  1.
        -11    1    1    2    0    0  0.95687209321E+01  0.13310548131E+02  0.87412645960E+02  0.88936504236E+02  0.00000000000E+00 0.  1.
         11    1    1    2    0    0 -0.55446663272E+02 -0.11066007617E+03  0.50691642320E+03  0.52180862875E+03  0.00000000000E+00 0. -1.
</event>
<event>
 7    1  0.2560616E-009  0.1425824E+03  0.7561462E-02  0.1209896E+00
          1   -1    0    0  501    0  0.00000000000E+00  0.00000000000E+00  0.86156436833E+02  0.86156436833E+02  0.00000000000E+00 0. -1.
         -1   -1    0    0    0  501 -0.00000000000E+00 -0.00000000000E+00 -0.36160976910E+03  0.36160976910E+03  0.00000000000E+00 0.  1.
         25    2    1    2    0    0  0.13332259636E+03 -0.32750141226E+01 -0.19511207937E+03  0.26739932806E+03  0.12509211292E+03 0.  0.
          5    1    3    3  502    0  0.19547030903E+02 -0.14560656206E+01 -0.13903660143E+03  0.14047368253E+03  0.41800000000E+01 0.  1.
         -5    1    3    3    0  502  0.11377556545E+03 -0.18189485021E+01 -0.56075477931E+02  0.12692564553E+03  0.41800000000E+01 0.  1.
        -11    1    1    2    0    0 -0.86839144469E+02 -0.32372854324E+02 -0.17240537889E+02  0.94267040135E+02  0.00000000000E+00 0. -1.
         11    1    1    2    0    0 -0.46483451888E+02  0.35647868447E+02 -0.63100715016E+02  0.86099837746E+02  0.00000000000E+00 0.  1.
</event>
<event>
 7    1  0.2420569E-009  0.2340065E+03  0.7561462E-02  0.1123851E+00
          1   -1    0    0  501    0  0.00000000000E+00  0.00000000000E+00  0.30328571513E+03  0.30328571513E+03  0.00000000000E+00 0. -1.
         -1   -1    0    0    0  501 -0.00000000000E+00 -0.00000000000E+00 -0.21991578054E+03  0.21991578054E+03  0.00000000000E+00 0.  1.
         25    2    1    2    0    0  0.38029215762E+02 -0.20984122359E+03  0.32487289852E+02  0.24936251526E+03  0.12508668852E+03 0.  0.
          5    1    3    3  502    0 -0.15558721399E+02 -0.33128160680E+02 -0.36816890796E+02  0.52081711660E+02  0.41800000000E+01 0.  1.
         -5    1    3    3    0  502  0.53587937160E+02 -0.17671306291E+03  0.69304180648E+02  0.19728080360E+03  0.41800000000E+01 0.  1.
        -11    1    1    2    0    0 -0.79821458113E+02  0.17390970558E+03  0.84608559095E+02  0.20922394495E+03  0.00000000000E+00 0. -1.
         11    1    1    2    0    0  0.41792242351E+02  0.35931518014E+02 -0.33725914364E+02  0.64615035458E+02  0.00000000000E+00 0.  1.
</event>
<event>
 7    1  0.2420569E-009  0.2162623E+03  0.7561462E-02  0.1136701E+00
          1   -1    0    0  501    0  0.00000000000E+00  0.00000000000E+00  0.12176171438E+03  0.12176171438E+03  0.00000000000E+00 0. -1.
         -1   -1    0    0    0  501 -0.00000000000E+00 -0.00000000000E+00 -0.45898207788E+03  0.45898207788E+03  0.00000000000E+00 0.  1.
         25    2    1    2    0    0  0.18840159902E+03 -0.44930003243E+02 -0.27246941959E+03  0.35693217210E+03  0.12508846135E+03 0.  0.
          5    1    3    3  502    0  0.12681318298E+03 -0.84506208619E+02 -0.21600987202E+03  0.26438725363E+03  0.41800000000E+01 0.  1.
         -5    1    3    3    0  502  0.61588416037E+02  0.39576205376E+02 -0.56459547573E+02  0.92544918467E+02  0.41800000000E+01 0.  1.
        -11    1    1    2    0    0 -0.12969644494E+03 -0.48392501519E+01 -0.68506235784E+02  0.14675725029E+03  0.00000000000E+00 0.  1.
         11    1    1    2    0    0 -0.58705154074E+02  0.49769253395E+02  0.37552918843E+01  0.77054369866E+02  0.00000000000E+00 0. -1.
</event>
<event>
 7    1  0.2420569E-009  0.1379843E+03  0.7561462E-02  0.1216067E+00
          2   -1    0    0  501    0  0.00000000000E+00  0.00000000000E+00  0.12004834207E+03  0.12004834207E+03  0.00000000000E+00 0. -1.
         -2   -1    0    0    0  501 -0.00000000000E+00 -0.00000000000E+00 -0.16409711128E+03  0.16409711128E+03  0.00000000000E+00 0.  1.
         25    2    1    2    0    0 -0.82553257870E+02  0.26463783611E+02 -0.71313988905E+01  0.15235943161E+03  0.12508863786E+03 0.  0.
          5    1    3    3  502    0 -0.88701254302E+01 -0.47003589591E+02 -0.59220274660E+00  0.48019159339E+02  0.41800000000E+01 0.  1.
         -5    1    3    3    0  502 -0.73683132440E+02  0.73467373202E+02 -0.65391961439E+01  0.10434027227E+03  0.41800000000E+01 0.  1.
        -11    1    1    2    0    0 -0.82922141363E+01  0.20093487839E+02 -0.17428680617E+02  0.27861586043E+02  0.00000000000E+00 0.  1.
         11    1    1    2    0    0  0.90845472006E+02 -0.46557271450E+02 -0.19488689695E+02  0.10392443570E+03  0.00000000000E+00 0. -1.
</event>
<event>
 7    1  0.2420569E-009  0.1220980E+03  0.7561462E-02  0.1239676E+00
         -2   -1    0    0    0  501 -0.00000000000E+00  0.00000000000E+00  0.68268738736E+02  0.68268738736E+02  0.00000000000E+00 0.  1.
          2   -1    0    0  501    0  0.00000000000E+00 -0.00000000000E+00 -0.39146823871E+03  0.39146823871E+03  0.00000000000E+00 0. -1.
         25    2    1    2    0    0  0.27876599107E+02 -0.69184070268E+02 -0.30871185779E+03  0.34133963839E+03  0.12508476023E+03 0.  0.
          5    1    3    3  502    0  0.76769977222E+02 -0.36365702913E+02 -0.15719601355E+03  0.17872927244E+03  0.41800000000E+01 0. -1.
         -5    1    3    3    0  502 -0.48893378114E+02 -0.32818367355E+02 -0.15151584424E+03  0.16261036595E+03  0.41800000000E+01 0. -1.
        -11    1    1    2    0    0 -0.41657474137E+02  0.15117201907E+02  0.24208173965E+02  0.50496639806E+02  0.00000000000E+00 0.  1.
         11    1    1    2    0    0  0.13780875029E+02  0.54066868361E+02 -0.38695816148E+02  0.67900699248E+02  0.00000000000E+00 0. -1.
</event>
<event>
 7    1  0.2420569E-009  0.1089607E+03  0.7561462E-02  0.1262507E+00
          1   -1    0    0  501    0  0.00000000000E+00  0.00000000000E+00  0.12829075287E+03  0.12829075287E+03  0.00000000000E+00 0. -1.
         -1   -1    0    0    0  501 -0.00000000000E+00 -0.00000000000E+00 -0.19816511726E+03  0.19816511726E+03  0.00000000000E+00 0.  1.
         25    2    1    2    0    0  0.42105798969E+02 -0.17472448307E+02 -0.14613991286E+03  0.19769348283E+03  0.12509058424E+03 0.  0.
          5    1    3    3  502    0  0.66475223278E+02  0.32159115384E+02 -0.10594038538E+03  0.12920526950E+03  0.41800000000E+01 0.  1.
         -5    1    3    3    0  502 -0.24369424309E+02 -0.49631563691E+02 -0.40199527480E+02  0.68488213330E+02  0.41800000000E+01 0.  1.
        -11    1    1    2    0    0 -0.64079421039E+02  0.17892772231E+02  0.82436896715E+02  0.10593472254E+03  0.00000000000E+00 0. -1.
         11    1    1    2    0    0  0.21973622070E+02 -0.42032392488E+00 -0.61713482466E+01  0.22827664757E+02  0.00000000000E+00 0.  1.
</event>
<event>
 7    1  0.2420569E-009  0.1925696E+03  0.7561462E-02  0.1156164E+00
          2   -1    0    0  501    0  0.00000000000E+00  0.00000000000E+00  0.69582424840E+03  0.69582424840E+03  0.00000000000E+00 0. -1.
         -2   -1    0    0    0  501 -0.00000000000E+00 -0.00000000000E+00 -0.62500257429E+02  0.62500257429E+02  0.00000000000E+00 0.  1.
         25    2    1    2    0    0 -0.33648454219E+02  0.17494584289E+03  0.31289570324E+03  0.38116805891E+03  0.12508837521E+03 0.  0.
          5    1    3    3  502    0 -0.59373352789E-01  0.14492764199E+03  0.13674553732E+03  0.19930087636E+03  0.41800000000E+01 0.  1.
         -5    1    3    3    0  502 -0.33589080866E+02  0.30018200903E+02  0.17615016592E+03  0.18186718256E+03  0.41800000000E+01 0.  1.
        -11    1    1    2    0    0 -0.23160612997E+02 -0.22783158138E+02  0.29123582062E+02  0.43631059135E+02  0.00000000000E+00 0.  1.
         11    1    1    2    0    0  0.56809067216E+02 -0.15216268476E+03  0.29130470567E+03  0.33352538778E+03  0.00000000000E+00 0. -1.
</event>
<event>
 7    1  0.2420569E-009  0.1158825E+03  0.7561462E-02  0.1250048E+00
          2   -1    0    0  501    0  0.00000000000E+00  0.00000000000E+00  0.23581544601E+03  0.23581544601E+03  0.00000000000E+00 0. -1.
         -2   -1    0    0    0  501 -0.00000000000E+00 -0.00000000000E+00 -0.13069470406E+03  0.13069470406E+03  0.00000000000E+00 0.  1.
         25    2    1    2    0    0  0.66948573494E+01  0.84862119491E+02  0.16633546219E+03  0.22485816432E+03  0.12508919875E+03 0.  0.
          5    1    3    3  502    0  0.35132644748E+02 -0.18787123804E+01  0.11437934311E+03  0.11974113252E+03  0.41800000000E+01 0.  1.
         -5    1    3    3    0  502 -0.28437787399E+02  0.86740831872E+02  0.51956119079E+02  0.10511703181E+03  0.41800000000E+01 0.  1.
        -11    1    1    2    0    0 -0.23674293854E+02 -0.84730452528E+02 -0.78147364450E+02  0.11767213921E+03  0.00000000000E+00 0.  1.
         11    1    1    2    0    0  0.16979436505E+02 -0.13166696366E+00  0.16932644206E+02  0.23979846539E+02  0.00000000000E+00 0. -1.
</event>
<event>
 7    1  0.2420569E-009  0.1049057E+03  0.7561462E-02  0.1270305E+00
          1   -1    0    0  501    0  0.00000000000E+00  0.00000000000E+00  0.51540143920E+03  0.51540143920E+03  0.00000000000E+00 0. -1.
         -1   -1    0    0    0  501 -0.00000000000E+00 -0.00000000000E+00 -0.46165612348E+02  0.46165612348E+02  0.00000000000E+00 0.  1.
         25    2    1    2    0    0  0.52668167750E+02 -0.52507693543E+02  0.39552136416E+03  0.42144510267E+03  0.12509129181E+03 0.  0.
          5    1    3    3  502    0  0.24562718323E+02 -0.86146454446E+02  0.33373441402E+03  0.34557295937E+03  0.41800000000E+01 0.  1.
         -5    1    3    3    0  502  0.28105449427E+02  0.33638760903E+02  0.61786950140E+02  0.75872143308E+02  0.41800000000E+01 0.  1.
        -11    1    1    2    0    0 -0.48920820270E+02  0.40462330931E+02  0.95659611906E+02  0.11480944312E+03  0.00000000000E+00 0. -1.
         11    1    1    2    0    0 -0.37473474798E+01  0.12045362611E+02 -0.21945149210E+02  0.25312505752E+02  0.00000000000E+00 0.  1.
</event>
<event>
 7    1  0.2420569E-009  0.3271306E+03  0.7561462E-02  0.1072414E+00
         -2   -1    0    0    0  501 -0.00000000000E+00  0.00000000000E+00  0.45306062796E+03  0.45306062796E+03  0.00000000000E+00 0.  1.
          2   -1    0    0  501    0  0.00000000000E+00 -0.00000000000E+00 -0.25572596778E+03  0.25572596778E+03  0.00000000000E+00 0. -1.
         25    2    1    2    0    0 -0.21287899368E+01 -0.31527338892E+03  0.29185710790E+02  0.34044314067E+03  0.12509150575E+03 0.  0.
          5    1    3    3  502    0 -0.42040698031E+02 -0.21570035409E+03  0.61659341200E+02  0.22828361703E+03  0.41800000000E+01 0.  1.
         -5    1    3    3    0  502  0.39911908095E+02 -0.99573034821E+02 -0.32473630411E+02  0.11215952364E+03  0.41800000000E+01 0.  1.
        -11    1    1    2    0    0  0.43400353961E+02  0.12239009449E+03  0.77873019063E+02  0.15141708309E+03  0.00000000000E+00 0.  1.
         11    1    1    2    0    0 -0.41271564024E+02  0.19288329443E+03  0.90275930320E+02  0.21692637198E+03  0.00000000000E+00 0. -1.
</event>
<event>
 7    1  0.2420569E-009  0.7190731E+02  0.7561462E-02  0.1353725E+00
         -2   -1    0    0    0  501 -0.00000000000E+00  0.00000000000E+00  0.10511304501E+03  0.10511304501E+03  0.00000000000E+00 0.  1.
          2   -1    0    0  501    0  0.00000000000E+00 -0.00000000000E+00 -0.13041809074E+03  0.13041809074E+03  0.00000000000E+00 0. -1.
         25    2    1    2    0    0  0.33994712966E+02 -0.26620545907E+02  0.16933333187E+02  0.13341518626E+03  0.12509428515E+03 0.  0.
          5    1    3    3  502    0  0.32297699061E+02  0.16479711993E+01 -0.50525137182E+02  0.60134175482E+02  0.41800000000E+01 0. -1.
         -5    1    3    3    0  502  0.16970139053E+01 -0.28268517107E+02  0.67458470369E+02  0.73281010775E+02  0.41800000000E+01 0. -1.
        -11    1    1    2    0    0  0.16032395923E+02  0.28298412259E+02  0.54530849608E+01  0.32978386726E+02  0.00000000000E+00 0.  1.
         11    1    1    2    0    0 -0.50027108889E+02 -0.16778663522E+01 -0.47691463877E+02  0.69137562771E+02  0.00000000000E+00 0. -1.
</event>
<event>
 7    1  0.2420569E-009  0.1114252E+03  0.7561462E-02  0.1257953E+00
          1   -1    0    0  501    0  0.00000000000E+00  0.00000000000E+00  0.13081056643E+03  0.13081056643E+03  0.00000000000E+00 0. -1.
         -1   -1    0    0    0  501 -0.00000000000E+00 -0.00000000000E+00 -0.15676161788E+03  0.15676161788E+03  0.00000000000E+00 0.  1.
         25    2    1    2    0    0  0.38690980944E+01 -0.89113201076E+02 -0.34955250896E+02  0.15756569817E+03  0.12509575192E+03 0.  0.
          5    1    3    3  502    0 -0.43102336401E+02 -0.68303190142E+02 -0.59570390524E+02  0.10044521399E+03  0.41800000000E+01 0.  1.
         -5    1    3    3    0  502  0.46971434495E+02 -0.20810010934E+02  0.24615139628E+02  0.57120484176E+02  0.41800000000E+01 0.  1.
        -11    1    1    2    0    0 -0.96225087734E+01  0.57334576092E+02 -0.40533173903E+02  0.70871605579E+02  0.00000000000E+00 0.  1.
         11    1    1    2    0    0  0.57534106789E+01  0.31778624984E+02  0.49537373357E+02  0.59134880565E+02  0.00000000000E+00 0. -1.
</event>
<event>
 7    1  0.2420569E-009  0.1108810E+03  0.7561462E-02  0.1258947E+00
         -1   -1    0    0    0  501 -0.00000000000E+00  0.00000000000E+00  0.54153223883E+02  0.54153223883E+02  0.00000000000E+00 0.  1.
          1   -1    0    0  501    0  0.00000000000E+00 -0.00000000000E+00 -0.33719570010E+03  0.33719570010E+03  0.00000000000E+00 0. -1.
         25    2    1    2    0    0  0.32640405978E+02 -0.54686433457E+02 -0.22672690506E+03  0.26666089755E+03  0.12508774000E+03 0.  0.
          5    1    3    3  502    0  0.20274468018E+02  0.37064427837E+02 -0.10801510026E+03  0.11605843420E+03  0.41800000000E+01 0. -1.
         -5    1    3    3    0  502  0.12365937960E+02 -0.91750861294E+02 -0.11871180480E+03  0.15060246335E+03  0.41800000000E+01 0. -1.
        -11    1    1    2    0    0  0.11139492404E+02 -0.53277036671E+01 -0.48436392037E+02  0.49985565826E+02  0.00000000000E+00 0. -1.
         11    1    1    2    0    0 -0.43779898383E+02  0.60014137124E+02 -0.78791791245E+01  0.74702460607E+02  0.00000000000E+00 0.  1.
</event>
<event>
 7    1  0.2420569E-009  0.1440304E+03  0.7561462E-02  0.1208006E+00
          2   -1    0    0  501    0  0.00000000000E+00  0.00000000000E+00  0.40796299934E+03  0.40796299934E+03  0.00000000000E+00 0.  1.
         -2   -1    0    0    0  501 -0.00000000000E+00 -0.00000000000E+00 -0.53212965121E+02  0.53212965121E+02  0.00000000000E+00 0. -1.
         25    2    1    2    0    0  0.46623097214E+02  0.85763531424E+02  0.17983615736E+03  0.23982902871E+03  0.12509125869E+03 0.  0.
          5    1    3    3  502    0  0.18294939353E+02 -0.29438865335E+02  0.69436645803E+02  0.77719185396E+02  0.41800000000E+01 0.  1.
         -5    1    3    3    0  502  0.28328157861E+02  0.11520239676E+03  0.11039951155E+03  0.16210984331E+03  0.41800000000E+01 0.  1.
        -11    1    1    2    0    0  0.22668607188E+02 -0.53303279486E+02  0.61001217437E+02  0.84120472447E+02  0.00000000000E+00 0. -1.
         11    1    1    2    0    0 -0.69291704402E+02 -0.32460251937E+02  0.11391265942E+03  0.13722646331E+03  0.00000000000E+00 0.  1.
</event>
<event>
 7    1  0.2420569E-009  0.1149950E+03  0.7561462E-02  0.1251590E+00
          2   -1    0    0  501    0  0.00000000000E+00  0.00000000000E+00  0.17349403099E+03  0.17349403099E+03  0.00000000000E+00 0.  1.
         -2   -1    0    0    0  501 -0.00000000000E+00 -0.00000000000E+00 -0.11053007350E+03  0.11053007350E+03  0.00000000000E+00 0. -1.
         25    2    1    2    0    0 -0.78816503983E+02 -0.30359965554E+02  0.52942140139E+02  0.15995142151E+03  0.12509123963E+03 0.  0.
          5    1    3    3  502    0 -0.68514432232E+02  0.22530441548E+02 -0.14335874060E+02  0.73653498936E+02  0.41800000000E+01 0.  1.
         -5    1    3    3    0  502 -0.10302071751E+02 -0.52890407102E+02  0.67278014199E+02  0.86297922572E+02  0.41800000000E+01 0.  1.
        -11    1    1    2    0    0  0.79436910439E+02  0.63602176282E+01  0.37083280582E+02  0.87896784965E+02  0.00000000000E+00 0.  1.
         11    1    1    2    0    0 -0.62040645664E+00  0.23999747925E+02 -0.27061463231E+02  0.36175898011E+02  0.00000000000E+00 0. -1.
</event>
<event>
 7    1  0.2420569E-009  0.1231892E+03  0.7561462E-02  0.1237927E+00
         -2   -1    0    0    0  501 -0.00000000000E+00  0.00000000000E+00  0.46671324352E+02  0.46671324352E+02  0.00000000000E+00 0.  1.
          2   -1    0    0  501    0  0.00000000000E+00 -0.00000000000E+00 -0.42005888376E+03  0.42005888376E+03  0.00000000000E+00 0. -1.
         25    2    1    2    0    0 -0.46312874180E+02 -0.46077410431E+02 -0.30448585091E+03  0.33560014359E+03  0.12509121834E+03 0.  0.
          5    1    3    3  502    0 -0.27457983464E+02 -0.86156257821E+02 -0.15357747737E+03  0.17827045626E+03  0.41800000000E+01 0. -1.
         -5    1    3    3    0  502 -0.18854890715E+02  0.40078847390E+02 -0.15090837354E+03  0.15732968733E+03  0.41800000000E+01 0. -1.
        -11    1    1    2    0    0  0.73340936609E+02  0.26453639094E+02 -0.51805543481E+02  0.93608238630E+02  0.00000000000E+00 0.  1.
         11    1    1    2    0    0 -0.27028062430E+02  0.19623771337E+02 -0.17096165017E+02  0.37521825895E+02  0.00000000000E+00 0. -1.
</event>
<event>
 7    1  0.2420569E-009  0.9395320E+02  0.7561462E-02  0.1293551E+00
          1   -1    0    0  501    0  0.00000000000E+00  0.00000000000E+00  0.10375515247E+03  0.10375515247E+03  0.00000000000E+00 0. -1.
         -1   -1    0    0    0  501 -0.00000000000E+00 -0.00000000000E+00 -0.13304985987E+03  0.13304985987E+03  0.00000000000E+00 0.  1.
         25    2    1    2    0    0  0.30247895180E+02  0.23446189681E+02 -0.42183509173E+02  0.13746158591E+03  0.12510627555E+03 0.  0.
          5    1    3    3  502    0  0.50121741365E+02  0.50432596564E+02  0.13348064672E+02  0.72465709023E+02  0.41800000000E+01 0.  1.
         -5    1    3    3    0  502 -0.19873846185E+02 -0.26986406883E+02 -0.55531573845E+02  0.64995876887E+02  0.41800000000E+01 0.  1.
        -11    1    1    2    0    0  0.17744474504E+02  0.13535993749E+02  0.29053320612E+02  0.36635842296E+02  0.00000000000E+00 0. -1.
         11    1    1    2    0    0 -0.47992369683E+02 -0.36982183430E+02 -0.16164518843E+02  0.62707584138E+02  0.00000000000E+00 0.  1.
</event>
<event>
 7    1  0.2420569E-009  0.1478124E+03  0.7561462E-02  0.1203187E+00
         -2   -1    0    0    0  501 -0.00000000000E+00  0.00000000000E+00  0.70771782986E+02  0.70771782986E+02  0.00000000000E+00 0.  1.
          2   -1    0    0  501    0  0.00000000000E+00 -0.00000000000E+00 -0.37398292948E+03  0.37398292948E+03  0.00000000000E+00 0. -1.
         25    2    1    2    0    0 -0.12206947540E+02  0.10914065833E+03 -0.22937964037E+03  0.28341480824E+03  0.12509293042E+03 0.  0.
          5    1    3    3  502    0  0.51609627234E+02  0.35770350316E+02 -0.54394468014E+02  0.83182342690E+02  0.41800000000E+01 0. -1.
         -5    1    3    3    0  502 -0.63816574774E+02  0.73370308019E+02 -0.17498517236E+03  0.20023246555E+03  0.41800000000E+01 0. -1.
        -11    1    1    2    0    0  0.45780340046E+02 -0.71735969471E+02 -0.19460460686E+02  0.87296038747E+02  0.00000000000E+00 0.  1.
         11    1    1    2    0    0 -0.33573392507E+02 -0.37404688863E+02 -0.54371045436E+02  0.74043865480E+02  0.00000000000E+00 0. -1.
</event>
<event>
 7    1  0.2420569E-009  0.1743698E+03  0.7561462E-02  0.1173366E+00
         -1   -1    0    0    0  501 -0.00000000000E+00  0.00000000000E+00  0.25517092189E+03  0.25517092189E+03  0.00000000000E+00 0.  1.
          1   -1    0    0  501    0  0.00000000000E+00 -0.00000000000E+00 -0.13620395023E+03  0.13620395023E+03  0.00000000000E+00 0. -1.
         25    2    1    2    0    0 -0.12274578275E+03 -0.85163700607E+02  0.41891911116E+02  0.19930260807E+03  0.12508882558E+03 0.  0.
          5    1    3    3  502    0 -0.11067585978E+03 -0.40453344054E+01  0.10258019842E+02  0.11130233618E+03  0.41800000000E+01 0.  1.
         -5    1    3    3    0  502 -0.12069922968E+02 -0.81118366201E+02  0.31633891274E+02  0.88000271890E+02  0.41800000000E+01 0.  1.
        -11    1    1    2    0    0  0.56188186586E+02  0.13098631423E+02 -0.12721752183E+02  0.59080702734E+02  0.00000000000E+00 0. -1.
         11    1    1    2    0    0  0.66557596161E+02  0.72065069184E+02  0.89796812726E+02  0.13299156131E+03  0.00000000000E+00 0.  1.
</event>
<event>
 7    1  0.2463149E-009  0.9822065E+02  0.7561462E-02  0.1284083E+00
          4   -1    0    0  501    0  0.00000000000E+00  0.00000000000E+00  0.44960136786E+03  0.44960136786E+03  0.00000000000E+00 0.  1.
         -4   -1    0    0    0  501 -0.00000000000E+00 -0.00000000000E+00 -0.27843892289E+02  0.27843892289E+02  0.00000000000E+00 0. -1.
         25    2    1    2    0    0 -0.16439032275E+02  0.17691668298E+01  0.28849731559E+03  0.31488311063E+03  0.12508917029E+03 0.  0.
          5    1    3    3  502    0  0.45398084179E+02  0.55578676810E+01  0.47732209458E+02  0.66239807971E+02  0.41800000000E+01 0.  1.
         -5    1    3    3    0  502 -0.61837116454E+02 -0.37887008512E+01  0.24076510613E+03  0.24864330266E+03  0.41800000000E+01 0.  1.
        -11    1    1    2    0    0  0.49070047946E+02 -0.17626355707E+02  0.10249210815E+03  0.11499213127E+03  0.00000000000E+00 0.  1.
         11    1    1    2    0    0 -0.32631015672E+02  0.15857188877E+02  0.30768051831E+02  0.47570018250E+02  0.00000000000E+00 0. -1.
</event>
<event>
 7    1  0.2420569E-009  0.1630521E+03  0.7561462E-02  0.1185293E+00
          1   -1    0    0  501    0  0.00000000000E+00  0.00000000000E+00  0.53104936188E+03  0.53104936188E+03  0.00000000000E+00 0. -1.
         -1   -1    0    0    0  501 -0.00000000000E+00 -0.00000000000E+00 -0.51106518130E+02  0.51106518130E+02  0.00000000000E+00 0.  1.
         25    2    1    2    0    0 -0.39919800741E+02 -0.94916752208E+02  0.23453820715E+03  0.28505829023E+03  0.12508907976E+03 0.  0.
          5    1    3    3  502    0 -0.70441363903E+02 -0.10811033530E+02  0.12036916030E+03  0.13994667322E+03  0.41800000000E+01 0.  1.
         -5    1    3    3    0  502  0.30521563162E+02 -0.84105718678E+02  0.11416904686E+03  0.14511161702E+03  0.41800000000E+01 0.  1.
        -11    1    1    2    0    0 -0.46467160782E+02  0.19217218568E+02  0.53321581510E+02  0.73291811107E+02  0.00000000000E+00 0. -1.
         11    1    1    2    0    0  0.86386961524E+02  0.75699533640E+02  0.19208305508E+03  0.22380577867E+03  0.00000000000E+00 0.  1.
</event>
<event>
 7    1  0.2420569E-009  0.1237458E+03  0.7561462E-02  0.1237043E+00
         -1   -1    0    0    0  501 -0.00000000000E+00  0.00000000000E+00  0.30232884845E+03  0.30232884845E+03  0.00000000000E+00 0.  1.
          1   -1    0    0  501    0  0.00000000000E+00 -0.00000000000E+00 -0.68522956020E+02  0.68522956020E+02  0.00000000000E+00 0. -1.
         25    2    1    2    0    0 -0.17403474009E+02  0.89135084318E+02  0.10543388219E+03  0.18711537440E+03  0.12509162905E+03 0.  0.
          5    1    3    3  502    0 -0.67504594543E+02  0.34028829070E+02  0.74941600956E+02  0.10652956137E+03  0.41800000000E+01 0. -1.
         -5    1    3    3    0  502  0.50101120533E+02  0.55106255248E+02  0.30492281233E+02  0.80585813025E+02  0.41800000000E+01 0. -1.
        -11    1    1    2    0    0  0.28053202011E+02 -0.62993207098E+02  0.13770485924E+03  0.15400569646E+03  0.00000000000E+00 0.  1.
         11    1    1    2    0    0 -0.10649728002E+02 -0.26141877220E+02 -0.93328489948E+01  0.29730733618E+02  0.00000000000E+00 0. -1.
</event>
<event>
 7    1  0.2420569E-009  0.1407098E+03  0.7561462E-02  0.1212377E+00
         -2   -1    0    0    0  501 -0.00000000000E+00  0.00000000000E+00  0.72230088974E+03  0.72230088974E+03  0.00000000000E+00 0.  1.
          2   -1    0    0  501    0  0.00000000000E+00 -0.00000000000E+00 -0.28741683535E+02  0.28741683535E+02  0.00000000000E+00 0. -1.
         25    2    1    2    0    0 -0.17578515976E+02  0.90194054634E+02  0.42613269796E+03  0.45352047062E+03  0.12509104396E+03 0.  0.
          5    1    3    3  502    0 -0.55381285873E+02  0.10153536064E+01  0.11651740921E+03  0.12908097000E+03  0.41800000000E+01 0.  1.
         -5    1    3    3    0  502  0.37802769897E+02  0.89178701027E+02  0.30961528875E+03  0.32443950061E+03  0.41800000000E+01 0.  1.
        -11    1    1    2    0    0  0.28835245926E+02 -0.10581131683E+03  0.24144834886E+03  0.26518825642E+03  0.00000000000E+00 0.  1.
         11    1    1    2    0    0 -0.11256729950E+02  0.15617262197E+02  0.25978159390E+02  0.32333846245E+02  0.00000000000E+00 0. -1.
</event>
<event>
 7    1  0.2420569E-009  0.7987063E+02  0.7561462E-02  0.1329419E+00
         -3   -1    0    0    0  501 -0.00000000000E+00  0.00000000000E+00  0.17640766848E+03  0.17640766848E+03  0.00000000000E+00 0.  1.
          3   -1    0    0  501    0  0.00000000000E+00 -0.00000000000E+00 -0.94253408701E+02  0.94253408701E+02  0.00000000000E+00 0. -1.
         25    2    1    2    0    0  0.33491547779E+02 -0.34352932834E+02  0.93989623587E+02  0.16365358890E+03  0.12508653025E+03 0.  0.
          5    1    3    3  502    0  0.10194026852E+02  0.18954936638E+02  0.10240277556E+03  0.10472348662E+03  0.41800000000E+01 0.  1.
         -5    1    3    3    0  502  0.23297520927E+02 -0.53307869472E+02 -0.84131519741E+01  0.58930102283E+02  0.41800000000E+01 0.  1.
        -11    1    1    2    0    0 -0.49768249737E+02  0.38231814655E+02 -0.39875340129E+02  0.74354509507E+02  0.00000000000E+00 0. -1.
         11    1    1    2    0    0  0.16276701957E+02 -0.38788818212E+01  0.28039976319E+02  0.32652978773E+02  0.00000000000E+00 0.  1.
</event>
<event>
 7    1  0.2420569E-009  0.8734305E+02  0.7561462E-02  0.1309416E+00
          2   -1    0    0  501    0  0.00000000000E+00  0.00000000000E+00  0.94578007330E+03  0.94578007330E+03  0.00000000000E+00 0. -1.
         -2   -1    0    0    0  501 -0.00000000000E+00 -0.00000000000E+00 -0.12943211213E+02  0.12943211213E+02  0.00000000000E+00 0.  1.
         25    2    1    2    0    0 -0.11099899031E+02 -0.20791704909E+02  0.48880418303E+03  0.50510524114E+03  0.12508506118E+03 0.  0.
          5    1    3    3  502    0  0.33594710355E+02 -0.33609575342E+01  0.35203804569E+02  0.48955907258E+02  0.41800000000E+01 0. -1.
         -5    1    3    3    0  502 -0.44694609386E+02 -0.17430747375E+02  0.45360037846E+03  0.45614933388E+03  0.41800000000E+01 0. -1.
        -11    1    1    2    0    0  0.46030247547E+02 -0.86401352119E+01  0.24137102576E+03  0.24587274697E+03  0.00000000000E+00 0. -1.
         11    1    1    2    0    0 -0.34930348515E+02  0.29431840121E+02  0.20266165330E+03  0.20774529640E+03  0.00000000000E+00 0.  1.
</event>
<event>
 7    1  0.2420569E-009  0.1285039E+03  0.7561462E-02  0.1229693E+00
          4   -1    0    0  501    0  0.00000000000E+00  0.00000000000E+00  0.61399548958E+02  0.61399548958E+02  0.00000000000E+00 0. -1.
         -4   -1    0    0    0  501 -0.00000000000E+00 -0.00000000000E+00 -0.38772050292E+03  0.38772050292E+03  0.00000000000E+00 0.  1.
         25    2    1    2    0    0 -0.10719886776E+03 -0.15561211206E+02 -0.16459542373E+03  0.23339442650E+03  0.12509019251E+03 0.  0.
          5    1    3    3  502    0 -0.67984869135E+02 -0.28731376791E+02 -0.11574520716E+02  0.74825639813E+02  0.41800000000E+01 0. -1.
         -5    1    3    3    0  502 -0.39213998626E+02  0.13170165585E+02 -0.15302090302E+03  0.15856878668E+03  0.41800000000E+01 0. -1.
        -11    1    1    2    0    0  0.10974753767E+03  0.40093046642E+02 -0.12168569430E+03  0.16869908895E+03  0.00000000000E+00 0.  1.
         11    1    1    2    0    0 -0.25486699089E+01 -0.24531835436E+02 -0.40039835924E+02  0.47026536434E+02  0.00000000000E+00 0. -1.
</event>
<event>
 7    1  0.2420569E-009  0.1164787E+03  0.7561462E-02  0.1249022E+00
         -2   -1    0    0    0  501 -0.00000000000E+00  0.00000000000E+00  0.28283921985E+02  0.28283921985E+02  0.00000000000E+00 0. -1.
          2   -1    0    0  501    0  0.00000000000E+00 -0.00000000000E+00 -0.68804909757E+03  0.68804909757E+03  0.00000000000E+00 0.  1.
         25    2    1    2    0    0 -0.35704131939E+02 -0.26855730196E+02 -0.55469215415E+03  0.57037372379E+03  0.12508710419E+03 0.  0.
          5    1    3    3  502    0 -0.82492636608E+02 -0.20702698360E+02 -0.33778805284E+03  0.34835596429E+03  0.41800000000E+01 0.  1.
         -5    1    3    3    0  502  0.46788504669E+02 -0.61530318355E+01 -0.21690410131E+03  0.22201775951E+03  0.41800000000E+01 0.  1.
        -11    1    1    2    0    0  0.56069839739E+02 -0.11281478982E+02 -0.50192641905E+02  0.76094677855E+02  0.00000000000E+00 0.  1.
         11    1    1    2    0    0 -0.20365707800E+02  0.38137209178E+02 -0.54880379526E+02  0.69864617904E+02  0.00000000000E+00 0. -1.
</event>
<event>
 7    1  0.2420569E-009  0.2565895E+03  0.7561462E-02  0.1109210E+00
         -1   -1    0    0    0  501 -0.00000000000E+00  0.00000000000E+00  0.78928207083E+02  0.78928207083E+02  0.00000000000E+00 0.  1.
          1   -1    0    0  501    0  0.00000000000E+00 -0.00000000000E+00 -0.91568721193E+03  0.91568721193E+03  0.00000000000E+00 0. -1.
         25    2    1    2    0    0 -0.16492025510E+03  0.17312120161E+03 -0.32621495874E+03  0.42335839258E+03  0.12508592357E+03 0.  0.
          5    1    3    3  502    0 -0.16062264979E+03  0.89204960810E+02 -0.19938752733E+03  0.27116419217E+03  0.41800000000E+01 0. -1.
         -5    1    3    3    0  502 -0.42976053026E+01  0.83916240801E+02 -0.12682743141E+03  0.15219420041E+03  0.41800000000E+01 0. -1.
        -11    1    1    2    0    0  0.12564017506E+03 -0.93923359524E+02 -0.24072604698E+03  0.28732573979E+03  0.00000000000E+00 0.  1.
         11    1    1    2    0    0  0.39280080038E+02 -0.79197842087E+02 -0.26981799913E+03  0.28393128664E+03  0.00000000000E+00 0. -1.
</event>
<event>
 7    1  0.2420569E-009  0.8066223E+02  0.7561462E-02  0.1327183E+00
         -2   -1    0    0    0  501 -0.00000000000E+00  0.00000000000E+00  0.62234275385E+02  0.62234275385E+02  0.00000000000E+00 0.  1.
          2   -1    0    0  501    0  0.00000000000E+00 -0.00000000000E+00 -0.22265281444E+03  0.22265281444E+03  0.00000000000E+00 0. -1.
         25    2    1    2    0    0  0.18596869590E+01  0.60343473845E+01 -0.40478481710E+02  0.13162490437E+03  0.12508691452E+03 0.  0.
          5    1    3    3  502    0  0.43393952045E+02  0.90538704959E+01  0.27108676264E+02  0.52128306838E+02  0.41800000000E+01 0. -1.
         -5    1    3    3    0  502 -0.41534265086E+02 -0.30195231114E+01 -0.67587157973E+02  0.79496597531E+02  0.41800000000E+01 0. -1.
        -11    1    1    2    0    0 -0.34835887748E+01  0.34351555348E+02 -0.97273284236E+01  0.35871794823E+02  0.00000000000E+00 0.  1.
         11    1    1    2    0    0  0.16239018158E+01 -0.40385902732E+02 -0.11021272892E+03  0.11739039063E+03  0.00000000000E+00 0. -1.
</event>
<event>
 7    1  0.2420569E-009  0.1451710E+03  0.7561462E-02  0.1206536E+00
         -2   -1    0    0    0  501 -0.00000000000E+00  0.00000000000E+00  0.29862213579E+03  0.29862213579E+03  0.00000000000E+00 0.  1.
          2   -1    0    0  501    0  0.00000000000E+00 -0.00000000000E+00 -0.11363926247E+03  0.11363926247E+03  0.00000000000E+00 0. -1.
         25    2    1    2    0    0 -0.77279436677E+02 -0.92374830814E+02 -0.29135062052E-01  0.17364263535E+03  0.12508614336E+03 0.  0.
          5    1    3    3  502    0 -0.19732252805E+02 -0.87430282634E+02  0.44912470663E+02  0.10033951636E+03  0.41800000000E+01 0.  1.
         -5    1    3    3    0  502 -0.57547183873E+02 -0.49445481805E+01 -0.44941605725E+02  0.73303118989E+02  0.41800000000E+01 0.  1.
        -11    1    1    2    0    0  0.54714213788E+02  0.79161224325E+01  0.11127955266E+03  0.12425557945E+03  0.00000000000E+00 0.  1.
         11    1    1    2    0    0  0.22565222889E+02  0.84458708382E+02  0.73732455720E+02  0.11436318346E+03  0.00000000000E+00 0. -1.
</event>
<event>
 7    1  0.2420569E-009  0.1106796E+03  0.7561462E-02  0.1259317E+00
         -2   -1    0    0    0  501 -0.00000000000E+00  0.00000000000E+00  0.41049490233E+02  0.41049490233E+02  0.00000000000E+00 0. -1.
          2   -1    0    0  501    0  0.00000000000E+00 -0.00000000000E+00 -0.31433975493E+03  0.31433975493E+03  0.00000000000E+00 0.  1.
         25    2    1    2    0    0  0.20883131830E+02  0.44507498936E+01 -0.19084998522E+03  0.22918979043E+03  0.12509328044E+03 0.  0.
          5    1    3    3  502    0 -0.22383302212E+02 -0.51343458677E+02 -0.83169893942E+02  0.10035868983E+03  0.41800000000E+01 0. -1.
         -5    1    3    3    0  502  0.43266434042E+02  0.55794208570E+02 -0.10768009128E+03  0.12883110060E+03  0.41800000000E+01 0. -1.
        -11    1    1    2    0    0 -0.54948607593E+02 -0.17973824059E+02 -0.40996961840E+02  0.70874245730E+02  0.00000000000E+00 0. -1.
         11    1    1    2    0    0  0.34065475763E+02  0.13523074165E+02 -0.41443317639E+02  0.55325208999E+02  0.00000000000E+00 0.  1.
</event>
<event>
 7    1  0.2420569E-009  0.1889731E+03  0.7561462E-02  0.1159391E+00
         -2   -1    0    0    0  501 -0.00000000000E+00  0.00000000000E+00  0.10276762205E+03  0.10276762205E+03  0.00000000000E+00 0.  1.
          2   -1    0    0  501    0  0.00000000000E+00 -0.00000000000E+00 -0.43230920076E+03  0.43230920076E+03  0.00000000000E+00 0. -1.
         25    2    1    2    0    0  0.11913517435E+03 -0.11713943134E+03 -0.25649321705E+03  0.33068232430E+03  0.12508874076E+03 0.  0.
          5    1    3    3  502    0  0.12960109237E+03 -0.12336095075E+03 -0.26148996011E+03  0.31687353779E+03  0.41800000000E+01 0.  1.
         -5    1    3    3    0  502 -0.10465918020E+02  0.62215194088E+01  0.49967430520E+01  0.13808786510E+02  0.41800000000E+01 0.  1.
        -11    1    1    2    0    0 -0.16771769306E+02 -0.12500404673E+02  0.52934228114E+01  0.21577133445E+02  0.00000000000E+00 0.  1.
         11    1    1    2    0    0 -0.10236340505E+03  0.12963983602E+03 -0.78341784473E+02  0.18281736507E+03  0.00000000000E+00 0. -1.
</event>
<event>
 7    1  0.2420569E-009  0.5744170E+02  0.7561462E-02  0.1408892E+00
         -3   -1    0    0    0  501 -0.00000000000E+00  0.00000000000E+00  0.17928610983E+03  0.17928610983E+03  0.00000000000E+00 0.  1.
          3   -1    0    0  501    0  0.00000000000E+00 -0.00000000000E+00 -0.12025947043E+03  0.12025947043E+03  0.00000000000E+00 0. -1.
         25    2    1    2    0    0 -0.17788606830E+02  0.29919315860E+02 -0.59393101913E+02  0.14278206482E+03  0.12509027735E+03 0.  0.
          5    1    3    3  502    0 -0.36614320754E+02 -0.27438509610E+01  0.28752130738E+02  0.46821945970E+02  0.41800000000E+01 0. -1.
         -5    1    3    3    0  502  0.18825713925E+02  0.32663166821E+02 -0.88145232651E+02  0.95960118855E+02  0.41800000000E+01 0. -1.
        -11    1    1    2    0    0  0.13842588896E+02 -0.49223617154E+01 -0.14981499597E+02  0.20983141862E+02  0.00000000000E+00 0. -1.
         11    1    1    2    0    0  0.39460179333E+01 -0.24996954144E+02  0.13340124090E+03  0.13578037357E+03  0.00000000000E+00 0.  1.
</event>
<event>
 7    1  0.2420569E-009  0.1282397E+03  0.7561462E-02  0.1230091E+00
          1   -1    0    0  501    0  0.00000000000E+00  0.00000000000E+00  0.47066280060E+03  0.47066280060E+03  0.00000000000E+00 0. -1.
         -1   -1    0    0    0  501 -0.00000000000E+00 -0.00000000000E+00 -0.35983554345E+02  0.35983554345E+02  0.00000000000E+00 0.  1.
         25    2    1    2    0    0 -0.70725375282E+02  0.18138060022E+02  0.22356985304E+03  0.26638555532E+03  0.12508683769E+03 0.  0.
          5    1    3    3  502    0  0.27389457028E+02 -0.25225830704E+02  0.59551394235E+02  0.70358836305E+02  0.41800000000E+01 0.  1.
         -5    1    3    3    0  502 -0.98114832310E+02  0.43363890725E+02  0.16401845881E+03  0.19602671902E+03  0.41800000000E+01 0.  1.
        -11    1    1    2    0    0 -0.17973526766E+02 -0.14139515770E+02  0.69032221123E+02  0.72721531363E+02  0.00000000000E+00 0. -1.
         11    1    1    2    0    0  0.88698902048E+02 -0.39985442520E+01  0.14207717209E+03  0.16753926826E+03  0.00000000000E+00 0.  1.
</event>
<event>
 7    1  0.2420569E-009  0.7887435E+02  0.7561462E-02  0.1332277E+00
         -2   -1    0    0    0  501 -0.00000000000E+00  0.00000000000E+00  0.24416844276E+03  0.24416844276E+03  0.00000000000E+00 0.  1.
          2   -1    0    0  501    0  0.00000000000E+00 -0.00000000000E+00 -0.52988613604E+02  0.52988613604E+02  0.00000000000E+00 0. -1.
         25    2    1    2    0    0 -0.58412054724E+01 -0.35933076309E+01  0.15408570107E+03  0.19858680484E+03  0.12508910520E+03 0.  0.
          5    1    3    3  502    0  0.18509841670E+02  0.56705353444E+02  0.66702151605E+02  0.89581029111E+02  0.41800000000E+01 0. -1.
         -5    1    3    3    0  502 -0.24351047142E+02 -0.60298661075E+02  0.87383549468E+02  0.10900577573E+03  0.41800000000E+01 0. -1.
        -11    1    1    2    0    0 -0.13162851050E+02  0.40717320683E+01 -0.27757931101E+02  0.30989391553E+02  0.00000000000E+00 0. -1.
         11    1    1    2    0    0  0.19004056523E+02 -0.47842443743E+00  0.64852059187E+02  0.67580859976E+02  0.00000000000E+00 0.  1.
</event>
<event>
 7    1  0.2420569E-009  0.1304197E+03  0.7561462E-02  0.1226834E+00
          2   -1    0    0  501    0  0.00000000000E+00  0.00000000000E+00  0.50649302925E+03  0.50649302925E+03  0.00000000000E+00 0. -1.
         -2   -1    0    0    0  501 -0.00000000000E+00 -0.00000000000E+00 -0.36279288272E+02  0.36279288272E+02  0.00000000000E+00 0.  1.
         25    2    1    2    0    0 -0.62006018241E+02  0.49461870974E+02  0.24347405817E+03  0.28499384064E+03  0.12510255481E+03 0.  0.
          5    1    3    3  502    0 -0.59222744680E+02  0.87000117600E+02  0.20778050676E+03  0.23295185197E+03  0.41800000000E+01 0.  1.
         -5    1    3    3    0  502 -0.27832735608E+01 -0.37538246626E+02  0.35693551413E+02  0.52041988662E+02  0.41800000000E+01 0.  1.
        -11    1    1    2    0    0  0.65114452205E+02 -0.70733908687E+02  0.20845020753E+03  0.22955318935E+03  0.00000000000E+00 0. -1.
         11    1    1    2    0    0 -0.31084339638E+01  0.21272037713E+02  0.18289475276E+02  0.28225287528E+02  0.00000000000E+00 0.  1.
</event>
<event>
 7    1  0.2420569E-009  0.9899757E+02  0.7561462E-02  0.1282418E+00
         -2   -1    0    0    0  501 -0.00000000000E+00  0.00000000000E+00  0.82200783711E+02  0.82200783711E+02  0.00000000000E+00 0.  1.
          2   -1    0    0  501    0  0.00000000000E+00 -0.00000000000E+00 -0.22582280582E+03  0.22582280582E+03  0.00000000000E+00 0. -1.
         25    2    1    2    0    0 -0.24114678260E+02 -0.75927008641E+02 -0.10247974149E+03  0.18025913564E+03  0.12507929572E+03 0.  0.
          5    1    3    3  502    0  0.28383382194E+02 -0.32951307525E+02  0.13585558471E+02  0.45754178512E+02  0.41800000000E+01 0. -1.
         -5    1    3    3    0  502 -0.52498060454E+02 -0.42975701116E+02 -0.11606529996E+03  0.13450495713E+03  0.41800000000E+01 0. -1.
        -11    1    1    2    0    0  0.60126648855E+01  0.64808390901E+02  0.15809704210E+02  0.66979298424E+02  0.00000000000E+00 0.  1.
         11    1    1    2    0    0  0.18102013374E+02  0.11118617740E+02 -0.56951984836E+02  0.60785155469E+02  0.00000000000E+00 0. -1.
</event>
<event>
 7    1  0.2420569E-009  0.9781357E+02  0.7561462E-02  0.1284962E+00
         -2   -1    0    0    0  501 -0.00000000000E+00  0.00000000000E+00  0.72985612811E+02  0.72985612811E+02  0.00000000000E+00 0.  1.
          2   -1    0    0  501    0  0.00000000000E+00 -0.00000000000E+00 -0.30792058959E+03  0.30792058959E+03  0.00000000000E+00 0. -1.
         25    2    1    2    0    0  0.95958667579E+02  0.47841783386E+01 -0.51415567967E+02  0.16589815073E+03  0.12509069326E+03 0.  0.
          5    1    3    3  502    0  0.76775367299E+02  0.12721622692E+02  0.28684738544E+02  0.83045670165E+02  0.41800000000E+01 0. -1.
         -5    1    3    3    0  502  0.19183300280E+02 -0.79374443533E+01 -0.80100306511E+02  0.82852480564E+02  0.41800000000E+01 0. -1.
        -11    1    1    2    0    0 -0.64500094184E+02 -0.75261357559E+01 -0.16739967948E+03  0.17955377345E+03  0.00000000000E+00 0. -1.
         11    1    1    2    0    0 -0.31458573395E+02  0.27419574173E+01 -0.16119729327E+02  0.35454278220E+02  0.00000000000E+00 0.  1.
</event>
<event>
 7    1  0.2420569E-009  0.1340139E+03  0.7561462E-02  0.1221619E+00
          1   -1    0    0  501    0  0.00000000000E+00  0.00000000000E+00  0.36690671348E+03  0.36690671348E+03  0.00000000000E+00 0. -1.
         -1   -1    0    0    0  501 -0.00000000000E+00 -0.00000000000E+00 -0.64706677608E+02  0.64706677608E+02  0.00000000000E+00 0.  1.
         25    2    1    2    0    0  0.10171218206E+03 -0.34003679434E+02  0.13261614042E+03  0.21151008795E+03  0.12509140022E+03 0.  0.
          5    1    3    3  502    0  0.11538493902E+03 -0.24730152089E+01  0.57956453220E+02  0.12921386469E+03  0.41800000000E+01 0. -1.
         -5    1    3    3    0  502 -0.13672756967E+02 -0.31530664225E+02  0.74659687202E+02  0.82296223259E+02  0.41800000000E+01 0. -1.
        -11    1    1    2    0    0 -0.72652003515E+02  0.46530035404E+02  0.16747132492E+03  0.18838790428E+03  0.00000000000E+00 0. -1.
         11    1    1    2    0    0 -0.29060178541E+02 -0.12526355970E+02  0.21125705320E+01  0.31715398862E+02  0.00000000000E+00 0.  1.
</event>
<event>
 7    1  0.2420569E-009  0.1386678E+03  0.7561462E-02  0.1215133E+00
          4   -1    0    0  501    0  0.00000000000E+00  0.00000000000E+00  0.30463036182E+03  0.30463036182E+03  0.00000000000E+00 0. -1.
         -4   -1    0    0    0  501 -0.00000000000E+00 -0.00000000000E+00 -0.16166767375E+03  0.16166767375E+03  0.00000000000E+00 0.  1.
         25    2    1    2    0    0 -0.11362392584E+03  0.31264724406E+02  0.23538789796E+03  0.29144891825E+03  0.12508848839E+03 0.  0.
          5    1    3    3  502    0 -0.11732178755E+03  0.36129104875E+02  0.24804170975E+03  0.27678850450E+03  0.41800000000E+01 0.  1.
         -5    1    3    3    0  502  0.36978617042E+01 -0.48643804694E+01 -0.12653811785E+02  0.14660413747E+02  0.41800000000E+01 0.  1.
        -11    1    1    2    0    0  0.60651359177E+02  0.28693068567E+02 -0.30630909854E+02  0.73757251795E+02  0.00000000000E+00 0. -1.
         11    1    1    2    0    0  0.52972566665E+02 -0.59957792973E+02 -0.61794300038E+02  0.10109186552E+03  0.00000000000E+00 0.  1.
</event>
<event>
 7    1  0.2420569E-009  0.1241987E+03  0.7561462E-02  0.1236327E+00
          2   -1    0    0  501    0  0.00000000000E+00  0.00000000000E+00  0.50830694121E+02  0.50830694121E+02  0.00000000000E+00 0. -1.
         -2   -1    0    0    0  501 -0.00000000000E+00 -0.00000000000E+00 -0.38506222668E+03  0.38506222668E+03  0.00000000000E+00 0.  1.
         25    2    1    2    0    0 -0.55611859532E+02  0.28471672735E+02 -0.85667551995E+02  0.16398002420E+03  0.12508878369E+03 0.  0.
          5    1    3    3  502    0 -0.95263554779E+02  0.21478492366E+02 -0.48896454631E+02  0.10929229698E+03  0.41800000000E+01 0.  1.
         -5    1    3    3    0  502  0.39651695247E+02  0.69931803690E+01 -0.36771097364E+02  0.54687727224E+02  0.41800000000E+01 0.  1.
        -11    1    1    2    0    0  0.79756505742E+02 -0.11318558433E+02 -0.18583450281E+03  0.20254301372E+03  0.00000000000E+00 0. -1.
         11    1    1    2    0    0 -0.24144646210E+02 -0.17153114302E+02 -0.62729477749E+02  0.69369882871E+02  0.00000000000E+00 0.  1.
</event>
<event>
 7    1  0.2420569E-009  0.1916024E+03  0.7561462E-02  0.1157024E+00
          1   -1    0    0  501    0  0.00000000000E+00  0.00000000000E+00  0.77855445671E+03  0.77855445671E+03  0.00000000000E+00 0. -1.
         -1   -1    0    0    0  501 -0.00000000000E+00 -0.00000000000E+00 -0.51989727670E+02  0.51989727670E+02  0.00000000000E+00 0.  1.
         25    2    1    2    0    0  0.14379866563E+03  0.88949699856E+02  0.35236023597E+03  0.41035974372E+03  0.12508908036E+03 0.  0.
          5    1    3    3  502    0  0.91284266976E+02  0.10297935751E+03  0.16328250990E+03  0.21357953064E+03  0.41800000000E+01 0.  1.
         -5    1    3    3    0  502  0.52514398655E+02 -0.14029657653E+02  0.18907772607E+03  0.19678021307E+03  0.41800000000E+01 0.  1.
        -11    1    1    2    0    0 -0.49334953862E+02  0.14006655642E+02  0.94343240781E+02  0.10738142836E+03  0.00000000000E+00 0. -1.
         11    1    1    2    0    0 -0.94463711768E+02 -0.10295635550E+03  0.27986125228E+03  0.31280301230E+03  0.00000000000E+00 0.  1.
</event>
<event>
 7    1  0.2420569E-009  0.9829436E+02  0.7561462E-02  0.1283924E+00
          4   -1    0    0  501    0  0.00000000000E+00  0.00000000000E+00  0.86132537166E+02  0.86132537166E+02  0.00000000000E+00 0. -1.
         -4   -1    0    0    0  501 -0.00000000000E+00 -0.00000000000E+00 -0.17396788208E+03  0.17396788208E+03  0.00000000000E+00 0.  1.
         25    2    1    2    0    0 -0.30089766733E+02 -0.48739143011E+02 -0.69401991317E+02  0.15408868286E+03  0.12508312301E+03 0.  0.
          5    1    3    3  502    0 -0.38423653958E+02  0.23431683818E+02  0.10097354153E+02  0.46312524773E+02  0.41800000000E+01 0. -1.
         -5    1    3    3    0  502  0.83338872249E+01 -0.72170826829E+02 -0.79499345470E+02  0.10777615809E+03  0.41800000000E+01 0. -1.
        -11    1    1    2    0    0  0.45274013725E+02  0.29197668936E+02 -0.44642195204E+02  0.69965461355E+02  0.00000000000E+00 0.  1.
         11    1    1    2    0    0 -0.15184246992E+02  0.19541474076E+02  0.26208841603E+02  0.36046275036E+02  0.00000000000E+00 0. -1.
</event>
<event>
 7    1  0.2420569E-009  0.9254570E+02  0.7561462E-02  0.1296801E+00
         -1   -1    0    0    0  501 -0.00000000000E+00  0.00000000000E+00  0.90699260235E+02  0.90699260235E+02  0.00000000000E+00 0.  1.
          1   -1    0    0  501    0  0.00000000000E+00 -0.00000000000E+00 -0.19365470099E+03  0.19365470099E+03  0.00000000000E+00 0. -1.
         25    2    1    2    0    0  0.35241841265E+02  0.64829708938E+02 -0.70769866006E+02  0.16155770008E+03  0.12509051916E+03 0.  0.
          5    1    3    3  502    0  0.20341116789E+02  0.74809824722E+01  0.34341571347E+02  0.40823302825E+02  0.41800000000E+01 0. -1.
         -5    1    3    3    0  502  0.14900724476E+02  0.57348726465E+02 -0.10511143735E+03  0.12073439725E+03  0.41800000000E+01 0. -1.
        -11    1    1    2    0    0  0.12896979250E+02 -0.52312810535E+02  0.13188718932E+02  0.55469852415E+02  0.00000000000E+00 0.  1.
         11    1    1    2    0    0 -0.48138820514E+02 -0.12516898403E+02 -0.45374293679E+02  0.67326408734E+02  0.00000000000E+00 0. -1.
</event>
<event>
 7    1  0.2420569E-009  0.1299075E+03  0.7561462E-02  0.1227593E+00
         -2   -1    0    0    0  501 -0.00000000000E+00  0.00000000000E+00  0.73785395764E+03  0.73785395764E+03  0.00000000000E+00 0.  1.
          2   -1    0    0  501    0  0.00000000000E+00 -0.00000000000E+00 -0.36775964131E+02  0.36775964131E+02  0.00000000000E+00 0. -1.
         25    2    1    2    0    0  0.22993897422E+02 -0.95052611350E+02  0.20072006376E+03  0.25592676108E+03  0.12508495033E+03 0.  0.
          5    1    3    3  502    0  0.54454927265E+02 -0.39474940693E+02  0.30302000737E+02  0.73887033333E+02  0.41800000000E+01 0.  1.
         -5    1    3    3    0  502 -0.31461029842E+02 -0.55577670658E+02  0.17041806302E+03  0.18203972775E+03  0.41800000000E+01 0.  1.
        -11    1    1    2    0    0  0.29477155623E+02  0.15985679871E+02  0.65187254615E+02  0.73306362812E+02  0.00000000000E+00 0. -1.
         11    1    1    2    0    0 -0.52471053045E+02  0.79066931479E+02  0.43517067514E+03  0.44539679788E+03  0.00000000000E+00 0.  1.
</event>
<event>
 7    1  0.2420569E-009  0.1067524E+03  0.7561462E-02  0.1266705E+00
         -3   -1    0    0    0  501 -0.00000000000E+00  0.00000000000E+00  0.13580829791E+03  0.13580829791E+03  0.00000000000E+00 0.  1.
          3   -1    0    0  501    0  0.00000000000E+00 -0.00000000000E+00 -0.13206571599E+03  0.13206571599E+03  0.00000000000E+00 0. -1.
         25    2    1    2    0    0  0.82774904091E+02  0.96364012601E+01  0.85516015089E+01  0.15054559471E+03  0.12508517587E+03 0.  0.
          5    1    3    3  502    0  0.25780835494E+02  0.49990850329E+02 -0.36641051368E+02  0.67259019029E+02  0.41800000000E+01 0. -1.
         -5    1    3    3    0  502  0.56994068597E+02 -0.40354449069E+02  0.45192652877E+02  0.83286575683E+02  0.41800000000E+01 0. -1.
        -11    1    1    2    0    0 -0.39524101509E+02  0.81888619985E+01  0.36874729747E+02  0.54671361377E+02  0.00000000000E+00 0.  1.
         11    1    1    2    0    0 -0.43250802582E+02 -0.17825263259E+02 -0.41683749343E+02  0.62657057811E+02  0.00000000000E+00 0. -1.
</event>
<event>
 7    1  0.2420569E-009  0.9671295E+02  0.7561462E-02  0.1287364E+00
         -1   -1    0    0    0  501 -0.00000000000E+00  0.00000000000E+00  0.55168143961E+02  0.55168143961E+02  0.00000000000E+00 0.  1.
          1   -1    0    0  501    0  0.00000000000E+00 -0.00000000000E+00 -0.38998821811E+03  0.38998821811E+03  0.00000000000E+00 0. -1.
         25    2    1    2    0    0  0.13613589467E+02 -0.77610124579E+02 -0.97505504638E+02  0.17709700743E+03  0.12508942941E+03 0.  0.
          5    1    3    3  502    0  0.47557006032E+02 -0.49899317321E+02  0.11490769012E+01  0.69068107470E+02  0.41800000000E+01 0. -1.
         -5    1    3    3    0  502 -0.33943416565E+02 -0.27710807258E+02 -0.98654581540E+02  0.10802889996E+03  0.41800000000E+01 0. -1.
        -11    1    1    2    0    0 -0.82473089893E+01  0.12234937651E+02  0.60964059915E+01  0.15964898086E+02  0.00000000000E+00 0.  1.
         11    1    1    2    0    0 -0.53662804776E+01  0.65375186928E+02 -0.24341097550E+03  0.25209445655E+03  0.00000000000E+00 0. -1.
</event>
<event>
 7    1  0.2420569E-009  0.1813299E+03  0.7561462E-02  0.1166522E+00
          2   -1    0    0  501    0  0.00000000000E+00  0.00000000000E+00  0.14162112780E+03  0.14162112780E+03  0.00000000000E+00 0. -1.
         -2   -1    0    0    0  501 -0.00000000000E+00 -0.00000000000E+00 -0.27269577981E+03  0.27269577981E+03  0.00000000000E+00 0.  1.
         25    2    1    2    0    0 -0.14587357310E+03  0.88952690508E+01 -0.14658484550E+03  0.24185248514E+03  0.12508909823E+03 0.  0.
          5    1    3    3  502    0 -0.91001358681E+01 -0.43688820400E+02 -0.44912655506E+02  0.63451907184E+02  0.41800000000E+01 0.  1.
         -5    1    3    3    0  502 -0.13677343723E+03  0.52584089450E+02 -0.10167219000E+03  0.17840057795E+03  0.41800000000E+01 0.  1.
        -11    1    1    2    0    0  0.55498431209E+02  0.40075150356E+02 -0.36371034053E+00  0.68456013818E+02  0.00000000000E+00 0.  1.
         11    1    1    2    0    0  0.90375141889E+02 -0.48970419407E+02  0.15873903836E+02  0.10400840866E+03  0.00000000000E+00 0. -1.
</event>
<event>
 7    1  0.2420569E-009  0.1273673E+03  0.7561462E-02  0.1231415E+00
         -1   -1    0    0    0  501 -0.00000000000E+00  0.00000000000E+00  0.27429299663E+03  0.27429299663E+03  0.00000000000E+00 0.  1.
          1   -1    0    0  501    0  0.00000000000E+00 -0.00000000000E+00 -0.62481464928E+02  0.62481464928E+02  0.00000000000E+00 0. -1.
         25    2    1    2    0    0  0.52667924288E+01 -0.70442495240E+02  0.89694904047E+02  0.16935483825E+03  0.12508397654E+03 0.  0.
          5    1    3    3  502    0  0.61157946766E+02 -0.14643552811E+02  0.52171615977E+02  0.81817345382E+02  0.41800000000E+01 0.  1.
         -5    1    3    3    0  502 -0.55891154338E+02 -0.55798942430E+02  0.37523288070E+02  0.87537492865E+02  0.41800000000E+01 0.  1.
        -11    1    1    2    0    0 -0.63840250284E+01  0.91405981757E+02  0.11006328518E+03  0.14321220625E+03  0.00000000000E+00 0.  1.
         11    1    1    2    0    0  0.11172325996E+01 -0.20963486517E+02  0.12053342479E+02  0.24207417057E+02  0.00000000000E+00 0. -1.
</event>
<event>
 7    1  0.2420569E-009  0.8522667E+02  0.7561462E-02  0.1314841E+00
          2   -1    0    0  501    0  0.00000000000E+00  0.00000000000E+00  0.31543716521E+03  0.31543716521E+03  0.00000000000E+00 0. -1.
         -2   -1    0    0    0  501 -0.00000000000E+00 -0.00000000000E+00 -0.51785499639E+02  0.51785499639E+02  0.00000000000E+00 0.  1.
         25    2    1    2    0    0 -0.21654737724E+01 -0.24317249454E+02  0.23554494131E+03  0.26781737958E+03  0.12509481016E+03 0.  0.
          5    1    3    3  502    0 -0.99374477704E+01  0.27821183465E+02  0.37553678556E+01  0.30072351177E+02  0.41800000000E+01 0. -1.
         -5    1    3    3    0  502  0.77719739980E+01 -0.52138432920E+02  0.23178957345E+03  0.23774502840E+03  0.41800000000E+01 0. -1.
        -11    1    1    2    0    0 -0.30749564926E+02  0.40667501946E+02 -0.32590448954E+01  0.51088186808E+02  0.00000000000E+00 0.  1.
         11    1    1    2    0    0  0.32915038698E+02 -0.16350252492E+02  0.31365769153E+02  0.48317098460E+02  0.00000000000E+00 0. -1.
</event>
<event>
 7    1  0.2420569E-009  0.9890779E+02  0.7561462E-02  0.1282610E+00
         -2   -1    0    0    0  501 -0.00000000000E+00  0.00000000000E+00  0.78061653422E+02  0.78061653422E+02  0.00000000000E+00 0.  1.
          2   -1    0    0  501    0  0.00000000000E+00 -0.00000000000E+00 -0.21234296312E+03  0.21234296312E+03  0.00000000000E+00 0. -1.
         25    2    1    2    0    0  0.52923993460E+02 -0.27843276800E+02 -0.11190298818E+03  0.17816344564E+03  0.12507492735E+03 0.  0.
          5    1    3    3  502    0  0.35238360558E+02 -0.77089161260E+02 -0.57154199370E+02  0.10231596036E+03  0.41800000000E+01 0. -1.
         -5    1    3    3    0  502  0.17685632902E+02  0.49245884459E+02 -0.54748788806E+02  0.75847485278E+02  0.41800000000E+01 0. -1.
        -11    1    1    2    0    0 -0.12985171149E+02  0.26935472462E+01 -0.53885437995E+02  0.55493335586E+02  0.00000000000E+00 0. -1.
         11    1    1    2    0    0 -0.39938822311E+02  0.25149729554E+02  0.31507116477E+02  0.56747835315E+02  0.00000000000E+00 0.  1.
</event>
<event>
 7    1  0.2420569E-009  0.1105542E+03  0.7561462E-02  0.1259547E+00
         -2   -1    0    0    0  501 -0.00000000000E+00  0.00000000000E+00  0.29453186407E+03  0.29453186407E+03  0.00000000000E+00 0. -1.
          2   -1    0    0  501    0  0.00000000000E+00 -0.00000000000E+00 -0.71861611434E+02  0.71861611434E+02  0.00000000000E+00 0.  1.
         25    2    1    2    0    0 -0.42584508088E+02  0.65879205156E+02  0.48974036784E+02  0.15556160625E+03  0.12508975601E+03 0.  0.
          5    1    3    3  502    0  0.20604635897E+02  0.72460875118E+02  0.52304652734E+02  0.91806200994E+02  0.41800000000E+01 0. -1.
         -5    1    3    3    0  502 -0.63189143985E+02 -0.65816699624E+01 -0.33306159493E+01  0.63755405258E+02  0.41800000000E+01 0. -1.
        -11    1    1    2    0    0  0.17076961015E+02 -0.47709005185E+02  0.17217536862E+03  0.17947737834E+03  0.00000000000E+00 0. -1.
         11    1    1    2    0    0  0.25507547073E+02 -0.18170199970E+02  0.15208472326E+01  0.31354490922E+02  0.00000000000E+00 0.  1.
</event>
<event>
 7    1  0.2420569E-009  0.9907317E+02  0.7561462E-02  0.1282257E+00
         -1   -1    0    0    0  501 -0.00000000000E+00  0.00000000000E+00  0.41035656192E+03  0.41035656192E+03  0.00000000000E+00 0.  1.
          1   -1    0    0  501    0  0.00000000000E+00 -0.00000000000E+00 -0.33509425820E+02  0.33509425820E+02  0.00000000000E+00 0. -1.
         25    2    1    2    0    0 -0.14500948231E+02 -0.11036461739E+02  0.29014295108E+03  0.31648486637E+03  0.12509059754E+03 0.  0.
          5    1    3    3  502    0 -0.13758725291E+02 -0.57024686696E+02  0.24479243753E+03  0.25175767573E+03  0.41800000000E+01 0. -1.
         -5    1    3    3    0  502 -0.74222294031E+00  0.45988224957E+02  0.45350513550E+02  0.64727190646E+02  0.41800000000E+01 0. -1.
        -11    1    1    2    0    0 -0.33763224684E+02  0.26009060057E+02  0.43461834627E+02  0.60871648698E+02  0.00000000000E+00 0. -1.
         11    1    1    2    0    0  0.48264172915E+02 -0.14972598318E+02  0.43242350395E+02  0.66509472673E+02  0.00000000000E+00 0.  1.
</event>
<event>
 7    1  0.2420569E-009  0.9086029E+02  0.7561462E-02  0.1300782E+00
          2   -1    0    0  501    0  0.00000000000E+00  0.00000000000E+00  0.28741592591E+03  0.28741592591E+03  0.00000000000E+00 0.  1.
         -2   -1    0    0    0  501 -0.00000000000E+00 -0.00000000000E+00 -0.48620056035E+02  0.48620056035E+02  0.00000000000E+00 0. -1.
         25    2    1    2    0    0  0.12298497071E+01  0.13272743104E+02  0.19995756550E+03  0.23623739706E+03  0.12508957402E+03 0.  0.
          5    1    3    3  502    0 -0.50910721271E+01  0.52163729853E+02  0.18745529715E+03  0.19468932831E+03  0.41800000000E+01 0. -1.
         -5    1    3    3    0  502  0.63209218342E+01 -0.38890986750E+02  0.12502268352E+02  0.41548068754E+02  0.41800000000E+01 0. -1.
        -11    1    1    2    0    0 -0.38083338999E+02 -0.30545449145E+02  0.97805686698E+01  0.49789805144E+02  0.00000000000E+00 0. -1.
         11    1    1    2    0    0  0.36853489292E+02  0.17272706042E+02  0.29057735705E+02  0.50008779742E+02  0.00000000000E+00 0.  1.
</event>
<event>
 7    1  0.2572609E-009  0.1142617E+03  0.7561462E-02  0.1252875E+00
         -2   -1    0    0    0  501 -0.00000000000E+00  0.00000000000E+00  0.75781541049E+02  0.75781541049E+02  0.00000000000E+00 0.  1.
          2   -1    0    0  501    0  0.00000000000E+00 -0.00000000000E+00 -0.42926918433E+03  0.42926918433E+03  0.00000000000E+00 0. -1.
         25    2    1    2    0    0  0.84349387880E+02 -0.52635518516E+02 -0.41488978960E+02  0.16508877408E+03  0.12509057082E+03 0.  0.
          5    1    3    3  502    0  0.73574983137E+02 -0.46662391082E+02  0.30142193857E+02  0.92285866392E+02  0.41800000000E+01 0.  1.
         -5    1    3    3    0  502  0.10774404743E+02 -0.59731274334E+01 -0.71631172817E+02  0.72802907690E+02  0.41800000000E+01 0.  1.
        -11    1    1    2    0    0 -0.78825230065E+02  0.35614608559E+01 -0.24012933390E+03  0.25276114792E+03  0.00000000000E+00 0. -1.
         11    1    1    2    0    0 -0.55241578144E+01  0.49074057660E+02 -0.71869330429E+02  0.87200803385E+02  0.00000000000E+00 0.  1.
</event>
<event>
 7    1  0.2420569E-009  0.1321155E+03  0.7561462E-02  0.1224350E+00
         -1   -1    0    0    0  501 -0.00000000000E+00  0.00000000000E+00  0.57122100162E+03  0.57122100162E+03  0.00000000000E+00 0.  1.
          1   -1    0    0  501    0  0.00000000000E+00 -0.00000000000E+00 -0.41241025925E+02  0.41241025925E+02  0.00000000000E+00 0. -1.
         25    2    1    2    0    0 -0.34300914445E+02  0.10101870643E+03  0.25770376036E+03  0.30568172070E+03  0.12509498185E+03 0.  0.
          5    1    3    3  502    0  0.30091436547E+02  0.69119489174E+01  0.13321844101E+03  0.13681335833E+03  0.41800000000E+01 0.  1.
         -5    1    3    3    0  502 -0.64392350992E+02  0.94106757516E+02  0.12448531935E+03  0.16886836237E+03  0.41800000000E+01 0.  1.
        -11    1    1    2    0    0  0.31896842127E+02 -0.19437439285E+02  0.21591804987E+02  0.43144276865E+02  0.00000000000E+00 0. -1.
         11    1    1    2    0    0  0.24040723179E+01 -0.81581267148E+02  0.25068441034E+03  0.26363602998E+03  0.00000000000E+00 0.  1.
</event>
<event>
 7    1  0.2420569E-009  0.1012150E+03  0.7561462E-02  0.1277762E+00
         -1   -1    0    0    0  501 -0.00000000000E+00  0.00000000000E+00  0.24601040370E+02  0.24601040370E+02  0.00000000000E+00 0.  1.
          1   -1    0    0  501    0  0.00000000000E+00 -0.00000000000E+00 -0.53693252827E+03  0.53693252827E+03  0.00000000000E+00 0. -1.
         25    2    1    2    0    0  0.16026943768E+02 -0.19842805159E+02 -0.30830944849E+03  0.33369617818E+03  0.12509126051E+03 0.  0.
          5    1    3    3  502    0  0.41966192314E+02 -0.48938462603E+02 -0.27427485728E+03  0.28178059577E+03  0.41800000000E+01 0.  1.
         -5    1    3    3    0  502 -0.25939248545E+02  0.29095657444E+02 -0.34034591215E+02  0.51915582405E+02  0.41800000000E+01 0.  1.
        -11    1    1    2    0    0  0.40003480917E+02  0.29973822327E+01 -0.57918486613E+02  0.70454338953E+02  0.00000000000E+00 0.  1.
         11    1    1    2    0    0 -0.56030424685E+02  0.16845422926E+02 -0.14610355280E+03  0.15738305151E+03  0.00000000000E+00 0. -1.
</event>
<event>
 7    1  0.2420569E-009  0.1010397E+03  0.7561462E-02  0.1278125E+00
          2   -1    0    0  501    0  0.00000000000E+00  0.00000000000E+00  0.13957431622E+03  0.13957431622E+03  0.00000000000E+00 0. -1.
         -2   -1    0    0    0  501 -0.00000000000E+00 -0.00000000000E+00 -0.10864435302E+03  0.10864435302E+03  0.00000000000E+00 0.  1.
         25    2    1    2    0    0  0.45303821470E+02  0.31927856119E+02  0.93591148970E+01  0.13713958855E+03  0.12509136453E+03 0.  0.
          5    1    3    3  502    0  0.61546833274E+02 -0.39269050295E+01 -0.40182655765E+02  0.73726192723E+02  0.41800000000E+01 0.  1.
         -5    1    3    3    0  502 -0.16243011804E+02  0.35854761149E+02  0.49541770662E+02  0.63413395823E+02  0.41800000000E+01 0.  1.
        -11    1    1    2    0    0  0.13430705315E+02  0.18778931982E+02  0.24191269328E+02  0.33440239882E+02  0.00000000000E+00 0. -1.
         11    1    1    2    0    0 -0.58734526785E+02 -0.50706788101E+02 -0.26204210259E+01  0.77638840812E+02  0.00000000000E+00 0.  1.
</event>
<event>
 7    1  0.2420569E-009  0.1201811E+03  0.7561462E-02  0.1242799E+00
         -2   -1    0    0    0  501 -0.00000000000E+00  0.00000000000E+00  0.22805359228E+03  0.22805359228E+03  0.00000000000E+00 0.  1.
          2   -1    0    0  501    0  0.00000000000E+00 -0.00000000000E+00 -0.89791022024E+02  0.89791022024E+02  0.00000000000E+00 0. -1.
         25    2    1    2    0    0 -0.56562578758E+02 -0.67201591387E+02  0.38967349757E+02  0.15773898717E+03  0.12509098498E+03 0.  0.
          5    1    3    3  502    0  0.18398426453E+02  0.37713219970E+01 -0.28470993758E+02  0.34362695632E+02  0.41800000000E+01 0.  1.
         -5    1    3    3    0  502 -0.74961005211E+02 -0.70972913384E+02  0.67438343516E+02  0.12337629153E+03  0.41800000000E+01 0.  1.
        -11    1    1    2    0    0 -0.10824391623E+02  0.45862806704E+02  0.68169345056E+02  0.82871129461E+02  0.00000000000E+00 0.  1.
         11    1    1    2    0    0  0.67386970381E+02  0.21338784683E+02  0.31125875438E+02  0.77234497672E+02  0.00000000000E+00 0. -1.
</event>
<event>
 7    1  0.2420569E-009  0.2445065E+03  0.7561462E-02  0.1116827E+00
          2   -1    0    0  501    0  0.00000000000E+00  0.00000000000E+00  0.27621544183E+04  0.27621544183E+04  0.00000000000E+00 0.  1.
         -2   -1    0    0    0  501 -0.00000000000E+00 -0.00000000000E+00 -0.23908765830E+02  0.23908765830E+02  0.00000000000E+00 0. -1.
         25    2    1    2    0    0  0.19370452842E+03  0.12554032087E+03  0.15386843268E+04  0.15609224081E+04  0.12508992799E+03 0.  0.
          5    1    3    3  502    0  0.17420184256E+03  0.82584783267E+02  0.89700371869E+03  0.91749641532E+03  0.41800000000E+01 0.  1.
         -5    1    3    3    0  502  0.19502685857E+02  0.42955537602E+02  0.64168060807E+03  0.64342599274E+03  0.41800000000E+01 0.  1.
        -11    1    1    2    0    0 -0.18706961284E+03 -0.81107690642E+02  0.96238035508E+03  0.98374257068E+03  0.00000000000E+00 0.  1.
         11    1    1    2    0    0 -0.66349155750E+01 -0.44432630228E+02  0.23718097066E+03  0.24139820541E+03  0.00000000000E+00 0. -1.
</event>
<event>
 7    1  0.2452911E-009  0.9973840E+02  0.7561462E-02  0.1280847E+00
         -1   -1    0    0    0  501 -0.00000000000E+00  0.00000000000E+00  0.23880764171E+02  0.23880764171E+02  0.00000000000E+00 0.  1.
          1   -1    0    0  501    0  0.00000000000E+00 -0.00000000000E+00 -0.74175705721E+03  0.74175705721E+03  0.00000000000E+00 0. -1.
         25    2    1    2    0    0 -0.16272153120E+02 -0.73200166242E+02 -0.34721100944E+03  0.37659693310E+03  0.12508684039E+03 0.  0.
          5    1    3    3  502    0 -0.10869716006E+02 -0.79873376806E+02 -0.35513218935E+03  0.36418985620E+03  0.41800000000E+01 0.  1.
         -5    1    3    3    0  502 -0.54024371144E+01  0.66732105636E+01  0.79211799084E+01  0.12407076898E+02  0.41800000000E+01 0.  1.
        -11    1    1    2    0    0  0.48595951263E+02  0.40952109039E+02 -0.13789017849E+03  0.15182998070E+03  0.00000000000E+00 0.  1.
         11    1    1    2    0    0 -0.32323798143E+02  0.32248057203E+02 -0.23277510511E+03  0.23721090758E+03  0.00000000000E+00 0. -1.
</event>
<event>
 7    1  0.2420569E-009  0.1142734E+03  0.7561462E-02  0.1252855E+00
         -2   -1    0    0    0  501 -0.00000000000E+00  0.00000000000E+00  0.17374448628E+02  0.17374448628E+02  0.00000000000E+00 0.  1.
          2   -1    0    0  501    0  0.00000000000E+00 -0.00000000000E+00 -0.11825147162E+04  0.11825147162E+04  0.00000000000E+00 0. -1.
         25    2    1    2    0    0  0.56232547355E+02 -0.66889773457E+02 -0.77371597474E+03  0.78861958056E+03  0.12509233426E+03 0.  0.
          5    1    3    3  502    0  0.40137000199E+01 -0.59332674328E+02 -0.66538378329E+03  0.66804904573E+03  0.41800000000E+01 0.  1.
         -5    1    3    3    0  502  0.52218847335E+02 -0.75570991290E+01 -0.10833219145E+03  0.12057053483E+03  0.41800000000E+01 0.  1.
        -11    1    1    2    0    0  0.18855329906E+02  0.75976846424E+01 -0.23327994815E+02  0.30942585863E+02  0.00000000000E+00 0.  1.
         11    1    1    2    0    0 -0.75087877261E+02  0.59292088814E+02 -0.36809629802E+03  0.38032699842E+03  0.00000000000E+00 0. -1.
</event>
<event>
 7    1  0.2420569E-009  0.1060677E+03  0.7561462E-02  0.1268030E+00
         -2   -1    0    0    0  501 -0.00000000000E+00  0.00000000000E+00  0.42055139390E+02  0.42055139390E+02  0.00000000000E+00 0.  1.
          2   -1    0    0  501    0  0.00000000000E+00 -0.00000000000E+00 -0.39056090847E+03  0.39056090847E+03  0.00000000000E+00 0. -1.
         25    2    1    2    0    0  0.63248016051E+02  0.27644445410E+02 -0.17481770588E+03  0.22577355687E+03  0.12509173351E+03 0.  0.
          5    1    3    3  502    0  0.39258265861E+02 -0.25329874532E+02 -0.15840511996E+03  0.16520432322E+03  0.41800000000E+01 0. -1.
         -5    1    3    3    0  502  0.23989750191E+02  0.52974319942E+02 -0.16412585927E+02  0.60569233645E+02  0.41800000000E+01 0. -1.
        -11    1    1    2    0    0 -0.69495770667E+02  0.87083525679E+01 -0.80983420636E+02  0.10706919241E+03  0.00000000000E+00 0.  1.
         11    1    1    2    0    0  0.62477546162E+01 -0.36352797978E+02 -0.92704642561E+02  0.99773298588E+02  0.00000000000E+00 0. -1.
</event>
<event>
 7    1  0.2420569E-009  0.1101105E+03  0.7561462E-02  0.1260365E+00
         -3   -1    0    0    0  501 -0.00000000000E+00  0.00000000000E+00  0.17871667969E+03  0.17871667969E+03  0.00000000000E+00 0.  1.
          3   -1    0    0  501    0  0.00000000000E+00 -0.00000000000E+00 -0.98198128543E+02  0.98198128543E+02  0.00000000000E+00 0. -1.
         25    2    1    2    0    0  0.74659193653E+02 -0.13584029814E+02  0.35742879590E+02  0.15061086802E+03  0.12509020370E+03 0.  0.
          5    1    3    3  502    0  0.60025149295E+02 -0.56982857786E+02  0.56351001775E+02  0.10021463182E+03  0.41800000000E+01 0.  1.
         -5    1    3    3    0  502  0.14634044358E+02  0.43398827972E+02 -0.20608122185E+02  0.50396236205E+02  0.41800000000E+01 0.  1.
        -11    1    1    2    0    0 -0.71598039515E+02  0.27809522093E+02  0.65524756961E+02  0.10096109427E+03  0.00000000000E+00 0.  1.
         11    1    1    2    0    0 -0.30611541376E+01 -0.14225492279E+02 -0.20749085404E+02  0.25342845940E+02  0.00000000000E+00 0. -1.
</event>
<event>
 7    1  0.2420569E-009  0.4561653E+02  0.7561462E-02  0.1470529E+00
         -1   -1    0    0    0  501 -0.00000000000E+00  0.00000000000E+00  0.64894868752E+02  0.64894868752E+02  0.00000000000E+00 0.  1.
          1   -1    0    0  501    0  0.00000000000E+00 -0.00000000000E+00 -0.15421032290E+03  0.15421032290E+03  0.00000000000E+00 0. -1.
         25    2    1    2    0    0 -0.32483915577E+00 -0.28696760233E+02 -0.63494314268E+02  0.14318821436E+03  0.12509087584E+03 0.  0.
          5    1    3    3  502    0  0.14084461587E+02  0.69447661216E+01  0.34338702601E+02  0.37989745077E+02  0.41800000000E+01 0. -1.
         -5    1    3    3    0  502 -0.14409300743E+02 -0.35641526354E+02 -0.97833016869E+02  0.10519846928E+03  0.41800000000E+01 0. -1.
        -11    1    1    2    0    0 -0.96175310729E+01  0.22817221121E+02 -0.46242849195E+02  0.52454967213E+02  0.00000000000E+00 0. -1.
         11    1    1    2    0    0  0.99423702287E+01  0.58795391121E+01  0.20421709314E+02  0.23462010085E+02  0.00000000000E+00 0.  1.
</event>
<event>
 7    1  0.2420569E-009  0.1491653E+03  0.7561462E-02  0.1201502E+00
         -2   -1    0    0    0  501 -0.00000000000E+00  0.00000000000E+00  0.23254088108E+02  0.23254088108E+02  0.00000000000E+00 0.  1.
          2   -1    0    0  501    0  0.00000000000E+00 -0.00000000000E+00 -0.10715948000E+04  0.10715948000E+04  0.00000000000E+00 0. -1.
         25    2    1    2    0    0 -0.11097930201E+03  0.18793210784E+02 -0.63975003930E+03  0.66151023339E+03  0.12508431497E+03 0.  0.
          5    1    3    3  502    0 -0.12348225100E+03 -0.18928913566E+02 -0.53473765085E+03  0.54915207158E+03  0.41800000000E+01 0. -1.
         -5    1    3    3    0  502  0.12502948981E+02  0.37722124349E+02 -0.10501238845E+03  0.11235816181E+03  0.41800000000E+01 0. -1.
        -11    1    1    2    0    0 -0.16732324194E+01 -0.20641156897E+02 -0.20173114635E+02  0.28910406757E+02  0.00000000000E+00 0.  1.
         11    1    1    2    0    0  0.11265253443E+03  0.18479461133E+01 -0.38841755798E+03  0.40442824799E+03  0.00000000000E+00 0. -1.
</event>
<event>
 7    1  0.2420569E-009  0.1253716E+03  0.7561462E-02  0.1234490E+00
         -2   -1    0    0    0  501 -0.00000000000E+00  0.00000000000E+00  0.15341511627E+02  0.15341511627E+02  0.00000000000E+00 0.  1.
          2   -1    0    0  501    0  0.00000000000E+00 -0.00000000000E+00 -0.14804394194E+04  0.14804394194E+04  0.00000000000E+00 0. -1.
         25    2    1    2    0    0  0.23155829069E+01 -0.84462983215E+02 -0.10684177958E+04  0.10790286467E+04  0.12508747553E+03 0.  0.
          5    1    3    3  502    0 -0.17489735495E+02 -0.98115610465E+02 -0.48763053573E+03  0.49772841555E+03  0.41800000000E+01 0.  1.
         -5    1    3    3    0  502  0.19805318402E+02  0.13652627249E+02 -0.58078726009E+03  0.58130023116E+03  0.41800000000E+01 0.  1.
        -11    1    1    2    0    0  0.42435477509E+02  0.17201201736E+02 -0.11711484001E+03  0.12574790990E+03  0.00000000000E+00 0.  1.
         11    1    1    2    0    0 -0.44751060415E+02  0.67261781480E+02 -0.27956527193E+03  0.29100437441E+03  0.00000000000E+00 0. -1.
</event>
<event>
 7    1  0.2420569E-009  0.1277590E+03  0.7561462E-02  0.1230819E+00
         -1   -1    0    0    0  501 -0.00000000000E+00  0.00000000000E+00  0.18113369751E+03  0.18113369751E+03  0.00000000000E+00 0.  1.
          1   -1    0    0  501    0  0.00000000000E+00 -0.00000000000E+00 -0.11391605542E+03  0.11391605542E+03  0.00000000000E+00 0. -1.
         25    2    1    2    0    0 -0.74840748283E+02  0.55956957180E+02  0.34717227571E+02  0.15995438676E+03  0.12509117193E+03 0.  0.
          5    1    3    3  502    0  0.33818681810E+02  0.52023542173E+00  0.70125406657E+01  0.34793993890E+02  0.41800000000E+01 0. -1.
         -5    1    3    3    0  502 -0.10865943009E+03  0.55436721758E+02  0.27704686906E+02  0.12516039287E+03  0.41800000000E+01 0. -1.
        -11    1    1    2    0    0  0.50890385069E+02 -0.55676967282E+02 -0.19442632425E+02  0.77895904473E+02  0.00000000000E+00 0. -1.
         11    1    1    2    0    0  0.23950363214E+02 -0.27998989842E+00  0.51943046943E+02  0.57199461695E+02  0.00000000000E+00 0.  1.
</event>
<event>
 7    1  0.2420569E-009  0.1849133E+03  0.7561462E-02  0.1163131E+00
          1   -1    0    0  501    0  0.00000000000E+00  0.00000000000E+00  0.62583384888E+03  0.62583384888E+03  0.00000000000E+00 0. -1.
         -1   -1    0    0    0  501 -0.00000000000E+00 -0.00000000000E+00 -0.66017371326E+02  0.66017371326E+02  0.00000000000E+00 0.  1.
         25    2    1    2    0    0 -0.15861180174E+03 -0.60614603543E+02  0.33053575559E+03  0.39208788671E+03  0.12508873395E+03 0.  0.
          5    1    3    3  502    0 -0.55220916220E+02 -0.58062390189E+02  0.24502437756E+03  0.25782747864E+03  0.41800000000E+01 0. -1.
         -5    1    3    3    0  502 -0.10339088552E+03 -0.25522133534E+01  0.85511378034E+02  0.13426040807E+03  0.41800000000E+01 0. -1.
        -11    1    1    2    0    0  0.28129103246E+02  0.47154467503E+02  0.34218344779E+02  0.64696872988E+02  0.00000000000E+00 0.  1.
         11    1    1    2    0    0  0.13048269849E+03  0.13460136039E+02  0.19506237718E+03  0.23506646052E+03  0.00000000000E+00 0. -1.
</event>
<event>
 7    1  0.2420569E-009  0.3682689E+03  0.7561462E-02  0.1055357E+00
         -1   -1    0    0    0  501 -0.00000000000E+00  0.00000000000E+00  0.17844956980E+03  0.17844956980E+03  0.00000000000E+00 0.  1.
          1   -1    0    0  501    0  0.00000000000E+00 -0.00000000000E+00 -0.92156908234E+03  0.92156908234E+03  0.00000000000E+00 0. -1.
         25    2    1    2    0    0 -0.86805719223E+02  0.34968826841E+03 -0.57972101747E+03  0.69393199110E+03  0.12509209495E+03 0.  0.
          5    1    3    3  502    0  0.25653891957E+02  0.68794546680E+02 -0.16409128317E+03  0.17981722231E+03  0.41800000000E+01 0. -1.
         -5    1    3    3    0  502 -0.11245961118E+03  0.28089372173E+03 -0.41562973430E+03  0.51411476879E+03  0.41800000000E+01 0. -1.
        -11    1    1    2    0    0  0.11120362576E+02 -0.57590334828E+02 -0.67603230581E+02  0.89501429678E+02  0.00000000000E+00 0. -1.
         11    1    1    2    0    0  0.75685356647E+02 -0.29209793358E+03 -0.95795264491E+02  0.31658523136E+03  0.00000000000E+00 0.  1.
</event>
<event>
 7    1  0.2976154E-009  0.1584513E+03  0.7561462E-02  0.1190456E+00
          2   -1    0    0  501    0  0.00000000000E+00  0.00000000000E+00  0.20207185211E+04  0.20207185211E+04  0.00000000000E+00 0.  1.
         -2   -1    0    0    0  501 -0.00000000000E+00 -0.00000000000E+00 -0.16038613287E+02  0.16038613287E+02  0.00000000000E+00 0. -1.
         25    2    1    2    0    0 -0.10472552509E+03  0.82123110520E+02  0.13568641990E+04  0.13691016053E+04  0.12508840983E+03 0.  0.
          5    1    3    3  502    0  0.11383103739E+02 -0.13203417121E+02  0.41855735745E+02  0.45533287704E+02  0.41800000000E+01 0.  1.
         -5    1    3    3    0  502 -0.11610862883E+03  0.95326527642E+02  0.13150084633E+04  0.13235683176E+04  0.41800000000E+01 0.  1.
        -11    1    1    2    0    0  0.89887925577E+02 -0.30413786501E+02  0.52598182523E+03  0.53447330901E+03  0.00000000000E+00 0.  1.
         11    1    1    2    0    0  0.14837599515E+02 -0.51709324019E+02  0.12183388357E+03  0.13318222004E+03  0.00000000000E+00 0. -1.
</event>
<event>
 7    1  0.2420569E-009  0.1185152E+03  0.7561462E-02  0.1245567E+00
          2   -1    0    0  501    0  0.00000000000E+00  0.00000000000E+00  0.27327703436E+03  0.27327703436E+03  0.00000000000E+00 0. -1.
         -2   -1    0    0    0  501 -0.00000000000E+00 -0.00000000000E+00 -0.69945801797E+02  0.69945801797E+02  0.00000000000E+00 0.  1.
         25    2    1    2    0    0  0.58087443821E+02 -0.47436984301E+02  0.16470553996E+03  0.22000375213E+03  0.12509723199E+03 0.  0.
          5    1    3    3  502    0  0.53137572709E+02 -0.85444681071E+02  0.86277990179E+02  0.13261130852E+03  0.41800000000E+01 0. -1.
         -5    1    3    3    0  502  0.49498711120E+01  0.38007696770E+02  0.78427549777E+02  0.87392443620E+02  0.41800000000E+01 0. -1.
        -11    1    1    2    0    0 -0.29602711652E+00  0.39422000872E+02 -0.16699395193E+02  0.42814151686E+02  0.00000000000E+00 0.  1.
         11    1    1    2    0    0 -0.57791416704E+02  0.80149834292E+01  0.55325087800E+02  0.80404932337E+02  0.00000000000E+00 0. -1.
</event>
<event>
 7    1  0.2420569E-009  0.2265365E+03  0.7561462E-02  0.1129102E+00
         -1   -1    0    0    0  501 -0.00000000000E+00  0.00000000000E+00  0.16526593286E+03  0.16526593286E+03  0.00000000000E+00 0.  1.
          1   -1    0    0  501    0  0.00000000000E+00 -0.00000000000E+00 -0.43807558739E+03  0.43807558739E+03  0.00000000000E+00 0. -1.
         25    2    1    2    0    0  0.20350673831E+03 -0.92563564693E+02 -0.24438600458E+02  0.25734964261E+03  0.12509431368E+03 0.  0.
          5    1    3    3  502    0  0.46820873778E+02 -0.76260780277E+00  0.42879123880E+02  0.63630711585E+02  0.41800000000E+01 0. -1.
         -5    1    3    3    0  502  0.15668586453E+03 -0.91800956890E+02 -0.67317724338E+02  0.19371893103E+03  0.41800000000E+01 0. -1.
        -11    1    1    2    0    0 -0.95873448611E+02  0.54291255242E+02 -0.59385809676E+02  0.12516362465E+03  0.00000000000E+00 0. -1.
         11    1    1    2    0    0 -0.10763328970E+03  0.38272309451E+02 -0.18898524440E+03  0.22082825300E+03  0.00000000000E+00 0.  1.
</event>
<event>
 7    1  0.2420569E-009  0.1129859E+03  0.7561462E-02  0.1255138E+00
          2   -1    0    0  501    0  0.00000000000E+00  0.00000000000E+00  0.16497195939E+03  0.16497195939E+03  0.00000000000E+00 0. -1.
         -2   -1    0    0    0  501 -0.00000000000E+00 -0.00000000000E+00 -0.15492372440E+03  0.15492372440E+03  0.00000000000E+00 0.  1.
         25    2    1    2    0    0  0.53020200657E+02  0.52239765176E+02  0.96167944960E+02  0.17445892214E+03  0.12508999614E+03 0.  0.
          5    1    3    3  502    0 -0.35081145241E+02  0.82879388226E+01 -0.67357037577E+00  0.36294665977E+02  0.41800000000E+01 0. -1.
         -5    1    3    3    0  502  0.88101345898E+02  0.43951826354E+02  0.96841515336E+02  0.13816425616E+03  0.41800000000E+01 0. -1.
        -11    1    1    2    0    0 -0.55659941861E+01 -0.42287240300E+02 -0.87053947394E+02  0.96941119966E+02  0.00000000000E+00 0.  1.
         11    1    1    2    0    0 -0.47454206471E+02 -0.99525248763E+01  0.93423742712E+00  0.48495641689E+02  0.00000000000E+00 0. -1.
</event>
<event>
 7    1  0.2420569E-009  0.1124741E+03  0.7561462E-02  0.1256056E+00
          2   -1    0    0  501    0  0.00000000000E+00  0.00000000000E+00  0.65944223038E+03  0.65944223038E+03  0.00000000000E+00 0. -1.
         -2   -1    0    0    0  501 -0.00000000000E+00 -0.00000000000E+00 -0.35024947098E+02  0.35024947098E+02  0.00000000000E+00 0.  1.
         25    2    1    2    0    0 -0.87020349146E+01  0.80100424893E+02  0.49134900880E+03  0.51338321783E+03  0.12508667561E+03 0.  0.
          5    1    3    3  502    0  0.49144111295E+02  0.39265835858E+02  0.12243816230E+03  0.13771537869E+03  0.41800000000E+01 0. -1.
         -5    1    3    3    0  502 -0.57846146209E+02  0.40834589035E+02  0.36891084650E+03  0.37566783914E+03  0.41800000000E+01 0. -1.
        -11    1    1    2    0    0  0.23960061274E+02 -0.28853831679E+02 -0.18245762125E+00  0.37505485326E+02  0.00000000000E+00 0.  1.
         11    1    1    2    0    0 -0.15258026359E+02 -0.51246593215E+02  0.13325073210E+03  0.14357847432E+03  0.00000000000E+00 0. -1.
</event>
<event>
 7    1  0.7082712E-009  0.1271393E+03  0.7561462E-02  0.1231763E+00
         -1   -1    0    0    0  501 -0.00000000000E+00  0.00000000000E+00  0.32981320016E+02  0.32981320016E+02  0.00000000000E+00 0.  1.
          1   -1    0    0  501    0  0.00000000000E+00 -0.00000000000E+00 -0.75698609171E+03  0.75698609171E+03  0.00000000000E+00 0. -1.
         25    2    1    2    0    0 -0.11325382045E+03  0.96920504410E+01 -0.42136815061E+03  0.45400300739E+03  0.12508896308E+03 0.  0.
          5    1    3    3  502    0 -0.65115500845E+02  0.27554112651E+01 -0.39120969746E+03  0.39662339887E+03  0.41800000000E+01 0.  1.
         -5    1    3    3    0  502 -0.48138319609E+02  0.69366391760E+01 -0.30158453144E+02  0.57379608520E+02  0.41800000000E+01 0.  1.
        -11    1    1    2    0    0  0.43765190140E+02 -0.44518821489E+02 -0.89708049918E+02  0.10929250457E+03  0.00000000000E+00 0.  1.
         11    1    1    2    0    0  0.69488630314E+02  0.34826771048E+02 -0.21292857117E+03  0.22667189977E+03  0.00000000000E+00 0. -1.
</event>
<event>
 7    1  0.2420569E-009  0.6767592E+02  0.7561462E-02  0.1368179E+00
          1   -1    0    0  501    0  0.00000000000E+00  0.00000000000E+00  0.52322770230E+02  0.52322770230E+02  0.00000000000E+00 0. -1.
         -1   -1    0    0    0  501 -0.00000000000E+00 -0.00000000000E+00 -0.22631199722E+03  0.22631199722E+03  0.00000000000E+00 0.  1.
         25    2    1    2    0    0 -0.13123945868E+02 -0.12427406271E+02 -0.68947105215E+02  0.14396543049E+03  0.12508262660E+03 0.  0.
          5    1    3    3  502    0  0.17372176735E+02 -0.31973943487E+02 -0.93222999046E+02  0.10016049889E+03  0.41800000000E+01 0. -1.
         -5    1    3    3    0  502 -0.30496122603E+02  0.19546537216E+02  0.24275893831E+02  0.43804931598E+02  0.41800000000E+01 0. -1.
        -11    1    1    2    0    0 -0.11612968803E+01 -0.23535816451E+02 -0.91263891444E+00  0.23582115601E+02  0.00000000000E+00 0. -1.
         11    1    1    2    0    0  0.14285242749E+02  0.35963222722E+02 -0.10412948286E+03  0.11108722136E+03  0.00000000000E+00 0.  1.
</event>
<event>
 7    1  0.2420569E-009  0.6766950E+02  0.7561462E-02  0.1368202E+00
          2   -1    0    0  501    0  0.00000000000E+00  0.00000000000E+00  0.74753563541E+02  0.74753563541E+02  0.00000000000E+00 0.  1.
         -2   -1    0    0    0  501 -0.00000000000E+00 -0.00000000000E+00 -0.16456643107E+03  0.16456643107E+03  0.00000000000E+00 0. -1.
         25    2    1    2    0    0 -0.48648424084E+01  0.40863417419E+01 -0.76492073949E+02  0.14674908160E+03  0.12507553994E+03 0.  0.
          5    1    3    3  502    0  0.25159220398E+02 -0.34428536824E+02 -0.86677059423E+02  0.96688652639E+02  0.41800000000E+01 0. -1.
         -5    1    3    3    0  502 -0.30024062806E+02  0.38514878566E+02  0.10184985474E+02  0.50060428958E+02  0.41800000000E+01 0. -1.
        -11    1    1    2    0    0 -0.58664825827E+01  0.17995841744E+02 -0.47129296276E+02  0.50788153200E+02  0.00000000000E+00 0. -1.
         11    1    1    2    0    0  0.10731324991E+02 -0.22082183486E+02  0.33808502693E+02  0.41782759817E+02  0.00000000000E+00 0.  1.
</event>
<event>
 7    1  0.2420569E-009  0.1193966E+03  0.7561462E-02  0.1244096E+00
         -1   -1    0    0    0  501 -0.00000000000E+00  0.00000000000E+00  0.43342376594E+02  0.43342376594E+02  0.00000000000E+00 0.  1.
          1   -1    0    0  501    0  0.00000000000E+00 -0.00000000000E+00 -0.40621706047E+03  0.40621706047E+03  0.00000000000E+00 0. -1.
         25    2    1    2    0    0 -0.38564398274E+02 -0.36497814780E+02 -0.11081697446E+03  0.17534467495E+03  0.12508417129E+03 0.  0.
          5    1    3    3  502    0 -0.49301998723E+02 -0.77600214669E+02 -0.86043509457E+02  0.12598983417E+03  0.41800000000E+01 0.  1.
         -5    1    3    3    0  502  0.10737600450E+02  0.41102399889E+02 -0.24773465002E+02  0.49354840778E+02  0.41800000000E+01 0.  1.
        -11    1    1    2    0    0 -0.23034724208E+02  0.35679665421E+02 -0.14049006058E+03  0.14676884603E+03  0.00000000000E+00 0. -1.
         11    1    1    2    0    0  0.61599122482E+02  0.81814935917E+00 -0.11156764883E+03  0.12744591608E+03  0.00000000000E+00 0.  1.
</event>
<event>
 7    1  0.2420569E-009  0.9470628E+02  0.7561462E-02  0.1291839E+00
          1   -1    0    0  501    0  0.00000000000E+00  0.00000000000E+00  0.17545371243E+04  0.17545371243E+04  0.00000000000E+00 0. -1.
         -1   -1    0    0    0  501 -0.00000000000E+00 -0.00000000000E+00 -0.10805860881E+02  0.10805860881E+02  0.00000000000E+00 0.  1.
         25    2    1    2    0    0  0.41471882728E+02 -0.19022286832E+02  0.14150473665E+04  0.14212986801E+04  0.12509645987E+03 0.  0.
          5    1    3    3  502    0  0.57709239318E+01  0.31009693093E+02  0.10292367774E+03  0.10772957100E+03  0.41800000000E+01 0.  1.
         -5    1    3    3    0  502  0.35700958796E+02 -0.50031979926E+02  0.13121236887E+04  0.13135691091E+04  0.41800000000E+01 0.  1.
        -11    1    1    2    0    0 -0.48223004619E+02  0.46922226476E+02  0.17085379559E+03  0.18362508810E+03  0.00000000000E+00 0. -1.
         11    1    1    2    0    0  0.67511218910E+01 -0.27899939643E+02  0.15783010133E+03  0.16041921694E+03  0.00000000000E+00 0.  1.
</event>
<event>
 7    1  0.2420569E-009  0.2876444E+03  0.7561462E-02  0.1091585E+00
         -2   -1    0    0    0  501 -0.00000000000E+00  0.00000000000E+00  0.78411355360E+02  0.78411355360E+02  0.00000000000E+00 0. -1.
          2   -1    0    0  501    0  0.00000000000E+00 -0.00000000000E+00 -0.11945466059E+04  0.11945466059E+04  0.00000000000E+00 0.  1.
         25    2    1    2    0    0 -0.27019485356E+03 -0.59904440568E+02 -0.41993695157E+03  0.51825491742E+03  0.12508922911E+03 0.  0.
          5    1    3    3  502    0 -0.13945763013E+03 -0.82726686625E+02 -0.16833314859E+03  0.23376410459E+03  0.41800000000E+01 0. -1.
         -5    1    3    3    0  502 -0.13073722343E+03  0.22822246057E+02 -0.25160380299E+03  0.28449081282E+03  0.41800000000E+01 0. -1.
        -11    1    1    2    0    0  0.62110941034E+02  0.33455916627E+02 -0.97677731970E+02  0.12049069124E+03  0.00000000000E+00 0. -1.
         11    1    1    2    0    0  0.20808391253E+03  0.26448523941E+02 -0.59852056702E+03  0.63421235262E+03  0.00000000000E+00 0.  1.
</event>
<event>
 7    1  0.2420569E-009  0.1070280E+03  0.7561462E-02  0.1266175E+00
         -1   -1    0    0    0  501 -0.00000000000E+00  0.00000000000E+00  0.24904234131E+02  0.24904234131E+02  0.00000000000E+00 0.  1.
          1   -1    0    0  501    0  0.00000000000E+00 -0.00000000000E+00 -0.64694429490E+03  0.64694429490E+03  0.00000000000E+00 0. -1.
         25    2    1    2    0    0 -0.49876728246E+02 -0.29137320867E+02 -0.26211442320E+03  0.29612208210E+03  0.12509054789E+03 0.  0.
          5    1    3    3  502    0  0.25735950889E+02 -0.11735972235E+02 -0.70001610177E+01  0.29437168116E+02  0.41800000000E+01 0. -1.
         -5    1    3    3    0  502 -0.75612679134E+02 -0.17401348632E+02 -0.25511426218E+03  0.26668491399E+03  0.41800000000E+01 0. -1.
        -11    1    1    2    0    0 -0.25143279772E+02 -0.45046661023E+01 -0.90402627480E+02  0.93942065070E+02  0.00000000000E+00 0.  1.
         11    1    1    2    0    0  0.75020008018E+02  0.33641986969E+02 -0.26952301009E+03  0.28178438186E+03  0.00000000000E+00 0. -1.
</event>
<event>
 7    1  0.2420569E-009  0.1749714E+03  0.7561462E-02  0.1172760E+00
         -2   -1    0    0    0  501 -0.00000000000E+00  0.00000000000E+00  0.19053126578E+03  0.19053126578E+03  0.00000000000E+00 0.  1.
          2   -1    0    0  501    0  0.00000000000E+00 -0.00000000000E+00 -0.21559629299E+03  0.21559629299E+03  0.00000000000E+00 0. -1.
         25    2    1    2    0    0  0.12375932184E+03 -0.10811143678E+03 -0.56098394468E+02  0.21400664435E+03  0.12508941385E+03 0.  0.
          5    1    3    3  502    0  0.82267337494E+02 -0.52382326506E+02  0.31083421405E+02  0.10244742278E+03  0.41800000000E+01 0.  1.
         -5    1    3    3    0  502  0.41491984347E+02 -0.55729110275E+02 -0.87181815873E+02  0.11155922156E+03  0.41800000000E+01 0.  1.
        -11    1    1    2    0    0 -0.83667115311E+02  0.20159782419E+02  0.40279223065E+02  0.95021149342E+02  0.00000000000E+00 0. -1.
         11    1    1    2    0    0 -0.40092206530E+02  0.87951654362E+02 -0.92458558108E+01  0.97099765083E+02  0.00000000000E+00 0.  1.
</event>
<event>
 7    1  0.2420569E-009  0.1196853E+03  0.7561462E-02  0.1243617E+00
         -1   -1    0    0    0  501 -0.00000000000E+00  0.00000000000E+00  0.11254703985E+03  0.11254703985E+03  0.00000000000E+00 0.  1.
          1   -1    0    0  501    0  0.00000000000E+00 -0.00000000000E+00 -0.16537610044E+03  0.16537610044E+03  0.00000000000E+00 0. -1.
         25    2    1    2    0    0 -0.77590517806E+02 -0.13034152927E+02 -0.50626742346E+02  0.15620738409E+03  0.12508997645E+03 0.  0.
          5    1    3    3  502    0 -0.21888993034E+02  0.54759663031E+02 -0.12390983073E+02  0.60404946592E+02  0.41800000000E+01 0. -1.
         -5    1    3    3    0  502 -0.55701524772E+02 -0.67793815957E+02 -0.38235759274E+02  0.95802437501E+02  0.41800000000E+01 0. -1.
        -11    1    1    2    0    0  0.40054794524E+02  0.31138989586E+02  0.38326388612E+02  0.63584080561E+02  0.00000000000E+00 0.  1.
         11    1    1    2    0    0  0.37535723282E+02 -0.18104836659E+02 -0.40528706853E+02  0.58131675634E+02  0.00000000000E+00 0. -1.
</event>
<event>
 7    1  0.2420569E-009  0.8291389E+02  0.7561462E-02  0.1320980E+00
          1   -1    0    0  501    0  0.00000000000E+00  0.00000000000E+00  0.10143964257E+04  0.10143964257E+04  0.00000000000E+00 0. -1.
         -1   -1    0    0    0  501 -0.00000000000E+00 -0.00000000000E+00 -0.18481780437E+02  0.18481780437E+02  0.00000000000E+00 0.  1.
         25    2    1    2    0    0 -0.83562805450E+01  0.32811866172E+02  0.83841470218E+03  0.84837098310E+03  0.12509063176E+03 0.  0.
          5    1    3    3  502    0 -0.23045155816E+02 -0.28171577996E+02  0.87917892215E+02  0.95245709536E+02  0.41800000000E+01 0.  1.
         -5    1    3    3    0  502  0.14688875271E+02  0.60983444169E+02  0.75049680996E+03  0.75312527356E+03  0.41800000000E+01 0.  1.
        -11    1    1    2    0    0 -0.24625301268E+02 -0.15147931435E+02  0.14044422201E+03  0.14338913761E+03  0.00000000000E+00 0. -1.
         11    1    1    2    0    0  0.32981581813E+02 -0.17663934738E+02  0.17055721112E+02  0.41118085461E+02  0.00000000000E+00 0.  1.
</event>
<event>
 7    1  0.2420569E-009  0.1444066E+03  0.7561462E-02  0.1207520E+00
          2   -1    0    0  501    0  0.00000000000E+00  0.00000000000E+00  0.17727902274E+03  0.17727902274E+03  0.00000000000E+00 0.  1.
         -2   -1    0    0    0  501 -0.00000000000E+00 -0.00000000000E+00 -0.13371716995E+03  0.13371716995E+03  0.00000000000E+00 0. -1.
         25    2    1    2    0    0 -0.30852072929E+01 -0.10878388055E+03  0.16239866800E+02  0.16658737351E+03  0.12507665077E+03 0.  0.
          5    1    3    3  502    0 -0.20061862539E+02  0.15428015703E+02  0.31055335674E+02  0.40279129470E+02  0.41800000000E+01 0.  1.
         -5    1    3    3    0  502  0.16976655246E+02 -0.12421189625E+03 -0.14815468874E+02  0.12630824404E+03  0.41800000000E+01 0.  1.
        -11    1    1    2    0    0 -0.40158705651E+02  0.41545508667E+02 -0.53864674423E+01  0.58032447488E+02  0.00000000000E+00 0.  1.
         11    1    1    2    0    0  0.43243912944E+02  0.67238371881E+02  0.32708453435E+02  0.86376371688E+02  0.00000000000E+00 0. -1.
</event>
<event>
 7    1  0.2420569E-009  0.1230266E+03  0.7561462E-02  0.1238186E+00
          3   -1    0    0  501    0  0.00000000000E+00  0.00000000000E+00  0.61103938884E+02  0.61103938884E+02  0.00000000000E+00 0. -1.
         -3   -1    0    0    0  501 -0.00000000000E+00 -0.00000000000E+00 -0.29717631686E+03  0.29717631686E+03  0.00000000000E+00 0.  1.
         25    2    1    2    0    0 -0.66955923214E+02  0.39807758055E+02 -0.14363739018E+03  0.20578760911E+03  0.12509631070E+03 0.  0.
          5    1    3    3  502    0 -0.61656667441E+02  0.80533814010E+02 -0.77049540005E+02  0.12744153112E+03  0.41800000000E+01 0. -1.
         -5    1    3    3    0  502 -0.52992557726E+01 -0.40726055955E+02 -0.66587850180E+02  0.78346077994E+02  0.41800000000E+01 0. -1.
        -11    1    1    2    0    0  0.52597786521E+02 -0.59161154693E+02 -0.28447617452E+02  0.84117990408E+02  0.00000000000E+00 0. -1.
         11    1    1    2    0    0  0.14358136693E+02  0.19353396639E+02 -0.63987370338E+02  0.68374656222E+02  0.00000000000E+00 0.  1.
</event>
<event>
 7    1  0.2420569E-009  0.1656780E+03  0.7561462E-02  0.1182431E+00
         -1   -1    0    0    0  501 -0.00000000000E+00  0.00000000000E+00  0.12297969850E+03  0.12297969850E+03  0.00000000000E+00 0.  1.
          1   -1    0    0  501    0  0.00000000000E+00 -0.00000000000E+00 -0.23925311034E+03  0.23925311034E+03  0.00000000000E+00 0. -1.
         25    2    1    2    0    0 -0.39460954324E+02 -0.12710726579E+03 -0.54907079067E+02  0.19072350521E+03  0.12508894505E+03 0.  0.
          5    1    3    3  502    0  0.38157175275E+02 -0.35567474856E+02  0.11380083723E+02  0.53553655320E+02  0.41800000000E+01 0.  1.
         -5    1    3    3    0  502 -0.77618129600E+02 -0.91539790935E+02 -0.66287162790E+02  0.13716984989E+03  0.41800000000E+01 0.  1.
        -11    1    1    2    0    0  0.21950214758E+02 -0.74983704743E+01 -0.16800477551E+02  0.28640766988E+02  0.00000000000E+00 0. -1.
         11    1    1    2    0    0  0.17510739566E+02  0.13460563626E+03 -0.44565855223E+02  0.14286853666E+03  0.00000000000E+00 0.  1.
</event>
<event>
 7    1  0.2420569E-009  0.8110328E+02  0.7561462E-02  0.1325949E+00
          2   -1    0    0  501    0  0.00000000000E+00  0.00000000000E+00  0.42147411610E+02  0.42147411610E+02  0.00000000000E+00 0. -1.
         -2   -1    0    0    0  501 -0.00000000000E+00 -0.00000000000E+00 -0.33624414864E+03  0.33624414864E+03  0.00000000000E+00 0.  1.
         25    2    1    2    0    0 -0.29328168959E+02  0.26691643274E+02 -0.12532299877E+03  0.18145712546E+03  0.12509296161E+03 0.  0.
          5    1    3    3  502    0 -0.47331750153E+02  0.26460464931E+02  0.39434871402E+00  0.54388221958E+02  0.41800000000E+01 0. -1.
         -5    1    3    3    0  502  0.18003581193E+02  0.23117834304E+00 -0.12571734748E+03  0.12706890350E+03  0.41800000000E+01 0. -1.
        -11    1    1    2    0    0  0.38602278226E+02  0.18779979291E+02 -0.12852458293E+03  0.13550421367E+03  0.00000000000E+00 0.  1.
         11    1    1    2    0    0 -0.92741092662E+01 -0.45471622564E+02 -0.40249155334E+02  0.61430221116E+02  0.00000000000E+00 0. -1.
</event>
<event>
 7    1  0.2420569E-009  0.8844892E+02  0.7561462E-02  0.1306652E+00
          1   -1    0    0  501    0  0.00000000000E+00  0.00000000000E+00  0.16863211982E+03  0.16863211982E+03  0.00000000000E+00 0. -1.
         -1   -1    0    0    0  501 -0.00000000000E+00 -0.00000000000E+00 -0.88988846102E+02  0.88988846102E+02  0.00000000000E+00 0.  1.
         25    2    1    2    0    0  0.48955757037E+02  0.44376220012E+01  0.27331894369E+02  0.13713690729E+03  0.12507253998E+03 0.  0.
          5    1    3    3  502    0  0.68907811205E+02  0.13732353436E+02 -0.29294266538E+02  0.76239690634E+02  0.41800000000E+01 0.  1.
         -5    1    3    3    0  502 -0.19952054168E+02 -0.92947314349E+01  0.56626160907E+02  0.60897216661E+02  0.41800000000E+01 0.  1.
        -11    1    1    2    0    0  0.35796892343E+00  0.26100496318E+02 -0.16196143893E+02  0.30719360781E+02  0.00000000000E+00 0.  1.
         11    1    1    2    0    0 -0.49313725961E+02 -0.30538118319E+02  0.68507523240E+02  0.89764697844E+02  0.00000000000E+00 0. -1.
</event>
<event>
 7    1  0.2420569E-009  0.8198341E+02  0.7561462E-02  0.1323515E+00
         -2   -1    0    0    0  501 -0.00000000000E+00  0.00000000000E+00  0.12901362281E+03  0.12901362281E+03  0.00000000000E+00 0.  1.
          2   -1    0    0  501    0  0.00000000000E+00 -0.00000000000E+00 -0.12066867428E+03  0.12066867428E+03  0.00000000000E+00 0. -1.
         25    2    1    2    0    0  0.50704321054E+02 -0.19001146434E+02  0.32515857570E+02  0.14013547111E+03  0.12509475420E+03 0.  0.
          5    1    3    3  502    0 -0.32110456376E+01  0.16193092329E+02 -0.39758021223E+02  0.43251586154E+02  0.41800000000E+01 0.  1.
         -5    1    3    3    0  502  0.53915366692E+02 -0.35194238763E+02  0.72273878793E+02  0.96883884952E+02  0.41800000000E+01 0.  1.
        -11    1    1    2    0    0  0.54720827946E+01  0.25302652480E+02  0.23982224499E+02  0.35289021020E+02  0.00000000000E+00 0.  1.
         11    1    1    2    0    0 -0.56176403849E+02 -0.63015060458E+01 -0.48153133543E+02  0.74257804963E+02  0.00000000000E+00 0. -1.
</event>
<event>
 7    1  0.2420569E-009  0.9856146E+02  0.7561462E-02  0.1283350E+00
         -2   -1    0    0    0  501 -0.00000000000E+00  0.00000000000E+00  0.12436298293E+02  0.12436298293E+02  0.00000000000E+00 0.  1.
          2   -1    0    0  501    0  0.00000000000E+00 -0.00000000000E+00 -0.13844733013E+04  0.13844733013E+04  0.00000000000E+00 0. -1.
         25    2    1    2    0    0  0.35165084357E+02 -0.16740491013E+02 -0.10911300001E+04  0.10989669794E+04  0.12508764002E+03 0.  0.
          5    1    3    3  502    0  0.41388489731E+02  0.33059369582E+02 -0.21786786850E+03  0.22425389522E+03  0.41800000000E+01 0. -1.
         -5    1    3    3    0  502 -0.62234053745E+01 -0.49799860595E+02 -0.87326213156E+03  0.87471308422E+03  0.41800000000E+01 0. -1.
        -11    1    1    2    0    0  0.27135970302E+02  0.15629646047E+02 -0.14628519935E+03  0.14959948619E+03  0.00000000000E+00 0. -1.
         11    1    1    2    0    0 -0.62301054659E+02  0.11108449656E+01 -0.13462180361E+03  0.14834313397E+03  0.00000000000E+00 0.  1.
</event>
<event>
 7    1  0.2420569E-009  0.1174100E+03  0.7561462E-02  0.1247432E+00
          1   -1    0    0  501    0  0.00000000000E+00  0.00000000000E+00  0.15865575447E+03  0.15865575447E+03  0.00000000000E+00 0. -1.
         -1   -1    0    0    0  501 -0.00000000000E+00 -0.00000000000E+00 -0.12470984569E+03  0.12470984569E+03  0.00000000000E+00 0.  1.
         25    2    1    2    0    0  0.38574187239E+02  0.75895570071E+02 -0.13126469721E+02  0.15187514972E+03  0.12508257839E+03 0.  0.
          5    1    3    3  502    0 -0.44967169060E+02  0.26033835584E+02 -0.15766041889E+02  0.54459593878E+02  0.41800000000E+01 0.  1.
         -5    1    3    3    0  502  0.83541356299E+02  0.49861734487E+02  0.26395721678E+01  0.97415555840E+02  0.41800000000E+01 0.  1.
        -11    1    1    2    0    0 -0.14224989096E+02 -0.22381732012E+02  0.64854566318E+02  0.70067160745E+02  0.00000000000E+00 0. -1.
         11    1    1    2    0    0 -0.24349198144E+02 -0.53513838059E+02 -0.17782187821E+02  0.61423289702E+02  0.00000000000E+00 0.  1.
</event>
<event>
 7    1  0.2420569E-009  0.1151094E+03  0.7561462E-02  0.1251390E+00
         -2   -1    0    0    0  501 -0.00000000000E+00  0.00000000000E+00  0.94283957850E+02  0.94283957850E+02  0.00000000000E+00 0. -1.
          2   -1    0    0  501    0  0.00000000000E+00 -0.00000000000E+00 -0.25033323550E+03  0.25033323550E+03  0.00000000000E+00 0.  1.
         25    2    1    2    0    0 -0.58326827178E+02 -0.48093097763E+02 -0.17251585814E+03  0.22610683800E+03  0.12509043152E+03 0.  0.
          5    1    3    3  502    0  0.30516433283E+01  0.38402927810E+02 -0.60006208419E+02  0.71430489570E+02  0.41800000000E+01 0. -1.
         -5    1    3    3    0  502 -0.61378470506E+02 -0.86496025573E+02 -0.11250964973E+03  0.15467634843E+03  0.41800000000E+01 0. -1.
        -11    1    1    2    0    0  0.27829781637E+02  0.47226363526E+02 -0.30329286581E+02  0.62647360538E+02  0.00000000000E+00 0.  1.
         11    1    1    2    0    0  0.30497045541E+02  0.86673423633E+00  0.46795867072E+02  0.55862994818E+02  0.00000000000E+00 0. -1.
</event>
<event>
 7    1  0.2420569E-009  0.9922846E+02  0.7561462E-02  0.1281927E+00
          2   -1    0    0  501    0  0.00000000000E+00  0.00000000000E+00  0.85927089130E+02  0.85927089130E+02  0.00000000000E+00 0. -1.
         -2   -1    0    0    0  501 -0.00000000000E+00 -0.00000000000E+00 -0.16149410345E+03  0.16149410345E+03  0.00000000000E+00 0.  1.
         25    2    1    2    0    0 -0.10674251390E+02  0.40026593411E+02 -0.56437817240E+02  0.14335159192E+03  0.12509350050E+03 0.  0.
          5    1    3    3  502    0 -0.88004166927E+00  0.85061026407E+02 -0.31685260184E+02  0.90871231969E+02  0.41800000000E+01 0. -1.
         -5    1    3    3    0  502 -0.97942097212E+01 -0.45034432995E+02 -0.24752557056E+02  0.52480359946E+02  0.41800000000E+01 0. -1.
        -11    1    1    2    0    0 -0.10949000234E+02  0.85163929757E+01 -0.43462408760E+02  0.45622259158E+02  0.00000000000E+00 0.  1.
         11    1    1    2    0    0  0.21623251624E+02 -0.48542986387E+02  0.24333211682E+02  0.58447341504E+02  0.00000000000E+00 0. -1.
</event>
<event>
 7    1  0.2420569E-009  0.1061138E+03  0.7561462E-02  0.1267940E+00
         -2   -1    0    0    0  501 -0.00000000000E+00  0.00000000000E+00  0.19707563093E+02  0.19707563093E+02  0.00000000000E+00 0.  1.
          2   -1    0    0  501    0  0.00000000000E+00 -0.00000000000E+00 -0.87980429089E+03  0.87980429089E+03  0.00000000000E+00 0. -1.
         25    2    1    2    0    0  0.62046984576E+02  0.40261910299E+02 -0.44236043554E+03  0.46561985746E+03  0.12509295351E+03 0.  0.
          5    1    3    3  502    0  0.44323018546E+02 -0.96861536392E+01 -0.42712964540E+02  0.62451751658E+02  0.41800000000E+01 0.  1.
         -5    1    3    3    0  502  0.17723966029E+02  0.49948063938E+02 -0.39964747100E+03  0.40316810580E+03  0.41800000000E+01 0.  1.
        -11    1    1    2    0    0 -0.21143751757E+02  0.27295714536E+02 -0.81625776237E+02  0.88627770009E+02  0.00000000000E+00 0.  1.
         11    1    1    2    0    0 -0.40903232819E+02 -0.67557624835E+02 -0.33611051602E+03  0.34526422651E+03  0.00000000000E+00 0. -1.
</event>
<event>
 7    1  0.2420569E-009  0.1643862E+03  0.7561462E-02  0.1183832E+00
          1   -1    0    0  501    0  0.00000000000E+00  0.00000000000E+00  0.17709108146E+04  0.17709108146E+04  0.00000000000E+00 0. -1.
         -1   -1    0    0    0  501 -0.00000000000E+00 -0.00000000000E+00 -0.22841621067E+02  0.22841621067E+02  0.00000000000E+00 0.  1.
         25    2    1    2    0    0  0.12436547150E+03 -0.31288229056E+02  0.14041463210E+04  0.14155281292E+04  0.12508904801E+03 0.  0.
          5    1    3    3  502    0  0.14785578822E+03 -0.34525678975E+02  0.11011187036E+04  0.11115454235E+04  0.41800000000E+01 0.  1.
         -5    1    3    3    0  502 -0.23490316717E+02  0.32374499187E+01  0.30302761741E+03  0.30398270572E+03  0.41800000000E+01 0.  1.
        -11    1    1    2    0    0 -0.12163508977E+03  0.23976410089E+00  0.23085353106E+03  0.26093774230E+03  0.00000000000E+00 0. -1.
         11    1    1    2    0    0 -0.27303817343E+01  0.31048464955E+02  0.11306934147E+03  0.11728656420E+03  0.00000000000E+00 0.  1.
</event>
<event>
 7    1  0.2420569E-009  0.1059647E+03  0.7561462E-02  0.1268230E+00
          2   -1    0    0  501    0  0.00000000000E+00  0.00000000000E+00  0.54542363181E+03  0.54542363181E+03  0.00000000000E+00 0. -1.
         -2   -1    0    0    0  501 -0.00000000000E+00 -0.00000000000E+00 -0.29411352976E+02  0.29411352976E+02  0.00000000000E+00 0.  1.
         25    2    1    2    0    0 -0.46223591152E+02 -0.21739852140E+02  0.37804001241E+03  0.40145790810E+03  0.12507981229E+03 0.  0.
          5    1    3    3  502    0  0.40129275884E+02 -0.67064641891E+01  0.18411329939E+03  0.18860147098E+03  0.41800000000E+01 0. -1.
         -5    1    3    3    0  502 -0.86352867036E+02 -0.15033387951E+02  0.19392671302E+03  0.21285643712E+03  0.41800000000E+01 0. -1.
        -11    1    1    2    0    0  0.51572986585E+02 -0.87609206819E+01  0.28422033251E+02  0.59534348494E+02  0.00000000000E+00 0.  1.
         11    1    1    2    0    0 -0.53493954330E+01  0.30500772821E+02  0.10955023317E+03  0.11384272819E+03  0.00000000000E+00 0. -1.
</event>
<event>
 7    1  0.2420569E-009  0.9796202E+02  0.7561462E-02  0.1284641E+00
          1   -1    0    0  501    0  0.00000000000E+00  0.00000000000E+00  0.33122813707E+03  0.33122813707E+03  0.00000000000E+00 0. -1.
         -1   -1    0    0    0  501 -0.00000000000E+00 -0.00000000000E+00 -0.59323145653E+02  0.59323145653E+02  0.00000000000E+00 0.  1.
         25    2    1    2    0    0  0.13162776652E+02  0.67545170266E+02  0.69430516661E+02  0.15875461595E+03  0.12508726044E+03 0.  0.
          5    1    3    3  502    0  0.72152110344E+01 -0.25181401125E+02  0.59586409642E+02  0.65224035806E+02  0.41800000000E+01 0.  1.
         -5    1    3    3    0  502  0.59475656177E+01  0.92726571391E+02  0.98441070195E+01  0.93530580142E+02  0.41800000000E+01 0.  1.
        -11    1    1    2    0    0  0.74183070384E+01 -0.45988446962E+02  0.19578609234E+03  0.20125149065E+03  0.00000000000E+00 0. -1.
         11    1    1    2    0    0 -0.20581083691E+02 -0.21556723304E+02  0.66883824162E+01  0.30545176130E+02  0.00000000000E+00 0.  1.
</event>
<event>
 7    1  0.2420569E-009  0.7767235E+02  0.7561462E-02  0.1335790E+00
          2   -1    0    0  501    0  0.00000000000E+00  0.00000000000E+00  0.90780346088E+03  0.90780346088E+03  0.00000000000E+00 0. -1.
         -2   -1    0    0    0  501 -0.00000000000E+00 -0.00000000000E+00 -0.29082999950E+02  0.29082999950E+02  0.00000000000E+00 0.  1.
         25    2    1    2    0    0  0.97158734563E+01  0.37510035037E+02  0.80330551560E+03  0.81390970833E+03  0.12509141059E+03 0.  0.
          5    1    3    3  502    0 -0.12566804485E+02  0.50308933024E+02  0.12890390812E+03  0.13900576695E+03  0.41800000000E+01 0. -1.
         -5    1    3    3    0  502  0.22282677941E+02 -0.12798897987E+02  0.67440160747E+03  0.67490394138E+03  0.41800000000E+01 0. -1.
        -11    1    1    2    0    0 -0.34543889962E+02 -0.39386011802E+02  0.81922945651E+02  0.97241489517E+02  0.00000000000E+00 0. -1.
         11    1    1    2    0    0  0.24828016506E+02  0.18759767643E+01 -0.65080003186E+01  0.25735262979E+02  0.00000000000E+00 0.  1.
</event>
<event>
 7    1  0.2420569E-009  0.1338777E+03  0.7561462E-02  0.1221813E+00
          1   -1    0    0  501    0  0.00000000000E+00  0.00000000000E+00  0.62843333309E+03  0.62843333309E+03  0.00000000000E+00 0. -1.
         -1   -1    0    0    0  501 -0.00000000000E+00 -0.00000000000E+00 -0.29771168721E+02  0.29771168721E+02  0.00000000000E+00 0.  1.
         25    2    1    2    0    0  0.53240300166E+02  0.60156113948E+02  0.38141367946E+03  0.40936185394E+03  0.12508974768E+03 0.  0.
          5    1    3    3  502    0 -0.20755746718E+02 -0.25807058149E+02  0.11576639223E+03  0.12048292511E+03  0.41800000000E+01 0. -1.
         -5    1    3    3    0  502  0.73996046884E+02  0.85963172097E+02  0.26564728723E+03  0.28887892884E+03  0.41800000000E+01 0. -1.
        -11    1    1    2    0    0  0.24442241734E+02 -0.34257321471E+01  0.53763480914E+02  0.59158014687E+02  0.00000000000E+00 0. -1.
         11    1    1    2    0    0 -0.77682541900E+02 -0.56730381801E+02  0.16348500399E+03  0.18968463318E+03  0.00000000000E+00 0.  1.
</event>
<event>
 7    1  0.2420569E-009  0.1210428E+03  0.7561462E-02  0.1241387E+00
          2   -1    0    0  501    0  0.00000000000E+00  0.00000000000E+00  0.70186798588E+03  0.70186798588E+03  0.00000000000E+00 0. -1.
         -2   -1    0    0    0  501 -0.00000000000E+00 -0.00000000000E+00 -0.29014211107E+02  0.29014211107E+02  0.00000000000E+00 0.  1.
         25    2    1    2    0    0  0.90849112546E+02 -0.86371129571E+01  0.40799632026E+03  0.43639064984E+03  0.12509053101E+03 0.  0.
          5    1    3    3  502    0  0.16085997123E+02  0.28572396346E+02  0.28940008292E+03  0.29128168760E+03  0.41800000000E+01 0. -1.
         -5    1    3    3    0  502  0.74763115423E+02 -0.37209509303E+02  0.11859623734E+03  0.14510896224E+03  0.41800000000E+01 0. -1.
        -11    1    1    2    0    0 -0.84993174086E+02  0.39698252681E+02  0.16561219798E+03  0.19033441892E+03  0.00000000000E+00 0.  1.
         11    1    1    2    0    0 -0.58559384595E+01 -0.31061139724E+02  0.99245256536E+02  0.10415712823E+03  0.00000000000E+00 0. -1.
</event>
<event>
 7    1  0.2420569E-009  0.1669532E+03  0.7561462E-02  0.1181063E+00
          1   -1    0    0  501    0  0.00000000000E+00  0.00000000000E+00  0.18010543748E+03  0.18010543748E+03  0.00000000000E+00 0. -1.
         -1   -1    0    0    0  501 -0.00000000000E+00 -0.00000000000E+00 -0.21187328766E+03  0.21187328766E+03  0.00000000000E+00 0.  1.
         25    2    1    2    0    0 -0.53633910280E+02 -0.14014661850E+03 -0.76267699435E+02  0.20971455276E+03  0.12508301505E+03 0.  0.
          5    1    3    3  502    0  0.66664598888E+01 -0.41743361843E+02 -0.83834153061E+02  0.93981846996E+02  0.41800000000E+01 0.  1.
         -5    1    3    3    0  502 -0.60300370168E+02 -0.98403256661E+02  0.75664536256E+01  0.11573270577E+03  0.41800000000E+01 0.  1.
        -11    1    1    2    0    0 -0.29942555752E+01  0.11318363942E+03  0.36906895680E+02  0.11908661028E+03  0.00000000000E+00 0. -1.
         11    1    1    2    0    0  0.56628165855E+02  0.26962979083E+02  0.75929535760E+01  0.63177562102E+02  0.00000000000E+00 0.  1.
</event>
<event>
 7    1  0.2420569E-009  0.1110194E+03  0.7561462E-02  0.1258694E+00
          2   -1    0    0  501    0  0.00000000000E+00  0.00000000000E+00  0.96624632271E+03  0.96624632271E+03  0.00000000000E+00 0. -1.
         -2   -1    0    0    0  501 -0.00000000000E+00 -0.00000000000E+00 -0.14809755211E+02  0.14809755211E+02  0.00000000000E+00 0.  1.
         25    2    1    2    0    0 -0.16898018446E+02 -0.22547613442E+02  0.70654478147E+03  0.71808557885E+03  0.12508969755E+03 0.  0.
          5    1    3    3  502    0 -0.26421597460E+02 -0.72420846160E+02  0.41359882548E+03  0.42074260613E+03  0.41800000000E+01 0.  1.
         -5    1    3    3    0  502  0.95235790134E+01  0.49873232717E+02  0.29294595599E+03  0.29734297273E+03  0.41800000000E+01 0.  1.
        -11    1    1    2    0    0 -0.18536761790E+02  0.47208770202E+02  0.15807493793E+03  0.16601194391E+03  0.00000000000E+00 0.  1.
         11    1    1    2    0    0  0.35434780236E+02 -0.24661156760E+02  0.86816848103E+02  0.96958555155E+02  0.00000000000E+00 0. -1.
</event>
<event>
 7    1  0.2420569E-009  0.9259670E+02  0.7561462E-02  0.1296683E+00
         -1   -1    0    0    0  501 -0.00000000000E+00  0.00000000000E+00  0.13596648603E+03  0.13596648603E+03  0.00000000000E+00 0.  1.
          1   -1    0    0  501    0  0.00000000000E+00 -0.00000000000E+00 -0.13148327987E+03  0.13148327987E+03  0.00000000000E+00 0. -1.
         25    2    1    2    0    0 -0.57744303633E+02  0.35686340069E+02  0.41289234437E+02  0.14819340327E+03  0.12509422218E+03 0.  0.
          5    1    3    3  502    0 -0.48940854861E+02  0.16909664997E+02 -0.39130943327E+02  0.65037275239E+02  0.41800000000E+01 0. -1.
         -5    1    3    3    0  502 -0.88034487721E+01  0.18776675072E+02  0.80420177764E+02  0.83156128028E+02  0.41800000000E+01 0. -1.
        -11    1    1    2    0    0  0.52458900015E+02 -0.64304508020E+02 -0.18987126989E+02  0.85132349514E+02  0.00000000000E+00 0.  1.
         11    1    1    2    0    0  0.52854036181E+01  0.28618167951E+02 -0.17818901292E+02  0.34124013121E+02  0.00000000000E+00 0. -1.
</event>
<event>
 7    1  0.2420569E-009  0.1674528E+03  0.7561462E-02  0.1180531E+00
          2   -1    0    0  501    0  0.00000000000E+00  0.00000000000E+00  0.31793502084E+03  0.31793502084E+03  0.00000000000E+00 0. -1.
         -2   -1    0    0    0  501 -0.00000000000E+00 -0.00000000000E+00 -0.10079717835E+03  0.10079717835E+03  0.00000000000E+00 0.  1.
         25    2    1    2    0    0  0.13301830871E+03  0.19905861429E+02  0.16613388415E+03  0.24766619877E+03  0.12509182539E+03 0.  0.
          5    1    3    3  502    0 -0.21459753015E+02 -0.11817652649E+02  0.14101534128E+02  0.28574526739E+02  0.41800000000E+01 0.  1.
         -5    1    3    3    0  502  0.15447806172E+03  0.31723514077E+02  0.15203235003E+03  0.21909167203E+03  0.41800000000E+01 0.  1.
        -11    1    1    2    0    0 -0.10234365586E+03 -0.45827268178E+02  0.82965326908E+01  0.11244196218E+03  0.00000000000E+00 0.  1.
         11    1    1    2    0    0 -0.30674652846E+02  0.25921406749E+02  0.42707425649E+02  0.58624038249E+02  0.00000000000E+00 0. -1.
</event>
<event>
 7    1  0.2420569E-009  0.1103188E+03  0.7561462E-02  0.1259981E+00
          2   -1    0    0  501    0  0.00000000000E+00  0.00000000000E+00  0.19073344286E+04  0.19073344286E+04  0.00000000000E+00 0. -1.
         -2   -1    0    0    0  501 -0.00000000000E+00 -0.00000000000E+00 -0.10969266996E+02  0.10969266996E+02  0.00000000000E+00 0.  1.
         25    2    1    2    0    0 -0.83246973495E+02 -0.39189825609E+02  0.12400638745E+04  0.12497485831E+04  0.12508879702E+03 0.  0.
          5    1    3    3  502    0 -0.21379304038E+02 -0.16341168720E+02  0.43233723651E+02  0.51095358860E+02  0.41800000000E+01 0. -1.
         -5    1    3    3    0  502 -0.61867669457E+02 -0.22848656890E+02  0.11968301509E+04  0.11986532243E+04  0.41800000000E+01 0. -1.
        -11    1    1    2    0    0 -0.21500947100E+01  0.41828270142E+02  0.20402234926E+03  0.20827708969E+03  0.00000000000E+00 0.  1.
         11    1    1    2    0    0  0.85397068205E+02 -0.26384445324E+01  0.45227893782E+03  0.46027802277E+03  0.00000000000E+00 0. -1.
</event>
<event>
 7    1  0.2420569E-009  0.1412643E+03  0.7561462E-02  0.1211638E+00
          2   -1    0    0  501    0  0.00000000000E+00  0.00000000000E+00  0.63226049578E+03  0.63226049578E+03  0.00000000000E+00 0. -1.
         -2   -1    0    0    0  501 -0.00000000000E+00 -0.00000000000E+00 -0.50554818378E+02  0.50554818378E+02  0.00000000000E+00 0.  1.
         25    2    1    2    0    0 -0.60127531760E+02  0.86837237349E+02  0.12616950613E+03  0.20670111558E+03  0.12510228230E+03 0.  0.
          5    1    3    3  502    0  0.38578285615E+01  0.98372107930E+02  0.73713927675E+02  0.12305758812E+03  0.41800000000E+01 0. -1.
         -5    1    3    3    0  502 -0.63985360322E+02 -0.11534870581E+02  0.52455578456E+02  0.83643527460E+02  0.41800000000E+01 0. -1.
        -11    1    1    2    0    0  0.37726275698E+02 -0.88672951997E+02  0.43540238678E+03  0.44593878807E+03  0.00000000000E+00 0. -1.
         11    1    1    2    0    0  0.22401256063E+02  0.18357146485E+01  0.20133784494E+02  0.30175410511E+02  0.00000000000E+00 0.  1.
</event>
<event>
 7    1  0.2420569E-009  0.1613876E+03  0.7561462E-02  0.1187139E+00
         -2   -1    0    0    0  501 -0.00000000000E+00  0.00000000000E+00  0.67174388935E+03  0.67174388935E+03  0.00000000000E+00 0.  1.
          2   -1    0    0  501    0  0.00000000000E+00 -0.00000000000E+00 -0.59159548701E+02  0.59159548701E+02  0.00000000000E+00 0. -1.
         25    2    1    2    0    0  0.74781716916E+02 -0.13885648034E+03  0.41582532150E+03  0.46198691128E+03  0.12509109034E+03 0.  0.
          5    1    3    3  502    0  0.60891169410E+02 -0.69711850735E+02  0.92100561590E+02  0.13064249879E+03  0.41800000000E+01 0.  1.
         -5    1    3    3    0  502  0.13890547506E+02 -0.69144629601E+02  0.32372475991E+03  0.33134441249E+03  0.41800000000E+01 0.  1.
        -11    1    1    2    0    0 -0.48702487504E+02  0.65544770879E+02  0.16646588393E+03  0.18541558670E+03  0.00000000000E+00 0.  1.
         11    1    1    2    0    0 -0.26079229412E+02  0.73311709457E+02  0.30293135216E+02  0.83500940063E+02  0.00000000000E+00 0. -1.
</event>
<event>
 7    1  0.2420569E-009  0.8796898E+02  0.7561462E-02  0.1307846E+00
          2   -1    0    0  501    0  0.00000000000E+00  0.00000000000E+00  0.39315729151E+03  0.39315729151E+03  0.00000000000E+00 0. -1.
         -2   -1    0    0    0  501 -0.00000000000E+00 -0.00000000000E+00 -0.29877643845E+02  0.29877643845E+02  0.00000000000E+00 0.  1.
         25    2    1    2    0    0 -0.24161883336E+02 -0.19652052477E+02  0.27395705250E+03  0.30277170091E+03  0.12509291139E+03 0.  0.
          5    1    3    3  502    0  0.32475295227E+02  0.11320196467E+02  0.20621393215E+03  0.20910392120E+03  0.41800000000E+01 0. -1.
         -5    1    3    3    0  502 -0.56637178563E+02 -0.30972248945E+02  0.67743120354E+02  0.93667779708E+02  0.41800000000E+01 0. -1.
        -11    1    1    2    0    0  0.48945764440E+02  0.16339108709E+02  0.41195324266E+02  0.66028093047E+02  0.00000000000E+00 0.  1.
         11    1    1    2    0    0 -0.24783881104E+02  0.33129437688E+01  0.48127270899E+02  0.54235141404E+02  0.00000000000E+00 0. -1.
</event>
<event>
 7    1  0.2420569E-009  0.1020505E+03  0.7561462E-02  0.1276042E+00
          2   -1    0    0  501    0  0.00000000000E+00  0.00000000000E+00  0.16494863734E+04  0.16494863734E+04  0.00000000000E+00 0. -1.
         -2   -1    0    0    0  501 -0.00000000000E+00 -0.00000000000E+00 -0.86454676675E+01  0.86454676675E+01  0.00000000000E+00 0.  1.
         25    2    1    2    0    0  0.25434286583E+02  0.22629181495E+02  0.11890961464E+04  0.11961424846E+04  0.12509282711E+03 0.  0.
          5    1    3    3  502    0 -0.32954099701E+02  0.34854866945E+02  0.87990456096E+03  0.88122093894E+03  0.41800000000E+01 0.  1.
         -5    1    3    3    0  502  0.58388386283E+02 -0.12225685450E+02  0.30919158540E+03  0.31492154566E+03  0.41800000000E+01 0.  1.
        -11    1    1    2    0    0  0.25089696600E+02 -0.36007079088E+02  0.23202337487E+03  0.23613735221E+03  0.00000000000E+00 0.  1.
         11    1    1    2    0    0 -0.50523983182E+02  0.13377897593E+02  0.21972138450E+03  0.22585200425E+03  0.00000000000E+00 0. -1.
</event>
<event>
 7    1  0.2420569E-009  0.2316783E+03  0.7561462E-02  0.1125464E+00
          1   -1    0    0  501    0  0.00000000000E+00  0.00000000000E+00  0.56861733465E+03  0.56861733465E+03  0.00000000000E+00 0. -1.
         -1   -1    0    0    0  501 -0.00000000000E+00 -0.00000000000E+00 -0.12024576825E+03  0.12024576825E+03  0.00000000000E+00 0.  1.
         25    2    1    2    0    0 -0.75861745020E+02 -0.19404850175E+03  0.38144165664E+03  0.45227796648E+03  0.12509115139E+03 0.  0.
          5    1    3    3  502    0 -0.80952328463E+02 -0.42952438620E+02  0.14807029653E+03  0.17418517900E+03  0.41800000000E+01 0.  1.
         -5    1    3    3    0  502  0.50905834432E+01 -0.15109606313E+03  0.23337136011E+03  0.27809278749E+03  0.41800000000E+01 0.  1.
        -11    1    1    2    0    0  0.45929356228E+02  0.32954156316E+02  0.42936656694E+02  0.70986186474E+02  0.00000000000E+00 0. -1.
         11    1    1    2    0    0  0.29932388792E+02  0.16109434543E+03  0.23993253060E+02  0.16559894994E+03  0.00000000000E+00 0.  1.
</event>
<event>
 7    1  0.2420569E-009  0.7285911E+02  0.7561462E-02  0.1350632E+00
         -2   -1    0    0    0  501 -0.00000000000E+00  0.00000000000E+00  0.19180219182E+02  0.19180219182E+02  0.00000000000E+00 0.  1.
          2   -1    0    0  501    0  0.00000000000E+00 -0.00000000000E+00 -0.12662503910E+04  0.12662503910E+04  0.00000000000E+00 0. -1.
         25    2    1    2    0    0  0.52283122396E+02 -0.36144682501E+01 -0.10718807056E+04  0.10804270428E+04  0.12509100109E+03 0.  0.
          5    1    3    3  502    0 -0.19648056620E+02 -0.53003123839E+01 -0.76169743019E+03  0.76198069989E+03  0.41800000000E+01 0.  1.
         -5    1    3    3    0  502  0.71931179015E+02  0.16858441338E+01 -0.31018327540E+03  0.31844634293E+03  0.41800000000E+01 0.  1.
        -11    1    1    2    0    0 -0.41844357322E+02  0.63188632897E-01 -0.18534699453E+03  0.19001174336E+03  0.00000000000E+00 0. -1.
         11    1    1    2    0    0 -0.10438765074E+02  0.35512796172E+01  0.10157528358E+02  0.14991823956E+02  0.00000000000E+00 0.  1.
</event>
<event>
 7    1  0.2420569E-009  0.2277465E+03  0.7561462E-02  0.1128236E+00
          2   -1    0    0  501    0  0.00000000000E+00  0.00000000000E+00  0.12791271259E+03  0.12791271259E+03  0.00000000000E+00 0. -1.
         -2   -1    0    0    0  501 -0.00000000000E+00 -0.00000000000E+00 -0.79655878039E+03  0.79655878039E+03  0.00000000000E+00 0.  1.
         25    2    1    2    0    0 -0.10196851585E+03  0.19054897308E+03 -0.39407039759E+02  0.25279893597E+03  0.12509155798E+03 0.  0.
          5    1    3    3  502    0 -0.89054390124E+02  0.11343676537E+03  0.30920657324E+02  0.14755386673E+03  0.41800000000E+01 0.  1.
         -5    1    3    3    0  502 -0.12914125723E+02  0.77112207707E+02 -0.70327697083E+02  0.10524506923E+03  0.41800000000E+01 0.  1.
        -11    1    1    2    0    0  0.27273919334E+02 -0.14022323904E+03 -0.34172141271E+03  0.37037811402E+03  0.00000000000E+00 0. -1.
         11    1    1    2    0    0  0.74694596512E+02 -0.50325734044E+02 -0.28751761533E+03  0.30129444299E+03  0.00000000000E+00 0.  1.
</event>
<event>
 7    1  0.2420569E-009  0.1022082E+03  0.7561462E-02  0.1275720E+00
         -2   -1    0    0    0  501 -0.00000000000E+00  0.00000000000E+00  0.14912885097E+03  0.14912885097E+03  0.00000000000E+00 0.  1.
          2   -1    0    0  501    0  0.00000000000E+00 -0.00000000000E+00 -0.93548954612E+02  0.93548954612E+02  0.00000000000E+00 0. -1.
         25    2    1    2    0    0  0.18879270248E+02  0.23188722622E+02  0.68070855312E+02  0.14552294663E+03  0.12509653453E+03 0.  0.
          5    1    3    3  502    0 -0.32843555426E+02 -0.27219415602E+02  0.58540102826E+02  0.72553509616E+02  0.41800000000E+01 0. -1.
         -5    1    3    3    0  502  0.51722825674E+02  0.50408138224E+02  0.95307524865E+01  0.72969437012E+02  0.41800000000E+01 0. -1.
        -11    1    1    2    0    0 -0.13837606103E+02  0.31439832212E+02  0.12913688675E+02  0.36697489660E+02  0.00000000000E+00 0.  1.
         11    1    1    2    0    0 -0.50416641444E+01 -0.54628554833E+02 -0.25404647630E+02  0.60457369292E+02  0.00000000000E+00 0. -1.
</event>
<event>
 7    1  0.2420569E-009  0.1381202E+03  0.7561462E-02  0.1215881E+00
          1   -1    0    0  501    0  0.00000000000E+00  0.00000000000E+00  0.51767894417E+03  0.51767894417E+03  0.00000000000E+00 0. -1.
         -1   -1    0    0    0  501 -0.00000000000E+00 -0.00000000000E+00 -0.50945830749E+02  0.50945830749E+02  0.00000000000E+00 0.  1.
         25    2    1    2    0    0  0.30217236157E+02 -0.11454682226E+03  0.20275810567E+03  0.26606827849E+03  0.12508966205E+03 0.  0.
          5    1    3    3  502    0 -0.27067383767E+02 -0.74986793559E+02  0.17243640390E+03  0.19001959968E+03  0.41800000000E+01 0. -1.
         -5    1    3    3    0  502  0.57284619923E+02 -0.39560028703E+02  0.30321701776E+02  0.76048678814E+02  0.41800000000E+01 0. -1.
        -11    1    1    2    0    0 -0.40013702487E+02  0.66333317641E+02  0.77032414173E+02  0.10924833294E+03  0.00000000000E+00 0.  1.
         11    1    1    2    0    0  0.97964663302E+01  0.48213504622E+02  0.18694259358E+03  0.19330816350E+03  0.00000000000E+00 0. -1.
</event>
<event>
 7    1  0.2420569E-009  0.1438141E+03  0.7561462E-02  0.1208287E+00
         -2   -1    0    0    0  501 -0.00000000000E+00  0.00000000000E+00  0.10753672546E+03  0.10753672546E+03  0.00000000000E+00 0.  1.
          2   -1    0    0  501    0  0.00000000000E+00 -0.00000000000E+00 -0.23661618216E+03  0.23661618216E+03  0.00000000000E+00 0. -1.
         25    2    1    2    0    0 -0.60306805567E+02  0.98279428415E+02 -0.55710345833E+02  0.17901600811E+03  0.12508929482E+03 0.  0.
          5    1    3    3  502    0 -0.94188715598E+02  0.97714806151E+02 -0.41000600629E+02  0.14183870818E+03  0.41800000000E+01 0. -1.
         -5    1    3    3    0  502  0.33881910032E+02  0.56462226430E+00 -0.14709745204E+02  0.37177299924E+02  0.41800000000E+01 0. -1.
        -11    1    1    2    0    0  0.23470668769E+02 -0.18698422069E+02  0.20759509827E+02  0.36489183720E+02  0.00000000000E+00 0.  1.
         11    1    1    2    0    0  0.36836136798E+02 -0.79581006347E+02 -0.94128620696E+02  0.12864771580E+03  0.00000000000E+00 0. -1.
</event>
<event>
 7    1  0.2420569E-009  0.1190892E+03  0.7561462E-02  0.1244607E+00
          1   -1    0    0  501    0  0.00000000000E+00  0.00000000000E+00  0.32989192583E+03  0.32989192583E+03  0.00000000000E+00 0. -1.
         -1   -1    0    0    0  501 -0.00000000000E+00 -0.00000000000E+00 -0.79332632041E+02  0.79332632041E+02  0.00000000000E+00 0.  1.
         25    2    1    2    0    0 -0.11376293703E+03  0.21748168066E+02  0.17180778913E+03  0.24203427749E+03  0.12509071276E+03 0.  0.
          5    1    3    3  502    0 -0.21737098683E+02 -0.30242229502E+01 -0.18597933055E+02  0.29068933546E+02  0.41800000000E+01 0.  1.
         -5    1    3    3    0  502 -0.92025838351E+02  0.24772391016E+02  0.19040572218E+03  0.21296534394E+03  0.41800000000E+01 0.  1.
        -11    1    1    2    0    0  0.17893978204E+02 -0.16645868790E+02  0.65954043619E+02  0.70336443423E+02  0.00000000000E+00 0. -1.
         11    1    1    2    0    0  0.95868958830E+02 -0.51022992763E+01  0.12797461044E+02  0.96853836961E+02  0.00000000000E+00 0.  1.
</event>
<event>
 7    1  0.2420569E-009  0.1364911E+03  0.7561462E-02  0.1218130E+00
          2   -1    0    0  501    0  0.00000000000E+00  0.00000000000E+00  0.22650831685E+02  0.22650831685E+02  0.00000000000E+00 0. -1.
         -2   -1    0    0    0  501 -0.00000000000E+00 -0.00000000000E+00 -0.91415139505E+03  0.91415139505E+03  0.00000000000E+00 0.  1.
         25    2    1    2    0    0 -0.77342611273E+02  0.53268231043E+02 -0.51133830398E+03  0.53472727677E+03  0.12508803079E+03 0.  0.
          5    1    3    3  502    0 -0.44499181951E+02  0.92227773699E+02 -0.29052020507E+03  0.30806752733E+03  0.41800000000E+01 0. -1.
         -5    1    3    3    0  502 -0.32843429322E+02 -0.38959542657E+02 -0.22081809891E+03  0.22665974944E+03  0.41800000000E+01 0. -1.
        -11    1    1    2    0    0  0.37190620414E+02  0.15052879884E+02 -0.59483999979E+02  0.71750105875E+02  0.00000000000E+00 0. -1.
         11    1    1    2    0    0  0.40151990858E+02 -0.68321110927E+02 -0.32067825941E+03  0.33032484409E+03  0.00000000000E+00 0.  1.
</event>
<event>
 7    1  0.3428275E-009  0.1725809E+03  0.7561462E-02  0.1175183E+00
          2   -1    0    0  501    0  0.00000000000E+00  0.00000000000E+00  0.14601210936E+04  0.14601210936E+04  0.00000000000E+00 0.  1.
         -2   -1    0    0    0  501 -0.00000000000E+00 -0.00000000000E+00 -0.24268060757E+02  0.24268060757E+02  0.00000000000E+00 0. -1.
         25    2    1    2    0    0  0.14391135946E+03  0.52487350943E+02  0.75972273801E+03  0.78504281960E+03  0.12509271989E+03 0.  0.
          5    1    3    3  502    0  0.57684660751E+02  0.55446445098E+02  0.58146814943E+03  0.58696210232E+03  0.41800000000E+01 0.  1.
         -5    1    3    3    0  502  0.86226698711E+02 -0.29590941553E+01  0.17825458858E+03  0.19808071728E+03  0.41800000000E+01 0.  1.
        -11    1    1    2    0    0 -0.64324490232E+02  0.23638078368E+02  0.25257935861E+03  0.26171115985E+03  0.00000000000E+00 0.  1.
         11    1    1    2    0    0 -0.79586869229E+02 -0.76125429310E+02  0.42355093621E+03  0.43763517489E+03  0.00000000000E+00 0. -1.
</event>
<event>
 7    1  0.2420569E-009  0.1315280E+03  0.7561462E-02  0.1225206E+00
          2   -1    0    0  501    0  0.00000000000E+00  0.00000000000E+00  0.85539600137E+03  0.85539600137E+03  0.00000000000E+00 0.  1.
         -2   -1    0    0    0  501 -0.00000000000E+00 -0.00000000000E+00 -0.41103808209E+02  0.41103808209E+02  0.00000000000E+00 0. -1.
         25    2    1    2    0    0  0.12100872685E+03 -0.52057628804E+01  0.65395135619E+03  0.67673380022E+03  0.12508416430E+03 0.  0.
          5    1    3    3  502    0  0.11636205697E+03  0.31329635524E+01  0.28839707207E+03  0.31103100704E+03  0.41800000000E+01 0. -1.
         -5    1    3    3    0  502  0.46466698746E+01 -0.83387264328E+01  0.36555428412E+03  0.36570279318E+03  0.41800000000E+01 0. -1.
        -11    1    1    2    0    0 -0.89364860257E+02 -0.24595655514E+02  0.14791626269E+03  0.17455728369E+03  0.00000000000E+00 0.  1.
         11    1    1    2    0    0 -0.31643866591E+02  0.29801418395E+02  0.12424574282E+02  0.45208725676E+02  0.00000000000E+00 0. -1.
</event>
<event>
 7    1  0.2420569E-009  0.2185242E+03  0.7561462E-02  0.1134988E+00
          2   -1    0    0  501    0  0.00000000000E+00  0.00000000000E+00  0.24195028506E+03  0.24195028506E+03  0.00000000000E+00 0. -1.
         -2   -1    0    0    0  501 -0.00000000000E+00 -0.00000000000E+00 -0.32965930494E+03  0.32965930494E+03  0.00000000000E+00 0.  1.
         25    2    1    2    0    0 -0.20029790432E+03 -0.77571904383E+02  0.10392979526E+03  0.26941709861E+03  0.12509004699E+03 0.  0.
          5    1    3    3  502    0 -0.15068803261E+03 -0.31062807290E+02  0.12481074180E+03  0.19815896355E+03  0.41800000000E+01 0.  1.
         -5    1    3    3    0  502 -0.49609871712E+02 -0.46509097093E+02 -0.20880946539E+02  0.71258135059E+02  0.41800000000E+01 0.  1.
        -11    1    1    2    0    0  0.10722904800E+03  0.46612296862E+02 -0.16188900109E+03  0.19969682929E+03  0.00000000000E+00 0.  1.
         11    1    1    2    0    0  0.93068856320E+02  0.30959607522E+02 -0.29749814050E+02  0.10249566211E+03  0.00000000000E+00 0. -1.
</event>
<event>
 7    1  0.2420569E-009  0.1112235E+03  0.7561462E-02  0.1258321E+00
         -2   -1    0    0    0  501 -0.00000000000E+00  0.00000000000E+00  0.39776013447E+02  0.39776013447E+02  0.00000000000E+00 0.  1.
          2   -1    0    0  501    0  0.00000000000E+00 -0.00000000000E+00 -0.34324210419E+03  0.34324210419E+03  0.00000000000E+00 0. -1.
         25    2    1    2    0    0  0.34212081811E+02 -0.29387015212E+02 -0.15879437778E+03  0.20711484606E+03  0.12508733684E+03 0.  0.
          5    1    3    3  502    0  0.72020825016E+02  0.80996477378E+01 -0.57517569877E+02  0.92619365005E+02  0.41800000000E+01 0. -1.
         -5    1    3    3    0  502 -0.37808743204E+02 -0.37486662950E+02 -0.10127680790E+03  0.11449548105E+03  0.41800000000E+01 0. -1.
        -11    1    1    2    0    0 -0.47878354160E+02  0.51583637409E+02 -0.82208869077E+02  0.10821971447E+03  0.00000000000E+00 0.  1.
         11    1    1    2    0    0  0.13666272349E+02 -0.22196622197E+02 -0.62462843886E+02  0.67683557111E+02  0.00000000000E+00 0. -1.
</event>
<event>
 7    1  0.2420569E-009  0.9390322E+02  0.7561462E-02  0.1293666E+00
          2   -1    0    0  501    0  0.00000000000E+00  0.00000000000E+00  0.27672559715E+03  0.27672559715E+03  0.00000000000E+00 0. -1.
         -2   -1    0    0    0  501 -0.00000000000E+00 -0.00000000000E+00 -0.71968725449E+02  0.71968725449E+02  0.00000000000E+00 0.  1.
         25    2    1    2    0    0  0.37343747671E+02 -0.15499697361E+02  0.21113706140E+03  0.24872039917E+03  0.12509269427E+03 0.  0.
          5    1    3    3  502    0  0.35594348206E+02  0.28603541995E+02  0.15930636528E+02  0.48542536183E+02  0.41800000000E+01 0.  1.
         -5    1    3    3    0  502  0.17493994652E+01 -0.44103239356E+02  0.19520642487E+03  0.20017786299E+03  0.41800000000E+01 0.  1.
        -11    1    1    2    0    0  0.27579027029E+02  0.17501238031E+02  0.75929969932E+01  0.33534305835E+02  0.00000000000E+00 0. -1.
         11    1    1    2    0    0 -0.64922774700E+02 -0.20015406700E+01 -0.13973186688E+02  0.66439617594E+02  0.00000000000E+00 0.  1.
</event>
<event>
 7    1  0.2420569E-009  0.9888277E+02  0.7561462E-02  0.1282663E+00
         -2   -1    0    0    0  501 -0.00000000000E+00  0.00000000000E+00  0.12520859171E+02  0.12520859171E+02  0.00000000000E+00 0.  1.
          2   -1    0    0  501    0  0.00000000000E+00 -0.00000000000E+00 -0.12903742055E+04  0.12903742055E+04  0.00000000000E+00 0. -1.
         25    2    1    2    0    0 -0.94083630794E+00  0.55930141063E+02 -0.90856760243E+03  0.91884244918E+03  0.12508913774E+03 0.  0.
          5    1    3    3  502    0 -0.25217665442E+02  0.62550967709E+02 -0.86989112419E+03  0.87251165869E+03  0.41800000000E+01 0.  1.
         -5    1    3    3    0  502  0.24276829134E+02 -0.66208266463E+01 -0.38676478247E+02  0.46330790494E+02  0.41800000000E+01 0.  1.
        -11    1    1    2    0    0  0.27519978843E+02 -0.69566302337E+02 -0.24153552014E+03  0.25285613923E+03  0.00000000000E+00 0.  1.
         11    1    1    2    0    0 -0.26579142535E+02  0.13636161274E+02 -0.12775022371E+03  0.13119647621E+03  0.00000000000E+00 0. -1.
</event>
<event>
 7    1  0.2420569E-009  0.1288496E+03  0.7561462E-02  0.1229173E+00
          2   -1    0    0  501    0  0.00000000000E+00  0.00000000000E+00  0.64506415659E+03  0.64506415659E+03  0.00000000000E+00 0. -1.
         -2   -1    0    0    0  501 -0.00000000000E+00 -0.00000000000E+00 -0.32292354108E+02  0.32292354108E+02  0.00000000000E+00 0.  1.
         25    2    1    2    0    0 -0.48635894904E+02 -0.80516718161E+02  0.37533044441E+03  0.40665095509E+03  0.12507463612E+03 0.  0.
          5    1    3    3  502    0 -0.49041316724E+02 -0.21030071818E+01  0.27431647199E+03  0.27870499204E+03  0.41800000000E+01 0. -1.
         -5    1    3    3    0  502  0.40542181991E+00 -0.78413710979E+02  0.10101397242E+03  0.12794596305E+03  0.41800000000E+01 0. -1.
        -11    1    1    2    0    0  0.68026055964E+02  0.86100621184E+02  0.20433433541E+03  0.23193400330E+03  0.00000000000E+00 0. -1.
         11    1    1    2    0    0 -0.19390161060E+02 -0.55839030222E+01  0.33107022660E+02  0.38771552307E+02  0.00000000000E+00 0.  1.
</event>
<event>
 7    1  0.2709905E-009  0.1766509E+03  0.7561462E-02  0.1171084E+00
         -2   -1    0    0    0  501 -0.00000000000E+00  0.00000000000E+00  0.46407840117E+02  0.46407840117E+02  0.00000000000E+00 0.  1.
          2   -1    0    0  501    0  0.00000000000E+00 -0.00000000000E+00 -0.70591346265E+03  0.70591346265E+03  0.00000000000E+00 0. -1.
         25    2    1    2    0    0 -0.83232404713E+02  0.11579961601E+03 -0.29878481959E+03  0.35391544949E+03  0.12508634101E+03 0.  0.
          5    1    3    3  502    0 -0.11189559017E+03  0.66697652299E+02 -0.23204115407E+03  0.26613862836E+03  0.41800000000E+01 0.  1.
         -5    1    3    3    0  502  0.28663185459E+02  0.49101963713E+02 -0.66743665527E+02  0.87776821138E+02  0.41800000000E+01 0.  1.
        -11    1    1    2    0    0  0.49886920739E+02 -0.12221319002E+03 -0.25162635208E+03  0.28414888657E+03  0.00000000000E+00 0.  1.
         11    1    1    2    0    0  0.33345483973E+02  0.64135740078E+01 -0.10909445086E+03  0.11425696671E+03  0.00000000000E+00 0. -1.
</event>
<event>
 7    1  0.2420569E-009  0.1037798E+03  0.7561462E-02  0.1272543E+00
          3   -1    0    0  501    0  0.00000000000E+00  0.00000000000E+00  0.10331746750E+03  0.10331746750E+03  0.00000000000E+00 0. -1.
         -3   -1    0    0    0  501 -0.00000000000E+00 -0.00000000000E+00 -0.12975096895E+03  0.12975096895E+03  0.00000000000E+00 0.  1.
         25    2    1    2    0    0  0.41366087964E+02  0.84105929646E+01 -0.10553488645E+02  0.13244126360E+03  0.12508965134E+03 0.  0.
          5    1    3    3  502    0 -0.43247326023E+02 -0.42317001077E+01 -0.16289701717E+02  0.46594691500E+02  0.41800000000E+01 0.  1.
         -5    1    3    3    0  502  0.84613413987E+02  0.12642293072E+02  0.57362130714E+01  0.85846572099E+02  0.41800000000E+01 0.  1.
        -11    1    1    2    0    0 -0.19450229168E+02 -0.37253774535E+02  0.22651411399E+02  0.47741403102E+02  0.00000000000E+00 0. -1.
         11    1    1    2    0    0 -0.21915858796E+02  0.28843181570E+02 -0.38531424205E+02  0.52885769741E+02  0.00000000000E+00 0.  1.
</event>
<event>
 7    1  0.2420569E-009  0.7487338E+02  0.7561462E-02  0.1344264E+00
          1   -1    0    0  501    0  0.00000000000E+00  0.00000000000E+00  0.74635003946E+02  0.74635003946E+02  0.00000000000E+00 0. -1.
         -1   -1    0    0    0  501 -0.00000000000E+00 -0.00000000000E+00 -0.17825675862E+03  0.17825675862E+03  0.00000000000E+00 0.  1.
         25    2    1    2    0    0  0.19020651108E+02  0.25520744441E+02 -0.72022382586E+02  0.14781121449E+03  0.12509131852E+03 0.  0.
          5    1    3    3  502    0 -0.10052537843E+02  0.20000284221E+02  0.32171953232E+02  0.39415375943E+02  0.41800000000E+01 0. -1.
         -5    1    3    3    0  502  0.29073188952E+02  0.55204602200E+01 -0.10419433582E+03  0.10839583854E+03  0.41800000000E+01 0. -1.
        -11    1    1    2    0    0  0.33987466540E+01 -0.57738408114E+02 -0.58406621071E+01  0.58132508841E+02  0.00000000000E+00 0. -1.
         11    1    1    2    0    0 -0.22419397762E+02  0.32217663673E+02 -0.25758709985E+02  0.46948039242E+02  0.00000000000E+00 0.  1.
</event>
<event>
 7    1  0.2420569E-009  0.8699469E+02  0.7561462E-02  0.1310297E+00
          1   -1    0    0  501    0  0.00000000000E+00  0.00000000000E+00  0.46956207476E+03  0.46956207476E+03  0.00000000000E+00 0. -1.
         -1   -1    0    0    0  501 -0.00000000000E+00 -0.00000000000E+00 -0.36575420114E+02  0.36575420114E+02  0.00000000000E+00 0.  1.
         25    2    1    2    0    0  0.32901943677E+02  0.53026949138E+02  0.28228179641E+03  0.31500026046E+03  0.12509099196E+03 0.  0.
          5    1    3    3  502    0  0.44135876460E+02 -0.11410930389E+02  0.21955868996E+03  0.22428035059E+03  0.41800000000E+01 0. -1.
         -5    1    3    3    0  502 -0.11233932783E+02  0.64437879527E+02  0.62723106454E+02  0.90719909871E+02  0.41800000000E+01 0. -1.
        -11    1    1    2    0    0 -0.11931422536E+02 -0.24621305575E+02 -0.80371288322E+01  0.28516012551E+02  0.00000000000E+00 0.  1.
         11    1    1    2    0    0 -0.20970521141E+02 -0.28405643563E+02  0.15874198706E+03  0.16262122186E+03  0.00000000000E+00 0. -1.
</event>
<event>
 7    1  0.2420569E-009  0.1105531E+03  0.7561462E-02  0.1259549E+00
          1   -1    0    0  501    0  0.00000000000E+00  0.00000000000E+00  0.15810610497E+03  0.15810610497E+03  0.00000000000E+00 0. -1.
         -1   -1    0    0    0  501 -0.00000000000E+00 -0.00000000000E+00 -0.85965105993E+02  0.85965105993E+02  0.00000000000E+00 0.  1.
         25    2    1    2    0    0  0.31947055871E+02  0.29535194634E+02  0.32287454651E+02  0.13631621011E+03  0.12508671916E+03 0.  0.
          5    1    3    3  502    0  0.29291920626E+02 -0.41666333919E+02 -0.11767907698E+02  0.52440976801E+02  0.41800000000E+01 0.  1.
         -5    1    3    3    0  502  0.26551352445E+01  0.71201528553E+02  0.44055362348E+02  0.83875233311E+02  0.41800000000E+01 0.  1.
        -11    1    1    2    0    0  0.20926153447E+02  0.17944515641E+02  0.30705086794E+01  0.27736935000E+02  0.00000000000E+00 0.  1.
         11    1    1    2    0    0 -0.52873209318E+02 -0.47479710275E+02  0.36783035651E+02  0.80018065854E+02  0.00000000000E+00 0. -1.
</event>
<event>
 7    1  0.2420569E-009  0.1135466E+03  0.7561462E-02  0.1254140E+00
         -2   -1    0    0    0  501 -0.00000000000E+00  0.00000000000E+00  0.15904914496E+02  0.15904914496E+02  0.00000000000E+00 0.  1.
          2   -1    0    0  501    0  0.00000000000E+00 -0.00000000000E+00 -0.98033218499E+03  0.98033218499E+03  0.00000000000E+00 0. -1.
         25    2    1    2    0    0 -0.24272489068E+02 -0.24307523886E+02 -0.71570125568E+03  0.72736221022E+03  0.12508991977E+03 0.  0.
          5    1    3    3  502    0  0.10158531068E+02 -0.70711916907E+02 -0.41675587923E+03  0.42285494702E+03  0.41800000000E+01 0. -1.
         -5    1    3    3    0  502 -0.34431020136E+02  0.46404393021E+02 -0.29894537645E+03  0.30450726320E+03  0.41800000000E+01 0. -1.
        -11    1    1    2    0    0 -0.28040622372E+02 -0.15337319000E+02 -0.47813131169E+02  0.57511784612E+02  0.00000000000E+00 0. -1.
         11    1    1    2    0    0  0.52313111440E+02  0.39644842885E+02 -0.20091288365E+03  0.21136310466E+03  0.00000000000E+00 0.  1.
</event>
<event>
 7    1  0.2420569E-009  0.1396740E+03  0.7561462E-02  0.1213768E+00
          3   -1    0    0  501    0  0.00000000000E+00  0.00000000000E+00  0.55601040126E+02  0.55601040126E+02  0.00000000000E+00 0. -1.
         -3   -1    0    0    0  501 -0.00000000000E+00 -0.00000000000E+00 -0.48449999278E+03  0.48449999278E+03  0.00000000000E+00 0.  1.
         25    2    1    2    0    0 -0.10634176400E+03 -0.61056261296E+02 -0.24897296798E+03  0.30441823409E+03  0.12508590906E+03 0.  0.
          5    1    3    3  502    0 -0.10403407846E+02  0.96087272842E+01 -0.14639240141E+03  0.14713519676E+03  0.41800000000E+01 0.  1.
         -5    1    3    3    0  502 -0.95938356158E+02 -0.70664988580E+02 -0.10258056656E+03  0.15728303732E+03  0.41800000000E+01 0.  1.
        -11    1    1    2    0    0  0.10244547732E+03  0.77498784697E+02 -0.17673448620E+03  0.21848619194E+03  0.00000000000E+00 0.  1.
         11    1    1    2    0    0  0.38962866800E+01 -0.16442523401E+02 -0.31914984717E+01  0.17196606880E+02  0.00000000000E+00 0. -1.
</event>
<event>
 7    1  0.2420569E-009  0.1939112E+03  0.7561462E-02  0.1154980E+00
         -2   -1    0    0    0  501 -0.00000000000E+00  0.00000000000E+00  0.40850107059E+03  0.40850107059E+03  0.00000000000E+00 0.  1.
          2   -1    0    0  501    0  0.00000000000E+00 -0.00000000000E+00 -0.98236804157E+02  0.98236804157E+02  0.00000000000E+00 0. -1.
         25    2    1    2    0    0  0.85450820372E+02 -0.14160162088E+03  0.13314547457E+03  0.24642741285E+03  0.12508353475E+03 0.  0.
          5    1    3    3  502    0  0.72306919241E+02 -0.90803305437E+01  0.59627285523E+02  0.94253002879E+02  0.41800000000E+01 0. -1.
         -5    1    3    3    0  502  0.13143901131E+02 -0.13252129033E+03  0.73518189051E+02  0.15217440997E+03  0.41800000000E+01 0. -1.
        -11    1    1    2    0    0 -0.68575155125E+02  0.41667778907E+02  0.39603234759E+02  0.89482802275E+02  0.00000000000E+00 0.  1.
         11    1    1    2    0    0 -0.16875665246E+02  0.99933841968E+02  0.13751555710E+03  0.17082765962E+03  0.00000000000E+00 0. -1.
</event>
<event>
 7    1  0.2420569E-009  0.2057755E+03  0.7561462E-02  0.1144956E+00
         -2   -1    0    0    0  501 -0.00000000000E+00  0.00000000000E+00  0.17505009400E+03  0.17505009400E+03  0.00000000000E+00 0.  1.
          2   -1    0    0  501    0  0.00000000000E+00 -0.00000000000E+00 -0.37394184662E+03  0.37394184662E+03  0.00000000000E+00 0. -1.
         25    2    1    2    0    0  0.13911022726E+03 -0.10635127845E+03  0.59956233834E+02  0.22339553453E+03  0.12509422494E+03 0.  0.
          5    1    3    3  502    0  0.52258060235E+02 -0.11538244753E+03  0.46237966983E+02  0.13490528547E+03  0.41800000000E+01 0.  1.
         -5    1    3    3    0  502  0.86852167028E+02  0.90311690824E+01  0.13718266852E+02  0.88490249056E+02  0.41800000000E+01 0.  1.
        -11    1    1    2    0    0 -0.54928824580E+02  0.98589005798E+02 -0.14248102118E+03  0.18176305794E+03  0.00000000000E+00 0.  1.
         11    1    1    2    0    0 -0.84181402684E+02  0.77622726480E+01 -0.11636696527E+03  0.14383334815E+03  0.00000000000E+00 0. -1.
</event>
<event>
 7    1  0.2420569E-009  0.1199776E+03  0.7561462E-02  0.1243134E+00
         -1   -1    0    0    0  501 -0.00000000000E+00  0.00000000000E+00  0.19742005128E+03  0.19742005128E+03  0.00000000000E+00 0.  1.
          1   -1    0    0  501    0  0.00000000000E+00 -0.00000000000E+00 -0.28125020490E+03  0.28125020490E+03  0.00000000000E+00 0. -1.
         25    2    1    2    0    0  0.38340690694E+02 -0.83133605678E+02 -0.23371939443E+03  0.28045062905E+03  0.12508635034E+03 0.  0.
          5    1    3    3  502    0  0.60447297621E+02 -0.85395292016E+02 -0.23554074112E+03  0.25776567812E+03  0.41800000000E+01 0.  1.
         -5    1    3    3    0  502 -0.22106606927E+02  0.22616863379E+01  0.18213466857E+01  0.22684950929E+02  0.41800000000E+01 0.  1.
        -11    1    1    2    0    0  0.18123295385E+02  0.11661838003E+02  0.81546841305E+02  0.84346544849E+02  0.00000000000E+00 0.  1.
         11    1    1    2    0    0 -0.56463986079E+02  0.71471767675E+02  0.68342399509E+02  0.11387308229E+03  0.00000000000E+00 0. -1.
</event>
<event>
 7    1  0.2420569E-009  0.1214828E+03  0.7561462E-02  0.1240671E+00
         -1   -1    0    0    0  501 -0.00000000000E+00  0.00000000000E+00  0.15216350847E+03  0.15216350847E+03  0.00000000000E+00 0.  1.
          1   -1    0    0  501    0  0.00000000000E+00 -0.00000000000E+00 -0.14316567488E+03  0.14316567488E+03  0.00000000000E+00 0. -1.
         25    2    1    2    0    0  0.34196455509E+01 -0.92999563770E+02 -0.32540985565E+02  0.15926843132E+03  0.12508758786E+03 0.  0.
          5    1    3    3  502    0 -0.22000614751E+02  0.21030899451E+02  0.13588196498E+02  0.33592220307E+02  0.41800000000E+01 0.  1.
         -5    1    3    3    0  502  0.25420260301E+02 -0.11403046322E+03 -0.46129182063E+02  0.12567621101E+03  0.41800000000E+01 0.  1.
        -11    1    1    2    0    0  0.80152270054E+01  0.21771812952E+02 -0.27657224286E+02  0.36099553437E+02  0.00000000000E+00 0. -1.
         11    1    1    2    0    0 -0.11434872556E+02  0.71227750818E+02  0.69196043443E+02  0.99961198598E+02  0.00000000000E+00 0.  1.
</event>
<event>
 7    1  0.2420569E-009  0.1569640E+03  0.7561462E-02  0.1192168E+00
         -2   -1    0    0    0  501 -0.00000000000E+00  0.00000000000E+00  0.73013049564E+02  0.73013049564E+02  0.00000000000E+00 0. -1.
          2   -1    0    0  501    0  0.00000000000E+00 -0.00000000000E+00 -0.63408193432E+03  0.63408193432E+03  0.00000000000E+00 0.  1.
         25    2    1    2    0    0  0.45046787123E+02 -0.50482475551E+02 -0.91126750826E+02  0.16890712883E+03  0.12509132697E+03 0.  0.
          5    1    3    3  502    0 -0.80075101754E+00 -0.13580201968E+02  0.30537502225E+02  0.33690867157E+02  0.41800000000E+01 0.  1.
         -5    1    3    3    0  502  0.45847538140E+02 -0.36902273583E+02 -0.12166425305E+03  0.13521626167E+03  0.41800000000E+01 0.  1.
        -11    1    1    2    0    0  0.29399253410E+02 -0.82891135949E+02 -0.28533896681E+03  0.29858597171E+03  0.00000000000E+00 0.  1.
         11    1    1    2    0    0 -0.74446040533E+02  0.13337361150E+03 -0.18460316712E+03  0.23960188336E+03  0.00000000000E+00 0. -1.
</event>
<event>
 7    1  0.2420569E-009  0.1837735E+03  0.7561462E-02  0.1164200E+00
         -1   -1    0    0    0  501 -0.00000000000E+00  0.00000000000E+00  0.74184569128E+03  0.74184569128E+03  0.00000000000E+00 0.  1.
          1   -1    0    0  501    0  0.00000000000E+00 -0.00000000000E+00 -0.78016906072E+02  0.78016906072E+02  0.00000000000E+00 0. -1.
         25    2    1    2    0    0  0.62375349519E+02 -0.15152621340E+03  0.57952159879E+03  0.61509609124E+03  0.12508813060E+03 0.  0.
          5    1    3    3  502    0  0.57732156590E+02 -0.26173469130E+02  0.32689187096E+03  0.33300723729E+03  0.41800000000E+01 0.  1.
         -5    1    3    3    0  502  0.46431929293E+01 -0.12535274427E+03  0.25262972784E+03  0.28208885395E+03  0.41800000000E+01 0.  1.
        -11    1    1    2    0    0 -0.11008045870E-02  0.92936505227E+02  0.73545124870E+02  0.11851615669E+03  0.00000000000E+00 0. -1.
         11    1    1    2    0    0 -0.62374248715E+02  0.58589708169E+02  0.10762061544E+02  0.86250349418E+02  0.00000000000E+00 0.  1.
</event>
<event>
 7    1  0.2420569E-009  0.1019773E+03  0.7561462E-02  0.1276192E+00
         -2   -1    0    0    0  501 -0.00000000000E+00  0.00000000000E+00  0.58687996160E+02  0.58687996160E+02  0.00000000000E+00 0. -1.
          2   -1    0    0  501    0  0.00000000000E+00 -0.00000000000E+00 -0.50492022099E+03  0.50492022099E+03  0.00000000000E+00 0.  1.
         25    2    1    2    0    0  0.86591702073E+02 -0.22869006146E+02 -0.39952712955E+03  0.42812363487E+03  0.12508719030E+03 0.  0.
          5    1    3    3  502    0  0.59732203560E+02  0.19080842826E+02 -0.67003365772E+02  0.91863693208E+02  0.41800000000E+01 0. -1.
         -5    1    3    3    0  502  0.26859498513E+02 -0.41949848972E+02 -0.33252376378E+03  0.33625994166E+03  0.41800000000E+01 0. -1.
        -11    1    1    2    0    0 -0.21777064995E+02  0.13532155671E+02  0.26767359776E+02  0.37065500755E+02  0.00000000000E+00 0. -1.
         11    1    1    2    0    0 -0.64814637079E+02  0.93368504751E+01 -0.73472455059E+02  0.98419081528E+02  0.00000000000E+00 0.  1.
</event>
<event>
 7    1  0.2420569E-009  0.1141529E+03  0.7561462E-02  0.1253067E+00
          2   -1    0    0  501    0  0.00000000000E+00  0.00000000000E+00  0.32163881611E+03  0.32163881611E+03  0.00000000000E+00 0. -1.
         -2   -1    0    0    0  501 -0.00000000000E+00 -0.00000000000E+00 -0.50063025980E+02  0.50063025980E+02  0.00000000000E+00 0.  1.
         25    2    1    2    0    0 -0.52852904857E+02  0.41719608270E+02  0.18349640906E+03  0.23205929312E+03  0.12508648257E+03 0.  0.
          5    1    3    3  502    0 -0.89688618927E+01  0.71700641858E+02  0.49065567325E+02  0.87443266312E+02  0.41800000000E+01 0.  1.
         -5    1    3    3    0  502 -0.43884042964E+02 -0.29981033588E+02  0.13443084173E+03  0.14461602681E+03  0.41800000000E+01 0.  1.
        -11    1    1    2    0    0 -0.12659656257E+02  0.12338221534E+02  0.56303836045E+00  0.17686594340E+02  0.00000000000E+00 0.  1.
         11    1    1    2    0    0  0.65512561114E+02 -0.54057829805E+02  0.87516342715E+02  0.12195595463E+03  0.00000000000E+00 0. -1.
</event>
<event>
 7    1  0.2420569E-009  0.1134022E+03  0.7561462E-02  0.1254396E+00
          1   -1    0    0  501    0  0.00000000000E+00  0.00000000000E+00  0.57734758726E+02  0.57734758726E+02  0.00000000000E+00 0. -1.
         -1   -1    0    0    0  501 -0.00000000000E+00 -0.00000000000E+00 -0.38515549722E+03  0.38515549722E+03  0.00000000000E+00 0.  1.
         25    2    1    2    0    0  0.45161455898E+02 -0.10501147914E+02 -0.42797845485E+02  0.14009812311E+03  0.12508396106E+03 0.  0.
          5    1    3    3  502    0  0.75622385918E+02  0.22406026112E+02 -0.15045551378E+01  0.78996907181E+02  0.41800000000E+01 0.  1.
         -5    1    3    3    0  502 -0.30460930021E+02 -0.32907174026E+02 -0.41293290347E+02  0.61101215927E+02  0.41800000000E+01 0.  1.
        -11    1    1    2    0    0  0.13960025192E+02 -0.28654350250E+02 -0.74712724588E+02  0.81227737300E+02  0.00000000000E+00 0. -1.
         11    1    1    2    0    0 -0.59121481089E+02  0.39155498164E+02 -0.20991016842E+03  0.22156439554E+03  0.00000000000E+00 0.  1.
</event>
<event>
 7    1  0.2420569E-009  0.1147130E+03  0.7561462E-02  0.1252083E+00
         -3   -1    0    0    0  501 -0.00000000000E+00  0.00000000000E+00  0.29194313351E+03  0.29194313351E+03  0.00000000000E+00 0.  1.
          3   -1    0    0  501    0  0.00000000000E+00 -0.00000000000E+00 -0.55808670464E+02  0.55808670464E+02  0.00000000000E+00 0. -1.
         25    2    1    2    0    0 -0.62718318493E+02  0.21571231046E+02  0.12497471138E+03  0.18884042285E+03  0.12507246433E+03 0.  0.
          5    1    3    3  502    0 -0.89155002401E+02  0.75413711626E+01  0.13033833605E+03  0.15814879379E+03  0.41800000000E+01 0. -1.
         -5    1    3    3    0  502  0.26436683908E+02  0.14029859884E+02 -0.53636246766E+01  0.30691629056E+02  0.41800000000E+01 0. -1.
        -11    1    1    2    0    0  0.27363161137E+02 -0.54714108162E+02  0.41005059452E+02  0.73646392444E+02  0.00000000000E+00 0. -1.
         11    1    1    2    0    0  0.35355157356E+02  0.33142877116E+02  0.70154692222E+02  0.85264988688E+02  0.00000000000E+00 0.  1.
</event>
<event>
 7    1  0.2420569E-009  0.1029335E+03  0.7561462E-02  0.1274245E+00
         -2   -1    0    0    0  501 -0.00000000000E+00  0.00000000000E+00  0.12267107442E+02  0.12267107442E+02  0.00000000000E+00 0.  1.
          2   -1    0    0  501    0  0.00000000000E+00 -0.00000000000E+00 -0.16652442973E+04  0.16652442973E+04  0.00000000000E+00 0. -1.
         25    2    1    2    0    0  0.28238144729E+01 -0.37989048678E+02 -0.14411239190E+04  0.14470443770E+04  0.12509251571E+03 0.  0.
          5    1    3    3  502    0  0.60514413857E+02 -0.21689170910E+02 -0.52236760080E+03  0.52632480198E+03  0.41800000000E+01 0.  1.
         -5    1    3    3    0  502 -0.57690599384E+02 -0.16299877769E+02 -0.91875631816E+03  0.92071957502E+03  0.41800000000E+01 0.  1.
        -11    1    1    2    0    0 -0.37326648969E+02  0.21972560741E+02 -0.16239691021E+03  0.16807387839E+03  0.00000000000E+00 0. -1.
         11    1    1    2    0    0  0.34502834496E+02  0.16016487937E+02 -0.49456360716E+02  0.62393149378E+02  0.00000000000E+00 0.  1.
</event>
<event>
 7    1  0.2420569E-009  0.1111856E+03  0.7561462E-02  0.1258390E+00
         -2   -1    0    0    0  501 -0.00000000000E+00  0.00000000000E+00  0.31225650422E+02  0.31225650422E+02  0.00000000000E+00 0.  1.
          2   -1    0    0  501    0  0.00000000000E+00 -0.00000000000E+00 -0.68814625566E+03  0.68814625566E+03  0.00000000000E+00 0. -1.
         25    2    1    2    0    0 -0.12026886118E+02  0.49962099709E+02 -0.55059780569E+03  0.56696157209E+03  0.12508646291E+03 0.  0.
          5    1    3    3  502    0 -0.63229248408E+02  0.69651215260E+01 -0.34134165238E+03  0.34724349788E+03  0.41800000000E+01 0. -1.
         -5    1    3    3    0  502  0.51202362289E+02  0.42996978183E+02 -0.20925615331E+03  0.21971807421E+03  0.41800000000E+01 0. -1.
        -11    1    1    2    0    0  0.32664315879E+02 -0.60277337935E+02 -0.34058976749E+02  0.76552785042E+02  0.00000000000E+00 0. -1.
         11    1    1    2    0    0 -0.20637429760E+02  0.10315238226E+02 -0.72263822799E+02  0.75857548948E+02  0.00000000000E+00 0.  1.
</event>
<event>
 7    1  0.2420569E-009  0.1007193E+03  0.7561462E-02  0.1278791E+00
         -1   -1    0    0    0  501 -0.00000000000E+00  0.00000000000E+00  0.88490441198E+02  0.88490441198E+02  0.00000000000E+00 0.  1.
          1   -1    0    0  501    0  0.00000000000E+00 -0.00000000000E+00 -0.25306658960E+03  0.25306658960E+03  0.00000000000E+00 0. -1.
         25    2    1    2    0    0 -0.18231225698E+02  0.74369326752E+02 -0.16899386919E+03  0.22376164432E+03  0.12508865372E+03 0.  0.
          5    1    3    3  502    0 -0.38510139672E+02  0.54487681176E+02 -0.18076902962E+03  0.19273518809E+03  0.41800000000E+01 0.  1.
         -5    1    3    3    0  502  0.20278913974E+02  0.19881645576E+02  0.11775160431E+02  0.31026456226E+02  0.41800000000E+01 0.  1.
        -11    1    1    2    0    0 -0.26123623661E+01  0.14431226318E+02 -0.18634531519E+02  0.23713508705E+02  0.00000000000E+00 0. -1.
         11    1    1    2    0    0  0.20843588064E+02 -0.88800553069E+02  0.23052252311E+02  0.94081877774E+02  0.00000000000E+00 0.  1.
</event>
<event>
 7    1  0.2780662E-009  0.1256380E+03  0.7561462E-02  0.1234076E+00
         -2   -1    0    0    0  501 -0.00000000000E+00  0.00000000000E+00  0.10706151932E+03  0.10706151932E+03  0.00000000000E+00 0.  1.
          2   -1    0    0  501    0  0.00000000000E+00 -0.00000000000E+00 -0.26971184205E+03  0.26971184205E+03  0.00000000000E+00 0. -1.
         25    2    1    2    0    0 -0.10232926832E+03 -0.74031169108E+01  0.24776985919E+01  0.16180339091E+03  0.12509241793E+03 0.  0.
          5    1    3    3  502    0 -0.20992830919E+02 -0.50827512745E+02  0.33385529544E+02  0.64468604645E+02  0.41800000000E+01 0.  1.
         -5    1    3    3    0  502 -0.81336437406E+02  0.43424395834E+02 -0.30907830953E+02  0.97334786267E+02  0.41800000000E+01 0.  1.
        -11    1    1    2    0    0  0.52549231637E+02 -0.41894721001E+01 -0.12732853775E+02  0.54231900090E+02  0.00000000000E+00 0.  1.
         11    1    1    2    0    0  0.49780036688E+02  0.11592589011E+02 -0.15239516755E+03  0.16073807037E+03  0.00000000000E+00 0. -1.
</event>
<event>
 7    1  0.2420569E-009  0.1632353E+03  0.7561462E-02  0.1185092E+00
          2   -1    0    0  501    0  0.00000000000E+00  0.00000000000E+00  0.15942188405E+03  0.15942188405E+03  0.00000000000E+00 0. -1.
         -2   -1    0    0    0  501 -0.00000000000E+00 -0.00000000000E+00 -0.19995298729E+03  0.19995298729E+03  0.00000000000E+00 0.  1.
         25    2    1    2    0    0 -0.61115477858E+02 -0.11610264034E+03 -0.75619272918E+02  0.19641264795E+03  0.12507889154E+03 0.  0.
          5    1    3    3  502    0 -0.85684129546E+02 -0.31095671974E+02 -0.50711366098E+02  0.10439265263E+03  0.41800000000E+01 0. -1.
         -5    1    3    3    0  502  0.24568651687E+02 -0.85006968364E+02 -0.24907906820E+02  0.92019995318E+02  0.41800000000E+01 0. -1.
        -11    1    1    2    0    0  0.74135819208E+02  0.10895354585E+03  0.79482750554E+01  0.13202336884E+03  0.00000000000E+00 0.  1.
         11    1    1    2    0    0 -0.13020341350E+02  0.71490944861E+01  0.27139894618E+02  0.30938854548E+02  0.00000000000E+00 0. -1.
</event>
<event>
 7    1  0.2420569E-009  0.1745755E+03  0.7561462E-02  0.1173159E+00
          1   -1    0    0  501    0  0.00000000000E+00  0.00000000000E+00  0.87861366567E+03  0.87861366567E+03  0.00000000000E+00 0. -1.
         -1   -1    0    0    0  501 -0.00000000000E+00 -0.00000000000E+00 -0.37605217793E+02  0.37605217793E+02  0.00000000000E+00 0.  1.
         25    2    1    2    0    0 -0.14153913338E+03 -0.26814538905E+02  0.49418610244E+03  0.52973497706E+03  0.12508755454E+03 0.  0.
          5    1    3    3  502    0 -0.13225938071E+03 -0.62785784573E+02  0.44129730589E+03  0.46496815280E+03  0.41800000000E+01 0. -1.
         -5    1    3    3    0  502 -0.92797526699E+01  0.35971245668E+02  0.52888796545E+02  0.64766824258E+02  0.41800000000E+01 0. -1.
        -11    1    1    2    0    0  0.11963938655E+03  0.53266364736E+02  0.30780313997E+03  0.33450509921E+03  0.00000000000E+00 0. -1.
         11    1    1    2    0    0  0.21899746835E+02 -0.26451825831E+02  0.39019205468E+02  0.51978807187E+02  0.00000000000E+00 0.  1.
</event>
<event>
 7    1  0.2420569E-009  0.1047315E+03  0.7561462E-02  0.1270650E+00
         -2   -1    0    0    0  501 -0.00000000000E+00  0.00000000000E+00  0.11188597604E+03  0.11188597604E+03  0.00000000000E+00 0.  1.
          2   -1    0    0  501    0  0.00000000000E+00 -0.00000000000E+00 -0.18664166368E+03  0.18664166368E+03  0.00000000000E+00 0. -1.
         25    2    1    2    0    0 -0.54288610872E+02 -0.78239018564E+02 -0.45724361475E+02  0.16372687151E+03  0.12508866426E+03 0.  0.
          5    1    3    3  502    0 -0.18465821974E+01  0.10242063165E+02 -0.58890392449E+02  0.59948815222E+02  0.41800000000E+01 0. -1.
         -5    1    3    3    0  502 -0.52442028675E+02 -0.88481081729E+02  0.13166030975E+02  0.10377805629E+03  0.41800000000E+01 0. -1.
        -11    1    1    2    0    0  0.47791901694E+02  0.66511826183E+02 -0.59686106252E+02  0.10134258813E+03  0.00000000000E+00 0. -1.
         11    1    1    2    0    0  0.64967091776E+01  0.11727192381E+02  0.30654780088E+02  0.33458180068E+02  0.00000000000E+00 0.  1.
</event>
<event>
 7    1  0.2420569E-009  0.1299379E+03  0.7561462E-02  0.1227548E+00
          1   -1    0    0  501    0  0.00000000000E+00  0.00000000000E+00  0.27985889057E+03  0.27985889057E+03  0.00000000000E+00 0. -1.
         -1   -1    0    0    0  501 -0.00000000000E+00 -0.00000000000E+00 -0.79382678178E+02  0.79382678178E+02  0.00000000000E+00 0.  1.
         25    2    1    2    0    0 -0.17567445705E+02 -0.81780308912E+02  0.18831659386E+03  0.24105498060E+03  0.12509088726E+03 0.  0.
          5    1    3    3  502    0  0.43822683299E+02  0.34321193743E+01  0.70325571635E+02  0.83038337175E+02  0.41800000000E+01 0. -1.
         -5    1    3    3    0  502 -0.61390129005E+02 -0.85212428286E+02  0.11799102222E+03  0.15801664342E+03  0.41800000000E+01 0. -1.
        -11    1    1    2    0    0 -0.45301074637E+00  0.90565289169E+02 -0.64991574711E+01  0.90799316456E+02  0.00000000000E+00 0.  1.
         11    1    1    2    0    0  0.18020456452E+02 -0.87849802571E+01  0.18658776007E+02  0.27387271695E+02  0.00000000000E+00 0. -1.
</event>
<event>
 7    1  0.2420569E-009  0.1173442E+03  0.7561462E-02  0.1247544E+00
         -2   -1    0    0    0  501 -0.00000000000E+00  0.00000000000E+00  0.58838277746E+02  0.58838277746E+02  0.00000000000E+00 0.  1.
          2   -1    0    0  501    0  0.00000000000E+00 -0.00000000000E+00 -0.32446823322E+03  0.32446823322E+03  0.00000000000E+00 0. -1.
         25    2    1    2    0    0 -0.15529133965E+02 -0.59840822356E+02 -0.66932948725E+02  0.15474812105E+03  0.12507950800E+03 0.  0.
          5    1    3    3  502    0  0.35109376339E+02 -0.77388803921E+02 -0.48406975890E+02  0.97889749178E+02  0.41800000000E+01 0.  1.
         -5    1    3    3    0  502 -0.50638510304E+02  0.17547981566E+02 -0.18525972835E+02  0.56858371876E+02  0.41800000000E+01 0.  1.
        -11    1    1    2    0    0 -0.28453275253E+02  0.12048392649E+02 -0.13158251996E+03  0.13516180007E+03  0.00000000000E+00 0. -1.
         11    1    1    2    0    0  0.43982409218E+02  0.47792429707E+02 -0.67114486789E+02  0.93396589846E+02  0.00000000000E+00 0.  1.
</event>
<event>
 7    1  0.2420569E-009  0.8691079E+02  0.7561462E-02  0.1310510E+00
          2   -1    0    0  501    0  0.00000000000E+00  0.00000000000E+00  0.39229770182E+03  0.39229770182E+03  0.00000000000E+00 0. -1.
         -2   -1    0    0    0  501 -0.00000000000E+00 -0.00000000000E+00 -0.39386736534E+02  0.39386736534E+02  0.00000000000E+00 0.  1.
         25    2    1    2    0    0 -0.40180941999E+02 -0.18581959478E+02  0.27455098505E+03  0.30493596497E+03  0.12509157454E+03 0.  0.
          5    1    3    3  502    0  0.20066545606E+02 -0.44951336026E+02  0.19732383041E+03  0.20341449140E+03  0.41800000000E+01 0. -1.
         -5    1    3    3    0  502 -0.60247487605E+02  0.26369376547E+02  0.77227154640E+02  0.10152147357E+03  0.41800000000E+01 0. -1.
        -11    1    1    2    0    0  0.30567882539E+02  0.30517488026E+02  0.94858804589E+02  0.10423005961E+03  0.00000000000E+00 0. -1.
         11    1    1    2    0    0  0.96130594601E+01 -0.11935528547E+02 -0.16498824353E+02  0.22518413775E+02  0.00000000000E+00 0.  1.
</event>
<event>
 7    1  0.2420569E-009  0.1238911E+03  0.7561462E-02  0.1236813E+00
         -1   -1    0    0    0  501 -0.00000000000E+00  0.00000000000E+00  0.62425466110E+02  0.62425466110E+02  0.00000000000E+00 0.  1.
          1   -1    0    0  501    0  0.00000000000E+00 -0.00000000000E+00 -0.35553820151E+03  0.35553820151E+03  0.00000000000E+00 0. -1.
         25    2    1    2    0    0  0.41317000907E+02  0.76196556199E+02 -0.23385832169E+03  0.27901762699E+03  0.12509241305E+03 0.  0.
          5    1    3    3  502    0  0.35100499209E+02 -0.11349490405E+02 -0.15994653067E+03  0.16419872427E+03  0.41800000000E+01 0.  1.
         -5    1    3    3    0  502  0.62165016976E+01  0.87546046604E+02 -0.73911791022E+02  0.11481890272E+03  0.41800000000E+01 0.  1.
        -11    1    1    2    0    0  0.27077680536E+02 -0.14682433116E+02 -0.28467975576E+02  0.41942821302E+02  0.00000000000E+00 0. -1.
         11    1    1    2    0    0 -0.68394681442E+02 -0.61514123084E+02 -0.30786438132E+02  0.97003219334E+02  0.00000000000E+00 0.  1.
</event>
<event>
 7    1  0.3084636E-009  0.1983306E+03  0.7561462E-02  0.1151155E+00
         -2   -1    0    0    0  501 -0.00000000000E+00  0.00000000000E+00  0.38979767152E+02  0.38979767152E+02  0.00000000000E+00 0.  1.
          2   -1    0    0  501    0  0.00000000000E+00 -0.00000000000E+00 -0.11263948335E+04  0.11263948335E+04  0.00000000000E+00 0. -1.
         25    2    1    2    0    0  0.11036498423E+03 -0.13287094820E+03 -0.43896833655E+03  0.48803121131E+03  0.12508454781E+03 0.  0.
          5    1    3    3  502    0  0.60104480610E+01 -0.10372402777E+03 -0.23671259825E+03  0.25854424378E+03  0.41800000000E+01 0.  1.
         -5    1    3    3    0  502  0.10435453617E+03 -0.29146920424E+02 -0.20225573830E+03  0.22948696753E+03  0.41800000000E+01 0.  1.
        -11    1    1    2    0    0 -0.91228204298E+02  0.60680244852E+02 -0.26615525672E+03  0.28782511714E+03  0.00000000000E+00 0.  1.
         11    1    1    2    0    0 -0.19136779930E+02  0.72190703346E+02 -0.38229147312E+03  0.38951827225E+03  0.00000000000E+00 0. -1.
</event>
<event>
 7    1  0.2420569E-009  0.1646065E+03  0.7561462E-02  0.1183592E+00
         -2   -1    0    0    0  501 -0.00000000000E+00  0.00000000000E+00  0.47805032938E+03  0.47805032938E+03  0.00000000000E+00 0.  1.
          2   -1    0    0  501    0  0.00000000000E+00 -0.00000000000E+00 -0.70231777994E+02  0.70231777994E+02  0.00000000000E+00 0. -1.
         25    2    1    2    0    0  0.97362165750E+02 -0.95968245420E+02  0.13135643671E+03  0.22713451398E+03  0.12508508515E+03 0.  0.
          5    1    3    3  502    0  0.83125791768E+02 -0.26229430900E+01  0.93797744092E+02  0.12542833127E+03  0.41800000000E+01 0.  1.
         -5    1    3    3    0  502  0.14236373982E+02 -0.93345302330E+02  0.37558692618E+02  0.10170618271E+03  0.41800000000E+01 0.  1.
        -11    1    1    2    0    0 -0.27406545823E+02  0.72708976177E+02  0.80994480178E+02  0.11224000976E+03  0.00000000000E+00 0. -1.
         11    1    1    2    0    0 -0.69955619927E+02  0.23259269243E+02  0.19546763449E+03  0.20890758363E+03  0.00000000000E+00 0.  1.
</event>
<event>
 7    1  0.2420569E-009  0.1341154E+03  0.7561462E-02  0.1221474E+00
          1   -1    0    0  501    0  0.00000000000E+00  0.00000000000E+00  0.45051990436E+03  0.45051990436E+03  0.00000000000E+00 0. -1.
         -1   -1    0    0    0  501 -0.00000000000E+00 -0.00000000000E+00 -0.49259285755E+02  0.49259285755E+02  0.00000000000E+00 0.  1.
         25    2    1    2    0    0  0.99286247393E+02 -0.25476805190E+02  0.26510700503E+03  0.31054144041E+03  0.12508971010E+03 0.  0.
          5    1    3    3  502    0  0.13412399880E+02 -0.62181334517E+02  0.14457928388E+03  0.15800965970E+03  0.41800000000E+01 0.  1.
         -5    1    3    3    0  502  0.85873847513E+02  0.36704529327E+02  0.12052772115E+03  0.15253178071E+03  0.41800000000E+01 0.  1.
        -11    1    1    2    0    0 -0.88929155576E+02  0.62350247039E+01  0.53998771204E+02  0.10422637639E+03  0.00000000000E+00 0.  1.
         11    1    1    2    0    0 -0.10357091817E+02  0.19241780486E+02  0.82154842371E+02  0.85011373311E+02  0.00000000000E+00 0. -1.
</event>
<event>
 7    1  0.2420569E-009  0.1510819E+03  0.7561462E-02  0.1199150E+00
          2   -1    0    0  501    0  0.00000000000E+00  0.00000000000E+00  0.17484517402E+03  0.17484517402E+03  0.00000000000E+00 0. -1.
         -2   -1    0    0    0  501 -0.00000000000E+00 -0.00000000000E+00 -0.19041304551E+03  0.19041304551E+03  0.00000000000E+00 0.  1.
         25    2    1    2    0    0 -0.92673431615E+02 -0.75698884610E+02  0.75742397200E+02  0.18895275387E+03  0.12509015311E+03 0.  0.
          5    1    3    3  502    0  0.21732851489E+02 -0.15141808834E+02 -0.15083879660E+02  0.30766654583E+02  0.41800000000E+01 0.  1.
         -5    1    3    3    0  502 -0.11440628310E+03 -0.60557075776E+02  0.90826276861E+02  0.15818609929E+03  0.41800000000E+01 0.  1.
        -11    1    1    2    0    0  0.84858419612E+02  0.16905939786E+02 -0.31520744265E+02  0.92088650213E+02  0.00000000000E+00 0. -1.
         11    1    1    2    0    0  0.78150120029E+01  0.58792944824E+02 -0.59789524424E+02  0.84216815450E+02  0.00000000000E+00 0.  1.
</event>
<event>
 7    1  0.2420569E-009  0.1377634E+03  0.7561462E-02  0.1216371E+00
         -2   -1    0    0    0  501 -0.00000000000E+00  0.00000000000E+00  0.20807267520E+02  0.20807267520E+02  0.00000000000E+00 0.  1.
          2   -1    0    0  501    0  0.00000000000E+00 -0.00000000000E+00 -0.10447814228E+04  0.10447814228E+04  0.00000000000E+00 0. -1.
         25    2    1    2    0    0  0.60344775508E+02 -0.80446127639E+02 -0.57869068111E+03  0.60053638949E+03  0.12509188348E+03 0.  0.
          5    1    3    3  502    0 -0.14184601133E+01 -0.96321763847E+02 -0.36150232284E+03  0.37414074362E+03  0.41800000000E+01 0. -1.
         -5    1    3    3    0  502  0.61763235621E+02  0.15875636208E+02 -0.21718835828E+03  0.22639564587E+03  0.41800000000E+01 0. -1.
        -11    1    1    2    0    0 -0.45574612034E+02  0.14812776765E+02 -0.77146287627E+02  0.90818573608E+02  0.00000000000E+00 0.  1.
         11    1    1    2    0    0 -0.14770163473E+02  0.65633350875E+02 -0.36813718655E+03  0.37423372723E+03  0.00000000000E+00 0. -1.
</event>
<event>
 7    1  0.2420569E-009  0.8904739E+02  0.7561462E-02  0.1305175E+00
         -1   -1    0    0    0  501 -0.00000000000E+00  0.00000000000E+00  0.43585484406E+03  0.43585484406E+03  0.00000000000E+00 0. -1.
          1   -1    0    0  501    0  0.00000000000E+00 -0.00000000000E+00 -0.41987433547E+02  0.41987433547E+02  0.00000000000E+00 0.  1.
         25    2    1    2    0    0 -0.12619873250E+02 -0.64086952538E+02  0.13225915610E+03  0.19340839585E+03  0.12509166450E+03 0.  0.
          5    1    3    3  502    0 -0.12733052938E+02 -0.42872753748E+02  0.15538589452E+03  0.16174811364E+03  0.41800000000E+01 0.  1.
         -5    1    3    3    0  502  0.11317968820E+00 -0.21214198790E+02 -0.23126738416E+02  0.31660282211E+02  0.41800000000E+01 0.  1.
        -11    1    1    2    0    0  0.43596767036E+02  0.67536290867E+02  0.18337589714E+03  0.20022124845E+03  0.00000000000E+00 0.  1.
         11    1    1    2    0    0 -0.30976893786E+02 -0.34493383289E+01  0.78232357273E+02  0.84212633304E+02  0.00000000000E+00 0. -1.
</event>
<event>
 7    1  0.2420569E-009  0.2739954E+03  0.7561462E-02  0.1099014E+00
          2   -1    0    0  501    0  0.00000000000E+00  0.00000000000E+00  0.49216478430E+03  0.49216478430E+03  0.00000000000E+00 0. -1.
         -2   -1    0    0    0  501 -0.00000000000E+00 -0.00000000000E+00 -0.15287321448E+03  0.15287321448E+03  0.00000000000E+00 0.  1.
         25    2    1    2    0    0  0.21044007293E+03  0.13730317480E+03  0.17500554006E+03  0.33077397331E+03  0.12508915325E+03 0.  0.
          5    1    3    3  502    0  0.76888225958E+02  0.12410825613E+03  0.82768001845E+02  0.16787695810E+03  0.41800000000E+01 0. -1.
         -5    1    3    3    0  502  0.13355184697E+03  0.13194918675E+02  0.92237538218E+02  0.16289701521E+03  0.41800000000E+01 0. -1.
        -11    1    1    2    0    0 -0.18399354866E+03 -0.15087477500E+03  0.15006568582E+03  0.28131216422E+03  0.00000000000E+00 0. -1.
         11    1    1    2    0    0 -0.26446524268E+02  0.13571600193E+02  0.14220343939E+02  0.32951861244E+02  0.00000000000E+00 0.  1.
</event>
<event>
 7    1  0.2420569E-009  0.1632075E+03  0.7561462E-02  0.1185122E+00
          2   -1    0    0  501    0  0.00000000000E+00  0.00000000000E+00  0.22373808116E+04  0.22373808116E+04  0.00000000000E+00 0. -1.
         -2   -1    0    0    0  501 -0.00000000000E+00 -0.00000000000E+00 -0.20895196200E+02  0.20895196200E+02  0.00000000000E+00 0.  1.
         25    2    1    2    0    0 -0.10406793636E+03  0.79200727154E+02  0.18449351276E+04  0.18537889921E+04  0.12508042079E+03 0.  0.
          5    1    3    3  502    0 -0.44564219585E+02 -0.31754882242E+02  0.59008930661E+03  0.59263581092E+03  0.41800000000E+01 0.  1.
         -5    1    3    3    0  502 -0.59503716771E+02  0.11095560940E+03  0.12548458210E+04  0.12611531812E+04  0.41800000000E+01 0.  1.
        -11    1    1    2    0    0  0.88606523593E+02 -0.29307673971E+02  0.31008340146E+03  0.32382367368E+03  0.00000000000E+00 0. -1.
         11    1    1    2    0    0  0.15461412763E+02 -0.49893053182E+02  0.61467086347E+02  0.80663342012E+02  0.00000000000E+00 0.  1.
</event>
<event>
 7    1  0.2420569E-009  0.1319385E+03  0.7561462E-02  0.1224607E+00
          2   -1    0    0  501    0  0.00000000000E+00  0.00000000000E+00  0.48774641925E+03  0.48774641925E+03  0.00000000000E+00 0. -1.
         -2   -1    0    0    0  501 -0.00000000000E+00 -0.00000000000E+00 -0.40280834586E+02  0.40280834586E+02  0.00000000000E+00 0.  1.
         25    2    1    2    0    0  0.36577024188E+02  0.69048114930E+02  0.32747711765E+03  0.35915780774E+03  0.12509015709E+03 0.  0.
          5    1    3    3  502    0  0.12423713129E+02 -0.36520307581E+02  0.96935910614E+02  0.10441323997E+03  0.41800000000E+01 0.  1.
         -5    1    3    3    0  502  0.24153311059E+02  0.10556842251E+03  0.23054120704E+03  0.25474456777E+03  0.41800000000E+01 0.  1.
        -11    1    1    2    0    0 -0.61806049621E+02 -0.26531135082E+02  0.84556884281E+02  0.10804515527E+03  0.00000000000E+00 0.  1.
         11    1    1    2    0    0  0.25229025434E+02 -0.42516979848E+02  0.35431582734E+02  0.60824290828E+02  0.00000000000E+00 0. -1.
</event>
<event>
 7    1  0.2420569E-009  0.1235473E+03  0.7561462E-02  0.1237357E+00
         -1   -1    0    0    0  501 -0.00000000000E+00  0.00000000000E+00  0.28387365355E+02  0.28387365355E+02  0.00000000000E+00 0.  1.
          1   -1    0    0  501    0  0.00000000000E+00 -0.00000000000E+00 -0.67227258482E+03  0.67227258482E+03  0.00000000000E+00 0. -1.
         25    2    1    2    0    0 -0.70643003925E+01 -0.65771270552E+02 -0.47503306180E+03  0.49566016839E+03  0.12508728294E+03 0.  0.
          5    1    3    3  502    0  0.58134684496E+02 -0.30462728909E+02 -0.18780772708E+03  0.19898953276E+03  0.41800000000E+01 0.  1.
         -5    1    3    3    0  502 -0.65198984889E+02 -0.35308541643E+02 -0.28722533472E+03  0.29667063563E+03  0.41800000000E+01 0.  1.
        -11    1    1    2    0    0  0.45658368289E+02  0.31698441971E+02 -0.12707355728E+03  0.13869811382E+03  0.00000000000E+00 0. -1.
         11    1    1    2    0    0 -0.38594067896E+02  0.34072828581E+02 -0.41778600378E+02  0.66301667957E+02  0.00000000000E+00 0.  1.
</event>
<event>
 7    1  0.2420569E-009  0.8027133E+02  0.7561462E-02  0.1328283E+00
         -2   -1    0    0    0  501 -0.00000000000E+00  0.00000000000E+00  0.21792717524E+03  0.21792717524E+03  0.00000000000E+00 0. -1.
          2   -1    0    0  501    0  0.00000000000E+00 -0.00000000000E+00 -0.65515498924E+02  0.65515498924E+02  0.00000000000E+00 0.  1.
         25    2    1    2    0    0 -0.27712115861E+02  0.28752513914E+02  0.49744157332E+02  0.14041632849E+03  0.12509035013E+03 0.  0.
          5    1    3    3  502    0  0.35198586514E+02  0.30866203685E+02  0.60300390424E+02  0.76454381874E+02  0.41800000000E+01 0.  1.
         -5    1    3    3    0  502 -0.62910702375E+02 -0.21136897705E+01 -0.10556233092E+02  0.63961946616E+02  0.41800000000E+01 0.  1.
        -11    1    1    2    0    0  0.15906952756E+02  0.33466982499E+01 -0.13997564408E+02  0.21451418240E+02  0.00000000000E+00 0.  1.
         11    1    1    2    0    0  0.11805163105E+02 -0.32099212164E+02  0.11666508339E+03  0.12157492743E+03  0.00000000000E+00 0. -1.
</event>
<event>
 7    1  0.2420569E-009  0.6299831E+02  0.7561462E-02  0.1385663E+00
         -2   -1    0    0    0  501 -0.00000000000E+00  0.00000000000E+00  0.27295515774E+03  0.27295515774E+03  0.00000000000E+00 0.  1.
          2   -1    0    0  501    0  0.00000000000E+00 -0.00000000000E+00 -0.59131675912E+02  0.59131675912E+02  0.00000000000E+00 0. -1.
         25    2    1    2    0    0 -0.84997319428E+01 -0.29957535562E+02  0.19521101338E+03  0.23393263056E+03  0.12508971386E+03 0.  0.
          5    1    3    3  502    0 -0.43903271594E+02  0.53722970141E+01  0.17376085628E+03  0.17935067998E+03  0.41800000000E+01 0. -1.
         -5    1    3    3    0  502  0.35403539651E+02 -0.35329832576E+02  0.21450157099E+02  0.54581950582E+02  0.41800000000E+01 0. -1.
        -11    1    1    2    0    0  0.12999731284E+01  0.11387531717E+02  0.55264367740E+02  0.56440376952E+02  0.00000000000E+00 0.  1.
         11    1    1    2    0    0  0.71997588144E+01  0.18570003846E+02 -0.36651899292E+02  0.41713826143E+02  0.00000000000E+00 0. -1.
</event>
<event>
 7    1  0.2420569E-009  0.1140318E+03  0.7561462E-02  0.1253281E+00
         -2   -1    0    0    0  501 -0.00000000000E+00  0.00000000000E+00  0.55079192696E+02  0.55079192696E+02  0.00000000000E+00 0. -1.
          2   -1    0    0  501    0  0.00000000000E+00 -0.00000000000E+00 -0.38345987829E+03  0.38345987829E+03  0.00000000000E+00 0.  1.
         25    2    1    2    0    0  0.85232544345E+02  0.50229412400E+01 -0.11108222588E+03  0.18782130187E+03  0.12509102276E+03 0.  0.
          5    1    3    3  502    0  0.34035896439E+02  0.35307890385E+02 -0.11793987502E+03  0.12779818422E+03  0.41800000000E+01 0.  1.
         -5    1    3    3    0  502  0.51196647906E+02 -0.30284949145E+02  0.68576491333E+01  0.60023117656E+02  0.41800000000E+01 0.  1.
        -11    1    1    2    0    0  0.34425571654E+00  0.27620503512E+02 -0.88232501585E+02  0.92455313866E+02  0.00000000000E+00 0.  1.
         11    1    1    2    0    0 -0.85576800062E+02 -0.32643444752E+02 -0.12906595813E+03  0.15826245525E+03  0.00000000000E+00 0. -1.
</event>
<event>
 7    1  0.2420569E-009  0.1040547E+03  0.7561462E-02  0.1271993E+00
         -1   -1    0    0    0  501 -0.00000000000E+00  0.00000000000E+00  0.12856524138E+03  0.12856524138E+03  0.00000000000E+00 0.  1.
          1   -1    0    0  501    0  0.00000000000E+00 -0.00000000000E+00 -0.10091423397E+03  0.10091423397E+03  0.00000000000E+00 0. -1.
         25    2    1    2    0    0  0.12777960342E+02 -0.14074089292E+02 -0.14440302883E+02  0.12734900774E+03  0.12509153115E+03 0.  0.
          5    1    3    3  502    0 -0.45792079695E+02  0.25318273514E+02 -0.20563287212E+02  0.56375976421E+02  0.41800000000E+01 0.  1.
         -5    1    3    3    0  502  0.58570040037E+02 -0.39392362806E+02  0.61229843284E+01  0.70973031318E+02  0.41800000000E+01 0.  1.
        -11    1    1    2    0    0 -0.47023736496E+02 -0.20261228911E+01  0.21600974474E+01  0.47116907677E+02  0.00000000000E+00 0.  1.
         11    1    1    2    0    0  0.34245776154E+02  0.16100212183E+02  0.39931212849E+02  0.55013559931E+02  0.00000000000E+00 0. -1.
</event>
<event>
 7    1  0.2420569E-009  0.1992547E+03  0.7561462E-02  0.1150369E+00
          1   -1    0    0  501    0  0.00000000000E+00  0.00000000000E+00  0.32707181213E+03  0.32707181213E+03  0.00000000000E+00 0. -1.
         -1   -1    0    0    0  501 -0.00000000000E+00 -0.00000000000E+00 -0.12626999515E+03  0.12626999515E+03  0.00000000000E+00 0.  1.
         25    2    1    2    0    0 -0.10120400894E+03  0.13550408376E+03  0.12434445101E+03  0.24436149098E+03  0.12508951849E+03 0.  0.
          5    1    3    3  502    0  0.13502118869E+02  0.73649109989E+02  0.20696936658E+02  0.77796749310E+02  0.41800000000E+01 0. -1.
         -5    1    3    3    0  502 -0.11470612780E+03  0.61854973768E+02  0.10364751435E+03  0.16656474167E+03  0.41800000000E+01 0. -1.
        -11    1    1    2    0    0  0.57905846462E+02 -0.79785505014E+01  0.34713962312E+02  0.67983847361E+02  0.00000000000E+00 0.  1.
         11    1    1    2    0    0  0.43298162473E+02 -0.12752553326E+03  0.41743403652E+02  0.14099646894E+03  0.00000000000E+00 0. -1.
</event>
<event>
 7    1  0.2420569E-009  0.1051369E+03  0.7561462E-02  0.1269850E+00
          1   -1    0    0  501    0  0.00000000000E+00  0.00000000000E+00  0.69661118572E+03  0.69661118572E+03  0.00000000000E+00 0. -1.
         -1   -1    0    0    0  501 -0.00000000000E+00 -0.00000000000E+00 -0.36390285014E+02  0.36390285014E+02  0.00000000000E+00 0.  1.
         25    2    1    2    0    0  0.67882860247E+02 -0.42074699539E+02  0.53581335613E+03  0.55598523292E+03  0.12508102798E+03 0.  0.
          5    1    3    3  502    0  0.71597952978E+02 -0.49020256840E+02  0.17806629423E+03  0.19812705517E+03  0.41800000000E+01 0.  1.
         -5    1    3    3    0  502 -0.37150927313E+01  0.69455573014E+01  0.35774706190E+03  0.35785817774E+03  0.41800000000E+01 0.  1.
        -11    1    1    2    0    0  0.19015845455E+02  0.31843633128E+01 -0.13017778479E+01  0.19324522598E+02  0.00000000000E+00 0.  1.
         11    1    1    2    0    0 -0.86898705702E+02  0.38890336226E+02  0.12570932243E+03  0.15769171522E+03  0.00000000000E+00 0. -1.
</event>
<event>
 7    1  0.2420569E-009  0.1364225E+03  0.7561462E-02  0.1218225E+00
          1   -1    0    0  501    0  0.00000000000E+00  0.00000000000E+00  0.65907749600E+03  0.65907749600E+03  0.00000000000E+00 0. -1.
         -1   -1    0    0    0  501 -0.00000000000E+00 -0.00000000000E+00 -0.28456135319E+02  0.28456135319E+02  0.00000000000E+00 0.  1.
         25    2    1    2    0    0  0.50462838748E+02  0.69837587053E+02  0.32751799174E+03  0.36102456308E+03  0.12508762357E+03 0.  0.
          5    1    3    3  502    0  0.57691024979E+02 -0.20043563037E+02  0.14546182415E+03  0.15781829256E+03  0.41800000000E+01 0. -1.
         -5    1    3    3    0  502 -0.72281862309E+01  0.89881150090E+02  0.18205616759E+03  0.20320627052E+03  0.41800000000E+01 0. -1.
        -11    1    1    2    0    0 -0.60697259157E+02 -0.11057932436E+02  0.15023839217E+03  0.16241308328E+03  0.00000000000E+00 0. -1.
         11    1    1    2    0    0  0.10234420409E+02 -0.58779654618E+02  0.15286497677E+03  0.16409598496E+03  0.00000000000E+00 0.  1.
</event>
<event>
 7    1  0.2420569E-009  0.1989259E+03  0.7561462E-02  0.1150648E+00
         -2   -1    0    0    0  501 -0.00000000000E+00  0.00000000000E+00  0.70742101887E+02  0.70742101887E+02  0.00000000000E+00 0.  1.
          2   -1    0    0  501    0  0.00000000000E+00 -0.00000000000E+00 -0.63303974437E+03  0.63303974437E+03  0.00000000000E+00 0. -1.
         25    2    1    2    0    0 -0.16066435472E+03  0.82937729630E+02 -0.26633451678E+03  0.34536092475E+03  0.12509353156E+03 0.  0.
          5    1    3    3  502    0  0.11539402686E+02  0.32803815010E+02 -0.76667354713E+02  0.84288811667E+02  0.41800000000E+01 0.  1.
         -5    1    3    3    0  502 -0.17220375741E+03  0.50133914619E+02 -0.18966716207E+03  0.26107211308E+03  0.41800000000E+01 0.  1.
        -11    1    1    2    0    0  0.97501619052E+02 -0.66938135516E+02 -0.11054411589E+03  0.16188663090E+03  0.00000000000E+00 0. -1.
         11    1    1    2    0    0  0.63162735672E+02 -0.15999594114E+02 -0.18541900981E+03  0.19653429061E+03  0.00000000000E+00 0.  1.
</event>
<event>
 7    1  0.2420569E-009  0.7343748E+02  0.7561462E-02  0.1348779E+00
         -2   -1    0    0    0  501 -0.00000000000E+00  0.00000000000E+00  0.13682355204E+02  0.13682355204E+02  0.00000000000E+00 0.  1.
          2   -1    0    0  501    0  0.00000000000E+00 -0.00000000000E+00 -0.13496466382E+04  0.13496466382E+04  0.00000000000E+00 0. -1.
         25    2    1    2    0    0 -0.40957397409E+02 -0.18089881621E+02 -0.10734102852E+04  0.10816020101E+04  0.12509402731E+03 0.  0.
          5    1    3    3  502    0  0.22364111312E+01 -0.57512632711E+01 -0.95281160431E+03  0.95284075494E+03  0.41800000000E+01 0. -1.
         -5    1    3    3    0  502 -0.43193808540E+02 -0.12338618350E+02 -0.12059868086E+03  0.12876125513E+03  0.41800000000E+01 0. -1.
        -11    1    1    2    0    0 -0.19157421714E+02 -0.16209166099E+02 -0.12777492118E+03  0.13021587597E+03  0.00000000000E+00 0. -1.
         11    1    1    2    0    0  0.60114819123E+02  0.34299047720E+02 -0.13477907669E+03  0.15151110741E+03  0.00000000000E+00 0.  1.
</event>
<event>
 7    1  0.2420569E-009  0.9576504E+02  0.7561462E-02  0.1289462E+00
         -2   -1    0    0    0  501 -0.00000000000E+00  0.00000000000E+00  0.22689205663E+02  0.22689205663E+02  0.00000000000E+00 0.  1.
          2   -1    0    0  501    0  0.00000000000E+00 -0.00000000000E+00 -0.43879556372E+03  0.43879556372E+03  0.00000000000E+00 0. -1.
         25    2    1    2    0    0  0.95429918978E+01 -0.68591329021E-01 -0.22924906565E+03  0.26132931388E+03  0.12508718076E+03 0.  0.
          5    1    3    3  502    0  0.62826044307E+02  0.14369280468E+02 -0.84503519193E+02  0.10635744083E+03  0.41800000000E+01 0. -1.
         -5    1    3    3    0  502 -0.53283052409E+02 -0.14437871797E+02 -0.14474554645E+03  0.15497187304E+03  0.41800000000E+01 0. -1.
        -11    1    1    2    0    0  0.13100434335E+02 -0.30701742828E+02 -0.80584682832E+02  0.87224477640E+02  0.00000000000E+00 0.  1.
         11    1    1    2    0    0 -0.22643426232E+02  0.30770334157E+02 -0.10627260957E+03  0.11293097786E+03  0.00000000000E+00 0. -1.
</event>
<event>
 7    1  0.2420569E-009  0.2107418E+03  0.7561462E-02  0.1140980E+00
         -2   -1    0    0    0  501 -0.00000000000E+00  0.00000000000E+00  0.99075086934E+02  0.99075086934E+02  0.00000000000E+00 0.  1.
          2   -1    0    0  501    0  0.00000000000E+00 -0.00000000000E+00 -0.61505203548E+03  0.61505203548E+03  0.00000000000E+00 0. -1.
         25    2    1    2    0    0  0.14355970951E+02 -0.18652130150E+03 -0.95482171314E+02  0.24445837670E+03  0.12508702205E+03 0.  0.
          5    1    3    3  502    0  0.38855268260E+02 -0.85353203775E+01 -0.39527950374E+02  0.56236241217E+02  0.41800000000E+01 0. -1.
         -5    1    3    3    0  502 -0.24499297309E+02 -0.17798598112E+03 -0.55954220939E+02  0.18822213548E+03  0.41800000000E+01 0. -1.
        -11    1    1    2    0    0 -0.33651426607E+02  0.33313352259E+02 -0.15984469601E+03  0.16671090185E+03  0.00000000000E+00 0. -1.
         11    1    1    2    0    0  0.19295455657E+02  0.15320794924E+03 -0.26065008122E+03  0.30295784386E+03  0.00000000000E+00 0.  1.
</event>
<event>
 7    1  0.2420569E-009  0.9004062E+02  0.7561462E-02  0.1302753E+00
          1   -1    0    0  501    0  0.00000000000E+00  0.00000000000E+00  0.73778076534E+02  0.73778076534E+02  0.00000000000E+00 0. -1.
         -1   -1    0    0    0  501 -0.00000000000E+00 -0.00000000000E+00 -0.18175829435E+03  0.18175829435E+03  0.00000000000E+00 0.  1.
         25    2    1    2    0    0  0.15172737514E+02  0.13712800704E+02 -0.24865527789E+02  0.12917031487E+03  0.12509365653E+03 0.  0.
          5    1    3    3  502    0  0.29120848700E+02 -0.45157717890E+02 -0.39457097626E+02  0.66795046726E+02  0.41800000000E+01 0.  1.
         -5    1    3    3    0  502 -0.13948111186E+02  0.58870518594E+02  0.14591569837E+02  0.62375268139E+02  0.41800000000E+01 0.  1.
        -11    1    1    2    0    0  0.18140682708E+02  0.13429346442E+02  0.93296023098E+01  0.24422800704E+02  0.00000000000E+00 0. -1.
         11    1    1    2    0    0 -0.33313420222E+02 -0.27142147146E+02 -0.92444292332E+02  0.10194325531E+03  0.00000000000E+00 0.  1.
</event>
<event>
 7    1  0.2420569E-009  0.1061028E+03  0.7561462E-02  0.1267962E+00
          2   -1    0    0  501    0  0.00000000000E+00  0.00000000000E+00  0.71341726360E+03  0.71341726360E+03  0.00000000000E+00 0. -1.
         -2   -1    0    0    0  501 -0.00000000000E+00 -0.00000000000E+00 -0.17120597297E+02  0.17120597297E+02  0.00000000000E+00 0.  1.
         25    2    1    2    0    0 -0.41114920244E+01  0.23388049723E+02  0.38355173094E+03  0.40413358543E+03  0.12509244311E+03 0.  0.
          5    1    3    3  502    0 -0.43531671405E+02 -0.31598324992E+02  0.23070793332E+03  0.23693265594E+03  0.41800000000E+01 0. -1.
         -5    1    3    3    0  502  0.39420179381E+02  0.54986374715E+02  0.15284379763E+03  0.16720092948E+03  0.41800000000E+01 0. -1.
        -11    1    1    2    0    0  0.18030791295E+02 -0.53950520472E+02  0.23365777075E+03  0.24048226946E+03  0.00000000000E+00 0. -1.
         11    1    1    2    0    0 -0.13919299270E+02  0.30562470750E+02  0.79087164614E+02  0.85922006012E+02  0.00000000000E+00 0.  1.
</event>
<event>
 7    1  0.2420569E-009  0.1395225E+03  0.7561462E-02  0.1213973E+00
         -2   -1    0    0    0  501 -0.00000000000E+00  0.00000000000E+00  0.70759226650E+02  0.70759226650E+02  0.00000000000E+00 0.  1.
          2   -1    0    0  501    0  0.00000000000E+00 -0.00000000000E+00 -0.27746692561E+03  0.27746692561E+03  0.00000000000E+00 0. -1.
         25    2    1    2    0    0 -0.86943679731E+02 -0.12142585194E+02 -0.99332775544E+02  0.18226799844E+03  0.12509187478E+03 0.  0.
          5    1    3    3  502    0 -0.38674242512E+02 -0.68302381550E+02 -0.48810984312E+02  0.92525115232E+02  0.41800000000E+01 0. -1.
         -5    1    3    3    0  502 -0.48269437219E+02  0.56159796356E+02 -0.50521791233E+02  0.89742883203E+02  0.41800000000E+01 0. -1.
        -11    1    1    2    0    0  0.14962057468E+02  0.44796674408E+02 -0.34974302142E+02  0.58769099126E+02  0.00000000000E+00 0.  1.
         11    1    1    2    0    0  0.71981622263E+02 -0.32654089215E+02 -0.72400621268E+02  0.10718905469E+03  0.00000000000E+00 0. -1.
</event>
<event>
 7    1  0.2420569E-009  0.1113587E+03  0.7561462E-02  0.1258074E+00
          1   -1    0    0  501    0  0.00000000000E+00  0.00000000000E+00  0.22148950948E+03  0.22148950948E+03  0.00000000000E+00 0.  1.
         -1   -1    0    0    0  501 -0.00000000000E+00 -0.00000000000E+00 -0.88548117042E+02  0.88548117042E+02  0.00000000000E+00 0. -1.
         25    2    1    2    0    0  0.51473996737E+02  0.15260941646E+02  0.15116747449E+03  0.20342634778E+03  0.12509278536E+03 0.  0.
          5    1    3    3  502    0 -0.14988756023E+02 -0.34790273290E+02  0.98203663323E+01  0.39356548599E+02  0.41800000000E+01 0.  1.
         -5    1    3    3    0  502  0.66462752761E+02  0.50051214937E+02  0.14134710815E+03  0.16406979918E+03  0.41800000000E+01 0.  1.
        -11    1    1    2    0    0  0.14747305245E+02  0.21107468964E+02  0.74693211988E+01  0.26810427397E+02  0.00000000000E+00 0.  1.
         11    1    1    2    0    0 -0.66221301982E+02 -0.36368410610E+02 -0.25695403248E+02  0.79800851340E+02  0.00000000000E+00 0. -1.
</event>
<event>
 7    1  0.3233046E-009  0.6574481E+02  0.7561462E-02  0.1375192E+00
         -2   -1    0    0    0  501 -0.00000000000E+00  0.00000000000E+00  0.42664074022E+02  0.42664074022E+02  0.00000000000E+00 0.  1.
          2   -1    0    0  501    0  0.00000000000E+00 -0.00000000000E+00 -0.34326500184E+03  0.34326500184E+03  0.00000000000E+00 0. -1.
         25    2    1    2    0    0  0.42177958855E+02 -0.15550346588E+02 -0.12225929245E+03  0.18059699217E+03  0.12508855063E+03 0.  0.
          5    1    3    3  502    0  0.39393496534E+02 -0.80196848722E+01  0.14946222114E+02  0.43093211416E+02  0.41800000000E+01 0. -1.
         -5    1    3    3    0  502  0.27844623207E+01 -0.75306617157E+01 -0.13720551456E+03  0.13750378075E+03  0.41800000000E+01 0. -1.
        -11    1    1    2    0    0 -0.23809294398E+02  0.42905716515E+02 -0.40551518159E+02  0.63656960612E+02  0.00000000000E+00 0.  1.
         11    1    1    2    0    0 -0.18368664457E+02 -0.27355369927E+02 -0.13779011721E+03  0.14167512308E+03  0.00000000000E+00 0. -1.
</event>
<event>
 7    1  0.2420569E-009  0.9680419E+02  0.7561462E-02  0.1287164E+00
         -1   -1    0    0    0  501 -0.00000000000E+00  0.00000000000E+00  0.54899343744E+02  0.54899343744E+02  0.00000000000E+00 0.  1.
          1   -1    0    0  501    0  0.00000000000E+00 -0.00000000000E+00 -0.27970206184E+03  0.27970206184E+03  0.00000000000E+00 0. -1.
         25    2    1    2    0    0 -0.31947306684E+02  0.37501548950E+02 -0.79905538168E+02  0.15639490444E+03  0.12508986580E+03 0.  0.
          5    1    3    3  502    0  0.27661860733E+02 -0.62401014941E+01 -0.77135190072E+02  0.82288683021E+02  0.41800000000E+01 0. -1.
         -5    1    3    3    0  502 -0.59609167417E+02  0.43741650444E+02 -0.27703480956E+01  0.74106221414E+02  0.41800000000E+01 0. -1.
        -11    1    1    2    0    0 -0.14867710178E+02  0.14605882731E+02 -0.45255317809E+01  0.21327471818E+02  0.00000000000E+00 0.  1.
         11    1    1    2    0    0  0.46815016861E+02 -0.52107431681E+02 -0.14037164815E+03  0.15687902933E+03  0.00000000000E+00 0. -1.
</event>
<event>
 7    1  0.2420569E-009  0.1417857E+03  0.7561462E-02  0.1210946E+00
         -1   -1    0    0    0  501 -0.00000000000E+00  0.00000000000E+00  0.51731337450E+02  0.51731337450E+02  0.00000000000E+00 0.  1.
          1   -1    0    0  501    0  0.00000000000E+00 -0.00000000000E+00 -0.55221283798E+03  0.55221283798E+03  0.00000000000E+00 0. -1.
         25    2    1    2    0    0  0.10137605506E+03 -0.62904310343E+02 -0.35869317715E+03  0.39817620474E+03  0.12509771337E+03 0.  0.
          5    1    3    3  502    0 -0.13751243893E+02 -0.15904699337E+02 -0.17502140562E+03  0.17632929705E+03  0.41800000000E+01 0.  1.
         -5    1    3    3    0  502  0.11512729895E+03 -0.46999611006E+02 -0.18367177152E+03  0.22184690769E+03  0.41800000000E+01 0.  1.
        -11    1    1    2    0    0 -0.21333859787E+02  0.52910468745E+02 -0.21560854647E+02  0.60987881824E+02  0.00000000000E+00 0. -1.
         11    1    1    2    0    0 -0.80042195274E+02  0.99938415978E+01 -0.12022746874E+03  0.14478008887E+03  0.00000000000E+00 0.  1.
</event>
<event>
 7    1  0.2420569E-009  0.8011911E+02  0.7561462E-02  0.1328714E+00
          4   -1    0    0  501    0  0.00000000000E+00  0.00000000000E+00  0.73322066625E+02  0.73322066625E+02  0.00000000000E+00 0. -1.
         -4   -1    0    0    0  501 -0.00000000000E+00 -0.00000000000E+00 -0.27756297648E+03  0.27756297648E+03  0.00000000000E+00 0.  1.
         25    2    1    2    0    0  0.33187256231E+02  0.27333616116E+02 -0.21469772136E+03  0.25217281995E+03  0.12508996369E+03 0.  0.
          5    1    3    3  502    0 -0.19674055878E+02  0.19981352474E+02 -0.19190679140E+03  0.19398972114E+03  0.41800000000E+01 0.  1.
         -5    1    3    3    0  502  0.52861312109E+02  0.73522636424E+01 -0.22790929958E+02  0.58183098808E+02  0.41800000000E+01 0.  1.
        -11    1    1    2    0    0 -0.13368691755E+02 -0.47936449845E+02  0.35157391117E+02  0.60931660843E+02  0.00000000000E+00 0. -1.
         11    1    1    2    0    0 -0.19818564476E+02  0.20602833729E+02 -0.24700579610E+02  0.37780562312E+02  0.00000000000E+00 0.  1.
</event>
<event>
 7    1  0.2420569E-009  0.1318077E+03  0.7561462E-02  0.1224798E+00
          1   -1    0    0  501    0  0.00000000000E+00  0.00000000000E+00  0.51007357299E+03  0.51007357299E+03  0.00000000000E+00 0. -1.
         -1   -1    0    0    0  501 -0.00000000000E+00 -0.00000000000E+00 -0.38726935206E+02  0.38726935206E+02  0.00000000000E+00 0.  1.
         25    2    1    2    0    0 -0.72835530308E+02 -0.30269642683E+02  0.17945723027E+03  0.23254143987E+03  0.12509739412E+03 0.  0.
          5    1    3    3  502    0  0.33575122233E+02  0.21386721140E+01  0.24865630376E+02  0.42043248273E+02  0.41800000000E+01 0.  1.
         -5    1    3    3    0  502 -0.10641065254E+03 -0.32408314797E+02  0.15459159990E+03  0.19049819159E+03  0.41800000000E+01 0.  1.
        -11    1    1    2    0    0 -0.64366665786E+00 -0.25900997100E+02  0.99114328494E+02  0.10244474643E+03  0.00000000000E+00 0. -1.
         11    1    1    2    0    0  0.73479196966E+02  0.56170639783E+02  0.19277507902E+03  0.21381432191E+03  0.00000000000E+00 0.  1.
</event>
<event>
 7    1  0.2420569E-009  0.1621598E+03  0.7561462E-02  0.1186280E+00
         -2   -1    0    0    0  501 -0.00000000000E+00  0.00000000000E+00  0.77428065194E+02  0.77428065194E+02  0.00000000000E+00 0.  1.
          2   -1    0    0  501    0  0.00000000000E+00 -0.00000000000E+00 -0.36811205882E+03  0.36811205882E+03  0.00000000000E+00 0. -1.
         25    2    1    2    0    0 -0.20624036067E+02  0.12768254363E+03 -0.16696796006E+03  0.24547438606E+03  0.12510472298E+03 0.  0.
          5    1    3    3  502    0  0.83509328775E+01  0.14201943134E+03 -0.11015669967E+03  0.17997563125E+03  0.41800000000E+01 0. -1.
         -5    1    3    3    0  502 -0.28974968945E+02 -0.14336887717E+02 -0.56811260391E+02  0.65498754812E+02  0.41800000000E+01 0. -1.
        -11    1    1    2    0    0  0.43791665863E+02 -0.11484249412E+03 -0.73276450071E+02  0.14309418782E+03  0.00000000000E+00 0.  1.
         11    1    1    2    0    0 -0.23167629796E+02 -0.12840049513E+02 -0.50439583488E+02  0.56971550131E+02  0.00000000000E+00 0. -1.
</event>
<event>
 7    1  0.2420569E-009  0.1449625E+03  0.7561462E-02  0.1206803E+00
          1   -1    0    0  501    0  0.00000000000E+00  0.00000000000E+00  0.42350612567E+03  0.42350612567E+03  0.00000000000E+00 0. -1.
         -1   -1    0    0    0  501 -0.00000000000E+00 -0.00000000000E+00 -0.10526275132E+03  0.10526275132E+03  0.00000000000E+00 0.  1.
         25    2    1    2    0    0  0.11898319767E+03 -0.52321258698E+02  0.85368101826E+01  0.18059611501E+03  0.12509022419E+03 0.  0.
          5    1    3    3  502    0  0.11015819095E+03 -0.28112942318E+02  0.55716453404E+02  0.12667659665E+03  0.41800000000E+01 0.  1.
         -5    1    3    3    0  502  0.88250067230E+01 -0.24208316380E+02 -0.47179643221E+02  0.53919518360E+02  0.41800000000E+01 0.  1.
        -11    1    1    2    0    0 -0.17836109902E+02 -0.19177458041E+02  0.19545685810E+02  0.32679283149E+02  0.00000000000E+00 0.  1.
         11    1    1    2    0    0 -0.10114708777E+03  0.71498716739E+02  0.29016087835E+03  0.31549347883E+03  0.00000000000E+00 0. -1.
</event>
<event>
 7    1  0.2420569E-009  0.9477346E+02  0.7561462E-02  0.1291687E+00
          2   -1    0    0  501    0  0.00000000000E+00  0.00000000000E+00  0.45169444190E+03  0.45169444190E+03  0.00000000000E+00 0. -1.
         -2   -1    0    0    0  501 -0.00000000000E+00 -0.00000000000E+00 -0.30727353673E+02  0.30727353673E+02  0.00000000000E+00 0.  1.
         25    2    1    2    0    0 -0.33103121098E+02  0.15794661619E+02  0.28374359167E+03  0.31225491599E+03  0.12508964301E+03 0.  0.
          5    1    3    3  502    0  0.29740793057E+02  0.20411768218E+02  0.21833822864E+03  0.22133732071E+03  0.41800000000E+01 0.  1.
         -5    1    3    3    0  502 -0.62843914156E+02 -0.46171065987E+01  0.65405363024E+02  0.90917595283E+02  0.41800000000E+01 0.  1.
        -11    1    1    2    0    0  0.52763068589E+01  0.33264681118E+02  0.17800901941E+02  0.38095282304E+02  0.00000000000E+00 0.  1.
         11    1    1    2    0    0  0.27826814240E+02 -0.49059342737E+02  0.11942259462E+03  0.13207159727E+03  0.00000000000E+00 0. -1.
</event>
<event>
 7    1  0.2420569E-009  0.8291197E+02  0.7561462E-02  0.1320985E+00
         -2   -1    0    0    0  501 -0.00000000000E+00  0.00000000000E+00  0.38578214358E+02  0.38578214358E+02  0.00000000000E+00 0.  1.
          2   -1    0    0  501    0  0.00000000000E+00 -0.00000000000E+00 -0.44652997621E+03  0.44652997621E+03  0.00000000000E+00 0. -1.
         25    2    1    2    0    0  0.17565122634E+02 -0.59978119289E+02 -0.15851950197E+03  0.21137953834E+03  0.12508784273E+03 0.  0.
          5    1    3    3  502    0 -0.16183225451E+02  0.65872849323E+00  0.16231050753E+02  0.23307726568E+02  0.41800000000E+01 0. -1.
         -5    1    3    3    0  502  0.33748348085E+02 -0.60636847782E+02 -0.17475055272E+03  0.18807181177E+03  0.41800000000E+01 0. -1.
        -11    1    1    2    0    0 -0.33607585317E+02  0.27783941572E+02 -0.22740979732E+03  0.23155265733E+03  0.00000000000E+00 0. -1.
         11    1    1    2    0    0  0.16042462683E+02  0.32194177716E+02 -0.22022462559E+02  0.42175994890E+02  0.00000000000E+00 0.  1.
</event>
<event>
 7    1  0.2420569E-009  0.1150448E+03  0.7561462E-02  0.1251503E+00
          2   -1    0    0  501    0  0.00000000000E+00  0.00000000000E+00  0.51829552166E+03  0.51829552166E+03  0.00000000000E+00 0. -1.
         -2   -1    0    0    0  501 -0.00000000000E+00 -0.00000000000E+00 -0.28810878760E+02  0.28810878760E+02  0.00000000000E+00 0.  1.
         25    2    1    2    0    0 -0.52986990703E+02  0.12137405000E+02  0.31091446470E+03  0.33951498444E+03  0.12509069714E+03 0.  0.
          5    1    3    3  502    0 -0.92444768587E+02  0.22711083519E+02  0.22114135406E+03  0.24079617818E+03  0.41800000000E+01 0.  1.
         -5    1    3    3    0  502  0.39457777884E+02 -0.10573678518E+02  0.89773110648E+02  0.98718806255E+02  0.41800000000E+01 0.  1.
        -11    1    1    2    0    0  0.22736745804E+02 -0.44172447616E+02  0.45322385013E+02  0.67247924291E+02  0.00000000000E+00 0.  1.
         11    1    1    2    0    0  0.30250244899E+02  0.32035042616E+02  0.13324779318E+03  0.14034349169E+03  0.00000000000E+00 0. -1.
</event>
<event>
 7    1  0.2420569E-009  0.7605783E+02  0.7561462E-02  0.1340626E+00
          1   -1    0    0  501    0  0.00000000000E+00  0.00000000000E+00  0.23573585406E+03  0.23573585406E+03  0.00000000000E+00 0. -1.
         -1   -1    0    0    0  501 -0.00000000000E+00 -0.00000000000E+00 -0.51072643418E+02  0.51072643418E+02  0.00000000000E+00 0.  1.
         25    2    1    2    0    0  0.72695883846E+01 -0.12105853367E+02  0.11306968755E+03  0.16921087148E+03  0.12509263042E+03 0.  0.
          5    1    3    3  502    0  0.25062163445E+02 -0.57064117194E+02  0.10172234001E+03  0.11937056741E+03  0.41800000000E+01 0.  1.
         -5    1    3    3    0  502 -0.17792575060E+02  0.44958263827E+02  0.11347347538E+02  0.49840304069E+02  0.41800000000E+01 0.  1.
        -11    1    1    2    0    0 -0.21432109674E+02 -0.14940001453E+01 -0.16659642235E+02  0.27186596715E+02  0.00000000000E+00 0.  1.
         11    1    1    2    0    0  0.14162521289E+02  0.13599853512E+02  0.88253165328E+02  0.90411029278E+02  0.00000000000E+00 0. -1.
</event>
<event>
 7    1  0.2420569E-009  0.9957114E+02  0.7561462E-02  0.1281200E+00
          1   -1    0    0  501    0  0.00000000000E+00  0.00000000000E+00  0.31855530380E+03  0.31855530380E+03  0.00000000000E+00 0. -1.
         -1   -1    0    0    0  501 -0.00000000000E+00 -0.00000000000E+00 -0.41696008513E+02  0.41696008513E+02  0.00000000000E+00 0.  1.
         25    2    1    2    0    0 -0.58385506293E+01  0.26988676238E+01  0.97455450699E+02  0.15870407955E+03  0.12509215578E+03 0.  0.
          5    1    3    3  502    0 -0.37035302018E+02 -0.47475146754E+02  0.72751451997E+02  0.94529092467E+02  0.41800000000E+01 0.  1.
         -5    1    3    3    0  502  0.31196751389E+02  0.50174014377E+02  0.24703998701E+02  0.64174987088E+02  0.41800000000E+01 0.  1.
        -11    1    1    2    0    0  0.18122693041E+02  0.35267554800E+02  0.13984547448E+03  0.14535814100E+03  0.00000000000E+00 0. -1.
         11    1    1    2    0    0 -0.12284142412E+02 -0.37966422423E+02  0.39558370115E+02  0.56189091758E+02  0.00000000000E+00 0.  1.
</event>
<event>
 7    1  0.2420569E-009  0.8362624E+02  0.7561462E-02  0.1319065E+00
         -4   -1    0    0    0  501 -0.00000000000E+00  0.00000000000E+00  0.73581574226E+02  0.73581574226E+02  0.00000000000E+00 0.  1.
          4   -1    0    0  501    0  0.00000000000E+00 -0.00000000000E+00 -0.24260791746E+03  0.24260791746E+03  0.00000000000E+00 0. -1.
         25    2    1    2    0    0 -0.52932459663E+01 -0.24824137114E+02 -0.17659348986E+03  0.21789194616E+03  0.12508950118E+03 0.  0.
          5    1    3    3  502    0  0.98166135058E+01 -0.71457272993E+02 -0.70501240120E+02  0.10094753599E+03  0.41800000000E+01 0.  1.
         -5    1    3    3    0  502 -0.15109859472E+02  0.46633135880E+02 -0.10609224974E+03  0.11694441017E+03  0.41800000000E+01 0.  1.
        -11    1    1    2    0    0  0.87289698422E+01  0.34474005916E+02 -0.37735143819E+02  0.51851644887E+02  0.00000000000E+00 0. -1.
         11    1    1    2    0    0 -0.34357238759E+01 -0.96498688025E+01  0.45302290445E+02  0.46445900638E+02  0.00000000000E+00 0.  1.
</event>
<event>
 7    1  0.2420569E-009  0.9434465E+02  0.7561462E-02  0.1292659E+00
         -1   -1    0    0    0  501 -0.00000000000E+00  0.00000000000E+00  0.45033807864E+02  0.45033807864E+02  0.00000000000E+00 0.  1.
          1   -1    0    0  501    0  0.00000000000E+00 -0.00000000000E+00 -0.29374850924E+03  0.29374850924E+03  0.00000000000E+00 0. -1.
         25    2    1    2    0    0 -0.20429626289E+02  0.10043994496E+02 -0.19271518201E+03  0.23088079002E+03  0.12509415001E+03 0.  0.
          5    1    3    3  502    0 -0.50960887130E+02 -0.38950694677E+02 -0.69030777390E+02  0.94323322991E+02  0.41800000000E+01 0. -1.
         -5    1    3    3    0  502  0.30531260841E+02  0.48994689172E+02 -0.12368440462E+03  0.13655746703E+03  0.41800000000E+01 0. -1.
        -11    1    1    2    0    0  0.13850419066E+02  0.26231756787E+02  0.10828601510E+02  0.31578438580E+02  0.00000000000E+00 0.  1.
         11    1    1    2    0    0  0.65792072224E+01 -0.36275751283E+02 -0.66828120876E+02  0.76323088503E+02  0.00000000000E+00 0. -1.
</event>
<event>
 7    1  0.2420569E-009  0.1108222E+03  0.7561462E-02  0.1259055E+00
         -2   -1    0    0    0  501 -0.00000000000E+00  0.00000000000E+00  0.60740696725E+02  0.60740696725E+02  0.00000000000E+00 0.  1.
          2   -1    0    0  501    0  0.00000000000E+00 -0.00000000000E+00 -0.46357394688E+03  0.46357394688E+03  0.00000000000E+00 0. -1.
         25    2    1    2    0    0 -0.73333789875E+01  0.84722392408E+02 -0.36445320849E+03  0.39459502929E+03  0.12508970274E+03 0.  0.
          5    1    3    3  502    0 -0.25686167811E+02 -0.51080134955E+01 -0.98244778558E+01  0.28281863160E+02  0.41800000000E+01 0.  1.
         -5    1    3    3    0  502  0.18352788823E+02  0.89830405904E+02 -0.35462873064E+03  0.36631316612E+03  0.41800000000E+01 0.  1.
        -11    1    1    2    0    0  0.32182139410E+02 -0.61099814411E+02  0.10668313577E+02  0.69876250133E+02  0.00000000000E+00 0.  1.
         11    1    1    2    0    0 -0.24848760423E+02 -0.23622577998E+02 -0.49048355243E+02  0.59843364192E+02  0.00000000000E+00 0. -1.
</event>
<event>
 7    1  0.2569802E-009  0.3404981E+03  0.7561462E-02  0.1066584E+00
         -1   -1    0    0    0  501 -0.00000000000E+00  0.00000000000E+00  0.78991686900E+02  0.78991686900E+02  0.00000000000E+00 0.  1.
          1   -1    0    0  501    0  0.00000000000E+00 -0.00000000000E+00 -0.17858760933E+04  0.17858760933E+04  0.00000000000E+00 0. -1.
         25    2    1    2    0    0  0.32632272681E+03 -0.60394515202E+02 -0.52227324797E+03  0.63130863138E+03  0.12508886044E+03 0.  0.
          5    1    3    3  502    0  0.11797838909E+03  0.21889542611E+02 -0.11379910348E+03  0.16542599772E+03  0.41800000000E+01 0. -1.
         -5    1    3    3    0  502  0.20834433772E+03 -0.82284057813E+02 -0.40847414448E+03  0.46588263366E+03  0.41800000000E+01 0. -1.
        -11    1    1    2    0    0 -0.22038021212E+03  0.12816946893E+02 -0.88786631266E+03  0.91489797309E+03  0.00000000000E+00 0.  1.
         11    1    1    2    0    0 -0.10594251469E+03  0.47577568309E+02 -0.29674484582E+03  0.31866117578E+03  0.00000000000E+00 0. -1.
</event>
<event>
 7    1  0.2420569E-009  0.1083637E+03  0.7561462E-02  0.1263630E+00
         -1   -1    0    0    0  501 -0.00000000000E+00  0.00000000000E+00  0.14629266934E+03  0.14629266934E+03  0.00000000000E+00 0.  1.
          1   -1    0    0  501    0  0.00000000000E+00 -0.00000000000E+00 -0.10632231875E+03  0.10632231875E+03  0.00000000000E+00 0. -1.
         25    2    1    2    0    0  0.33361710825E+02  0.34261863795E+02 -0.16486379998E+02  0.13492925286E+03  0.12508886239E+03 0.  0.
          5    1    3    3  502    0  0.74996422672E+02  0.31744435034E+02  0.14468718242E+02  0.82819012170E+02  0.41800000000E+01 0.  1.
         -5    1    3    3    0  502 -0.41634711847E+02  0.25174287614E+01 -0.30955098239E+02  0.52110240694E+02  0.41800000000E+01 0.  1.
        -11    1    1    2    0    0 -0.43020238266E+02  0.13064741563E+02  0.21578372744E+01  0.45012049878E+02  0.00000000000E+00 0. -1.
         11    1    1    2    0    0  0.96585274404E+01 -0.47326605358E+02  0.54298893315E+02  0.72673685349E+02  0.00000000000E+00 0.  1.
</event>
<event>
 7    1  0.2420569E-009  0.7264422E+02  0.7561462E-02  0.1351325E+00
          1   -1    0    0  501    0  0.00000000000E+00  0.00000000000E+00  0.31496791307E+02  0.31496791307E+02  0.00000000000E+00 0. -1.
         -1   -1    0    0    0  501 -0.00000000000E+00 -0.00000000000E+00 -0.39119098633E+03  0.39119098633E+03  0.00000000000E+00 0.  1.
         25    2    1    2    0    0  0.86435839721E+01  0.74072905450E+01 -0.16466008030E+03  0.20709995598E+03  0.12509144744E+03 0.  0.
          5    1    3    3  502    0  0.15908845498E+02 -0.27559641770E+02 -0.16795285994E+03  0.17099199040E+03  0.41800000000E+01 0.  1.
         -5    1    3    3    0  502 -0.72652615255E+01  0.34966932315E+02  0.32927796343E+01  0.36107965579E+02  0.41800000000E+01 0.  1.
        -11    1    1    2    0    0  0.26353329809E+02 -0.26497041112E+02 -0.15363685956E+03  0.15811665249E+03  0.00000000000E+00 0.  1.
         11    1    1    2    0    0 -0.34996913781E+02  0.19089750567E+02 -0.41397255166E+02  0.57471169174E+02  0.00000000000E+00 0. -1.
</event>
<event>
 7    1  0.2420569E-009  0.1077586E+03  0.7561462E-02  0.1264778E+00
          3   -1    0    0  501    0  0.00000000000E+00  0.00000000000E+00  0.36816811042E+03  0.36816811042E+03  0.00000000000E+00 0. -1.
         -3   -1    0    0    0  501 -0.00000000000E+00 -0.00000000000E+00 -0.37613478140E+02  0.37613478140E+02  0.00000000000E+00 0.  1.
         25    2    1    2    0    0  0.96895575521E+01  0.16653032034E+02  0.25433077909E+03  0.28408200871E+03  0.12508889431E+03 0.  0.
          5    1    3    3  502    0  0.45231582120E+02 -0.39000021752E+02  0.13381191974E+03  0.14659467924E+03  0.41800000000E+01 0. -1.
         -5    1    3    3    0  502 -0.35542024568E+02  0.55653053786E+02  0.12051885935E+03  0.13748732947E+03  0.41800000000E+01 0. -1.
        -11    1    1    2    0    0  0.31933578930E+02  0.16798140626E+02  0.51430405699E+02  0.62825294445E+02  0.00000000000E+00 0. -1.
         11    1    1    2    0    0 -0.41623136482E+02 -0.33451172661E+02  0.24793447493E+02  0.58874285402E+02  0.00000000000E+00 0.  1.
</event>
<event>
 7    1  0.2420569E-009  0.1160314E+03  0.7561462E-02  0.1249791E+00
          2   -1    0    0  501    0  0.00000000000E+00  0.00000000000E+00  0.30316496960E+03  0.30316496960E+03  0.00000000000E+00 0. -1.
         -2   -1    0    0    0  501 -0.00000000000E+00 -0.00000000000E+00 -0.11125521023E+03  0.11125521023E+03  0.00000000000E+00 0.  1.
         25    2    1    2    0    0  0.57419989377E+02  0.10017356863E+03  0.19301921694E+03  0.25736289623E+03  0.12508974064E+03 0.  0.
          5    1    3    3  502    0  0.15285274773E+02  0.20769290566E+02 -0.15414774879E+02  0.30332997545E+02  0.41800000000E+01 0.  1.
         -5    1    3    3    0  502  0.42134714604E+02  0.79404278068E+02  0.20843399182E+03  0.22702989869E+03  0.41800000000E+01 0.  1.
        -11    1    1    2    0    0 -0.49435574816E+02 -0.77623824951E+02 -0.48459233285E+02  0.10400784368E+03  0.00000000000E+00 0.  1.
         11    1    1    2    0    0 -0.79844145606E+01 -0.22549743683E+02  0.47349775713E+02  0.53049439923E+02  0.00000000000E+00 0. -1.
</event>
<event>
 7    1  0.2420569E-009  0.1102590E+03  0.7561462E-02  0.1260091E+00
          2   -1    0    0  501    0  0.00000000000E+00  0.00000000000E+00  0.25476211668E+03  0.25476211668E+03  0.00000000000E+00 0. -1.
         -2   -1    0    0    0  501 -0.00000000000E+00 -0.00000000000E+00 -0.78630535563E+02  0.78630535563E+02  0.00000000000E+00 0.  1.
         25    2    1    2    0    0  0.42269821577E+02 -0.78093262280E+02  0.11774075477E+03  0.19337902249E+03  0.12508903060E+03 0.  0.
          5    1    3    3  502    0  0.26382421251E+02 -0.71738096956E+02  0.14322574324E+03  0.16239911525E+03  0.41800000000E+01 0. -1.
         -5    1    3    3    0  502  0.15887400326E+02 -0.63551653245E+01 -0.25484988474E+02  0.30979907245E+02  0.41800000000E+01 0. -1.
        -11    1    1    2    0    0  0.73087238371E+00 -0.19601079686E+02  0.15417421261E+02  0.24948614744E+02  0.00000000000E+00 0. -1.
         11    1    1    2    0    0 -0.43000693961E+02  0.97694341967E+02  0.42973405085E+02  0.11506501500E+03  0.00000000000E+00 0.  1.
</event>
<event>
 7    1  0.2420569E-009  0.9582153E+02  0.7561462E-02  0.1289336E+00
          3   -1    0    0  501    0  0.00000000000E+00  0.00000000000E+00  0.46587393031E+02  0.46587393031E+02  0.00000000000E+00 0. -1.
         -3   -1    0    0    0  501 -0.00000000000E+00 -0.00000000000E+00 -0.23595659417E+03  0.23595659417E+03  0.00000000000E+00 0.  1.
         25    2    1    2    0    0 -0.12963129499E+02  0.15930217173E+02 -0.11460144293E+03  0.17087993511E+03  0.12507856314E+03 0.  0.
          5    1    3    3  502    0  0.50739412891E+02 -0.70505818211E+01 -0.79024424592E+02  0.94268397709E+02  0.41800000000E+01 0. -1.
         -5    1    3    3    0  502 -0.63702542390E+02  0.22980798994E+02 -0.35577018334E+02  0.76611537401E+02  0.41800000000E+01 0. -1.
        -11    1    1    2    0    0  0.39542590918E+02 -0.21832068717E+02 -0.71038978671E+02  0.84183087444E+02  0.00000000000E+00 0.  1.
         11    1    1    2    0    0 -0.26579461419E+02  0.59018515446E+01 -0.37287795408E+01  0.27480964645E+02  0.00000000000E+00 0. -1.
</event>
<event>
 7    1  0.2420569E-009  0.9773919E+02  0.7561462E-02  0.1285123E+00
          3   -1    0    0  501    0  0.00000000000E+00  0.00000000000E+00  0.10156939965E+03  0.10156939965E+03  0.00000000000E+00 0. -1.
         -3   -1    0    0    0  501 -0.00000000000E+00 -0.00000000000E+00 -0.15308629057E+03  0.15308629057E+03  0.00000000000E+00 0.  1.
         25    2    1    2    0    0  0.41708357031E+02 -0.68011629963E+00  0.17677830376E+02  0.13303607571E+03  0.12508414027E+03 0.  0.
          5    1    3    3  502    0  0.12776404099E+02 -0.42471947846E+02  0.54309427006E+02  0.70243071667E+02  0.41800000000E+01 0.  1.
         -5    1    3    3    0  502  0.28931952933E+02  0.41791831546E+02 -0.36631596630E+02  0.62793004038E+02  0.41800000000E+01 0.  1.
        -11    1    1    2    0    0 -0.25711851020E+02 -0.44835135907E+02 -0.33235296357E+02  0.61448137634E+02  0.00000000000E+00 0. -1.
         11    1    1    2    0    0 -0.15996506011E+02  0.45515252207E+02 -0.35959424941E+02  0.60171476882E+02  0.00000000000E+00 0.  1.
</event>
<event>
 7    1  0.2420569E-009  0.1303433E+03  0.7561462E-02  0.1226947E+00
         -2   -1    0    0    0  501 -0.00000000000E+00  0.00000000000E+00  0.11309147536E+03  0.11309147536E+03  0.00000000000E+00 0. -1.
          2   -1    0    0  501    0  0.00000000000E+00 -0.00000000000E+00 -0.17153661115E+03  0.17153661115E+03  0.00000000000E+00 0.  1.
         25    2    1    2    0    0 -0.54438378662E+02  0.55166914754E+02  0.90507863347E+01  0.14742797771E+03  0.12508463664E+03 0.  0.
          5    1    3    3  502    0 -0.89723636762E+02  0.63570212174E+02  0.10318779792E+01  0.11004562709E+03  0.41800000000E+01 0.  1.
         -5    1    3    3    0  502  0.35285258100E+02 -0.84032974198E+01  0.80189083555E+01  0.37382350621E+02  0.41800000000E+01 0.  1.
        -11    1    1    2    0    0  0.74653907558E+02 -0.26837974303E+02 -0.64546988705E+02  0.10227314667E+03  0.00000000000E+00 0.  1.
         11    1    1    2    0    0 -0.20215528896E+02 -0.28328940452E+02 -0.29489334154E+01  0.34926962135E+02  0.00000000000E+00 0. -1.
</event>
<event>
 7    1  0.2420569E-009  0.1164986E+03  0.7561462E-02  0.1248988E+00
         -2   -1    0    0    0  501 -0.00000000000E+00  0.00000000000E+00  0.63774945020E+03  0.63774945020E+03  0.00000000000E+00 0.  1.
          2   -1    0    0  501    0  0.00000000000E+00 -0.00000000000E+00 -0.51444799026E+02  0.51444799026E+02  0.00000000000E+00 0. -1.
         25    2    1    2    0    0  0.53159677844E+02 -0.53961727636E+02  0.53578515400E+03  0.55538333023E+03  0.12508834016E+03 0.  0.
          5    1    3    3  502    0  0.13201607853E+02 -0.90684317396E+02  0.34450203211E+03  0.35650673261E+03  0.41800000000E+01 0. -1.
         -5    1    3    3    0  502  0.39958069991E+02  0.36722589760E+02  0.19128312190E+03  0.19887659762E+03  0.41800000000E+01 0. -1.
        -11    1    1    2    0    0 -0.23809324317E+02 -0.17370544747E+01 -0.25616458208E+02  0.35015770930E+02  0.00000000000E+00 0. -1.
         11    1    1    2    0    0 -0.29350353527E+02  0.55698782111E+02  0.76135955376E+02  0.98795148068E+02  0.00000000000E+00 0.  1.
</event>
<event>
 7    1  0.2420569E-009  0.9131262E+02  0.7561462E-02  0.1299704E+00
          2   -1    0    0  501    0  0.00000000000E+00  0.00000000000E+00  0.21797254524E+03  0.21797254524E+03  0.00000000000E+00 0. -1.
         -2   -1    0    0    0  501 -0.00000000000E+00 -0.00000000000E+00 -0.58449779314E+02  0.58449779314E+02  0.00000000000E+00 0.  1.
         25    2    1    2    0    0 -0.58199218271E+01  0.25889342962E+02  0.12634250112E+03  0.17976590677E+03  0.12509685879E+03 0.  0.
          5    1    3    3  502    0  0.60630412146E+01  0.60245139851E+02  0.12952043797E+03  0.14303584724E+03  0.41800000000E+01 0. -1.
         -5    1    3    3    0  502 -0.11882963042E+02 -0.34355796889E+02 -0.31779368461E+01  0.36730059531E+02  0.41800000000E+01 0. -1.
        -11    1    1    2    0    0 -0.13485311337E+02  0.26375540887E+02 -0.36801408923E+01  0.29850732251E+02  0.00000000000E+00 0.  1.
         11    1    1    2    0    0  0.19305233164E+02 -0.52264883849E+02  0.36860405696E+02  0.66805685531E+02  0.00000000000E+00 0. -1.
</event>
<event>
 7    1  0.2420569E-009  0.2139363E+03  0.7561462E-02  0.1138486E+00
          2   -1    0    0  501    0  0.00000000000E+00  0.00000000000E+00  0.85090703186E+03  0.85090703186E+03  0.00000000000E+00 0. -1.
         -2   -1    0    0    0  501 -0.00000000000E+00 -0.00000000000E+00 -0.60597336238E+02  0.60597336238E+02  0.00000000000E+00 0.  1.
         25    2    1    2    0    0 -0.19565185760E+03  0.26497376482E+02  0.52334757106E+03  0.57316778867E+03  0.12508746337E+03 0.  0.
          5    1    3    3  502    0 -0.70054638693E+02 -0.42570127455E+02  0.12262333856E+03  0.14755955988E+03  0.41800000000E+01 0. -1.
         -5    1    3    3    0  502 -0.12559721890E+03  0.69067503937E+02  0.40072423250E+03  0.42560822878E+03  0.41800000000E+01 0. -1.
        -11    1    1    2    0    0  0.84096936734E+02 -0.33722836225E+02  0.15854692369E+03  0.18261065539E+03  0.00000000000E+00 0. -1.
         11    1    1    2    0    0  0.11155492086E+03  0.72254597425E+01  0.10841520088E+03  0.15572592404E+03  0.00000000000E+00 0.  1.
</event>
<event>
 7    1  0.2420569E-009  0.1070185E+03  0.7561462E-02  0.1266193E+00
         -2   -1    0    0    0  501 -0.00000000000E+00  0.00000000000E+00  0.50492907163E+02  0.50492907163E+02  0.00000000000E+00 0.  1.
          2   -1    0    0  501    0  0.00000000000E+00 -0.00000000000E+00 -0.29249697090E+03  0.29249697090E+03  0.00000000000E+00 0. -1.
         25    2    1    2    0    0 -0.39450040113E+02  0.87953789014E+01 -0.19589340208E+03  0.23591539992E+03  0.12509271196E+03 0.  0.
          5    1    3    3  502    0 -0.81096527529E+02  0.68315860638E+01 -0.16443075455E+03  0.18351638289E+03  0.41800000000E+01 0. -1.
         -5    1    3    3    0  502  0.41646487416E+02  0.19637928376E+01 -0.31462647529E+02  0.52399017032E+02  0.41800000000E+01 0. -1.
        -11    1    1    2    0    0  0.55357064549E+02  0.19077060115E+02 -0.11125621577E+02  0.59599649946E+02  0.00000000000E+00 0.  1.
         11    1    1    2    0    0 -0.15907024437E+02 -0.27872439016E+02 -0.34985040084E+02  0.47474828202E+02  0.00000000000E+00 0. -1.
</event>
<event>
 7    1  0.2687854E-009  0.1797898E+03  0.7561462E-02  0.1168007E+00
         -2   -1    0    0    0  501 -0.00000000000E+00  0.00000000000E+00  0.24654878192E+02  0.24654878192E+02  0.00000000000E+00 0.  1.
          2   -1    0    0  501    0  0.00000000000E+00 -0.00000000000E+00 -0.14277680061E+04  0.14277680061E+04  0.00000000000E+00 0. -1.
         25    2    1    2    0    0 -0.25931531088E+02 -0.14336825721E+03 -0.56252378424E+03  0.59439574925E+03  0.12508556038E+03 0.  0.
          5    1    3    3  502    0 -0.73161666959E+02 -0.74855335909E+02 -0.37160967938E+03  0.38609218722E+03  0.41800000000E+01 0.  1.
         -5    1    3    3    0  502  0.47230135871E+02 -0.68512921300E+02 -0.19091410486E+03  0.20830356203E+03  0.41800000000E+01 0.  1.
        -11    1    1    2    0    0  0.50297396314E+02  0.37152569920E+02 -0.34171257462E+03  0.34738685235E+03  0.00000000000E+00 0.  1.
         11    1    1    2    0    0 -0.24365865226E+02  0.10621568729E+03 -0.49887676900E+03  0.51064028265E+03  0.00000000000E+00 0. -1.
</event>
<event>
 7    1  0.2657515E-009  0.4427343E+02  0.7561462E-02  0.1478929E+00
          1   -1    0    0  501    0  0.00000000000E+00  0.00000000000E+00  0.25124048152E+03  0.25124048152E+03  0.00000000000E+00 0. -1.
         -1   -1    0    0    0  501 -0.00000000000E+00 -0.00000000000E+00 -0.51820561038E+02  0.51820561038E+02  0.00000000000E+00 0.  1.
         25    2    1    2    0    0  0.62879346069E+01 -0.16797932413E+02  0.72308718596E+02  0.14559380982E+03  0.12508916028E+03 0.  0.
          5    1    3    3  502    0  0.49771521120E+01 -0.10571688673E+02  0.10819729976E+03  0.10890666058E+03  0.41800000000E+01 0. -1.
         -5    1    3    3    0  502  0.13107824949E+01 -0.62262437397E+01 -0.35888581159E+02  0.36687149241E+02  0.41800000000E+01 0. -1.
        -11    1    1    2    0    0  0.19832794816E+02 -0.16782560869E+02  0.10754757257E+03  0.11064119696E+03  0.00000000000E+00 0. -1.
         11    1    1    2    0    0 -0.26120729423E+02  0.33580493281E+02  0.19563629321E+02  0.46826035779E+02  0.00000000000E+00 0.  1.
</event>
<event>
 7    1  0.2420569E-009  0.7419577E+02  0.7561462E-02  0.1346380E+00
         -1   -1    0    0    0  501 -0.00000000000E+00  0.00000000000E+00  0.41257654640E+02  0.41257654640E+02  0.00000000000E+00 0.  1.
          1   -1    0    0  501    0  0.00000000000E+00 -0.00000000000E+00 -0.36650413410E+03  0.36650413410E+03  0.00000000000E+00 0. -1.
         25    2    1    2    0    0  0.32116335603E+02  0.34872517333E+02 -0.23743268593E+03  0.27253044270E+03  0.12510399824E+03 0.  0.
          5    1    3    3  502    0  0.22614958305E+02 -0.48325979703E+01  0.71223180372E+01  0.24555857885E+02  0.41800000000E+01 0. -1.
         -5    1    3    3    0  502  0.95013772984E+01  0.39705115304E+02 -0.24455500396E+03  0.24797458482E+03  0.41800000000E+01 0. -1.
        -11    1    1    2    0    0 -0.36491224137E+01  0.20909596541E+02 -0.65329878357E+02  0.68691486576E+02  0.00000000000E+00 0. -1.
         11    1    1    2    0    0 -0.28467213189E+02 -0.55782113875E+02 -0.22483915172E+02  0.66539859457E+02  0.00000000000E+00 0.  1.
</event>
<event>
 7    1  0.2420569E-009  0.9510113E+02  0.7561462E-02  0.1290948E+00
         -2   -1    0    0    0  501 -0.00000000000E+00  0.00000000000E+00  0.37599003232E+03  0.37599003232E+03  0.00000000000E+00 0.  1.
          2   -1    0    0  501    0  0.00000000000E+00 -0.00000000000E+00 -0.54549577631E+02  0.54549577631E+02  0.00000000000E+00 0. -1.
         25    2    1    2    0    0  0.10580036551E+02  0.10644522598E+02  0.31454855667E+03  0.33884190762E+03  0.12509117003E+03 0.  0.
          5    1    3    3  502    0  0.24578007688E+02  0.62760938255E+02  0.12964078778E+03  0.14617530602E+03  0.41800000000E+01 0. -1.
         -5    1    3    3    0  502 -0.13997971136E+02 -0.52116415657E+02  0.18490776889E+03  0.19266660160E+03  0.41800000000E+01 0. -1.
        -11    1    1    2    0    0 -0.38532762536E+02  0.28067745059E+00  0.33899576170E+02  0.51322839292E+02  0.00000000000E+00 0.  1.
         11    1    1    2    0    0  0.27952725985E+02 -0.10925200049E+02 -0.27007678154E+02  0.40374863038E+02  0.00000000000E+00 0. -1.
</event>
<event>
 7    1  0.2420569E-009  0.5937787E+02  0.7561462E-02  0.1400461E+00
          2   -1    0    0  501    0  0.00000000000E+00  0.00000000000E+00  0.12430412091E+04  0.12430412091E+04  0.00000000000E+00 0.  1.
         -2   -1    0    0    0  501 -0.00000000000E+00 -0.00000000000E+00 -0.24426893445E+02  0.24426893445E+02  0.00000000000E+00 0. -1.
         25    2    1    2    0    0  0.10774857810E+02  0.19178582434E+02  0.11350132113E+04  0.11420974682E+04  0.12509085315E+03 0.  0.
          5    1    3    3  502    0  0.17781766489E+02 -0.31373257152E+01  0.10977305254E+04  0.10978869763E+04  0.41800000000E+01 0. -1.
         -5    1    3    3    0  502 -0.70069086798E+01  0.22315908149E+02  0.37282685925E+02  0.44210491917E+02  0.41800000000E+01 0. -1.
        -11    1    1    2    0    0 -0.38429672232E+02  0.61997095500E+01  0.62924529516E+01  0.39431853501E+02  0.00000000000E+00 0. -1.
         11    1    1    2    0    0  0.27654814423E+02 -0.25378291984E+02  0.77308651402E+02  0.85938780806E+02  0.00000000000E+00 0.  1.
</event>
<event>
 7    1  0.2420569E-009  0.9748507E+02  0.7561462E-02  0.1285675E+00
          2   -1    0    0  501    0  0.00000000000E+00  0.00000000000E+00  0.10721693541E+04  0.10721693541E+04  0.00000000000E+00 0.  1.
         -2   -1    0    0    0  501 -0.00000000000E+00 -0.00000000000E+00 -0.14101430314E+02  0.14101430314E+02  0.00000000000E+00 0. -1.
         25    2    1    2    0    0 -0.15206430019E+02 -0.36959782992E+02  0.76701565710E+03  0.77817576141E+03  0.12508891369E+03 0.  0.
          5    1    3    3  502    0 -0.22647699165E+02 -0.66708529054E+02  0.23767380741E+03  0.24792994425E+03  0.41800000000E+01 0. -1.
         -5    1    3    3    0  502  0.74412691458E+01  0.29748746062E+02  0.52934184969E+03  0.53024581716E+03  0.41800000000E+01 0. -1.
        -11    1    1    2    0    0 -0.13514807947E+02 -0.23163558717E+02  0.38628331029E+02  0.47024976814E+02  0.00000000000E+00 0. -1.
         11    1    1    2    0    0  0.28721237966E+02  0.60123341709E+02  0.25242393566E+03  0.26107004620E+03  0.00000000000E+00 0.  1.
</event>
<event>
 7    1  0.2420569E-009  0.8362164E+02  0.7561462E-02  0.1319077E+00
          1   -1    0    0  501    0  0.00000000000E+00  0.00000000000E+00  0.38108171518E+03  0.38108171518E+03  0.00000000000E+00 0. -1.
         -1   -1    0    0    0  501 -0.00000000000E+00 -0.00000000000E+00 -0.49562639666E+02  0.49562639666E+02  0.00000000000E+00 0.  1.
         25    2    1    2    0    0 -0.72119408080E+02 -0.24390286453E+02  0.23695148571E+03  0.27855005299E+03  0.12509208746E+03 0.  0.
          5    1    3    3  502    0 -0.45508169030E+02 -0.42145829296E+01  0.24037869953E+03  0.24472055032E+03  0.41800000000E+01 0. -1.
         -5    1    3    3    0  502 -0.26611239049E+02 -0.20175703524E+02 -0.34272138261E+01  0.33829502672E+02  0.41800000000E+01 0. -1.
        -11    1    1    2    0    0  0.65463994121E+02  0.32650857167E+01  0.10789576147E+03  0.12624456683E+03  0.00000000000E+00 0. -1.
         11    1    1    2    0    0  0.66554139586E+01  0.21125200736E+02 -0.13328171663E+02  0.25849735028E+02  0.00000000000E+00 0.  1.
</event>
<event>
 7    1  0.2420569E-009  0.1035276E+03  0.7561462E-02  0.1273048E+00
         -1   -1    0    0    0  501 -0.00000000000E+00  0.00000000000E+00  0.27221633710E+02  0.27221633710E+02  0.00000000000E+00 0.  1.
          1   -1    0    0  501    0  0.00000000000E+00 -0.00000000000E+00 -0.59816389123E+03  0.59816389123E+03  0.00000000000E+00 0. -1.
         25    2    1    2    0    0 -0.19464539624E+02  0.56032496099E+02 -0.23673438433E+03  0.27424205991E+03  0.12508808806E+03 0.  0.
          5    1    3    3  502    0 -0.44401745249E+02  0.83889711370E+02 -0.12960078791E+03  0.16069485145E+03  0.41800000000E+01 0. -1.
         -5    1    3    3    0  502  0.24937205624E+02 -0.27857215270E+02 -0.10713359642E+03  0.11354720846E+03  0.41800000000E+01 0. -1.
        -11    1    1    2    0    0 -0.14020343535E+02 -0.88879976614E+01 -0.56494412295E+01  0.17535185242E+02  0.00000000000E+00 0.  1.
         11    1    1    2    0    0  0.33484883160E+02 -0.47144498438E+02 -0.32855843196E+03  0.33360827979E+03  0.00000000000E+00 0. -1.
</event>
<event>
 7    1  0.2420569E-009  0.1748530E+03  0.7561462E-02  0.1172879E+00
          2   -1    0    0  501    0  0.00000000000E+00  0.00000000000E+00  0.33576471316E+03  0.33576471316E+03  0.00000000000E+00 0.  1.
         -2   -1    0    0    0  501 -0.00000000000E+00 -0.00000000000E+00 -0.98812129094E+02  0.98812129094E+02  0.00000000000E+00 0. -1.
         25    2    1    2    0    0  0.98751007780E+02 -0.11386583464E+03  0.15354313098E+03  0.24887822249E+03  0.12509071397E+03 0.  0.
          5    1    3    3  502    0  0.81677484499E+02 -0.13525155419E+03  0.15470931806E+03  0.22117106475E+03  0.41800000000E+01 0.  1.
         -5    1    3    3    0  502  0.17073523282E+02  0.21385719551E+02 -0.11661870813E+01  0.27707157744E+02  0.41800000000E+01 0.  1.
        -11    1    1    2    0    0 -0.78987784103E+02  0.42052787944E+02  0.59547437239E+02  0.10748676334E+03  0.00000000000E+00 0.  1.
         11    1    1    2    0    0 -0.19763223677E+02  0.71813046695E+02  0.23862015849E+02  0.78211856429E+02  0.00000000000E+00 0. -1.
</event>
<event>
 7    1  0.2420569E-009  0.1060276E+03  0.7561462E-02  0.1268108E+00
         -1   -1    0    0    0  501 -0.00000000000E+00  0.00000000000E+00  0.40254923819E+02  0.40254923819E+02  0.00000000000E+00 0.  1.
          1   -1    0    0  501    0  0.00000000000E+00 -0.00000000000E+00 -0.36240113512E+03  0.36240113512E+03  0.00000000000E+00 0. -1.
         25    2    1    2    0    0  0.46304034733E+02  0.11311019035E+02 -0.13931654298E+03  0.19320638172E+03  0.12509038335E+03 0.  0.
          5    1    3    3  502    0  0.67397253649E+02  0.39475697245E+02 -0.40196746190E+02  0.87943000157E+02  0.41800000000E+01 0. -1.
         -5    1    3    3    0  502 -0.21093218916E+02 -0.28164678210E+02 -0.99119796788E+02  0.10526338156E+03  0.41800000000E+01 0. -1.
        -11    1    1    2    0    0 -0.61343998651E+02 -0.34786683961E+02 -0.10247621341E+03  0.12439684026E+03  0.00000000000E+00 0.  1.
         11    1    1    2    0    0  0.15039963919E+02  0.23475664926E+02 -0.80353454912E+02  0.85052836959E+02  0.00000000000E+00 0. -1.
</event>
<event>
 7    1  0.2420569E-009  0.1267943E+03  0.7561462E-02  0.1232291E+00
         -2   -1    0    0    0  501 -0.00000000000E+00  0.00000000000E+00  0.84935060411E+02  0.84935060411E+02  0.00000000000E+00 0.  1.
          2   -1    0    0  501    0  0.00000000000E+00 -0.00000000000E+00 -0.25105206021E+03  0.25105206021E+03  0.00000000000E+00 0. -1.
         25    2    1    2    0    0  0.70209231435E+02  0.32130403464E+02 -0.15894456141E+03  0.21650460845E+03  0.12509665413E+03 0.  0.
          5    1    3    3  502    0 -0.27473762010E+02 -0.21713927495E+02 -0.34480292863E+02  0.49322056345E+02  0.41800000000E+01 0. -1.
         -5    1    3    3    0  502  0.97682993445E+02  0.53844330959E+02 -0.12446426855E+03  0.16718255211E+03  0.41800000000E+01 0. -1.
        -11    1    1    2    0    0 -0.60447352996E+02  0.11896493121E+02  0.22402325969E+02  0.65553590608E+02  0.00000000000E+00 0.  1.
         11    1    1    2    0    0 -0.97618784391E+01 -0.44026896585E+02 -0.29574764358E+02  0.53928921558E+02  0.00000000000E+00 0. -1.
</event>
<event>
 7    1  0.2420569E-009  0.9628138E+02  0.7561462E-02  0.1288316E+00
         -1   -1    0    0    0  501 -0.00000000000E+00  0.00000000000E+00  0.39963355546E+02  0.39963355546E+02  0.00000000000E+00 0.  1.
          1   -1    0    0  501    0  0.00000000000E+00 -0.00000000000E+00 -0.36155699806E+03  0.36155699806E+03  0.00000000000E+00 0. -1.
         25    2    1    2    0    0 -0.47855702351E+02 -0.19735649369E+02 -0.15896109725E+03  0.20879366733E+03  0.12508597433E+03 0.  0.
          5    1    3    3  502    0 -0.57947885857E+02  0.12154553289E+02 -0.16427380736E+03  0.17466839104E+03  0.41800000000E+01 0. -1.
         -5    1    3    3    0  502  0.10092183505E+02 -0.31890202658E+02  0.53127101118E+01  0.34125276294E+02  0.41800000000E+01 0. -1.
        -11    1    1    2    0    0  0.40088552743E+02  0.52369475494E+02 -0.13077613817E+03  0.14646519156E+03  0.00000000000E+00 0. -1.
         11    1    1    2    0    0  0.77671496084E+01 -0.32633826125E+02 -0.31856407095E+02  0.46261494719E+02  0.00000000000E+00 0.  1.
</event>
<event>
 7    1  0.2420569E-009  0.1298042E+03  0.7561462E-02  0.1227747E+00
         -1   -1    0    0    0  501 -0.00000000000E+00  0.00000000000E+00  0.15308040034E+02  0.15308040034E+02  0.00000000000E+00 0.  1.
          1   -1    0    0  501    0  0.00000000000E+00 -0.00000000000E+00 -0.14345615807E+04  0.14345615807E+04  0.00000000000E+00 0. -1.
         25    2    1    2    0    0 -0.87302823087E+02 -0.36561919015E+02 -0.93408195581E+03  0.94716144826E+03  0.12508857690E+03 0.  0.
          5    1    3    3  502    0 -0.79265374187E+02 -0.66209598351E+02 -0.43477972988E+03  0.44689774711E+03  0.41800000000E+01 0. -1.
         -5    1    3    3    0  502 -0.80374489008E+01  0.29647679336E+02 -0.49930222593E+03  0.50026370115E+03  0.41800000000E+01 0. -1.
        -11    1    1    2    0    0  0.10248314831E+02  0.46440619638E+02 -0.26499165164E+03  0.26922543443E+03  0.00000000000E+00 0. -1.
         11    1    1    2    0    0  0.77054508256E+02 -0.98787006221E+01 -0.22017993327E+03  0.23348273808E+03  0.00000000000E+00 0.  1.
</event>
<event>
 7    1  0.2420569E-009  0.1070378E+03  0.7561462E-02  0.1266156E+00
          2   -1    0    0  501    0  0.00000000000E+00  0.00000000000E+00  0.13530893502E+03  0.13530893502E+03  0.00000000000E+00 0.  1.
         -2   -1    0    0    0  501 -0.00000000000E+00 -0.00000000000E+00 -0.16729045726E+03  0.16729045726E+03  0.00000000000E+00 0. -1.
         25    2    1    2    0    0 -0.11265557998E+02 -0.63475168955E+02 -0.10276154044E+03  0.17425209779E+03  0.12509136468E+03 0.  0.
          5    1    3    3  502    0  0.50883057053E+01 -0.99979087161E+02 -0.67978240020E+02  0.12107940469E+03  0.41800000000E+01 0. -1.
         -5    1    3    3    0  502 -0.16353863703E+02  0.36503918205E+02 -0.34783300424E+02  0.53172693093E+02  0.41800000000E+01 0. -1.
        -11    1    1    2    0    0 -0.10656593587E+02  0.40613656062E+02 -0.86188271144E+01  0.42863926866E+02  0.00000000000E+00 0. -1.
         11    1    1    2    0    0  0.21922151585E+02  0.22861512894E+02  0.79398845318E+02  0.85483367620E+02  0.00000000000E+00 0.  1.
</event>
<event>
 7    1  0.2420569E-009  0.1198950E+03  0.7561462E-02  0.1243270E+00
         -1   -1    0    0    0  501 -0.00000000000E+00  0.00000000000E+00  0.18373813747E+02  0.18373813747E+02  0.00000000000E+00 0.  1.
          1   -1    0    0  501    0  0.00000000000E+00 -0.00000000000E+00 -0.10242602249E+04  0.10242602249E+04  0.00000000000E+00 0. -1.
         25    2    1    2    0    0 -0.46360119723E+02  0.69486224753E+02 -0.54226459847E+03  0.56273983008E+03  0.12509046915E+03 0.  0.
          5    1    3    3  502    0 -0.69613165295E+02  0.52951598509E+02 -0.18898283250E+03  0.20828309568E+03  0.41800000000E+01 0. -1.
         -5    1    3    3    0  502  0.23253045572E+02  0.16534626244E+02 -0.35328176596E+03  0.35445673439E+03  0.41800000000E+01 0. -1.
        -11    1    1    2    0    0  0.73207516474E+02 -0.39660001695E+02 -0.33271990185E+03  0.34297928405E+03  0.00000000000E+00 0. -1.
         11    1    1    2    0    0 -0.26847396751E+02 -0.29826223059E+02 -0.13090191080E+03  0.13691492448E+03  0.00000000000E+00 0.  1.
</event>
<event>
 7    1  0.2420569E-009  0.1117858E+03  0.7561462E-02  0.1257298E+00
          2   -1    0    0  501    0  0.00000000000E+00  0.00000000000E+00  0.11757825858E+03  0.11757825858E+03  0.00000000000E+00 0.  1.
         -2   -1    0    0    0  501 -0.00000000000E+00 -0.00000000000E+00 -0.16456127010E+03  0.16456127010E+03  0.00000000000E+00 0. -1.
         25    2    1    2    0    0 -0.53493534212E+02  0.60987555898E+02 -0.12093816739E+02  0.14959294740E+03  0.12510295492E+03 0.  0.
          5    1    3    3  502    0  0.29369201690E+02 -0.11860633509E+02 -0.21920864373E+02  0.38745597557E+02  0.41800000000E+01 0.  1.
         -5    1    3    3    0  502 -0.82862735902E+02  0.72848189407E+02  0.98270476339E+01  0.11084734984E+03  0.41800000000E+01 0.  1.
        -11    1    1    2    0    0  0.17954377122E+02 -0.23235530099E+02  0.34897117981E+02  0.45607656815E+02  0.00000000000E+00 0.  1.
         11    1    1    2    0    0  0.35539157090E+02 -0.37752025799E+02 -0.69786312758E+02  0.86938924464E+02  0.00000000000E+00 0. -1.
</event>
<event>
 7    1  0.2420569E-009  0.8141143E+02  0.7561462E-02  0.1325093E+00
          1   -1    0    0  501    0  0.00000000000E+00  0.00000000000E+00  0.13278598481E+03  0.13278598481E+03  0.00000000000E+00 0. -1.
         -1   -1    0    0    0  501 -0.00000000000E+00 -0.00000000000E+00 -0.12200185748E+03  0.12200185748E+03  0.00000000000E+00 0.  1.
         25    2    1    2    0    0 -0.16253760881E+02  0.64911761159E+02  0.28209310815E+01  0.14188757700E+03  0.12508559220E+03 0.  0.
          5    1    3    3  502    0  0.17909046191E+02  0.23697368458E+02 -0.55205801902E+02  0.62828752740E+02  0.41800000000E+01 0. -1.
         -5    1    3    3    0  502 -0.34162807071E+02  0.41214392701E+02  0.58026732983E+02  0.79058824260E+02  0.41800000000E+01 0. -1.
        -11    1    1    2    0    0  0.29617429535E+02 -0.55089029137E+02 -0.31546074543E+02  0.70051039126E+02  0.00000000000E+00 0.  1.
         11    1    1    2    0    0 -0.13363668655E+02 -0.98227320223E+01  0.39509270794E+02  0.42849226165E+02  0.00000000000E+00 0. -1.
</event>
<event>
 7    1  0.2420569E-009  0.1260739E+03  0.7561462E-02  0.1233401E+00
          2   -1    0    0  501    0  0.00000000000E+00  0.00000000000E+00  0.19532866431E+03  0.19532866431E+03  0.00000000000E+00 0. -1.
         -2   -1    0    0    0  501 -0.00000000000E+00 -0.00000000000E+00 -0.10510452538E+03  0.10510452538E+03  0.00000000000E+00 0.  1.
         25    2    1    2    0    0  0.50518755435E+02 -0.69770305161E+02  0.83770757049E+02  0.17344781637E+03  0.12508623079E+03 0.  0.
          5    1    3    3  502    0  0.63754509431E+02 -0.89173224714E+02  0.28639553766E+02  0.11337635520E+03  0.41800000000E+01 0.  1.
         -5    1    3    3    0  502 -0.13235753996E+02  0.19402919553E+02  0.55131203284E+02  0.60071461165E+02  0.41800000000E+01 0.  1.
        -11    1    1    2    0    0 -0.25851220119E+02 -0.15284829290E+02 -0.18125742805E+02  0.35077829755E+02  0.00000000000E+00 0.  1.
         11    1    1    2    0    0 -0.24667535316E+02  0.85055134451E+02  0.24579124684E+02  0.91907543571E+02  0.00000000000E+00 0. -1.
</event>
<event>
 7    1  0.2420569E-009  0.1104250E+03  0.7561462E-02  0.1259785E+00
          2   -1    0    0  501    0  0.00000000000E+00  0.00000000000E+00  0.38563776444E+03  0.38563776444E+03  0.00000000000E+00 0. -1.
         -2   -1    0    0    0  501 -0.00000000000E+00 -0.00000000000E+00 -0.34600010799E+02  0.34600010799E+02  0.00000000000E+00 0.  1.
         25    2    1    2    0    0  0.35440009414E+02 -0.35826867642E+01  0.23429126095E+03  0.26797726491E+03  0.12510231668E+03 0.  0.
          5    1    3    3  502    0  0.75878340906E+02 -0.24377621585E+02  0.18089932148E+03  0.19772159206E+03  0.41800000000E+01 0. -1.
         -5    1    3    3    0  502 -0.40438331492E+02  0.20794934820E+02  0.53391939465E+02  0.70255672852E+02  0.41800000000E+01 0. -1.
        -11    1    1    2    0    0  0.28506416571E+02  0.11906139082E+02  0.54422419223E+02  0.62579322845E+02  0.00000000000E+00 0.  1.
         11    1    1    2    0    0 -0.63946425985E+02 -0.83234523175E+01  0.62324073468E+02  0.89681187483E+02  0.00000000000E+00 0. -1.
</event>
<event>
 7    1  0.2420569E-009  0.1133735E+03  0.7561462E-02  0.1254447E+00
          3   -1    0    0  501    0  0.00000000000E+00  0.00000000000E+00  0.19089198361E+03  0.19089198361E+03  0.00000000000E+00 0. -1.
         -3   -1    0    0    0  501 -0.00000000000E+00 -0.00000000000E+00 -0.12942585841E+03  0.12942585841E+03  0.00000000000E+00 0.  1.
         25    2    1    2    0    0 -0.40480138948E+02 -0.37746222281E+02  0.13275378026E+03  0.19061679842E+03  0.12509108169E+03 0.  0.
          5    1    3    3  502    0 -0.11811080737E+01 -0.72624452936E+02  0.37737275674E+02  0.81959017539E+02  0.41800000000E+01 0.  1.
         -5    1    3    3    0  502 -0.39299030874E+02  0.34878230655E+02  0.95016504586E+02  0.10865778088E+03  0.41800000000E+01 0.  1.
        -11    1    1    2    0    0  0.21662662571E+02 -0.26563228038E+02 -0.47546346375E+02  0.58613403647E+02  0.00000000000E+00 0.  1.
         11    1    1    2    0    0  0.18817476376E+02  0.64309450319E+02 -0.23741308688E+02  0.71087639964E+02  0.00000000000E+00 0. -1.
</event>
<event>
 7    1  0.2420569E-009  0.1313562E+03  0.7561462E-02  0.1225457E+00
          1   -1    0    0  501    0  0.00000000000E+00  0.00000000000E+00  0.62226381052E+03  0.62226381052E+03  0.00000000000E+00 0. -1.
         -1   -1    0    0    0  501 -0.00000000000E+00 -0.00000000000E+00 -0.27872474010E+02  0.27872474010E+02  0.00000000000E+00 0.  1.
         25    2    1    2    0    0  0.52170899462E+02 -0.49030108147E+02  0.30905415939E+03  0.34100947307E+03  0.12508890051E+03 0.  0.
          5    1    3    3  502    0  0.91980627606E+02 -0.19629669431E+02  0.19134217089E+03  0.21324881837E+03  0.41800000000E+01 0.  1.
         -5    1    3    3    0  502 -0.39809728144E+02 -0.29400438716E+02  0.11771198850E+03  0.12776065470E+03  0.41800000000E+01 0.  1.
        -11    1    1    2    0    0 -0.49253829587E+02 -0.17528201380E+02  0.12816945428E+03  0.13842177062E+03  0.00000000000E+00 0. -1.
         11    1    1    2    0    0 -0.29170698751E+01  0.66558309527E+02  0.15716772284E+03  0.17070504084E+03  0.00000000000E+00 0.  1.
</event>
<event>
 7    1  0.2420569E-009  0.1166979E+03  0.7561462E-02  0.1248646E+00
          1   -1    0    0  501    0  0.00000000000E+00  0.00000000000E+00  0.34926161114E+03  0.34926161114E+03  0.00000000000E+00 0. -1.
         -1   -1    0    0    0  501 -0.00000000000E+00 -0.00000000000E+00 -0.55108805922E+02  0.55108805922E+02  0.00000000000E+00 0.  1.
         25    2    1    2    0    0  0.54881776248E+02 -0.55827744603E+02  0.10508257930E+03  0.18115897103E+03  0.12508987922E+03 0.  0.
          5    1    3    3  502    0  0.68524042059E+02  0.76409108191E+01  0.91596973660E+02  0.11472317047E+03  0.41800000000E+01 0. -1.
         -5    1    3    3    0  502 -0.13642265811E+02 -0.63468655422E+02  0.13485605637E+02  0.66435800567E+02  0.41800000000E+01 0. -1.
        -11    1    1    2    0    0  0.88566054920E+01  0.28631079413E+02  0.10649326410E+02  0.31805444851E+02  0.00000000000E+00 0.  1.
         11    1    1    2    0    0 -0.63738381740E+02  0.27196665190E+02  0.17842089951E+03  0.19140600118E+03  0.00000000000E+00 0. -1.
</event>
<event>
 7    1  0.2420569E-009  0.8631239E+02  0.7561462E-02  0.1312036E+00
         -2   -1    0    0    0  501 -0.00000000000E+00  0.00000000000E+00  0.14079844312E+03  0.14079844312E+03  0.00000000000E+00 0. -1.
          2   -1    0    0  501    0  0.00000000000E+00 -0.00000000000E+00 -0.15410825145E+03  0.15410825145E+03  0.00000000000E+00 0.  1.
         25    2    1    2    0    0 -0.14792372170E+02 -0.54624576253E+02  0.74210097270E+02  0.15606987096E+03  0.12509199607E+03 0.  0.
          5    1    3    3  502    0 -0.36919927917E+02 -0.10813978519E+02 -0.24465231452E+02  0.45782563917E+02  0.41800000000E+01 0.  1.
         -5    1    3    3    0  502  0.22127555747E+02 -0.43810597734E+02  0.98675328722E+02  0.11028730705E+03  0.41800000000E+01 0.  1.
        -11    1    1    2    0    0  0.33013707929E+02  0.70978319709E+01 -0.80702339805E+02  0.87482294094E+02  0.00000000000E+00 0.  1.
         11    1    1    2    0    0 -0.18221335759E+02  0.47526744282E+02 -0.68175657933E+01  0.51354529520E+02  0.00000000000E+00 0. -1.
</event>
<event>
 7    1  0.2420569E-009  0.1329722E+03  0.7561462E-02  0.1223111E+00
          2   -1    0    0  501    0  0.00000000000E+00  0.00000000000E+00  0.11637047477E+04  0.11637047477E+04  0.00000000000E+00 0. -1.
         -2   -1    0    0    0  501 -0.00000000000E+00 -0.00000000000E+00 -0.22931363172E+02  0.22931363172E+02  0.00000000000E+00 0.  1.
         25    2    1    2    0    0  0.35362940616E+02 -0.10374278019E+03  0.80141928634E+03  0.81849433716E+03  0.12508799079E+03 0.  0.
          5    1    3    3  502    0 -0.13450158182E+02 -0.95935904935E+02  0.68664014705E+03  0.69345278754E+03  0.41800000000E+01 0. -1.
         -5    1    3    3    0  502  0.48813098798E+02 -0.78068752579E+01  0.11477913929E+03  0.12504154963E+03  0.41800000000E+01 0. -1.
        -11    1    1    2    0    0 -0.79118221364E+01  0.86696980132E+02  0.31728468448E+03  0.32901145011E+03  0.00000000000E+00 0. -1.
         11    1    1    2    0    0 -0.27451118480E+02  0.17045800061E+02  0.22069413753E+02  0.39130323650E+02  0.00000000000E+00 0.  1.
</event>
<event>
 7    1  0.2420569E-009  0.1401724E+03  0.7561462E-02  0.1213097E+00
         -2   -1    0    0    0  501 -0.00000000000E+00  0.00000000000E+00  0.23617471687E+03  0.23617471687E+03  0.00000000000E+00 0.  1.
          2   -1    0    0  501    0  0.00000000000E+00 -0.00000000000E+00 -0.13053993429E+03  0.13053993429E+03  0.00000000000E+00 0. -1.
         25    2    1    2    0    0  0.18848317131E+02 -0.11025006110E+03 -0.27600849901E+02  0.17005672684E+03  0.12508856221E+03 0.  0.
          5    1    3    3  502    0 -0.29245416844E+02 -0.65048988232E+02  0.34499529804E+02  0.79336972674E+02  0.41800000000E+01 0. -1.
         -5    1    3    3    0  502  0.48093733975E+02 -0.45201072866E+02 -0.62100379704E+02  0.90719754162E+02  0.41800000000E+01 0. -1.
        -11    1    1    2    0    0  0.35858410783E+02  0.39791064142E+02  0.35109306466E+02  0.64045435512E+02  0.00000000000E+00 0. -1.
         11    1    1    2    0    0 -0.54706727914E+02  0.70458996956E+02  0.98126326020E+02  0.13261248881E+03  0.00000000000E+00 0.  1.
</event>
<event>
 7    1  0.2420569E-009  0.1114030E+03  0.7561462E-02  0.1257994E+00
         -1   -1    0    0    0  501 -0.00000000000E+00  0.00000000000E+00  0.16912069358E+02  0.16912069358E+02  0.00000000000E+00 0.  1.
          1   -1    0    0  501    0  0.00000000000E+00 -0.00000000000E+00 -0.11011665906E+04  0.11011665906E+04  0.00000000000E+00 0. -1.
         25    2    1    2    0    0  0.16929075898E+02  0.74689727968E+02 -0.73567914140E+03  0.75015759399E+03  0.12508983835E+03 0.  0.
          5    1    3    3  502    0 -0.25606144109E+02  0.49307004581E+02 -0.11812099680E+03  0.13060205818E+03  0.41800000000E+01 0. -1.
         -5    1    3    3    0  502  0.42535220007E+02  0.25382723387E+02 -0.61755814460E+03  0.61955553581E+03  0.41800000000E+01 0. -1.
        -11    1    1    2    0    0 -0.13714505091E+02  0.19112063098E+02 -0.81893488449E+02  0.85205058864E+02  0.00000000000E+00 0.  1.
         11    1    1    2    0    0 -0.32145708066E+01 -0.93801791066E+02 -0.26668189134E+03  0.28271600705E+03  0.00000000000E+00 0. -1.
</event>
<event>
 7    1  0.2420569E-009  0.1255394E+03  0.7561462E-02  0.1234229E+00
          2   -1    0    0  501    0  0.00000000000E+00  0.00000000000E+00  0.82328782607E+02  0.82328782607E+02  0.00000000000E+00 0. -1.
         -2   -1    0    0    0  501 -0.00000000000E+00 -0.00000000000E+00 -0.25949164934E+03  0.25949164934E+03  0.00000000000E+00 0.  1.
         25    2    1    2    0    0 -0.55716766664E+02  0.78320620551E+02 -0.68784369363E+02  0.17209570076E+03  0.12508862083E+03 0.  0.
          5    1    3    3  502    0 -0.10347678580E+02 -0.32848364108E+02 -0.22634195686E+01  0.34766146533E+02  0.41800000000E+01 0.  1.
         -5    1    3    3    0  502 -0.45369088084E+02  0.11116898466E+03 -0.66520949794E+02  0.13732955423E+03  0.41800000000E+01 0.  1.
        -11    1    1    2    0    0  0.40706619463E+02 -0.53314219673E+02 -0.12068153388E+03  0.13807051643E+03  0.00000000000E+00 0.  1.
         11    1    1    2    0    0  0.15010147201E+02 -0.25006400878E+02  0.12303036515E+02  0.31654214748E+02  0.00000000000E+00 0. -1.
</event>
<event>
 7    1  0.2420569E-009  0.9965222E+02  0.7561462E-02  0.1281029E+00
         -3   -1    0    0    0  501 -0.00000000000E+00  0.00000000000E+00  0.12914620105E+03  0.12914620105E+03  0.00000000000E+00 0.  1.
          3   -1    0    0  501    0  0.00000000000E+00 -0.00000000000E+00 -0.11781289714E+03  0.11781289714E+03  0.00000000000E+00 0. -1.
         25    2    1    2    0    0 -0.46211240542E+02  0.31558220456E+02  0.75722407608E+01  0.13724523883E+03  0.12509003446E+03 0.  0.
          5    1    3    3  502    0 -0.37317615120E+02  0.76748955343E+02 -0.13361298064E+02  0.86481230510E+02  0.41800000000E+01 0.  1.
         -5    1    3    3    0  502 -0.88936254223E+01 -0.45190734887E+02  0.20933538825E+02  0.50764008318E+02  0.41800000000E+01 0.  1.
        -11    1    1    2    0    0 -0.47296069669E+01 -0.12260559131E+02  0.41443394477E+02  0.43476952952E+02  0.00000000000E+00 0.  1.
         11    1    1    2    0    0  0.50940847509E+02 -0.19297661325E+02 -0.37682331327E+02  0.66236906418E+02  0.00000000000E+00 0. -1.
</event>
<event>
 7    1  0.2420569E-009  0.3486783E+03  0.7561462E-02  0.1063159E+00
         -2   -1    0    0    0  501 -0.00000000000E+00  0.00000000000E+00  0.21577157059E+03  0.21577157059E+03  0.00000000000E+00 0.  1.
          2   -1    0    0  501    0  0.00000000000E+00 -0.00000000000E+00 -0.10313682977E+04  0.10313682977E+04  0.00000000000E+00 0. -1.
         25    2    1    2    0    0  0.32703149412E+03 -0.89611152483E+02 -0.25442130658E+01  0.36143510210E+03  0.12509637569E+03 0.  0.
          5    1    3    3  502    0  0.53494918983E+02 -0.42725555084E+02  0.41850438822E+02  0.80349928710E+02  0.41800000000E+01 0. -1.
         -5    1    3    3    0  502  0.27353657514E+03 -0.46885597399E+02 -0.44394651888E+02  0.28108517339E+03  0.41800000000E+01 0. -1.
        -11    1    1    2    0    0 -0.17804214330E+03  0.95627672277E+02 -0.47831255106E+03  0.51925576838E+03  0.00000000000E+00 0. -1.
         11    1    1    2    0    0 -0.14898935083E+03 -0.60165197948E+01 -0.33473996294E+03  0.36644899776E+03  0.00000000000E+00 0.  1.
</event>
<event>
 7    1  0.2420569E-009  0.2213597E+03  0.7561462E-02  0.1132873E+00
          2   -1    0    0  501    0  0.00000000000E+00  0.00000000000E+00  0.38616784329E+03  0.38616784329E+03  0.00000000000E+00 0. -1.
         -2   -1    0    0    0  501 -0.00000000000E+00 -0.00000000000E+00 -0.13299274616E+03  0.13299274616E+03  0.00000000000E+00 0.  1.
         25    2    1    2    0    0 -0.18937959119E+03 -0.57539438474E+02  0.14464590535E+03  0.27521949842E+03  0.12509163776E+03 0.  0.
          5    1    3    3  502    0 -0.16175787711E+03 -0.11631072712E+00  0.68162922480E+02  0.17558268917E+03  0.41800000000E+01 0. -1.
         -5    1    3    3    0  502 -0.27621714083E+02 -0.57423127747E+02  0.76482982868E+02  0.99636809250E+02  0.41800000000E+01 0. -1.
        -11    1    1    2    0    0  0.10510262972E+03  0.77323123494E+02  0.51503058262E+02  0.14027827063E+03  0.00000000000E+00 0. -1.
         11    1    1    2    0    0  0.84276961478E+02 -0.19783685020E+02  0.57026133525E+02  0.10366282040E+03  0.00000000000E+00 0.  1.
</event>
<event>
 7    1  0.2420569E-009  0.1174679E+03  0.7561462E-02  0.1247334E+00
          4   -1    0    0  501    0  0.00000000000E+00  0.00000000000E+00  0.13087500528E+03  0.13087500528E+03  0.00000000000E+00 0. -1.
         -4   -1    0    0    0  501 -0.00000000000E+00 -0.00000000000E+00 -0.33077737282E+03  0.33077737282E+03  0.00000000000E+00 0.  1.
         25    2    1    2    0    0 -0.55672377027E+02  0.93537247245E+02 -0.26051822062E+03  0.30881550550E+03  0.12509453615E+03 0.  0.
          5    1    3    3  502    0  0.13866168384E+02  0.13340455219E+02 -0.16434069473E+03  0.16551608598E+03  0.41800000000E+01 0.  1.
         -5    1    3    3    0  502 -0.69538545411E+02  0.80196792025E+02 -0.96177525885E+02  0.14329941952E+03  0.41800000000E+01 0.  1.
        -11    1    1    2    0    0  0.24504586245E+02 -0.35439953419E+02  0.73936504509E+02  0.85574948112E+02  0.00000000000E+00 0. -1.
         11    1    1    2    0    0  0.31167790782E+02 -0.58097293826E+02 -0.13320651429E+02  0.67261924493E+02  0.00000000000E+00 0.  1.
</event>
<event>
 7    1  0.2420569E-009  0.1060364E+03  0.7561462E-02  0.1268091E+00
          1   -1    0    0  501    0  0.00000000000E+00  0.00000000000E+00  0.42330263761E+03  0.42330263761E+03  0.00000000000E+00 0.  1.
         -1   -1    0    0    0  501 -0.00000000000E+00 -0.00000000000E+00 -0.35802506688E+02  0.35802506688E+02  0.00000000000E+00 0. -1.
         25    2    1    2    0    0 -0.31589785141E+02 -0.47860930282E+02  0.23958156280E+03  0.27628848864E+03  0.12508965005E+03 0.  0.
          5    1    3    3  502    0 -0.19039888793E+02  0.34804665042E+02  0.27974830570E+02  0.48723152806E+02  0.41800000000E+01 0.  1.
         -5    1    3    3    0  502 -0.12549896348E+02 -0.82665595323E+02  0.21160673223E+03  0.22756533583E+03  0.41800000000E+01 0.  1.
        -11    1    1    2    0    0  0.46074208713E+02  0.89379257454E+01  0.12882330888E+03  0.13710639714E+03  0.00000000000E+00 0.  1.
         11    1    1    2    0    0 -0.14484423572E+02  0.38923004536E+02  0.19095259238E+02  0.45710258517E+02  0.00000000000E+00 0. -1.
</event>
<event>
 7    1  0.2420569E-009  0.1083445E+03  0.7561462E-02  0.1263667E+00
         -1   -1    0    0    0  501 -0.00000000000E+00  0.00000000000E+00  0.26003735664E+03  0.26003735664E+03  0.00000000000E+00 0.  1.
          1   -1    0    0  501    0  0.00000000000E+00 -0.00000000000E+00 -0.73435442783E+02  0.73435442783E+02  0.00000000000E+00 0. -1.
         25    2    1    2    0    0  0.72882765097E+02  0.44157730022E+02  0.10662966191E+03  0.18514676904E+03  0.12509052210E+03 0.  0.
          5    1    3    3  502    0 -0.22137702674E+02 -0.50381701315E+01  0.67168589985E+02  0.71025016145E+02  0.41800000000E+01 0.  1.
         -5    1    3    3    0  502  0.95020467770E+02  0.49195900154E+02  0.39461071925E+02  0.11412175290E+03  0.41800000000E+01 0.  1.
        -11    1    1    2    0    0 -0.41175346081E+02 -0.16196326782E+02 -0.13064617465E+02  0.46134741309E+02  0.00000000000E+00 0. -1.
         11    1    1    2    0    0 -0.31707419015E+02 -0.27961403240E+02  0.93036869409E+02  0.10219128907E+03  0.00000000000E+00 0.  1.
</event>
<event>
 7    1  0.2420569E-009  0.8991243E+02  0.7561462E-02  0.1303064E+00
         -2   -1    0    0    0  501 -0.00000000000E+00  0.00000000000E+00  0.57044282780E+03  0.57044282780E+03  0.00000000000E+00 0.  1.
          2   -1    0    0  501    0  0.00000000000E+00 -0.00000000000E+00 -0.27169839593E+02  0.27169839593E+02  0.00000000000E+00 0. -1.
         25    2    1    2    0    0  0.58784930999E+02  0.15623862944E+02  0.29013298238E+03  0.32175155594E+03  0.12508854095E+03 0.  0.
          5    1    3    3  502    0 -0.61788860400E+01  0.11846756469E+02 -0.83015823037E+01  0.16276146359E+02  0.41800000000E+01 0. -1.
         -5    1    3    3    0  502  0.64963817039E+02  0.37771064744E+01  0.29843456469E+03  0.30547540958E+03  0.41800000000E+01 0. -1.
        -11    1    1    2    0    0 -0.49907240376E+02 -0.46668821249E+02  0.21648698454E+03  0.22701393348E+03  0.00000000000E+00 0.  1.
         11    1    1    2    0    0 -0.88776906230E+01  0.31044958305E+02  0.36653021288E+02  0.48847177979E+02  0.00000000000E+00 0. -1.
</event>
<event>
 7    1  0.2420569E-009  0.8436977E+02  0.7561462E-02  0.1317089E+00
          2   -1    0    0  501    0  0.00000000000E+00  0.00000000000E+00  0.86901832189E+03  0.86901832189E+03  0.00000000000E+00 0. -1.
         -2   -1    0    0    0  501 -0.00000000000E+00 -0.00000000000E+00 -0.15601977436E+02  0.15601977436E+02  0.00000000000E+00 0.  1.
         25    2    1    2    0    0 -0.34835024403E+02  0.16585899938E+02  0.39262597946E+03  0.41387307160E+03  0.12508872307E+03 0.  0.
          5    1    3    3  502    0  0.10157071705E+02  0.25428263891E+02  0.35010639094E+03  0.35120039876E+03  0.41800000000E+01 0. -1.
         -5    1    3    3    0  502 -0.44992096108E+02 -0.88423639526E+01  0.42519588525E+02  0.62672672839E+02  0.41800000000E+01 0. -1.
        -11    1    1    2    0    0 -0.10081797075E+02 -0.42134002088E+02  0.24923588578E+03  0.25297320713E+03  0.00000000000E+00 0.  1.
         11    1    1    2    0    0  0.44916821477E+02  0.25548102150E+02  0.21155447922E+03  0.21777402061E+03  0.00000000000E+00 0. -1.
</event>
<event>
 7    1  0.2420569E-009  0.1201678E+03  0.7561462E-02  0.1242821E+00
         -1   -1    0    0    0  501 -0.00000000000E+00  0.00000000000E+00  0.27920274514E+03  0.27920274514E+03  0.00000000000E+00 0.  1.
          1   -1    0    0  501    0  0.00000000000E+00 -0.00000000000E+00 -0.67670138193E+02  0.67670138193E+02  0.00000000000E+00 0. -1.
         25    2    1    2    0    0 -0.37163324038E+02 -0.91225239408E+01  0.66242094993E+02  0.14662759103E+03  0.12508917702E+03 0.  0.
          5    1    3    3  502    0 -0.76151927511E+02 -0.33973667592E+02  0.50659053522E+02  0.97658272855E+02  0.41800000000E+01 0.  1.
         -5    1    3    3    0  502  0.38988603472E+02  0.24851143651E+02  0.15583041471E+02  0.48969318180E+02  0.41800000000E+01 0.  1.
        -11    1    1    2    0    0  0.54362677867E+02  0.45040401857E+02  0.14403061577E+03  0.16040186041E+03  0.00000000000E+00 0.  1.
         11    1    1    2    0    0 -0.17199353829E+02 -0.35917877916E+02  0.12598961828E+01  0.39843431887E+02  0.00000000000E+00 0. -1.
</event>
<event>
 7    1  0.2420569E-009  0.1233676E+03  0.7561462E-02  0.1237643E+00
          1   -1    0    0  501    0  0.00000000000E+00  0.00000000000E+00  0.74965422209E+03  0.74965422209E+03  0.00000000000E+00 0. -1.
         -1   -1    0    0    0  501 -0.00000000000E+00 -0.00000000000E+00 -0.26766055527E+02  0.26766055527E+02  0.00000000000E+00 0.  1.
         25    2    1    2    0    0  0.44459189828E+01  0.87767242043E+02  0.39489905041E+03  0.42345643059E+03  0.12508890287E+03 0.  0.
          5    1    3    3  502    0 -0.29997587830E+02  0.10632650670E+03  0.32437820999E+03  0.34270085617E+03  0.41800000000E+01 0. -1.
         -5    1    3    3    0  502  0.34443506813E+02 -0.18559264661E+02  0.70520840417E+02  0.80755574417E+02  0.41800000000E+01 0. -1.
        -11    1    1    2    0    0  0.18207995237E+02 -0.36937297498E+02  0.33001769396E+02  0.52773211199E+02  0.00000000000E+00 0.  1.
         11    1    1    2    0    0 -0.22653914220E+02 -0.50829944544E+02  0.29498734676E+03  0.30019063583E+03  0.00000000000E+00 0. -1.
</event>
<event>
 7    1  0.2420569E-009  0.8951855E+02  0.7561462E-02  0.1304022E+00
         -1   -1    0    0    0  501 -0.00000000000E+00  0.00000000000E+00  0.57325074530E+02  0.57325074530E+02  0.00000000000E+00 0.  1.
          1   -1    0    0  501    0  0.00000000000E+00 -0.00000000000E+00 -0.22288176286E+03  0.22288176286E+03  0.00000000000E+00 0. -1.
         25    2    1    2    0    0 -0.15367356113E+02 -0.26725987859E+02 -0.82969175194E+02  0.15323775752E+03  0.12508993660E+03 0.  0.
          5    1    3    3  502    0  0.53844097055E+02 -0.15429573184E+02 -0.51708962858E+02  0.76344926198E+02  0.41800000000E+01 0. -1.
         -5    1    3    3    0  502 -0.69211453168E+02 -0.11296414675E+02 -0.31260212335E+02  0.76892831327E+02  0.41800000000E+01 0. -1.
        -11    1    1    2    0    0  0.27975183480E+02  0.63971777793E+01  0.10727488247E+02  0.30636804311E+02  0.00000000000E+00 0.  1.
         11    1    1    2    0    0 -0.12607827367E+02  0.20328810079E+02 -0.93315001383E+02  0.96332275553E+02  0.00000000000E+00 0. -1.
</event>
<event>
 7    1  0.2420569E-009  0.1346008E+03  0.7561462E-02  0.1220784E+00
          2   -1    0    0  501    0  0.00000000000E+00  0.00000000000E+00  0.11590992264E+04  0.11590992264E+04  0.00000000000E+00 0. -1.
         -2   -1    0    0    0  501 -0.00000000000E+00 -0.00000000000E+00 -0.28191150347E+02  0.28191150347E+02  0.00000000000E+00 0.  1.
         25    2    1    2    0    0  0.73063983422E+02  0.10336298094E+03  0.82470282263E+03  0.84368519176E+03  0.12509078953E+03 0.  0.
          5    1    3    3  502    0  0.49889764261E+02  0.47054323047E+02  0.13684182007E+03  0.15312169675E+03  0.41800000000E+01 0. -1.
         -5    1    3    3    0  502  0.23174219160E+02  0.56308657894E+02  0.68786100256E+03  0.69056349501E+03  0.41800000000E+01 0. -1.
        -11    1    1    2    0    0 -0.76023932435E+02 -0.62295991029E+02  0.27471974172E+03  0.29177279738E+03  0.00000000000E+00 0. -1.
         11    1    1    2    0    0  0.29599490136E+01 -0.41066989913E+02  0.31485511711E+02  0.51832387620E+02  0.00000000000E+00 0.  1.
</event>
<event>
 7    1  0.2420569E-009  0.1107150E+03  0.7561462E-02  0.1259251E+00
          2   -1    0    0  501    0  0.00000000000E+00  0.00000000000E+00  0.78387885167E+03  0.78387885167E+03  0.00000000000E+00 0. -1.
         -2   -1    0    0    0  501 -0.00000000000E+00 -0.00000000000E+00 -0.15838454969E+02  0.15838454969E+02  0.00000000000E+00 0.  1.
         25    2    1    2    0    0 -0.48936022040E+01  0.19880433255E+02  0.41166713635E+03  0.43074002818E+03  0.12509181332E+03 0.  0.
          5    1    3    3  502    0  0.48153499133E+02 -0.27057229235E+02  0.19779527840E+03  0.20540520366E+03  0.41800000000E+01 0. -1.
         -5    1    3    3    0  502 -0.53047101337E+02  0.46937662490E+02  0.21387185795E+03  0.22533482452E+03  0.41800000000E+01 0. -1.
        -11    1    1    2    0    0  0.48391920981E+02 -0.32065762391E+01  0.20118022728E+03  0.20694333523E+03  0.00000000000E+00 0.  1.
         11    1    1    2    0    0 -0.43498318777E+02 -0.16673857016E+02  0.15519303307E+03  0.16203394322E+03  0.00000000000E+00 0. -1.
</event>
<event>
 7    1  0.2420569E-009  0.6215503E+02  0.7561462E-02  0.1389004E+00
          2   -1    0    0  501    0  0.00000000000E+00  0.00000000000E+00  0.82781769764E+03  0.82781769764E+03  0.00000000000E+00 0.  1.
         -2   -1    0    0    0  501 -0.00000000000E+00 -0.00000000000E+00 -0.11281107188E+02  0.11281107188E+02  0.00000000000E+00 0. -1.
         25    2    1    2    0    0 -0.75679487403E+00  0.62567853819E+01  0.47436710620E+03  0.49062354598E+03  0.12509033663E+03 0.  0.
          5    1    3    3  502    0 -0.22670631496E+01 -0.25659256256E+02  0.14944788839E+02  0.30072514368E+02  0.41800000000E+01 0. -1.
         -5    1    3    3    0  502  0.15102682756E+01  0.31916041638E+02  0.45942231736E+03  0.46055103161E+03  0.41800000000E+01 0. -1.
        -11    1    1    2    0    0 -0.15884661963E+02 -0.31775356266E+02  0.18583066565E+03  0.18919575061E+03  0.00000000000E+00 0. -1.
         11    1    1    2    0    0  0.16641456837E+02  0.25518570885E+02  0.15633881859E+03  0.15927950824E+03  0.00000000000E+00 0.  1.
</event>
<event>
 7    1  0.2420569E-009  0.1073183E+03  0.7561462E-02  0.1265618E+00
         -3   -1    0    0    0  501 -0.00000000000E+00  0.00000000000E+00  0.50194145566E+03  0.50194145566E+03  0.00000000000E+00 0.  1.
          3   -1    0    0  501    0  0.00000000000E+00 -0.00000000000E+00 -0.23565751121E+02  0.23565751121E+02  0.00000000000E+00 0. -1.
         25    2    1    2    0    0  0.23821897217E+01 -0.42314416872E+01  0.28576575377E+03  0.31198248975E+03  0.12508967965E+03 0.  0.
          5    1    3    3  502    0  0.54492982103E+02 -0.32687268571E+02  0.17518206313E+03  0.18639788161E+03  0.41800000000E+01 0. -1.
         -5    1    3    3    0  502 -0.52110792382E+02  0.28455826884E+02  0.11058369064E+03  0.12558460814E+03  0.41800000000E+01 0. -1.
        -11    1    1    2    0    0 -0.23556177943E+02 -0.37702817832E+02  0.10710341584E+03  0.11596351873E+03  0.00000000000E+00 0.  1.
         11    1    1    2    0    0  0.21173988222E+02  0.41934259519E+02  0.85506534923E+02  0.97561198297E+02  0.00000000000E+00 0. -1.
</event>
<event>
 7    1  0.3522814E-009  0.8986151E+02  0.7561462E-02  0.1303187E+00
         -1   -1    0    0    0  501 -0.00000000000E+00  0.00000000000E+00  0.21186764864E+02  0.21186764864E+02  0.00000000000E+00 0.  1.
          1   -1    0    0  501    0  0.00000000000E+00 -0.00000000000E+00 -0.69242037214E+03  0.69242037214E+03  0.00000000000E+00 0. -1.
         25    2    1    2    0    0  0.53294195896E+02 -0.52195191530E+01 -0.39072025083E+03  0.41373442189E+03  0.12508534185E+03 0.  0.
          5    1    3    3  502    0  0.69732255439E+02  0.13759838339E+01 -0.97504624401E+02  0.11995459541E+03  0.41800000000E+01 0. -1.
         -5    1    3    3    0  502 -0.16438059543E+02 -0.65955029869E+01 -0.29321562643E+03  0.29377982648E+03  0.41800000000E+01 0. -1.
        -11    1    1    2    0    0 -0.49535592687E+02  0.35625634189E+02 -0.24717487054E+03  0.25459453525E+03  0.00000000000E+00 0. -1.
         11    1    1    2    0    0 -0.37586032092E+01 -0.30406115036E+02 -0.33338485907E+02  0.45278179869E+02  0.00000000000E+00 0.  1.
</event>
<event>
 7    1  0.2420569E-009  0.9777517E+02  0.7561462E-02  0.1285045E+00
         -1   -1    0    0    0  501 -0.00000000000E+00  0.00000000000E+00  0.16624292488E+03  0.16624292488E+03  0.00000000000E+00 0.  1.
          1   -1    0    0  501    0  0.00000000000E+00 -0.00000000000E+00 -0.10254194342E+03  0.10254194342E+03  0.00000000000E+00 0. -1.
         25    2    1    2    0    0 -0.30371646073E+02 -0.66755645613E+02  0.36952513080E+02  0.14963487466E+03  0.12508538838E+03 0.  0.
          5    1    3    3  502    0 -0.26754868226E+02 -0.72089400445E+02 -0.29703510402E+02  0.82537722046E+02  0.41800000000E+01 0.  1.
         -5    1    3    3    0  502 -0.36167778472E+01  0.53337548323E+01  0.66656023482E+02  0.67097152615E+02  0.41800000000E+01 0.  1.
        -11    1    1    2    0    0 -0.68087986035E+01 -0.17494029977E+02  0.19041347974E+02  0.26738993173E+02  0.00000000000E+00 0.  1.
         11    1    1    2    0    0  0.37180444677E+02  0.84249675590E+02  0.77071204076E+01  0.92411000473E+02  0.00000000000E+00 0. -1.
</event>
<event>
 7    1  0.2420569E-009  0.9978727E+02  0.7561462E-02  0.1280744E+00
         -3   -1    0    0    0  501 -0.00000000000E+00  0.00000000000E+00  0.13624524277E+03  0.13624524277E+03  0.00000000000E+00 0.  1.
          3   -1    0    0  501    0  0.00000000000E+00 -0.00000000000E+00 -0.13149936952E+03  0.13149936952E+03  0.00000000000E+00 0. -1.
         25    2    1    2    0    0  0.20505205652E+02  0.27766903007E+02  0.72476335768E+02  0.14863444426E+03  0.12509162407E+03 0.  0.
          5    1    3    3  502    0 -0.34173248469E+02  0.31758909454E+02  0.80434328330E+02  0.93078422926E+02  0.41800000000E+01 0.  1.
         -5    1    3    3    0  502  0.54678454120E+02 -0.39920064468E+01 -0.79579925612E+01  0.55556021330E+02  0.41800000000E+01 0.  1.
        -11    1    1    2    0    0 -0.22491887423E+02 -0.60713510779E+02 -0.40981909905E+02  0.76625924663E+02  0.00000000000E+00 0.  1.
         11    1    1    2    0    0  0.19866817713E+01  0.32946607772E+02 -0.26748552614E+02  0.42484243375E+02  0.00000000000E+00 0. -1.
</event>
<event>
 7    1  0.2420569E-009  0.1116983E+03  0.7561462E-02  0.1257457E+00
          2   -1    0    0  501    0  0.00000000000E+00  0.00000000000E+00  0.12622683709E+04  0.12622683709E+04  0.00000000000E+00 0. -1.
         -2   -1    0    0    0  501 -0.00000000000E+00 -0.00000000000E+00 -0.16563361535E+02  0.16563361535E+02  0.00000000000E+00 0.  1.
         25    2    1    2    0    0 -0.10658507356E+02  0.37319753771E+02  0.10577604111E+04  0.10658381300E+04  0.12508982462E+03 0.  0.
          5    1    3    3  502    0  0.38155616657E+02 -0.29161253440E+02  0.41753400273E+03  0.42030744179E+03  0.41800000000E+01 0.  1.
         -5    1    3    3    0  502 -0.48814124013E+02  0.66481007211E+02  0.64022640837E+03  0.64553068819E+03  0.41800000000E+01 0.  1.
        -11    1    1    2    0    0  0.19317069099E+02  0.23927684020E+02  0.28330184537E+02  0.41812469157E+02  0.00000000000E+00 0.  1.
         11    1    1    2    0    0 -0.86585617424E+01 -0.61247437791E+02  0.15961441369E+03  0.17118113327E+03  0.00000000000E+00 0. -1.
</event>
<event>
 7    1  0.2420569E-009  0.1166418E+03  0.7561462E-02  0.1248742E+00
          3   -1    0    0  501    0  0.00000000000E+00  0.00000000000E+00  0.17656324489E+03  0.17656324489E+03  0.00000000000E+00 0. -1.
         -3   -1    0    0    0  501 -0.00000000000E+00 -0.00000000000E+00 -0.11322506513E+03  0.11322506513E+03  0.00000000000E+00 0.  1.
         25    2    1    2    0    0  0.41310833852E+02 -0.58884554210E+02  0.91093906647E+02  0.17064258315E+03  0.12508723211E+03 0.  0.
          5    1    3    3  502    0  0.61006906615E+02  0.14746669836E+01  0.87698704391E+02  0.10692311466E+03  0.41800000000E+01 0. -1.
         -5    1    3    3    0  502 -0.19696072763E+02 -0.60359221194E+02  0.33952022559E+01  0.63719468483E+02  0.41800000000E+01 0. -1.
        -11    1    1    2    0    0 -0.33080578117E+02  0.79597979208E+02 -0.38496460533E+02  0.94404133470E+02  0.00000000000E+00 0.  1.
         11    1    1    2    0    0 -0.82302557349E+01 -0.20713424998E+02  0.10740733645E+02  0.24741593398E+02  0.00000000000E+00 0. -1.
</event>
<event>
 7    1  0.2420569E-009  0.7412481E+02  0.7561462E-02  0.1346603E+00
          1   -1    0    0  501    0  0.00000000000E+00  0.00000000000E+00  0.46211107106E+03  0.46211107106E+03  0.00000000000E+00 0. -1.
         -1   -1    0    0    0  501 -0.00000000000E+00 -0.00000000000E+00 -0.50606422918E+02  0.50606422918E+02  0.00000000000E+00 0.  1.
         25    2    1    2    0    0 -0.53453529853E+02  0.11078114631E+02  0.67112359138E+02  0.15209069137E+03  0.12508998830E+03 0.  0.
          5    1    3    3  502    0 -0.30541363703E+02  0.25079384433E+02  0.10106785218E+03  0.10859987829E+03  0.41800000000E+01 0.  1.
         -5    1    3    3    0  502 -0.22912166149E+02 -0.14001269802E+02 -0.33955493046E+02  0.43490813072E+02  0.41800000000E+01 0.  1.
        -11    1    1    2    0    0  0.65746561387E+02 -0.15208341090E+01  0.33705990375E+03  0.34341564028E+03  0.00000000000E+00 0. -1.
         11    1    1    2    0    0 -0.12293031535E+02 -0.95572805223E+01  0.73323852467E+01  0.17211162329E+02  0.00000000000E+00 0.  1.
</event>
<event>
 7    1  0.2420569E-009  0.1094372E+03  0.7561462E-02  0.1261616E+00
         -2   -1    0    0    0  501 -0.00000000000E+00  0.00000000000E+00  0.46969269013E+02  0.46969269013E+02  0.00000000000E+00 0.  1.
          2   -1    0    0  501    0  0.00000000000E+00 -0.00000000000E+00 -0.31683714228E+03  0.31683714228E+03  0.00000000000E+00 0. -1.
         25    2    1    2    0    0 -0.46680758006E+02  0.75668254219E+01 -0.10642570729E+03  0.17091057743E+03  0.12509054437E+03 0.  0.
          5    1    3    3  502    0 -0.86934479813E+01 -0.48323867261E+02 -0.87808275809E+02  0.10069030681E+03  0.41800000000E+01 0. -1.
         -5    1    3    3    0  502 -0.37987310025E+02  0.55890692683E+02 -0.18617431480E+02  0.70220270623E+02  0.41800000000E+01 0. -1.
        -11    1    1    2    0    0 -0.27297688295E+02 -0.57081915328E+01 -0.54109183664E+02  0.60873237088E+02  0.00000000000E+00 0.  1.
         11    1    1    2    0    0  0.73978446301E+02 -0.18586338890E+01 -0.10933298231E+03  0.13202259677E+03  0.00000000000E+00 0. -1.
</event>
<event>
 7    1  0.2420569E-009  0.7977762E+02  0.7561462E-02  0.1329684E+00
          1   -1    0    0  501    0  0.00000000000E+00  0.00000000000E+00  0.89117259190E+03  0.89117259190E+03  0.00000000000E+00 0. -1.
         -1   -1    0    0    0  501 -0.00000000000E+00 -0.00000000000E+00 -0.21860925302E+02  0.21860925302E+02  0.00000000000E+00 0.  1.
         25    2    1    2    0    0  0.56543685141E+02  0.28965568737E+02  0.68728326493E+03  0.70145733465E+03  0.12509162073E+03 0.  0.
          5    1    3    3  502    0  0.45375301160E+02  0.37010126388E+02  0.11614193456E+03  0.13013488684E+03  0.41800000000E+01 0. -1.
         -5    1    3    3    0  502  0.11168383981E+02 -0.80445576511E+01  0.57114133037E+03  0.57132244780E+03  0.41800000000E+01 0. -1.
        -11    1    1    2    0    0 -0.99715094777E+01  0.17840516498E+02  0.11745832669E+03  0.11922320890E+03  0.00000000000E+00 0. -1.
         11    1    1    2    0    0 -0.46572175663E+02 -0.46806085235E+02  0.64570074974E+02  0.92352973656E+02  0.00000000000E+00 0.  1.
</event>
<event>
 7    1  0.2420569E-009  0.1038161E+03  0.7561462E-02  0.1272470E+00
          1   -1    0    0  501    0  0.00000000000E+00  0.00000000000E+00  0.31016750200E+03  0.31016750200E+03  0.00000000000E+00 0. -1.
         -1   -1    0    0    0  501 -0.00000000000E+00 -0.00000000000E+00 -0.52121277418E+02  0.52121277418E+02  0.00000000000E+00 0.  1.
         25    2    1    2    0    0 -0.85985728602E+01 -0.59347953399E+02  0.17362156827E+03  0.22223400899E+03  0.12508953096E+03 0.  0.
          5    1    3    3  502    0 -0.16787994872E+02 -0.96410110962E+02  0.14278301872E+03  0.17315082761E+03  0.41800000000E+01 0.  1.
         -5    1    3    3    0  502  0.81894220116E+01  0.37062157562E+02  0.30838549555E+02  0.49083181383E+02  0.41800000000E+01 0.  1.
        -11    1    1    2    0    0 -0.13639235617E+02  0.86897339484E+01 -0.17657790197E+02  0.23944472827E+02  0.00000000000E+00 0.  1.
         11    1    1    2    0    0  0.22237808477E+02  0.50658219451E+02  0.10208244650E+03  0.11611029760E+03  0.00000000000E+00 0. -1.
</event>
<event>
 7    1  0.2420569E-009  0.2211187E+03  0.7561462E-02  0.1133052E+00
         -2   -1    0    0    0  501 -0.00000000000E+00  0.00000000000E+00  0.51138499139E+02  0.51138499139E+02  0.00000000000E+00 0.  1.
          2   -1    0    0  501    0  0.00000000000E+00 -0.00000000000E+00 -0.11789723130E+04  0.11789723130E+04  0.00000000000E+00 0. -1.
         25    2    1    2    0    0  0.12945000862E+03 -0.16910696626E+03 -0.44251032366E+03  0.50677162735E+03  0.12509046715E+03 0.  0.
          5    1    3    3  502    0  0.10275683693E+03 -0.79799718444E+02 -0.35782341583E+03  0.38076506131E+03  0.41800000000E+01 0. -1.
         -5    1    3    3    0  502  0.26693171689E+02 -0.89307247812E+02 -0.84686907834E+02  0.12600656604E+03  0.41800000000E+01 0. -1.
        -11    1    1    2    0    0 -0.17578223843E+02  0.59893225143E+02 -0.10340026660E+03  0.12077999630E+03  0.00000000000E+00 0.  1.
         11    1    1    2    0    0 -0.11187178478E+03  0.10921374111E+03 -0.58192322359E+03  0.60255918849E+03  0.00000000000E+00 0. -1.
</event>
<event>
 7    1  0.2420569E-009  0.1750874E+03  0.7561462E-02  0.1172644E+00
         -2   -1    0    0    0  501 -0.00000000000E+00  0.00000000000E+00  0.50908367308E+02  0.50908367308E+02  0.00000000000E+00 0.  1.
          2   -1    0    0  501    0  0.00000000000E+00 -0.00000000000E+00 -0.68636011347E+03  0.68636011347E+03  0.00000000000E+00 0. -1.
         25    2    1    2    0    0 -0.73313331351E+02  0.11725571820E+03 -0.45730650951E+03  0.49386297159E+03  0.12509053947E+03 0.  0.
          5    1    3    3  502    0  0.29947939627E+02  0.24571077500E+01 -0.10241111153E+03  0.10681022718E+03  0.41800000000E+01 0.  1.
         -5    1    3    3    0  502 -0.10326127098E+03  0.11479861045E+03 -0.35489539798E+03  0.38705274441E+03  0.41800000000E+01 0.  1.
        -11    1    1    2    0    0 -0.25008339315E+01  0.13769428985E+02 -0.20749686866E+02  0.25028001318E+02  0.00000000000E+00 0.  1.
         11    1    1    2    0    0  0.75814165282E+02 -0.13102514718E+03 -0.15739554979E+03  0.21837750787E+03  0.00000000000E+00 0. -1.
</event>
<event>
 7    1  0.2420569E-009  0.6833335E+02  0.7561462E-02  0.1365854E+00
          1   -1    0    0  501    0  0.00000000000E+00  0.00000000000E+00  0.87963144312E+02  0.87963144312E+02  0.00000000000E+00 0. -1.
         -1   -1    0    0    0  501 -0.00000000000E+00 -0.00000000000E+00 -0.21473098033E+03  0.21473098033E+03  0.00000000000E+00 0.  1.
         25    2    1    2    0    0 -0.54543525032E+01 -0.47597165232E+02 -0.14494065909E+03  0.19735833083E+03  0.12508907223E+03 0.  0.
          5    1    3    3  502    0  0.86359557928E+00 -0.22465099323E+02 -0.16357621598E+03  0.16516681664E+03  0.41800000000E+01 0. -1.
         -5    1    3    3    0  502 -0.63179480825E+01 -0.25132065909E+02  0.18635556895E+02  0.32191514187E+02  0.41800000000E+01 0. -1.
        -11    1    1    2    0    0 -0.19008703915E+02  0.57949403795E+02 -0.15032576885E+02  0.62812758199E+02  0.00000000000E+00 0.  1.
         11    1    1    2    0    0  0.24463056418E+02 -0.10352238562E+02  0.33205399949E+02  0.42523035620E+02  0.00000000000E+00 0. -1.
</event>
<event>
 7    1  0.2420569E-009  0.2271963E+03  0.7561462E-02  0.1128629E+00
         -2   -1    0    0    0  501 -0.00000000000E+00  0.00000000000E+00  0.10955917345E+03  0.10955917345E+03  0.00000000000E+00 0.  1.
          2   -1    0    0  501    0  0.00000000000E+00 -0.00000000000E+00 -0.75752733193E+03  0.75752733193E+03  0.00000000000E+00 0. -1.
         25    2    1    2    0    0  0.19488683956E+03  0.68449655362E+02 -0.58613708174E+03  0.63393275870E+03  0.12509128034E+03 0.  0.
          5    1    3    3  502    0  0.14414011410E+03 -0.72638786989E+00 -0.26716335574E+03  0.30359616464E+03  0.41800000000E+01 0.  1.
         -5    1    3    3    0  502  0.50746725453E+02  0.69176043231E+02 -0.31897372600E+03  0.33033659407E+03  0.41800000000E+01 0.  1.
        -11    1    1    2    0    0 -0.15159212857E+03 -0.10496488149E+02 -0.49186692370E+02  0.15971750190E+03  0.00000000000E+00 0.  1.
         11    1    1    2    0    0 -0.43294710986E+02 -0.57953167213E+02 -0.12644384376E+02  0.73436244768E+02  0.00000000000E+00 0. -1.
</event>
<event>
 7    1  0.2420569E-009  0.8912495E+02  0.7561462E-02  0.1304985E+00
         -1   -1    0    0    0  501 -0.00000000000E+00  0.00000000000E+00  0.28665032928E+02  0.28665032928E+02  0.00000000000E+00 0.  1.
          1   -1    0    0  501    0  0.00000000000E+00 -0.00000000000E+00 -0.60750721356E+03  0.60750721356E+03  0.00000000000E+00 0. -1.
         25    2    1    2    0    0 -0.71978946569E+02 -0.19429587620E+02 -0.37383748243E+03  0.40119930414E+03  0.12509172933E+03 0.  0.
          5    1    3    3  502    0 -0.36528767589E+02 -0.60874179572E+01 -0.35799510116E+03  0.35992967699E+03  0.41800000000E+01 0.  1.
         -5    1    3    3    0  502 -0.35450178979E+02 -0.13342169663E+02 -0.15842381269E+02  0.41269627152E+02  0.41800000000E+01 0.  1.
        -11    1    1    2    0    0  0.40320227998E+02  0.46267401155E+02 -0.16979698904E+03  0.18054753026E+03  0.00000000000E+00 0. -1.
         11    1    1    2    0    0  0.31658718571E+02 -0.26837813535E+02 -0.35207709160E+02  0.54425412090E+02  0.00000000000E+00 0.  1.
</event>
<event>
 7    1  0.2420569E-009  0.1320005E+03  0.7561462E-02  0.1224517E+00
         -2   -1    0    0    0  501 -0.00000000000E+00  0.00000000000E+00  0.83729441266E+02  0.83729441266E+02  0.00000000000E+00 0.  1.
          2   -1    0    0  501    0  0.00000000000E+00 -0.00000000000E+00 -0.26031420120E+03  0.26031420120E+03  0.00000000000E+00 0. -1.
         25    2    1    2    0    0 -0.11810925216E+02 -0.98055389734E+02 -0.11291450260E+03  0.19532533218E+03  0.12509173866E+03 0.  0.
          5    1    3    3  502    0  0.34266890170E+02  0.14686043334E+02 -0.26726010806E+02  0.46061390386E+02  0.41800000000E+01 0.  1.
         -5    1    3    3    0  502 -0.46077815386E+02 -0.11274143307E+03 -0.86188491794E+02  0.14926394179E+03  0.41800000000E+01 0.  1.
        -11    1    1    2    0    0 -0.12011927725E+02  0.42673213548E+02  0.17454836801E+02  0.47644106560E+02  0.00000000000E+00 0.  1.
         11    1    1    2    0    0  0.23822852941E+02  0.55382176186E+02 -0.81125094140E+02  0.10107420373E+03  0.00000000000E+00 0. -1.
</event>
<event>
 7    1  0.2420569E-009  0.1338755E+03  0.7561462E-02  0.1221816E+00
          1   -1    0    0  501    0  0.00000000000E+00  0.00000000000E+00  0.11540811296E+04  0.11540811296E+04  0.00000000000E+00 0. -1.
         -1   -1    0    0    0  501 -0.00000000000E+00 -0.00000000000E+00 -0.22226856508E+02  0.22226856508E+02  0.00000000000E+00 0.  1.
         25    2    1    2    0    0  0.81949318557E+02 -0.14746313089E+02  0.91178644546E+03  0.92408664253E+03  0.12509378974E+03 0.  0.
          5    1    3    3  502    0  0.11433820099E+03 -0.80421721403E+01  0.63227459021E+03  0.64259359674E+03  0.41800000000E+01 0. -1.
         -5    1    3    3    0  502 -0.32388882430E+02 -0.67041409489E+01  0.27951185524E+03  0.28149304580E+03  0.41800000000E+01 0. -1.
        -11    1    1    2    0    0 -0.99644640810E+02  0.56137438589E+01  0.20210287587E+03  0.22540217612E+03  0.00000000000E+00 0.  1.
         11    1    1    2    0    0  0.17695322254E+02  0.91325692303E+01  0.17964951715E+02  0.26819167409E+02  0.00000000000E+00 0. -1.
</event>
<event>
 7    1  0.2420569E-009  0.6732998E+02  0.7561462E-02  0.1369415E+00
          2   -1    0    0  501    0  0.00000000000E+00  0.00000000000E+00  0.16334704023E+03  0.16334704023E+03  0.00000000000E+00 0. -1.
         -2   -1    0    0    0  501 -0.00000000000E+00 -0.00000000000E+00 -0.78668409100E+02  0.78668409100E+02  0.00000000000E+00 0.  1.
         25    2    1    2    0    0  0.97249528518E+00 -0.61129927508E+01  0.85608524715E+02  0.15170481637E+03  0.12508883794E+03 0.  0.
          5    1    3    3  502    0 -0.28138102895E+02  0.40257153062E+02 -0.82947978742E+00  0.49300625188E+02  0.41800000000E+01 0. -1.
         -5    1    3    3    0  502  0.29110598181E+02 -0.46370145813E+02  0.86438004502E+02  0.10240419118E+03  0.41800000000E+01 0. -1.
        -11    1    1    2    0    0  0.78659383658E+01  0.15611939630E+02 -0.42929553866E+02  0.46352478256E+02  0.00000000000E+00 0.  1.
         11    1    1    2    0    0 -0.88384336510E+01 -0.94989468787E+01  0.41999660277E+02  0.43958154699E+02  0.00000000000E+00 0. -1.
</event>
<event>
 7    1  0.2420569E-009  0.1250388E+03  0.7561462E-02  0.1235009E+00
         -2   -1    0    0    0  501 -0.00000000000E+00  0.00000000000E+00  0.13785417689E+02  0.13785417689E+02  0.00000000000E+00 0.  1.
          2   -1    0    0  501    0  0.00000000000E+00 -0.00000000000E+00 -0.15463726542E+04  0.15463726542E+04  0.00000000000E+00 0. -1.
         25    2    1    2    0    0  0.69221709396E+02 -0.70059637143E+01 -0.12399204276E+04  0.12481549111E+04  0.12508911564E+03 0.  0.
          5    1    3    3  502    0 -0.33945767374E+02 -0.17383845248E+02 -0.40406739380E+03  0.40588476731E+03  0.41800000000E+01 0. -1.
         -5    1    3    3    0  502  0.10316747677E+03  0.10377881534E+02 -0.83585303379E+03  0.84227014383E+03  0.41800000000E+01 0. -1.
        -11    1    1    2    0    0 -0.78073241711E+02  0.29737293133E+02 -0.21847603673E+03  0.23390493005E+03  0.00000000000E+00 0.  1.
         11    1    1    2    0    0  0.88515323145E+01 -0.22731329419E+02 -0.74190772159E+02  0.78098230678E+02  0.00000000000E+00 0. -1.
</event>
<event>
 7    1  0.2420569E-009  0.7413288E+02  0.7561462E-02  0.1346577E+00
          1   -1    0    0  501    0  0.00000000000E+00  0.00000000000E+00  0.81919644573E+02  0.81919644573E+02  0.00000000000E+00 0. -1.
         -1   -1    0    0    0  501 -0.00000000000E+00 -0.00000000000E+00 -0.15925973214E+03  0.15925973214E+03  0.00000000000E+00 0.  1.
         25    2    1    2    0    0 -0.30899896561E+02  0.14861601506E+02 -0.57916530213E+02  0.14204909245E+03  0.12509176386E+03 0.  0.
          5    1    3    3  502    0 -0.53956811609E+02 -0.21339056936E+02  0.12477512566E+02  0.59496668728E+02  0.41800000000E+01 0. -1.
         -5    1    3    3    0  502  0.23056915048E+02  0.36200658442E+02 -0.70394042780E+02  0.82552423720E+02  0.41800000000E+01 0. -1.
        -11    1    1    2    0    0  0.11045936128E+02 -0.22997754230E+02  0.33449924953E+02  0.42069072772E+02  0.00000000000E+00 0. -1.
         11    1    1    2    0    0  0.19853960433E+02  0.81361527236E+01 -0.52873482311E+02  0.57061211499E+02  0.00000000000E+00 0.  1.
</event>
<event>
 7    1  0.2420569E-009  0.1432685E+03  0.7561462E-02  0.1208997E+00
          1   -1    0    0  501    0  0.00000000000E+00  0.00000000000E+00  0.20638689427E+04  0.20638689427E+04  0.00000000000E+00 0. -1.
         -1   -1    0    0    0  501 -0.00000000000E+00 -0.00000000000E+00 -0.14680800848E+02  0.14680800848E+02  0.00000000000E+00 0.  1.
         25    2    1    2    0    0  0.58222201952E+02  0.76421779850E+02  0.16594549295E+04  0.16669339571E+04  0.12509213005E+03 0.  0.
          5    1    3    3  502    0  0.20191654892E+02  0.10685811400E+03  0.11534459647E+04  0.11585686969E+04  0.41800000000E+01 0. -1.
         -5    1    3    3    0  502  0.38030547060E+02 -0.30436334153E+02  0.50600896480E+03  0.50836526023E+03  0.41800000000E+01 0. -1.
        -11    1    1    2    0    0  0.17556551130E+02 -0.42130011691E+02  0.18686541275E+03  0.19235865683E+03  0.00000000000E+00 0. -1.
         11    1    1    2    0    0 -0.75778753082E+02 -0.34291768159E+02  0.20286779956E+03  0.21925712960E+03  0.00000000000E+00 0.  1.
</event>
<event>
 7    1  0.2420569E-009  0.9063822E+02  0.7561462E-02  0.1301313E+00
         -2   -1    0    0    0  501 -0.00000000000E+00  0.00000000000E+00  0.20333592097E+03  0.20333592097E+03  0.00000000000E+00 0.  1.
          2   -1    0    0  501    0  0.00000000000E+00 -0.00000000000E+00 -0.80835549106E+02  0.80835549106E+02  0.00000000000E+00 0. -1.
         25    2    1    2    0    0  0.17762789524E+02  0.16459520999E+01 -0.67202113107E+01  0.12653404303E+03  0.12508987551E+03 0.  0.
          5    1    3    3  502    0  0.16239569113E+01 -0.46476459445E+02  0.36873078649E+02  0.59496175068E+02  0.41800000000E+01 0.  1.
         -5    1    3    3    0  502  0.16138832613E+02  0.48122411545E+02 -0.43593289959E+02  0.67037867959E+02  0.41800000000E+01 0.  1.
        -11    1    1    2    0    0  0.24976288481E+02  0.23310143691E+02  0.83663707714E+02  0.90370314671E+02  0.00000000000E+00 0. -1.
         11    1    1    2    0    0 -0.42739078005E+02 -0.24956095791E+02  0.45556875459E+02  0.67267112376E+02  0.00000000000E+00 0.  1.
</event>
<event>
 7    1  0.2420569E-009  0.1144600E+03  0.7561462E-02  0.1252527E+00
         -1   -1    0    0    0  501 -0.00000000000E+00  0.00000000000E+00  0.46409134440E+02  0.46409134440E+02  0.00000000000E+00 0.  1.
          1   -1    0    0  501    0  0.00000000000E+00 -0.00000000000E+00 -0.70651374944E+03  0.70651374944E+03  0.00000000000E+00 0. -1.
         25    2    1    2    0    0  0.16838968792E+02 -0.78364702156E+02 -0.59831022469E+03  0.61647973840E+03  0.12509022937E+03 0.  0.
          5    1    3    3  502    0  0.56840626859E+02 -0.80890969908E+00 -0.16848099191E+03  0.17786182343E+03  0.41800000000E+01 0. -1.
         -5    1    3    3    0  502 -0.40001658067E+02 -0.77555792457E+02 -0.42982923278E+03  0.43861791498E+03  0.41800000000E+01 0. -1.
        -11    1    1    2    0    0  0.21889446004E+01  0.51978243761E+02  0.14073873757E+02  0.53894371000E+02  0.00000000000E+00 0.  1.
         11    1    1    2    0    0 -0.19027913392E+02  0.26386458395E+02 -0.75868264070E+02  0.82548774477E+02  0.00000000000E+00 0. -1.
</event>
<event>
 7    1  0.2420569E-009  0.9435255E+02  0.7561462E-02  0.1292641E+00
         -2   -1    0    0    0  501 -0.00000000000E+00  0.00000000000E+00  0.61697558759E+02  0.61697558759E+02  0.00000000000E+00 0. -1.
          2   -1    0    0  501    0  0.00000000000E+00 -0.00000000000E+00 -0.45242985689E+03  0.45242985689E+03  0.00000000000E+00 0.  1.
         25    2    1    2    0    0  0.23795079280E+01 -0.54546998677E+02 -0.33197412525E+02  0.14046470567E+03  0.12508888127E+03 0.  0.
          5    1    3    3  502    0 -0.21947082215E+02  0.11949685717E+02  0.34238781206E+02  0.42593848675E+02  0.41800000000E+01 0. -1.
         -5    1    3    3    0  502  0.24326590143E+02 -0.66496684395E+02 -0.67436193731E+02  0.97870856992E+02  0.41800000000E+01 0. -1.
        -11    1    1    2    0    0  0.34637798545E+02  0.13527402593E+02 -0.56768950261E+02  0.67863697385E+02  0.00000000000E+00 0. -1.
         11    1    1    2    0    0 -0.37017306473E+02  0.41019596084E+02 -0.30076593535E+03  0.30579901260E+03  0.00000000000E+00 0.  1.
</event>
<event>
 7    1  0.2420569E-009  0.1077121E+03  0.7561462E-02  0.1264866E+00
         -4   -1    0    0    0  501 -0.00000000000E+00  0.00000000000E+00  0.16746331146E+03  0.16746331146E+03  0.00000000000E+00 0.  1.
          4   -1    0    0  501    0  0.00000000000E+00 -0.00000000000E+00 -0.88215017770E+02  0.88215017770E+02  0.00000000000E+00 0. -1.
         25    2    1    2    0    0  0.44849573239E+02  0.10522014095E+02  0.77209352601E+02  0.15405090213E+03  0.12509276286E+03 0.  0.
          5    1    3    3  502    0 -0.42233573184E+02  0.38551035217E+01  0.41868469481E+02  0.59740921182E+02  0.41800000000E+01 0.  1.
         -5    1    3    3    0  502  0.87083146423E+02  0.66669105731E+01  0.35340883120E+02  0.94309980952E+02  0.41800000000E+01 0.  1.
        -11    1    1    2    0    0 -0.43970198752E+02  0.24502262372E+02  0.28388252413E+02  0.57789550221E+02  0.00000000000E+00 0.  1.
         11    1    1    2    0    0 -0.87937448657E+00 -0.35024276467E+02 -0.26349311324E+02  0.43837876874E+02  0.00000000000E+00 0. -1.
</event>
<event>
 7    1  0.2420569E-009  0.1269282E+03  0.7561462E-02  0.1232086E+00
         -2   -1    0    0    0  501 -0.00000000000E+00  0.00000000000E+00  0.39255193647E+02  0.39255193647E+02  0.00000000000E+00 0.  1.
          2   -1    0    0  501    0  0.00000000000E+00 -0.00000000000E+00 -0.48304085233E+03  0.48304085233E+03  0.00000000000E+00 0. -1.
         25    2    1    2    0    0 -0.19615075376E+02  0.80022731883E+02 -0.27787757019E+03  0.31567577840E+03  0.12508742644E+03 0.  0.
          5    1    3    3  502    0 -0.53378753505E+02  0.50766504993E+01 -0.50170759446E+02  0.73550263150E+02  0.41800000000E+01 0.  1.
         -5    1    3    3    0  502  0.33763678129E+02  0.74946081384E+02 -0.22770681075E+03  0.24212551525E+03  0.41800000000E+01 0.  1.
        -11    1    1    2    0    0  0.30142826456E+02  0.63091946485E+01 -0.19881339851E+02  0.36656017216E+02  0.00000000000E+00 0. -1.
         11    1    1    2    0    0 -0.10527751080E+02 -0.86331926532E+02 -0.14602674864E+03  0.16996425036E+03  0.00000000000E+00 0.  1.
</event>
<event>
 7    1  0.2420569E-009  0.9512914E+02  0.7561462E-02  0.1290885E+00
          1   -1    0    0  501    0  0.00000000000E+00  0.00000000000E+00  0.12678059211E+03  0.12678059211E+03  0.00000000000E+00 0. -1.
         -1   -1    0    0    0  501 -0.00000000000E+00 -0.00000000000E+00 -0.10238729674E+03  0.10238729674E+03  0.00000000000E+00 0.  1.
         25    2    1    2    0    0  0.39968747495E+01  0.18374312199E+02  0.43762259751E+02  0.13385306253E+03  0.12509163287E+03 0.  0.
          5    1    3    3  502    0 -0.38538155578E+02 -0.29701454591E+02 -0.10200809226E+02  0.49888823889E+02  0.41800000000E+01 0.  1.
         -5    1    3    3    0  502  0.42535030327E+02  0.48075766791E+02  0.53963068977E+02  0.83964238643E+02  0.41800000000E+01 0.  1.
        -11    1    1    2    0    0 -0.11140419121E+02 -0.46634793507E+02 -0.37601815147E+02  0.60932826998E+02  0.00000000000E+00 0.  1.
         11    1    1    2    0    0  0.71435443711E+01  0.28260481308E+02  0.18232850771E+02  0.34381999319E+02  0.00000000000E+00 0. -1.
</event>
<event>
 7    1  0.2420569E-009  0.1259177E+03  0.7561462E-02  0.1233642E+00
         -2   -1    0    0    0  501 -0.00000000000E+00  0.00000000000E+00  0.37545738713E+02  0.37545738713E+02  0.00000000000E+00 0.  1.
          2   -1    0    0  501    0  0.00000000000E+00 -0.00000000000E+00 -0.71858528550E+03  0.71858528550E+03  0.00000000000E+00 0. -1.
         25    2    1    2    0    0  0.88835074661E+02 -0.83086197846E+02 -0.34288151462E+03  0.38472083856E+03  0.12508958308E+03 0.  0.
          5    1    3    3  502    0  0.37116421044E+02 -0.19214399957E+02 -0.27458804712E+03  0.27778209067E+03  0.41800000000E+01 0.  1.
         -5    1    3    3    0  502  0.51718653617E+02 -0.63871797889E+02 -0.68293467495E+02  0.10693874789E+03  0.41800000000E+01 0.  1.
        -11    1    1    2    0    0 -0.10849035819E+02  0.33287206426E+02 -0.20545522536E+02  0.40593819555E+02  0.00000000000E+00 0.  1.
         11    1    1    2    0    0 -0.77986038842E+02  0.49798991420E+02 -0.31761250964E+03  0.33081636610E+03  0.00000000000E+00 0. -1.
</event>
<event>
 7    1  0.2420569E-009  0.1071356E+03  0.7561462E-02  0.1265968E+00
         -1   -1    0    0    0  501 -0.00000000000E+00  0.00000000000E+00  0.62159732256E+02  0.62159732256E+02  0.00000000000E+00 0.  1.
          1   -1    0    0  501    0  0.00000000000E+00 -0.00000000000E+00 -0.30442982222E+03  0.30442982222E+03  0.00000000000E+00 0. -1.
         25    2    1    2    0    0 -0.21433391919E+02  0.63805894169E+02 -0.20225029816E+03  0.24715044245E+03  0.12509027011E+03 0.  0.
          5    1    3    3  502    0 -0.81253633507E+01 -0.37842801512E+02 -0.65389953580E+02  0.76101363885E+02  0.41800000000E+01 0. -1.
         -5    1    3    3    0  502 -0.13308028569E+02  0.10164869568E+03 -0.13686034458E+03  0.17104907856E+03  0.41800000000E+01 0. -1.
        -11    1    1    2    0    0 -0.67235284663E+01 -0.10879177697E+02  0.26783233046E+02  0.29680025519E+02  0.00000000000E+00 0.  1.
         11    1    1    2    0    0  0.28156920386E+02 -0.52926716472E+02 -0.66803024847E+02  0.89759086508E+02  0.00000000000E+00 0. -1.
</event>
<event>
 7    1  0.3007386E-009  0.2943689E+03  0.7561462E-02  0.1088090E+00
          1   -1    0    0  501    0  0.00000000000E+00  0.00000000000E+00  0.67090211775E+03  0.67090211775E+03  0.00000000000E+00 0. -1.
         -1   -1    0    0    0  501 -0.00000000000E+00 -0.00000000000E+00 -0.15999868206E+03  0.15999868206E+03  0.00000000000E+00 0.  1.
         25    2    1    2    0    0  0.26532727381E+03 -0.10908489294E+03  0.11450251776E+03  0.33325008336E+03  0.12508683139E+03 0.  0.
          5    1    3    3  502    0  0.41217071523E+02 -0.32419867024E+02  0.77221251554E+02  0.93437085006E+02  0.41800000000E+01 0.  1.
         -5    1    3    3    0  502  0.22411020229E+03 -0.76665025921E+02  0.37281266208E+02  0.23981299835E+03  0.41800000000E+01 0.  1.
        -11    1    1    2    0    0 -0.15826906062E+03  0.19167571173E+02  0.18520218511E+03  0.24436927119E+03  0.00000000000E+00 0. -1.
         11    1    1    2    0    0 -0.10705821320E+03  0.89917321772E+02  0.21119873282E+03  0.25328144526E+03  0.00000000000E+00 0.  1.
</event>
<event>
 7    1  0.2420569E-009  0.1034175E+03  0.7561462E-02  0.1273269E+00
          2   -1    0    0  501    0  0.00000000000E+00  0.00000000000E+00  0.67797806974E+03  0.67797806974E+03  0.00000000000E+00 0. -1.
         -2   -1    0    0    0  501 -0.00000000000E+00 -0.00000000000E+00 -0.21716907262E+02  0.21716907262E+02  0.00000000000E+00 0.  1.
         25    2    1    2    0    0  0.15884699102E+02  0.51852393756E+02  0.36717849822E+03  0.39167412628E+03  0.12509027634E+03 0.  0.
          5    1    3    3  502    0  0.45962544704E+00  0.73749509428E+02  0.35382706436E+03  0.36145575838E+03  0.41800000000E+01 0. -1.
         -5    1    3    3    0  502  0.15425073655E+02 -0.21897115671E+02  0.13351433863E+02  0.30218367894E+02  0.41800000000E+01 0. -1.
        -11    1    1    2    0    0 -0.50153430554E+02 -0.51070729240E+02  0.20873641113E+03  0.22066824718E+03  0.00000000000E+00 0.  1.
         11    1    1    2    0    0  0.34268731451E+02 -0.78166451640E+00  0.80346253132E+02  0.87352603551E+02  0.00000000000E+00 0. -1.
</event>
<event>
 7    1  0.2420569E-009  0.1056321E+03  0.7561462E-02  0.1268879E+00
          2   -1    0    0  501    0  0.00000000000E+00  0.00000000000E+00  0.45214887648E+03  0.45214887648E+03  0.00000000000E+00 0. -1.
         -2   -1    0    0    0  501 -0.00000000000E+00 -0.00000000000E+00 -0.28883857750E+02  0.28883857750E+02  0.00000000000E+00 0.  1.
         25    2    1    2    0    0 -0.19039258140E+02 -0.32393466279E+02  0.25557190923E+03  0.28701379727E+03  0.12509232202E+03 0.  0.
          5    1    3    3  502    0  0.27311125805E+02 -0.59663268453E+02  0.81157371794E+02  0.10444900474E+03  0.41800000000E+01 0. -1.
         -5    1    3    3    0  502 -0.46350383946E+02  0.27269802173E+02  0.17441453743E+03  0.18256479253E+03  0.41800000000E+01 0. -1.
        -11    1    1    2    0    0  0.34831305993E+02  0.54335050839E+02  0.14502896990E+03  0.15874167612E+03  0.00000000000E+00 0. -1.
         11    1    1    2    0    0 -0.15792047852E+02 -0.21941584560E+02  0.22664139598E+02  0.35277260836E+02  0.00000000000E+00 0.  1.
</event>
<event>
 7    1  0.2420569E-009  0.1109103E+03  0.7561462E-02  0.1258893E+00
          2   -1    0    0  501    0  0.00000000000E+00  0.00000000000E+00  0.12493452657E+03  0.12493452657E+03  0.00000000000E+00 0.  1.
         -2   -1    0    0    0  501 -0.00000000000E+00 -0.00000000000E+00 -0.11263434900E+03  0.11263434900E+03  0.00000000000E+00 0. -1.
         25    2    1    2    0    0 -0.12405881559E+02 -0.37427963654E+02 -0.22615840220E+02  0.13309072338E+03  0.12508759355E+03 0.  0.
          5    1    3    3  502    0 -0.24314159943E+02 -0.80356926154E+02 -0.26710996492E+01  0.84101255211E+02  0.41800000000E+01 0.  1.
         -5    1    3    3    0  502  0.11908278384E+02  0.42928962500E+02 -0.19944740571E+02  0.48989468173E+02  0.41800000000E+01 0.  1.
        -11    1    1    2    0    0  0.39638035935E+02  0.49342325519E+02  0.69608456851E+01  0.63673325286E+02  0.00000000000E+00 0. -1.
         11    1    1    2    0    0 -0.27232154376E+02 -0.11914361865E+02  0.27955172104E+02  0.40804826895E+02  0.00000000000E+00 0.  1.
</event>
<event>
 7    1  0.2420569E-009  0.8596589E+02  0.7561462E-02  0.1312926E+00
          1   -1    0    0  501    0  0.00000000000E+00  0.00000000000E+00  0.25224530068E+03  0.25224530068E+03  0.00000000000E+00 0. -1.
         -1   -1    0    0    0  501 -0.00000000000E+00 -0.00000000000E+00 -0.55098380241E+02  0.55098380241E+02  0.00000000000E+00 0.  1.
         25    2    1    2    0    0  0.33539199285E+02 -0.30541778710E+02  0.57928072545E+02  0.14511242432E+03  0.12507708010E+03 0.  0.
          5    1    3    3  502    0 -0.26698129487E+02 -0.30744494096E+01  0.72292194049E+02  0.77239083874E+02  0.41800000000E+01 0.  1.
         -5    1    3    3    0  502  0.60237328772E+02 -0.27467329300E+02 -0.14364121504E+02  0.67873340444E+02  0.41800000000E+01 0.  1.
        -11    1    1    2    0    0 -0.51868984610E+02  0.14042493798E+02  0.11814651521E+03  0.12979284361E+03  0.00000000000E+00 0.  1.
         11    1    1    2    0    0  0.18329785325E+02  0.16499284912E+02  0.21072332683E+02  0.32438412991E+02  0.00000000000E+00 0. -1.
</event>
<event>
 7    1  0.2420569E-009  0.9849485E+02  0.7561462E-02  0.1283493E+00
         -1   -1    0    0    0  501 -0.00000000000E+00  0.00000000000E+00  0.49774596983E+02  0.49774596983E+02  0.00000000000E+00 0.  1.
          1   -1    0    0  501    0  0.00000000000E+00 -0.00000000000E+00 -0.29815518067E+03  0.29815518067E+03  0.00000000000E+00 0. -1.
         25    2    1    2    0    0 -0.16198755295E+02 -0.47481959576E+01 -0.21354217112E+03  0.24805879973E+03  0.12509182323E+03 0.  0.
          5    1    3    3  502    0 -0.63846191626E+02 -0.28282428448E+02 -0.14700892360E+03  0.16280456984E+03  0.41800000000E+01 0. -1.
         -5    1    3    3    0  502  0.47647436331E+02  0.23534232490E+02 -0.66533247525E+02  0.85254229890E+02  0.41800000000E+01 0. -1.
        -11    1    1    2    0    0  0.27497865203E+02 -0.27903941457E+02  0.12627754064E+02  0.41160936728E+02  0.00000000000E+00 0.  1.
         11    1    1    2    0    0 -0.11299109909E+02  0.32652137415E+02 -0.47466166627E+02  0.58710041192E+02  0.00000000000E+00 0. -1.
</event>
<event>
 7    1  0.2420569E-009  0.9892520E+02  0.7561462E-02  0.1282572E+00
          2   -1    0    0  501    0  0.00000000000E+00  0.00000000000E+00  0.51047104635E+03  0.51047104635E+03  0.00000000000E+00 0.  1.
         -2   -1    0    0    0  501 -0.00000000000E+00 -0.00000000000E+00 -0.45145845726E+02  0.45145845726E+02  0.00000000000E+00 0. -1.
         25    2    1    2    0    0  0.13644527143E+02  0.15899765279E+02  0.45197001576E+03  0.46942751797E+03  0.12508526620E+03 0.  0.
          5    1    3    3  502    0  0.30686875924E+02  0.60367334292E+02  0.16342705350E+03  0.17695133122E+03  0.41800000000E+01 0.  1.
         -5    1    3    3    0  502 -0.17042348781E+02 -0.44467569013E+02  0.28854296226E+03  0.29247618675E+03  0.41800000000E+01 0.  1.
        -11    1    1    2    0    0 -0.47088379876E+02 -0.11436565091E+02  0.18869035700E+02  0.52001452371E+02  0.00000000000E+00 0.  1.
         11    1    1    2    0    0  0.33443852733E+02 -0.44632001884E+01 -0.55138508394E+01  0.34187921736E+02  0.00000000000E+00 0. -1.
</event>
<event>
 7    1  0.2420569E-009  0.1211868E+03  0.7561462E-02  0.1241152E+00
          4   -1    0    0  501    0  0.00000000000E+00  0.00000000000E+00  0.51136183296E+02  0.51136183296E+02  0.00000000000E+00 0. -1.
         -4   -1    0    0    0  501 -0.00000000000E+00 -0.00000000000E+00 -0.42313084641E+03  0.42313084641E+03  0.00000000000E+00 0.  1.
         25    2    1    2    0    0  0.45882988831E+02 -0.38296019192E+02 -0.33410863727E+03  0.36172857671E+03  0.12508856047E+03 0.  0.
          5    1    3    3  502    0 -0.10299616691E+02 -0.71163756446E+02 -0.14973155149E+03  0.16615466363E+03  0.41800000000E+01 0. -1.
         -5    1    3    3    0  502  0.56182605522E+02  0.32867737254E+02 -0.18437708578E+03  0.19557391307E+03  0.41800000000E+01 0. -1.
        -11    1    1    2    0    0  0.20604823841E+02  0.32369357852E+02 -0.20751648383E+02  0.43622987104E+02  0.00000000000E+00 0.  1.
         11    1    1    2    0    0 -0.66487812672E+02  0.59266613401E+01 -0.17134377465E+02  0.68915465896E+02  0.00000000000E+00 0. -1.
</event>
<event>
 7    1  0.2420569E-009  0.1821747E+03  0.7561462E-02  0.1165715E+00
         -2   -1    0    0    0  501 -0.00000000000E+00  0.00000000000E+00  0.25800396413E+03  0.25800396413E+03  0.00000000000E+00 0.  1.
          2   -1    0    0  501    0  0.00000000000E+00 -0.00000000000E+00 -0.22402006589E+03  0.22402006589E+03  0.00000000000E+00 0. -1.
         25    2    1    2    0    0 -0.16593982750E+03 -0.20967267838E+02  0.15162867858E+03  0.25809330330E+03  0.12508095126E+03 0.  0.
          5    1    3    3  502    0 -0.26896819766E+02 -0.31788370409E+02  0.10157877140E+03  0.10986199800E+03  0.41800000000E+01 0.  1.
         -5    1    3    3    0  502 -0.13904300773E+03  0.10821102571E+02  0.50049907184E+02  0.14823130529E+03  0.41800000000E+01 0.  1.
        -11    1    1    2    0    0  0.72155486514E+02  0.46418600035E+02 -0.86628210882E+02  0.12192435189E+03  0.00000000000E+00 0.  1.
         11    1    1    2    0    0  0.93784340983E+02 -0.25451332196E+02 -0.31016569458E+02  0.10200637483E+03  0.00000000000E+00 0. -1.
</event>
<event>
 7    1  0.2420569E-009  0.9737027E+02  0.7561462E-02  0.1285925E+00
          2   -1    0    0  501    0  0.00000000000E+00  0.00000000000E+00  0.80099241920E+03  0.80099241920E+03  0.00000000000E+00 0. -1.
         -2   -1    0    0    0  501 -0.00000000000E+00 -0.00000000000E+00 -0.17485636405E+02  0.17485636405E+02  0.00000000000E+00 0.  1.
         25    2    1    2    0    0 -0.58691702857E+01 -0.18452789426E+02  0.60231786080E+03  0.61547528529E+03  0.12509224102E+03 0.  0.
          5    1    3    3  502    0  0.49042232134E+02 -0.39064832592E+02  0.22528059467E+03  0.23388035491E+03  0.41800000000E+01 0.  1.
         -5    1    3    3    0  502 -0.54911402420E+02  0.20612043165E+02  0.37703726613E+03  0.38159493038E+03  0.41800000000E+01 0.  1.
        -11    1    1    2    0    0  0.17405495328E+02  0.42775381242E+02  0.16554873862E+03  0.17186933806E+03  0.00000000000E+00 0. -1.
         11    1    1    2    0    0 -0.11536325042E+02 -0.24322591815E+02  0.15640183382E+02  0.31133432260E+02  0.00000000000E+00 0.  1.
</event>
<event>
 7    1  0.2420569E-009  0.2341006E+03  0.7561462E-02  0.1123786E+00
          1   -1    0    0  501    0  0.00000000000E+00  0.00000000000E+00  0.28705225385E+03  0.28705225385E+03  0.00000000000E+00 0. -1.
         -1   -1    0    0    0  501 -0.00000000000E+00 -0.00000000000E+00 -0.28693529404E+03  0.28693529404E+03  0.00000000000E+00 0.  1.
         25    2    1    2    0    0  0.21372107461E+03 -0.62921244856E+02  0.14415269300E+03  0.29336466633E+03  0.12508815998E+03 0.  0.
          5    1    3    3  502    0  0.16487458728E+03 -0.25555431329E+02  0.15840108253E+03  0.23009798988E+03  0.41800000000E+01 0.  1.
         -5    1    3    3    0  502  0.48846487335E+02 -0.37365813527E+02 -0.14248389528E+02  0.63266676455E+02  0.41800000000E+01 0.  1.
        -11    1    1    2    0    0 -0.15232097200E+03  0.80464354299E+00 -0.10467807745E+03  0.18482376975E+03  0.00000000000E+00 0.  1.
         11    1    1    2    0    0 -0.61400102607E+02  0.62116601313E+02 -0.39357655729E+02  0.95799111808E+02  0.00000000000E+00 0. -1.
</event>
<event>
 7    1  0.2420569E-009  0.9798019E+02  0.7561462E-02  0.1284602E+00
          2   -1    0    0  501    0  0.00000000000E+00  0.00000000000E+00  0.23685957650E+03  0.23685957650E+03  0.00000000000E+00 0. -1.
         -2   -1    0    0    0  501 -0.00000000000E+00 -0.00000000000E+00 -0.47288205829E+02  0.47288205829E+02  0.00000000000E+00 0.  1.
         25    2    1    2    0    0 -0.15429702883E+02 -0.83810682987E+01  0.12412792857E+03  0.17709620473E+03  0.12508798920E+03 0.  0.
          5    1    3    3  502    0 -0.59784460970E+02 -0.31381592026E+02  0.38414409185E+02  0.77795406835E+02  0.41800000000E+01 0. -1.
         -5    1    3    3    0  502  0.44354758087E+02  0.23000523727E+02  0.85713519390E+02  0.99300797896E+02  0.41800000000E+01 0. -1.
        -11    1    1    2    0    0  0.12897845197E+01 -0.33728135270E+02  0.49386432197E+02  0.59818645404E+02  0.00000000000E+00 0.  1.
         11    1    1    2    0    0  0.14139918363E+02  0.42109203568E+02  0.16057009896E+02  0.47232932190E+02  0.00000000000E+00 0. -1.
</event>
<event>
 7    1  0.2420569E-009  0.1348404E+03  0.7561462E-02  0.1220445E+00
         -1   -1    0    0    0  501 -0.00000000000E+00  0.00000000000E+00  0.28221239450E+03  0.28221239450E+03  0.00000000000E+00 0.  1.
          1   -1    0    0  501    0  0.00000000000E+00 -0.00000000000E+00 -0.10651874052E+03  0.10651874052E+03  0.00000000000E+00 0. -1.
         25    2    1    2    0    0 -0.35926864658E+02 -0.11132270805E+03  0.16713459624E+03  0.23930036446E+03  0.12508879342E+03 0.  0.
          5    1    3    3  502    0 -0.13236844527E+02 -0.82137139146E+02  0.18127596006E+03  0.19949979893E+03  0.41800000000E+01 0. -1.
         -5    1    3    3    0  502 -0.22690020131E+02 -0.29185568903E+02 -0.14141363815E+02  0.39800565528E+02  0.41800000000E+01 0. -1.
        -11    1    1    2    0    0 -0.17809285820E+02  0.89371248131E+02  0.43791683285E+01  0.91233589040E+02  0.00000000000E+00 0. -1.
         11    1    1    2    0    0  0.53736150479E+02  0.21951459919E+02  0.41798894140E+01  0.58197181515E+02  0.00000000000E+00 0.  1.
</event>
<event>
 7    1  0.2420569E-009  0.1300143E+03  0.7561462E-02  0.1227435E+00
          1   -1    0    0  501    0  0.00000000000E+00  0.00000000000E+00  0.34978606371E+02  0.34978606371E+02  0.00000000000E+00 0. -1.
         -1   -1    0    0    0  501 -0.00000000000E+00 -0.00000000000E+00 -0.62575420421E+03  0.62575420421E+03  0.00000000000E+00 0.  1.
         25    2    1    2    0    0  0.44770173516E+02  0.62107702151E+02 -0.45817287824E+03  0.48107309862E+03  0.12508878746E+03 0.  0.
          5    1    3    3  502    0 -0.34250972669E+02 -0.13652857475E+02 -0.11607518827E+03  0.12186242808E+03  0.41800000000E+01 0.  1.
         -5    1    3    3    0  502  0.79021146185E+02  0.75760559626E+02 -0.34209768998E+03  0.35921067054E+03  0.41800000000E+01 0.  1.
        -11    1    1    2    0    0 -0.94057022500E+01 -0.75105315674E+02 -0.11594365588E+03  0.13846373899E+03  0.00000000000E+00 0.  1.
         11    1    1    2    0    0 -0.35364471266E+02  0.12997613523E+02 -0.16659063713E+02  0.41195972971E+02  0.00000000000E+00 0. -1.
</event>
<event>
 7    1  0.2420569E-009  0.1117628E+03  0.7561462E-02  0.1257340E+00
          3   -1    0    0  501    0  0.00000000000E+00  0.00000000000E+00  0.11365698128E+03  0.11365698128E+03  0.00000000000E+00 0. -1.
         -3   -1    0    0    0  501 -0.00000000000E+00 -0.00000000000E+00 -0.12556907226E+03  0.12556907226E+03  0.00000000000E+00 0.  1.
         25    2    1    2    0    0 -0.34197927952E+02  0.19315111084E+02 -0.46884206475E+02  0.13924179883E+03  0.12509027913E+03 0.  0.
          5    1    3    3  502    0 -0.98808417651E+01  0.71495257527E+02 -0.17099815462E+02  0.74290503913E+02  0.41800000000E+01 0. -1.
         -5    1    3    3    0  502 -0.24317086187E+02 -0.52180146443E+02 -0.29784391013E+02  0.64951294917E+02  0.41800000000E+01 0. -1.
        -11    1    1    2    0    0  0.32412757217E+02  0.29998443673E+02  0.13619389588E+02  0.46216676924E+02  0.00000000000E+00 0.  1.
         11    1    1    2    0    0  0.17851707355E+01 -0.49313554757E+02  0.21352725902E+02  0.53767577784E+02  0.00000000000E+00 0. -1.
</event>
<event>
 7    1  0.2420569E-009  0.9775337E+02  0.7561462E-02  0.1285092E+00
         -2   -1    0    0    0  501 -0.00000000000E+00  0.00000000000E+00  0.37297060688E+02  0.37297060688E+02  0.00000000000E+00 0.  1.
          2   -1    0    0  501    0  0.00000000000E+00 -0.00000000000E+00 -0.34393218191E+03  0.34393218191E+03  0.00000000000E+00 0. -1.
         25    2    1    2    0    0  0.17417426708E+02 -0.26365260522E+02 -0.17688406398E+03  0.21893895220E+03  0.12509116269E+03 0.  0.
          5    1    3    3  502    0  0.35597632380E+02  0.35780882966E+02 -0.31265995984E+02  0.59518887101E+02  0.41800000000E+01 0. -1.
         -5    1    3    3    0  502 -0.18180205672E+02 -0.62146143488E+02 -0.14561806799E+03  0.15942006509E+03  0.41800000000E+01 0. -1.
        -11    1    1    2    0    0  0.27143752064E+02  0.22483353620E+02 -0.13521280178E+02  0.37750622296E+02  0.00000000000E+00 0.  1.
         11    1    1    2    0    0 -0.44561178772E+02  0.38819069018E+01 -0.11622977707E+03  0.12453966810E+03  0.00000000000E+00 0. -1.
</event>
<event>
 7    1  0.2420569E-009  0.1446862E+03  0.7561462E-02  0.1207159E+00
          1   -1    0    0  501    0  0.00000000000E+00  0.00000000000E+00  0.49124726602E+03  0.49124726602E+03  0.00000000000E+00 0. -1.
         -1   -1    0    0    0  501 -0.00000000000E+00 -0.00000000000E+00 -0.69154140451E+02  0.69154140451E+02  0.00000000000E+00 0.  1.
         25    2    1    2    0    0  0.13080289222E+02  0.13615441040E+03  0.12827207099E+03  0.22541461937E+03  0.12509559941E+03 0.  0.
          5    1    3    3  502    0  0.16798140002E+02  0.87610222344E+01  0.90305982526E+02  0.92366530183E+02  0.41800000000E+01 0. -1.
         -5    1    3    3    0  502 -0.37178507805E+01  0.12739338817E+03  0.37966088468E+02  0.13304808919E+03  0.41800000000E+01 0. -1.
        -11    1    1    2    0    0  0.13165341402E+02 -0.71050541863E+02  0.22642209652E+03  0.23767303488E+03  0.00000000000E+00 0. -1.
         11    1    1    2    0    0 -0.26245630623E+02 -0.65103868538E+02  0.67398958051E+02  0.97313752223E+02  0.00000000000E+00 0.  1.
</event>
<event>
 7    1  0.2420569E-009  0.1259533E+03  0.7561462E-02  0.1233587E+00
          1   -1    0    0  501    0  0.00000000000E+00  0.00000000000E+00  0.90430859962E+02  0.90430859962E+02  0.00000000000E+00 0.  1.
         -1   -1    0    0    0  501 -0.00000000000E+00 -0.00000000000E+00 -0.20339722157E+03  0.20339722157E+03  0.00000000000E+00 0. -1.
         25    2    1    2    0    0  0.68522409753E+02  0.46765398428E+02 -0.28507872482E+02  0.15278141448E+03  0.12508852341E+03 0.  0.
          5    1    3    3  502    0 -0.33127738657E+02  0.33739253798E+02 -0.69635673851E+01  0.47976535787E+02  0.41800000000E+01 0.  1.
         -5    1    3    3    0  502  0.10165014841E+03  0.13026144630E+02 -0.21544305097E+02  0.10480487869E+03  0.41800000000E+01 0.  1.
        -11    1    1    2    0    0 -0.58074132461E+02 -0.60993769661E+02 -0.89293077371E+02  0.12274403637E+03  0.00000000000E+00 0. -1.
         11    1    1    2    0    0 -0.10448277292E+02  0.14228371233E+02  0.48345882444E+01  0.18302630680E+02  0.00000000000E+00 0.  1.
</event>
<event>
 7    1  0.2420569E-009  0.9027237E+02  0.7561462E-02  0.1302193E+00
          2   -1    0    0  501    0  0.00000000000E+00  0.00000000000E+00  0.65931732790E+02  0.65931732790E+02  0.00000000000E+00 0. -1.
         -2   -1    0    0    0  501 -0.00000000000E+00 -0.00000000000E+00 -0.30982263220E+03  0.30982263220E+03  0.00000000000E+00 0.  1.
         25    2    1    2    0    0  0.32133915971E+02 -0.68143171816E+02 -0.20380281592E+03  0.25072124440E+03  0.12509785848E+03 0.  0.
          5    1    3    3  502    0  0.50700129456E+02 -0.40319224002E+02 -0.26286879753E+02  0.70032959369E+02  0.41800000000E+01 0. -1.
         -5    1    3    3    0  502 -0.18566213484E+02 -0.27823947814E+02 -0.17751593616E+03  0.18068828503E+03  0.41800000000E+01 0. -1.
        -11    1    1    2    0    0 -0.36067536360E+02  0.41467063577E+02 -0.67189006449E+02  0.86802921198E+02  0.00000000000E+00 0.  1.
         11    1    1    2    0    0  0.39336203887E+01  0.26676108239E+02  0.27100922958E+02  0.38230199389E+02  0.00000000000E+00 0. -1.
</event>
<event>
 7    1  0.2420569E-009  0.1336837E+03  0.7561462E-02  0.1222090E+00
         -1   -1    0    0    0  501 -0.00000000000E+00  0.00000000000E+00  0.64574185082E+03  0.64574185082E+03  0.00000000000E+00 0.  1.
          1   -1    0    0  501    0  0.00000000000E+00 -0.00000000000E+00 -0.29554661468E+02  0.29554661468E+02  0.00000000000E+00 0. -1.
         25    2    1    2    0    0  0.73665016579E+02  0.37270435540E+02  0.28289485626E+03  0.32014232915E+03  0.12508393654E+03 0.  0.
          5    1    3    3  502    0 -0.33479750602E+02  0.24751742875E+02  0.74623330691E+02  0.85554990264E+02  0.41800000000E+01 0.  1.
         -5    1    3    3    0  502  0.10714476718E+03  0.12518692665E+02  0.20827152557E+03  0.23458733888E+03  0.41800000000E+01 0.  1.
        -11    1    1    2    0    0 -0.46111490979E+02  0.22828944376E+02  0.97189849780E+02  0.10996952852E+03  0.00000000000E+00 0. -1.
         11    1    1    2    0    0 -0.27553525600E+02 -0.60099379916E+02  0.23610248331E+03  0.24518465463E+03  0.00000000000E+00 0.  1.
</event>
<event>
 7    1  0.2420569E-009  0.1456144E+03  0.7561462E-02  0.1205968E+00
         -2   -1    0    0    0  501 -0.00000000000E+00  0.00000000000E+00  0.91246464776E+02  0.91246464776E+02  0.00000000000E+00 0.  1.
          2   -1    0    0  501    0  0.00000000000E+00 -0.00000000000E+00 -0.31586835206E+03  0.31586835206E+03  0.00000000000E+00 0. -1.
         25    2    1    2    0    0 -0.53577644191E+02 -0.10157400056E+03 -0.45823690904E+02  0.17588208030E+03  0.12508738536E+03 0.  0.
          5    1    3    3  502    0  0.40414074756E+02 -0.38056169038E+02 -0.80738568329E+01  0.56251480020E+02  0.41800000000E+01 0.  1.
         -5    1    3    3    0  502 -0.93991718948E+02 -0.63517831522E+02 -0.37749834071E+02  0.11963060028E+03  0.41800000000E+01 0.  1.
        -11    1    1    2    0    0  0.17198111732E+02  0.75111854347E+02 -0.16820759989E+03  0.18501719480E+03  0.00000000000E+00 0.  1.
         11    1    1    2    0    0  0.36379532459E+02  0.26462146212E+02 -0.10590596497E+02  0.46215541740E+02  0.00000000000E+00 0. -1.
</event>
<event>
 7    1  0.4342767E-009  0.1559039E+03  0.7561462E-02  0.1193400E+00
         -2   -1    0    0    0  501 -0.00000000000E+00  0.00000000000E+00  0.38820738846E+02  0.38820738846E+02  0.00000000000E+00 0. -1.
          2   -1    0    0  501    0  0.00000000000E+00 -0.00000000000E+00 -0.11199007462E+04  0.11199007462E+04  0.00000000000E+00 0.  1.
         25    2    1    2    0    0 -0.81638265273E+02  0.13228050845E+03 -0.80234905537E+03  0.82678616160E+03  0.12509360925E+03 0.  0.
          5    1    3    3  502    0 -0.58457850416E+02  0.89870799536E+02 -0.74024802023E+03  0.74798307784E+03  0.41800000000E+01 0.  1.
         -5    1    3    3    0  502 -0.23180414857E+02  0.42409708916E+02 -0.62101035143E+02  0.78803083754E+02  0.41800000000E+01 0.  1.
        -11    1    1    2    0    0  0.34263985499E+02 -0.68086984240E+02 -0.22010578872E+03  0.23293006752E+03  0.00000000000E+00 0.  1.
         11    1    1    2    0    0  0.47374279774E+02 -0.64193524212E+02 -0.58625163261E+02  0.99005255932E+02  0.00000000000E+00 0. -1.
</event>
<event>
 7    1  0.2420569E-009  0.1868727E+03  0.7561462E-02  0.1161313E+00
          1   -1    0    0  501    0  0.00000000000E+00  0.00000000000E+00  0.59098876652E+03  0.59098876652E+03  0.00000000000E+00 0. -1.
         -1   -1    0    0    0  501 -0.00000000000E+00 -0.00000000000E+00 -0.70562472377E+02  0.70562472377E+02  0.00000000000E+00 0.  1.
         25    2    1    2    0    0  0.98187021019E+02 -0.13676813647E+03  0.33497792473E+03  0.39522594848E+03  0.12508847286E+03 0.  0.
          5    1    3    3  502    0  0.70977405006E+02 -0.19805926923E+02  0.59920745872E+02  0.95068580238E+02  0.41800000000E+01 0. -1.
         -5    1    3    3    0  502  0.27209616013E+02 -0.11696220955E+03  0.27505717886E+03  0.30015736824E+03  0.41800000000E+01 0. -1.
        -11    1    1    2    0    0 -0.99413894382E+02  0.93438244412E+02  0.95679215020E+02  0.16663835123E+03  0.00000000000E+00 0.  1.
         11    1    1    2    0    0  0.12268733629E+01  0.43329892058E+02  0.89769154389E+02  0.99686939183E+02  0.00000000000E+00 0. -1.
</event>
<event>
 7    1  0.2420569E-009  0.1389342E+03  0.7561462E-02  0.1214770E+00
         -3   -1    0    0    0  501 -0.00000000000E+00  0.00000000000E+00  0.30079689475E+03  0.30079689475E+03  0.00000000000E+00 0.  1.
          3   -1    0    0  501    0  0.00000000000E+00 -0.00000000000E+00 -0.13323408413E+03  0.13323408413E+03  0.00000000000E+00 0. -1.
         25    2    1    2    0    0  0.10041090436E+03  0.30846362376E+02 -0.54409169360E+02  0.17216786497E+03  0.12509024036E+03 0.  0.
          5    1    3    3  502    0  0.86015320733E+01  0.64675846546E+02 -0.20103306438E+02  0.68400049782E+02  0.41800000000E+01 0.  1.
         -5    1    3    3    0  502  0.91809372287E+02 -0.33829484170E+02 -0.34305862922E+02  0.10376781519E+03  0.41800000000E+01 0.  1.
        -11    1    1    2    0    0 -0.80250596871E+02 -0.31666639654E+01  0.21121665243E+03  0.22597048551E+03  0.00000000000E+00 0.  1.
         11    1    1    2    0    0 -0.20160307489E+02 -0.27679698411E+02  0.10755327551E+02  0.35892628392E+02  0.00000000000E+00 0. -1.
</event>
<event>
 7    1  0.2420569E-009  0.8196433E+02  0.7561462E-02  0.1323568E+00
         -1   -1    0    0    0  501 -0.00000000000E+00  0.00000000000E+00  0.18179814602E+03  0.18179814602E+03  0.00000000000E+00 0.  1.
          1   -1    0    0  501    0  0.00000000000E+00 -0.00000000000E+00 -0.75981325335E+02  0.75981325335E+02  0.00000000000E+00 0. -1.
         25    2    1    2    0    0  0.42041523506E+02  0.10695984583E+02  0.38075066729E+02  0.13776434458E+03  0.12508960846E+03 0.  0.
          5    1    3    3  502    0  0.52681103571E+02  0.51843894302E+02 -0.85663246091E+01  0.74524776867E+02  0.41800000000E+01 0. -1.
         -5    1    3    3    0  502 -0.10639580065E+02 -0.41147909719E+02  0.46641391338E+02  0.63239567710E+02  0.41800000000E+01 0. -1.
        -11    1    1    2    0    0 -0.23492107836E+02  0.36080291396E+01  0.86688488504E+02  0.89887657907E+02  0.00000000000E+00 0.  1.
         11    1    1    2    0    0 -0.18549415670E+02 -0.14304013723E+02 -0.18946734550E+02  0.30127468868E+02  0.00000000000E+00 0. -1.
</event>
<event>
 7    1  0.2420569E-009  0.2666713E+03  0.7561462E-02  0.1103200E+00
         -1   -1    0    0    0  501 -0.00000000000E+00  0.00000000000E+00  0.64381671551E+02  0.64381671551E+02  0.00000000000E+00 0.  1.
          1   -1    0    0  501    0  0.00000000000E+00 -0.00000000000E+00 -0.17285961047E+04  0.17285961047E+04  0.00000000000E+00 0. -1.
         25    2    1    2    0    0  0.54673344225E+02  0.25368843335E+03 -0.13246264535E+04  0.13555921334E+04  0.12509114656E+03 0.  0.
          5    1    3    3  502    0  0.27416263605E+02  0.14261124620E+03 -0.10177749482E+04  0.10280918912E+04  0.41800000000E+01 0. -1.
         -5    1    3    3    0  502  0.27257080620E+02  0.11107718716E+03 -0.30685150526E+03  0.32750024219E+03  0.41800000000E+01 0. -1.
        -11    1    1    2    0    0  0.15950797761E+02 -0.13163006337E+03 -0.13806517831E+03  0.19142333973E+03  0.00000000000E+00 0.  1.
         11    1    1    2    0    0 -0.70624141986E+02 -0.12205836998E+03 -0.20152280137E+03  0.24596230318E+03  0.00000000000E+00 0. -1.
</event>
<event>
 7    1  0.2420569E-009  0.9440874E+02  0.7561462E-02  0.1292513E+00
          2   -1    0    0  501    0  0.00000000000E+00  0.00000000000E+00  0.29785491923E+03  0.29785491923E+03  0.00000000000E+00 0. -1.
         -2   -1    0    0    0  501 -0.00000000000E+00 -0.00000000000E+00 -0.57789034573E+02  0.57789034573E+02  0.00000000000E+00 0.  1.
         25    2    1    2    0    0  0.52359946598E+02 -0.34731441832E+02  0.18874259401E+03  0.23498715021E+03  0.12508939568E+03 0.  0.
          5    1    3    3  502    0 -0.15855856068E+02 -0.12708469552E+02  0.15368969304E+03  0.15508355012E+03  0.41800000000E+01 0.  1.
         -5    1    3    3    0  502  0.68215802667E+02 -0.22022972279E+02  0.35052900967E+02  0.79903600092E+02  0.41800000000E+01 0.  1.
        -11    1    1    2    0    0 -0.20487722278E+02 -0.22703879496E+02  0.45352790921E+02  0.54699986769E+02  0.00000000000E+00 0. -1.
         11    1    1    2    0    0 -0.31872224320E+02  0.57435321327E+02  0.59704997336E+01  0.65956816829E+02  0.00000000000E+00 0.  1.
</event>
<event>
 7    1  0.2622398E-009  0.1052900E+03  0.7561462E-02  0.1269549E+00
          2   -1    0    0  501    0  0.00000000000E+00  0.00000000000E+00  0.64593012656E+03  0.64593012656E+03  0.00000000000E+00 0. -1.
         -2   -1    0    0    0  501 -0.00000000000E+00 -0.00000000000E+00 -0.29903472390E+02  0.29903472390E+02  0.00000000000E+00 0.  1.
         25    2    1    2    0    0 -0.16329838700E+02 -0.82554444449E+02  0.29154808205E+03  0.32822240463E+03  0.12509101816E+03 0.  0.
          5    1    3    3  502    0 -0.11356080714E+02 -0.12439280368E+02  0.24080215652E+03  0.24142669126E+03  0.41800000000E+01 0.  1.
         -5    1    3    3    0  502 -0.49737579863E+01 -0.70115164081E+02  0.50745925530E+02  0.86795713376E+02  0.41800000000E+01 0.  1.
        -11    1    1    2    0    0 -0.31696462023E+02  0.63822915970E+02  0.15782386304E+03  0.17316582241E+03  0.00000000000E+00 0.  1.
         11    1    1    2    0    0  0.48026300723E+02  0.18731528479E+02  0.16665470908E+03  0.17444537190E+03  0.00000000000E+00 0. -1.
</event>
<event>
 7    1  0.2420569E-009  0.9653221E+02  0.7561462E-02  0.1287762E+00
          2   -1    0    0  501    0  0.00000000000E+00  0.00000000000E+00  0.57478145289E+03  0.57478145289E+03  0.00000000000E+00 0. -1.
         -2   -1    0    0    0  501 -0.00000000000E+00 -0.00000000000E+00 -0.32709549891E+02  0.32709549891E+02  0.00000000000E+00 0.  1.
         25    2    1    2    0    0  0.19644960052E+02  0.31719173181E+02  0.46350309666E+03  0.48153350853E+03  0.12508944326E+03 0.  0.
          5    1    3    3  502    0  0.60847805811E+02  0.11499306239E+02  0.12145505771E+03  0.13639462217E+03  0.41800000000E+01 0. -1.
         -5    1    3    3    0  502 -0.41202845759E+02  0.20219866942E+02  0.34204803896E+03  0.34513888635E+03  0.41800000000E+01 0. -1.
        -11    1    1    2    0    0  0.14317167170E+01 -0.54128937721E+02  0.16372970771E+02  0.56569124825E+02  0.00000000000E+00 0.  1.
         11    1    1    2    0    0 -0.21076676769E+02  0.22409764540E+02  0.62195835568E+02  0.69388369432E+02  0.00000000000E+00 0. -1.
</event>
<event>
 7    1  0.2420569E-009  0.1072821E+03  0.7561462E-02  0.1265687E+00
         -1   -1    0    0    0  501 -0.00000000000E+00  0.00000000000E+00  0.26029306023E+03  0.26029306023E+03  0.00000000000E+00 0.  1.
          1   -1    0    0  501    0  0.00000000000E+00 -0.00000000000E+00 -0.57638297233E+02  0.57638297233E+02  0.00000000000E+00 0. -1.
         25    2    1    2    0    0  0.27319626751E+01 -0.56789802557E+02  0.10426025903E+03  0.17248240089E+03  0.12508969465E+03 0.  0.
          5    1    3    3  502    0  0.74995878787E+01 -0.96431967458E+02  0.67241985839E+02  0.11787419236E+03  0.41800000000E+01 0. -1.
         -5    1    3    3    0  502 -0.47676252036E+01  0.39642164901E+02  0.37018273192E+02  0.54608208524E+02  0.41800000000E+01 0. -1.
        -11    1    1    2    0    0  0.12918744827E+02  0.60213617245E+02  0.10972532127E+03  0.12582614910E+03  0.00000000000E+00 0.  1.
         11    1    1    2    0    0 -0.15650707502E+02 -0.34238146874E+01 -0.11330817304E+02  0.19622807473E+02  0.00000000000E+00 0. -1.
</event>
<event>
 7    1  0.2420569E-009  0.1129990E+03  0.7561462E-02  0.1255115E+00
          1   -1    0    0  501    0  0.00000000000E+00  0.00000000000E+00  0.97481821290E+03  0.97481821290E+03  0.00000000000E+00 0. -1.
         -1   -1    0    0    0  501 -0.00000000000E+00 -0.00000000000E+00 -0.16407768902E+02  0.16407768902E+02  0.00000000000E+00 0.  1.
         25    2    1    2    0    0  0.43381354499E+02  0.20172573346E+02  0.70236918660E+03  0.71502335452E+03  0.12508816326E+03 0.  0.
          5    1    3    3  502    0  0.11980049143E+02 -0.46714689213E+02  0.43213547147E+03  0.43483827094E+03  0.41800000000E+01 0. -1.
         -5    1    3    3    0  502  0.31401305356E+02  0.66887262558E+02  0.27023371512E+03  0.28018508358E+03  0.41800000000E+01 0. -1.
        -11    1    1    2    0    0  0.20383838053E+02  0.19723198441E+02  0.71661860488E+02  0.77070926159E+02  0.00000000000E+00 0.  1.
         11    1    1    2    0    0 -0.63765192552E+02 -0.39895771787E+02  0.18437939691E+03  0.19913170113E+03  0.00000000000E+00 0. -1.
</event>
<event>
 7    1  0.2597490E-009  0.1558211E+03  0.7561462E-02  0.1193497E+00
          2   -1    0    0  501    0  0.00000000000E+00  0.00000000000E+00  0.41228530139E+03  0.41228530139E+03  0.00000000000E+00 0. -1.
         -2   -1    0    0    0  501 -0.00000000000E+00 -0.00000000000E+00 -0.62640926540E+02  0.62640926540E+02  0.00000000000E+00 0.  1.
         25    2    1    2    0    0 -0.43885783673E+02 -0.10835161557E+03  0.21161887539E+03  0.27220570656E+03  0.12508942265E+03 0.  0.
          5    1    3    3  502    0 -0.28714581315E+02 -0.13372264352E+03  0.19443746412E+03  0.23775969470E+03  0.41800000000E+01 0. -1.
         -5    1    3    3    0  502 -0.15171202358E+02  0.25371027947E+02  0.17181411269E+02  0.34446011863E+02  0.41800000000E+01 0. -1.
        -11    1    1    2    0    0 -0.23252920607E+02  0.53220853622E+02  0.77474937397E+02  0.96827286969E+02  0.00000000000E+00 0. -1.
         11    1    1    2    0    0  0.67138704280E+02  0.55130761950E+02  0.60550562065E+02  0.10589323440E+03  0.00000000000E+00 0.  1.
</event>
<event>
 7    1  0.2420569E-009  0.8293434E+02  0.7561462E-02  0.1320925E+00
         -3   -1    0    0    0  501 -0.00000000000E+00  0.00000000000E+00  0.57499709173E+02  0.57499709173E+02  0.00000000000E+00 0.  1.
          3   -1    0    0  501    0  0.00000000000E+00 -0.00000000000E+00 -0.25821568249E+03  0.25821568249E+03  0.00000000000E+00 0. -1.
         25    2    1    2    0    0  0.36737295149E+02 -0.23463914946E+02 -0.15382562742E+03  0.20300440408E+03  0.12509308640E+03 0.  0.
          5    1    3    3  502    0  0.56012837128E+02 -0.59097034142E+02 -0.13595627480E+03  0.15852910908E+03  0.41800000000E+01 0.  1.
         -5    1    3    3    0  502 -0.19275541979E+02  0.35633119196E+02 -0.17869352616E+02  0.44475294998E+02  0.41800000000E+01 0.  1.
        -11    1    1    2    0    0 -0.20320798151E+02  0.13727868234E+02  0.26953668239E+02  0.36440217279E+02  0.00000000000E+00 0.  1.
         11    1    1    2    0    0 -0.16416496998E+02  0.97360467113E+01 -0.73844014135E+02  0.76270770304E+02  0.00000000000E+00 0. -1.
</event>
<event>
 7    1  0.2420569E-009  0.1931556E+03  0.7561462E-02  0.1155646E+00
         -2   -1    0    0    0  501 -0.00000000000E+00  0.00000000000E+00  0.13381929041E+03  0.13381929041E+03  0.00000000000E+00 0.  1.
          2   -1    0    0  501    0  0.00000000000E+00 -0.00000000000E+00 -0.32463471060E+03  0.32463471060E+03  0.00000000000E+00 0. -1.
         25    2    1    2    0    0 -0.16828226798E+01 -0.17415728269E+03 -0.64543286523E+02  0.22393424077E+03  0.12508843811E+03 0.  0.
          5    1    3    3  502    0  0.59892187449E+01 -0.19091790500E+03 -0.71202970386E+02  0.20389421910E+03  0.41800000000E+01 0. -1.
         -5    1    3    3    0  502 -0.76720414247E+01  0.16760622304E+02  0.66596838634E+01  0.20040021677E+02  0.41800000000E+01 0. -1.
        -11    1    1    2    0    0  0.14246175447E+02  0.11478155083E+03 -0.27976434871E+02  0.11899764213E+03  0.00000000000E+00 0.  1.
         11    1    1    2    0    0 -0.12563352767E+02  0.59375731867E+02 -0.98295698800E+02  0.11552211810E+03  0.00000000000E+00 0. -1.
</event>
<event>
 7    1  0.2420569E-009  0.1624210E+03  0.7561462E-02  0.1185990E+00
          2   -1    0    0  501    0  0.00000000000E+00  0.00000000000E+00  0.49966346798E+03  0.49966346798E+03  0.00000000000E+00 0. -1.
         -2   -1    0    0    0  501 -0.00000000000E+00 -0.00000000000E+00 -0.85937197598E+02  0.85937197598E+02  0.00000000000E+00 0.  1.
         25    2    1    2    0    0  0.22396759802E+02 -0.12642487267E+03  0.38427988374E+03  0.42403490003E+03  0.12509877745E+03 0.  0.
          5    1    3    3  502    0  0.47587406727E+02 -0.12566885246E+02  0.51362043746E+02  0.71260226084E+02  0.41800000000E+01 0. -1.
         -5    1    3    3    0  502 -0.25190646925E+02 -0.11385798742E+03  0.33291784000E+03  0.35277467395E+03  0.41800000000E+01 0. -1.
        -11    1    1    2    0    0  0.25676443666E+02  0.24528829710E+01  0.26824098415E+01  0.25932445252E+02  0.00000000000E+00 0. -1.
         11    1    1    2    0    0 -0.48073203468E+02  0.12397198970E+03  0.26763976804E+02  0.13563332030E+03  0.00000000000E+00 0.  1.
</event>
<event>
 7    1  0.2420569E-009  0.9224221E+02  0.7561462E-02  0.1297511E+00
          2   -1    0    0  501    0  0.00000000000E+00  0.00000000000E+00  0.34952451140E+03  0.34952451140E+03  0.00000000000E+00 0. -1.
         -2   -1    0    0    0  501 -0.00000000000E+00 -0.00000000000E+00 -0.59510754183E+02  0.59510754183E+02  0.00000000000E+00 0.  1.
         25    2    1    2    0    0 -0.57726080192E+02 -0.70231933554E+02  0.19928539255E+03  0.25224347883E+03  0.12508908867E+03 0.  0.
          5    1    3    3  502    0 -0.38526338345E+01 -0.54008833716E+01 -0.17734408725E+02  0.19390564238E+02  0.41800000000E+01 0.  1.
         -5    1    3    3    0  502 -0.53873446358E+02 -0.64831050182E+02  0.21701980127E+03  0.23285291459E+03  0.41800000000E+01 0.  1.
        -11    1    1    2    0    0  0.26641152437E+02  0.44623182409E+02 -0.57077036962E+01  0.52283432299E+02  0.00000000000E+00 0.  1.
         11    1    1    2    0    0  0.31084927756E+02  0.25608751145E+02  0.96436068366E+02  0.10450835445E+03  0.00000000000E+00 0. -1.
</event>
<event>
 7    1  0.2420569E-009  0.1201541E+03  0.7561462E-02  0.1242843E+00
         -1   -1    0    0    0  501 -0.00000000000E+00  0.00000000000E+00  0.10555961361E+03  0.10555961361E+03  0.00000000000E+00 0.  1.
          1   -1    0    0  501    0  0.00000000000E+00 -0.00000000000E+00 -0.15223564638E+03  0.15223564638E+03  0.00000000000E+00 0. -1.
         25    2    1    2    0    0  0.33493674201E+02  0.52249784905E+02 -0.20170866480E+01  0.13965636036E+03  0.12509182274E+03 0.  0.
          5    1    3    3  502    0  0.79442758870E+02  0.27897514031E+02  0.13157954002E+02  0.85323076477E+02  0.41800000000E+01 0.  1.
         -5    1    3    3    0  502 -0.45949084669E+02  0.24352270874E+02 -0.15175040650E+02  0.54333283881E+02  0.41800000000E+01 0.  1.
        -11    1    1    2    0    0  0.99875869786E+01 -0.58994104050E+02 -0.43760506831E+02  0.74128524634E+02  0.00000000000E+00 0.  1.
         11    1    1    2    0    0 -0.43481261180E+02  0.67443191453E+01 -0.89843928960E+00  0.44010375000E+02  0.00000000000E+00 0. -1.
</event>
<event>
 7    1  0.2420569E-009  0.1491114E+03  0.7561462E-02  0.1201569E+00
         -1   -1    0    0    0  501 -0.00000000000E+00  0.00000000000E+00  0.66024567327E+02  0.66024567327E+02  0.00000000000E+00 0.  1.
          1   -1    0    0  501    0  0.00000000000E+00 -0.00000000000E+00 -0.42799861017E+03  0.42799861017E+03  0.00000000000E+00 0. -1.
         25    2    1    2    0    0  0.11496840435E+03 -0.21511750459E+02 -0.26940316929E+03  0.31922682136E+03  0.12508879426E+03 0.  0.
          5    1    3    3  502    0  0.90517276976E+02 -0.68881108169E+02 -0.21301008113E+03  0.24151346040E+03  0.41800000000E+01 0. -1.
         -5    1    3    3    0  502  0.24451127371E+02  0.47369357710E+02 -0.56393088161E+02  0.77713360961E+02  0.41800000000E+01 0. -1.
        -11    1    1    2    0    0 -0.10787722725E+03  0.36877496395E+02 -0.42045924363E+02  0.12151257406E+03  0.00000000000E+00 0.  1.
         11    1    1    2    0    0 -0.70911770949E+01 -0.15365745936E+02 -0.50524949195E+02  0.53283782073E+02  0.00000000000E+00 0. -1.
</event>
<event>
 7    1  0.2586793E-009  0.1359315E+03  0.7561462E-02  0.1218911E+00
         -2   -1    0    0    0  501 -0.00000000000E+00  0.00000000000E+00  0.44541459144E+02  0.44541459144E+02  0.00000000000E+00 0.  1.
          2   -1    0    0  501    0  0.00000000000E+00 -0.00000000000E+00 -0.57888825246E+03  0.57888825246E+03  0.00000000000E+00 0. -1.
         25    2    1    2    0    0  0.90178908856E+02  0.70593222642E+02 -0.34199899120E+03  0.38174129301E+03  0.12508983222E+03 0.  0.
          5    1    3    3  502    0 -0.23137006836E+02  0.21346895885E+02 -0.21836204830E+02  0.38539632725E+02  0.41800000000E+01 0. -1.
         -5    1    3    3    0  502  0.11331591569E+03  0.49246326757E+02 -0.32016278637E+03  0.34320166029E+03  0.41800000000E+01 0. -1.
        -11    1    1    2    0    0 -0.40186136499E+02 -0.18367671573E+02 -0.96781209157E+01  0.45232321963E+02  0.00000000000E+00 0.  1.
         11    1    1    2    0    0 -0.49992772358E+02 -0.52225551070E+02 -0.18266968120E+03  0.19645609663E+03  0.00000000000E+00 0. -1.
</event>
<event>
 7    1  0.2420569E-009  0.1067192E+03  0.7561462E-02  0.1266769E+00
          2   -1    0    0  501    0  0.00000000000E+00  0.00000000000E+00  0.13960843025E+04  0.13960843025E+04  0.00000000000E+00 0. -1.
         -2   -1    0    0    0  501 -0.00000000000E+00 -0.00000000000E+00 -0.13134951983E+02  0.13134951983E+02  0.00000000000E+00 0.  1.
         25    2    1    2    0    0 -0.58417347025E+02 -0.40380418642E+02  0.95709411273E+03  0.96784285213E+03  0.12508989235E+03 0.  0.
          5    1    3    3  502    0  0.21169787412E+02  0.37380990664E+01  0.35182291778E+02  0.41441517087E+02  0.41800000000E+01 0.  1.
         -5    1    3    3    0  502 -0.79587134437E+02 -0.44118517709E+02  0.92191182095E+03  0.92640133505E+03  0.41800000000E+01 0.  1.
        -11    1    1    2    0    0 -0.16776706432E+02  0.73411614654E+01  0.19289639341E+02  0.26597757730E+02  0.00000000000E+00 0.  1.
         11    1    1    2    0    0  0.75194053457E+02  0.33039257177E+02  0.40656559846E+03  0.41477864463E+03  0.00000000000E+00 0. -1.
</event>
<event>
 7    1  0.2420569E-009  0.7752631E+02  0.7561462E-02  0.1336222E+00
         -1   -1    0    0    0  501 -0.00000000000E+00  0.00000000000E+00  0.37857780162E+02  0.37857780162E+02  0.00000000000E+00 0.  1.
          1   -1    0    0  501    0  0.00000000000E+00 -0.00000000000E+00 -0.38940640383E+03  0.38940640383E+03  0.00000000000E+00 0. -1.
         25    2    1    2    0    0  0.28330039136E+02 -0.20774165176E+02 -0.12381809772E+03  0.17947948147E+03  0.12509119029E+03 0.  0.
          5    1    3    3  502    0  0.35622260259E+02 -0.96308596897E+00  0.15083132411E+02  0.38921025730E+02  0.41800000000E+01 0.  1.
         -5    1    3    3    0  502 -0.72922211228E+01 -0.19811079208E+02 -0.13890123013E+03  0.14055845574E+03  0.41800000000E+01 0.  1.
        -11    1    1    2    0    0 -0.58604360655E+02  0.30222220951E+02 -0.15355263077E+03  0.16711153204E+03  0.00000000000E+00 0.  1.
         11    1    1    2    0    0  0.30274321519E+02 -0.94480557747E+01 -0.74177895183E+02  0.80673170479E+02  0.00000000000E+00 0. -1.
</event>
<event>
 7    1  0.2888043E-009  0.1818803E+03  0.7561462E-02  0.1165996E+00
         -2   -1    0    0    0  501 -0.00000000000E+00  0.00000000000E+00  0.14975619038E+03  0.14975619038E+03  0.00000000000E+00 0.  1.
          2   -1    0    0  501    0  0.00000000000E+00 -0.00000000000E+00 -0.27193794551E+03  0.27193794551E+03  0.00000000000E+00 0. -1.
         25    2    1    2    0    0  0.15590256361E+03  0.66224428752E+02 -0.74109035920E+02  0.22322643023E+03  0.12508639272E+03 0.  0.
          5    1    3    3  502    0  0.10219644155E+03  0.55256636464E+02 -0.10797249508E+03  0.15865982678E+03  0.41800000000E+01 0.  1.
         -5    1    3    3    0  502  0.53706122061E+02  0.10967792288E+02  0.33863459164E+02  0.64566603450E+02  0.41800000000E+01 0.  1.
        -11    1    1    2    0    0 -0.63429678239E+02 -0.76631027440E+02 -0.23265053193E+02  0.10216115283E+03  0.00000000000E+00 0.  1.
         11    1    1    2    0    0 -0.92472885371E+02  0.10406598688E+02 -0.24807666020E+02  0.96306552832E+02  0.00000000000E+00 0. -1.
</event>
<event>
 7    1  0.2420569E-009  0.1427766E+03  0.7561462E-02  0.1209641E+00
         -2   -1    0    0    0  501 -0.00000000000E+00  0.00000000000E+00  0.79811006340E+02  0.79811006340E+02  0.00000000000E+00 0.  1.
          2   -1    0    0  501    0  0.00000000000E+00 -0.00000000000E+00 -0.28554551811E+03  0.28554551811E+03  0.00000000000E+00 0. -1.
         25    2    1    2    0    0 -0.43987331292E+02  0.83779540530E+02 -0.16299499228E+03  0.22620478965E+03  0.12508933858E+03 0.  0.
          5    1    3    3  502    0 -0.15355868938E+02  0.11357007811E+03 -0.12836949778E+03  0.17213415034E+03  0.41800000000E+01 0.  1.
         -5    1    3    3    0  502 -0.28631462354E+02 -0.29790537581E+02 -0.34625494496E+02  0.54070639306E+02  0.41800000000E+01 0.  1.
        -11    1    1    2    0    0  0.68768167761E+02 -0.41450147305E+02 -0.40795508632E+02  0.90063583836E+02  0.00000000000E+00 0.  1.
         11    1    1    2    0    0 -0.24780836469E+02 -0.42329393225E+02 -0.19440108590E+01  0.49088150965E+02  0.00000000000E+00 0. -1.
</event>
<event>
 7    1  0.2420569E-009  0.1541267E+03  0.7561462E-02  0.1195492E+00
          1   -1    0    0  501    0  0.00000000000E+00  0.00000000000E+00  0.40190980294E+03  0.40190980294E+03  0.00000000000E+00 0. -1.
         -1   -1    0    0    0  501 -0.00000000000E+00 -0.00000000000E+00 -0.87873620763E+02  0.87873620763E+02  0.00000000000E+00 0.  1.
         25    2    1    2    0    0 -0.12315871081E+03  0.17255379509E+02  0.28168991325E+03  0.33235978272E+03  0.12509197325E+03 0.  0.
          5    1    3    3  502    0 -0.10644959527E+03  0.49889964766E+02  0.12608649371E+03  0.17244071797E+03  0.41800000000E+01 0.  1.
         -5    1    3    3    0  502 -0.16709115536E+02 -0.32634585256E+02  0.15560341954E+03  0.15991906475E+03  0.41800000000E+01 0.  1.
        -11    1    1    2    0    0  0.54724075854E+02 -0.53282284801E+02  0.10790011341E+02  0.77137219917E+02  0.00000000000E+00 0. -1.
         11    1    1    2    0    0  0.68434634955E+02  0.36026905291E+02  0.21556257583E+02  0.80286421064E+02  0.00000000000E+00 0.  1.
</event>
<event>
 7    1  0.2420569E-009  0.1733195E+03  0.7561462E-02  0.1174430E+00
         -2   -1    0    0    0  501 -0.00000000000E+00  0.00000000000E+00  0.44345971896E+02  0.44345971896E+02  0.00000000000E+00 0.  1.
          2   -1    0    0  501    0  0.00000000000E+00 -0.00000000000E+00 -0.75506625448E+03  0.75506625448E+03  0.00000000000E+00 0. -1.
         25    2    1    2    0    0 -0.13816249973E+03 -0.48856290096E+02 -0.32351052001E+03  0.37653999336E+03  0.12508995414E+03 0.  0.
          5    1    3    3  502    0 -0.77882790009E+02 -0.77768304347E+02 -0.26727215688E+03  0.28907700770E+03  0.41800000000E+01 0.  1.
         -5    1    3    3    0  502 -0.60279709720E+02  0.28912014251E+02 -0.56238363137E+02  0.87462985658E+02  0.41800000000E+01 0.  1.
        -11    1    1    2    0    0  0.36993084648E+02 -0.24654655476E+02 -0.11568024046E+03  0.12392844056E+03  0.00000000000E+00 0.  1.
         11    1    1    2    0    0  0.10116941508E+03  0.73510945572E+02 -0.27152952212E+03  0.29894379246E+03  0.00000000000E+00 0. -1.
</event>
<event>
 7    1  0.2420569E-009  0.1414585E+03  0.7561462E-02  0.1211380E+00
          1   -1    0    0  501    0  0.00000000000E+00  0.00000000000E+00  0.18918300259E+03  0.18918300259E+03  0.00000000000E+00 0. -1.
         -1   -1    0    0    0  501 -0.00000000000E+00 -0.00000000000E+00 -0.12083837787E+03  0.12083837787E+03  0.00000000000E+00 0.  1.
         25    2    1    2    0    0  0.83727848991E+02  0.55743331097E+02  0.67289275784E+02  0.17405384503E+03  0.12509685319E+03 0.  0.
          5    1    3    3  502    0  0.97631209002E+02  0.81175153677E+02  0.37913660240E+02  0.13257517331E+03  0.41800000000E+01 0.  1.
         -5    1    3    3    0  502 -0.13903360011E+02 -0.25431822580E+02  0.29375615544E+02  0.41478671723E+02  0.41800000000E+01 0.  1.
        -11    1    1    2    0    0 -0.96367645360E+02 -0.59686150994E+02 -0.15890343518E+02  0.11446249477E+03  0.00000000000E+00 0.  1.
         11    1    1    2    0    0  0.12639796368E+02  0.39428198977E+01  0.16945692446E+02  0.21505040652E+02  0.00000000000E+00 0. -1.
</event>
<event>
 7    1  0.2420569E-009  0.9579189E+02  0.7561462E-02  0.1289402E+00
         -2   -1    0    0    0  501 -0.00000000000E+00  0.00000000000E+00  0.56718479030E+03  0.56718479030E+03  0.00000000000E+00 0.  1.
          2   -1    0    0  501    0  0.00000000000E+00 -0.00000000000E+00 -0.68448401148E+02  0.68448401148E+02  0.00000000000E+00 0. -1.
         25    2    1    2    0    0 -0.50511178630E+02 -0.39689546376E+02  0.50489991978E+03  0.52411637589E+03  0.12508959680E+03 0.  0.
          5    1    3    3  502    0 -0.31444666747E+02 -0.51203156640E+02  0.49619899126E+03  0.49984141650E+03  0.41800000000E+01 0. -1.
         -5    1    3    3    0  502 -0.19066511883E+02  0.11513610264E+02  0.87009285203E+01  0.24274959399E+02  0.41800000000E+01 0. -1.
        -11    1    1    2    0    0  0.46024486150E+02  0.66849382652E+02 -0.15142700929E+02  0.82561460003E+02  0.00000000000E+00 0. -1.
         11    1    1    2    0    0  0.44866924799E+01 -0.27159836277E+02  0.89791703049E+01  0.28955355555E+02  0.00000000000E+00 0.  1.
</event>
<event>
 7    1  0.2420569E-009  0.9535350E+02  0.7561462E-02  0.1290382E+00
          3   -1    0    0  501    0  0.00000000000E+00  0.00000000000E+00  0.91769823790E+02  0.91769823790E+02  0.00000000000E+00 0. -1.
         -3   -1    0    0    0  501 -0.00000000000E+00 -0.00000000000E+00 -0.16964013467E+03  0.16964013467E+03  0.00000000000E+00 0.  1.
         25    2    1    2    0    0 -0.49869115695E+02  0.28591519480E+02 -0.74267263513E+02  0.15641735880E+03  0.12508541089E+03 0.  0.
          5    1    3    3  502    0 -0.33010149626E+02  0.56253829760E+02  0.99286572969E+01  0.66107593941E+02  0.41800000000E+01 0. -1.
         -5    1    3    3    0  502 -0.16858966070E+02 -0.27662310280E+02 -0.84195920810E+02  0.90309764854E+02  0.41800000000E+01 0. -1.
        -11    1    1    2    0    0  0.40018195683E+02  0.18847757134E+02  0.22852800931E+02  0.49788999237E+02  0.00000000000E+00 0.  1.
         11    1    1    2    0    0  0.98509200124E+01 -0.47439276614E+02 -0.26455848293E+02  0.55203600423E+02  0.00000000000E+00 0. -1.
</event>
<event>
 7    1  0.2420569E-009  0.1012740E+03  0.7561462E-02  0.1277640E+00
         -1   -1    0    0    0  501 -0.00000000000E+00  0.00000000000E+00  0.42447475119E+02  0.42447475119E+02  0.00000000000E+00 0.  1.
          1   -1    0    0  501    0  0.00000000000E+00 -0.00000000000E+00 -0.38202269529E+03  0.38202269529E+03  0.00000000000E+00 0. -1.
         25    2    1    2    0    0 -0.43686700734E+02 -0.44402810286E+02 -0.14603605476E+03  0.20212666868E+03  0.12509405869E+03 0.  0.
          5    1    3    3  502    0 -0.82652680643E+02 -0.32842279285E+01 -0.90694894163E+02  0.12282218040E+03  0.41800000000E+01 0. -1.
         -5    1    3    3    0  502  0.38965979909E+02 -0.41118582357E+02 -0.55341160593E+02  0.79304488278E+02  0.41800000000E+01 0. -1.
        -11    1    1    2    0    0  0.37466319771E+02  0.32975427582E+02 -0.20116394119E+03  0.20726320265E+03  0.00000000000E+00 0. -1.
         11    1    1    2    0    0  0.62203809631E+01  0.11427382703E+02  0.76247757692E+01  0.15080299079E+02  0.00000000000E+00 0.  1.
</event>
<event>
 7    1  0.2420569E-009  0.1724541E+03  0.7561462E-02  0.1175313E+00
          1   -1    0    0  501    0  0.00000000000E+00  0.00000000000E+00  0.55756267089E+03  0.55756267089E+03  0.00000000000E+00 0. -1.
         -1   -1    0    0    0  501 -0.00000000000E+00 -0.00000000000E+00 -0.60249254687E+02  0.60249254687E+02  0.00000000000E+00 0.  1.
         25    2    1    2    0    0 -0.13355890636E+03 -0.49356922396E+02  0.23415446811E+03  0.30124661188E+03  0.12508844460E+03 0.  0.
          5    1    3    3  502    0 -0.10012972846E+03 -0.91396782233E+02  0.16959023866E+03  0.21715813540E+03  0.41800000000E+01 0.  1.
         -5    1    3    3    0  502 -0.33429177908E+02  0.42039859837E+02  0.64564229452E+02  0.84088476473E+02  0.41800000000E+01 0.  1.
        -11    1    1    2    0    0  0.86078976987E+02  0.62216396992E+02  0.98999436627E+02  0.14519421058E+03  0.00000000000E+00 0.  1.
         11    1    1    2    0    0  0.47479929378E+02 -0.12859474595E+02  0.16415951147E+03  0.17137110312E+03  0.00000000000E+00 0. -1.
</event>
<event>
 7    1  0.2420569E-009  0.1383329E+03  0.7561462E-02  0.1215590E+00
          1   -1    0    0  501    0  0.00000000000E+00  0.00000000000E+00  0.19949347651E+03  0.19949347651E+03  0.00000000000E+00 0. -1.
         -1   -1    0    0    0  501 -0.00000000000E+00 -0.00000000000E+00 -0.14251884821E+03  0.14251884821E+03  0.00000000000E+00 0.  1.
         25    2    1    2    0    0 -0.57388970624E+02 -0.11300353991E+03  0.12562475691E+02  0.17851816398E+03  0.12509046764E+03 0.  0.
          5    1    3    3  502    0 -0.33844497883E+02 -0.24895807712E+02 -0.51791411055E+02  0.66821208742E+02  0.41800000000E+01 0.  1.
         -5    1    3    3    0  502 -0.23544472741E+02 -0.88107732200E+02  0.64353886747E+02  0.11169695524E+03  0.41800000000E+01 0.  1.
        -11    1    1    2    0    0 -0.11003486792E+02  0.46387979277E+02 -0.16262150984E+02  0.50372402143E+02  0.00000000000E+00 0.  1.
         11    1    1    2    0    0  0.68392457416E+02  0.66615560635E+02  0.60674303596E+02  0.11312175859E+03  0.00000000000E+00 0. -1.
</event>
<event>
 7    1  0.2420569E-009  0.1567778E+03  0.7561462E-02  0.1192383E+00
         -2   -1    0    0    0  501 -0.00000000000E+00  0.00000000000E+00  0.12620288903E+03  0.12620288903E+03  0.00000000000E+00 0.  1.
          2   -1    0    0  501    0  0.00000000000E+00 -0.00000000000E+00 -0.24284564012E+03  0.24284564012E+03  0.00000000000E+00 0. -1.
         25    2    1    2    0    0  0.10917693745E+03 -0.71592935651E+02 -0.10639168344E+03  0.20978971080E+03  0.12508948935E+03 0.  0.
          5    1    3    3  502    0  0.69428939872E+02  0.67845111354E+01  0.23376156415E+01  0.69923845218E+02  0.41800000000E+01 0. -1.
         -5    1    3    3    0  502  0.39747997575E+02 -0.78377446786E+02 -0.10872929908E+03  0.13986586558E+03  0.41800000000E+01 0. -1.
        -11    1    1    2    0    0  0.56373160729E+01 -0.12275192758E+02  0.83246521549E+01  0.15866931753E+02  0.00000000000E+00 0.  1.
         11    1    1    2    0    0 -0.11481425352E+03  0.83868128409E+02 -0.18575719803E+02  0.14339188659E+03  0.00000000000E+00 0. -1.
</event>
<event>
 7    1  0.2420569E-009  0.1214927E+03  0.7561462E-02  0.1240655E+00
         -1   -1    0    0    0  501 -0.00000000000E+00  0.00000000000E+00  0.83132130308E+02  0.83132130308E+02  0.00000000000E+00 0.  1.
          1   -1    0    0  501    0  0.00000000000E+00 -0.00000000000E+00 -0.23311331141E+03  0.23311331141E+03  0.00000000000E+00 0. -1.
         25    2    1    2    0    0  0.45970435521E+02  0.40182329347E+02 -0.10466370332E+02  0.13958903001E+03  0.12509057461E+03 0.  0.
          5    1    3    3  502    0 -0.27065829882E+02 -0.26579537648E+02  0.76032568186E+01  0.38914173293E+02  0.41800000000E+01 0.  1.
         -5    1    3    3    0  502  0.73036265402E+02  0.66761866996E+02 -0.18069627151E+02  0.10067485671E+03  0.41800000000E+01 0.  1.
        -11    1    1    2    0    0 -0.50776030845E+02  0.12974683150E+02 -0.88324465189E+02  0.10270228265E+03  0.00000000000E+00 0.  1.
         11    1    1    2    0    0  0.48055953242E+01 -0.53157012498E+02 -0.51190345577E+02  0.73954129056E+02  0.00000000000E+00 0. -1.
</event>
<event>
 7    1  0.2420569E-009  0.1436538E+03  0.7561462E-02  0.1208495E+00
          2   -1    0    0  501    0  0.00000000000E+00  0.00000000000E+00  0.19571681872E+03  0.19571681872E+03  0.00000000000E+00 0.  1.
         -2   -1    0    0    0  501 -0.00000000000E+00 -0.00000000000E+00 -0.12935437840E+03  0.12935437840E+03  0.00000000000E+00 0. -1.
         25    2    1    2    0    0 -0.98451059306E+02  0.39540309962E+02 -0.14390994693E+02  0.16465626282E+03  0.12509411244E+03 0.  0.
          5    1    3    3  502    0 -0.75106671775E+02 -0.29280252045E+02 -0.36487546926E+02  0.88584190382E+02  0.41800000000E+01 0.  1.
         -5    1    3    3    0  502 -0.23344387531E+02  0.68820562006E+02  0.22096552233E+02  0.76072072436E+02  0.41800000000E+01 0.  1.
        -11    1    1    2    0    0  0.12130782624E+02  0.23810382059E+02  0.34854106529E+02  0.43919231810E+02  0.00000000000E+00 0.  1.
         11    1    1    2    0    0  0.86320276681E+02 -0.63350692021E+02  0.45899328483E+02  0.11649570250E+03  0.00000000000E+00 0. -1.
</event>
<event>
 7    1  0.2420569E-009  0.1089259E+03  0.7561462E-02  0.1262572E+00
         -4   -1    0    0    0  501 -0.00000000000E+00  0.00000000000E+00  0.13564906157E+03  0.13564906157E+03  0.00000000000E+00 0.  1.
          4   -1    0    0  501    0  0.00000000000E+00 -0.00000000000E+00 -0.99994602313E+02  0.99994602313E+02  0.00000000000E+00 0. -1.
         25    2    1    2    0    0 -0.10395741125E+02  0.30258243531E+02 -0.94282612354E+01  0.12946301964E+03  0.12509256017E+03 0.  0.
          5    1    3    3  502    0 -0.65352963173E+02  0.11396457252E+02 -0.21713995161E+02  0.69927526906E+02  0.41800000000E+01 0.  1.
         -5    1    3    3    0  502  0.54957222048E+02  0.18861786278E+02  0.12285733926E+02  0.59535492732E+02  0.41800000000E+01 0.  1.
        -11    1    1    2    0    0  0.24058782590E+02 -0.57676382020E+02  0.17346458091E+02  0.64855914695E+02  0.00000000000E+00 0.  1.
         11    1    1    2    0    0 -0.13663041465E+02  0.27418138490E+02  0.27736262403E+02  0.41324729551E+02  0.00000000000E+00 0. -1.
</event>
<event>
 7    1  0.2420569E-009  0.8964882E+02  0.7561462E-02  0.1303704E+00
          1   -1    0    0  501    0  0.00000000000E+00  0.00000000000E+00  0.13070977320E+03  0.13070977320E+03  0.00000000000E+00 0. -1.
         -1   -1    0    0    0  501 -0.00000000000E+00 -0.00000000000E+00 -0.16503884848E+03  0.16503884848E+03  0.00000000000E+00 0.  1.
         25    2    1    2    0    0 -0.64550742676E+01 -0.45940020511E+02  0.69066246032E+02  0.15023307307E+03  0.12509067286E+03 0.  0.
          5    1    3    3  502    0 -0.19754562444E+02  0.40419136262E+02  0.31224831905E+02  0.54921870335E+02  0.41800000000E+01 0. -1.
         -5    1    3    3    0  502  0.13299488177E+02 -0.86359156773E+02  0.37841414127E+02  0.95311202739E+02  0.41800000000E+01 0. -1.
        -11    1    1    2    0    0  0.54992465054E+01  0.21917628887E+02 -0.11613108474E+03  0.11830914170E+03  0.00000000000E+00 0.  1.
         11    1    1    2    0    0  0.95582776223E+00  0.24022391624E+02  0.12735763426E+02  0.27206406894E+02  0.00000000000E+00 0. -1.
</event>
<event>
 7    1  0.2420569E-009  0.1423795E+03  0.7561462E-02  0.1210163E+00
          2   -1    0    0  501    0  0.00000000000E+00  0.00000000000E+00  0.13408115186E+04  0.13408115186E+04  0.00000000000E+00 0. -1.
         -2   -1    0    0    0  501 -0.00000000000E+00 -0.00000000000E+00 -0.15859744360E+02  0.15859744360E+02  0.00000000000E+00 0.  1.
         25    2    1    2    0    0 -0.52286928514E+02  0.82167333326E+02  0.72132139509E+03  0.73853739489E+03  0.12509010787E+03 0.  0.
          5    1    3    3  502    0 -0.47001197504E+02  0.11537241405E+03  0.56539062822E+03  0.57896799684E+03  0.41800000000E+01 0. -1.
         -5    1    3    3    0  502 -0.52857310103E+01 -0.33205080725E+02  0.15593076687E+03  0.15956939805E+03  0.41800000000E+01 0. -1.
        -11    1    1    2    0    0 -0.21766133236E+02 -0.18204740175E+02  0.68736150472E+02  0.74362863733E+02  0.00000000000E+00 0.  1.
         11    1    1    2    0    0  0.74053061750E+02 -0.63962593151E+02  0.53489422870E+03  0.54377100435E+03  0.00000000000E+00 0. -1.
</event>
<event>
 7    1  0.2420569E-009  0.2499127E+03  0.7561462E-02  0.1113360E+00
          2   -1    0    0  501    0  0.00000000000E+00  0.00000000000E+00  0.71221972521E+03  0.71221972521E+03  0.00000000000E+00 0. -1.
         -2   -1    0    0    0  501 -0.00000000000E+00 -0.00000000000E+00 -0.17150189646E+03  0.17150189646E+03  0.00000000000E+00 0.  1.
         25    2    1    2    0    0 -0.55750409894E+02  0.22802001478E+03  0.57294330209E+03  0.63167456650E+03  0.12508994845E+03 0.  0.
          5    1    3    3  502    0 -0.82741021013E+02  0.14931432737E+03  0.28814762618E+03  0.33494383379E+03  0.41800000000E+01 0.  1.
         -5    1    3    3    0  502  0.26990611119E+02  0.78705687410E+02  0.28479567591E+03  0.29673073271E+03  0.41800000000E+01 0.  1.
        -11    1    1    2    0    0  0.66647249654E+02 -0.12063711383E+03 -0.40902860370E+02  0.14376443617E+03  0.00000000000E+00 0.  1.
         11    1    1    2    0    0 -0.10896839760E+02 -0.10738290095E+03  0.86773870186E+01  0.10828261900E+03  0.00000000000E+00 0. -1.
</event>
<event>
 7    1  0.2420569E-009  0.1082074E+03  0.7561462E-02  0.1263926E+00
         -2   -1    0    0    0  501 -0.00000000000E+00  0.00000000000E+00  0.87058783024E+02  0.87058783024E+02  0.00000000000E+00 0.  1.
          2   -1    0    0  501    0  0.00000000000E+00 -0.00000000000E+00 -0.16308383678E+03  0.16308383678E+03  0.00000000000E+00 0. -1.
         25    2    1    2    0    0 -0.26421260175E+02  0.57230679522E+01  0.32773838701E+01  0.12802160783E+03  0.12509178362E+03 0.  0.
          5    1    3    3  502    0 -0.75730999104E+02  0.14282296407E+02  0.79280002838E+01  0.77585396851E+02  0.41800000000E+01 0.  1.
         -5    1    3    3    0  502  0.49309738929E+02 -0.85592284553E+01 -0.46506164137E+01  0.50436210980E+02  0.41800000000E+01 0.  1.
        -11    1    1    2    0    0  0.20895939250E+02  0.38842977790E+02 -0.56732844955E+02  0.71861205788E+02  0.00000000000E+00 0. -1.
         11    1    1    2    0    0  0.55253209255E+01 -0.44566045742E+02 -0.22569592671E+02  0.50259806185E+02  0.00000000000E+00 0.  1.
</event>
<event>
 7    1  0.2420569E-009  0.1064937E+03  0.7561462E-02  0.1267204E+00
         -1   -1    0    0    0  501 -0.00000000000E+00  0.00000000000E+00  0.20599428299E+02  0.20599428299E+02  0.00000000000E+00 0.  1.
          1   -1    0    0  501    0  0.00000000000E+00 -0.00000000000E+00 -0.76728872157E+03  0.76728872157E+03  0.00000000000E+00 0. -1.
         25    2    1    2    0    0 -0.23468282413E+02 -0.19991922155E+02 -0.59503648852E+03  0.60882621294E+03  0.12510194910E+03 0.  0.
          5    1    3    3  502    0  0.28361995704E+02 -0.50078530803E+02 -0.41591480162E+03  0.41989862664E+03  0.41800000000E+01 0. -1.
         -5    1    3    3    0  502 -0.51830278117E+02  0.30086608648E+02 -0.17912168690E+03  0.18892758630E+03  0.41800000000E+01 0. -1.
        -11    1    1    2    0    0  0.17081940615E+01  0.54437863590E+02 -0.86917121460E+02  0.10257185248E+03  0.00000000000E+00 0.  1.
         11    1    1    2    0    0  0.21760088351E+02 -0.34445941435E+02 -0.64735683294E+02  0.76490084442E+02  0.00000000000E+00 0. -1.
</event>
<event>
 7    1  0.2420569E-009  0.9163381E+02  0.7561462E-02  0.1298943E+00
          1   -1    0    0  501    0  0.00000000000E+00  0.00000000000E+00  0.15557835779E+03  0.15557835779E+03  0.00000000000E+00 0. -1.
         -1   -1    0    0    0  501 -0.00000000000E+00 -0.00000000000E+00 -0.10189730742E+03  0.10189730742E+03  0.00000000000E+00 0.  1.
         25    2    1    2    0    0 -0.53128494048E+02 -0.10798201332E+02 -0.65187851188E+01  0.13649015684E+03  0.12509128796E+03 0.  0.
          5    1    3    3  502    0 -0.40575443642E+02  0.43289433315E+02 -0.39849240932E+02  0.71594525393E+02  0.41800000000E+01 0. -1.
         -5    1    3    3    0  502 -0.12553050407E+02 -0.54087634647E+02  0.33330455813E+02  0.64895631447E+02  0.41800000000E+01 0. -1.
        -11    1    1    2    0    0  0.41156838482E+02  0.26056384848E+02 -0.86347045415E+01  0.49470988142E+02  0.00000000000E+00 0.  1.
         11    1    1    2    0    0  0.11971655566E+02 -0.15258183516E+02  0.68834540038E+02  0.71514520228E+02  0.00000000000E+00 0. -1.
</event>
<event>
 7    1  0.2420569E-009  0.1642589E+03  0.7561462E-02  0.1183971E+00
          1   -1    0    0  501    0  0.00000000000E+00  0.00000000000E+00  0.27292106704E+03  0.27292106704E+03  0.00000000000E+00 0. -1.
         -1   -1    0    0    0  501 -0.00000000000E+00 -0.00000000000E+00 -0.11240023611E+03  0.11240023611E+03  0.00000000000E+00 0.  1.
         25    2    1    2    0    0 -0.12692193486E+03 -0.49530244179E+02  0.64902999341E+02  0.19601643594E+03  0.12509045206E+03 0.  0.
          5    1    3    3  502    0 -0.13057740841E+03 -0.67327960344E+02  0.84036255658E+02  0.16930173802E+03  0.41800000000E+01 0.  1.
         -5    1    3    3    0  502  0.36554735519E+01  0.17797716165E+02 -0.19133256317E+02  0.26714697918E+02  0.41800000000E+01 0.  1.
        -11    1    1    2    0    0  0.76323454647E+02 -0.18097693279E+02  0.38803843157E+02  0.87513053170E+02  0.00000000000E+00 0. -1.
         11    1    1    2    0    0  0.50598480213E+02  0.67627937458E+02  0.56813988435E+02  0.10179181404E+03  0.00000000000E+00 0.  1.
</event>
<event>
 7    1  0.2420569E-009  0.1223498E+03  0.7561462E-02  0.1239270E+00
         -3   -1    0    0    0  501 -0.00000000000E+00  0.00000000000E+00  0.11480772781E+03  0.11480772781E+03  0.00000000000E+00 0.  1.
          3   -1    0    0  501    0  0.00000000000E+00 -0.00000000000E+00 -0.21569955320E+03  0.21569955320E+03  0.00000000000E+00 0. -1.
         25    2    1    2    0    0  0.10257579248E+03 -0.52458982956E+02 -0.35378530952E+02  0.17370279823E+03  0.12508910250E+03 0.  0.
          5    1    3    3  502    0  0.78801505354E+02 -0.62206624422E+02 -0.75631401078E+02  0.12576534736E+03  0.41800000000E+01 0.  1.
         -5    1    3    3    0  502  0.23774287127E+02  0.97476414659E+01  0.40252870126E+02  0.47937450870E+02  0.41800000000E+01 0.  1.
        -11    1    1    2    0    0 -0.22842063826E+02  0.24977243845E+02 -0.64063416197E+02  0.72455116346E+02  0.00000000000E+00 0. -1.
         11    1    1    2    0    0 -0.79733728655E+02  0.27481739111E+02 -0.14498782363E+01  0.84349366427E+02  0.00000000000E+00 0.  1.
</event>
<event>
 7    1  0.2420569E-009  0.7975418E+02  0.7561462E-02  0.1329750E+00
          3   -1    0    0  501    0  0.00000000000E+00  0.00000000000E+00  0.34911751776E+02  0.34911751776E+02  0.00000000000E+00 0. -1.
         -3   -1    0    0    0  501 -0.00000000000E+00 -0.00000000000E+00 -0.48878339199E+03  0.48878339199E+03  0.00000000000E+00 0.  1.
         25    2    1    2    0    0  0.31996112573E+02  0.35240990453E+02 -0.30901891679E+03  0.33675905342E+03  0.12509312731E+03 0.  0.
          5    1    3    3  502    0 -0.20478016542E+02 -0.80410967074E+01 -0.23530952118E+03  0.23637269630E+03  0.41800000000E+01 0.  1.
         -5    1    3    3    0  502  0.52474129115E+02  0.43282087161E+02 -0.73709395610E+02  0.10038635712E+03  0.41800000000E+01 0.  1.
        -11    1    1    2    0    0  0.13603818195E+02 -0.96062729094E+01  0.12688678348E+02  0.20936735822E+02  0.00000000000E+00 0. -1.
         11    1    1    2    0    0 -0.45599930768E+02 -0.25634717544E+02 -0.15754140177E+03  0.16599935452E+03  0.00000000000E+00 0.  1.
</event>
<event>
 7    1  0.2420569E-009  0.1641060E+03  0.7561462E-02  0.1184138E+00
         -1   -1    0    0    0  501 -0.00000000000E+00  0.00000000000E+00  0.22624158943E+03  0.22624158943E+03  0.00000000000E+00 0.  1.
          1   -1    0    0  501    0  0.00000000000E+00 -0.00000000000E+00 -0.14174828228E+03  0.14174828228E+03  0.00000000000E+00 0. -1.
         25    2    1    2    0    0  0.29787162284E+02 -0.99247260116E+02  0.36550708199E+01  0.16247630727E+03  0.12509155529E+03 0.  0.
          5    1    3    3  502    0  0.50319420122E+02 -0.10685228826E+03  0.35686307529E+02  0.12345217897E+03  0.41800000000E+01 0. -1.
         -5    1    3    3    0  502 -0.20532257838E+02  0.76050281406E+01 -0.32031236709E+02  0.39024128306E+02  0.41800000000E+01 0. -1.
        -11    1    1    2    0    0 -0.79863495188E+02  0.38005900491E+01  0.45976761011E+02  0.92230607183E+02  0.00000000000E+00 0.  1.
         11    1    1    2    0    0  0.50076332904E+02  0.95446670067E+02  0.34861475320E+02  0.11328295726E+03  0.00000000000E+00 0. -1.
</event>
<event>
 7    1  0.2420569E-009  0.1271120E+03  0.7561462E-02  0.1231805E+00
         -1   -1    0    0    0  501 -0.00000000000E+00  0.00000000000E+00  0.24993687427E+02  0.24993687427E+02  0.00000000000E+00 0. -1.
          1   -1    0    0  501    0  0.00000000000E+00 -0.00000000000E+00 -0.68537115533E+03  0.68537115533E+03  0.00000000000E+00 0.  1.
         25    2    1    2    0    0  0.72276352196E+02  0.23170962553E+01 -0.40561777907E+03  0.43058479330E+03  0.12509293148E+03 0.  0.
          5    1    3    3  502    0  0.10448882847E+03 -0.18029762734E+02 -0.29312065107E+03  0.31173735115E+03  0.41800000000E+01 0.  1.
         -5    1    3    3    0  502 -0.32212476271E+02  0.20346858990E+02 -0.11249712799E+03  0.11884744215E+03  0.41800000000E+01 0.  1.
        -11    1    1    2    0    0 -0.19170747634E+02 -0.40206572599E+02 -0.62459281472E+02  0.76715369301E+02  0.00000000000E+00 0.  1.
         11    1    1    2    0    0 -0.53105604561E+02  0.37889476344E+02 -0.19230040736E+03  0.20306468015E+03  0.00000000000E+00 0. -1.
</event>
<event>
 7    1  0.2420569E-009  0.1533146E+03  0.7561462E-02  0.1196458E+00
          1   -1    0    0  501    0  0.00000000000E+00  0.00000000000E+00  0.20784598821E+03  0.20784598821E+03  0.00000000000E+00 0. -1.
         -1   -1    0    0    0  501 -0.00000000000E+00 -0.00000000000E+00 -0.16430171693E+03  0.16430171693E+03  0.00000000000E+00 0.  1.
         25    2    1    2    0    0  0.11672641502E+03 -0.49262026752E+02  0.90802434369E+02  0.19986243192E+03  0.12509239130E+03 0.  0.
          5    1    3    3  502    0  0.11469329961E+03 -0.23893533454E+02  0.11520068589E+03  0.16435974064E+03  0.41800000000E+01 0.  1.
         -5    1    3    3    0  502  0.20331154151E+01 -0.25368493297E+02 -0.24398251520E+02  0.35502691274E+02  0.41800000000E+01 0.  1.
        -11    1    1    2    0    0 -0.10070569027E+03  0.80219444404E+02 -0.48034375508E+02  0.13741941836E+03  0.00000000000E+00 0.  1.
         11    1    1    2    0    0 -0.16020724752E+02 -0.30957417652E+02  0.77621242313E+00  0.34865854859E+02  0.00000000000E+00 0. -1.
</event>
<event>
 7    1  0.2420569E-009  0.1652592E+03  0.7561462E-02  0.1182884E+00
          2   -1    0    0  501    0  0.00000000000E+00  0.00000000000E+00  0.15132296825E+03  0.15132296825E+03  0.00000000000E+00 0. -1.
         -2   -1    0    0    0  501 -0.00000000000E+00 -0.00000000000E+00 -0.23810214760E+03  0.23810214760E+03  0.00000000000E+00 0.  1.
         25    2    1    2    0    0 -0.14472344660E+03 -0.47723380681E+02 -0.13090675415E+02  0.19758859890E+03  0.12508993395E+03 0.  0.
          5    1    3    3  502    0 -0.46654750146E+02 -0.63222760548E+02 -0.48107397929E+02  0.92225686758E+02  0.41800000000E+01 0.  1.
         -5    1    3    3    0  502 -0.98068696453E+02  0.15499379867E+02  0.35016722514E+02  0.10536291215E+03  0.41800000000E+01 0.  1.
        -11    1    1    2    0    0  0.74185314834E+02  0.22013954597E+02  0.11559765154E+02  0.78241314562E+02  0.00000000000E+00 0. -1.
         11    1    1    2    0    0  0.70538131765E+02  0.25709426084E+02 -0.85248269085E+02  0.11359520238E+03  0.00000000000E+00 0.  1.
</event>
<event>
 7    1  0.2420569E-009  0.8278050E+02  0.7561462E-02  0.1321341E+00
         -1   -1    0    0    0  501 -0.00000000000E+00  0.00000000000E+00  0.12170252909E+02  0.12170252909E+02  0.00000000000E+00 0.  1.
          1   -1    0    0  501    0  0.00000000000E+00 -0.00000000000E+00 -0.10776888904E+04  0.10776888904E+04  0.00000000000E+00 0. -1.
         25    2    1    2    0    0 -0.10607754487E+02 -0.60524903668E+00 -0.84749195656E+03  0.85674076477E+03  0.12509688568E+03 0.  0.
          5    1    3    3  502    0  0.39008579150E+02  0.18864636870E+02 -0.12672014764E+03  0.13398885024E+03  0.41800000000E+01 0.  1.
         -5    1    3    3    0  502 -0.49616333638E+02 -0.19469885906E+02 -0.72077180892E+03  0.72275191452E+03  0.41800000000E+01 0.  1.
        -11    1    1    2    0    0 -0.28948370982E+02 -0.11453459404E+01 -0.33044556374E+02  0.43946134139E+02  0.00000000000E+00 0.  1.
         11    1    1    2    0    0  0.39556125469E+02  0.17505949771E+01 -0.18498212453E+03  0.18917224437E+03  0.00000000000E+00 0. -1.
</event>
<event>
 7    1  0.2420569E-009  0.1070853E+03  0.7561462E-02  0.1266065E+00
         -1   -1    0    0    0  501 -0.00000000000E+00  0.00000000000E+00  0.48694538139E+02  0.48694538139E+02  0.00000000000E+00 0.  1.
          1   -1    0    0  501    0  0.00000000000E+00 -0.00000000000E+00 -0.27514151875E+03  0.27514151875E+03  0.00000000000E+00 0. -1.
         25    2    1    2    0    0  0.32549978798E+02  0.18624161860E+01 -0.10062077555E+03  0.16381259244E+03  0.12508818992E+03 0.  0.
          5    1    3    3  502    0  0.38672846105E+02 -0.52678013247E+02 -0.24586636461E+02  0.69946673959E+02  0.41800000000E+01 0.  1.
         -5    1    3    3    0  502 -0.61228673073E+01  0.54540429433E+02 -0.76034139085E+02  0.93865918486E+02  0.41800000000E+01 0.  1.
        -11    1    1    2    0    0 -0.51225243433E+02 -0.30380566136E+02 -0.53463662139E+02  0.80033540050E+02  0.00000000000E+00 0.  1.
         11    1    1    2    0    0  0.18675264636E+02  0.28518149950E+02 -0.72362542925E+02  0.79989924393E+02  0.00000000000E+00 0. -1.
</event>
<event>
 7    1  0.2420569E-009  0.1077821E+03  0.7561462E-02  0.1264733E+00
         -1   -1    0    0    0  501 -0.00000000000E+00  0.00000000000E+00  0.26940045322E+03  0.26940045322E+03  0.00000000000E+00 0.  1.
          1   -1    0    0  501    0  0.00000000000E+00 -0.00000000000E+00 -0.51932233791E+02  0.51932233791E+02  0.00000000000E+00 0. -1.
         25    2    1    2    0    0 -0.24379435370E+02  0.38971575303E+02  0.12237685108E+03  0.18093675423E+03  0.12509546275E+03 0.  0.
          5    1    3    3  502    0 -0.65168470974E+02  0.48966303898E+02  0.10996406750E+03  0.13694596405E+03  0.41800000000E+01 0.  1.
         -5    1    3    3    0  502  0.40789035604E+02 -0.99947285946E+01  0.12412783578E+02  0.43990790187E+02  0.41800000000E+01 0.  1.
        -11    1    1    2    0    0 -0.21142754997E+02 -0.41044363440E+02  0.15535885062E+02  0.48713648844E+02  0.00000000000E+00 0. -1.
         11    1    1    2    0    0  0.45522190367E+02  0.20727881371E+01  0.79555483289E+02  0.91682283936E+02  0.00000000000E+00 0.  1.
</event>
<event>
 7    1  0.2420569E-009  0.1278582E+03  0.7561462E-02  0.1230669E+00
         -3   -1    0    0    0  501 -0.00000000000E+00  0.00000000000E+00  0.18951574071E+03  0.18951574071E+03  0.00000000000E+00 0.  1.
          3   -1    0    0  501    0  0.00000000000E+00 -0.00000000000E+00 -0.90594599199E+02  0.90594599199E+02  0.00000000000E+00 0. -1.
         25    2    1    2    0    0  0.69439356219E+02  0.33581414862E+02  0.35393853675E+02  0.15116477467E+03  0.12509407902E+03 0.  0.
          5    1    3    3  502    0  0.65295351266E+01 -0.44084252258E+02 -0.84214934260E+00  0.44768713871E+02  0.41800000000E+01 0.  1.
         -5    1    3    3    0  502  0.62909821092E+02  0.77665667120E+02  0.36236003017E+02  0.10639606080E+03  0.41800000000E+01 0.  1.
        -11    1    1    2    0    0 -0.87523976635E+02 -0.25936853067E+02  0.44309565672E+02  0.10147169282E+03  0.00000000000E+00 0. -1.
         11    1    1    2    0    0  0.18084620416E+02 -0.76445617953E+01  0.19217722160E+02  0.27473872418E+02  0.00000000000E+00 0.  1.
</event>
<event>
 7    1  0.2420569E-009  0.1074521E+03  0.7561462E-02  0.1265362E+00
          2   -1    0    0  501    0  0.00000000000E+00  0.00000000000E+00  0.37847409835E+02  0.37847409835E+02  0.00000000000E+00 0. -1.
         -2   -1    0    0    0  501 -0.00000000000E+00 -0.00000000000E+00 -0.33464450432E+03  0.33464450432E+03  0.00000000000E+00 0.  1.
         25    2    1    2    0    0  0.33039269021E+02 -0.14284473288E+00 -0.16911492459E+03  0.21292969850E+03  0.12509030771E+03 0.  0.
          5    1    3    3  502    0  0.69529200085E+02 -0.35207461674E+02 -0.11192226658E+03  0.13644757667E+03  0.41800000000E+01 0.  1.
         -5    1    3    3    0  502 -0.36489931063E+02  0.35064616941E+02 -0.57192658006E+02  0.76482121832E+02  0.41800000000E+01 0.  1.
        -11    1    1    2    0    0 -0.44433032621E+02 -0.30161173166E+02 -0.42660340686E+02  0.68584950406E+02  0.00000000000E+00 0. -1.
         11    1    1    2    0    0  0.11393763600E+02  0.30304017899E+02 -0.85021829210E+02  0.90977265248E+02  0.00000000000E+00 0.  1.
</event>
<event>
 7    1  0.2420569E-009  0.9902028E+02  0.7561462E-02  0.1282370E+00
          1   -1    0    0  501    0  0.00000000000E+00  0.00000000000E+00  0.35006541896E+03  0.35006541896E+03  0.00000000000E+00 0. -1.
         -1   -1    0    0    0  501 -0.00000000000E+00 -0.00000000000E+00 -0.68487509250E+02  0.68487509250E+02  0.00000000000E+00 0.  1.
         25    2    1    2    0    0 -0.61909819689E+02  0.73504179081E+02  0.22406131165E+03  0.27401547513E+03  0.12508125008E+03 0.  0.
          5    1    3    3  502    0 -0.39545499551E+01 -0.24641211061E+01  0.15718856206E+03  0.15731314885E+03  0.41800000000E+01 0. -1.
         -5    1    3    3    0  502 -0.57955269734E+02  0.75968300187E+02  0.66872749583E+02  0.11670232628E+03  0.41800000000E+01 0. -1.
        -11    1    1    2    0    0  0.12933690147E+02 -0.17055822745E+02 -0.25197731986E+02  0.33062170642E+02  0.00000000000E+00 0.  1.
         11    1    1    2    0    0  0.48976129541E+02 -0.56448356336E+02  0.82714330047E+02  0.11147528243E+03  0.00000000000E+00 0. -1.
</event>
<event>
 7    1  0.2420569E-009  0.9386539E+02  0.7561462E-02  0.1293752E+00
         -1   -1    0    0    0  501 -0.00000000000E+00  0.00000000000E+00  0.52261961688E+03  0.52261961688E+03  0.00000000000E+00 0.  1.
          1   -1    0    0  501    0  0.00000000000E+00 -0.00000000000E+00 -0.24983349846E+02  0.24983349846E+02  0.00000000000E+00 0. -1.
         25    2    1    2    0    0 -0.45750435120E+01 -0.52090069190E+01  0.20544271862E+03  0.24063129863E+03  0.12509455012E+03 0.  0.
          5    1    3    3  502    0 -0.94075627453E+01 -0.50302200919E+02  0.30201507488E+02  0.59568591628E+02  0.41800000000E+01 0.  1.
         -5    1    3    3    0  502  0.48325192333E+01  0.45093194000E+02  0.17524121114E+03  0.18106270700E+03  0.41800000000E+01 0.  1.
        -11    1    1    2    0    0 -0.19389320992E+02  0.42386372865E+02  0.10964797360E+03  0.11914373037E+03  0.00000000000E+00 0. -1.
         11    1    1    2    0    0  0.23964364504E+02 -0.37177365946E+02  0.18254557481E+03  0.18782793772E+03  0.00000000000E+00 0.  1.
</event>
<event>
 7    1  0.2420569E-009  0.1713634E+03  0.7561462E-02  0.1176433E+00
         -2   -1    0    0    0  501 -0.00000000000E+00  0.00000000000E+00  0.58181534520E+02  0.58181534520E+02  0.00000000000E+00 0.  1.
          2   -1    0    0  501    0  0.00000000000E+00 -0.00000000000E+00 -0.58315612901E+03  0.58315612901E+03  0.00000000000E+00 0. -1.
         25    2    1    2    0    0  0.10958738691E+03 -0.98217660938E+02 -0.29675855104E+03  0.35407481518E+03  0.12508889974E+03 0.  0.
          5    1    3    3  502    0  0.33198981319E+02 -0.10113547073E+03 -0.11450841738E+03  0.15639758902E+03  0.41800000000E+01 0. -1.
         -5    1    3    3    0  502  0.76388405594E+02  0.29178097893E+01 -0.18225013366E+03  0.19767722616E+03  0.41800000000E+01 0. -1.
        -11    1    1    2    0    0 -0.48471890919E+02  0.57637098101E+01 -0.13114404522E+03  0.13993393139E+03  0.00000000000E+00 0. -1.
         11    1    1    2    0    0 -0.61115495995E+02  0.92453951128E+02 -0.97071998229E+02  0.14732891695E+03  0.00000000000E+00 0.  1.
</event>
<event>
 7    1  0.2420569E-009  0.1271059E+03  0.7561462E-02  0.1231814E+00
         -1   -1    0    0    0  501 -0.00000000000E+00  0.00000000000E+00  0.25958306474E+02  0.25958306474E+02  0.00000000000E+00 0.  1.
          1   -1    0    0  501    0  0.00000000000E+00 -0.00000000000E+00 -0.70238674416E+03  0.70238674416E+03  0.00000000000E+00 0. -1.
         25    2    1    2    0    0 -0.76714904285E+02 -0.18404925941E+02 -0.41335753247E+03  0.43901574339E+03  0.12508579240E+03 0.  0.
          5    1    3    3  502    0 -0.83219548324E+02  0.31009019159E+02 -0.18512743478E+03  0.20536964723E+03  0.41800000000E+01 0. -1.
         -5    1    3    3    0  502  0.65046440390E+01 -0.49413945100E+02 -0.22823009768E+03  0.23364609616E+03  0.41800000000E+01 0. -1.
        -11    1    1    2    0    0 -0.41827121862E+01 -0.23716536550E+02 -0.26617227512E+02  0.35894929831E+02  0.00000000000E+00 0.  1.
         11    1    1    2    0    0  0.80897616471E+02  0.42121462491E+02 -0.23645367770E+03  0.25343437741E+03  0.00000000000E+00 0. -1.
</event>
<event>
 7    1  0.2420569E-009  0.1286808E+03  0.7561462E-02  0.1229426E+00
          3   -1    0    0  501    0  0.00000000000E+00  0.00000000000E+00  0.41586581711E+03  0.41586581711E+03  0.00000000000E+00 0. -1.
         -3   -1    0    0    0  501 -0.00000000000E+00 -0.00000000000E+00 -0.65426105448E+02  0.65426105448E+02  0.00000000000E+00 0.  1.
         25    2    1    2    0    0 -0.87774254829E+02 -0.41129354674E+02  0.74155069576E+02  0.17476561948E+03  0.12509238099E+03 0.  0.
          5    1    3    3  502    0 -0.11238082805E+03 -0.60293422058E+01  0.67179977666E+02  0.13113514128E+03  0.41800000000E+01 0.  1.
         -5    1    3    3    0  502  0.24606573216E+02 -0.35100012468E+02  0.69750919097E+01  0.43630478199E+02  0.41800000000E+01 0.  1.
        -11    1    1    2    0    0  0.33206517038E+02  0.32430061777E+02  0.32761587444E+02  0.56812879636E+02  0.00000000000E+00 0.  1.
         11    1    1    2    0    0  0.54567737791E+02  0.86992928972E+01  0.24352305464E+03  0.24971342344E+03  0.00000000000E+00 0. -1.
</event>
<event>
 7    1  0.2420569E-009  0.7649650E+02  0.7561462E-02  0.1339299E+00
         -4   -1    0    0    0  501 -0.00000000000E+00  0.00000000000E+00  0.13820959485E+03  0.13820959485E+03  0.00000000000E+00 0.  1.
          4   -1    0    0  501    0  0.00000000000E+00 -0.00000000000E+00 -0.77383576218E+02  0.77383576218E+02  0.00000000000E+00 0. -1.
         25    2    1    2    0    0  0.66514478286E+01  0.92355899410E+01  0.36700511471E+02  0.13085785643E+03  0.12508922083E+03 0.  0.
          5    1    3    3  502    0 -0.25462330223E+02  0.38356172467E+02  0.64377460805E+02  0.79255637568E+02  0.41800000000E+01 0. -1.
         -5    1    3    3    0  502  0.32113778052E+02 -0.29120582526E+02 -0.27676949333E+02  0.51602218865E+02  0.41800000000E+01 0. -1.
        -11    1    1    2    0    0 -0.32650142406E+02 -0.15984521565E+02  0.39584121732E+02  0.53744203614E+02  0.00000000000E+00 0.  1.
         11    1    1    2    0    0  0.25998694577E+02  0.67489316239E+01 -0.15458614572E+02  0.30991111020E+02  0.00000000000E+00 0. -1.
</event>
<event>
 7    1  0.2420569E-009  0.1004842E+03  0.7561462E-02  0.1279281E+00
         -1   -1    0    0    0  501 -0.00000000000E+00  0.00000000000E+00  0.12746819595E+03  0.12746819595E+03  0.00000000000E+00 0.  1.
          1   -1    0    0  501    0  0.00000000000E+00 -0.00000000000E+00 -0.12531472935E+03  0.12531472935E+03  0.00000000000E+00 0. -1.
         25    2    1    2    0    0 -0.19628422963E+02  0.59378233232E+02 -0.13436592273E+02  0.14049747412E+03  0.12509176093E+03 0.  0.
          5    1    3    3  502    0 -0.63040213485E+02  0.52169228427E+02  0.20861022442E+02  0.84547924683E+02  0.41800000000E+01 0. -1.
         -5    1    3    3    0  502  0.43411790523E+02  0.72090048057E+01 -0.34297614715E+02  0.55949549433E+02  0.41800000000E+01 0. -1.
        -11    1    1    2    0    0  0.31921569705E+02 -0.50195676343E+02  0.47993416483E+02  0.76432719183E+02  0.00000000000E+00 0.  1.
         11    1    1    2    0    0 -0.12293146742E+02 -0.91825568891E+01 -0.32403357612E+02  0.35852732007E+02  0.00000000000E+00 0. -1.
</event>
<event>
 7    1  0.2420569E-009  0.1147832E+03  0.7561462E-02  0.1251960E+00
         -1   -1    0    0    0  501 -0.00000000000E+00  0.00000000000E+00  0.16530266527E+03  0.16530266527E+03  0.00000000000E+00 0.  1.
          1   -1    0    0  501    0  0.00000000000E+00 -0.00000000000E+00 -0.10977908150E+03  0.10977908150E+03  0.00000000000E+00 0. -1.
         25    2    1    2    0    0  0.23148996519E+02 -0.69713397117E+02  0.30959310196E+01  0.14509649209E+03  0.12509026122E+03 0.  0.
          5    1    3    3  502    0 -0.96935128432E+01  0.21532123673E+02  0.35433354902E+02  0.42785413177E+02  0.41800000000E+01 0.  1.
         -5    1    3    3    0  502  0.32842509362E+02 -0.91245520789E+02 -0.32337423883E+02  0.10231107891E+03  0.41800000000E+01 0.  1.
        -11    1    1    2    0    0 -0.53077008761E+02  0.47779929614E+02  0.58588342519E+02  0.92372530614E+02  0.00000000000E+00 0.  1.
         11    1    1    2    0    0  0.29928012242E+02  0.21933467503E+02 -0.61606897693E+01  0.37612724069E+02  0.00000000000E+00 0. -1.
</event>
<event>
 7    1  0.2420569E-009  0.6331676E+02  0.7561462E-02  0.1384417E+00
          1   -1    0    0  501    0  0.00000000000E+00  0.00000000000E+00  0.13114445268E+04  0.13114445268E+04  0.00000000000E+00 0. -1.
         -1   -1    0    0    0  501 -0.00000000000E+00 -0.00000000000E+00 -0.16656346678E+02  0.16656346678E+02  0.00000000000E+00 0.  1.
         25    2    1    2    0    0  0.47286015479E+01 -0.28991060109E+02  0.11232266015E+04  0.11305524273E+04  0.12509177148E+03 0.  0.
          5    1    3    3  502    0  0.10786785980E+02 -0.24063349341E+02  0.11211329050E+04  0.11214507848E+04  0.41800000000E+01 0. -1.
         -5    1    3    3    0  502 -0.60581844322E+01 -0.49277107674E+01  0.20936965052E+01  0.91016425484E+01  0.41800000000E+01 0. -1.
        -11    1    1    2    0    0  0.31070752812E+01  0.59498031703E+02  0.73855573076E+02  0.94891071064E+02  0.00000000000E+00 0.  1.
         11    1    1    2    0    0 -0.78356768291E+01 -0.30506971595E+02  0.97706005503E+02  0.10265737508E+03  0.00000000000E+00 0. -1.
</event>
<event>
 7    1  0.2420569E-009  0.1074897E+03  0.7561462E-02  0.1265291E+00
         -1   -1    0    0    0  501 -0.00000000000E+00  0.00000000000E+00  0.66393681617E+02  0.66393681617E+02  0.00000000000E+00 0.  1.
          1   -1    0    0  501    0  0.00000000000E+00 -0.00000000000E+00 -0.22854283344E+03  0.22854283344E+03  0.00000000000E+00 0. -1.
         25    2    1    2    0    0  0.60557803178E+02  0.47647546123E+01 -0.91717307982E+02  0.16658393786E+03  0.12509273903E+03 0.  0.
          5    1    3    3  502    0  0.47359409704E+02 -0.55135432310E+02 -0.71041237188E+02  0.10172098783E+03  0.41800000000E+01 0. -1.
         -5    1    3    3    0  502  0.13198393475E+02  0.59900186922E+02 -0.20676070794E+02  0.64862950034E+02  0.41800000000E+01 0. -1.
        -11    1    1    2    0    0 -0.58537046004E+02  0.15321690381E+02 -0.84366746921E+02  0.10382238649E+03  0.00000000000E+00 0. -1.
         11    1    1    2    0    0 -0.20207571743E+01 -0.20086444993E+02  0.13934903081E+02  0.24530190703E+02  0.00000000000E+00 0.  1.
</event>
<event>
 7    1  0.2420569E-009  0.1896857E+03  0.7561462E-02  0.1158745E+00
          2   -1    0    0  501    0  0.00000000000E+00  0.00000000000E+00  0.88136312760E+02  0.88136312760E+02  0.00000000000E+00 0.  1.
         -2   -1    0    0    0  501 -0.00000000000E+00 -0.00000000000E+00 -0.49069441563E+03  0.49069441563E+03  0.00000000000E+00 0. -1.
         25    2    1    2    0    0  0.12881220192E+03 -0.10344376385E+03 -0.29678242709E+03  0.36196342275E+03  0.12507803459E+03 0.  0.
          5    1    3    3  502    0 -0.24176547454E+02 -0.21905651784E+02 -0.60666375128E+02  0.69009017512E+02  0.41800000000E+01 0.  1.
         -5    1    3    3    0  502  0.15298874937E+03 -0.81538112071E+02 -0.23611605196E+03  0.29295440524E+03  0.41800000000E+01 0.  1.
        -11    1    1    2    0    0 -0.11827933497E+03  0.10927367036E+03 -0.63815317877E+02  0.17321411868E+03  0.00000000000E+00 0.  1.
         11    1    1    2    0    0 -0.10532866953E+02 -0.58299065074E+01 -0.41960357904E+02  0.43653186958E+02  0.00000000000E+00 0. -1.
</event>
<event>
 7    1  0.3360843E-009  0.7778078E+02  0.7561462E-02  0.1335470E+00
         -2   -1    0    0    0  501 -0.00000000000E+00  0.00000000000E+00  0.65112709524E+02  0.65112709524E+02  0.00000000000E+00 0.  1.
          2   -1    0    0  501    0  0.00000000000E+00 -0.00000000000E+00 -0.25269916218E+03  0.25269916218E+03  0.00000000000E+00 0. -1.
         25    2    1    2    0    0  0.29803787165E+01  0.38441828084E+02 -0.17477614351E+03  0.21836023683E+03  0.12509131019E+03 0.  0.
          5    1    3    3  502    0  0.53973283745E+02  0.24641318627E+02 -0.14689639157E+03  0.15848133076E+03  0.41800000000E+01 0.  1.
         -5    1    3    3    0  502 -0.50992905029E+02  0.13800509456E+02 -0.27879751936E+02  0.59878906073E+02  0.41800000000E+01 0.  1.
        -11    1    1    2    0    0  0.75435444296E+01 -0.85632476800E+01 -0.49604125280E+02  0.50899936328E+02  0.00000000000E+00 0. -1.
         11    1    1    2    0    0 -0.10523923146E+02 -0.29878580403E+02  0.36793816137E+02  0.48551698541E+02  0.00000000000E+00 0.  1.
</event>
<event>
 7    1  0.2774715E-009  0.9899004E+02  0.7561462E-02  0.1282434E+00
         -3   -1    0    0    0  501 -0.00000000000E+00  0.00000000000E+00  0.18930316091E+03  0.18930316091E+03  0.00000000000E+00 0.  1.
          3   -1    0    0  501    0  0.00000000000E+00 -0.00000000000E+00 -0.10141530941E+03  0.10141530941E+03  0.00000000000E+00 0. -1.
         25    2    1    2    0    0  0.52845356413E+02 -0.25154009988E+02  0.11484985921E+03  0.17961680290E+03  0.12508537009E+03 0.  0.
          5    1    3    3  502    0  0.47306873017E+01  0.40894696804E+02  0.36250839544E+01  0.41537564477E+02  0.41800000000E+01 0.  1.
         -5    1    3    3    0  502  0.48114669111E+02 -0.66048706792E+02  0.11122477526E+03  0.13807923843E+03  0.41800000000E+01 0.  1.
        -11    1    1    2    0    0 -0.56473880899E+02  0.77534673654E+01  0.20376492513E+02  0.60536079549E+02  0.00000000000E+00 0.  1.
         11    1    1    2    0    0  0.36285244860E+01  0.17400542622E+02 -0.47338500225E+02  0.50565587874E+02  0.00000000000E+00 0. -1.
</event>
<event>
 7    1  0.2420569E-009  0.1018723E+03  0.7561462E-02  0.1276407E+00
         -2   -1    0    0    0  501 -0.00000000000E+00  0.00000000000E+00  0.47798284930E+02  0.47798284930E+02  0.00000000000E+00 0.  1.
          2   -1    0    0  501    0  0.00000000000E+00 -0.00000000000E+00 -0.26657703725E+03  0.26657703725E+03  0.00000000000E+00 0. -1.
         25    2    1    2    0    0  0.27704719692E+01 -0.12997937019E+02 -0.15748072719E+03  0.20155490781E+03  0.12509028557E+03 0.  0.
          5    1    3    3  502    0  0.54881389423E+02  0.14929991161E+02 -0.11584606167E+03  0.12912263142E+03  0.41800000000E+01 0. -1.
         -5    1    3    3    0  502 -0.52110917454E+02 -0.27927928180E+02 -0.41634665527E+02  0.72432276395E+02  0.41800000000E+01 0. -1.
        -11    1    1    2    0    0 -0.39866784044E+02 -0.13239324772E+02 -0.51284780395E+02  0.66293053110E+02  0.00000000000E+00 0.  1.
         11    1    1    2    0    0  0.37096312075E+02  0.26237261790E+02 -0.10013244736E+02  0.46527361261E+02  0.00000000000E+00 0. -1.
</event>
<event>
 7    1  0.2420569E-009  0.9840797E+02  0.7561462E-02  0.1283680E+00
          2   -1    0    0  501    0  0.00000000000E+00  0.00000000000E+00  0.48766253836E+02  0.48766253836E+02  0.00000000000E+00 0. -1.
         -2   -1    0    0    0  501 -0.00000000000E+00 -0.00000000000E+00 -0.31161873215E+03  0.31161873215E+03  0.00000000000E+00 0.  1.
         25    2    1    2    0    0  0.36686512119E+02 -0.29304302352E+02 -0.98216152749E+02  0.16582603807E+03  0.12508884815E+03 0.  0.
          5    1    3    3  502    0 -0.53404855416E+01  0.41741628968E+02 -0.72268971207E+01  0.42902037443E+02  0.41800000000E+01 0.  1.
         -5    1    3    3    0  502  0.42026997660E+02 -0.71045931320E+02 -0.90989255628E+02  0.12292400062E+03  0.41800000000E+01 0.  1.
        -11    1    1    2    0    0 -0.22678707615E+02  0.45271765073E+02 -0.16572737246E+03  0.17328998377E+03  0.00000000000E+00 0.  1.
         11    1    1    2    0    0 -0.14007804503E+02 -0.15967462721E+02  0.10910468948E+01  0.21268964152E+02  0.00000000000E+00 0. -1.
</event>
<event>
 7    1  0.2420569E-009  0.8589709E+02  0.7561462E-02  0.1313103E+00
         -1   -1    0    0    0  501 -0.00000000000E+00  0.00000000000E+00  0.21352117458E+02  0.21352117458E+02  0.00000000000E+00 0.  1.
          1   -1    0    0  501    0  0.00000000000E+00 -0.00000000000E+00 -0.57455191390E+03  0.57455191390E+03  0.00000000000E+00 0. -1.
         25    2    1    2    0    0  0.20103083240E+02 -0.23180505956E+01 -0.32987524956E+03  0.35337531560E+03  0.12508767362E+03 0.  0.
          5    1    3    3  502    0  0.35351996814E+02  0.39695018623E+02 -0.28484416187E+03  0.28979152358E+03  0.41800000000E+01 0. -1.
         -5    1    3    3    0  502 -0.15248913574E+02 -0.42013069219E+02 -0.45031087686E+02  0.63583792027E+02  0.41800000000E+01 0. -1.
        -11    1    1    2    0    0  0.84801412759E+01 -0.29569869236E+02 -0.25017290378E+02  0.39650407066E+02  0.00000000000E+00 0.  1.
         11    1    1    2    0    0 -0.28583224516E+02  0.31887919831E+02 -0.19830725650E+03  0.20287830869E+03  0.00000000000E+00 0. -1.
</event>
<event>
 7    1  0.2420569E-009  0.1518704E+03  0.7561462E-02  0.1198193E+00
          1   -1    0    0  501    0  0.00000000000E+00  0.00000000000E+00  0.47178976202E+03  0.47178976202E+03  0.00000000000E+00 0. -1.
         -1   -1    0    0    0  501 -0.00000000000E+00 -0.00000000000E+00 -0.52808948114E+02  0.52808948114E+02  0.00000000000E+00 0.  1.
         25    2    1    2    0    0  0.19845666120E+02 -0.10735083100E+03  0.16253934189E+03  0.23234766590E+03  0.12509336036E+03 0.  0.
          5    1    3    3  502    0  0.66747582767E+02 -0.95764239088E+02  0.12450231329E+03  0.17071709847E+03  0.41800000000E+01 0. -1.
         -5    1    3    3    0  502 -0.46901916647E+02 -0.11586591914E+02  0.38037028594E+02  0.61630567429E+02  0.41800000000E+01 0. -1.
        -11    1    1    2    0    0  0.33752678712E+02  0.38822860703E+02  0.11823646061E+03  0.12894308221E+03  0.00000000000E+00 0.  1.
         11    1    1    2    0    0 -0.53598344833E+02  0.68527970299E+02  0.13820501141E+03  0.16330796203E+03  0.00000000000E+00 0. -1.
</event>
<event>
 7    1  0.2420569E-009  0.2337394E+03  0.7561462E-02  0.1124035E+00
          2   -1    0    0  501    0  0.00000000000E+00  0.00000000000E+00  0.17599445673E+03  0.17599445673E+03  0.00000000000E+00 0.  1.
         -2   -1    0    0    0  501 -0.00000000000E+00 -0.00000000000E+00 -0.34160888603E+03  0.34160888603E+03  0.00000000000E+00 0. -1.
         25    2    1    2    0    0 -0.21051240460E+03  0.43453494397E+02 -0.13205057776E+03  0.28158127955E+03  0.12508790204E+03 0.  0.
          5    1    3    3  502    0  0.86480857931E+01 -0.16883715392E+02 -0.20829858568E+02  0.28481654469E+02  0.41800000000E+01 0.  1.
         -5    1    3    3    0  502 -0.21916049040E+03  0.60337209788E+02 -0.11122071919E+03  0.25309962508E+03  0.41800000000E+01 0.  1.
        -11    1    1    2    0    0  0.14957033830E+03 -0.70979840896E+01 -0.58565335455E+02  0.16078422185E+03  0.00000000000E+00 0. -1.
         11    1    1    2    0    0  0.60942066303E+02 -0.36355510307E+02  0.25001483920E+02  0.75237841364E+02  0.00000000000E+00 0.  1.
</event>
<event>
 7    1  0.2420569E-009  0.8407087E+02  0.7561462E-02  0.1317880E+00
         -2   -1    0    0    0  501 -0.00000000000E+00  0.00000000000E+00  0.85697017650E+02  0.85697017650E+02  0.00000000000E+00 0. -1.
          2   -1    0    0  501    0  0.00000000000E+00 -0.00000000000E+00 -0.18396087759E+03  0.18396087759E+03  0.00000000000E+00 0.  1.
         25    2    1    2    0    0  0.24861235929E+02 -0.26367826159E+02  0.26116566208E+01  0.13026141787E+03  0.12509145825E+03 0.  0.
          5    1    3    3  502    0 -0.33877033110E+00  0.21667456438E+02 -0.49953132215E+02  0.54611182481E+02  0.41800000000E+01 0.  1.
         -5    1    3    3    0  502  0.25200006260E+02 -0.48035282597E+02  0.52564788836E+02  0.75650235394E+02  0.41800000000E+01 0.  1.
        -11    1    1    2    0    0 -0.52994381442E+02  0.33434680825E+02 -0.47430666642E+02  0.78587215782E+02  0.00000000000E+00 0. -1.
         11    1    1    2    0    0  0.28133145513E+02 -0.70668546661E+01 -0.53444849916E+02  0.60809261579E+02  0.00000000000E+00 0.  1.
</event>
<event>
 7    1  0.2420569E-009  0.1259239E+03  0.7561462E-02  0.1233632E+00
         -4   -1    0    0    0  501 -0.00000000000E+00  0.00000000000E+00  0.42014628879E+03  0.42014628879E+03  0.00000000000E+00 0. -1.
          4   -1    0    0  501    0  0.00000000000E+00 -0.00000000000E+00 -0.58606333712E+02  0.58606333712E+02  0.00000000000E+00 0.  1.
         25    2    1    2    0    0  0.90763491266E+02  0.67214216369E+02  0.20075621849E+03  0.26211879421E+03  0.12508973095E+03 0.  0.
          5    1    3    3  502    0 -0.92447855281E+01  0.16357580388E+02 -0.11194772954E+02  0.22267281763E+02  0.41800000000E+01 0. -1.
         -5    1    3    3    0  502  0.10000827679E+03  0.50856635981E+02  0.21195099144E+03  0.23985151245E+03  0.41800000000E+01 0. -1.
        -11    1    1    2    0    0 -0.37133126436E+02 -0.38815328702E+01  0.19023334713E+01  0.37383876859E+02  0.00000000000E+00 0.  1.
         11    1    1    2    0    0 -0.53630364830E+02 -0.63332683499E+02  0.15888140312E+03  0.17924995143E+03  0.00000000000E+00 0. -1.
</event>
<event>
 7    1  0.2420569E-009  0.1255492E+03  0.7561462E-02  0.1234214E+00
         -1   -1    0    0    0  501 -0.00000000000E+00  0.00000000000E+00  0.78998318241E+02  0.78998318241E+02  0.00000000000E+00 0.  1.
          1   -1    0    0  501    0  0.00000000000E+00 -0.00000000000E+00 -0.28806345768E+03  0.28806345768E+03  0.00000000000E+00 0. -1.
         25    2    1    2    0    0  0.10083344884E+03 -0.23001225916E+02 -0.12409931327E+03  0.20431563768E+03  0.12509116455E+03 0.  0.
          5    1    3    3  502    0  0.71805398940E+02 -0.36062576007E+02 -0.14512592472E+03  0.16593833533E+03  0.41800000000E+01 0.  1.
         -5    1    3    3    0  502  0.29028049897E+02  0.13061350091E+02  0.21026611448E+02  0.38377302354E+02  0.41800000000E+01 0.  1.
        -11    1    1    2    0    0  0.49351613352E+01  0.32003352633E+02 -0.24273597575E+02  0.40469469189E+02  0.00000000000E+00 0.  1.
         11    1    1    2    0    0 -0.10576861017E+03 -0.90021267175E+01 -0.60692228594E+02  0.12227666905E+03  0.00000000000E+00 0. -1.
</event>
<event>
 7    1  0.2659609E-009  0.1218358E+03  0.7561462E-02  0.1240099E+00
          1   -1    0    0  501    0  0.00000000000E+00  0.00000000000E+00  0.75386896015E+02  0.75386896015E+02  0.00000000000E+00 0. -1.
         -1   -1    0    0    0  501 -0.00000000000E+00 -0.00000000000E+00 -0.29704792184E+03  0.29704792184E+03  0.00000000000E+00 0.  1.
         25    2    1    2    0    0 -0.59731583958E+02  0.45590081823E+02 -0.20723842900E+03  0.25346449533E+03  0.12510062453E+03 0.  0.
          5    1    3    3  502    0 -0.78571070541E+02 -0.30462424321E+01 -0.17527412161E+03  0.19214885591E+03  0.41800000000E+01 0.  1.
         -5    1    3    3    0  502  0.18839486582E+02  0.48636324256E+02 -0.31964307382E+02  0.61315639426E+02  0.41800000000E+01 0.  1.
        -11    1    1    2    0    0  0.67728930626E+02 -0.14474953763E+01 -0.26126036271E+02  0.72607665283E+02  0.00000000000E+00 0.  1.
         11    1    1    2    0    0 -0.79973466676E+01 -0.44142586447E+02  0.11703439438E+02  0.46362657243E+02  0.00000000000E+00 0. -1.
</event>
<event>
 7    1  0.2543812E-009  0.1103466E+03  0.7561462E-02  0.1259929E+00
          2   -1    0    0  501    0  0.00000000000E+00  0.00000000000E+00  0.60406039721E+03  0.60406039721E+03  0.00000000000E+00 0. -1.
         -2   -1    0    0    0  501 -0.00000000000E+00 -0.00000000000E+00 -0.25589038375E+02  0.25589038375E+02  0.00000000000E+00 0.  1.
         25    2    1    2    0    0  0.31749751342E+02 -0.40656275867E+01  0.19285518984E+03  0.23209042261E+03  0.12509302131E+03 0.  0.
          5    1    3    3  502    0  0.60499842726E+02  0.39082543157E+02  0.14234531317E+03  0.15958488879E+03  0.41800000000E+01 0. -1.
         -5    1    3    3    0  502 -0.28750091384E+02 -0.43148170744E+02  0.50509876675E+02  0.72505533822E+02  0.41800000000E+01 0. -1.
        -11    1    1    2    0    0 -0.56171425092E+02  0.27624156488E+02  0.26153503379E+03  0.26892173010E+03  0.00000000000E+00 0.  1.
         11    1    1    2    0    0  0.24421673750E+02 -0.23558528901E+02  0.12408113520E+03  0.12863728287E+03  0.00000000000E+00 0. -1.
</event>
<event>
 7    1  0.2420569E-009  0.1644512E+03  0.7561462E-02  0.1183761E+00
          3   -1    0    0  501    0  0.00000000000E+00  0.00000000000E+00  0.13028873056E+03  0.13028873056E+03  0.00000000000E+00 0. -1.
         -3   -1    0    0    0  501 -0.00000000000E+00 -0.00000000000E+00 -0.23652662069E+03  0.23652662069E+03  0.00000000000E+00 0.  1.
         25    2    1    2    0    0 -0.99519411065E+02 -0.83024643381E+02 -0.10422821939E+03  0.20810657638E+03  0.12509045059E+03 0.  0.
          5    1    3    3  502    0 -0.76845217425E+02  0.15084756048E+02 -0.35261658467E+02  0.85986012025E+02  0.41800000000E+01 0. -1.
         -5    1    3    3    0  502 -0.22674193640E+02 -0.98109399430E+02 -0.68966560925E+02  0.12212056436E+03  0.41800000000E+01 0. -1.
        -11    1    1    2    0    0  0.71233466098E+00  0.43136442356E+02  0.23521860069E+02  0.49137948481E+02  0.00000000000E+00 0.  1.
         11    1    1    2    0    0  0.98807076404E+02  0.39888201025E+02 -0.25531530814E+02  0.10957082638E+03  0.00000000000E+00 0. -1.
</event>
<event>
 7    1  0.2826322E-009  0.9421052E+02  0.7561462E-02  0.1292964E+00
         -1   -1    0    0    0  501 -0.00000000000E+00  0.00000000000E+00  0.20186703520E+03  0.20186703520E+03  0.00000000000E+00 0.  1.
          1   -1    0    0  501    0  0.00000000000E+00 -0.00000000000E+00 -0.74959719220E+02  0.74959719220E+02  0.00000000000E+00 0. -1.
         25    2    1    2    0    0 -0.53505784812E+02  0.33181858694E+01  0.97952908881E+02  0.16767811115E+03  0.12508915715E+03 0.  0.
          5    1    3    3  502    0 -0.49040573201E+02  0.59984856674E+02  0.68593455142E+02  0.10356493296E+03  0.41800000000E+01 0.  1.
         -5    1    3    3    0  502 -0.44652116112E+01 -0.56666670804E+02  0.29359453739E+02  0.64113178198E+02  0.41800000000E+01 0.  1.
        -11    1    1    2    0    0  0.14210258676E+02 -0.30605885083E+01  0.58312265361E+02  0.60096746545E+02  0.00000000000E+00 0.  1.
         11    1    1    2    0    0  0.39295526136E+02 -0.25759736112E+00 -0.29357858259E+02  0.49051896725E+02  0.00000000000E+00 0. -1.
</event>
<event>
 7    1  0.2420569E-009  0.1229752E+03  0.7561462E-02  0.1238268E+00
         -2   -1    0    0    0  501 -0.00000000000E+00  0.00000000000E+00  0.32760298768E+02  0.32760298768E+02  0.00000000000E+00 0.  1.
          2   -1    0    0  501    0  0.00000000000E+00 -0.00000000000E+00 -0.79143978038E+03  0.79143978038E+03  0.00000000000E+00 0. -1.
         25    2    1    2    0    0  0.24559386565E+02 -0.50552038077E+01 -0.46763477980E+03  0.48472462203E+03  0.12508778267E+03 0.  0.
          5    1    3    3  502    0 -0.41738875821E+02  0.29237281330E+02 -0.22967517788E+03  0.23529792202E+03  0.41800000000E+01 0.  1.
         -5    1    3    3    0  502  0.66298262386E+02 -0.34292485138E+02 -0.23795960192E+03  0.24942670001E+03  0.41800000000E+01 0.  1.
        -11    1    1    2    0    0  0.27188435217E+02  0.46430252137E+02 -0.15379382646E+02  0.55959849299E+02  0.00000000000E+00 0.  1.
         11    1    1    2    0    0 -0.51747821783E+02 -0.41375048329E+02 -0.27566531917E+03  0.28351560782E+03  0.00000000000E+00 0. -1.
</event>
<event>
 7    1  0.2420569E-009  0.1553942E+03  0.7561462E-02  0.1193997E+00
         -1   -1    0    0    0  501 -0.00000000000E+00  0.00000000000E+00  0.33472802320E+03  0.33472802320E+03  0.00000000000E+00 0.  1.
          1   -1    0    0  501    0  0.00000000000E+00 -0.00000000000E+00 -0.87157141381E+02  0.87157141381E+02  0.00000000000E+00 0. -1.
         25    2    1    2    0    0  0.12901006621E+03  0.37594468471E+01  0.15130868517E+03  0.23494560820E+03  0.12508952786E+03 0.  0.
          5    1    3    3  502    0  0.68240257955E+01  0.40100284878E+02  0.77391739599E+02  0.87530302944E+02  0.41800000000E+01 0.  1.
         -5    1    3    3    0  502  0.12218604041E+03 -0.36340838031E+02  0.73916945568E+02  0.14741530525E+03  0.41800000000E+01 0.  1.
        -11    1    1    2    0    0 -0.24356996530E+02 -0.25717562965E+02 -0.93613954003E+01  0.36637304058E+02  0.00000000000E+00 0.  1.
         11    1    1    2    0    0 -0.10465306968E+03  0.21958116118E+02  0.10562359205E+03  0.15030225233E+03  0.00000000000E+00 0. -1.
</event>
<event>
 7    1  0.2420569E-009  0.9254802E+02  0.7561462E-02  0.1296796E+00
          3   -1    0    0  501    0  0.00000000000E+00  0.00000000000E+00  0.52745715726E+02  0.52745715726E+02  0.00000000000E+00 0. -1.
         -3   -1    0    0    0  501 -0.00000000000E+00 -0.00000000000E+00 -0.23685326891E+03  0.23685326891E+03  0.00000000000E+00 0.  1.
         25    2    1    2    0    0 -0.25099713005E+02 -0.10893129250E+02 -0.97612562229E+02  0.16100995672E+03  0.12508932008E+03 0.  0.
          5    1    3    3  502    0  0.30674173570E+02  0.15398615705E+02 -0.92787356809E+02  0.99020140747E+02  0.41800000000E+01 0. -1.
         -5    1    3    3    0  502 -0.55773886576E+02 -0.26291744955E+02 -0.48252054194E+01  0.61989815969E+02  0.41800000000E+01 0. -1.
        -11    1    1    2    0    0 -0.29443812492E+02 -0.87965641224E+01 -0.53960491556E+02  0.62097119767E+02  0.00000000000E+00 0.  1.
         11    1    1    2    0    0  0.54543525498E+02  0.19689693372E+02 -0.32534499402E+02  0.66491908156E+02  0.00000000000E+00 0. -1.
</event>
<event>
 7    1  0.2420569E-009  0.1455088E+03  0.7561462E-02  0.1206103E+00
          2   -1    0    0  501    0  0.00000000000E+00  0.00000000000E+00  0.20183167180E+03  0.20183167180E+03  0.00000000000E+00 0. -1.
         -2   -1    0    0    0  501 -0.00000000000E+00 -0.00000000000E+00 -0.13282881220E+03  0.13282881220E+03  0.00000000000E+00 0.  1.
         25    2    1    2    0    0  0.68498130437E+02  0.98227374499E+02  0.61395628649E+02  0.18373362500E+03  0.12509200920E+03 0.  0.
          5    1    3    3  502    0  0.80047520339E+02  0.11488376319E+02  0.50554460578E+02  0.95461061105E+02  0.41800000000E+01 0.  1.
         -5    1    3    3    0  502 -0.11549389902E+02  0.86738998180E+02  0.10841168071E+02  0.88272563900E+02  0.41800000000E+01 0.  1.
        -11    1    1    2    0    0 -0.51451194208E+02 -0.51932939624E+02 -0.39174690368E+02  0.82939206464E+02  0.00000000000E+00 0.  1.
         11    1    1    2    0    0 -0.17046936229E+02 -0.46294434875E+02  0.46781921317E+02  0.67987652536E+02  0.00000000000E+00 0. -1.
</event>
<event>
 7    1  0.2420569E-009  0.1057553E+03  0.7561462E-02  0.1268639E+00
         -4   -1    0    0    0  501 -0.00000000000E+00  0.00000000000E+00  0.10423347936E+03  0.10423347936E+03  0.00000000000E+00 0. -1.
          4   -1    0    0  501    0  0.00000000000E+00 -0.00000000000E+00 -0.26885061855E+03  0.26885061855E+03  0.00000000000E+00 0.  1.
         25    2    1    2    0    0 -0.67595560554E+02 -0.21578058622E+02  0.29542964595E+02  0.14681586993E+03  0.12508933002E+03 0.  0.
          5    1    3    3  502    0 -0.17787136689E+02 -0.39188323881E+02 -0.40324239890E+02  0.59123799632E+02  0.41800000000E+01 0. -1.
         -5    1    3    3    0  502 -0.49808423865E+02  0.17610265259E+02  0.69867204485E+02  0.87692070297E+02  0.41800000000E+01 0. -1.
        -11    1    1    2    0    0  0.28430895539E+02 -0.35856403780E+02 -0.63560551453E+02  0.78319481703E+02  0.00000000000E+00 0. -1.
         11    1    1    2    0    0  0.39164665015E+02  0.57434462402E+02 -0.13059955233E+03  0.14794874628E+03  0.00000000000E+00 0.  1.
</event>
<event>
 7    1  0.2420569E-009  0.1173143E+03  0.7561462E-02  0.1247594E+00
          1   -1    0    0  501    0  0.00000000000E+00  0.00000000000E+00  0.11062619917E+03  0.11062619917E+03  0.00000000000E+00 0. -1.
         -1   -1    0    0    0  501 -0.00000000000E+00 -0.00000000000E+00 -0.17315795069E+03  0.17315795069E+03  0.00000000000E+00 0.  1.
         25    2    1    2    0    0  0.31303264675E+02 -0.74815860754E+02 -0.64007748659E+02  0.16223875435E+03  0.12508842523E+03 0.  0.
          5    1    3    3  502    0  0.58991826886E+02 -0.30629652883E+02  0.14248517438E+02  0.68108031276E+02  0.41800000000E+01 0. -1.
         -5    1    3    3    0  502 -0.27688562211E+02 -0.44186207871E+02 -0.78256266097E+02  0.94130723076E+02  0.41800000000E+01 0. -1.
        -11    1    1    2    0    0 -0.59770737667E+02  0.52256159394E+02 -0.16389214477E+02  0.81066970013E+02  0.00000000000E+00 0.  1.
         11    1    1    2    0    0  0.28467472992E+02  0.22559701360E+02  0.17865211616E+02  0.40478425489E+02  0.00000000000E+00 0. -1.
</event>
<event>
 7    1  0.2420569E-009  0.1111976E+03  0.7561462E-02  0.1258368E+00
          2   -1    0    0  501    0  0.00000000000E+00  0.00000000000E+00  0.14574891828E+04  0.14574891828E+04  0.00000000000E+00 0. -1.
         -2   -1    0    0    0  501 -0.00000000000E+00 -0.00000000000E+00 -0.99504057658E+01  0.99504057658E+01  0.00000000000E+00 0.  1.
         25    2    1    2    0    0  0.42816613223E+02 -0.24492189199E+02  0.92838669366E+03  0.93807262326E+03  0.12508102907E+03 0.  0.
          5    1    3    3  502    0 -0.36353516331E+02 -0.14746663102E+01  0.52773486375E+03  0.52900407523E+03  0.41800000000E+01 0. -1.
         -5    1    3    3    0  502  0.79170129553E+02 -0.23017522889E+02  0.40065182991E+03  0.40906854802E+03  0.41800000000E+01 0. -1.
        -11    1    1    2    0    0 -0.24527922034E+02 -0.34005457691E+02  0.23002401773E+03  0.23381411173E+03  0.00000000000E+00 0.  1.
         11    1    1    2    0    0 -0.18288691189E+02  0.58497646890E+02  0.28912806566E+03  0.29555285360E+03  0.00000000000E+00 0. -1.
</event>
<event>
 7    1  0.2420569E-009  0.1007873E+03  0.7561462E-02  0.1278649E+00
          2   -1    0    0  501    0  0.00000000000E+00  0.00000000000E+00  0.86194753271E+03  0.86194753271E+03  0.00000000000E+00 0. -1.
         -2   -1    0    0    0  501 -0.00000000000E+00 -0.00000000000E+00 -0.21503539532E+02  0.21503539532E+02  0.00000000000E+00 0.  1.
         25    2    1    2    0    0  0.52216820435E+02  0.49126998426E+02  0.32334289649E+03  0.35403150828E+03  0.12509045460E+03 0.  0.
          5    1    3    3  502    0 -0.76931149959E+01  0.22996491293E+02  0.49956626482E+00  0.24611879176E+02  0.41800000000E+01 0. -1.
         -5    1    3    3    0  502  0.59909935431E+02  0.26130507133E+02  0.32284333023E+03  0.32941962910E+03  0.41800000000E+01 0. -1.
        -11    1    1    2    0    0 -0.66754133265E+02 -0.72516723236E+01  0.26031426110E+03  0.26883492257E+03  0.00000000000E+00 0.  1.
         11    1    1    2    0    0  0.14537312831E+02 -0.41875326103E+02  0.25678683558E+03  0.26058464139E+03  0.00000000000E+00 0. -1.
</event>
<event>
 7    1  0.2420569E-009  0.1405378E+03  0.7561462E-02  0.1212607E+00
          1   -1    0    0  501    0  0.00000000000E+00  0.00000000000E+00  0.20179242928E+03  0.20179242928E+03  0.00000000000E+00 0. -1.
         -1   -1    0    0    0  501 -0.00000000000E+00 -0.00000000000E+00 -0.12598233610E+03  0.12598233610E+03  0.00000000000E+00 0.  1.
         25    2    1    2    0    0 -0.10495585867E+03 -0.43874165851E+02  0.33531223841E+02  0.17237583921E+03  0.12509361404E+03 0.  0.
          5    1    3    3  502    0 -0.87348214247E+02 -0.83855894600E+02  0.40901372533E+02  0.12787461150E+03  0.41800000000E+01 0.  1.
         -5    1    3    3    0  502 -0.17607644422E+02  0.39981728750E+02 -0.73701486915E+01  0.44501227710E+02  0.41800000000E+01 0.  1.
        -11    1    1    2    0    0  0.68741530174E+02  0.40196441350E+02 -0.21038862886E+02  0.82363739712E+02  0.00000000000E+00 0.  1.
         11    1    1    2    0    0  0.36214328495E+02  0.36777245007E+01  0.63317732230E+02  0.73035186456E+02  0.00000000000E+00 0. -1.
</event>
<event>
 7    1  0.2420569E-009  0.1234036E+03  0.7561462E-02  0.1237586E+00
         -1   -1    0    0    0  501 -0.00000000000E+00  0.00000000000E+00  0.21845271928E+02  0.21845271928E+02  0.00000000000E+00 0.  1.
          1   -1    0    0  501    0  0.00000000000E+00 -0.00000000000E+00 -0.10556517672E+04  0.10556517672E+04  0.00000000000E+00 0. -1.
         25    2    1    2    0    0 -0.25841916895E+02 -0.10468779728E+03 -0.47940358618E+03  0.50705256379E+03  0.12508862634E+03 0.  0.
          5    1    3    3  502    0 -0.38688916865E+02 -0.77669456535E+02 -0.13005632967E+03  0.15640172011E+03  0.41800000000E+01 0.  1.
         -5    1    3    3    0  502  0.12846999970E+02 -0.27018340747E+02 -0.34934725651E+03  0.35065084368E+03  0.41800000000E+01 0.  1.
        -11    1    1    2    0    0 -0.25360022472E+02  0.36920527975E+02 -0.12656041588E+03  0.13425272807E+03  0.00000000000E+00 0.  1.
         11    1    1    2    0    0  0.51201939366E+02  0.67767269307E+02 -0.42784249318E+03  0.43619174723E+03  0.00000000000E+00 0. -1.
</event>
<event>
 7    1  0.2420569E-009  0.1462346E+03  0.7561462E-02  0.1205178E+00
         -1   -1    0    0    0  501 -0.00000000000E+00  0.00000000000E+00  0.82321675994E+02  0.82321675994E+02  0.00000000000E+00 0.  1.
          1   -1    0    0  501    0  0.00000000000E+00 -0.00000000000E+00 -0.30642807990E+03  0.30642807990E+03  0.00000000000E+00 0. -1.
         25    2    1    2    0    0 -0.98505454767E+02  0.12039596572E+02 -0.19479825284E+03  0.25187743137E+03  0.12509038579E+03 0.  0.
          5    1    3    3  502    0 -0.80007249915E+02  0.65040825054E+02 -0.13182432480E+03  0.16741145114E+03  0.41800000000E+01 0.  1.
         -5    1    3    3    0  502 -0.18498204851E+02 -0.53001228482E+02 -0.62973928045E+02  0.84465980233E+02  0.41800000000E+01 0.  1.
        -11    1    1    2    0    0  0.22932218881E+02  0.36542293976E+02 -0.29438385484E+01  0.43242248984E+02  0.00000000000E+00 0. -1.
         11    1    1    2    0    0  0.75573235885E+02 -0.48581890548E+02 -0.26364312514E+02  0.93630075541E+02  0.00000000000E+00 0.  1.
</event>
<event>
 7    1  0.2420569E-009  0.1184800E+03  0.7561462E-02  0.1245626E+00
          2   -1    0    0  501    0  0.00000000000E+00  0.00000000000E+00  0.13741561881E+04  0.13741561881E+04  0.00000000000E+00 0. -1.
         -2   -1    0    0    0  501 -0.00000000000E+00 -0.00000000000E+00 -0.25110838195E+02  0.25110838195E+02  0.00000000000E+00 0.  1.
         25    2    1    2    0    0 -0.50017409112E+02  0.58827264733E+02  0.11953589661E+04  0.12043644343E+04  0.12509294365E+03 0.  0.
          5    1    3    3  502    0 -0.61230040717E+02 -0.90211830455E+01  0.84635633006E+03  0.84862654299E+03  0.41800000000E+01 0.  1.
         -5    1    3    3    0  502  0.11212631605E+02  0.67848447778E+02  0.34900263605E+03  0.35573789135E+03  0.41800000000E+01 0.  1.
        -11    1    1    2    0    0  0.37203929093E+02 -0.75993141694E+02  0.15129687898E+03  0.17334888380E+03  0.00000000000E+00 0. -1.
         11    1    1    2    0    0  0.12813480019E+02  0.17165876961E+02  0.23895048108E+01  0.21553708156E+02  0.00000000000E+00 0.  1.
</event>
<event>
 7    1  0.2420569E-009  0.1199263E+03  0.7561462E-02  0.1243219E+00
          2   -1    0    0  501    0  0.00000000000E+00  0.00000000000E+00  0.16629545320E+03  0.16629545320E+03  0.00000000000E+00 0.  1.
         -2   -1    0    0    0  501 -0.00000000000E+00 -0.00000000000E+00 -0.16761112763E+03  0.16761112763E+03  0.00000000000E+00 0. -1.
         25    2    1    2    0    0 -0.17026283974E+02  0.64281443709E+02 -0.10826134942E+03  0.17830547645E+03  0.12510125820E+03 0.  0.
          5    1    3    3  502    0 -0.40733835619E+02  0.93535341190E+02 -0.66153563461E+02  0.12166294331E+03  0.41800000000E+01 0.  1.
         -5    1    3    3    0  502  0.23707551645E+02 -0.29253897481E+02 -0.42107785955E+02  0.56642533143E+02  0.41800000000E+01 0.  1.
        -11    1    1    2    0    0 -0.26113904926E+02 -0.50708145315E+01  0.67157077483E+02  0.72233802659E+02  0.00000000000E+00 0.  1.
         11    1    1    2    0    0  0.43140188900E+02 -0.59210629178E+02  0.39788597500E+02  0.83367301725E+02  0.00000000000E+00 0. -1.
</event>
<event>
 7    1  0.2420569E-009  0.8707232E+02  0.7561462E-02  0.1310100E+00
         -2   -1    0    0    0  501 -0.00000000000E+00  0.00000000000E+00  0.70060128312E+02  0.70060128312E+02  0.00000000000E+00 0.  1.
          2   -1    0    0  501    0  0.00000000000E+00 -0.00000000000E+00 -0.19164729823E+03  0.19164729823E+03  0.00000000000E+00 0. -1.
         25    2    1    2    0    0  0.11455013624E+02  0.42186902423E+02 -0.79229074721E+02  0.15438761576E+03  0.12508931827E+03 0.  0.
          5    1    3    3  502    0  0.61617976957E+02  0.41233396548E+02 -0.72165732754E+02  0.10354870091E+03  0.41800000000E+01 0.  1.
         -5    1    3    3    0  502 -0.50162963333E+02  0.95350587511E+00 -0.70633419667E+01  0.50838914854E+02  0.41800000000E+01 0.  1.
        -11    1    1    2    0    0 -0.18022512277E+02 -0.22753752471E+02  0.24125467661E+02  0.37743640393E+02  0.00000000000E+00 0.  1.
         11    1    1    2    0    0  0.65674986526E+01 -0.19433149952E+02 -0.66483562857E+02  0.69576170388E+02  0.00000000000E+00 0. -1.
</event>
<event>
 7    1  0.2420569E-009  0.1652070E+03  0.7561462E-02  0.1182940E+00
         -3   -1    0    0    0  501 -0.00000000000E+00  0.00000000000E+00  0.29991176344E+03  0.29991176344E+03  0.00000000000E+00 0.  1.
          3   -1    0    0  501    0  0.00000000000E+00 -0.00000000000E+00 -0.12549888230E+03  0.12549888230E+03  0.00000000000E+00 0. -1.
         25    2    1    2    0    0 -0.11643577726E+03 -0.10248408386E+03  0.47806332572E+02  0.20491518639E+03  0.12507801769E+03 0.  0.
          5    1    3    3  502    0 -0.14785656768E+02 -0.45516675835E+02 -0.37082553737E+02  0.60687491436E+02  0.41800000000E+01 0. -1.
         -5    1    3    3    0  502 -0.10165012049E+03 -0.56967408024E+02  0.84888886309E+02  0.14422769495E+03  0.41800000000E+01 0. -1.
        -11    1    1    2    0    0  0.71090895210E+02  0.96761295338E+02  0.12702176395E+03  0.17478899329E+03  0.00000000000E+00 0.  1.
         11    1    1    2    0    0  0.45344882047E+02  0.57227885198E+01 -0.41521538066E+00  0.45706466064E+02  0.00000000000E+00 0. -1.
</event>
<event>
 7    1  0.2420569E-009  0.2602405E+03  0.7561462E-02  0.1106999E+00
          2   -1    0    0  501    0  0.00000000000E+00  0.00000000000E+00  0.85121892112E+03  0.85121892112E+03  0.00000000000E+00 0. -1.
         -2   -1    0    0    0  501 -0.00000000000E+00 -0.00000000000E+00 -0.14221487341E+03  0.14221487341E+03  0.00000000000E+00 0.  1.
         25    2    1    2    0    0 -0.23042843882E+03 -0.11131754746E+03  0.65768776547E+03  0.71672033303E+03  0.12508388047E+03 0.  0.
          5    1    3    3  502    0 -0.10478870705E+03 -0.47426260331E+02  0.45813514333E+03  0.47237189295E+03  0.41800000000E+01 0. -1.
         -5    1    3    3    0  502 -0.12563973177E+03 -0.63891287134E+02  0.19955262213E+03  0.24434844009E+03  0.41800000000E+01 0. -1.
        -11    1    1    2    0    0  0.10212164144E+03  0.86175740764E+02  0.58284036499E+02  0.14578105795E+03  0.00000000000E+00 0. -1.
         11    1    1    2    0    0  0.12830679738E+03  0.25141806701E+02 -0.69677542589E+01  0.13093240355E+03  0.00000000000E+00 0.  1.
</event>
<event>
 7    1  0.2420569E-009  0.1237693E+03  0.7561462E-02  0.1237005E+00
         -2   -1    0    0    0  501 -0.00000000000E+00  0.00000000000E+00  0.37912898270E+02  0.37912898270E+02  0.00000000000E+00 0. -1.
          2   -1    0    0  501    0  0.00000000000E+00 -0.00000000000E+00 -0.54363329569E+03  0.54363329569E+03  0.00000000000E+00 0.  1.
         25    2    1    2    0    0  0.23837818044E+02 -0.86176594930E+02 -0.33480738484E+03  0.36842911104E+03  0.12509747332E+03 0.  0.
          5    1    3    3  502    0  0.55621067289E+02 -0.97933646509E+02 -0.20211988972E+03  0.23141872108E+03  0.41800000000E+01 0. -1.
         -5    1    3    3    0  502 -0.31783249245E+02  0.11757051579E+02 -0.13268749512E+03  0.13701038995E+03  0.41800000000E+01 0. -1.
        -11    1    1    2    0    0  0.10464695734E+02  0.32646097744E+01  0.75886200501E+01  0.13332467440E+02  0.00000000000E+00 0. -1.
         11    1    1    2    0    0 -0.34302513778E+02  0.82911985156E+02 -0.17850163263E+03  0.19978461549E+03  0.00000000000E+00 0.  1.
</event>
<event>
 7    1  0.2420569E-009  0.1023437E+03  0.7561462E-02  0.1275443E+00
         -4   -1    0    0    0  501 -0.00000000000E+00  0.00000000000E+00  0.50138286780E+03  0.50138286780E+03  0.00000000000E+00 0.  1.
          4   -1    0    0  501    0  0.00000000000E+00 -0.00000000000E+00 -0.39902785743E+02  0.39902785743E+02  0.00000000000E+00 0. -1.
         25    2    1    2    0    0  0.18926802412E+02  0.26468889111E+02  0.90553975269E+02  0.15781761089E+03  0.12509016720E+03 0.  0.
          5    1    3    3  502    0 -0.41415767178E+02 -0.16957137347E+00  0.80956262303E+02  0.91031221740E+02  0.41800000000E+01 0.  1.
         -5    1    3    3    0  502  0.60342569590E+02  0.26638460485E+02  0.95977129650E+01  0.66786389151E+02  0.41800000000E+01 0.  1.
        -11    1    1    2    0    0  0.35881299274E+02 -0.21745929876E+02  0.17562933407E+03  0.18057136010E+03  0.00000000000E+00 0.  1.
         11    1    1    2    0    0 -0.54808101687E+02 -0.47229592354E+01  0.19529677272E+03  0.20289668255E+03  0.00000000000E+00 0. -1.
</event>
<event>
 7    1  0.2420569E-009  0.1096334E+03  0.7561462E-02  0.1261250E+00
         -2   -1    0    0    0  501 -0.00000000000E+00  0.00000000000E+00  0.48311284443E+02  0.48311284443E+02  0.00000000000E+00 0.  1.
          2   -1    0    0  501    0  0.00000000000E+00 -0.00000000000E+00 -0.42113917877E+03  0.42113917877E+03  0.00000000000E+00 0. -1.
         25    2    1    2    0    0 -0.87073819721E+01  0.88326160956E+02 -0.14827492469E+03  0.21333066847E+03  0.12508873493E+03 0.  0.
          5    1    3    3  502    0 -0.19446145090E+02  0.19470035479E+02 -0.14033302220E+03  0.14306664307E+03  0.41800000000E+01 0. -1.
         -5    1    3    3    0  502  0.10738763118E+02  0.68856125478E+02 -0.79419024895E+01  0.70264025392E+02  0.41800000000E+01 0. -1.
        -11    1    1    2    0    0 -0.13955924578E+02 -0.96517557441E+02 -0.16203759572E+03  0.18912056776E+03  0.00000000000E+00 0.  1.
         11    1    1    2    0    0  0.22663306550E+02  0.81913964849E+01 -0.62515373923E+02  0.66999226988E+02  0.00000000000E+00 0. -1.
</event>
<event>
 7    1  0.2420569E-009  0.1406766E+03  0.7561462E-02  0.1212421E+00
          2   -1    0    0  501    0  0.00000000000E+00  0.00000000000E+00  0.10988261483E+04  0.10988261483E+04  0.00000000000E+00 0. -1.
         -2   -1    0    0    0  501 -0.00000000000E+00 -0.00000000000E+00 -0.18829772676E+02  0.18829772676E+02  0.00000000000E+00 0.  1.
         25    2    1    2    0    0  0.19743923301E+02  0.92727022664E+02  0.52910877260E+03  0.55189609759E+03  0.12508031839E+03 0.  0.
          5    1    3    3  502    0 -0.38719860656E+01  0.11994927402E+03  0.38515880811E+03  0.40344466843E+03  0.41800000000E+01 0.  1.
         -5    1    3    3    0  502  0.23615909367E+02 -0.27222251356E+02  0.14394996449E+03  0.14845142916E+03  0.41800000000E+01 0.  1.
        -11    1    1    2    0    0 -0.20887356764E+02 -0.10783409979E+03  0.51846586083E+03  0.52997294610E+03  0.00000000000E+00 0. -1.
         11    1    1    2    0    0  0.11434334632E+01  0.15107077127E+02  0.32421742203E+02  0.35786877299E+02  0.00000000000E+00 0.  1.
</event>
<event>
 7    1  0.2420569E-009  0.1263727E+03  0.7561462E-02  0.1232939E+00
          1   -1    0    0  501    0  0.00000000000E+00  0.00000000000E+00  0.14521230166E+04  0.14521230166E+04  0.00000000000E+00 0. -1.
         -1   -1    0    0    0  501 -0.00000000000E+00 -0.00000000000E+00 -0.13501858160E+02  0.13501858160E+02  0.00000000000E+00 0.  1.
         25    2    1    2    0    0 -0.31223609200E+02  0.63635361393E+02  0.10606059228E+04  0.10703070297E+04  0.12509133196E+03 0.  0.
          5    1    3    3  502    0 -0.49930905060E+02 -0.22884095457E+02  0.38967049265E+03  0.39354458749E+03  0.41800000000E+01 0.  1.
         -5    1    3    3    0  502  0.18707295861E+02  0.86519456850E+02  0.67093543019E+03  0.67676244223E+03  0.41800000000E+01 0.  1.
        -11    1    1    2    0    0  0.24161572498E+01 -0.77175386648E+02  0.31958164154E+03  0.32877698175E+03  0.00000000000E+00 0. -1.
         11    1    1    2    0    0  0.28807451950E+02  0.13540025255E+02  0.58433594085E+02  0.66540863306E+02  0.00000000000E+00 0.  1.
</event>
<event>
 7    1  0.2420569E-009  0.1159075E+03  0.7561462E-02  0.1250005E+00
         -2   -1    0    0    0  501 -0.00000000000E+00  0.00000000000E+00  0.50534673557E+02  0.50534673557E+02  0.00000000000E+00 0.  1.
          2   -1    0    0  501    0  0.00000000000E+00 -0.00000000000E+00 -0.29047386784E+03  0.29047386784E+03  0.00000000000E+00 0. -1.
         25    2    1    2    0    0 -0.40219592360E+02 -0.34516079109E+02 -0.13960571111E+03  0.19479534263E+03  0.12508595289E+03 0.  0.
          5    1    3    3  502    0 -0.60129142065E+02 -0.70535396183E+02 -0.11011918481E+03  0.14399466345E+03  0.41800000000E+01 0.  1.
         -5    1    3    3    0  502  0.19909549705E+02  0.36019317074E+02 -0.29486526300E+02  0.50800679180E+02  0.41800000000E+01 0.  1.
        -11    1    1    2    0    0  0.38224563862E+02 -0.19982222230E+02 -0.74001183359E+02  0.85653847703E+02  0.00000000000E+00 0. -1.
         11    1    1    2    0    0  0.19950284985E+01  0.54498301340E+02 -0.26332299821E+02  0.60559351066E+02  0.00000000000E+00 0.  1.
</event>
<event>
 7    1  0.2420569E-009  0.9567858E+02  0.7561462E-02  0.1289655E+00
          3   -1    0    0  501    0  0.00000000000E+00  0.00000000000E+00  0.28193728416E+03  0.28193728416E+03  0.00000000000E+00 0. -1.
         -3   -1    0    0    0  501 -0.00000000000E+00 -0.00000000000E+00 -0.48769402057E+02  0.48769402057E+02  0.00000000000E+00 0.  1.
         25    2    1    2    0    0 -0.28999404624E+02  0.33094236285E+02  0.15485529829E+03  0.20387202257E+03  0.12508974471E+03 0.  0.
          5    1    3    3  502    0  0.79375201785E+01  0.58639385639E+02  0.21503246665E+02  0.63098682964E+02  0.41800000000E+01 0.  1.
         -5    1    3    3    0  502 -0.36936924803E+02 -0.25545149354E+02  0.13335205163E+03  0.14077333960E+03  0.41800000000E+01 0.  1.
        -11    1    1    2    0    0 -0.51513487237E+01  0.21734706872E+02 -0.34853165658E+01  0.22607107467E+02  0.00000000000E+00 0.  1.
         11    1    1    2    0    0  0.34150753348E+02 -0.54828943156E+02  0.81797900374E+02  0.10422755618E+03  0.00000000000E+00 0. -1.
</event>
<event>
 7    1  0.2420569E-009  0.1068144E+03  0.7561462E-02  0.1266586E+00
         -2   -1    0    0    0  501 -0.00000000000E+00  0.00000000000E+00  0.10678229916E+03  0.10678229916E+03  0.00000000000E+00 0.  1.
          2   -1    0    0  501    0  0.00000000000E+00 -0.00000000000E+00 -0.16839592806E+03  0.16839592806E+03  0.00000000000E+00 0. -1.
         25    2    1    2    0    0  0.76836795876E+02  0.99898578356E-01 -0.49100146843E+02  0.15480205236E+03  0.12509575458E+03 0.  0.
          5    1    3    3  502    0  0.21334454974E+01 -0.25836403283E+02  0.32039032791E+02  0.41425153548E+02  0.41800000000E+01 0.  1.
         -5    1    3    3    0  502  0.74703350378E+02  0.25936301861E+02 -0.81139179633E+02  0.11337689881E+03  0.41800000000E+01 0.  1.
        -11    1    1    2    0    0  0.14856608533E+02  0.65726602482E+01 -0.22660326610E+02  0.27882056630E+02  0.00000000000E+00 0. -1.
         11    1    1    2    0    0 -0.91693404409E+02 -0.66725588265E+01  0.10146844546E+02  0.92494118232E+02  0.00000000000E+00 0.  1.
</event>
<event>
 7    1  0.2420569E-009  0.8325019E+02  0.7561462E-02  0.1320073E+00
         -1   -1    0    0    0  501 -0.00000000000E+00  0.00000000000E+00  0.55420118110E+02  0.55420118110E+02  0.00000000000E+00 0. -1.
          1   -1    0    0  501    0  0.00000000000E+00 -0.00000000000E+00 -0.23807935046E+03  0.23807935046E+03  0.00000000000E+00 0.  1.
         25    2    1    2    0    0  0.29491322688E+02 -0.72131357678E+01 -0.72284165817E+02  0.14763472887E+03  0.12509694281E+03 0.  0.
          5    1    3    3  502    0 -0.23326939227E+02 -0.14378495839E+02  0.24545419192E+02  0.37024819238E+02  0.41800000000E+01 0.  1.
         -5    1    3    3    0  502  0.52818261915E+02  0.71653600708E+01 -0.96829585009E+02  0.11060990964E+03  0.41800000000E+01 0.  1.
        -11    1    1    2    0    0 -0.52466053271E+02  0.23158091003E+02 -0.10139956362E+03  0.11649401455E+03  0.00000000000E+00 0. -1.
         11    1    1    2    0    0  0.22974730583E+02 -0.15944955235E+02 -0.89755029158E+01  0.29370725143E+02  0.00000000000E+00 0.  1.
</event>
<event>
 7    1  0.2420569E-009  0.1498945E+03  0.7561462E-02  0.1200603E+00
         -2   -1    0    0    0  501 -0.00000000000E+00  0.00000000000E+00  0.64651301496E+02  0.64651301496E+02  0.00000000000E+00 0.  1.
          2   -1    0    0  501    0  0.00000000000E+00 -0.00000000000E+00 -0.51814174265E+03  0.51814174265E+03  0.00000000000E+00 0. -1.
         25    2    1    2    0    0  0.94039561061E+02  0.79695516383E+02 -0.37227646798E+03  0.41161999931E+03  0.12508573395E+03 0.  0.
          5    1    3    3  502    0  0.11359124453E+03  0.70165222836E+02 -0.36440062730E+03  0.38811263688E+03  0.41800000000E+01 0. -1.
         -5    1    3    3    0  502 -0.19551683471E+02  0.95302935472E+01 -0.78758406786E+01  0.23507362422E+02  0.41800000000E+01 0. -1.
        -11    1    1    2    0    0 -0.53013624885E+01 -0.50302151100E+02 -0.55028581178E+01  0.50879193163E+02  0.00000000000E+00 0.  1.
         11    1    1    2    0    0 -0.88738198572E+02 -0.29393365283E+02 -0.75711115056E+02  0.12029385168E+03  0.00000000000E+00 0. -1.
</event>
<event>
 7    1  0.2420569E-009  0.1370113E+03  0.7561462E-02  0.1217408E+00
         -1   -1    0    0    0  501 -0.00000000000E+00  0.00000000000E+00  0.19878666246E+03  0.19878666246E+03  0.00000000000E+00 0.  1.
          1   -1    0    0  501    0  0.00000000000E+00 -0.00000000000E+00 -0.98404316664E+02  0.98404316664E+02  0.00000000000E+00 0. -1.
         25    2    1    2    0    0 -0.86762382886E+02 -0.32183661401E+01  0.41310351389E+02  0.15777193394E+03  0.12508944417E+03 0.  0.
          5    1    3    3  502    0 -0.15858873419E+02  0.56608645079E+02  0.22074443310E+02  0.62934855297E+02  0.41800000000E+01 0. -1.
         -5    1    3    3    0  502 -0.70903509467E+02 -0.59827011219E+02  0.19235908079E+02  0.94837078644E+02  0.41800000000E+01 0. -1.
        -11    1    1    2    0    0  0.83427861935E+02  0.34849400115E+02  0.58343971814E+02  0.10760440457E+03  0.00000000000E+00 0.  1.
         11    1    1    2    0    0  0.33345209506E+01 -0.31631033975E+02  0.72802258794E+00  0.31814640611E+02  0.00000000000E+00 0. -1.
</event>
<event>
 7    1  0.2420569E-009  0.6636257E+02  0.7561462E-02  0.1372918E+00
          1   -1    0    0  501    0  0.00000000000E+00  0.00000000000E+00  0.62697470396E+03  0.62697470396E+03  0.00000000000E+00 0. -1.
         -1   -1    0    0    0  501 -0.00000000000E+00 -0.00000000000E+00 -0.36027418346E+02  0.36027418346E+02  0.00000000000E+00 0.  1.
         25    2    1    2    0    0  0.82570138467E+01  0.28424541057E+02  0.54687210040E+03  0.56177611537E+03  0.12508867574E+03 0.  0.
          5    1    3    3  502    0 -0.34696905112E+01  0.60107295423E+02  0.12790881467E+03  0.14143218511E+03  0.41800000000E+01 0.  1.
         -5    1    3    3    0  502  0.11726704358E+02 -0.31682754366E+02  0.41896328573E+03  0.42034393026E+03  0.41800000000E+01 0.  1.
        -11    1    1    2    0    0  0.61352281793E+01 -0.21504303194E+02  0.68492201517E+02  0.72050383409E+02  0.00000000000E+00 0. -1.
         11    1    1    2    0    0 -0.14392242026E+02 -0.69202378627E+01 -0.24417016304E+02  0.29175623520E+02  0.00000000000E+00 0.  1.
</event>
<event>
 7    1  0.2420569E-009  0.9907819E+02  0.7561462E-02  0.1282246E+00
          1   -1    0    0  501    0  0.00000000000E+00  0.00000000000E+00  0.53838458753E+03  0.53838458753E+03  0.00000000000E+00 0. -1.
         -1   -1    0    0    0  501 -0.00000000000E+00 -0.00000000000E+00 -0.28986011141E+02  0.28986011141E+02  0.00000000000E+00 0.  1.
         25    2    1    2    0    0  0.23484225751E+02  0.72389148428E+02  0.32036429452E+03  0.35223652831E+03  0.12508234490E+03 0.  0.
          5    1    3    3  502    0 -0.14637239737E+02  0.11286008460E+01 -0.56897066762E+01  0.16290110161E+02  0.41800000000E+01 0.  1.
         -5    1    3    3    0  502  0.38121465489E+02  0.71260547582E+02  0.32605400119E+03  0.33594641815E+03  0.41800000000E+01 0.  1.
        -11    1    1    2    0    0  0.19719497918E+02 -0.49044237916E+02  0.85071584502E+02  0.10015672898E+03  0.00000000000E+00 0. -1.
         11    1    1    2    0    0 -0.43203723670E+02 -0.23344910512E+02  0.10396269736E+03  0.11497734137E+03  0.00000000000E+00 0.  1.
</event>
<event>
 7    1  0.2420569E-009  0.8283473E+02  0.7561462E-02  0.1321194E+00
          3   -1    0    0  501    0  0.00000000000E+00  0.00000000000E+00  0.64516121919E+02  0.64516121919E+02  0.00000000000E+00 0. -1.
         -3   -1    0    0    0  501 -0.00000000000E+00 -0.00000000000E+00 -0.25079555260E+03  0.25079555260E+03  0.00000000000E+00 0.  1.
         25    2    1    2    0    0  0.52659099780E+02  0.49621325640E+01 -0.14960054230E+03  0.20205349250E+03  0.12509071918E+03 0.  0.
          5    1    3    3  502    0  0.38198536075E+02 -0.92929796051E+01 -0.16905945829E+03  0.17362044944E+03  0.41800000000E+01 0. -1.
         -5    1    3    3    0  502  0.14460563705E+02  0.14255112169E+02  0.19458915993E+02  0.28433043053E+02  0.41800000000E+01 0. -1.
        -11    1    1    2    0    0  0.22181109971E+02 -0.19062526210E+02 -0.19607604182E+02  0.35211357355E+02  0.00000000000E+00 0.  1.
         11    1    1    2    0    0 -0.74840209751E+02  0.14100393646E+02 -0.17071284207E+02  0.78046824669E+02  0.00000000000E+00 0. -1.
</event>
<event>
 7    1  0.2420569E-009  0.1550775E+03  0.7561462E-02  0.1194369E+00
          1   -1    0    0  501    0  0.00000000000E+00  0.00000000000E+00  0.63387287266E+03  0.63387287266E+03  0.00000000000E+00 0. -1.
         -1   -1    0    0    0  501 -0.00000000000E+00 -0.00000000000E+00 -0.38614001884E+02  0.38614001884E+02  0.00000000000E+00 0.  1.
         25    2    1    2    0    0  0.62549146629E+02 -0.93855457689E+02  0.33738704958E+03  0.37709304524E+03  0.12509156991E+03 0.  0.
          5    1    3    3  502    0  0.14872640210E+02  0.30001595138E+02  0.93488950301E+02  0.99392893941E+02  0.41800000000E+01 0.  1.
         -5    1    3    3    0  502  0.47676506419E+02 -0.12385705283E+03  0.24389809928E+03  0.27770015130E+03  0.41800000000E+01 0.  1.
        -11    1    1    2    0    0 -0.62196156407E+01  0.86610781113E+02  0.16720105183E+03  0.18840462510E+03  0.00000000000E+00 0.  1.
         11    1    1    2    0    0 -0.56329530988E+02  0.72446765759E+01  0.90670769357E+02  0.10698920420E+03  0.00000000000E+00 0. -1.
</event>
<event>
 7    1  0.2420569E-009  0.4745035E+02  0.7561462E-02  0.1459600E+00
          2   -1    0    0  501    0  0.00000000000E+00  0.00000000000E+00  0.63682783852E+03  0.63682783852E+03  0.00000000000E+00 0.  1.
         -2   -1    0    0    0  501 -0.00000000000E+00 -0.00000000000E+00 -0.28840080606E+02  0.28840080606E+02  0.00000000000E+00 0. -1.
         25    2    1    2    0    0 -0.76459378374E+01  0.16284472809E+02  0.53404065570E+03  0.54878721528E+03  0.12507734127E+03 0.  0.
          5    1    3    3  502    0 -0.18087953488E+02 -0.46524777038E+01  0.52161906658E+03  0.52197005914E+03  0.41800000000E+01 0.  1.
         -5    1    3    3    0  502  0.10442015651E+02  0.20936950513E+02  0.12421589113E+02  0.26817156145E+02  0.41800000000E+01 0.  1.
        -11    1    1    2    0    0  0.48523168291E-01  0.17432589248E+02  0.79925933734E+02  0.81804965653E+02  0.00000000000E+00 0.  1.
         11    1    1    2    0    0  0.75974146691E+01 -0.33717062057E+02 -0.59788315165E+01  0.35075738192E+02  0.00000000000E+00 0. -1.
</event>
<event>
 7    1  0.2420569E-009  0.1451936E+03  0.7561462E-02  0.1206507E+00
          1   -1    0    0  501    0  0.00000000000E+00  0.00000000000E+00  0.22031698515E+03  0.22031698515E+03  0.00000000000E+00 0. -1.
         -1   -1    0    0    0  501 -0.00000000000E+00 -0.00000000000E+00 -0.10218861890E+03  0.10218861890E+03  0.00000000000E+00 0.  1.
         25    2    1    2    0    0  0.78780758875E+02  0.65207975025E+02  0.64495322597E+02  0.17397226777E+03  0.12509282689E+03 0.  0.
          5    1    3    3  502    0  0.10889508081E+03  0.38580550069E+02  0.66757778253E+02  0.13349408536E+03  0.41800000000E+01 0.  1.
         -5    1    3    3    0  502 -0.30114321936E+02  0.26627424956E+02 -0.22624556559E+01  0.40478182408E+02  0.41800000000E+01 0.  1.
        -11    1    1    2    0    0 -0.39371822803E+02 -0.82438731003E+02  0.19002285869E+02  0.93313298454E+02  0.00000000000E+00 0.  1.
         11    1    1    2    0    0 -0.39408936072E+02  0.17230755978E+02  0.34630757778E+02  0.55220037832E+02  0.00000000000E+00 0. -1.
</event>
<event>
 7    1  0.2420569E-009  0.3519978E+03  0.7561462E-02  0.1061798E+00
          1   -1    0    0  501    0  0.00000000000E+00  0.00000000000E+00  0.92573975267E+03  0.92573975267E+03  0.00000000000E+00 0. -1.
         -1   -1    0    0    0  501 -0.00000000000E+00 -0.00000000000E+00 -0.18324019751E+03  0.18324019751E+03  0.00000000000E+00 0.  1.
         25    2    1    2    0    0 -0.17220130411E+03  0.29472934511E+03  0.10171154923E+03  0.37750693299E+03  0.12509024423E+03 0.  0.
          5    1    3    3  502    0 -0.12685848272E+03  0.98199303189E+02  0.61138883772E+02  0.17173122399E+03  0.41800000000E+01 0. -1.
         -5    1    3    3    0  502 -0.45342821383E+02  0.19653004192E+03  0.40572665457E+02  0.20577570899E+03  0.41800000000E+01 0. -1.
        -11    1    1    2    0    0  0.17549763385E+02 -0.41538328685E+02  0.16248469902E+03  0.16862593027E+03  0.00000000000E+00 0. -1.
         11    1    1    2    0    0  0.15465154072E+03 -0.25319101643E+03  0.47830330692E+03  0.56284708692E+03  0.00000000000E+00 0.  1.
</event>
<event>
 7    1  0.2420569E-009  0.2467034E+03  0.7561462E-02  0.1115406E+00
         -2   -1    0    0    0  501 -0.00000000000E+00  0.00000000000E+00  0.14825841229E+03  0.14825841229E+03  0.00000000000E+00 0.  1.
          2   -1    0    0  501    0  0.00000000000E+00 -0.00000000000E+00 -0.48423233878E+03  0.48423233878E+03  0.00000000000E+00 0. -1.
         25    2    1    2    0    0  0.55060155451E+02 -0.22587131219E+03 -0.26007592447E+03  0.37058860155E+03  0.12508778805E+03 0.  0.
          5    1    3    3  502    0  0.14661958117E+02 -0.18327107903E+03 -0.12254727883E+03  0.22099450078E+03  0.41800000000E+01 0.  1.
         -5    1    3    3    0  502  0.40398197334E+02 -0.42600233156E+02 -0.13752864564E+03  0.14959410077E+03  0.41800000000E+01 0.  1.
        -11    1    1    2    0    0  0.19618426614E+02  0.95964819253E+01 -0.57109879023E+01  0.22574111522E+02  0.00000000000E+00 0. -1.
         11    1    1    2    0    0 -0.74678582066E+02  0.21627483026E+03 -0.70187014113E+02  0.23932803801E+03  0.00000000000E+00 0.  1.
</event>
<event>
 7    1  0.2420569E-009  0.1143963E+03  0.7561462E-02  0.1252639E+00
         -2   -1    0    0    0  501 -0.00000000000E+00  0.00000000000E+00  0.25131570711E+03  0.25131570711E+03  0.00000000000E+00 0.  1.
          2   -1    0    0  501    0  0.00000000000E+00 -0.00000000000E+00 -0.12641104120E+03  0.12641104120E+03  0.00000000000E+00 0. -1.
         25    2    1    2    0    0  0.69874278898E+02 -0.37291513914E+02 -0.57719850312E+02  0.15890985182E+03  0.12509071917E+03 0.  0.
          5    1    3    3  502    0  0.30604367721E+02 -0.82457491970E+02 -0.35098281620E+02  0.94790437694E+02  0.41800000000E+01 0.  1.
         -5    1    3    3    0  502  0.39269911178E+02  0.45165978056E+02 -0.22621568692E+02  0.64119414125E+02  0.41800000000E+01 0.  1.
        -11    1    1    2    0    0 -0.34313839309E+02  0.27176306568E+02  0.13658709977E+02  0.45853588356E+02  0.00000000000E+00 0.  1.
         11    1    1    2    0    0 -0.35560439589E+02  0.10115207346E+02  0.16896580624E+03  0.17296330814E+03  0.00000000000E+00 0. -1.
</event>
<event>
 7    1  0.2420569E-009  0.1287193E+03  0.7561462E-02  0.1229369E+00
          2   -1    0    0  501    0  0.00000000000E+00  0.00000000000E+00  0.10229693611E+04  0.10229693611E+04  0.00000000000E+00 0. -1.
         -2   -1    0    0    0  501 -0.00000000000E+00 -0.00000000000E+00 -0.18754882876E+02  0.18754882876E+02  0.00000000000E+00 0.  1.
         25    2    1    2    0    0  0.48980131234E+01  0.83789610069E+02  0.49140100460E+03  0.51397168725E+03  0.12508900307E+03 0.  0.
          5    1    3    3  502    0 -0.17640705884E+01  0.11441913649E+03  0.32475455546E+03  0.34435133866E+03  0.41800000000E+01 0.  1.
         -5    1    3    3    0  502  0.66620837117E+01 -0.30629526422E+02  0.16664644913E+03  0.16962034859E+03  0.41800000000E+01 0.  1.
        -11    1    1    2    0    0  0.30546007410E+02 -0.63502125590E+02  0.42629233098E+03  0.43207722687E+03  0.00000000000E+00 0. -1.
         11    1    1    2    0    0 -0.35444020533E+02 -0.20287484479E+02  0.86521142601E+02  0.95675329814E+02  0.00000000000E+00 0.  1.
</event>
<event>
 7    1  0.2420569E-009  0.9951050E+02  0.7561462E-02  0.1281329E+00
         -3   -1    0    0    0  501 -0.00000000000E+00  0.00000000000E+00  0.27226792147E+03  0.27226792147E+03  0.00000000000E+00 0.  1.
          3   -1    0    0  501    0  0.00000000000E+00 -0.00000000000E+00 -0.68848414043E+02  0.68848414043E+02  0.00000000000E+00 0. -1.
         25    2    1    2    0    0 -0.82738729760E+02 -0.39464005092E+01  0.11199686080E+03  0.18723217533E+03  0.12510523240E+03 0.  0.
          5    1    3    3  502    0 -0.58659988021E+02  0.34125483739E+02  0.16960519296E+01  0.68013909071E+02  0.41800000000E+01 0.  1.
         -5    1    3    3    0  502 -0.24078741739E+02 -0.38071884248E+02  0.11030080887E+03  0.11921826626E+03  0.41800000000E+01 0.  1.
        -11    1    1    2    0    0  0.31532486500E+02 -0.93380216443E+01  0.95325789709E+02  0.10083899314E+03  0.00000000000E+00 0.  1.
         11    1    1    2    0    0  0.51206243260E+02  0.13284422154E+02 -0.39031430784E+01  0.53045167043E+02  0.00000000000E+00 0. -1.
</event>
<event>
 7    1  0.2420569E-009  0.1312508E+03  0.7561462E-02  0.1225611E+00
          1   -1    0    0  501    0  0.00000000000E+00  0.00000000000E+00  0.49173428862E+02  0.49173428862E+02  0.00000000000E+00 0. -1.
         -1   -1    0    0    0  501 -0.00000000000E+00 -0.00000000000E+00 -0.39097715636E+03  0.39097715636E+03  0.00000000000E+00 0.  1.
         25    2    1    2    0    0  0.27438145554E+02  0.78024921097E+02 -0.14410633833E+03  0.20797787719E+03  0.12508964988E+03 0.  0.
          5    1    3    3  502    0  0.65945578578E+02  0.82368460734E+01 -0.88268242179E+02  0.11056862098E+03  0.41800000000E+01 0.  1.
         -5    1    3    3    0  502 -0.38507433024E+02  0.69788075023E+02 -0.55838096152E+02  0.97409256210E+02  0.41800000000E+01 0.  1.
        -11    1    1    2    0    0  0.73459258832E+01 -0.80863143450E+02 -0.16700298826E+03  0.18569547297E+03  0.00000000000E+00 0.  1.
         11    1    1    2    0    0 -0.34784071437E+02  0.28382223534E+01 -0.30694400905E+02  0.46477235059E+02  0.00000000000E+00 0. -1.
</event>
<event>
 7    1  0.2570378E-009  0.8717255E+02  0.7561462E-02  0.1309847E+00
         -3   -1    0    0    0  501 -0.00000000000E+00  0.00000000000E+00  0.36968766959E+02  0.36968766959E+02  0.00000000000E+00 0.  1.
          3   -1    0    0  501    0  0.00000000000E+00 -0.00000000000E+00 -0.35998733270E+03  0.35998733270E+03  0.00000000000E+00 0. -1.
         25    2    1    2    0    0  0.20507967300E+01  0.39799942973E+02 -0.17989208244E+03  0.22270602845E+03  0.12509425468E+03 0.  0.
          5    1    3    3  502    0 -0.31903854181E+02  0.20786302564E+02  0.30441876623E+00  0.38307849805E+02  0.41800000000E+01 0. -1.
         -5    1    3    3    0  502  0.33954650911E+02  0.19013640409E+02 -0.18019650121E+03  0.18439817865E+03  0.41800000000E+01 0. -1.
        -11    1    1    2    0    0 -0.19620114266E+02 -0.64030425194E+02 -0.79585606526E+02  0.10401304245E+03  0.00000000000E+00 0.  1.
         11    1    1    2    0    0  0.17569317536E+02  0.24230482221E+02 -0.63540876774E+02  0.70237028757E+02  0.00000000000E+00 0. -1.
</event>
<event>
 7    1  0.2420569E-009  0.1105793E+03  0.7561462E-02  0.1259501E+00
          1   -1    0    0  501    0  0.00000000000E+00  0.00000000000E+00  0.11301774575E+03  0.11301774575E+03  0.00000000000E+00 0. -1.
         -1   -1    0    0    0  501 -0.00000000000E+00 -0.00000000000E+00 -0.11128616530E+03  0.11128616530E+03  0.00000000000E+00 0.  1.
         25    2    1    2    0    0 -0.20078641756E+02  0.23373428955E+02  0.61195784050E+01  0.12897410426E+03  0.12508957308E+03 0.  0.
          5    1    3    3  502    0  0.51939026909E+02 -0.99684823177E+00  0.84355747708E+01  0.52794768153E+02  0.41800000000E+01 0. -1.
         -5    1    3    3    0  502 -0.72017668665E+02  0.24370277187E+02 -0.23159963658E+01  0.76179336105E+02  0.41800000000E+01 0. -1.
        -11    1    1    2    0    0  0.54991281238E+02 -0.14797330424E+02  0.75574009847E+01  0.57446638801E+02  0.00000000000E+00 0. -1.
         11    1    1    2    0    0 -0.34912639482E+02 -0.85760985309E+01 -0.11945398943E+02  0.37883167997E+02  0.00000000000E+00 0.  1.
</event>
<event>
 7    1  0.2420569E-009  0.8446897E+02  0.7561462E-02  0.1316827E+00
         -2   -1    0    0    0  501 -0.00000000000E+00  0.00000000000E+00  0.10771868817E+03  0.10771868817E+03  0.00000000000E+00 0.  1.
          2   -1    0    0  501    0  0.00000000000E+00 -0.00000000000E+00 -0.12468338082E+03  0.12468338082E+03  0.00000000000E+00 0. -1.
         25    2    1    2    0    0 -0.26007288881E+02  0.23700811258E+02  0.11773031891E+02  0.13047501056E+03  0.12508803529E+03 0.  0.
          5    1    3    3  502    0  0.22035537420E+02 -0.16895345199E+02 -0.40020838199E+02  0.48889236944E+02  0.41800000000E+01 0. -1.
         -5    1    3    3    0  502 -0.48042826301E+02  0.40596156456E+02  0.51793870090E+02  0.81585773618E+02  0.41800000000E+01 0. -1.
        -11    1    1    2    0    0  0.33949544994E+02 -0.44260098217E+02 -0.47281513927E+02  0.73123658680E+02  0.00000000000E+00 0. -1.
         11    1    1    2    0    0 -0.79422561125E+01  0.20559286959E+02  0.18543789388E+02  0.28803399752E+02  0.00000000000E+00 0.  1.
</event>
<event>
 7    1  0.2420569E-009  0.1072984E+03  0.7561462E-02  0.1265656E+00
          2   -1    0    0  501    0  0.00000000000E+00  0.00000000000E+00  0.85816029355E+03  0.85816029355E+03  0.00000000000E+00 0. -1.
         -2   -1    0    0    0  501 -0.00000000000E+00 -0.00000000000E+00 -0.14897733764E+02  0.14897733764E+02  0.00000000000E+00 0.  1.
         25    2    1    2    0    0 -0.10968115453E+02  0.18022914766E+02  0.37984752322E+03  0.40047026058E+03  0.12508862339E+03 0.  0.
          5    1    3    3  502    0 -0.19316460274E+02  0.68413239488E+02  0.27038422626E+03  0.27960436188E+03  0.41800000000E+01 0. -1.
         -5    1    3    3    0  502  0.83483448210E+01 -0.50390324723E+02  0.10946329696E+03  0.12086589870E+03  0.41800000000E+01 0. -1.
        -11    1    1    2    0    0 -0.29355149414E+01  0.36119749567E+02  0.20726918517E+03  0.21041332818E+03  0.00000000000E+00 0. -1.
         11    1    1    2    0    0  0.13903630394E+02 -0.54142664332E+02  0.25614585141E+03  0.26217443856E+03  0.00000000000E+00 0.  1.
</event>
<event>
 7    1  0.2420569E-009  0.1302914E+03  0.7561462E-02  0.1227024E+00
         -2   -1    0    0    0  501 -0.00000000000E+00  0.00000000000E+00  0.27881021765E+02  0.27881021765E+02  0.00000000000E+00 0.  1.
          2   -1    0    0  501    0  0.00000000000E+00 -0.00000000000E+00 -0.65627113236E+03  0.65627113236E+03  0.00000000000E+00 0. -1.
         25    2    1    2    0    0  0.75293360806E+02  0.20570682524E+02 -0.37410905606E+03  0.40211683465E+03  0.12509244468E+03 0.  0.
          5    1    3    3  502    0  0.10900215693E+03  0.76464806062E+01 -0.25171234433E+03  0.27443854607E+03  0.41800000000E+01 0.  1.
         -5    1    3    3    0  502 -0.33708796120E+02  0.12924201918E+02 -0.12239671173E+03  0.12767828858E+03  0.41800000000E+01 0.  1.
        -11    1    1    2    0    0 -0.39182037607E+02 -0.53301049678E+02 -0.97267215154E+02  0.11763139509E+03  0.00000000000E+00 0.  1.
         11    1    1    2    0    0 -0.36111323199E+02  0.32730367154E+02 -0.15701383937E+03  0.16440392438E+03  0.00000000000E+00 0. -1.
</event>
<event>
 7    1  0.2420569E-009  0.1000422E+03  0.7561462E-02  0.1280207E+00
         -2   -1    0    0    0  501 -0.00000000000E+00  0.00000000000E+00  0.18324216285E+02  0.18324216285E+02  0.00000000000E+00 0.  1.
          2   -1    0    0  501    0  0.00000000000E+00 -0.00000000000E+00 -0.76310099299E+03  0.76310099299E+03  0.00000000000E+00 0. -1.
         25    2    1    2    0    0  0.16924942470E+02  0.75689070121E+02 -0.37812978086E+03  0.40576478988E+03  0.12509054531E+03 0.  0.
          5    1    3    3  502    0  0.18791875145E+01 -0.21025314332E+02 -0.21057525764E+03  0.21167193182E+03  0.41800000000E+01 0. -1.
         -5    1    3    3    0  502  0.15045754956E+02  0.96714384454E+02 -0.16755452321E+03  0.19409285806E+03  0.41800000000E+01 0. -1.
        -11    1    1    2    0    0 -0.15834760601E+02 -0.23146416358E+02 -0.15976000278E+03  0.16220281971E+03  0.00000000000E+00 0.  1.
         11    1    1    2    0    0 -0.10901818698E+01 -0.52542653764E+02 -0.20688699307E+03  0.21345759968E+03  0.00000000000E+00 0. -1.
</event>
<event>
 7    1  0.2420569E-009  0.1278374E+03  0.7561462E-02  0.1230700E+00
         -2   -1    0    0    0  501 -0.00000000000E+00  0.00000000000E+00  0.28902106790E+03  0.28902106790E+03  0.00000000000E+00 0.  1.
          2   -1    0    0  501    0  0.00000000000E+00 -0.00000000000E+00 -0.63531919689E+02  0.63531919689E+02  0.00000000000E+00 0. -1.
         25    2    1    2    0    0 -0.37631666056E+02  0.55380273035E+02  0.74395270607E+02  0.16020264593E+03  0.12508842689E+03 0.  0.
          5    1    3    3  502    0  0.41631952931E+02  0.39268999338E+02  0.13709952186E+02  0.58997533870E+02  0.41800000000E+01 0. -1.
         -5    1    3    3    0  502 -0.79263618987E+02  0.16111273697E+02  0.60685318421E+02  0.10120511206E+03  0.41800000000E+01 0. -1.
        -11    1    1    2    0    0  0.20916648855E+02  0.26483381130E+02  0.29538528963E+02  0.44848638427E+02  0.00000000000E+00 0.  1.
         11    1    1    2    0    0  0.16715017201E+02 -0.81863654165E+02  0.12155534864E+03  0.14750170323E+03  0.00000000000E+00 0. -1.
</event>
<event>
 7    1  0.2420569E-009  0.1047817E+03  0.7561462E-02  0.1270550E+00
         -2   -1    0    0    0  501 -0.00000000000E+00  0.00000000000E+00  0.51282335064E+02  0.51282335064E+02  0.00000000000E+00 0.  1.
          2   -1    0    0  501    0  0.00000000000E+00 -0.00000000000E+00 -0.51315214812E+03  0.51315214812E+03  0.00000000000E+00 0. -1.
         25    2    1    2    0    0 -0.20410456607E+00 -0.85790034196E+02 -0.98943936899E+02  0.18110147813E+03  0.12509145098E+03 0.  0.
          5    1    3    3  502    0 -0.33975959447E+01 -0.78605071205E+02  0.29253717893E+01  0.78843712986E+02  0.41800000000E+01 0.  1.
         -5    1    3    3    0  502  0.31934913786E+01 -0.71849629905E+01 -0.10186930869E+03  0.10225776515E+03  0.41800000000E+01 0.  1.
        -11    1    1    2    0    0 -0.27379920051E+02 -0.42417683277E+01 -0.59551928974E+02  0.65681693531E+02  0.00000000000E+00 0.  1.
         11    1    1    2    0    0  0.27584024617E+02  0.90031802523E+02 -0.30337394718E+03  0.31765131151E+03  0.00000000000E+00 0. -1.
</event>
<event>
 7    1  0.2420569E-009  0.9138408E+02  0.7561462E-02  0.1299534E+00
         -1   -1    0    0    0  501 -0.00000000000E+00  0.00000000000E+00  0.17908441141E+03  0.17908441141E+03  0.00000000000E+00 0.  1.
          1   -1    0    0  501    0  0.00000000000E+00 -0.00000000000E+00 -0.81448597162E+02  0.81448597162E+02  0.00000000000E+00 0. -1.
         25    2    1    2    0    0 -0.51919521809E+02 -0.61273754770E+00  0.78986499336E+02  0.15678755540E+03  0.12508980077E+03 0.  0.
          5    1    3    3  502    0  0.11200934586E+01 -0.22744881320E+02 -0.27354516357E+02  0.35837497132E+02  0.41800000000E+01 0. -1.
         -5    1    3    3    0  502 -0.53039615268E+02  0.22132143772E+02  0.10634101569E+03  0.12095005826E+03  0.41800000000E+01 0. -1.
        -11    1    1    2    0    0 -0.77381616007E+01 -0.32740981577E+02  0.78836243851E+01  0.34554342029E+02  0.00000000000E+00 0.  1.
         11    1    1    2    0    0  0.59657683410E+02  0.33353719125E+02  0.10765690529E+02  0.69191111148E+02  0.00000000000E+00 0. -1.
</event>
<event>
 7    1  0.2420569E-009  0.1383755E+03  0.7561462E-02  0.1215532E+00
          1   -1    0    0  501    0  0.00000000000E+00  0.00000000000E+00  0.15109767261E+03  0.15109767261E+03  0.00000000000E+00 0. -1.
         -1   -1    0    0    0  501 -0.00000000000E+00 -0.00000000000E+00 -0.13448004790E+03  0.13448004790E+03  0.00000000000E+00 0.  1.
         25    2    1    2    0    0  0.52751011597E+02  0.69895843732E+02 -0.18181576741E+02  0.15377265900E+03  0.12508941893E+03 0.  0.
          5    1    3    3  502    0  0.82195578001E+02  0.71207781359E+01 -0.16773638829E+02  0.84294993231E+02  0.41800000000E+01 0. -1.
         -5    1    3    3    0  502 -0.29444566404E+02  0.62775065597E+02 -0.14079379117E+01  0.69477665768E+02  0.41800000000E+01 0. -1.
        -11    1    1    2    0    0 -0.14932871316E+02 -0.83244691907E+02  0.11306398265E+02  0.85325869572E+02  0.00000000000E+00 0.  1.
         11    1    1    2    0    0 -0.37818140281E+02  0.13348848175E+02  0.23492803191E+02  0.46479191944E+02  0.00000000000E+00 0. -1.
</event>
<event>
 7    1  0.2420569E-009  0.1773274E+03  0.7561462E-02  0.1170415E+00
          2   -1    0    0  501    0  0.00000000000E+00  0.00000000000E+00  0.13776469801E+03  0.13776469801E+03  0.00000000000E+00 0. -1.
         -2   -1    0    0    0  501 -0.00000000000E+00 -0.00000000000E+00 -0.30886753014E+03  0.30886753014E+03  0.00000000000E+00 0.  1.
         25    2    1    2    0    0  0.10321405593E+03 -0.12715169555E+03 -0.15523652470E+03  0.25800455611E+03  0.12508907766E+03 0.  0.
          5    1    3    3  502    0  0.27536118656E+02 -0.60476933925E+02  0.69763564483E+01  0.66946540739E+02  0.41800000000E+01 0. -1.
         -5    1    3    3    0  502  0.75677937277E+02 -0.66674761624E+02 -0.16221288114E+03  0.19105801537E+03  0.41800000000E+01 0. -1.
        -11    1    1    2    0    0 -0.19003218628E+02  0.95167337836E+02 -0.17088093275E+02  0.98539065557E+02  0.00000000000E+00 0. -1.
         11    1    1    2    0    0 -0.84210837304E+02  0.31984357713E+02  0.12217858351E+01  0.90088606485E+02  0.00000000000E+00 0.  1.
</event>
<event>
 7    1  0.2420569E-009  0.8710584E+02  0.7561462E-02  0.1310016E+00
         -1   -1    0    0    0  501 -0.00000000000E+00  0.00000000000E+00  0.85874284406E+02  0.85874284406E+02  0.00000000000E+00 0.  1.
          1   -1    0    0  501    0  0.00000000000E+00 -0.00000000000E+00 -0.17277483835E+03  0.17277483835E+03  0.00000000000E+00 0. -1.
         25    2    1    2    0    0  0.52322809751E+02 -0.25920425126E+02 -0.72666846528E+02  0.15600640103E+03  0.12509189310E+03 0.  0.
          5    1    3    3  502    0  0.33016531207E+02  0.87210064227E+01  0.30138458549E+02  0.45737800228E+02  0.41800000000E+01 0. -1.
         -5    1    3    3    0  502  0.19306278544E+02 -0.34641431548E+02 -0.10280530508E+03  0.11026860080E+03  0.41800000000E+01 0. -1.
        -11    1    1    2    0    0 -0.74052354337E+02  0.14786253975E+02 -0.25048693321E+01  0.75555667291E+02  0.00000000000E+00 0.  1.
         11    1    1    2    0    0  0.21729544586E+02  0.11134171151E+02 -0.11728838085E+02  0.27087054435E+02  0.00000000000E+00 0. -1.
</event>
<event>
 7    1  0.2420569E-009  0.1200002E+03  0.7561462E-02  0.1243097E+00
         -2   -1    0    0    0  501 -0.00000000000E+00  0.00000000000E+00  0.15338746611E+02  0.15338746611E+02  0.00000000000E+00 0.  1.
          2   -1    0    0  501    0  0.00000000000E+00 -0.00000000000E+00 -0.10041276398E+04  0.10041276398E+04  0.00000000000E+00 0. -1.
         25    2    1    2    0    0  0.57317029976E+02 -0.24606723142E+02 -0.54872169383E+03  0.56624888535E+03  0.12510623536E+03 0.  0.
          5    1    3    3  502    0 -0.33518812759E+02 -0.25700587248E+02 -0.10405578934E+03  0.11237931611E+03  0.41800000000E+01 0. -1.
         -5    1    3    3    0  502  0.90835842735E+02  0.10938641061E+01 -0.44466590449E+03  0.45386956924E+03  0.41800000000E+01 0. -1.
        -11    1    1    2    0    0  0.21485897657E+02  0.17096186776E+02 -0.80976858423E+02  0.85505409189E+02  0.00000000000E+00 0.  1.
         11    1    1    2    0    0 -0.78802927633E+02  0.75105363656E+01 -0.35909034096E+03  0.36771209190E+03  0.00000000000E+00 0. -1.
</event>
<event>
 7    1  0.2420569E-009  0.8307233E+02  0.7561462E-02  0.1320552E+00
          2   -1    0    0  501    0  0.00000000000E+00  0.00000000000E+00  0.12671274162E+03  0.12671274162E+03  0.00000000000E+00 0.  1.
         -2   -1    0    0    0  501 -0.00000000000E+00 -0.00000000000E+00 -0.10523646233E+03  0.10523646233E+03  0.00000000000E+00 0. -1.
         25    2    1    2    0    0 -0.12480869505E+02 -0.85359135659E+01 -0.24998830294E+02  0.12845793090E+03  0.12509142485E+03 0.  0.
          5    1    3    3  502    0  0.42134607923E+02 -0.13894342815E+02 -0.50883072216E+02  0.67638283429E+02  0.41800000000E+01 0. -1.
         -5    1    3    3    0  502 -0.54615477428E+02  0.53584292495E+01  0.25884241922E+02  0.60819647472E+02  0.41800000000E+01 0. -1.
        -11    1    1    2    0    0  0.13911742102E+02  0.36232553692E+02  0.60911232705E+02  0.72225430320E+02  0.00000000000E+00 0.  1.
         11    1    1    2    0    0 -0.14308725964E+01 -0.27696640126E+02 -0.14436123122E+02  0.31265842727E+02  0.00000000000E+00 0. -1.
</event>
<event>
 7    1  0.2420569E-009  0.1229977E+03  0.7561462E-02  0.1238232E+00
          1   -1    0    0  501    0  0.00000000000E+00  0.00000000000E+00  0.44951447599E+03  0.44951447599E+03  0.00000000000E+00 0. -1.
         -1   -1    0    0    0  501 -0.00000000000E+00 -0.00000000000E+00 -0.10703121463E+03  0.10703121463E+03  0.00000000000E+00 0.  1.
         25    2    1    2    0    0  0.86673570823E+02  0.47959610273E+01  0.38609324341E+03  0.41503015195E+03  0.12508687098E+03 0.  0.
          5    1    3    3  502    0  0.35797662164E+01 -0.26356305071E+02  0.25650086466E+03  0.25791013069E+03  0.41800000000E+01 0. -1.
         -5    1    3    3    0  502  0.83093804606E+02  0.31152266099E+02  0.12959237875E+03  0.15712002125E+03  0.41800000000E+01 0. -1.
        -11    1    1    2    0    0  0.21634207322E+02 -0.34982909826E+01  0.54877121807E+01  0.22591855860E+02  0.00000000000E+00 0. -1.
         11    1    1    2    0    0 -0.10830777814E+03 -0.12976700447E+01 -0.49097694234E+02  0.11892368281E+03  0.00000000000E+00 0.  1.
</event>
<event>
 7    1  0.2420569E-009  0.1280356E+03  0.7561462E-02  0.1230400E+00
          2   -1    0    0  501    0  0.00000000000E+00  0.00000000000E+00  0.42327173433E+02  0.42327173433E+02  0.00000000000E+00 0. -1.
         -2   -1    0    0    0  501 -0.00000000000E+00 -0.00000000000E+00 -0.56316983403E+03  0.56316983403E+03  0.00000000000E+00 0.  1.
         25    2    1    2    0    0 -0.10193626152E+03  0.20737365896E+02 -0.21159855137E+03  0.26690819787E+03  0.12507997198E+03 0.  0.
          5    1    3    3  502    0 -0.46274053677E+02  0.42166169172E+02 -0.19475882598E+02  0.65696699075E+02  0.41800000000E+01 0.  1.
         -5    1    3    3    0  502 -0.55662207848E+02 -0.21428803276E+02 -0.19212266877E+03  0.20121149880E+03  0.41800000000E+01 0.  1.
        -11    1    1    2    0    0  0.86380021525E+01  0.27274521101E+02 -0.10683521213E+03  0.11059962538E+03  0.00000000000E+00 0.  1.
         11    1    1    2    0    0  0.93298259372E+02 -0.48011886997E+02 -0.20240889709E+03  0.22798918421E+03  0.00000000000E+00 0. -1.
</event>
<event>
 7    1  0.2420569E-009  0.2097713E+03  0.7561462E-02  0.1141747E+00
          1   -1    0    0  501    0  0.00000000000E+00  0.00000000000E+00  0.32371360793E+03  0.32371360793E+03  0.00000000000E+00 0. -1.
         -1   -1    0    0    0  501 -0.00000000000E+00 -0.00000000000E+00 -0.15625863141E+03  0.15625863141E+03  0.00000000000E+00 0.  1.
         25    2    1    2    0    0 -0.66576038557E+01  0.18631872010E+03  0.15309002876E+03  0.27174879554E+03  0.12510740116E+03 0.  0.
          5    1    3    3  502    0  0.34663073477E+02  0.15755255096E+03  0.73143916303E+02  0.17717742483E+03  0.41800000000E+01 0. -1.
         -5    1    3    3    0  502 -0.41320677333E+02  0.28766169139E+02  0.79946112454E+02  0.94571370714E+02  0.41800000000E+01 0. -1.
        -11    1    1    2    0    0  0.22851369745E+02 -0.18972718960E+03  0.11645397853E+02  0.19145288418E+03  0.00000000000E+00 0. -1.
         11    1    1    2    0    0 -0.16193765889E+02  0.34084694948E+01  0.27195499165E+01  0.16770559612E+02  0.00000000000E+00 0.  1.
</event>
<event>
 7    1  0.2420569E-009  0.2339356E+03  0.7561462E-02  0.1123900E+00
         -1   -1    0    0    0  501 -0.00000000000E+00  0.00000000000E+00  0.15477394498E+03  0.15477394498E+03  0.00000000000E+00 0.  1.
          1   -1    0    0  501    0  0.00000000000E+00 -0.00000000000E+00 -0.49091908909E+03  0.49091908909E+03  0.00000000000E+00 0. -1.
         25    2    1    2    0    0 -0.13413927794E+03  0.16863105408E+03 -0.32496704063E+03  0.40948840637E+03  0.12508956461E+03 0.  0.
          5    1    3    3  502    0 -0.15357106717E+03  0.16842184550E+03 -0.28593127795E+03  0.36568313993E+03  0.41800000000E+01 0. -1.
         -5    1    3    3    0  502  0.19431789233E+02  0.20920857892E+00 -0.39035762675E+02  0.43805266449E+02  0.41800000000E+01 0. -1.
        -11    1    1    2    0    0  0.13619250919E+03 -0.15537104008E+03  0.14616820287E+02  0.20712848933E+03  0.00000000000E+00 0.  1.
         11    1    1    2    0    0 -0.20532312469E+01 -0.13260013998E+02 -0.25794923777E+02  0.29076138369E+02  0.00000000000E+00 0. -1.
</event>
<event>
 7    1  0.2420569E-009  0.1272227E+03  0.7561462E-02  0.1231636E+00
         -2   -1    0    0    0  501 -0.00000000000E+00  0.00000000000E+00  0.71476531837E+02  0.71476531837E+02  0.00000000000E+00 0.  1.
          2   -1    0    0  501    0  0.00000000000E+00 -0.00000000000E+00 -0.31800615866E+03  0.31800615866E+03  0.00000000000E+00 0. -1.
         25    2    1    2    0    0  0.86360364428E+02 -0.21733372843E+02 -0.61704414841E+02  0.16548522293E+03  0.12508985634E+03 0.  0.
          5    1    3    3  502    0  0.10713653462E+03  0.92348156184E+01 -0.20132719460E+02  0.10948204265E+03  0.41800000000E+01 0. -1.
         -5    1    3    3    0  502 -0.20776170196E+02 -0.30968188461E+02 -0.41571695381E+02  0.56003180280E+02  0.41800000000E+01 0. -1.
        -11    1    1    2    0    0 -0.63515803155E+02  0.44107669193E+02 -0.68327600918E+02  0.10319110804E+03  0.00000000000E+00 0.  1.
         11    1    1    2    0    0 -0.22844561273E+02 -0.22374296350E+02 -0.11649761106E+03  0.12080635952E+03  0.00000000000E+00 0. -1.
</event>
<event>
 7    1  0.2420569E-009  0.6976410E+02  0.7561462E-02  0.1360897E+00
          3   -1    0    0  501    0  0.00000000000E+00  0.00000000000E+00  0.19744044606E+03  0.19744044606E+03  0.00000000000E+00 0. -1.
         -3   -1    0    0    0  501 -0.00000000000E+00 -0.00000000000E+00 -0.88063057524E+02  0.88063057524E+02  0.00000000000E+00 0.  1.
         25    2    1    2    0    0  0.34030666734E+02  0.51401444949E+02  0.10691916347E+03  0.17572706776E+03  0.12509236590E+03 0.  0.
          5    1    3    3  502    0  0.28196264852E+02  0.18214348049E+02 -0.23351426811E+02  0.41104176924E+02  0.41800000000E+01 0.  1.
         -5    1    3    3    0  502  0.58344018811E+01  0.33187096900E+02  0.13027059028E+03  0.13462289084E+03  0.41800000000E+01 0.  1.
        -11    1    1    2    0    0 -0.29880756222E+02 -0.12117344438E+02  0.42620151300E+02  0.53443118598E+02  0.00000000000E+00 0. -1.
         11    1    1    2    0    0 -0.41499105115E+01 -0.39284100511E+02 -0.40161926236E+02  0.56333317221E+02  0.00000000000E+00 0.  1.
</event>
<event>
 7    1  0.2420569E-009  0.1184838E+03  0.7561462E-02  0.1245619E+00
          2   -1    0    0  501    0  0.00000000000E+00  0.00000000000E+00  0.13373629014E+04  0.13373629014E+04  0.00000000000E+00 0. -1.
         -2   -1    0    0    0  501 -0.00000000000E+00 -0.00000000000E+00 -0.10810177017E+02  0.10810177017E+02  0.00000000000E+00 0.  1.
         25    2    1    2    0    0 -0.43575496075E+02 -0.18401407224E+02  0.85614040560E+03  0.86652279380E+03  0.12509165613E+03 0.  0.
          5    1    3    3  502    0 -0.36634752899E+02  0.51446570977E+02  0.42426591047E+03  0.42896140849E+03  0.41800000000E+01 0. -1.
         -5    1    3    3    0  502 -0.69407431766E+01 -0.69847978202E+02  0.43187449513E+03  0.43756138532E+03  0.41800000000E+01 0. -1.
        -11    1    1    2    0    0 -0.11537439775E+02  0.41887326769E+02  0.20723966815E+03  0.21174498983E+03  0.00000000000E+00 0.  1.
         11    1    1    2    0    0  0.55112935850E+02 -0.23485919545E+02  0.26317265063E+03  0.26990529479E+03  0.00000000000E+00 0. -1.
</event>
<event>
 7    1  0.2420569E-009  0.1041117E+03  0.7561462E-02  0.1271880E+00
         -1   -1    0    0    0  501 -0.00000000000E+00  0.00000000000E+00  0.22354203453E+02  0.22354203453E+02  0.00000000000E+00 0.  1.
          1   -1    0    0  501    0  0.00000000000E+00 -0.00000000000E+00 -0.57825937384E+03  0.57825937384E+03  0.00000000000E+00 0. -1.
         25    2    1    2    0    0 -0.29602219447E+02  0.10218582667E+02 -0.31158235874E+03  0.33721001570E+03  0.12508524127E+03 0.  0.
          5    1    3    3  502    0 -0.69845204793E+02  0.20345065901E+02 -0.26430166500E+03  0.27416257378E+03  0.41800000000E+01 0.  1.
         -5    1    3    3    0  502  0.40242985346E+02 -0.10126483234E+02 -0.47280693740E+02  0.63047441921E+02  0.41800000000E+01 0.  1.
        -11    1    1    2    0    0 -0.13573631786E+02 -0.39308882092E+02 -0.15009990450E+03  0.15575433549E+03  0.00000000000E+00 0. -1.
         11    1    1    2    0    0  0.43175851232E+02  0.29090299426E+02 -0.94222907138E+02  0.10764922610E+03  0.00000000000E+00 0.  1.
</event>
<event>
 7    1  0.2420569E-009  0.1600721E+03  0.7561462E-02  0.1188615E+00
         -2   -1    0    0    0  501 -0.00000000000E+00  0.00000000000E+00  0.31062755421E+02  0.31062755421E+02  0.00000000000E+00 0.  1.
          2   -1    0    0  501    0  0.00000000000E+00 -0.00000000000E+00 -0.91714713166E+03  0.91714713166E+03  0.00000000000E+00 0. -1.
         25    2    1    2    0    0 -0.53317188325E+02  0.11195608476E+03 -0.40575458994E+03  0.44233956917E+03  0.12510243685E+03 0.  0.
          5    1    3    3  502    0 -0.78033400067E+02  0.11205009603E+03 -0.38873657228E+03  0.41204129717E+03  0.41800000000E+01 0.  1.
         -5    1    3    3    0  502  0.24716211741E+02 -0.94011268008E-01 -0.17018017665E+02  0.30298272000E+02  0.41800000000E+01 0.  1.
        -11    1    1    2    0    0  0.82719790415E+02 -0.80983744007E+02 -0.33822862475E+03  0.35749060564E+03  0.00000000000E+00 0.  1.
         11    1    1    2    0    0 -0.29402602089E+02 -0.30972340755E+02 -0.14210116155E+03  0.14837971227E+03  0.00000000000E+00 0. -1.
</event>
<event>
 7    1  0.2420569E-009  0.1237051E+03  0.7561462E-02  0.1237107E+00
          1   -1    0    0  501    0  0.00000000000E+00  0.00000000000E+00  0.11142489839E+04  0.11142489839E+04  0.00000000000E+00 0. -1.
         -1   -1    0    0    0  501 -0.00000000000E+00 -0.00000000000E+00 -0.16888028539E+02  0.16888028539E+02  0.00000000000E+00 0.  1.
         25    2    1    2    0    0 -0.20087627476E+02 -0.65267864123E+02  0.79726303792E+03  0.80989798807E+03  0.12507194957E+03 0.  0.
          5    1    3    3  502    0 -0.67298493816E+02 -0.56376012174E+02  0.38948695871E+03  0.39928048465E+03  0.41800000000E+01 0. -1.
         -5    1    3    3    0  502  0.47210866340E+02 -0.88918519488E+01  0.40777607921E+03  0.41061750341E+03  0.41800000000E+01 0. -1.
        -11    1    1    2    0    0  0.15069727705E+02  0.87355758441E+02  0.20259848047E+03  0.22114309737E+03  0.00000000000E+00 0.  1.
         11    1    1    2    0    0  0.50178997703E+01 -0.22087894318E+02  0.97499436945E+02  0.10009592698E+03  0.00000000000E+00 0. -1.
</event>
<event>
 7    1  0.2420569E-009  0.8008648E+02  0.7561462E-02  0.1328806E+00
          1   -1    0    0  501    0  0.00000000000E+00  0.00000000000E+00  0.11369316912E+04  0.11369316912E+04  0.00000000000E+00 0. -1.
         -1   -1    0    0    0  501 -0.00000000000E+00 -0.00000000000E+00 -0.11695691955E+02  0.11695691955E+02  0.00000000000E+00 0.  1.
         25    2    1    2    0    0  0.14410715669E+02  0.32766836779E+02  0.70467261424E+03  0.71658093887E+03  0.12507363583E+03 0.  0.
          5    1    3    3  502    0 -0.20120599121E+02  0.29932795132E+02  0.65426416142E+03  0.65527084175E+03  0.41800000000E+01 0. -1.
         -5    1    3    3    0  502  0.34531314790E+02  0.28340416470E+01  0.50408452820E+02  0.61310097120E+02  0.41800000000E+01 0. -1.
        -11    1    1    2    0    0  0.27282329528E+02  0.10171030649E+02  0.61682157908E+02  0.68208972820E+02  0.00000000000E+00 0.  1.
         11    1    1    2    0    0 -0.41693045197E+02 -0.42937867428E+02  0.35888122706E+03  0.36383747142E+03  0.00000000000E+00 0. -1.
</event>
<event>
 7    1  0.2420569E-009  0.1149927E+03  0.7561462E-02  0.1251594E+00
          1   -1    0    0  501    0  0.00000000000E+00  0.00000000000E+00  0.10837096236E+03  0.10837096236E+03  0.00000000000E+00 0.  1.
         -1   -1    0    0    0  501 -0.00000000000E+00 -0.00000000000E+00 -0.14302563655E+03  0.14302563655E+03  0.00000000000E+00 0. -1.
         25    2    1    2    0    0  0.43254325139E+02  0.87701607446E+01 -0.55450461393E+02  0.14377027319E+03  0.12508910993E+03 0.  0.
          5    1    3    3  502    0  0.66442213016E+02 -0.39992799899E+02 -0.24718932010E+02  0.81501470624E+02  0.41800000000E+01 0. -1.
         -5    1    3    3    0  502 -0.23187887877E+02  0.48762960643E+02 -0.30731529383E+02  0.62268802567E+02  0.41800000000E+01 0. -1.
        -11    1    1    2    0    0  0.25861071397E+02  0.79527784807E+01  0.24388589428E+02  0.36425883567E+02  0.00000000000E+00 0.  1.
         11    1    1    2    0    0 -0.69115396536E+02 -0.16722939225E+02 -0.35928022281E+01  0.71200442151E+02  0.00000000000E+00 0. -1.
</event>
<event>
 7    1  0.2420569E-009  0.2513909E+03  0.7561462E-02  0.1112429E+00
         -2   -1    0    0    0  501 -0.00000000000E+00  0.00000000000E+00  0.10781713066E+04  0.10781713066E+04  0.00000000000E+00 0.  1.
          2   -1    0    0  501    0  0.00000000000E+00 -0.00000000000E+00 -0.69332449770E+02  0.69332449770E+02  0.00000000000E+00 0. -1.
         25    2    1    2    0    0  0.24865604679E+03  0.44146198363E+01  0.44775755042E+03  0.52724144634E+03  0.12508956917E+03 0.  0.
          5    1    3    3  502    0  0.47510619888E+02 -0.40266578296E+01  0.21133489081E+03  0.21668728954E+03  0.41800000000E+01 0.  1.
         -5    1    3    3    0  502  0.20114542690E+03  0.84412776658E+01  0.23642265961E+03  0.31055415680E+03  0.41800000000E+01 0.  1.
        -11    1    1    2    0    0 -0.19914391583E+03 -0.23422786891E+02  0.35758282433E+03  0.40996634303E+03  0.00000000000E+00 0. -1.
         11    1    1    2    0    0 -0.49512130955E+02  0.19008167054E+02  0.20349848207E+03  0.21029596698E+03  0.00000000000E+00 0.  1.
</event>
<event>
 7    1  0.2420569E-009  0.1061643E+03  0.7561462E-02  0.1267842E+00
          1   -1    0    0  501    0  0.00000000000E+00  0.00000000000E+00  0.11985995555E+04  0.11985995555E+04  0.00000000000E+00 0. -1.
         -1   -1    0    0    0  501 -0.00000000000E+00 -0.00000000000E+00 -0.11565478434E+02  0.11565478434E+02  0.00000000000E+00 0.  1.
         25    2    1    2    0    0  0.10135507395E+02 -0.12029232922E+02  0.89565839471E+03  0.90448690607E+03  0.12508066315E+03 0.  0.
          5    1    3    3  502    0 -0.34290985223E+02 -0.51480715530E+02  0.33634536565E+03  0.34201142252E+03  0.41800000000E+01 0.  1.
         -5    1    3    3    0  502  0.44426492619E+02  0.39451482607E+02  0.55931302906E+03  0.56247548356E+03  0.41800000000E+01 0.  1.
        -11    1    1    2    0    0 -0.62236520527E+00 -0.38927695755E+02  0.15407660747E+03  0.15891933113E+03  0.00000000000E+00 0.  1.
         11    1    1    2    0    0 -0.95131421899E+01  0.50956928677E+02  0.13729907488E+03  0.14675879673E+03  0.00000000000E+00 0. -1.
</event>
<event>
 7    1  0.2420569E-009  0.1397428E+03  0.7561462E-02  0.1213675E+00
          2   -1    0    0  501    0  0.00000000000E+00  0.00000000000E+00  0.29054419441E+03  0.29054419441E+03  0.00000000000E+00 0. -1.
         -2   -1    0    0    0  501 -0.00000000000E+00 -0.00000000000E+00 -0.81338755783E+02  0.81338755783E+02  0.00000000000E+00 0.  1.
         25    2    1    2    0    0 -0.37434229311E+02 -0.87796252714E+02  0.14856780003E+03  0.21640313364E+03  0.12509365104E+03 0.  0.
          5    1    3    3  502    0  0.26485249147E+02 -0.78998565298E+02  0.46304157217E+02  0.95413778445E+02  0.41800000000E+01 0. -1.
         -5    1    3    3    0  502 -0.63919478458E+02 -0.87976874156E+01  0.10226364281E+03  0.12098935520E+03  0.41800000000E+01 0. -1.
        -11    1    1    2    0    0 -0.16189433453E+02  0.74387301190E+02  0.38400834994E+01  0.76225419482E+02  0.00000000000E+00 0.  1.
         11    1    1    2    0    0  0.53623662764E+02  0.13408951524E+02  0.56797555099E+02  0.79254397066E+02  0.00000000000E+00 0. -1.
</event>
<event>
 7    1  0.2420569E-009  0.1032903E+03  0.7561462E-02  0.1273525E+00
         -2   -1    0    0    0  501 -0.00000000000E+00  0.00000000000E+00  0.14438646569E+02  0.14438646569E+02  0.00000000000E+00 0.  1.
          2   -1    0    0  501    0  0.00000000000E+00 -0.00000000000E+00 -0.10744275401E+04  0.10744275401E+04  0.00000000000E+00 0. -1.
         25    2    1    2    0    0 -0.52502355513E+02  0.26890096481E+02 -0.74364225222E+03  0.75639336736E+03  0.12509017660E+03 0.  0.
          5    1    3    3  502    0  0.29769763964E+02 -0.18461003547E+02 -0.10271404709E+03  0.10860338562E+03  0.41800000000E+01 0.  1.
         -5    1    3    3    0  502 -0.82272119477E+02  0.45351100028E+02 -0.64092820513E+03  0.64778998174E+03  0.41800000000E+01 0.  1.
        -11    1    1    2    0    0  0.62387830745E+02 -0.24951471670E+02 -0.31525961446E+03  0.32234056815E+03  0.00000000000E+00 0. -1.
         11    1    1    2    0    0 -0.98854752323E+01 -0.19386248105E+01 -0.10870268812E+01  0.10132251189E+02  0.00000000000E+00 0.  1.
</event>
<event>
 7    1  0.2420569E-009  0.1189764E+03  0.7561462E-02  0.1244795E+00
         -2   -1    0    0    0  501 -0.00000000000E+00  0.00000000000E+00  0.11170798578E+03  0.11170798578E+03  0.00000000000E+00 0.  1.
          2   -1    0    0  501    0  0.00000000000E+00 -0.00000000000E+00 -0.13166432289E+03  0.13166432289E+03  0.00000000000E+00 0. -1.
         25    2    1    2    0    0 -0.55486574254E+02  0.31852091590E+02 -0.20828077607E+02  0.14203770885E+03  0.12509031241E+03 0.  0.
          5    1    3    3  502    0 -0.95343192707E+02  0.23603188829E+02 -0.59106623566E+01  0.98487782227E+02  0.41800000000E+01 0. -1.
         -5    1    3    3    0  502  0.39856618453E+02  0.82489027602E+01 -0.14917415250E+02  0.43549926625E+02  0.41800000000E+01 0. -1.
        -11    1    1    2    0    0  0.73823165330E+02 -0.31824083315E+02  0.97177891575E+01  0.80975721326E+02  0.00000000000E+00 0.  1.
         11    1    1    2    0    0 -0.18336591076E+02 -0.28008274875E-01 -0.88460486531E+01  0.20358878494E+02  0.00000000000E+00 0. -1.
</event>
<event>
 7    1  0.2420569E-009  0.1074211E+03  0.7561462E-02  0.1265422E+00
         -1   -1    0    0    0  501 -0.00000000000E+00  0.00000000000E+00  0.45150678676E+02  0.45150678676E+02  0.00000000000E+00 0.  1.
          1   -1    0    0  501    0  0.00000000000E+00 -0.00000000000E+00 -0.32292433563E+03  0.32292433563E+03  0.00000000000E+00 0. -1.
         25    2    1    2    0    0 -0.19797497938E+01 -0.52628024866E+02 -0.14173833477E+03  0.19624324567E+03  0.12509207615E+03 0.  0.
          5    1    3    3  502    0 -0.32450116276E+02 -0.73812685915E+02 -0.44745412354E+02  0.92308975593E+02  0.41800000000E+01 0.  1.
         -5    1    3    3    0  502  0.30470366483E+02  0.21184661048E+02 -0.96992922415E+02  0.10393427007E+03  0.41800000000E+01 0.  1.
        -11    1    1    2    0    0 -0.96108668861E+01 -0.20539833155E+02 -0.66382140970E+02  0.70148714515E+02  0.00000000000E+00 0. -1.
         11    1    1    2    0    0  0.11590616680E+02  0.73167858021E+02 -0.69653181216E+02  0.10168305412E+03  0.00000000000E+00 0.  1.
</event>
<event>
 7    1  0.2420569E-009  0.9364598E+02  0.7561462E-02  0.1294255E+00
         -2   -1    0    0    0  501 -0.00000000000E+00  0.00000000000E+00  0.26613385534E+02  0.26613385534E+02  0.00000000000E+00 0.  1.
          2   -1    0    0  501    0  0.00000000000E+00 -0.00000000000E+00 -0.70439581650E+03  0.70439581650E+03  0.00000000000E+00 0. -1.
         25    2    1    2    0    0  0.65205038415E+02 -0.31830503739E+02 -0.51016328575E+03  0.53026414503E+03  0.12509439384E+03 0.  0.
          5    1    3    3  502    0  0.11587126153E+02 -0.38704504482E+02 -0.43862451323E+03  0.44050111937E+03  0.41800000000E+01 0.  1.
         -5    1    3    3    0  502  0.53617912262E+02  0.68740007431E+01 -0.71538772525E+02  0.89763025661E+02  0.41800000000E+01 0.  1.
        -11    1    1    2    0    0 -0.19278687832E+02  0.41287322706E+02 -0.28045803920E+02  0.53505868260E+02  0.00000000000E+00 0.  1.
         11    1    1    2    0    0 -0.45926350583E+02 -0.94568189670E+01 -0.13957334130E+03  0.14723918875E+03  0.00000000000E+00 0. -1.
</event>
<event>
 7    1  0.2636269E-009  0.1211027E+03  0.7561462E-02  0.1241289E+00
         -1   -1    0    0    0  501 -0.00000000000E+00  0.00000000000E+00  0.25053257668E+02  0.25053257668E+02  0.00000000000E+00 0.  1.
          1   -1    0    0  501    0  0.00000000000E+00 -0.00000000000E+00 -0.59989711224E+03  0.59989711224E+03  0.00000000000E+00 0. -1.
         25    2    1    2    0    0  0.56204120483E+02  0.34492665864E+01 -0.34556599082E+03  0.37180004651E+03  0.12509444419E+03 0.  0.
          5    1    3    3  502    0 -0.36497256003E+02 -0.16039473367E+02 -0.74046002644E+02  0.84199746492E+02  0.41800000000E+01 0.  1.
         -5    1    3    3    0  502  0.92701376485E+02  0.19488739954E+02 -0.27151998818E+03  0.28760030001E+03  0.41800000000E+01 0.  1.
        -11    1    1    2    0    0 -0.53034484600E+02  0.38308191558E+02 -0.13768943172E+03  0.15244196831E+03  0.00000000000E+00 0.  1.
         11    1    1    2    0    0 -0.31696358829E+01 -0.41757458145E+02 -0.91588432036E+02  0.10070835509E+03  0.00000000000E+00 0. -1.
</event>
<event>
 7    1  0.2420569E-009  0.1189060E+03  0.7561462E-02  0.1244913E+00
         -2   -1    0    0    0  501 -0.00000000000E+00  0.00000000000E+00  0.35779627501E+02  0.35779627501E+02  0.00000000000E+00 0.  1.
          2   -1    0    0  501    0  0.00000000000E+00 -0.00000000000E+00 -0.42030018486E+03  0.42030018486E+03  0.00000000000E+00 0. -1.
         25    2    1    2    0    0 -0.20709202847E+02 -0.50647040687E+02 -0.18193184752E+03  0.22746560011E+03  0.12508960100E+03 0.  0.
          5    1    3    3  502    0  0.53517927450E+01  0.40152479486E+02 -0.69554233740E+02  0.80598555357E+02  0.41800000000E+01 0. -1.
         -5    1    3    3    0  502 -0.26060995592E+02 -0.90799520173E+02 -0.11237761378E+03  0.14686704475E+03  0.41800000000E+01 0. -1.
        -11    1    1    2    0    0  0.19176045843E+02 -0.22389391981E+02 -0.34769335760E+02  0.45584123515E+02  0.00000000000E+00 0. -1.
         11    1    1    2    0    0  0.15331570043E+01  0.73036432668E+02 -0.16781937408E+03  0.18303008874E+03  0.00000000000E+00 0.  1.
</event>
<event>
 7    1  0.2420569E-009  0.1028594E+03  0.7561462E-02  0.1274395E+00
         -1   -1    0    0    0  501 -0.00000000000E+00  0.00000000000E+00  0.95754934551E+02  0.95754934551E+02  0.00000000000E+00 0.  1.
          1   -1    0    0  501    0  0.00000000000E+00 -0.00000000000E+00 -0.16368570216E+03  0.16368570216E+03  0.00000000000E+00 0. -1.
         25    2    1    2    0    0 -0.98477337686E+01  0.15730775164E+02  0.23958221309E+02  0.12870671588E+03  0.12508791787E+03 0.  0.
          5    1    3    3  502    0 -0.52576579253E+02  0.37380230244E+02 -0.15532951170E+02  0.66485511738E+02  0.41800000000E+01 0.  1.
         -5    1    3    3    0  502  0.42728845484E+02 -0.21649455080E+02  0.39491172479E+02  0.62221204146E+02  0.41800000000E+01 0.  1.
        -11    1    1    2    0    0 -0.13566202435E+02  0.34771777030E+02 -0.37375378689E+02  0.52820803274E+02  0.00000000000E+00 0.  1.
         11    1    1    2    0    0  0.23413936204E+02 -0.50502552194E+02 -0.54513610227E+02  0.77913117552E+02  0.00000000000E+00 0. -1.
</event>
<event>
 7    1  0.2420569E-009  0.9722011E+02  0.7561462E-02  0.1286253E+00
         -2   -1    0    0    0  501 -0.00000000000E+00  0.00000000000E+00  0.17509141389E+02  0.17509141389E+02  0.00000000000E+00 0.  1.
          2   -1    0    0  501    0  0.00000000000E+00 -0.00000000000E+00 -0.76343069438E+03  0.76343069438E+03  0.00000000000E+00 0. -1.
         25    2    1    2    0    0 -0.71553664429E+01 -0.13001758534E+02 -0.55149313121E+03  0.56569650540E+03  0.12509043709E+03 0.  0.
          5    1    3    3  502    0  0.76725107051E+00  0.56064507486E+02 -0.25746368844E+03  0.26353147998E+03  0.41800000000E+01 0. -1.
         -5    1    3    3    0  502 -0.79226175134E+01 -0.69066266020E+02 -0.29402944277E+03  0.30216502542E+03  0.41800000000E+01 0. -1.
        -11    1    1    2    0    0  0.57459032160E+01 -0.27474719770E+02 -0.16068944889E+02  0.32343262359E+02  0.00000000000E+00 0.  1.
         11    1    1    2    0    0  0.14094632269E+01  0.40476478304E+02 -0.17835947689E+03  0.18290006801E+03  0.00000000000E+00 0. -1.
</event>
<event>
 7    1  0.2420569E-009  0.1599508E+03  0.7561462E-02  0.1188752E+00
          2   -1    0    0  501    0  0.00000000000E+00  0.00000000000E+00  0.69922594590E+02  0.69922594590E+02  0.00000000000E+00 0.  1.
         -2   -1    0    0    0  501 -0.00000000000E+00 -0.00000000000E+00 -0.52054564481E+03  0.52054564481E+03  0.00000000000E+00 0. -1.
         25    2    1    2    0    0  0.25801936837E+02 -0.12399685196E+03 -0.94128365510E+02  0.20136486569E+03  0.12508677268E+03 0.  0.
          5    1    3    3  502    0 -0.41739920662E+02 -0.28366752604E+02  0.69869329390E+00  0.50644389644E+02  0.41800000000E+01 0.  1.
         -5    1    3    3    0  502  0.67541857499E+02 -0.95630099353E+02 -0.94827058804E+02  0.15072047604E+03  0.41800000000E+01 0.  1.
        -11    1    1    2    0    0  0.10069486482E+02  0.11458279298E+03 -0.30221141216E+03  0.32336101906E+03  0.00000000000E+00 0. -1.
         11    1    1    2    0    0 -0.35871423319E+02  0.94140589748E+01 -0.54283272553E+02  0.65742354661E+02  0.00000000000E+00 0.  1.
</event>
<event>
 7    1  0.2754767E-009  0.1179807E+03  0.7561462E-02  0.1246466E+00
          2   -1    0    0  501    0  0.00000000000E+00  0.00000000000E+00  0.30749526071E+03  0.30749526071E+03  0.00000000000E+00 0. -1.
         -2   -1    0    0    0  501 -0.00000000000E+00 -0.00000000000E+00 -0.71364099920E+02  0.71364099920E+02  0.00000000000E+00 0.  1.
         25    2    1    2    0    0  0.96937570289E+02  0.81618415611E+00  0.16288615709E+03  0.22710521631E+03  0.12508924980E+03 0.  0.
          5    1    3    3  502    0 -0.14097457639E+01 -0.23554483195E+01 -0.19335275307E+02  0.19971499471E+02  0.41800000000E+01 0.  1.
         -5    1    3    3    0  502  0.98347316053E+02  0.31716324756E+01  0.18222143240E+03  0.20713371684E+03  0.41800000000E+01 0.  1.
        -11    1    1    2    0    0 -0.17112646699E+02 -0.40031759751E+02  0.18392731105E+02  0.47261792426E+02  0.00000000000E+00 0. -1.
         11    1    1    2    0    0 -0.79824923590E+02  0.39215575594E+02  0.54852272595E+02  0.10449235189E+03  0.00000000000E+00 0.  1.
</event>
<event>
 7    1  0.2420569E-009  0.7335903E+02  0.7561462E-02  0.1349029E+00
         -1   -1    0    0    0  501 -0.00000000000E+00  0.00000000000E+00  0.10618230264E+03  0.10618230264E+03  0.00000000000E+00 0. -1.
          1   -1    0    0  501    0  0.00000000000E+00 -0.00000000000E+00 -0.19598861668E+03  0.19598861668E+03  0.00000000000E+00 0.  1.
         25    2    1    2    0    0  0.28489393241E+01  0.57682055768E+02 -0.12470079602E+03  0.18583079943E+03  0.12508981364E+03 0.  0.
          5    1    3    3  502    0 -0.30091280822E+01  0.48327671503E+02 -0.15012750309E+03  0.15779847360E+03  0.41800000000E+01 0. -1.
         -5    1    3    3    0  502  0.58580674064E+01  0.93543842656E+01  0.25426707078E+02  0.28032325832E+02  0.41800000000E+01 0. -1.
        -11    1    1    2    0    0  0.29382975061E+02 -0.39747166954E+02 -0.17351207607E+02  0.52385693751E+02  0.00000000000E+00 0.  1.
         11    1    1    2    0    0 -0.32231914385E+02 -0.17934888814E+02  0.52245689591E+02  0.63954426137E+02  0.00000000000E+00 0. -1.
</event>
<event>
 7    1  0.2420569E-009  0.3149457E+03  0.7561462E-02  0.1077999E+00
         -1   -1    0    0    0  501 -0.00000000000E+00  0.00000000000E+00  0.14286698530E+03  0.14286698530E+03  0.00000000000E+00 0.  1.
          1   -1    0    0  501    0  0.00000000000E+00 -0.00000000000E+00 -0.89224841930E+03  0.89224841930E+03  0.00000000000E+00 0. -1.
         25    2    1    2    0    0  0.11489742455E+03  0.28355837807E+03 -0.16499308780E+03  0.36942760162E+03  0.12508901580E+03 0.  0.
          5    1    3    3  502    0  0.53314903418E+02  0.65792352400E+02 -0.10559078842E+03  0.13541787016E+03  0.41800000000E+01 0. -1.
         -5    1    3    3    0  502  0.61582521134E+02  0.21776602567E+03 -0.59402299385E+02  0.23400973146E+03  0.41800000000E+01 0. -1.
        -11    1    1    2    0    0  0.68862478600E+01 -0.88763620558E+02 -0.16762454320E+03  0.18980091735E+03  0.00000000000E+00 0. -1.
         11    1    1    2    0    0 -0.12178367241E+03 -0.19479475751E+03 -0.41676380300E+03  0.47588688562E+03  0.00000000000E+00 0.  1.
</event>
<event>
 7    1  0.2420569E-009  0.9607693E+02  0.7561462E-02  0.1288769E+00
          2   -1    0    0  501    0  0.00000000000E+00  0.00000000000E+00  0.46044290141E+03  0.46044290141E+03  0.00000000000E+00 0. -1.
         -2   -1    0    0    0  501 -0.00000000000E+00 -0.00000000000E+00 -0.36949095101E+02  0.36949095101E+02  0.00000000000E+00 0.  1.
         25    2    1    2    0    0 -0.35311362974E+02 -0.34143494793E+02  0.32038868492E+03  0.34743080663E+03  0.12508631171E+03 0.  0.
          5    1    3    3  502    0  0.11996099956E+02  0.30730915811E+02  0.19946748570E+03  0.20222029040E+03  0.41800000000E+01 0.  1.
         -5    1    3    3    0  502 -0.47307462931E+02 -0.64874410604E+02  0.12092119922E+03  0.14521051622E+03  0.41800000000E+01 0.  1.
        -11    1    1    2    0    0 -0.81755624685E+01  0.34045901783E+02  0.10046777744E+03  0.10639425527E+03  0.00000000000E+00 0. -1.
         11    1    1    2    0    0  0.43486925443E+02  0.97593009471E-01  0.26373439489E+01  0.43566934618E+02  0.00000000000E+00 0.  1.
</event>
<event>
 7    1  0.2420569E-009  0.1207242E+03  0.7561462E-02  0.1241907E+00
          3   -1    0    0  501    0  0.00000000000E+00  0.00000000000E+00  0.28539374370E+02  0.28539374370E+02  0.00000000000E+00 0. -1.
         -3   -1    0    0    0  501 -0.00000000000E+00 -0.00000000000E+00 -0.10066751871E+04  0.10066751871E+04  0.00000000000E+00 0.  1.
         25    2    1    2    0    0 -0.30474607182E+02 -0.85320143649E+02 -0.80593894416E+03  0.82060473519E+03  0.12508525536E+03 0.  0.
          5    1    3    3  502    0 -0.29192016281E+02 -0.89883438184E+00 -0.55551014895E+03  0.55629306998E+03  0.41800000000E+01 0.  1.
         -5    1    3    3    0  502 -0.12825909012E+01 -0.84421309267E+02 -0.25042879520E+03  0.26431166521E+03  0.41800000000E+01 0.  1.
        -11    1    1    2    0    0 -0.28523504768E+02  0.52878910337E+02 -0.70276593134E+02  0.92458471895E+02  0.00000000000E+00 0.  1.
         11    1    1    2    0    0  0.58998111950E+02  0.32441233312E+02 -0.10192027542E+03  0.12215135437E+03  0.00000000000E+00 0. -1.
</event>
<event>
 7    1  0.2420569E-009  0.1204647E+03  0.7561462E-02  0.1242332E+00
          2   -1    0    0  501    0  0.00000000000E+00  0.00000000000E+00  0.39857532402E+03  0.39857532402E+03  0.00000000000E+00 0. -1.
         -2   -1    0    0    0  501 -0.00000000000E+00 -0.00000000000E+00 -0.71450472271E+02  0.71450472271E+02  0.00000000000E+00 0.  1.
         25    2    1    2    0    0  0.76188379561E+02  0.78933517949E+02  0.76782066801E+02  0.18324576957E+03  0.12509339250E+03 0.  0.
          5    1    3    3  502    0  0.70051897764E+02  0.47285482422E+02 -0.14943736530E+02  0.85930046489E+02  0.41800000000E+01 0. -1.
         -5    1    3    3    0  502  0.61364817969E+01  0.31648035527E+02  0.91725803330E+02  0.97315723078E+02  0.41800000000E+01 0. -1.
        -11    1    1    2    0    0 -0.78530071299E+02 -0.46461234781E+02  0.23225646237E+03  0.24953693664E+03  0.00000000000E+00 0.  1.
         11    1    1    2    0    0  0.23416917380E+01 -0.32472283168E+02  0.18086322573E+02  0.37243090078E+02  0.00000000000E+00 0. -1.
</event>
<event>
 7    1  0.2420569E-009  0.1658538E+03  0.7561462E-02  0.1182242E+00
         -2   -1    0    0    0  501 -0.00000000000E+00  0.00000000000E+00  0.20223837711E+03  0.20223837711E+03  0.00000000000E+00 0.  1.
          2   -1    0    0  501    0  0.00000000000E+00 -0.00000000000E+00 -0.15628752292E+03  0.15628752292E+03  0.00000000000E+00 0. -1.
         25    2    1    2    0    0 -0.10630426898E+03  0.88987612692E+02  0.23047203346E+02  0.18814671438E+03  0.12509444326E+03 0.  0.
          5    1    3    3  502    0 -0.13334771474E+03  0.58666028692E+02  0.21045410954E+02  0.14725385452E+03  0.41800000000E+01 0.  1.
         -5    1    3    3    0  502  0.27043445761E+02  0.30321583999E+02  0.20017923927E+01  0.40892859861E+02  0.41800000000E+01 0.  1.
        -11    1    1    2    0    0  0.53359043249E+02 -0.71800153682E+02 -0.29232265745E+02  0.94111502622E+02  0.00000000000E+00 0. -1.
         11    1    1    2    0    0  0.52945225730E+02 -0.17187459010E+02  0.52135916598E+02  0.76267683027E+02  0.00000000000E+00 0.  1.
</event>
<event>
 7    1  0.2420569E-009  0.1877117E+03  0.7561462E-02  0.1160542E+00
         -2   -1    0    0    0  501 -0.00000000000E+00  0.00000000000E+00  0.12010673017E+03  0.12010673017E+03  0.00000000000E+00 0.  1.
          2   -1    0    0  501    0  0.00000000000E+00 -0.00000000000E+00 -0.35778335148E+03  0.35778335148E+03  0.00000000000E+00 0. -1.
         25    2    1    2    0    0 -0.14654791515E+03  0.87242151914E+02 -0.68213063227E+02  0.22223072662E+03  0.12508392923E+03 0.  0.
          5    1    3    3  502    0 -0.62250616581E+02 -0.16393046207E+02  0.13042682669E+02  0.65813791866E+02  0.41800000000E+01 0.  1.
         -5    1    3    3    0  502 -0.84297298571E+02  0.10363519812E+03 -0.81255745895E+02  0.15641693475E+03  0.41800000000E+01 0.  1.
        -11    1    1    2    0    0  0.19418189801E+02  0.51654855095E+01  0.51385654073E+01  0.20740134766E+02  0.00000000000E+00 0.  1.
         11    1    1    2    0    0  0.12712972535E+03 -0.92407637424E+02 -0.17460212349E+03  0.23491922026E+03  0.00000000000E+00 0. -1.
</event>
<event>
 7    1  0.2420569E-009  0.1236143E+03  0.7561462E-02  0.1237251E+00
         -1   -1    0    0    0  501 -0.00000000000E+00  0.00000000000E+00  0.46645884848E+02  0.46645884848E+02  0.00000000000E+00 0.  1.
          1   -1    0    0  501    0  0.00000000000E+00 -0.00000000000E+00 -0.44876122424E+03  0.44876122424E+03  0.00000000000E+00 0. -1.
         25    2    1    2    0    0  0.25100775076E+02  0.81244715595E+02 -0.29767182285E+03  0.33389687137E+03  0.12509138208E+03 0.  0.
          5    1    3    3  502    0 -0.50789433591E+02  0.38949793795E+02 -0.13334096608E+03  0.14796600501E+03  0.41800000000E+01 0.  1.
         -5    1    3    3    0  502  0.75890208667E+02  0.42294921800E+02 -0.16433085677E+03  0.18593086636E+03  0.41800000000E+01 0.  1.
        -11    1    1    2    0    0 -0.38041758651E+02 -0.55411936742E+02 -0.16876770235E+02  0.69299953163E+02  0.00000000000E+00 0.  1.
         11    1    1    2    0    0  0.12940983575E+02 -0.25832778852E+02 -0.87566746310E+02  0.92210284559E+02  0.00000000000E+00 0. -1.
</event>
<event>
 7    1  0.2420569E-009  0.7543958E+02  0.7561462E-02  0.1342515E+00
         -1   -1    0    0    0  501 -0.00000000000E+00  0.00000000000E+00  0.37505214190E+02  0.37505214190E+02  0.00000000000E+00 0.  1.
          1   -1    0    0  501    0  0.00000000000E+00 -0.00000000000E+00 -0.33692938397E+03  0.33692938397E+03  0.00000000000E+00 0. -1.
         25    2    1    2    0    0  0.43127129321E+01  0.29187531700E+02 -0.18022442695E+03  0.22135565199E+03  0.12508784553E+03 0.  0.
          5    1    3    3  502    0 -0.34337125649E+02  0.37698039813E+01  0.45829681518E+00  0.34798449044E+02  0.41800000000E+01 0.  1.
         -5    1    3    3    0  502  0.38649838581E+02  0.25417727719E+02 -0.18068272376E+03  0.18655720295E+03  0.41800000000E+01 0.  1.
        -11    1    1    2    0    0  0.28689641602E+02 -0.60206364108E+01 -0.22817263144E+01  0.29403228955E+02  0.00000000000E+00 0.  1.
         11    1    1    2    0    0 -0.33002354534E+02 -0.23166895289E+02 -0.11691801651E+03  0.12367571721E+03  0.00000000000E+00 0. -1.
</event>
<event>
 7    1  0.2420569E-009  0.1133384E+03  0.7561462E-02  0.1254510E+00
          2   -1    0    0  501    0  0.00000000000E+00  0.00000000000E+00  0.91195565806E+02  0.91195565806E+02  0.00000000000E+00 0. -1.
         -2   -1    0    0    0  501 -0.00000000000E+00 -0.00000000000E+00 -0.20099336393E+03  0.20099336393E+03  0.00000000000E+00 0.  1.
         25    2    1    2    0    0 -0.61776044241E+02  0.39973366977E+02 -0.23936130934E+02  0.14708780912E+03  0.12509090902E+03 0.  0.
          5    1    3    3  502    0 -0.75085605615E+02 -0.18947849119E+02  0.91459308956E+01  0.78089625487E+02  0.41800000000E+01 0. -1.
         -5    1    3    3    0  502  0.13309561373E+02  0.58921216096E+02 -0.33082061829E+02  0.68998183636E+02  0.41800000000E+01 0. -1.
        -11    1    1    2    0    0  0.22777504685E+02 -0.43820328696E+02 -0.92970541711E+02  0.10527372679E+03  0.00000000000E+00 0.  1.
         11    1    1    2    0    0  0.38998539556E+02  0.38469617184E+01  0.71088745175E+01  0.39827393825E+02  0.00000000000E+00 0. -1.
</event>
<event>
 7    1  0.2420569E-009  0.1177773E+03  0.7561462E-02  0.1246810E+00
         -2   -1    0    0    0  501 -0.00000000000E+00  0.00000000000E+00  0.33854493222E+02  0.33854493222E+02  0.00000000000E+00 0.  1.
          2   -1    0    0  501    0  0.00000000000E+00 -0.00000000000E+00 -0.56097622374E+03  0.56097622374E+03  0.00000000000E+00 0. -1.
         25    2    1    2    0    0 -0.59631758664E+02  0.33679340173E+02 -0.18429990925E+03  0.23303229277E+03  0.12508936137E+03 0.  0.
          5    1    3    3  502    0 -0.76576748830E+01  0.69656315291E+02 -0.13711681497E+03  0.15404264212E+03  0.41800000000E+01 0. -1.
         -5    1    3    3    0  502 -0.51974083781E+02 -0.35976975118E+02 -0.47183094276E+02  0.78989650645E+02  0.41800000000E+01 0. -1.
        -11    1    1    2    0    0  0.24525897453E+02  0.24107429950E+02 -0.46354657340E+02  0.57718645876E+02  0.00000000000E+00 0.  1.
         11    1    1    2    0    0  0.35105861211E+02 -0.57786770122E+02 -0.29646716394E+03  0.30407977832E+03  0.00000000000E+00 0. -1.
</event>
<event>
 7    1  0.2420569E-009  0.1150744E+03  0.7561462E-02  0.1251451E+00
         -2   -1    0    0    0  501 -0.00000000000E+00  0.00000000000E+00  0.67034716714E+02  0.67034716714E+02  0.00000000000E+00 0.  1.
          2   -1    0    0  501    0  0.00000000000E+00 -0.00000000000E+00 -0.27566365127E+03  0.27566365127E+03  0.00000000000E+00 0. -1.
         25    2    1    2    0    0  0.73059612343E+02  0.19500130038E+01 -0.16076639366E+03  0.21641171783E+03  0.12508672503E+03 0.  0.
          5    1    3    3  502    0  0.83953549201E+02  0.44526301873E+02 -0.13547271745E+03  0.16553283528E+03  0.41800000000E+01 0.  1.
         -5    1    3    3    0  502 -0.10893936858E+02 -0.42576288869E+02 -0.25293676211E+02  0.50878882558E+02  0.41800000000E+01 0.  1.
        -11    1    1    2    0    0 -0.22534446485E+02  0.24966806760E+02 -0.59049794073E+02  0.67956021795E+02  0.00000000000E+00 0. -1.
         11    1    1    2    0    0 -0.50525165858E+02 -0.26916819764E+02  0.11187253171E+02  0.58330628359E+02  0.00000000000E+00 0.  1.
</event>
<event>
 7    1  0.2420569E-009  0.1196453E+03  0.7561462E-02  0.1243683E+00
          1   -1    0    0  501    0  0.00000000000E+00  0.00000000000E+00  0.62051592997E+03  0.62051592997E+03  0.00000000000E+00 0. -1.
         -1   -1    0    0    0  501 -0.00000000000E+00 -0.00000000000E+00 -0.25820960319E+02  0.25820960319E+02  0.00000000000E+00 0.  1.
         25    2    1    2    0    0 -0.65227311498E+02 -0.25039338686E+01  0.33843650539E+03  0.36666557933E+03  0.12507400622E+03 0.  0.
          5    1    3    3  502    0 -0.49381160831E+02  0.56256009323E+02  0.23401569662E+03  0.24573167540E+03  0.41800000000E+01 0.  1.
         -5    1    3    3    0  502 -0.15846150667E+02 -0.58759943192E+02  0.10442080877E+03  0.12093390392E+03  0.41800000000E+01 0.  1.
        -11    1    1    2    0    0  0.11264480308E+02 -0.35545943475E+02  0.45585772553E+02  0.58893677703E+02  0.00000000000E+00 0.  1.
         11    1    1    2    0    0  0.53962831190E+02  0.38049877344E+02  0.21067269170E+03  0.22077763325E+03  0.00000000000E+00 0. -1.
</event>
<event>
 7    1  0.2420569E-009  0.1217989E+03  0.7561462E-02  0.1240159E+00
          2   -1    0    0  501    0  0.00000000000E+00  0.00000000000E+00  0.32126532981E+03  0.32126532981E+03  0.00000000000E+00 0. -1.
         -2   -1    0    0    0  501 -0.00000000000E+00 -0.00000000000E+00 -0.88949963781E+02  0.88949963781E+02  0.00000000000E+00 0.  1.
         25    2    1    2    0    0  0.54325330121E+02 -0.87573844746E+02  0.28224329077E+02  0.16451291299E+03  0.12508983177E+03 0.  0.
          5    1    3    3  502    0 -0.19405861305E+02 -0.46190149118E+02 -0.32912655539E+02  0.60090204053E+02  0.41800000000E+01 0. -1.
         -5    1    3    3    0  502  0.73731191427E+02 -0.41383695628E+02  0.61136984616E+02  0.10442270893E+03  0.41800000000E+01 0. -1.
        -11    1    1    2    0    0 -0.45575268690E+02  0.41076228513E+02  0.36124665909E+02  0.71199390110E+02  0.00000000000E+00 0.  1.
         11    1    1    2    0    0 -0.87500614311E+01  0.46497616233E+02  0.16796637105E+03  0.17450299050E+03  0.00000000000E+00 0. -1.
</event>
<event>
 7    1  0.2420569E-009  0.1191626E+03  0.7561462E-02  0.1244485E+00
          2   -1    0    0  501    0  0.00000000000E+00  0.00000000000E+00  0.17462353786E+03  0.17462353786E+03  0.00000000000E+00 0. -1.
         -2   -1    0    0    0  501 -0.00000000000E+00 -0.00000000000E+00 -0.96031414844E+02  0.96031414844E+02  0.00000000000E+00 0.  1.
         25    2    1    2    0    0 -0.47718927860E+02  0.25712397402E+02 -0.48618078954E+01  0.13641998548E+03  0.12509417176E+03 0.  0.
          5    1    3    3  502    0 -0.88802491940E+02  0.54031223196E+01  0.55489671576E+01  0.89237546706E+02  0.41800000000E+01 0.  1.
         -5    1    3    3    0  502  0.41083564080E+02  0.20309275082E+02 -0.10410775053E+02  0.47182438778E+02  0.41800000000E+01 0.  1.
        -11    1    1    2    0    0  0.40480483351E+02  0.27885990618E+02  0.27119979617E+02  0.56140816698E+02  0.00000000000E+00 0. -1.
         11    1    1    2    0    0  0.72384445086E+01 -0.53598388020E+02  0.56333951297E+02  0.78094150523E+02  0.00000000000E+00 0.  1.
</event>
<event>
 7    1  0.2420569E-009  0.1493086E+03  0.7561462E-02  0.1201325E+00
          2   -1    0    0  501    0  0.00000000000E+00  0.00000000000E+00  0.13953049999E+04  0.13953049999E+04  0.00000000000E+00 0. -1.
         -2   -1    0    0    0  501 -0.00000000000E+00 -0.00000000000E+00 -0.23320400348E+02  0.23320400348E+02  0.00000000000E+00 0.  1.
         25    2    1    2    0    0  0.12138381649E+03  0.29305591696E+02  0.99748500441E+03  0.10130228734E+04  0.12508460903E+03 0.  0.
          5    1    3    3  502    0  0.47406163253E+01  0.53717939523E+02  0.41052449894E+03  0.41407236940E+03  0.41800000000E+01 0.  1.
         -5    1    3    3    0  502  0.11664320017E+03 -0.24412347827E+02  0.58696050548E+03  0.59895050402E+03  0.41800000000E+01 0.  1.
        -11    1    1    2    0    0 -0.44120368467E+02 -0.15713386876E+02  0.38683438826E+02  0.60744760104E+02  0.00000000000E+00 0.  1.
         11    1    1    2    0    0 -0.77263448027E+02 -0.13592204820E+02  0.33581615627E+03  0.34485776669E+03  0.00000000000E+00 0. -1.
</event>
<event>
 7    1  0.2420569E-009  0.3178828E+03  0.7561462E-02  0.1076628E+00
          1   -1    0    0  501    0  0.00000000000E+00  0.00000000000E+00  0.21516352068E+03  0.21516352068E+03  0.00000000000E+00 0. -1.
         -1   -1    0    0    0  501 -0.00000000000E+00 -0.00000000000E+00 -0.51109916064E+03  0.51109916064E+03  0.00000000000E+00 0.  1.
         25    2    1    2    0    0  0.25058769743E+03  0.17942798622E+03 -0.89792481778E+02  0.34452331032E+03  0.12508007526E+03 0.  0.
          5    1    3    3  502    0  0.21537501141E+03  0.18922974321E+03 -0.51303336446E+02  0.29127958388E+03  0.41800000000E+01 0.  1.
         -5    1    3    3    0  502  0.35212686018E+02 -0.98017569864E+01 -0.38489145332E+02  0.53243726438E+02  0.41800000000E+01 0.  1.
        -11    1    1    2    0    0 -0.60102854049E+02 -0.18498617622E+02 -0.81552050088E+02  0.10298198285E+03  0.00000000000E+00 0.  1.
         11    1    1    2    0    0 -0.19048484338E+03 -0.16092936860E+03 -0.12459110809E+03  0.27875738816E+03  0.00000000000E+00 0. -1.
</event>
<event>
 7    1  0.2420569E-009  0.3705093E+03  0.7561462E-02  0.1054498E+00
         -1   -1    0    0    0  501 -0.00000000000E+00  0.00000000000E+00  0.92758268407E+03  0.92758268407E+03  0.00000000000E+00 0.  1.
          1   -1    0    0  501    0  0.00000000000E+00 -0.00000000000E+00 -0.19918647995E+03  0.19918647995E+03  0.00000000000E+00 0. -1.
         25    2    1    2    0    0  0.16895641143E+03  0.31658398431E+03  0.92126650840E+02  0.39103373799E+03  0.12509347052E+03 0.  0.
          5    1    3    3  502    0  0.74147647871E+02  0.49511046001E+02  0.55848069856E+02  0.10528863503E+03  0.41800000000E+01 0.  1.
         -5    1    3    3    0  502  0.94808763555E+02  0.26707293831E+03  0.36278580984E+02  0.28574510295E+03  0.41800000000E+01 0.  1.
        -11    1    1    2    0    0 -0.64111809852E+02 -0.48248568529E+02  0.16296218428E+03  0.18164504407E+03  0.00000000000E+00 0. -1.
         11    1    1    2    0    0 -0.10484460157E+03 -0.26833541578E+03  0.47330736900E+03  0.55409038197E+03  0.00000000000E+00 0.  1.
</event>
<event>
 7    1  0.2420569E-009  0.2400379E+03  0.7561462E-02  0.1119768E+00
          1   -1    0    0  501    0  0.00000000000E+00  0.00000000000E+00  0.21740199741E+03  0.21740199741E+03  0.00000000000E+00 0. -1.
         -1   -1    0    0    0  501 -0.00000000000E+00 -0.00000000000E+00 -0.29825042838E+03  0.29825042838E+03  0.00000000000E+00 0.  1.
         25    2    1    2    0    0 -0.17885367198E+03 -0.12159791944E+03 -0.11570768965E+03  0.27533679867E+03  0.12508954098E+03 0.  0.
          5    1    3    3  502    0 -0.19786571837E+03 -0.10507761614E+03 -0.10742951374E+03  0.24849692301E+03  0.41800000000E+01 0. -1.
         -5    1    3    3    0  502  0.19012046390E+02 -0.16520303298E+02 -0.82781759074E+01  0.26839875658E+02  0.41800000000E+01 0. -1.
        -11    1    1    2    0    0  0.14919567316E+03  0.13183172142E+03  0.50295409252E+02  0.20534989617E+03  0.00000000000E+00 0. -1.
         11    1    1    2    0    0  0.29657998819E+02 -0.10233801980E+02 -0.15436150576E+02  0.34965730959E+02  0.00000000000E+00 0.  1.
</event>
<event>
 7    1  0.2420569E-009  0.1083130E+03  0.7561462E-02  0.1263726E+00
         -2   -1    0    0    0  501 -0.00000000000E+00  0.00000000000E+00  0.23944234465E+03  0.23944234465E+03  0.00000000000E+00 0.  1.
          2   -1    0    0  501    0  0.00000000000E+00 -0.00000000000E+00 -0.69532404811E+02  0.69532404811E+02  0.00000000000E+00 0. -1.
         25    2    1    2    0    0 -0.44062859044E+01 -0.58326342173E+02  0.14028058450E+03  0.19683912951E+03  0.12508246468E+03 0.  0.
          5    1    3    3  502    0  0.31196011624E+02 -0.65920850563E+02  0.27165461695E+02  0.77937054021E+02  0.41800000000E+01 0. -1.
         -5    1    3    3    0  502 -0.35602297529E+02  0.75945083906E+01  0.11311512281E+03  0.11890207549E+03  0.41800000000E+01 0. -1.
        -11    1    1    2    0    0 -0.46272869522E+01 -0.23833747102E+02 -0.15077058980E+00  0.24279250755E+02  0.00000000000E+00 0. -1.
         11    1    1    2    0    0  0.90335728566E+01  0.82160089275E+02  0.29780125921E+02  0.87856369195E+02  0.00000000000E+00 0.  1.
</event>
<event>
 7    1  0.2420569E-009  0.1445747E+03  0.7561462E-02  0.1207303E+00
          1   -1    0    0  501    0  0.00000000000E+00  0.00000000000E+00  0.23111259853E+04  0.23111259853E+04  0.00000000000E+00 0. -1.
         -1   -1    0    0    0  501 -0.00000000000E+00 -0.00000000000E+00 -0.12847944368E+02  0.12847944368E+02  0.00000000000E+00 0.  1.
         25    2    1    2    0    0  0.43877098876E+02  0.10631131713E+03  0.17375367607E+04  0.17458262791E+04  0.12509238989E+03 0.  0.
          5    1    3    3  502    0  0.82300368679E+02  0.67207549952E+02  0.85653825584E+03  0.86311381728E+03  0.41800000000E+01 0. -1.
         -5    1    3    3    0  502 -0.38423269803E+02  0.39103767174E+02  0.88099850482E+03  0.88271246177E+03  0.41800000000E+01 0. -1.
        -11    1    1    2    0    0 -0.56677674168E+02 -0.75025535462E+02  0.49877952902E+03  0.50756497938E+03  0.00000000000E+00 0. -1.
         11    1    1    2    0    0  0.12800575292E+02 -0.31285781664E+02  0.61961751271E+02  0.70582671264E+02  0.00000000000E+00 0.  1.
</event>
<event>
 7    1  0.2420569E-009  0.1196198E+03  0.7561462E-02  0.1243726E+00
         -3   -1    0    0    0  501 -0.00000000000E+00  0.00000000000E+00  0.82111571176E+02  0.82111571176E+02  0.00000000000E+00 0.  1.
          3   -1    0    0  501    0  0.00000000000E+00 -0.00000000000E+00 -0.38758255119E+03  0.38758255119E+03  0.00000000000E+00 0. -1.
         25    2    1    2    0    0 -0.92932744323E+02 -0.77650706903E+01 -0.21529630616E+02  0.15750420606E+03  0.12508900289E+03 0.  0.
          5    1    3    3  502    0 -0.67098859802E+01 -0.33683924712E+02  0.36511912862E+02  0.50301307485E+02  0.41800000000E+01 0. -1.
         -5    1    3    3    0  502 -0.86222858343E+02  0.25918854021E+02 -0.58041543477E+02  0.10720289858E+03  0.41800000000E+01 0. -1.
        -11    1    1    2    0    0  0.46415293620E+02 -0.29421800581E+02 -0.21092323605E+03  0.21796475251E+03  0.00000000000E+00 0. -1.
         11    1    1    2    0    0  0.46517450703E+02  0.37186871271E+02 -0.73018113355E+02  0.94225163798E+02  0.00000000000E+00 0.  1.
</event>
<event>
 7    1  0.2420569E-009  0.1323551E+03  0.7561462E-02  0.1224002E+00
         -1   -1    0    0    0  501 -0.00000000000E+00  0.00000000000E+00  0.35550058533E+02  0.35550058533E+02  0.00000000000E+00 0.  1.
          1   -1    0    0  501    0  0.00000000000E+00 -0.00000000000E+00 -0.66319514564E+03  0.66319514564E+03  0.00000000000E+00 0. -1.
         25    2    1    2    0    0  0.96400500750E+02  0.35077365362E+02 -0.26421408458E+03  0.30980676183E+03  0.12509064346E+03 0.  0.
          5    1    3    3  502    0  0.10607744878E+03  0.42281075831E+02 -0.27187801843E+03  0.29491565543E+03  0.41800000000E+01 0. -1.
         -5    1    3    3    0  502 -0.96769480280E+01 -0.72037104694E+01  0.76639338546E+01  0.14891106399E+02  0.41800000000E+01 0. -1.
        -11    1    1    2    0    0 -0.10260556944E+03 -0.56503131064E+00 -0.28863883711E+03  0.30633413200E+03  0.00000000000E+00 0. -1.
         11    1    1    2    0    0  0.62050686855E+01 -0.34512334051E+02 -0.74792165422E+02  0.82604310345E+02  0.00000000000E+00 0.  1.
</event>
<event>
 7    1  0.2612964E-009  0.3024327E+03  0.7561462E-02  0.1084031E+00
          1   -1    0    0  501    0  0.00000000000E+00  0.00000000000E+00  0.58946243318E+03  0.58946243318E+03  0.00000000000E+00 0. -1.
         -1   -1    0    0    0  501 -0.00000000000E+00 -0.00000000000E+00 -0.18112408469E+03  0.18112408469E+03  0.00000000000E+00 0.  1.
         25    2    1    2    0    0  0.19440695669E+03  0.22535930561E+03  0.11445507995E+03  0.34253336699E+03  0.12509300836E+03 0.  0.
          5    1    3    3  502    0  0.10188547617E+03  0.10527152488E+03  0.12199753449E+03  0.19069246190E+03  0.41800000000E+01 0.  1.
         -5    1    3    3    0  502  0.92521480523E+02  0.12008778074E+03 -0.75424545306E+01  0.15184090510E+03  0.41800000000E+01 0.  1.
        -11    1    1    2    0    0 -0.65676382390E+02 -0.28857355254E+02  0.39893863088E+02  0.82083216727E+02  0.00000000000E+00 0. -1.
         11    1    1    2    0    0 -0.12873057430E+03 -0.19650195036E+03  0.25398940545E+03  0.34596993415E+03  0.00000000000E+00 0.  1.
</event>
<event>
 7    1  0.2433121E-009  0.1056026E+03  0.7561462E-02  0.1268937E+00
          2   -1    0    0  501    0  0.00000000000E+00  0.00000000000E+00  0.56819843142E+03  0.56819843142E+03  0.00000000000E+00 0. -1.
         -2   -1    0    0    0  501 -0.00000000000E+00 -0.00000000000E+00 -0.21701462917E+02  0.21701462917E+02  0.00000000000E+00 0.  1.
         25    2    1    2    0    0 -0.83076453150E+01  0.16951128530E+02  0.26656920426E+03  0.29506538800E+03  0.12509230515E+03 0.  0.
          5    1    3    3  502    0 -0.62797035299E+02  0.11134947316E+02  0.91792789882E+02  0.11185188138E+03  0.41800000000E+01 0. -1.
         -5    1    3    3    0  502  0.54489389984E+02  0.58161812140E+01  0.17477641438E+03  0.18321350662E+03  0.41800000000E+01 0. -1.
        -11    1    1    2    0    0  0.42803533986E+02  0.14958772147E+02  0.12711660057E+03  0.13496124453E+03  0.00000000000E+00 0. -1.
         11    1    1    2    0    0 -0.34495888671E+02 -0.31909900677E+02  0.15281116368E+03  0.15987326181E+03  0.00000000000E+00 0.  1.
</event>
<event>
 7    1  0.2420569E-009  0.1361092E+03  0.7561462E-02  0.1218662E+00
          1   -1    0    0  501    0  0.00000000000E+00  0.00000000000E+00  0.16941161707E+03  0.16941161707E+03  0.00000000000E+00 0. -1.
         -1   -1    0    0    0  501 -0.00000000000E+00 -0.00000000000E+00 -0.15511063817E+03  0.15511063817E+03  0.00000000000E+00 0.  1.
         25    2    1    2    0    0 -0.97186202134E+02 -0.70043458694E+01 -0.62936329054E+02  0.17059506333E+03  0.12508986917E+03 0.  0.
          5    1    3    3  502    0  0.73362591378E+01  0.27803412980E+02  0.17685228139E+02  0.34016028072E+02  0.41800000000E+01 0.  1.
         -5    1    3    3    0  502 -0.10452246127E+03 -0.34807758849E+02 -0.80621557194E+02  0.13657903525E+03  0.41800000000E+01 0.  1.
        -11    1    1    2    0    0  0.10402320174E+03 -0.19247142841E+02  0.57743148258E+02  0.12052199044E+03  0.00000000000E+00 0.  1.
         11    1    1    2    0    0 -0.68369996071E+01  0.26251488711E+02  0.19494159702E+02  0.33405201476E+02  0.00000000000E+00 0. -1.
</event>
<event>
 7    1  0.2420569E-009  0.1947461E+03  0.7561462E-02  0.1154249E+00
          1   -1    0    0  501    0  0.00000000000E+00  0.00000000000E+00  0.11278293975E+04  0.11278293975E+04  0.00000000000E+00 0. -1.
         -1   -1    0    0    0  501 -0.00000000000E+00 -0.00000000000E+00 -0.39127626066E+02  0.39127626066E+02  0.00000000000E+00 0.  1.
         25    2    1    2    0    0  0.38822172461E+02 -0.15698783992E+03  0.35227555711E+03  0.40730553067E+03  0.12508950481E+03 0.  0.
          5    1    3    3  502    0  0.32829017951E+02  0.11189017638E+02  0.78429540609E+02  0.85858044326E+02  0.41800000000E+01 0. -1.
         -5    1    3    3    0  502  0.59931545108E+01 -0.16817685756E+03  0.27384601650E+03  0.32144748634E+03  0.41800000000E+01 0. -1.
        -11    1    1    2    0    0 -0.38664224920E+02  0.10950821141E+02  0.14548256986E+03  0.15093051681E+03  0.00000000000E+00 0.  1.
         11    1    1    2    0    0 -0.15794754157E+00  0.14603701878E+03  0.59094364450E+03  0.60872097613E+03  0.00000000000E+00 0. -1.
</event>
<event>
 7    1  0.2420569E-009  0.8495199E+02  0.7561462E-02  0.1315558E+00
          2   -1    0    0  501    0  0.00000000000E+00  0.00000000000E+00  0.57656089476E+02  0.57656089476E+02  0.00000000000E+00 0.  1.
         -2   -1    0    0    0  501 -0.00000000000E+00 -0.00000000000E+00 -0.22632285328E+03  0.22632285328E+03  0.00000000000E+00 0. -1.
         25    2    1    2    0    0 -0.27115014089E+02 -0.75238249600E+01 -0.12742634035E+03  0.18076723684E+03  0.12508992673E+03 0.  0.
          5    1    3    3  502    0 -0.18703886557E+02  0.31277639281E+02 -0.13520637965E+03  0.14009412404E+03  0.41800000000E+01 0. -1.
         -5    1    3    3    0  502 -0.84111275318E+01 -0.38801464241E+02  0.77800393010E+01  0.40673112803E+02  0.41800000000E+01 0. -1.
        -11    1    1    2    0    0  0.19784739745E+02 -0.40311949343E+02 -0.11302559221E+02  0.46305907092E+02  0.00000000000E+00 0. -1.
         11    1    1    2    0    0  0.73302743438E+01  0.47835774303E+02 -0.29937864235E+02  0.56905798826E+02  0.00000000000E+00 0.  1.
</event>
<event>
 7    1  0.2420569E-009  0.2196892E+03  0.7561462E-02  0.1134115E+00
         -1   -1    0    0    0  501 -0.00000000000E+00  0.00000000000E+00  0.94362826877E+03  0.94362826877E+03  0.00000000000E+00 0.  1.
          1   -1    0    0  501    0  0.00000000000E+00 -0.00000000000E+00 -0.79414725212E+02  0.79414725212E+02  0.00000000000E+00 0. -1.
         25    2    1    2    0    0  0.10547595082E+03  0.17839657475E+03  0.70742621005E+03  0.74769625357E+03  0.12508929153E+03 0.  0.
          5    1    3    3  502    0  0.66768189305E+02  0.31394351831E+02  0.12020417685E+03  0.14110319969E+03  0.41800000000E+01 0.  1.
         -5    1    3    3    0  502  0.38707761516E+02  0.14700222292E+03  0.58722203320E+03  0.60659305388E+03  0.41800000000E+01 0.  1.
        -11    1    1    2    0    0 -0.18865945029E+01 -0.42455863206E+02  0.74244223230E+02  0.85546854077E+02  0.00000000000E+00 0.  1.
         11    1    1    2    0    0 -0.10358935632E+03 -0.13594071154E+03  0.82543110278E+02  0.18979988633E+03  0.00000000000E+00 0. -1.
</event>
<event>
 7    1  0.2420569E-009  0.1142119E+03  0.7561462E-02  0.1252963E+00
         -2   -1    0    0    0  501 -0.00000000000E+00  0.00000000000E+00  0.15721771187E+03  0.15721771187E+03  0.00000000000E+00 0.  1.
          2   -1    0    0  501    0  0.00000000000E+00 -0.00000000000E+00 -0.12573955714E+03  0.12573955714E+03  0.00000000000E+00 0. -1.
         25    2    1    2    0    0  0.66268892594E+02 -0.55773304624E+02  0.41013387888E+02  0.15758048609E+03  0.12508910414E+03 0.  0.
          5    1    3    3  502    0  0.53656019697E+02 -0.81643221198E+01 -0.36578224757E+02  0.65582494095E+02  0.41800000000E+01 0. -1.
         -5    1    3    3    0  502  0.12612872897E+02 -0.47608982504E+02  0.77591612645E+02  0.91997991993E+02  0.41800000000E+01 0. -1.
        -11    1    1    2    0    0  0.95146005731E+01  0.47366511286E+02  0.14888764332E+01  0.48335605598E+02  0.00000000000E+00 0.  1.
         11    1    1    2    0    0 -0.75783493167E+02  0.84067933373E+01 -0.11024109596E+02  0.77041177322E+02  0.00000000000E+00 0. -1.
</event>
<event>
 7    1  0.2420569E-009  0.1168181E+03  0.7561462E-02  0.1248440E+00
         -1   -1    0    0    0  501 -0.00000000000E+00  0.00000000000E+00  0.21552626694E+03  0.21552626694E+03  0.00000000000E+00 0.  1.
          1   -1    0    0  501    0  0.00000000000E+00 -0.00000000000E+00 -0.15713949851E+03  0.15713949851E+03  0.00000000000E+00 0. -1.
         25    2    1    2    0    0 -0.65696837763E+02 -0.36675042266E+02 -0.97484299505E+02  0.17554005482E+03  0.12509991598E+03 0.  0.
          5    1    3    3  502    0  0.19100407274E+02 -0.54868626679E+02 -0.48840302322E+02  0.76014730695E+02  0.41800000000E+01 0.  1.
         -5    1    3    3    0  502 -0.84797245037E+02  0.18193584413E+02 -0.48643997183E+02  0.99525324122E+02  0.41800000000E+01 0.  1.
        -11    1    1    2    0    0  0.23897177584E+02 -0.99991587680E+01 -0.32552530212E+01  0.26108522455E+02  0.00000000000E+00 0. -1.
         11    1    1    2    0    0  0.41799660179E+02  0.46674201034E+02  0.15912632095E+03  0.17101718818E+03  0.00000000000E+00 0.  1.
</event>
<event>
 7    1  0.2420569E-009  0.1196316E+03  0.7561462E-02  0.1243706E+00
         -3   -1    0    0    0  501 -0.00000000000E+00  0.00000000000E+00  0.72950598642E+03  0.72950598642E+03  0.00000000000E+00 0.  1.
          3   -1    0    0  501    0  0.00000000000E+00 -0.00000000000E+00 -0.39438079413E+02  0.39438079413E+02  0.00000000000E+00 0. -1.
         25    2    1    2    0    0  0.75806399277E+02 -0.56657368243E+02  0.16402902462E+03  0.22696205416E+03  0.12509830361E+03 0.  0.
          5    1    3    3  502    0  0.41874506398E+02  0.18404177702E+01 -0.72737201159E+01  0.42746237589E+02  0.41800000000E+01 0. -1.
         -5    1    3    3    0  502  0.33931892879E+02 -0.58497786013E+02  0.17130274473E+03  0.18421581657E+03  0.41800000000E+01 0. -1.
        -11    1    1    2    0    0 -0.32230597806E+02 -0.22305292354E+02  0.19350568049E+03  0.19743552336E+03  0.00000000000E+00 0. -1.
         11    1    1    2    0    0 -0.43575801471E+02  0.78962660597E+02  0.33253320190E+03  0.34454648831E+03  0.00000000000E+00 0.  1.
</event>
<event>
 7    1  0.2420569E-009  0.1627372E+03  0.7561462E-02  0.1185641E+00
         -1   -1    0    0    0  501 -0.00000000000E+00  0.00000000000E+00  0.48666536831E+03  0.48666536831E+03  0.00000000000E+00 0.  1.
          1   -1    0    0  501    0  0.00000000000E+00 -0.00000000000E+00 -0.66338748282E+02  0.66338748282E+02  0.00000000000E+00 0. -1.
         25    2    1    2    0    0 -0.12333750187E+03 -0.65749919803E+02  0.17653958160E+03  0.25757956131E+03  0.12508323315E+03 0.  0.
          5    1    3    3  502    0 -0.29241769988E+02 -0.74521766178E+02  0.35305798168E+02  0.87593073531E+02  0.41800000000E+01 0. -1.
         -5    1    3    3    0  502 -0.94095731878E+02  0.87718463751E+01  0.14123378343E+03  0.16998648778E+03  0.41800000000E+01 0. -1.
        -11    1    1    2    0    0  0.61102797839E+02  0.63959144881E+02  0.76569721414E+02  0.11699250555E+03  0.00000000000E+00 0. -1.
         11    1    1    2    0    0  0.62234704027E+02  0.17907749222E+01  0.16721731701E+03  0.17843204973E+03  0.00000000000E+00 0.  1.
</event>
<event>
 7    1  0.2420569E-009  0.1424701E+03  0.7561462E-02  0.1210043E+00
          2   -1    0    0  501    0  0.00000000000E+00  0.00000000000E+00  0.12363165636E+03  0.12363165636E+03  0.00000000000E+00 0. -1.
         -2   -1    0    0    0  501 -0.00000000000E+00 -0.00000000000E+00 -0.33696822976E+03  0.33696822976E+03  0.00000000000E+00 0.  1.
         25    2    1    2    0    0 -0.10785251958E+03  0.63001074039E+02  0.23254399832E+02  0.17829461323E+03  0.12508757206E+03 0.  0.
          5    1    3    3  502    0 -0.29176641594E+02  0.39087410987E+02  0.68616187703E+02  0.84289713057E+02  0.41800000000E+01 0. -1.
         -5    1    3    3    0  502 -0.78675877982E+02  0.23913663052E+02 -0.45361787871E+02  0.94004900168E+02  0.41800000000E+01 0. -1.
        -11    1    1    2    0    0  0.12156323765E+03 -0.42089031457E+02 -0.19050402531E+03  0.22987146621E+03  0.00000000000E+00 0.  1.
         11    1    1    2    0    0 -0.13710718075E+02 -0.20912042582E+02 -0.46086947918E+02  0.52433806685E+02  0.00000000000E+00 0. -1.
</event>
<event>
 7    1  0.2420569E-009  0.1176081E+03  0.7561462E-02  0.1247096E+00
         -2   -1    0    0    0  501 -0.00000000000E+00  0.00000000000E+00  0.46224580061E+02  0.46224580061E+02  0.00000000000E+00 0.  1.
          2   -1    0    0  501    0  0.00000000000E+00 -0.00000000000E+00 -0.37714625048E+03  0.37714625048E+03  0.00000000000E+00 0. -1.
         25    2    1    2    0    0  0.32577842175E+02 -0.36710829405E+02 -0.25867931274E+03  0.29149777437E+03  0.12508782844E+03 0.  0.
          5    1    3    3  502    0  0.17531747917E+02  0.44705227102E+02 -0.65875842426E+02  0.81627314856E+02  0.41800000000E+01 0. -1.
         -5    1    3    3    0  502  0.15046094257E+02 -0.81416056507E+02 -0.19280347032E+03  0.20987045951E+03  0.41800000000E+01 0. -1.
        -11    1    1    2    0    0  0.16336808717E+02  0.50676852019E+02 -0.58660464045E+02  0.79221743806E+02  0.00000000000E+00 0.  1.
         11    1    1    2    0    0 -0.48914650891E+02 -0.13966022614E+02 -0.13581893631E+02  0.52651312368E+02  0.00000000000E+00 0. -1.
</event>
<event>
 7    1  0.2420569E-009  0.1394254E+03  0.7561462E-02  0.1214104E+00
         -1   -1    0    0    0  501 -0.00000000000E+00  0.00000000000E+00  0.69300222790E+02  0.69300222790E+02  0.00000000000E+00 0. -1.
          1   -1    0    0  501    0  0.00000000000E+00 -0.00000000000E+00 -0.39071097958E+03  0.39071097958E+03  0.00000000000E+00 0.  1.
         25    2    1    2    0    0 -0.10092599410E+03  0.53326708299E+02 -0.19741374843E+03  0.26009644545E+03  0.12509268069E+03 0.  0.
          5    1    3    3  502    0  0.38243272871E+01  0.74608801480E+01 -0.12353847473E+03  0.12389316910E+03  0.41800000000E+01 0. -1.
         -5    1    3    3    0  502 -0.10475032139E+03  0.45865828151E+02 -0.73875273703E+02  0.13620327635E+03  0.41800000000E+01 0. -1.
        -11    1    1    2    0    0  0.82249453867E+02  0.15536178037E+02 -0.81713232944E+02  0.11697605707E+03  0.00000000000E+00 0.  1.
         11    1    1    2    0    0  0.18676540237E+02 -0.68862886336E+02 -0.42283775415E+02  0.82938699852E+02  0.00000000000E+00 0. -1.
</event>
<event>
 7    1  0.2420569E-009  0.3840846E+03  0.7561462E-02  0.1049434E+00
          1   -1    0    0  501    0  0.00000000000E+00  0.00000000000E+00  0.10909808727E+04  0.10909808727E+04  0.00000000000E+00 0.  1.
         -1   -1    0    0    0  501 -0.00000000000E+00 -0.00000000000E+00 -0.17900323241E+03  0.17900323241E+03  0.00000000000E+00 0. -1.
         25    2    1    2    0    0 -0.33779460214E+03 -0.17632919770E+03  0.17897792635E+03  0.43917774584E+03  0.12508723006E+03 0.  0.
          5    1    3    3  502    0 -0.16281603596E+03 -0.53706231587E+02  0.19660535264E+02  0.17261932083E+03  0.41800000000E+01 0. -1.
         -5    1    3    3    0  502 -0.17497856618E+03 -0.12262296612E+03  0.15931739109E+03  0.26655842501E+03  0.41800000000E+01 0. -1.
        -11    1    1    2    0    0  0.23643568972E+03  0.10319065369E+03  0.40931906071E+03  0.48383079671E+03  0.00000000000E+00 0. -1.
         11    1    1    2    0    0  0.10135891242E+03  0.73138544015E+02  0.32368065324E+03  0.34697556258E+03  0.00000000000E+00 0.  1.
</event>
<event>
 7    1  0.2420569E-009  0.5479901E+02  0.7561462E-02  0.1421052E+00
         -2   -1    0    0    0  501 -0.00000000000E+00  0.00000000000E+00  0.52966043990E+02  0.52966043990E+02  0.00000000000E+00 0.  1.
          2   -1    0    0  501    0  0.00000000000E+00 -0.00000000000E+00 -0.39925341022E+03  0.39925341022E+03  0.00000000000E+00 0. -1.
         25    2    1    2    0    0  0.23774859243E+02 -0.39429716694E+02 -0.32110252150E+03  0.34766960113E+03  0.12508947097E+03 0.  0.
          5    1    3    3  502    0  0.12137353327E+01 -0.79916960371E+01  0.10440553622E+02  0.13849834618E+02  0.41800000000E+01 0. -1.
         -5    1    3    3    0  502  0.22561123911E+02 -0.31438020657E+02 -0.33154307512E+03  0.33381976651E+03  0.41800000000E+01 0. -1.
        -11    1    1    2    0    0 -0.17977923438E+02 -0.34511452294E+01  0.29559753296E+02  0.34769169525E+02  0.00000000000E+00 0.  1.
         11    1    1    2    0    0 -0.57969358050E+01  0.42880861924E+02 -0.54744598029E+02  0.69780683555E+02  0.00000000000E+00 0. -1.
</event>
<event>
 7    1  0.2420569E-009  0.3273200E+03  0.7561462E-02  0.1072329E+00
         -2   -1    0    0    0  501 -0.00000000000E+00  0.00000000000E+00  0.64894804620E+02  0.64894804620E+02  0.00000000000E+00 0.  1.
          2   -1    0    0  501    0  0.00000000000E+00 -0.00000000000E+00 -0.18001971762E+04  0.18001971762E+04  0.00000000000E+00 0. -1.
         25    2    1    2    0    0  0.31808667170E+03  0.54459517072E+02 -0.79504470916E+03  0.86711414829E+03  0.12508351965E+03 0.  0.
          5    1    3    3  502    0  0.10059783981E+03 -0.16513376352E+02 -0.37680987256E+03  0.39037900742E+03  0.41800000000E+01 0. -1.
         -5    1    3    3    0  502  0.21748883189E+03  0.70972893425E+02 -0.41823483659E+03  0.47673514087E+03  0.41800000000E+01 0. -1.
        -11    1    1    2    0    0 -0.25648286953E+03 -0.33179682926E+02 -0.83539757924E+03  0.87451327555E+03  0.00000000000E+00 0.  1.
         11    1    1    2    0    0 -0.61603802169E+02 -0.21279834147E+02 -0.10486008316E+03  0.12346455695E+03  0.00000000000E+00 0. -1.
</event>
<event>
 7    1  0.2420569E-009  0.1487383E+03  0.7561462E-02  0.1202032E+00
         -1   -1    0    0    0  501 -0.00000000000E+00  0.00000000000E+00  0.73528249424E+02  0.73528249424E+02  0.00000000000E+00 0.  1.
          1   -1    0    0  501    0  0.00000000000E+00 -0.00000000000E+00 -0.34117902190E+03  0.34117902190E+03  0.00000000000E+00 0. -1.
         25    2    1    2    0    0  0.83342885400E+02 -0.71303758902E+02 -0.18768240376E+03  0.25079917164E+03  0.12508108262E+03 0.  0.
          5    1    3    3  502    0  0.77283221008E+02  0.10974524759E+02 -0.59221787650E+02  0.98070530617E+02  0.41800000000E+01 0. -1.
         -5    1    3    3    0  502  0.60596643923E+01 -0.82278283662E+02 -0.12846061611E+03  0.15272864102E+03  0.41800000000E+01 0. -1.
        -11    1    1    2    0    0 -0.82985037735E+02  0.19956573677E+02 -0.25561212385E+02  0.89096334938E+02  0.00000000000E+00 0.  1.
         11    1    1    2    0    0 -0.35784766562E+00  0.51347185225E+02 -0.54407156331E+02  0.74811764753E+02  0.00000000000E+00 0. -1.
</event>
<event>
 7    1  0.2420569E-009  0.2570021E+03  0.7561462E-02  0.1108958E+00
          2   -1    0    0  501    0  0.00000000000E+00  0.00000000000E+00  0.62160272803E+03  0.62160272803E+03  0.00000000000E+00 0. -1.
         -2   -1    0    0    0  501 -0.00000000000E+00 -0.00000000000E+00 -0.13776907287E+03  0.13776907287E+03  0.00000000000E+00 0.  1.
         25    2    1    2    0    0 -0.14987751382E+02 -0.24900239441E+03  0.38493794283E+03  0.47544593029E+03  0.12507912568E+03 0.  0.
          5    1    3    3  502    0  0.68609114851E+01 -0.25748672236E+02  0.14287253446E+03  0.14539635391E+03  0.41800000000E+01 0. -1.
         -5    1    3    3    0  502 -0.21848662867E+02 -0.22325372218E+03  0.24206540837E+03  0.33004957637E+03  0.41800000000E+01 0. -1.
        -11    1    1    2    0    0 -0.23200907330E+02  0.19587079847E+03  0.93478065815E+02  0.21827001760E+03  0.00000000000E+00 0.  1.
         11    1    1    2    0    0  0.38188658712E+02  0.53131595940E+02  0.54176465114E+01  0.65655853015E+02  0.00000000000E+00 0. -1.
</event>
<event>
 7    1  0.2420569E-009  0.1098851E+03  0.7561462E-02  0.1260783E+00
         -2   -1    0    0    0  501 -0.00000000000E+00  0.00000000000E+00  0.16688342780E+03  0.16688342780E+03  0.00000000000E+00 0.  1.
          2   -1    0    0  501    0  0.00000000000E+00 -0.00000000000E+00 -0.90155649860E+02  0.90155649860E+02  0.00000000000E+00 0. -1.
         25    2    1    2    0    0  0.28634772967E+02 -0.32824911144E+02  0.31034175999E+02  0.13604105981E+03  0.12508646953E+03 0.  0.
          5    1    3    3  502    0 -0.49285125421E+02 -0.18872975874E+02  0.83925803605E+01  0.53601498218E+02  0.41800000000E+01 0.  1.
         -5    1    3    3    0  502  0.77919898388E+02 -0.13951935270E+02  0.22641595639E+02  0.82439561593E+02  0.41800000000E+01 0.  1.
        -11    1    1    2    0    0  0.53834689513E+01 -0.22214051026E+02  0.51190366033E+02  0.56061567722E+02  0.00000000000E+00 0.  1.
         11    1    1    2    0    0 -0.34018241918E+02  0.55038962170E+02 -0.54967640893E+01  0.64936450129E+02  0.00000000000E+00 0. -1.
</event>
<event>
 7    1  0.2420569E-009  0.1083563E+03  0.7561462E-02  0.1263644E+00
         -2   -1    0    0    0  501 -0.00000000000E+00  0.00000000000E+00  0.29009573703E+03  0.29009573703E+03  0.00000000000E+00 0.  1.
          2   -1    0    0  501    0  0.00000000000E+00 -0.00000000000E+00 -0.63459263815E+02  0.63459263815E+02  0.00000000000E+00 0. -1.
         25    2    1    2    0    0 -0.20558553178E+02 -0.57529416301E+02  0.21341128332E+03  0.25480642806E+03  0.12509856945E+03 0.  0.
          5    1    3    3  502    0 -0.57625284057E+02  0.77806242824E+00  0.46692451875E+02  0.74289543045E+02  0.41800000000E+01 0.  1.
         -5    1    3    3    0  502  0.37066730879E+02 -0.58307478730E+02  0.16671883145E+03  0.18051688501E+03  0.41800000000E+01 0.  1.
        -11    1    1    2    0    0  0.43736974940E+02  0.47162030309E+02 -0.90710316159E+01  0.64957399073E+02  0.00000000000E+00 0. -1.
         11    1    1    2    0    0 -0.23178421761E+02  0.10367385992E+02  0.22296221504E+02  0.33791173715E+02  0.00000000000E+00 0.  1.
</event>
<event>
 7    1  0.2420569E-009  0.8232931E+02  0.7561462E-02  0.1322568E+00
          1   -1    0    0  501    0  0.00000000000E+00  0.00000000000E+00  0.11278164025E+03  0.11278164025E+03  0.00000000000E+00 0.  1.
         -1   -1    0    0    0  501 -0.00000000000E+00 -0.00000000000E+00 -0.13516580588E+03  0.13516580588E+03  0.00000000000E+00 0. -1.
         25    2    1    2    0    0 -0.40271557736E+02 -0.44424752135E+02 -0.12949955098E+02  0.13932514932E+03  0.12509372059E+03 0.  0.
          5    1    3    3  502    0 -0.10033489046E+02 -0.30436713480E+02  0.54851320935E+02  0.63664780203E+02  0.41800000000E+01 0.  1.
         -5    1    3    3    0  502 -0.30238068690E+02 -0.13988038654E+02 -0.67801276033E+02  0.75660369119E+02  0.41800000000E+01 0.  1.
        -11    1    1    2    0    0  0.30017220759E+01  0.58754895571E+02  0.16386814891E+02  0.61071071639E+02  0.00000000000E+00 0.  1.
         11    1    1    2    0    0  0.37269835660E+02 -0.14330143436E+02 -0.25821025421E+02  0.47551225166E+02  0.00000000000E+00 0. -1.
</event>
<event>
 7    1  0.2420569E-009  0.1056970E+03  0.7561462E-02  0.1268752E+00
          3   -1    0    0  501    0  0.00000000000E+00  0.00000000000E+00  0.26048806937E+03  0.26048806937E+03  0.00000000000E+00 0. -1.
         -3   -1    0    0    0  501 -0.00000000000E+00 -0.00000000000E+00 -0.51397225291E+02  0.51397225291E+02  0.00000000000E+00 0.  1.
         25    2    1    2    0    0 -0.35801843964E+02 -0.15884576062E+02  0.97701364157E+02  0.16348702854E+03  0.12509340572E+03 0.  0.
          5    1    3    3  502    0 -0.74469538710E+02 -0.16232890533E+02  0.23768820148E+02  0.79947783846E+02  0.41800000000E+01 0. -1.
         -5    1    3    3    0  502  0.38667694746E+02  0.34831447018E+00  0.73932544010E+02  0.83539244692E+02  0.41800000000E+01 0. -1.
        -11    1    1    2    0    0  0.58574743082E+01  0.50247236710E+02  0.72950903836E+02  0.88774597565E+02  0.00000000000E+00 0. -1.
         11    1    1    2    0    0  0.29944369656E+02 -0.34362660648E+02  0.38438576087E+02  0.59623668559E+02  0.00000000000E+00 0.  1.
</event>
<event>
 7    1  0.2420569E-009  0.1114666E+03  0.7561462E-02  0.1257878E+00
         -2   -1    0    0    0  501 -0.00000000000E+00  0.00000000000E+00  0.52774466472E+03  0.52774466472E+03  0.00000000000E+00 0.  1.
          2   -1    0    0  501    0  0.00000000000E+00 -0.00000000000E+00 -0.31698954035E+02  0.31698954035E+02  0.00000000000E+00 0. -1.
         25    2    1    2    0    0  0.76155783280E+01 -0.33962381355E+02  0.40960815755E+03  0.42969525245E+03  0.12509087443E+03 0.  0.
          5    1    3    3  502    0  0.54004508620E+02  0.18885144290E+02  0.14679460212E+03  0.15760476908E+03  0.41800000000E+01 0. -1.
         -5    1    3    3    0  502 -0.46388930292E+02 -0.52847525646E+02  0.26281355543E+03  0.27209048337E+03  0.41800000000E+01 0. -1.
        -11    1    1    2    0    0  0.23059712268E+02 -0.21639915002E+02  0.18000010302E+02  0.36387314027E+02  0.00000000000E+00 0.  1.
         11    1    1    2    0    0 -0.30675290596E+02  0.55602296357E+02  0.68437542825E+02  0.93361052272E+02  0.00000000000E+00 0. -1.
</event>
<event>
 7    1  0.2420569E-009  0.1555807E+03  0.7561462E-02  0.1193778E+00
          2   -1    0    0  501    0  0.00000000000E+00  0.00000000000E+00  0.98507978837E+03  0.98507978837E+03  0.00000000000E+00 0. -1.
         -2   -1    0    0    0  501 -0.00000000000E+00 -0.00000000000E+00 -0.32065091185E+02  0.32065091185E+02  0.00000000000E+00 0.  1.
         25    2    1    2    0    0  0.14639942668E+02  0.12017363836E+03  0.30202128818E+03  0.34859834535E+03  0.12509163275E+03 0.  0.
          5    1    3    3  502    0  0.62941448421E+02  0.37332337308E+02  0.91590131728E+02  0.11730964994E+03  0.41800000000E+01 0.  1.
         -5    1    3    3    0  502 -0.48301505753E+02  0.82841301054E+02  0.21043115645E+03  0.23128869541E+03  0.41800000000E+01 0.  1.
        -11    1    1    2    0    0  0.16760330551E+02 -0.10618796596E+03  0.57738407538E+03  0.58730670292E+03  0.00000000000E+00 0. -1.
         11    1    1    2    0    0 -0.31400273219E+02 -0.13985672406E+02  0.73609333627E+02  0.81239831289E+02  0.00000000000E+00 0.  1.
</event>
<event>
 7    1  0.2420569E-009  0.1464965E+03  0.7561462E-02  0.1204845E+00
          2   -1    0    0  501    0  0.00000000000E+00  0.00000000000E+00  0.12086212494E+04  0.12086212494E+04  0.00000000000E+00 0. -1.
         -2   -1    0    0    0  501 -0.00000000000E+00 -0.00000000000E+00 -0.24949399589E+02  0.24949399589E+02  0.00000000000E+00 0.  1.
         25    2    1    2    0    0 -0.88704491200E+02  0.73416191362E+02  0.86663012419E+03  0.88314981673E+03  0.12508957878E+03 0.  0.
          5    1    3    3  502    0 -0.21553433603E+02  0.74886232656E+02  0.68539722190E+03  0.68982557399E+03  0.41800000000E+01 0.  1.
         -5    1    3    3    0  502 -0.67151057598E+02 -0.14700412937E+01  0.18123290229E+03  0.19332424274E+03  0.41800000000E+01 0.  1.
        -11    1    1    2    0    0  0.24184480312E+01 -0.60337705697E+02  0.15547929786E+03  0.16679418360E+03  0.00000000000E+00 0.  1.
         11    1    1    2    0    0  0.86286043169E+02 -0.13078485664E+02  0.16156242772E+03  0.18362664862E+03  0.00000000000E+00 0. -1.
</event>
<event>
 7    1  0.2420569E-009  0.1055903E+03  0.7561462E-02  0.1268961E+00
         -3   -1    0    0    0  501 -0.00000000000E+00  0.00000000000E+00  0.25553068304E+03  0.25553068304E+03  0.00000000000E+00 0.  1.
          3   -1    0    0  501    0  0.00000000000E+00 -0.00000000000E+00 -0.58097919424E+02  0.58097919424E+02  0.00000000000E+00 0. -1.
         25    2    1    2    0    0 -0.29074549745E+02  0.19717993344E+02  0.56784722981E+02  0.14179713861E+03  0.12509114696E+03 0.  0.
          5    1    3    3  502    0  0.35150998347E+02 -0.21192723911E+02  0.50593200728E+02  0.65282988531E+02  0.41800000000E+01 0.  1.
         -5    1    3    3    0  502 -0.64225548092E+02  0.40910717255E+02  0.61915222535E+01  0.76514150076E+02  0.41800000000E+01 0.  1.
        -11    1    1    2    0    0  0.34242874359E+02  0.28875236775E+02  0.94682363984E+02  0.10474303697E+03  0.00000000000E+00 0. -1.
         11    1    1    2    0    0 -0.51683246149E+01 -0.48593230119E+02  0.45965676648E+02  0.67088426889E+02  0.00000000000E+00 0.  1.
</event>
<event>
 7    1  0.2420569E-009  0.1154070E+03  0.7561462E-02  0.1250872E+00
          1   -1    0    0  501    0  0.00000000000E+00  0.00000000000E+00  0.36458428349E+03  0.36458428349E+03  0.00000000000E+00 0. -1.
         -1   -1    0    0    0  501 -0.00000000000E+00 -0.00000000000E+00 -0.38423972992E+02  0.38423972992E+02  0.00000000000E+00 0.  1.
         25    2    1    2    0    0  0.44241691794E+02 -0.12539789541E+02  0.16013810167E+03  0.20834562544E+03  0.12509642048E+03 0.  0.
          5    1    3    3  502    0  0.80172879922E+02  0.21597727098E+02  0.92205664949E+02  0.12415115601E+03  0.41800000000E+01 0.  1.
         -5    1    3    3    0  502 -0.35931188129E+02 -0.34137516639E+02  0.67932436719E+02  0.84194469422E+02  0.41800000000E+01 0.  1.
        -11    1    1    2    0    0 -0.48863412289E+02 -0.28548596840E+02  0.69287636841E+02  0.89461902848E+02  0.00000000000E+00 0. -1.
         11    1    1    2    0    0  0.46217204955E+01  0.41088386381E+02  0.96734571989E+02  0.10520072820E+03  0.00000000000E+00 0.  1.
</event>
<event>
 7    1  0.2420569E-009  0.2049650E+03  0.7561462E-02  0.1145616E+00
          2   -1    0    0  501    0  0.00000000000E+00  0.00000000000E+00  0.24179405334E+03  0.24179405334E+03  0.00000000000E+00 0. -1.
         -2   -1    0    0    0  501 -0.00000000000E+00 -0.00000000000E+00 -0.19269041838E+03  0.19269041838E+03  0.00000000000E+00 0.  1.
         25    2    1    2    0    0  0.14858753774E+03 -0.11249762404E+03  0.19567301315E+02  0.22530995718E+03  0.12509086993E+03 0.  0.
          5    1    3    3  502    0 -0.21929018585E+02 -0.10552780042E+02 -0.46568830906E+01  0.25127713443E+02  0.41800000000E+01 0.  1.
         -5    1    3    3    0  502  0.17051655633E+03 -0.10194484400E+03  0.24224184405E+02  0.20018224374E+03  0.41800000000E+01 0.  1.
        -11    1    1    2    0    0 -0.32617279047E+02  0.20817880065E+02  0.46362223314E+02  0.60388134377E+02  0.00000000000E+00 0. -1.
         11    1    1    2    0    0 -0.11597025869E+03  0.91679743974E+02 -0.16825889665E+02  0.14878638016E+03  0.00000000000E+00 0.  1.
</event>
<event>
 7    1  0.2420569E-009  0.1034020E+03  0.7561462E-02  0.1273300E+00
          4   -1    0    0  501    0  0.00000000000E+00  0.00000000000E+00  0.12301561224E+03  0.12301561224E+03  0.00000000000E+00 0. -1.
         -4   -1    0    0    0  501 -0.00000000000E+00 -0.00000000000E+00 -0.13839446130E+03  0.13839446130E+03  0.00000000000E+00 0.  1.
         25    2    1    2    0    0 -0.12886183563E+02 -0.67745777173E+02  0.12239598581E+02  0.14336229290E+03  0.12508954873E+03 0.  0.
          5    1    3    3  502    0  0.24984267532E+02  0.22375455843E+02 -0.21275339948E+02  0.39937290071E+02  0.41800000000E+01 0. -1.
         -5    1    3    3    0  502 -0.37870451095E+02 -0.90121233016E+02  0.33514938529E+02  0.10342500283E+03  0.41800000000E+01 0. -1.
        -11    1    1    2    0    0 -0.92406752979E+01  0.11722899244E+02 -0.51222968852E+02  0.53353622038E+02  0.00000000000E+00 0.  1.
         11    1    1    2    0    0  0.22126858861E+02  0.56022877929E+02  0.23604521209E+02  0.64694158593E+02  0.00000000000E+00 0. -1.
</event>
<event>
 7    1  0.2420569E-009  0.9890979E+02  0.7561462E-02  0.1282605E+00
         -2   -1    0    0    0  501 -0.00000000000E+00  0.00000000000E+00  0.36450527620E+02  0.36450527620E+02  0.00000000000E+00 0.  1.
          2   -1    0    0  501    0  0.00000000000E+00 -0.00000000000E+00 -0.58815316008E+03  0.58815316008E+03  0.00000000000E+00 0. -1.
         25    2    1    2    0    0 -0.74631748908E+02  0.22224038617E+02 -0.42755422742E+03  0.45223319001E+03  0.12509370457E+03 0.  0.
          5    1    3    3  502    0 -0.51887703339E+01  0.14068847897E+02  0.31399162154E+01  0.15880405932E+02  0.41800000000E+01 0.  1.
         -5    1    3    3    0  502 -0.69442978574E+02  0.81551907204E+01 -0.43069414364E+03  0.43635278408E+03  0.41800000000E+01 0.  1.
        -11    1    1    2    0    0  0.35341725481E+02 -0.52025327286E+02 -0.98285693279E+02  0.11668654482E+03  0.00000000000E+00 0. -1.
         11    1    1    2    0    0  0.39290023427E+02  0.29801288668E+02 -0.25862711756E+02  0.55683952864E+02  0.00000000000E+00 0.  1.
</event>
<event>
 7    1  0.2420569E-009  0.9306792E+02  0.7561462E-02  0.1295588E+00
          2   -1    0    0  501    0  0.00000000000E+00  0.00000000000E+00  0.65691147840E+03  0.65691147840E+03  0.00000000000E+00 0. -1.
         -2   -1    0    0    0  501 -0.00000000000E+00 -0.00000000000E+00 -0.20408620064E+02  0.20408620064E+02  0.00000000000E+00 0.  1.
         25    2    1    2    0    0  0.42053400611E+01 -0.25216391136E+02  0.43824330148E+03  0.45646433163E+03  0.12509573731E+03 0.  0.
          5    1    3    3  502    0 -0.17440053509E+02  0.41420289436E+02  0.84241958614E+02  0.95571835990E+02  0.41800000000E+01 0. -1.
         -5    1    3    3    0  502  0.21645393570E+02 -0.66636680572E+02  0.35400134286E+03  0.36089249564E+03  0.41800000000E+01 0. -1.
        -11    1    1    2    0    0  0.24965026458E+02  0.32270466572E+02  0.31844414592E+02  0.51756181268E+02  0.00000000000E+00 0.  1.
         11    1    1    2    0    0 -0.29170366519E+02 -0.70540754359E+01  0.16641514227E+03  0.16909958557E+03  0.00000000000E+00 0. -1.
</event>
<event>
 7    1  0.2420569E-009  0.1609532E+03  0.7561462E-02  0.1187625E+00
         -2   -1    0    0    0  501 -0.00000000000E+00  0.00000000000E+00  0.24096145705E+03  0.24096145705E+03  0.00000000000E+00 0. -1.
          2   -1    0    0  501    0  0.00000000000E+00 -0.00000000000E+00 -0.52224547846E+03  0.52224547846E+03  0.00000000000E+00 0.  1.
         25    2    1    2    0    0 -0.12496953398E+03  0.68660872128E+02  0.18625064239E+03  0.26583099898E+03  0.12508044790E+03 0.  0.
          5    1    3    3  502    0 -0.13366950238E+03  0.81498790655E+02  0.11901049683E+03  0.19669915989E+03  0.41800000000E+01 0. -1.
         -5    1    3    3    0  502  0.86999683970E+01 -0.12837918527E+02  0.67240145559E+02  0.69131839098E+02  0.41800000000E+01 0. -1.
        -11    1    1    2    0    0  0.72597868263E+02 -0.63779830715E+02 -0.17280526331E+03  0.19798983891E+03  0.00000000000E+00 0. -1.
         11    1    1    2    0    0  0.52371665718E+02 -0.48810414129E+01 -0.29472940049E+03  0.29938609762E+03  0.00000000000E+00 0.  1.
</event>
<event>
 7    1  0.2420569E-009  0.2972678E+03  0.7561462E-02  0.1086614E+00
         -2   -1    0    0    0  501 -0.00000000000E+00  0.00000000000E+00  0.27630209437E+03  0.27630209437E+03  0.00000000000E+00 0.  1.
          2   -1    0    0  501    0  0.00000000000E+00 -0.00000000000E+00 -0.34146165504E+03  0.34146165504E+03  0.00000000000E+00 0. -1.
         25    2    1    2    0    0 -0.12179576728E+03 -0.23230197000E+03 -0.31811337044E+02  0.29233123793E+03  0.12508867779E+03 0.  0.
          5    1    3    3  502    0 -0.18493100015E+02 -0.15291735021E+03 -0.47008857778E+02  0.16109939743E+03  0.41800000000E+01 0.  1.
         -5    1    3    3    0  502 -0.10330266727E+03 -0.79384619789E+02  0.15197520734E+02  0.13123184050E+03  0.41800000000E+01 0.  1.
        -11    1    1    2    0    0  0.66127248635E+02 -0.50365523140E+01 -0.46978334091E+02  0.81272035444E+02  0.00000000000E+00 0. -1.
         11    1    1    2    0    0  0.55668518649E+02  0.23733852232E+03  0.13630110463E+02  0.24416047603E+03  0.00000000000E+00 0.  1.
</event>
<event>
 7    1  0.2420569E-009  0.1185471E+03  0.7561462E-02  0.1245513E+00
         -4   -1    0    0    0  501 -0.00000000000E+00  0.00000000000E+00  0.14683541108E+03  0.14683541108E+03  0.00000000000E+00 0.  1.
          4   -1    0    0  501    0  0.00000000000E+00 -0.00000000000E+00 -0.13559403742E+03  0.13559403742E+03  0.00000000000E+00 0. -1.
         25    2    1    2    0    0 -0.92249146402E+02  0.75169285129E+01  0.26300662598E+00  0.15561318277E+03  0.12509590023E+03 0.  0.
          5    1    3    3  502    0  0.20838459216E+02  0.15733064369E+02  0.28306429781E+02  0.38736249998E+02  0.41800000000E+01 0. -1.
         -5    1    3    3    0  502 -0.11308760562E+03 -0.82161358560E+01 -0.28043423155E+02  0.11687693278E+03  0.41800000000E+01 0. -1.
        -11    1    1    2    0    0  0.60485230502E+02 -0.19020643593E+02  0.45863711996E+02  0.78254252725E+02  0.00000000000E+00 0.  1.
         11    1    1    2    0    0  0.31763915901E+02  0.11503715081E+02 -0.34885344963E+02  0.48562013006E+02  0.00000000000E+00 0. -1.
</event>
<event>
 7    1  0.2420569E-009  0.1117901E+03  0.7561462E-02  0.1257290E+00
         -2   -1    0    0    0  501 -0.00000000000E+00  0.00000000000E+00  0.11908082122E+03  0.11908082122E+03  0.00000000000E+00 0.  1.
          2   -1    0    0  501    0  0.00000000000E+00 -0.00000000000E+00 -0.20364459924E+03  0.20364459924E+03  0.00000000000E+00 0. -1.
         25    2    1    2    0    0 -0.85016499189E+02  0.24026669400E+02 -0.10317469540E+03  0.18464844297E+03  0.12507974954E+03 0.  0.
          5    1    3    3  502    0 -0.81698221140E+02 -0.16206506988E+02 -0.11529265521E+03  0.14229237137E+03  0.41800000000E+01 0. -1.
         -5    1    3    3    0  502 -0.33182780497E+01  0.40233176388E+02  0.12117959809E+02  0.42356071600E+02  0.41800000000E+01 0. -1.
        -11    1    1    2    0    0  0.76241719680E-01 -0.14078506500E+02 -0.34599220108E+02  0.37353931388E+02  0.00000000000E+00 0. -1.
         11    1    1    2    0    0  0.84940257470E+02 -0.99481628995E+01  0.53210137481E+02  0.10072304610E+03  0.00000000000E+00 0.  1.
</event>
<event>
 7    1  0.2682423E-009  0.2482190E+03  0.7561462E-02  0.1114436E+00
          2   -1    0    0  501    0  0.00000000000E+00  0.00000000000E+00  0.37727401544E+03  0.37727401544E+03  0.00000000000E+00 0. -1.
         -2   -1    0    0    0  501 -0.00000000000E+00 -0.00000000000E+00 -0.18771699506E+03  0.18771699506E+03  0.00000000000E+00 0.  1.
         25    2    1    2    0    0  0.99947844194E+02  0.20145671695E+03  0.41818227157E+00  0.25733598464E+03  0.12508898331E+03 0.  0.
          5    1    3    3  502    0  0.68629693525E+02  0.19638223210E+02 -0.11423109773E+02  0.72413082251E+02  0.41800000000E+01 0. -1.
         -5    1    3    3    0  502  0.31318150669E+02  0.18181849375E+03  0.11841292044E+02  0.18492290238E+03  0.41800000000E+01 0. -1.
        -11    1    1    2    0    0 -0.94168700679E+02 -0.94962253861E+02  0.84212319772E+02  0.15804204709E+03  0.00000000000E+00 0.  1.
         11    1    1    2    0    0 -0.57791435150E+01 -0.10649446309E+03  0.10492651834E+03  0.14961297878E+03  0.00000000000E+00 0. -1.
</event>
<event>
 7    1  0.2420569E-009  0.1588741E+03  0.7561462E-02  0.1189974E+00
          1   -1    0    0  501    0  0.00000000000E+00  0.00000000000E+00  0.16780030832E+04  0.16780030832E+04  0.00000000000E+00 0. -1.
         -1   -1    0    0    0  501 -0.00000000000E+00 -0.00000000000E+00 -0.18412223021E+02  0.18412223021E+02  0.00000000000E+00 0.  1.
         25    2    1    2    0    0 -0.13598999323E+03 -0.20777940941E+02  0.86183095830E+03  0.88166004404E+03  0.12508729546E+03 0.  0.
          5    1    3    3  502    0 -0.70271678816E+02 -0.43768747941E+02  0.20483561395E+03  0.22097265279E+03  0.41800000000E+01 0. -1.
         -5    1    3    3    0  502 -0.65718314412E+02  0.22990806999E+02  0.65699534435E+03  0.66068739125E+03  0.41800000000E+01 0. -1.
        -11    1    1    2    0    0  0.64449596358E+02  0.55986196311E+02  0.38277498632E+03  0.39217967158E+03  0.00000000000E+00 0.  1.
         11    1    1    2    0    0  0.71540396870E+02 -0.35208255370E+02  0.41498491554E+03  0.42257559058E+03  0.00000000000E+00 0. -1.
</event>
<event>
 7    1  0.2420569E-009  0.9032186E+02  0.7561462E-02  0.1302074E+00
          2   -1    0    0  501    0  0.00000000000E+00  0.00000000000E+00  0.70786050303E+03  0.70786050303E+03  0.00000000000E+00 0.  1.
         -2   -1    0    0    0  501 -0.00000000000E+00 -0.00000000000E+00 -0.20596022250E+02  0.20596022250E+02  0.00000000000E+00 0. -1.
         25    2    1    2    0    0 -0.10605316181E+02  0.31441205509E+02  0.51566971819E+03  0.53166172529E+03  0.12509160542E+03 0.  0.
          5    1    3    3  502    0  0.19806164305E+02 -0.18676240418E+02  0.40856049139E+03  0.40948776981E+03  0.41800000000E+01 0. -1.
         -5    1    3    3    0  502 -0.30411480486E+02  0.50117445927E+02  0.10710922680E+03  0.12217395548E+03  0.41800000000E+01 0. -1.
        -11    1    1    2    0    0  0.12953846117E+01  0.31086406853E+02  0.76708335119E+02  0.82778085198E+02  0.00000000000E+00 0.  1.
         11    1    1    2    0    0  0.93099315694E+01 -0.62527612362E+02  0.94886427465E+02  0.11401671479E+03  0.00000000000E+00 0. -1.
</event>
<event>
 7    1  0.2420569E-009  0.1141873E+03  0.7561462E-02  0.1253006E+00
         -2   -1    0    0    0  501 -0.00000000000E+00  0.00000000000E+00  0.24384162512E+02  0.24384162512E+02  0.00000000000E+00 0.  1.
          2   -1    0    0  501    0  0.00000000000E+00 -0.00000000000E+00 -0.62689706489E+03  0.62689706489E+03  0.00000000000E+00 0. -1.
         25    2    1    2    0    0 -0.10243560705E+02 -0.57390258864E+02 -0.39014461544E+03  0.41383500744E+03  0.12509204644E+03 0.  0.
          5    1    3    3  502    0  0.53671863956E+02 -0.48997204345E+02 -0.22610487664E+03  0.23753375056E+03  0.41800000000E+01 0.  1.
         -5    1    3    3    0  502 -0.63915424662E+02 -0.83930545187E+01 -0.16403973880E+03  0.17630125689E+03  0.41800000000E+01 0.  1.
        -11    1    1    2    0    0 -0.30027284419E+02  0.20406429050E+02 -0.30120118666E+02  0.47172891628E+02  0.00000000000E+00 0.  1.
         11    1    1    2    0    0  0.40270845124E+02  0.36983829813E+02 -0.18224816827E+03  0.19027332833E+03  0.00000000000E+00 0. -1.
</event>
<event>
 7    1  0.2420569E-009  0.1221267E+03  0.7561462E-02  0.1239629E+00
         -1   -1    0    0    0  501 -0.00000000000E+00  0.00000000000E+00  0.17568497900E+03  0.17568497900E+03  0.00000000000E+00 0.  1.
          1   -1    0    0  501    0  0.00000000000E+00 -0.00000000000E+00 -0.41926230810E+03  0.41926230810E+03  0.00000000000E+00 0. -1.
         25    2    1    2    0    0  0.11275750343E+03  0.77514612411E+01  0.11770357515E+03  0.20560603352E+03  0.12508145221E+03 0.  0.
          5    1    3    3  502    0  0.13921678336E+02  0.14455116584E+02  0.10341916847E+03  0.10543130621E+03  0.41800000000E+01 0.  1.
         -5    1    3    3    0  502  0.98835825094E+02 -0.67036553426E+01  0.14284406681E+02  0.10017472731E+03  0.41800000000E+01 0.  1.
        -11    1    1    2    0    0  0.13723184969E+01 -0.10352679790E+02  0.10279112096E-01  0.10443243871E+02  0.00000000000E+00 0.  1.
         11    1    1    2    0    0 -0.11412982193E+03  0.26012185487E+01 -0.36129118336E+03  0.37889800971E+03  0.00000000000E+00 0. -1.
</event>
