<event>
 8    1  0.7103328E-009  0.1155601E+03  0.7561462E-02  0.1250607E+00
          3   -1    0    0  501    0  0.00000000000E+00  0.00000000000E+00  0.98877948270E+03  0.98877948270E+03  0.00000000000E+00 0.  1.
         -3   -1    0    0    0  501 -0.00000000000E+00 -0.00000000000E+00 -0.15746477574E+02  0.15746477574E+02  0.00000000000E+00 0. -1.
         25    2    1    2    0    0  0.15152663739E+02  0.56379556445E+02  0.63707753083E+03  0.65186197591E+03  0.12509195716E+03 0.  0.
         23    2    1    2    0    0 -0.15152663739E+02 -0.56379556445E+02  0.33595547430E+03  0.35266398437E+03  0.89986374276E+02 0.  0.
          5    1    3    3  502    0 -0.20446641932E+02 -0.33869659892E+02  0.22563987414E+03  0.22912015239E+03  0.41800000000E+01 0.  1.
         -5    1    3    3    0  502  0.35599305671E+02  0.90249216337E+02  0.41143765668E+03  0.42274182352E+03  0.41800000000E+01 0.  1.
        -11    1    4    4    0    0  0.26896266569E+02 -0.41839076699E+02  0.25934158419E+03  0.26406812528E+03  0.00000000000E+00 0.  1.
         11    1    4    4    0    0 -0.42048930308E+02 -0.14540479746E+02  0.76613890108E+02  0.88595859095E+02  0.00000000000E+00 0. -1.
</event>
<event>
 8    1  0.7103328E-009  0.1340340E+03  0.7561462E-02  0.1221590E+00
         -2   -1    0    0    0  501 -0.00000000000E+00  0.00000000000E+00  0.48156981596E+02  0.48156981596E+02  0.00000000000E+00 0.  1.
          2   -1    0    0  501    0  0.00000000000E+00 -0.00000000000E+00 -0.42211671524E+03  0.42211671524E+03  0.00000000000E+00 0. -1.
         25    2    1    2    0    0  0.75936996682E+02 -0.44796047875E+02 -0.15486067847E+03  0.21772295477E+03  0.12509333287E+03 0.  0.
         23    2    1    2    0    0 -0.75936996682E+02  0.44796047875E+02 -0.21909905518E+03  0.25255074207E+03  0.89467133455E+02 0.  0.
          5    1    3    3  502    0 -0.22867362996E+02 -0.40881137651E+02 -0.83064966183E+02  0.95453887889E+02  0.41800000000E+01 0. -1.
         -5    1    3    3    0  502  0.98804359679E+02 -0.39149102246E+01 -0.71795712282E+02  0.12226906688E+03  0.41800000000E+01 0. -1.
        -11    1    4    4    0    0 -0.87519175650E+02  0.13315936677E+02 -0.12939207785E+03  0.15677764537E+03  0.00000000000E+00 0.  1.
         11    1    4    4    0    0  0.11582178968E+02  0.31480111198E+02 -0.89706977324E+02  0.95773096699E+02  0.00000000000E+00 0. -1.
</event>
<event>
 8    1  0.7103328E-009  0.1274272E+03  0.7561462E-02  0.1231324E+00
          2   -1    0    0  501    0  0.00000000000E+00  0.00000000000E+00  0.92590253260E+03  0.92590253260E+03  0.00000000000E+00 0. -1.
         -2   -1    0    0    0  501 -0.00000000000E+00 -0.00000000000E+00 -0.22668906658E+02  0.22668906658E+02  0.00000000000E+00 0.  1.
         25    2    1    2    0    0 -0.53576416225E+02 -0.72295697778E+02  0.60111577583E+03  0.62055222462E+03  0.12509111574E+03 0.  0.
         23    2    1    2    0    0  0.53576416225E+02  0.72295697778E+02  0.30211785011E+03  0.32801921463E+03  0.90687978926E+02 0.  0.
          5    1    3    3  502    0 -0.82394742657E+02 -0.75731700585E+01  0.30522183377E+03  0.31626584820E+03  0.41800000000E+01 0.  1.
         -5    1    3    3    0  502  0.28818326432E+02 -0.64722527719E+02  0.29589394206E+03  0.30428637643E+03  0.41800000000E+01 0.  1.
        -11    1    4    4    0    0  0.52164240200E+02  0.33025561122E+02  0.27086107916E+03  0.27780842292E+03  0.00000000000E+00 0. -1.
         11    1    4    4    0    0  0.14121760253E+01  0.39270136656E+02  0.31256770949E+02  0.50210791711E+02  0.00000000000E+00 0.  1.
</event>
<event>
 8    1  0.7103328E-009  0.9012031E+02  0.7561462E-02  0.1302561E+00
          1   -1    0    0  501    0  0.00000000000E+00  0.00000000000E+00  0.31400099015E+02  0.31400099015E+02  0.00000000000E+00 0. -1.
         -1   -1    0    0    0  501 -0.00000000000E+00 -0.00000000000E+00 -0.45192091043E+03  0.45192091043E+03  0.00000000000E+00 0.  1.
         25    2    1    2    0    0 -0.46494147784E+02 -0.14933779025E+01 -0.30544573344E+03  0.33332942248E+03  0.12508985513E+03 0.  0.
         23    2    1    2    0    0  0.46494147784E+02  0.14933779025E+01 -0.11507507797E+03  0.14999158697E+03  0.84209658798E+02 0.  0.
          5    1    3    3  502    0 -0.55370632795E+02 -0.28965775147E+02 -0.61948373882E+02  0.88090842501E+02  0.41800000000E+01 0.  1.
         -5    1    3    3    0  502  0.88764850107E+01  0.27472397244E+02 -0.24349735956E+03  0.24523857997E+03  0.41800000000E+01 0.  1.
        -11    1    4    4    0    0  0.10258200013E+02 -0.35322943088E+02 -0.78520331498E+02  0.86708612227E+02  0.00000000000E+00 0.  1.
         11    1    4    4    0    0  0.36235947771E+02  0.36816320990E+02 -0.36554746476E+02  0.63282974740E+02  0.00000000000E+00 0. -1.
</event>
<event>
 8    1  0.7103328E-009  0.1217746E+03  0.7561462E-02  0.1240198E+00
          2   -1    0    0  501    0  0.00000000000E+00  0.00000000000E+00  0.23545596887E+04  0.23545596887E+04  0.00000000000E+00 0.  1.
         -2   -1    0    0    0  501 -0.00000000000E+00 -0.00000000000E+00 -0.10386235948E+02  0.10386235948E+02  0.00000000000E+00 0. -1.
         25    2    1    2    0    0 -0.69406404152E+02  0.18676405590E+01  0.18976843697E+04  0.19030696499E+04  0.12508952133E+03 0.  0.
         23    2    1    2    0    0  0.69406404152E+02 -0.18676405590E+01  0.44648908306E+03  0.46187627475E+03  0.95689366556E+02 0.  0.
          5    1    3    3  502    0 -0.10544219667E+02  0.59026293679E+02  0.90311285232E+03  0.90511081108E+03  0.41800000000E+01 0. -1.
         -5    1    3    3    0  502 -0.58862184485E+02 -0.57158653120E+02  0.99457151736E+03  0.99795883880E+03  0.41800000000E+01 0. -1.
        -11    1    4    4    0    0  0.14647288505E+02 -0.34544016795E+02  0.64650856513E+02  0.74750019429E+02  0.00000000000E+00 0. -1.
         11    1    4    4    0    0  0.54759115647E+02  0.32676376236E+02  0.38183822654E+03  0.38712625532E+03  0.00000000000E+00 0.  1.
</event>
<event>
 8    1  0.7103328E-009  0.8347674E+02  0.7561462E-02  0.1319465E+00
          2   -1    0    0  501    0  0.00000000000E+00  0.00000000000E+00  0.67484712945E+02  0.67484712945E+02  0.00000000000E+00 0.  1.
         -2   -1    0    0    0  501 -0.00000000000E+00 -0.00000000000E+00 -0.17565785436E+03  0.17565785436E+03  0.00000000000E+00 0. -1.
         25    2    1    2    0    0  0.41265785749E+01  0.17176874157E+02 -0.55236711471E+02  0.13788684236E+03  0.12509841464E+03 0.  0.
         23    2    1    2    0    0 -0.41265785749E+01 -0.17176874157E+02 -0.52936429947E+02  0.10525572495E+03  0.89243646063E+02 0.  0.
          5    1    3    3  502    0 -0.36092073622E+02  0.55326365532E+02 -0.11564369358E+02  0.67192644984E+02  0.41800000000E+01 0. -1.
         -5    1    3    3    0  502  0.40218652197E+02 -0.38149491375E+02 -0.43672342113E+02  0.70694197374E+02  0.41800000000E+01 0. -1.
        -11    1    4    4    0    0  0.18719856958E+02 -0.10009097504E+02  0.19585826430E+02  0.28882861256E+02  0.00000000000E+00 0.  1.
         11    1    4    4    0    0 -0.22846435533E+02 -0.71677766537E+01 -0.72522256377E+02  0.76372863694E+02  0.00000000000E+00 0. -1.
</event>
<event>
 8    1  0.7103328E-009  0.1350467E+03  0.7561462E-02  0.1220154E+00
         -3   -1    0    0    0  501 -0.00000000000E+00  0.00000000000E+00  0.11844491422E+03  0.11844491422E+03  0.00000000000E+00 0.  1.
          3   -1    0    0  501    0  0.00000000000E+00 -0.00000000000E+00 -0.16482815850E+03  0.16482815850E+03  0.00000000000E+00 0. -1.
         25    2    1    2    0    0 -0.24699045099E+02  0.87479679481E+02 -0.29244611037E+02  0.15736999397E+03  0.12508929042E+03 0.  0.
         23    2    1    2    0    0  0.24699045099E+02 -0.87479679481E+02 -0.17138633248E+02  0.12590307875E+03  0.85411447345E+02 0.  0.
          5    1    3    3  502    0  0.13702443950E+02  0.10596497928E+03 -0.26527886633E+01  0.10696187868E+03  0.41800000000E+01 0. -1.
         -5    1    3    3    0  502 -0.38401489050E+02 -0.18485299798E+02 -0.26591822373E+02  0.50408115289E+02  0.41800000000E+01 0. -1.
        -11    1    4    4    0    0  0.50666381326E+02 -0.77352202527E+02 -0.27012647253E+02  0.96333423816E+02  0.00000000000E+00 0. -1.
         11    1    4    4    0    0 -0.25967336227E+02 -0.10127476954E+02  0.98740140054E+01  0.29569654931E+02  0.00000000000E+00 0.  1.
</event>
<event>
 8    1  0.7103328E-009  0.1051444E+03  0.7561462E-02  0.1269835E+00
          2   -1    0    0  501    0  0.00000000000E+00  0.00000000000E+00  0.19337454127E+03  0.19337454127E+03  0.00000000000E+00 0.  1.
         -2   -1    0    0    0  501 -0.00000000000E+00 -0.00000000000E+00 -0.85271173055E+02  0.85271173055E+02  0.00000000000E+00 0. -1.
         25    2    1    2    0    0 -0.47406744590E+02  0.43087776938E+02  0.34862196824E+02  0.14479986274E+03  0.12509065324E+03 0.  0.
         23    2    1    2    0    0  0.47406744590E+02 -0.43087776938E+02  0.73241171395E+02  0.13384585159E+03  0.91904770528E+02 0.  0.
          5    1    3    3  502    0 -0.55868744610E+02  0.75069522686E+02 -0.37954707802E+01  0.93747681886E+02  0.41800000000E+01 0. -1.
         -5    1    3    3    0  502  0.84620000198E+01 -0.31981745747E+02  0.38657667604E+02  0.51052180854E+02  0.41800000000E+01 0. -1.
        -11    1    4    4    0    0  0.27628205811E+02 -0.54019045878E+02  0.37697411192E+01  0.60791331800E+02  0.00000000000E+00 0. -1.
         11    1    4    4    0    0  0.19778538779E+02  0.10931268939E+02  0.69471430276E+02  0.73054519788E+02  0.00000000000E+00 0.  1.
</event>
<event>
 8    1  0.7103328E-009  0.2370519E+03  0.7561462E-02  0.1121772E+00
          1   -1    0    0  501    0  0.00000000000E+00  0.00000000000E+00  0.44870442570E+03  0.44870442570E+03  0.00000000000E+00 0. -1.
         -1   -1    0    0    0  501 -0.00000000000E+00 -0.00000000000E+00 -0.14196150463E+03  0.14196150463E+03  0.00000000000E+00 0.  1.
         25    2    1    2    0    0  0.20130095939E+03 -0.64839675725E+02  0.62888759438E+02  0.25363101500E+03  0.12508971143E+03 0.  0.
         23    2    1    2    0    0 -0.20130095939E+03  0.64839675725E+02  0.24385416163E+03  0.33703491532E+03  0.96960931311E+02 0.  0.
          5    1    3    3  502    0  0.81544898065E+02 -0.88225203832E+02  0.52260420975E+02  0.13107967421E+03  0.41800000000E+01 0. -1.
         -5    1    3    3    0  502  0.11975606133E+03  0.23385528107E+02  0.10628338463E+02  0.12255134078E+03  0.41800000000E+01 0. -1.
        -11    1    4    4    0    0 -0.82548167426E+02 -0.21116225209E+02  0.75985680073E+02  0.11416618803E+03  0.00000000000E+00 0. -1.
         11    1    4    4    0    0 -0.11875279197E+03  0.85955900934E+02  0.16786848156E+03  0.22286872730E+03  0.00000000000E+00 0.  1.
</event>
<event>
 8    1  0.7103328E-009  0.1040469E+03  0.7561462E-02  0.1272009E+00
         -2   -1    0    0    0  501 -0.00000000000E+00  0.00000000000E+00  0.23236324806E+02  0.23236324806E+02  0.00000000000E+00 0.  1.
          2   -1    0    0  501    0  0.00000000000E+00 -0.00000000000E+00 -0.66440745291E+03  0.66440745291E+03  0.00000000000E+00 0. -1.
         25    2    1    2    0    0  0.32907219755E+02 -0.36339034138E+02 -0.33921277521E+03  0.36485053803E+03  0.12508875937E+03 0.  0.
         23    2    1    2    0    0 -0.32907219755E+02  0.36339034138E+02 -0.30195835290E+03  0.32279323969E+03  0.10302047462E+03 0.  0.
          5    1    3    3  502    0  0.31584837311E+02 -0.65571574563E+02 -0.99644378960E+02  0.12346541215E+03  0.41800000000E+01 0. -1.
         -5    1    3    3    0  502  0.13223824443E+01  0.29232540424E+02 -0.23956839625E+03  0.24138512588E+03  0.41800000000E+01 0. -1.
        -11    1    4    4    0    0  0.32777207789E+02  0.61787926153E+01 -0.45963697340E+02  0.56790706122E+02  0.00000000000E+00 0.  1.
         11    1    4    4    0    0 -0.65684427544E+02  0.30160241523E+02 -0.25599465556E+03  0.26600253357E+03  0.00000000000E+00 0. -1.
</event>
<event>
 8    1  0.7103328E-009  0.2236130E+03  0.7561462E-02  0.1131218E+00
          2   -1    0    0  501    0  0.00000000000E+00  0.00000000000E+00  0.14362948518E+04  0.14362948518E+04  0.00000000000E+00 0. -1.
         -2   -1    0    0    0  501 -0.00000000000E+00 -0.00000000000E+00 -0.37744419007E+02  0.37744419007E+02  0.00000000000E+00 0.  1.
         25    2    1    2    0    0  0.12945091753E+03 -0.16075315678E+03  0.76391804880E+03  0.80113532368E+03  0.12509158288E+03 0.  0.
         23    2    1    2    0    0 -0.12945091753E+03  0.16075315678E+03  0.63463238402E+03  0.67290394715E+03  0.86269008220E+02 0.  0.
          5    1    3    3  502    0  0.53587810541E+02 -0.96400571092E+01  0.34608439560E+03  0.35036618761E+03  0.41800000000E+01 0. -1.
         -5    1    3    3    0  502  0.75863106985E+02 -0.15111309967E+03  0.41783365319E+03  0.45076913607E+03  0.41800000000E+01 0. -1.
        -11    1    4    4    0    0 -0.13670652432E+03  0.11944058325E+03  0.52679159282E+03  0.55719306258E+03  0.00000000000E+00 0. -1.
         11    1    4    4    0    0  0.72556067957E+01  0.41312573531E+02  0.10784079120E+03  0.11571088457E+03  0.00000000000E+00 0.  1.
</event>
<event>
 8    1  0.7103328E-009  0.1845293E+03  0.7561462E-02  0.1163490E+00
         -1   -1    0    0    0  501 -0.00000000000E+00  0.00000000000E+00  0.55582626480E+03  0.55582626480E+03  0.00000000000E+00 0.  1.
          1   -1    0    0  501    0  0.00000000000E+00 -0.00000000000E+00 -0.70463835997E+02  0.70463835997E+02  0.00000000000E+00 0. -1.
         25    2    1    2    0    0  0.15646722998E+03 -0.41176884790E+02  0.27021007369E+03  0.33887858673E+03  0.12509069799E+03 0.  0.
         23    2    1    2    0    0 -0.15646722998E+03  0.41176884790E+02  0.21515235512E+03  0.28741151407E+03  0.10068422224E+03 0.  0.
          5    1    3    3  502    0 -0.15995511361E+02  0.68566079573E+01  0.60608435529E+02  0.63195920072E+02  0.41800000000E+01 0. -1.
         -5    1    3    3    0  502  0.17246274134E+03 -0.48033492747E+02  0.20960163816E+03  0.27568266666E+03  0.41800000000E+01 0. -1.
        -11    1    4    4    0    0 -0.60759703381E+02 -0.12960696324E+02  0.23435578331E+02  0.66399906144E+02  0.00000000000E+00 0. -1.
         11    1    4    4    0    0 -0.95707526600E+02  0.54137581113E+02  0.19171677679E+03  0.22101160793E+03  0.00000000000E+00 0.  1.
</event>
<event>
 8    1  0.7103328E-009  0.1308919E+03  0.7561462E-02  0.1226138E+00
          3   -1    0    0  501    0  0.00000000000E+00  0.00000000000E+00  0.65839280450E+02  0.65839280450E+02  0.00000000000E+00 0. -1.
         -3   -1    0    0    0  501 -0.00000000000E+00 -0.00000000000E+00 -0.33156920878E+03  0.33156920878E+03  0.00000000000E+00 0.  1.
         25    2    1    2    0    0 -0.71272589020E+02  0.67677960676E+02 -0.16747239923E+03  0.23098587695E+03  0.12508949812E+03 0.  0.
         23    2    1    2    0    0  0.71272589020E+02 -0.67677960676E+02 -0.98257529097E+02  0.16642261228E+03  0.91552474274E+02 0.  0.
          5    1    3    3  502    0  0.17854026692E+02  0.36966185949E+02 -0.30080396491E+01  0.41373734123E+02  0.41800000000E+01 0. -1.
         -5    1    3    3    0  502 -0.89126615713E+02  0.30711774726E+02 -0.16446435958E+03  0.18961214283E+03  0.41800000000E+01 0. -1.
        -11    1    4    4    0    0  0.47896836255E+02 -0.84656104019E+02 -0.48029981955E+02  0.10847876307E+03  0.00000000000E+00 0. -1.
         11    1    4    4    0    0  0.23375752766E+02  0.16978143344E+02 -0.50227547142E+02  0.57943849205E+02  0.00000000000E+00 0.  1.
</event>
<event>
 8    1  0.7103328E-009  0.1246919E+03  0.7561462E-02  0.1235552E+00
         -2   -1    0    0    0  501 -0.00000000000E+00  0.00000000000E+00  0.65693576885E+02  0.65693576885E+02  0.00000000000E+00 0. -1.
          2   -1    0    0  501    0  0.00000000000E+00 -0.00000000000E+00 -0.25584852542E+03  0.25584852542E+03  0.00000000000E+00 0.  1.
         25    2    1    2    0    0 -0.17753184356E+02  0.69191866872E+02 -0.86812954068E+02  0.16818518883E+03  0.12508828383E+03 0.  0.
         23    2    1    2    0    0  0.17753184356E+02 -0.69191866872E+02 -0.10334199446E+03  0.15335691347E+03  0.87955017447E+02 0.  0.
          5    1    3    3  502    0  0.51227043492E+02  0.17046874470E+02 -0.51363481606E+02  0.74635685545E+02  0.41800000000E+01 0. -1.
         -5    1    3    3    0  502 -0.68980227848E+02  0.52144992402E+02 -0.35449472462E+02  0.93549503282E+02  0.41800000000E+01 0. -1.
        -11    1    4    4    0    0 -0.95385905420E-02 -0.84929135277E+02 -0.60140530007E+02  0.10406652420E+03  0.00000000000E+00 0. -1.
         11    1    4    4    0    0  0.17762722946E+02  0.15737268405E+02 -0.43201464456E+02  0.49290389271E+02  0.00000000000E+00 0.  1.
</event>
<event>
 8    1  0.7103328E-009  0.1005798E+03  0.7561462E-02  0.1279081E+00
          2   -1    0    0  501    0  0.00000000000E+00  0.00000000000E+00  0.77356028644E+02  0.77356028644E+02  0.00000000000E+00 0.  1.
         -2   -1    0    0    0  501 -0.00000000000E+00 -0.00000000000E+00 -0.22417082477E+03  0.22417082477E+03  0.00000000000E+00 0. -1.
         25    2    1    2    0    0  0.22807199746E+02 -0.45811036746E+02 -0.20510711009E+02  0.13669944310E+03  0.12508888452E+03 0.  0.
         23    2    1    2    0    0 -0.22807199746E+02  0.45811036746E+02 -0.12630408511E+03  0.16482741031E+03  0.92717494703E+02 0.  0.
          5    1    3    3  502    0  0.74451195757E+02 -0.33070872721E+02 -0.16229796027E+02  0.83171761140E+02  0.41800000000E+01 0. -1.
         -5    1    3    3    0  502 -0.51643996011E+02 -0.12740164024E+02 -0.42809149823E+01  0.53527681964E+02  0.41800000000E+01 0. -1.
        -11    1    4    4    0    0 -0.20914232124E+02  0.54136567095E+00  0.85230332372E+01  0.22590712199E+02  0.00000000000E+00 0.  1.
         11    1    4    4    0    0 -0.18929676225E+01  0.45269671075E+02 -0.13482711835E+03  0.14223669811E+03  0.00000000000E+00 0. -1.
</event>
<event>
 8    1  0.7103328E-009  0.9125731E+02  0.7561462E-02  0.1299835E+00
          2   -1    0    0  501    0  0.00000000000E+00  0.00000000000E+00  0.35797900188E+03  0.35797900188E+03  0.00000000000E+00 0.  1.
         -2   -1    0    0    0  501 -0.00000000000E+00 -0.00000000000E+00 -0.38895697167E+02  0.38895697167E+02  0.00000000000E+00 0. -1.
         25    2    1    2    0    0 -0.40891466137E+02 -0.14474270415E+02  0.15238195871E+03  0.20187051666E+03  0.12509927118E+03 0.  0.
         23    2    1    2    0    0  0.40891466137E+02  0.14474270415E+02  0.16670134600E+03  0.19500418238E+03  0.91409386187E+02 0.  0.
          5    1    3    3  502    0  0.11657410691E+02  0.21881740808E+02 -0.10199059827E+02  0.27132987785E+02  0.41800000000E+01 0. -1.
         -5    1    3    3    0  502 -0.52548876828E+02 -0.36356011223E+02  0.16258101854E+03  0.17473752887E+03  0.41800000000E+01 0. -1.
        -11    1    4    4    0    0 -0.23183933157E+02  0.17716208054E+02  0.21448352400E+02  0.36213127525E+02  0.00000000000E+00 0. -1.
         11    1    4    4    0    0  0.64075399294E+02 -0.32419376396E+01  0.14525299359E+03  0.15879105486E+03  0.00000000000E+00 0.  1.
</event>
<event>
 8    1  0.7103328E-009  0.1260635E+03  0.7561462E-02  0.1233417E+00
         -1   -1    0    0    0  501 -0.00000000000E+00  0.00000000000E+00  0.75418043678E+02  0.75418043678E+02  0.00000000000E+00 0.  1.
          1   -1    0    0  501    0  0.00000000000E+00 -0.00000000000E+00 -0.26680535047E+03  0.26680535047E+03  0.00000000000E+00 0. -1.
         25    2    1    2    0    0  0.60721344487E+02 -0.29485699461E+02 -0.18167969703E+03  0.23067695094E+03  0.12509138754E+03 0.  0.
         23    2    1    2    0    0 -0.60721344487E+02  0.29485699461E+02 -0.97076097629E+01  0.11154644320E+03  0.88271644114E+02 0.  0.
          5    1    3    3  502    0  0.80016925177E+01  0.47713338558E+02 -0.63059628701E+02  0.79590068045E+02  0.41800000000E+01 0.  1.
         -5    1    3    3    0  502  0.52719651969E+02 -0.77199038019E+02 -0.11862006833E+03  0.15108688290E+03  0.41800000000E+01 0.  1.
        -11    1    4    4    0    0 -0.42503257242E+02 -0.27191925093E+02 -0.12376907705E+02  0.51953012528E+02  0.00000000000E+00 0.  1.
         11    1    4    4    0    0 -0.18218087246E+02  0.56677624554E+02  0.26692979422E+01  0.59593430674E+02  0.00000000000E+00 0. -1.
</event>
<event>
 8    1  0.7103328E-009  0.9427643E+02  0.7561462E-02  0.1292814E+00
          2   -1    0    0  501    0  0.00000000000E+00  0.00000000000E+00  0.45799801102E+03  0.45799801102E+03  0.00000000000E+00 0. -1.
         -2   -1    0    0    0  501 -0.00000000000E+00 -0.00000000000E+00 -0.41098998540E+02  0.41098998540E+02  0.00000000000E+00 0.  1.
         25    2    1    2    0    0 -0.41913228959E+01 -0.20472930699E+02  0.80601170321E+02  0.15027595961E+03  0.12509839048E+03 0.  0.
         23    2    1    2    0    0  0.41913228959E+01  0.20472930699E+02  0.33629784216E+03  0.34882104995E+03  0.90239559894E+02 0.  0.
          5    1    3    3  502    0 -0.26263934413E+02 -0.51584193859E+02  0.93280684246E+02  0.10986119315E+03  0.41800000000E+01 0. -1.
         -5    1    3    3    0  502  0.22072611517E+02  0.31111263160E+02 -0.12679513925E+02  0.40414766459E+02  0.41800000000E+01 0. -1.
        -11    1    4    4    0    0 -0.38585950369E+02 -0.97098395534E+01  0.16312334644E+03  0.16790587454E+03  0.00000000000E+00 0. -1.
         11    1    4    4    0    0  0.42777273265E+02  0.30182770252E+02  0.17317449572E+03  0.18091517541E+03  0.00000000000E+00 0.  1.
</event>
<event>
 8    1  0.7103328E-009  0.1753600E+03  0.7561462E-02  0.1172371E+00
          2   -1    0    0  501    0  0.00000000000E+00  0.00000000000E+00  0.92453275971E+03  0.92453275971E+03  0.00000000000E+00 0. -1.
         -2   -1    0    0    0  501 -0.00000000000E+00 -0.00000000000E+00 -0.49180493913E+02  0.49180493913E+02  0.00000000000E+00 0.  1.
         25    2    1    2    0    0  0.15556412563E+02  0.15318830804E+03  0.68323599416E+03  0.71145479472E+03  0.12509133270E+03 0.  0.
         23    2    1    2    0    0 -0.15556412563E+02 -0.15318830804E+03  0.19211627164E+03  0.26225845891E+03  0.90344771566E+02 0.  0.
          5    1    3    3  502    0  0.63745696791E+02  0.52673242405E+02  0.36378000876E+03  0.37308357174E+03  0.41800000000E+01 0. -1.
         -5    1    3    3    0  502 -0.48189284227E+02  0.10051506563E+03  0.31945598540E+03  0.33837122298E+03  0.41800000000E+01 0. -1.
        -11    1    4    4    0    0 -0.23248124865E+02 -0.10232265978E+03  0.60910876458E+02  0.12132821966E+03  0.00000000000E+00 0.  1.
         11    1    4    4    0    0  0.76917123016E+01 -0.50865648257E+02  0.13120539518E+03  0.14093023925E+03  0.00000000000E+00 0. -1.
</event>
<event>
 8    1  0.7103328E-009  0.1434783E+03  0.7561462E-02  0.1208724E+00
         -2   -1    0    0    0  501 -0.00000000000E+00  0.00000000000E+00  0.87857852880E+02  0.87857852880E+02  0.00000000000E+00 0.  1.
          2   -1    0    0  501    0  0.00000000000E+00 -0.00000000000E+00 -0.36730125606E+03  0.36730125606E+03  0.00000000000E+00 0. -1.
         25    2    1    2    0    0  0.34110360290E+02 -0.12554850876E+03 -0.22519111521E+03  0.28858989622E+03  0.12508854902E+03 0.  0.
         23    2    1    2    0    0 -0.34110360290E+02  0.12554850876E+03 -0.54252287967E+02  0.16656921272E+03  0.88747096549E+02 0.  0.
          5    1    3    3  502    0  0.67766063738E+01 -0.15757572042E+02 -0.15365136118E+03  0.15466233111E+03  0.41800000000E+01 0.  1.
         -5    1    3    3    0  502  0.27333753917E+02 -0.10979093672E+03 -0.71539754030E+02  0.13392756511E+03  0.41800000000E+01 0.  1.
        -11    1    4    4    0    0  0.17821038075E+02  0.93224740702E+02 -0.22046971168E+02  0.97439779426E+02  0.00000000000E+00 0. -1.
         11    1    4    4    0    0 -0.51931398365E+02  0.32323768060E+02 -0.32205316799E+02  0.69129433297E+02  0.00000000000E+00 0.  1.
</event>
<event>
 8    1  0.7103328E-009  0.1188933E+03  0.7561462E-02  0.1244934E+00
          1   -1    0    0  501    0  0.00000000000E+00  0.00000000000E+00  0.19286464028E+03  0.19286464028E+03  0.00000000000E+00 0. -1.
         -1   -1    0    0    0  501 -0.00000000000E+00 -0.00000000000E+00 -0.84671577514E+02  0.84671577514E+02  0.00000000000E+00 0.  1.
         25    2    1    2    0    0  0.12764697353E+02  0.66544560482E+02  0.58215200725E+02  0.15370620314E+03  0.12508185824E+03 0.  0.
         23    2    1    2    0    0 -0.12764697353E+02 -0.66544560482E+02  0.49977862036E+02  0.12383001465E+03  0.90801816093E+02 0.  0.
          5    1    3    3  502    0 -0.33679808585E+02 -0.96243127181E+01  0.53740449145E+02  0.64284252939E+02  0.41800000000E+01 0. -1.
         -5    1    3    3    0  502  0.46444505938E+02  0.76168873200E+02  0.44747515803E+01  0.89421950203E+02  0.41800000000E+01 0. -1.
        -11    1    4    4    0    0  0.22315032167E+02  0.13307961084E+02  0.93467128781E+01  0.27612017862E+02  0.00000000000E+00 0.  1.
         11    1    4    4    0    0 -0.35079729520E+02 -0.79852521565E+02  0.40631149158E+02  0.96217996786E+02  0.00000000000E+00 0. -1.
</event>
<event>
 8    1  0.7103328E-009  0.1638215E+03  0.7561462E-02  0.1184449E+00
          2   -1    0    0  501    0  0.00000000000E+00  0.00000000000E+00  0.47812804307E+02  0.47812804307E+02  0.00000000000E+00 0. -1.
         -2   -1    0    0    0  501 -0.00000000000E+00 -0.00000000000E+00 -0.71113035974E+03  0.71113035974E+03  0.00000000000E+00 0.  1.
         25    2    1    2    0    0 -0.26181906754E+02 -0.14633726499E+03 -0.35231110129E+03  0.40233284075E+03  0.12509402579E+03 0.  0.
         23    2    1    2    0    0  0.26181906754E+02  0.14633726499E+03 -0.31100645415E+03  0.35661032330E+03  0.91355463977E+02 0.  0.
          5    1    3    3  502    0  0.37374618530E+02 -0.70264622654E+02 -0.23789714681E+03  0.25089141908E+03  0.41800000000E+01 0. -1.
         -5    1    3    3    0  502 -0.63556525283E+02 -0.76072642333E+02 -0.11441395448E+03  0.15144142167E+03  0.41800000000E+01 0. -1.
        -11    1    4    4    0    0  0.18639768681E+02  0.91739203520E+02 -0.93805970585E+02  0.13252578072E+03  0.00000000000E+00 0. -1.
         11    1    4    4    0    0  0.75421380722E+01  0.54598061468E+02 -0.21720048356E+03  0.22408454258E+03  0.00000000000E+00 0.  1.
</event>
<event>
 8    1  0.7103328E-009  0.1317125E+03  0.7561462E-02  0.1224937E+00
          1   -1    0    0  501    0  0.00000000000E+00  0.00000000000E+00  0.26395325646E+03  0.26395325646E+03  0.00000000000E+00 0. -1.
         -1   -1    0    0    0  501 -0.00000000000E+00 -0.00000000000E+00 -0.13090342717E+03  0.13090342717E+03  0.00000000000E+00 0.  1.
         25    2    1    2    0    0 -0.90519898270E+02 -0.46756556952E+02 -0.43681751345E+02  0.16713974588E+03  0.12509025403E+03 0.  0.
         23    2    1    2    0    0  0.90519898270E+02  0.46756556952E+02  0.17673158063E+03  0.22771693774E+03  0.10119745322E+03 0.  0.
          5    1    3    3  502    0 -0.20440650274E+02 -0.45432674859E+02  0.35494863332E+02  0.61313178448E+02  0.41800000000E+01 0.  1.
         -5    1    3    3    0  502 -0.70079247996E+02 -0.13238820939E+01 -0.79176614677E+02  0.10582656744E+03  0.41800000000E+01 0.  1.
        -11    1    4    4    0    0  0.76823738504E+02  0.77766969925E+02  0.12755296303E+03  0.16798615058E+03  0.00000000000E+00 0.  1.
         11    1    4    4    0    0  0.13696159766E+02 -0.31010412973E+02  0.49178617602E+02  0.59730787156E+02  0.00000000000E+00 0. -1.
</event>
<event>
 8    1  0.7103328E-009  0.2023425E+03  0.7561462E-02  0.1147778E+00
          1   -1    0    0  501    0  0.00000000000E+00  0.00000000000E+00  0.56359163461E+03  0.56359163461E+03  0.00000000000E+00 0. -1.
         -1   -1    0    0    0  501 -0.00000000000E+00 -0.00000000000E+00 -0.10239082875E+03  0.10239082875E+03  0.00000000000E+00 0.  1.
         25    2    1    2    0    0  0.16229815817E+03 -0.11180696342E+03  0.35299926930E+03  0.42319923196E+03  0.12509043365E+03 0.  0.
         23    2    1    2    0    0 -0.16229815817E+03  0.11180696342E+03  0.10820153656E+03  0.24278323140E+03  0.91622244674E+02 0.  0.
          5    1    3    3  502    0  0.16644620374E+03 -0.10382230047E+03  0.24106742675E+03  0.31082854672E+03  0.41800000000E+01 0. -1.
         -5    1    3    3    0  502 -0.41480455753E+01 -0.79846629470E+01  0.11193184255E+03  0.11237068524E+03  0.41800000000E+01 0. -1.
        -11    1    4    4    0    0 -0.78041186775E+02  0.68363703989E+02  0.10547102752E+03  0.14794647851E+03  0.00000000000E+00 0. -1.
         11    1    4    4    0    0 -0.84256971395E+02  0.43443259429E+02  0.27305090360E+01  0.94836752886E+02  0.00000000000E+00 0.  1.
</event>
<event>
 8    1  0.7103328E-009  0.1210906E+03  0.7561462E-02  0.1241309E+00
          3   -1    0    0  501    0  0.00000000000E+00  0.00000000000E+00  0.81119408544E+02  0.81119408544E+02  0.00000000000E+00 0. -1.
         -3   -1    0    0    0  501 -0.00000000000E+00 -0.00000000000E+00 -0.19133260510E+03  0.19133260510E+03  0.00000000000E+00 0.  1.
         25    2    1    2    0    0  0.50676274382E+02 -0.27517751814E+02 -0.83102746832E+02  0.16086841539E+03  0.12508904464E+03 0.  0.
         23    2    1    2    0    0 -0.50676274382E+02  0.27517751814E+02 -0.27110449721E+02  0.11158359825E+03  0.91600280922E+02 0.  0.
          5    1    3    3  502    0  0.72512022237E+02  0.25411884973E+02 -0.64837171964E+02  0.10062349892E+03  0.41800000000E+01 0. -1.
         -5    1    3    3    0  502 -0.21835747855E+02 -0.52929636787E+02 -0.18265574868E+02  0.60244916466E+02  0.41800000000E+01 0. -1.
        -11    1    4    4    0    0 -0.48072305097E+02 -0.25720558162E+02 -0.18602960067E+02  0.57606976598E+02  0.00000000000E+00 0. -1.
         11    1    4    4    0    0 -0.26039692851E+01  0.53238309976E+02 -0.85074896546E+01  0.53976621656E+02  0.00000000000E+00 0.  1.
</event>
<event>
 8    1  0.7103328E-009  0.1738042E+03  0.7561462E-02  0.1173938E+00
         -2   -1    0    0    0  501 -0.00000000000E+00  0.00000000000E+00  0.10760849547E+03  0.10760849547E+03  0.00000000000E+00 0.  1.
          2   -1    0    0  501    0  0.00000000000E+00 -0.00000000000E+00 -0.38926693408E+03  0.38926693408E+03  0.00000000000E+00 0. -1.
         25    2    1    2    0    0  0.89645163913E+02  0.12711587086E+03 -0.23963600753E+03  0.31187786537E+03  0.12509071416E+03 0.  0.
         23    2    1    2    0    0 -0.89645163913E+02 -0.12711587086E+03 -0.42022431081E+02  0.18499756418E+03  0.90903872311E+02 0.  0.
          5    1    3    3  502    0 -0.21177454234E+01  0.45500935490E+02 -0.37365727216E+01  0.45893946788E+02  0.41800000000E+01 0. -1.
         -5    1    3    3    0  502  0.91762909336E+02  0.81614935369E+02 -0.23589943480E+03  0.26598391859E+03  0.41800000000E+01 0. -1.
        -11    1    4    4    0    0  0.55699518919E+01  0.10358698776E+02 -0.83219756372E+01  0.14407716090E+02  0.00000000000E+00 0.  1.
         11    1    4    4    0    0 -0.95215115805E+02 -0.13747456963E+03 -0.33700455443E+02  0.17058984809E+03  0.00000000000E+00 0. -1.
</event>
<event>
 8    1  0.7103328E-009  0.1165046E+03  0.7561462E-02  0.1248977E+00
          2   -1    0    0  501    0  0.00000000000E+00  0.00000000000E+00  0.53069593754E+02  0.53069593754E+02  0.00000000000E+00 0.  1.
         -2   -1    0    0    0  501 -0.00000000000E+00 -0.00000000000E+00 -0.37856766122E+03  0.37856766122E+03  0.00000000000E+00 0. -1.
         25    2    1    2    0    0 -0.17031594653E+02  0.88896945978E+02 -0.14592223521E+03  0.21244700459E+03  0.12509072232E+03 0.  0.
         23    2    1    2    0    0  0.17031594653E+02 -0.88896945978E+02 -0.17957583226E+03  0.21919025038E+03  0.87201743739E+02 0.  0.
          5    1    3    3  502    0  0.20622512556E+02  0.99913322687E+02 -0.13887049623E+03  0.17236718713E+03  0.41800000000E+01 0.  1.
         -5    1    3    3    0  502 -0.37654107209E+02 -0.11016376708E+02 -0.70517389765E+01  0.40079817465E+02  0.41800000000E+01 0.  1.
        -11    1    4    4    0    0  0.10338369144E+00 -0.34037933542E+02 -0.37683172954E+01  0.34246048286E+02  0.00000000000E+00 0.  1.
         11    1    4    4    0    0  0.16928210961E+02 -0.54859012437E+02 -0.17580751496E+03  0.18494420210E+03  0.00000000000E+00 0. -1.
</event>
<event>
 8    1  0.7103328E-009  0.1253924E+03  0.7561462E-02  0.1234457E+00
         -1   -1    0    0    0  501 -0.00000000000E+00  0.00000000000E+00  0.20218368971E+02  0.20218368971E+02  0.00000000000E+00 0.  1.
          1   -1    0    0  501    0  0.00000000000E+00 -0.00000000000E+00 -0.98189629221E+03  0.98189629221E+03  0.00000000000E+00 0. -1.
         25    2    1    2    0    0 -0.60019896725E+02  0.57638604487E+02 -0.64340342880E+03  0.66071159826E+03  0.12508895695E+03 0.  0.
         23    2    1    2    0    0  0.60019896725E+02 -0.57638604487E+02 -0.31827449444E+03  0.34140306292E+03  0.91284176245E+02 0.  0.
          5    1    3    3  502    0  0.19853791801E+02  0.53916030538E+02 -0.40838153939E+03  0.41242461798E+03  0.41800000000E+01 0.  1.
         -5    1    3    3    0  502 -0.79873688526E+02  0.37225739490E+01 -0.23502188941E+03  0.24828698028E+03  0.41800000000E+01 0.  1.
        -11    1    4    4    0    0 -0.16089613237E+02 -0.26231948229E+02 -0.16064382623E+03  0.16356475680E+03  0.00000000000E+00 0. -1.
         11    1    4    4    0    0  0.76109509962E+02 -0.31406656258E+02 -0.15763066821E+03  0.17783830612E+03  0.00000000000E+00 0.  1.
</event>
<event>
 8    1  0.7103328E-009  0.8570279E+02  0.7561462E-02  0.1313605E+00
         -1   -1    0    0    0  501 -0.00000000000E+00  0.00000000000E+00  0.17048302848E+03  0.17048302848E+03  0.00000000000E+00 0.  1.
          1   -1    0    0  501    0  0.00000000000E+00 -0.00000000000E+00 -0.76359668523E+02  0.76359668523E+02  0.00000000000E+00 0. -1.
         25    2    1    2    0    0  0.47171359015E+01 -0.28302806738E+02  0.28036860310E+02  0.13136065992E+03  0.12508499989E+03 0.  0.
         23    2    1    2    0    0 -0.47171359015E+01  0.28302806738E+02  0.66086499645E+02  0.11548203708E+03  0.90251732462E+02 0.  0.
          5    1    3    3  502    0 -0.45254941028E+02  0.14491314583E+02  0.42477272597E+02  0.63873304072E+02  0.41800000000E+01 0.  1.
         -5    1    3    3    0  502  0.49972076930E+02 -0.42794121321E+02 -0.14440412287E+02  0.67487355848E+02  0.41800000000E+01 0.  1.
        -11    1    4    4    0    0 -0.22845596346E+02  0.31959909424E+02  0.82102341186E+02  0.91017314348E+02  0.00000000000E+00 0.  1.
         11    1    4    4    0    0  0.18128460444E+02 -0.36571026864E+01 -0.16015841541E+02  0.24464722733E+02  0.00000000000E+00 0. -1.
</event>
<event>
 8    1  0.7103328E-009  0.9998017E+02  0.7561462E-02  0.1280338E+00
         -1   -1    0    0    0  501 -0.00000000000E+00  0.00000000000E+00  0.26193364191E+03  0.26193364191E+03  0.00000000000E+00 0.  1.
          1   -1    0    0  501    0  0.00000000000E+00 -0.00000000000E+00 -0.46802699625E+02  0.46802699625E+02  0.00000000000E+00 0. -1.
         25    2    1    2    0    0 -0.15382826449E+02 -0.97364265264E+01  0.10001631495E+03  0.16118900214E+03  0.12508877569E+03 0.  0.
         23    2    1    2    0    0  0.15382826449E+02  0.97364265264E+01  0.11511462734E+03  0.14754733939E+03  0.90484311260E+02 0.  0.
          5    1    3    3  502    0 -0.43199753032E+02  0.34415031773E+02  0.88949609381E+01  0.56099962603E+02  0.41800000000E+01 0.  1.
         -5    1    3    3    0  502  0.27816926583E+02 -0.44151458299E+02  0.91121354012E+02  0.10508903954E+03  0.41800000000E+01 0.  1.
        -11    1    4    4    0    0 -0.36719073763E+02 -0.72307353700E+01  0.49718132376E+02  0.62229145896E+02  0.00000000000E+00 0.  1.
         11    1    4    4    0    0  0.52101900212E+02  0.16967161896E+02  0.65396494962E+02  0.85318193499E+02  0.00000000000E+00 0. -1.
</event>
<event>
 8    1  0.7103328E-009  0.8472411E+02  0.7561462E-02  0.1316156E+00
          2   -1    0    0  501    0  0.00000000000E+00  0.00000000000E+00  0.39397385168E+02  0.39397385168E+02  0.00000000000E+00 0. -1.
         -2   -1    0    0    0  501 -0.00000000000E+00 -0.00000000000E+00 -0.35235922165E+03  0.35235922165E+03  0.00000000000E+00 0.  1.
         25    2    1    2    0    0 -0.38246616670E+02  0.89611975809E+01 -0.15513750764E+03  0.20312130491E+03  0.12509001352E+03 0.  0.
         23    2    1    2    0    0  0.38246616670E+02 -0.89611975809E+01 -0.15782432884E+03  0.18863530191E+03  0.95559675609E+02 0.  0.
          5    1    3    3  502    0 -0.67610878732E+02 -0.33324985521E+01 -0.15693576417E+03  0.17096386444E+03  0.41800000000E+01 0. -1.
         -5    1    3    3    0  502  0.29364262062E+02  0.12293696133E+02  0.17982565278E+01  0.32157440470E+02  0.41800000000E+01 0. -1.
        -11    1    4    4    0    0  0.42677710683E+02 -0.27293570338E+02 -0.16164036049E+03  0.16939283370E+03  0.00000000000E+00 0.  1.
         11    1    4    4    0    0 -0.44310940125E+01  0.18332372757E+02  0.38160316475E+01  0.19242468204E+02  0.00000000000E+00 0. -1.
</event>
<event>
 8    1  0.7103328E-009  0.1159164E+03  0.7561462E-02  0.1249990E+00
          2   -1    0    0  501    0  0.00000000000E+00  0.00000000000E+00  0.85527662660E+03  0.85527662660E+03  0.00000000000E+00 0. -1.
         -2   -1    0    0    0  501 -0.00000000000E+00 -0.00000000000E+00 -0.25841616719E+02  0.25841616719E+02  0.00000000000E+00 0.  1.
         25    2    1    2    0    0  0.93060646497E+02 -0.42476590126E+02  0.44813887183E+03  0.47638313482E+03  0.12509155872E+03 0.  0.
         23    2    1    2    0    0 -0.93060646497E+02  0.42476590126E+02  0.38129613806E+03  0.40473510850E+03  0.89214452421E+02 0.  0.
          5    1    3    3  502    0  0.42392292439E+02 -0.72296986160E+01  0.27492778199E+02  0.51212305684E+02  0.41800000000E+01 0.  1.
         -5    1    3    3    0  502  0.50668354058E+02 -0.35246891510E+02  0.42064609363E+03  0.42517082914E+03  0.41800000000E+01 0.  1.
        -11    1    4    4    0    0 -0.72844276598E+02  0.64192589285E+02  0.21629319073E+03  0.23708589479E+03  0.00000000000E+00 0.  1.
         11    1    4    4    0    0 -0.20216369899E+02 -0.21715999159E+02  0.16500294732E+03  0.16764921371E+03  0.00000000000E+00 0. -1.
</event>
<event>
 8    1  0.7103328E-009  0.1618823E+03  0.7561462E-02  0.1186588E+00
         -4   -1    0    0    0  501 -0.00000000000E+00  0.00000000000E+00  0.17855732121E+03  0.17855732121E+03  0.00000000000E+00 0.  1.
          4   -1    0    0  501    0  0.00000000000E+00 -0.00000000000E+00 -0.14987788881E+03  0.14987788881E+03  0.00000000000E+00 0. -1.
         25    2    1    2    0    0 -0.12096464762E+03  0.17503412916E+02  0.19757227846E+02  0.17599590205E+03  0.12508154959E+03 0.  0.
         23    2    1    2    0    0  0.12096464762E+03 -0.17503412916E+02  0.89222045517E+01  0.15243930796E+03  0.90660473410E+02 0.  0.
          5    1    3    3  502    0 -0.11616110663E+03  0.59717443638E+02  0.24786553725E+02  0.13300910275E+03  0.41800000000E+01 0. -1.
         -5    1    3    3    0  502 -0.48035409973E+01 -0.42214030722E+02 -0.50293258783E+01  0.42986799307E+02  0.41800000000E+01 0. -1.
        -11    1    4    4    0    0  0.12659491056E+03  0.54971015230E+01 -0.11179032340E+01  0.12671913515E+03  0.00000000000E+00 0. -1.
         11    1    4    4    0    0 -0.56302629358E+01 -0.23000514439E+02  0.10040107786E+02  0.25720172813E+02  0.00000000000E+00 0.  1.
</event>
<event>
 8    1  0.7103328E-009  0.1198157E+03  0.7561462E-02  0.1243401E+00
          2   -1    0    0  501    0  0.00000000000E+00  0.00000000000E+00  0.19124091317E+03  0.19124091317E+03  0.00000000000E+00 0. -1.
         -2   -1    0    0    0  501 -0.00000000000E+00 -0.00000000000E+00 -0.78684466283E+02  0.78684466283E+02  0.00000000000E+00 0.  1.
         25    2    1    2    0    0 -0.61137357281E+00 -0.47140975526E+02  0.85260014435E+02  0.15855786320E+03  0.12509468641E+03 0.  0.
         23    2    1    2    0    0  0.61137357281E+00  0.47140975526E+02  0.27296432453E+02  0.11136751626E+03  0.97133841173E+02 0.  0.
          5    1    3    3  502    0  0.54077419283E+02  0.74939801276E+01  0.47207396071E+02  0.72294796896E+02  0.41800000000E+01 0. -1.
         -5    1    3    3    0  502 -0.54688792856E+02 -0.54634955654E+02  0.38052618364E+02  0.86263066301E+02  0.41800000000E+01 0. -1.
        -11    1    4    4    0    0 -0.43539677330E+02  0.93128167241E+00  0.57798224231E+01  0.43931505037E+02  0.00000000000E+00 0.  1.
         11    1    4    4    0    0  0.44151050903E+02  0.46209693854E+02  0.21516610029E+02  0.67436011219E+02  0.00000000000E+00 0. -1.
</event>
<event>
 8    1  0.7103328E-009  0.2468049E+03  0.7561462E-02  0.1115341E+00
         -2   -1    0    0    0  501 -0.00000000000E+00  0.00000000000E+00  0.11108889687E+03  0.11108889687E+03  0.00000000000E+00 0.  1.
          2   -1    0    0  501    0  0.00000000000E+00 -0.00000000000E+00 -0.68124298864E+03  0.68124298864E+03  0.00000000000E+00 0. -1.
         25    2    1    2    0    0 -0.17372403880E+03  0.15891346943E+03 -0.16069536470E+03  0.31129044519E+03  0.12508080832E+03 0.  0.
         23    2    1    2    0    0  0.17372403880E+03 -0.15891346943E+03 -0.40945872707E+03  0.48104144032E+03  0.91164059334E+02 0.  0.
          5    1    3    3  502    0 -0.94085170190E+02  0.44755983527E+02 -0.13351672214E+03  0.16940869164E+03  0.41800000000E+01 0. -1.
         -5    1    3    3    0  502 -0.79638868605E+02  0.11415748590E+03 -0.27178642560E+02  0.14188175356E+03  0.41800000000E+01 0. -1.
        -11    1    4    4    0    0  0.80580982005E+02 -0.12928578826E+03 -0.28083830394E+03  0.31949688992E+03  0.00000000000E+00 0. -1.
         11    1    4    4    0    0  0.93143056791E+02 -0.29627681166E+02 -0.12862042312E+03  0.16154455040E+03  0.00000000000E+00 0.  1.
</event>
<event>
 8    1  0.7103328E-009  0.1210794E+03  0.7561462E-02  0.1241327E+00
          2   -1    0    0  501    0  0.00000000000E+00  0.00000000000E+00  0.20626901951E+03  0.20626901951E+03  0.00000000000E+00 0. -1.
         -2   -1    0    0    0  501 -0.00000000000E+00 -0.00000000000E+00 -0.12445658088E+03  0.12445658088E+03  0.00000000000E+00 0.  1.
         25    2    1    2    0    0  0.64168439269E+02  0.74896624384E+02  0.10550306236E+03  0.19106634892E+03  0.12509340742E+03 0.  0.
         23    2    1    2    0    0 -0.64168439269E+02 -0.74896624384E+02 -0.23690623734E+02  0.13965925146E+03  0.96001916252E+02 0.  0.
          5    1    3    3  502    0  0.19490624559E+02  0.70792378901E+02 -0.29711961485E+01  0.73605337868E+02  0.41800000000E+01 0. -1.
         -5    1    3    3    0  502  0.44677814710E+02  0.41042454831E+01  0.10847425851E+03  0.11746101105E+03  0.41800000000E+01 0. -1.
        -11    1    4    4    0    0 -0.80563746612E+02 -0.53976861418E+02  0.91563757944E+01  0.97405636666E+02  0.00000000000E+00 0. -1.
         11    1    4    4    0    0  0.16395307343E+02 -0.20919762965E+02 -0.32846999528E+02  0.42253614797E+02  0.00000000000E+00 0.  1.
</event>
<event>
 8    1  0.7103328E-009  0.1116216E+03  0.7561462E-02  0.1257596E+00
         -1   -1    0    0    0  501 -0.00000000000E+00  0.00000000000E+00  0.47438856327E+03  0.47438856327E+03  0.00000000000E+00 0.  1.
          1   -1    0    0  501    0  0.00000000000E+00 -0.00000000000E+00 -0.31704630288E+02  0.31704630288E+02  0.00000000000E+00 0. -1.
         25    2    1    2    0    0 -0.88093561387E+01  0.37490194500E+02  0.34158590470E+03  0.36580848490E+03  0.12510714567E+03 0.  0.
         23    2    1    2    0    0  0.88093561387E+01 -0.37490194500E+02  0.10109802828E+03  0.14028470866E+03  0.89307719268E+02 0.  0.
          5    1    3    3  502    0 -0.49255986993E+02  0.61541542657E+02  0.16342384904E+03  0.18148922988E+03  0.41800000000E+01 0. -1.
         -5    1    3    3    0  502  0.40446630854E+02 -0.24051348157E+02  0.17816205566E+03  0.18431925502E+03  0.41800000000E+01 0. -1.
        -11    1    4    4    0    0  0.41090857282E+02 -0.47933287491E+02  0.69916387742E+02  0.94203820925E+02  0.00000000000E+00 0. -1.
         11    1    4    4    0    0 -0.32281501144E+02  0.10443092991E+02  0.31181640542E+02  0.46080887732E+02  0.00000000000E+00 0.  1.
</event>
<event>
 8    1  0.7103328E-009  0.1083025E+03  0.7561462E-02  0.1263746E+00
          2   -1    0    0  501    0  0.00000000000E+00  0.00000000000E+00  0.29589695145E+02  0.29589695145E+02  0.00000000000E+00 0. -1.
         -2   -1    0    0    0  501 -0.00000000000E+00 -0.00000000000E+00 -0.42063540967E+03  0.42063540967E+03  0.00000000000E+00 0.  1.
         25    2    1    2    0    0 -0.21941667059E+02  0.13361672932E+02 -0.25311362495E+03  0.28350253637E+03  0.12508880820E+03 0.  0.
         23    2    1    2    0    0  0.21941667059E+02 -0.13361672932E+02 -0.13793208957E+03  0.16672256844E+03  0.90062103217E+02 0.  0.
          5    1    3    3  502    0 -0.68693813623E+02 -0.13562745946E+02 -0.17445028028E+03  0.18802436225E+03  0.41800000000E+01 0. -1.
         -5    1    3    3    0  502  0.46752146564E+02  0.26924418877E+02 -0.78663344669E+02  0.95478174128E+02  0.41800000000E+01 0. -1.
        -11    1    4    4    0    0  0.54068911513E+02  0.66830804258E+01 -0.94684408165E+02  0.10923940638E+03  0.00000000000E+00 0.  1.
         11    1    4    4    0    0 -0.32127244454E+02 -0.20044753357E+02 -0.43247681405E+02  0.57483162058E+02  0.00000000000E+00 0. -1.
</event>
<event>
 8    1  0.7103328E-009  0.9941771E+02  0.7561462E-02  0.1281525E+00
          1   -1    0    0  501    0  0.00000000000E+00  0.00000000000E+00  0.20303786473E+03  0.20303786473E+03  0.00000000000E+00 0. -1.
         -1   -1    0    0    0  501 -0.00000000000E+00 -0.00000000000E+00 -0.12518034651E+03  0.12518034651E+03  0.00000000000E+00 0.  1.
         25    2    1    2    0    0 -0.30506117506E+02  0.15386368568E+02 -0.74500624272E+02  0.14955380749E+03  0.12509450337E+03 0.  0.
         23    2    1    2    0    0  0.30506117506E+02 -0.15386368568E+02  0.15235814250E+03  0.17866440376E+03  0.86836639962E+02 0.  0.
          5    1    3    3  502    0 -0.15785110697E+02  0.69610616184E+02 -0.53988917845E+02  0.89593991179E+02  0.41800000000E+01 0. -1.
         -5    1    3    3    0  502 -0.14721006809E+02 -0.54224247616E+02 -0.20511706427E+02  0.59959816307E+02  0.41800000000E+01 0. -1.
        -11    1    4    4    0    0  0.39538656698E+02  0.12669503388E+02  0.26166820437E+02  0.49076717304E+02  0.00000000000E+00 0. -1.
         11    1    4    4    0    0 -0.90325391924E+01 -0.28055871956E+02  0.12619132206E+03  0.12958768645E+03  0.00000000000E+00 0.  1.
</event>
<event>
 8    1  0.7103328E-009  0.9081156E+02  0.7561462E-02  0.1300898E+00
          1   -1    0    0  501    0  0.00000000000E+00  0.00000000000E+00  0.14646505185E+03  0.14646505185E+03  0.00000000000E+00 0. -1.
         -1   -1    0    0    0  501 -0.00000000000E+00 -0.00000000000E+00 -0.90117563720E+02  0.90117563720E+02  0.00000000000E+00 0.  1.
         25    2    1    2    0    0  0.29020569546E+02 -0.30019907035E+02  0.44005997529E+02  0.13902230777E+03  0.12508911209E+03 0.  0.
         23    2    1    2    0    0 -0.29020569546E+02  0.30019907035E+02  0.12341490606E+02  0.97560307802E+02  0.87305858869E+02 0.  0.
          5    1    3    3  502    0 -0.11055649408E+02 -0.61403190102E+02  0.58815979540E+02  0.85845040554E+02  0.41800000000E+01 0. -1.
         -5    1    3    3    0  502  0.40076218954E+02  0.31383283067E+02 -0.14809982010E+02  0.53177267218E+02  0.41800000000E+01 0. -1.
        -11    1    4    4    0    0 -0.45028418045E+02  0.22086272188E+02 -0.25093366622E+02  0.56080646387E+02  0.00000000000E+00 0.  1.
         11    1    4    4    0    0  0.16007848499E+02  0.79336348470E+01  0.37434857228E+02  0.41479661415E+02  0.00000000000E+00 0. -1.
</event>
<event>
 8    1  0.7103328E-009  0.1131373E+03  0.7561462E-02  0.1254868E+00
          4   -1    0    0  501    0  0.00000000000E+00  0.00000000000E+00  0.50910703576E+02  0.50910703576E+02  0.00000000000E+00 0. -1.
         -4   -1    0    0    0  501 -0.00000000000E+00 -0.00000000000E+00 -0.31944568887E+03  0.31944568887E+03  0.00000000000E+00 0.  1.
         25    2    1    2    0    0 -0.36123104939E+02 -0.52306558539E+02 -0.12331699080E+03  0.18680201636E+03  0.12508820216E+03 0.  0.
         23    2    1    2    0    0  0.36123104939E+02  0.52306558539E+02 -0.14521799450E+03  0.18355437609E+03  0.92536956294E+02 0.  0.
          5    1    3    3  502    0 -0.29500598320E+02  0.26685213485E+02  0.17474930173E+00  0.39998610692E+02  0.41800000000E+01 0.  1.
         -5    1    3    3    0  502 -0.66225066193E+01 -0.78991772024E+02 -0.12349174010E+03  0.14680340566E+03  0.41800000000E+01 0.  1.
        -11    1    4    4    0    0  0.64107537819E+02  0.28502232029E+02 -0.66415374344E+02  0.96608258369E+02  0.00000000000E+00 0.  1.
         11    1    4    4    0    0 -0.27984432880E+02  0.23804326510E+02 -0.78802620153E+02  0.86946117723E+02  0.00000000000E+00 0. -1.
</event>
<event>
 8    1  0.7103328E-009  0.1114124E+03  0.7561462E-02  0.1257976E+00
          1   -1    0    0  501    0  0.00000000000E+00  0.00000000000E+00  0.31195039083E+03  0.31195039083E+03  0.00000000000E+00 0. -1.
         -1   -1    0    0    0  501 -0.00000000000E+00 -0.00000000000E+00 -0.52182666409E+02  0.52182666409E+02  0.00000000000E+00 0.  1.
         25    2    1    2    0    0  0.28761989224E+02  0.60035105486E+02  0.14680698326E+03  0.20403710106E+03  0.12508949740E+03 0.  0.
         23    2    1    2    0    0 -0.28761989224E+02 -0.60035105486E+02  0.11296074116E+03  0.16009595618E+03  0.91864684325E+02 0.  0.
          5    1    3    3  502    0 -0.28969815411E+02  0.65830090254E+02  0.12004528960E+03  0.14000426759E+03  0.41800000000E+01 0. -1.
         -5    1    3    3    0  502  0.57731804635E+02 -0.57949847682E+01  0.26761693661E+02  0.64032833472E+02  0.41800000000E+01 0. -1.
        -11    1    4    4    0    0 -0.14746772568E+02  0.12130336704E+02 -0.62061030372E+01  0.20078049822E+02  0.00000000000E+00 0.  1.
         11    1    4    4    0    0 -0.14015216655E+02 -0.72165442190E+02  0.11916684420E+03  0.14001790636E+03  0.00000000000E+00 0. -1.
</event>
<event>
 8    1  0.7103328E-009  0.1416727E+03  0.7561462E-02  0.1211096E+00
          2   -1    0    0  501    0  0.00000000000E+00  0.00000000000E+00  0.30718735682E+02  0.30718735682E+02  0.00000000000E+00 0. -1.
         -2   -1    0    0    0  501 -0.00000000000E+00 -0.00000000000E+00 -0.71479554306E+03  0.71479554306E+03  0.00000000000E+00 0.  1.
         25    2    1    2    0    0 -0.54987163094E+02 -0.82596818557E+02 -0.40509076463E+03  0.43542208198E+03  0.12509212346E+03 0.  0.
         23    2    1    2    0    0  0.54987163094E+02  0.82596818557E+02 -0.27898604275E+03  0.31009219676E+03  0.92076793498E+02 0.  0.
          5    1    3    3  502    0 -0.75211942241E+02 -0.10472687515E+03 -0.33950164619E+03  0.36318506963E+03  0.41800000000E+01 0. -1.
         -5    1    3    3    0  502  0.20224779147E+02  0.22130056596E+02 -0.65589118436E+02  0.72237012353E+02  0.41800000000E+01 0. -1.
        -11    1    4    4    0    0  0.67744762516E+02  0.37975919109E+02 -0.22933831890E+03  0.24213134410E+03  0.00000000000E+00 0. -1.
         11    1    4    4    0    0 -0.12757599422E+02  0.44620899448E+02 -0.49647723853E+02  0.67960852661E+02  0.00000000000E+00 0.  1.
</event>
<event>
 8    1  0.7103328E-009  0.1829238E+03  0.7561462E-02  0.1165003E+00
         -2   -1    0    0    0  501 -0.00000000000E+00  0.00000000000E+00  0.39770791960E+02  0.39770791960E+02  0.00000000000E+00 0.  1.
          2   -1    0    0  501    0  0.00000000000E+00 -0.00000000000E+00 -0.93487730181E+03  0.93487730181E+03  0.00000000000E+00 0. -1.
         25    2    1    2    0    0  0.84026700981E+02 -0.12640726483E+03 -0.58969081420E+03  0.62162838046E+03  0.12508918403E+03 0.  0.
         23    2    1    2    0    0 -0.84026700981E+02  0.12640726483E+03 -0.30541569565E+03  0.35301971331E+03  0.91131156891E+02 0.  0.
          5    1    3    3  502    0 -0.31512378112E+02 -0.36126490297E+02 -0.11140100122E+03  0.12134994333E+03  0.41800000000E+01 0. -1.
         -5    1    3    3    0  502  0.11553907909E+03 -0.90280774535E+02 -0.47828981299E+03  0.50027843713E+03  0.41800000000E+01 0. -1.
        -11    1    4    4    0    0  0.15387684106E+02  0.12304144102E+02 -0.73496630532E+02  0.76091573014E+02  0.00000000000E+00 0. -1.
         11    1    4    4    0    0 -0.99414385087E+02  0.11410312073E+03 -0.23191906512E+03  0.27692814029E+03  0.00000000000E+00 0.  1.
</event>
<event>
 8    1  0.7103328E-009  0.1277318E+03  0.7561462E-02  0.1230861E+00
         -2   -1    0    0    0  501 -0.00000000000E+00  0.00000000000E+00  0.69065501907E+02  0.69065501907E+02  0.00000000000E+00 0.  1.
          2   -1    0    0  501    0  0.00000000000E+00 -0.00000000000E+00 -0.27909827551E+03  0.27909827551E+03  0.00000000000E+00 0. -1.
         25    2    1    2    0    0  0.27675883548E+02  0.79643507697E+02 -0.95831645682E+02  0.17871693357E+03  0.12508794978E+03 0.  0.
         23    2    1    2    0    0 -0.27675883548E+02 -0.79643507697E+02 -0.11420112792E+03  0.16944684385E+03  0.92527252332E+02 0.  0.
          5    1    3    3  502    0  0.37191672557E+02  0.10258479340E+03 -0.37970248719E+02  0.11561173181E+03  0.41800000000E+01 0. -1.
         -5    1    3    3    0  502 -0.95157890092E+01 -0.22941285702E+02 -0.57861396962E+02  0.63105201755E+02  0.41800000000E+01 0. -1.
        -11    1    4    4    0    0  0.35769458243E+01 -0.88518434918E+02 -0.10108235601E+03  0.13440963715E+03  0.00000000000E+00 0. -1.
         11    1    4    4    0    0 -0.31252829372E+02  0.88749272208E+01 -0.13118771904E+02  0.35037206698E+02  0.00000000000E+00 0.  1.
</event>
<event>
 8    1  0.7103328E-009  0.1073013E+03  0.7561462E-02  0.1265651E+00
          1   -1    0    0  501    0  0.00000000000E+00  0.00000000000E+00  0.28860094860E+03  0.28860094860E+03  0.00000000000E+00 0. -1.
         -1   -1    0    0    0  501 -0.00000000000E+00 -0.00000000000E+00 -0.67928674925E+02  0.67928674925E+02  0.00000000000E+00 0.  1.
         25    2    1    2    0    0  0.24433005420E+02  0.63481895936E+02  0.42642638362E+02  0.14863654406E+03  0.12508998664E+03 0.  0.
         23    2    1    2    0    0 -0.24433005420E+02 -0.63481895936E+02  0.17802963531E+03  0.20789307947E+03  0.83054551808E+02 0.  0.
          5    1    3    3  502    0  0.17537992014E+02 -0.28085118536E+02 -0.18575885424E+02  0.38195431224E+02  0.41800000000E+01 0. -1.
         -5    1    3    3    0  502  0.68950134056E+01  0.91567014472E+02  0.61218523785E+02  0.11044111283E+03  0.41800000000E+01 0. -1.
        -11    1    4    4    0    0 -0.42590922212E+02 -0.33215071467E+02  0.45123619821E+02  0.70380172586E+02  0.00000000000E+00 0.  1.
         11    1    4    4    0    0  0.18157916792E+02 -0.30266824469E+02  0.13290601549E+03  0.13751290688E+03  0.00000000000E+00 0. -1.
</event>
<event>
 8    1  0.7103328E-009  0.1708863E+03  0.7561462E-02  0.1176927E+00
          1   -1    0    0  501    0  0.00000000000E+00  0.00000000000E+00  0.48677622295E+02  0.48677622295E+02  0.00000000000E+00 0. -1.
         -1   -1    0    0    0  501 -0.00000000000E+00 -0.00000000000E+00 -0.84732718067E+03  0.84732718067E+03  0.00000000000E+00 0.  1.
         25    2    1    2    0    0  0.15492879460E+03 -0.55149562879E+02 -0.52323927569E+03  0.56255861443E+03  0.12509376228E+03 0.  0.
         23    2    1    2    0    0 -0.15492879460E+03  0.55149562879E+02 -0.27541028269E+03  0.33344618854E+03  0.91055648678E+02 0.  0.
          5    1    3    3  502    0  0.13837162753E+03 -0.68619128667E+02 -0.51748782547E+03  0.54006149097E+03  0.41800000000E+01 0. -1.
         -5    1    3    3    0  502  0.16557167078E+02  0.13469565788E+02 -0.57514502188E+01  0.22497123456E+02  0.41800000000E+01 0. -1.
        -11    1    4    4    0    0 -0.63214007006E+02  0.12809743716E+02 -0.19167807055E+03  0.20223892540E+03  0.00000000000E+00 0.  1.
         11    1    4    4    0    0 -0.91714787598E+02  0.42339819163E+02 -0.83732212135E+02  0.13120726314E+03  0.00000000000E+00 0. -1.
</event>
<event>
 8    1  0.7103328E-009  0.7301377E+02  0.7561462E-02  0.1350134E+00
         -1   -1    0    0    0  501 -0.00000000000E+00  0.00000000000E+00  0.44315088527E+02  0.44315088527E+02  0.00000000000E+00 0.  1.
          1   -1    0    0  501    0  0.00000000000E+00 -0.00000000000E+00 -0.37359826796E+03  0.37359826796E+03  0.00000000000E+00 0. -1.
         25    2    1    2    0    0 -0.35122323340E+02 -0.54498901377E+02 -0.22826675671E+03  0.26824470600E+03  0.12508318125E+03 0.  0.
         23    2    1    2    0    0  0.35122323340E+02  0.54498901377E+02 -0.10101642272E+03  0.14966865048E+03  0.89401786499E+02 0.  0.
          5    1    3    3  502    0 -0.36384727018E+02 -0.62217533590E+02 -0.45661679076E+02  0.85424417951E+02  0.41800000000E+01 0. -1.
         -5    1    3    3    0  502  0.12624036784E+01  0.77186322123E+01 -0.18260507763E+03  0.18282028805E+03  0.41800000000E+01 0. -1.
        -11    1    4    4    0    0  0.18318826588E+02  0.24684999077E+02  0.10916693730E+02  0.32620588422E+02  0.00000000000E+00 0.  1.
         11    1    4    4    0    0  0.16803496752E+02  0.29813902300E+02 -0.11193311645E+03  0.11704806206E+03  0.00000000000E+00 0. -1.
</event>
<event>
 8    1  0.7103328E-009  0.1388511E+03  0.7561462E-02  0.1214883E+00
         -1   -1    0    0    0  501 -0.00000000000E+00  0.00000000000E+00  0.20482533286E+03  0.20482533286E+03  0.00000000000E+00 0.  1.
          1   -1    0    0  501    0  0.00000000000E+00 -0.00000000000E+00 -0.18521930513E+03  0.18521930513E+03  0.00000000000E+00 0. -1.
         25    2    1    2    0    0  0.45386215248E+02 -0.11401506867E+03  0.11014008191E+03  0.20697260610E+03  0.12508987815E+03 0.  0.
         23    2    1    2    0    0 -0.45386215248E+02  0.11401506867E+03 -0.90534054180E+02  0.18307203190E+03  0.10128973037E+03 0.  0.
          5    1    3    3  502    0  0.11550217690E+01 -0.10790786099E+03  0.25162767529E+02  0.11088768105E+03  0.41800000000E+01 0.  1.
         -5    1    3    3    0  502  0.44231193479E+02 -0.61072076734E+01  0.84977314376E+02  0.96084925045E+02  0.41800000000E+01 0.  1.
        -11    1    4    4    0    0 -0.21944477479E+02  0.83762343963E+02 -0.11011477208E+03  0.14008195240E+03  0.00000000000E+00 0. -1.
         11    1    4    4    0    0 -0.23441737769E+02  0.30252724704E+02  0.19580717900E+02  0.42990079497E+02  0.00000000000E+00 0.  1.
</event>
<event>
 8    1  0.7103328E-009  0.1301705E+03  0.7561462E-02  0.1227203E+00
         -2   -1    0    0    0  501 -0.00000000000E+00  0.00000000000E+00  0.11996263877E+02  0.11996263877E+02  0.00000000000E+00 0.  1.
          2   -1    0    0  501    0  0.00000000000E+00 -0.00000000000E+00 -0.21242794744E+04  0.21242794744E+04  0.00000000000E+00 0. -1.
         25    2    1    2    0    0  0.64113970139E+02  0.82999617679E+02 -0.14815654349E+04  0.14905311843E+04  0.12509011062E+03 0.  0.
         23    2    1    2    0    0 -0.64113970139E+02 -0.82999617679E+02 -0.63071777563E+03  0.64574455399E+03  0.90452080159E+02 0.  0.
          5    1    3    3  502    0  0.75368933650E+02  0.78815677736E+02 -0.66718748751E+03  0.67605399423E+03  0.41800000000E+01 0.  1.
         -5    1    3    3    0  502 -0.11254963511E+02  0.41839399424E+01 -0.81437794737E+03  0.81447719005E+03  0.41800000000E+01 0.  1.
        -11    1    4    4    0    0 -0.87476215587E+02 -0.66800093961E+02 -0.50247701455E+03  0.51439040718E+03  0.00000000000E+00 0. -1.
         11    1    4    4    0    0  0.23362245448E+02 -0.16199523717E+02 -0.12824076109E+03  0.13135414681E+03  0.00000000000E+00 0.  1.
</event>
<event>
 8    1  0.7103328E-009  0.1094077E+03  0.7561462E-02  0.1261671E+00
         -1   -1    0    0    0  501 -0.00000000000E+00  0.00000000000E+00  0.35459162243E+03  0.35459162243E+03  0.00000000000E+00 0.  1.
          1   -1    0    0  501    0  0.00000000000E+00 -0.00000000000E+00 -0.36770022162E+02  0.36770022162E+02  0.00000000000E+00 0. -1.
         25    2    1    2    0    0  0.19478311996E+02 -0.18447421272E+02  0.20930458426E+03  0.24530887409E+03  0.12509325612E+03 0.  0.
         23    2    1    2    0    0 -0.19478311996E+02  0.18447421272E+02  0.10851701601E+03  0.14605277050E+03  0.93998707528E+02 0.  0.
          5    1    3    3  502    0  0.72802858021E+02 -0.11925930652E+02  0.12708975757E+03  0.14700939711E+03  0.41800000000E+01 0.  1.
         -5    1    3    3    0  502 -0.53324546024E+02 -0.65214906196E+01  0.82214826688E+02  0.98299476988E+02  0.41800000000E+01 0.  1.
        -11    1    4    4    0    0 -0.30739287188E+02  0.49354803291E+02  0.93003012479E+02  0.10968300103E+03  0.00000000000E+00 0. -1.
         11    1    4    4    0    0  0.11260975192E+02 -0.30907382019E+02  0.15514003526E+02  0.36369769465E+02  0.00000000000E+00 0.  1.
</event>
<event>
 8    1  0.7103328E-009  0.6838881E+02  0.7561462E-02  0.1365659E+00
          1   -1    0    0  501    0  0.00000000000E+00  0.00000000000E+00  0.18406967396E+03  0.18406967396E+03  0.00000000000E+00 0. -1.
         -1   -1    0    0    0  501 -0.00000000000E+00 -0.00000000000E+00 -0.80293964193E+02  0.80293964193E+02  0.00000000000E+00 0.  1.
         25    2    1    2    0    0  0.55804936854E+02  0.13280491469E+02  0.56888440208E+02  0.14891437769E+03  0.12509450357E+03 0.  0.
         23    2    1    2    0    0 -0.55804936854E+02 -0.13280491469E+02  0.46887269557E+02  0.11544926046E+03  0.88541251757E+02 0.  0.
          5    1    3    3  502    0  0.31134741617E+02  0.25890617646E+02  0.93986521173E+02  0.10242379987E+03  0.41800000000E+01 0.  1.
         -5    1    3    3    0  502  0.24670195237E+02 -0.12610126177E+02 -0.37098080964E+02  0.46490577824E+02  0.41800000000E+01 0.  1.
        -11    1    4    4    0    0 -0.91086535495E+01 -0.18935199804E+02 -0.23034470315E+02  0.31178457047E+02  0.00000000000E+00 0.  1.
         11    1    4    4    0    0 -0.46696283304E+02  0.56547083353E+01  0.69921739872E+02  0.84270803411E+02  0.00000000000E+00 0. -1.
</event>
<event>
 8    1  0.7103328E-009  0.6721823E+02  0.7561462E-02  0.1369816E+00
          4   -1    0    0  501    0  0.00000000000E+00  0.00000000000E+00  0.27070564026E+02  0.27070564026E+02  0.00000000000E+00 0. -1.
         -4   -1    0    0    0  501 -0.00000000000E+00 -0.00000000000E+00 -0.51692164698E+03  0.51692164698E+03  0.00000000000E+00 0.  1.
         25    2    1    2    0    0  0.24502865205E+02  0.19453710985E+02 -0.34261241638E+03  0.36607289455E+03  0.12508900427E+03 0.  0.
         23    2    1    2    0    0 -0.24502865205E+02 -0.19453710985E+02 -0.14723866657E+03  0.17791931645E+03  0.94853681845E+02 0.  0.
          5    1    3    3  502    0  0.40792191584E+02  0.25803777587E+02 -0.34459829859E+03  0.34798749636E+03  0.41800000000E+01 0. -1.
         -5    1    3    3    0  502 -0.16289326379E+02 -0.63500666021E+01  0.19858822024E+01  0.18085398194E+02  0.41800000000E+01 0. -1.
        -11    1    4    4    0    0 -0.39855120303E+01  0.21680703982E+02  0.16408462143E+01  0.22104967940E+02  0.00000000000E+00 0. -1.
         11    1    4    4    0    0 -0.20517353175E+02 -0.41134414968E+02 -0.14887951278E+03  0.15581434851E+03  0.00000000000E+00 0.  1.
</event>
<event>
 8    1  0.7103328E-009  0.1194265E+03  0.7561462E-02  0.1244046E+00
          2   -1    0    0  501    0  0.00000000000E+00  0.00000000000E+00  0.58854429003E+03  0.58854429003E+03  0.00000000000E+00 0. -1.
         -2   -1    0    0    0  501 -0.00000000000E+00 -0.00000000000E+00 -0.45306443493E+02  0.45306443493E+02  0.00000000000E+00 0.  1.
         25    2    1    2    0    0 -0.41790454519E+02  0.48775867790E+02  0.89921188718E+02  0.16690780372E+03  0.12508743899E+03 0.  0.
         23    2    1    2    0    0  0.41790454519E+02 -0.48775867790E+02  0.45331665782E+03  0.46694292981E+03  0.91728839912E+02 0.  0.
          5    1    3    3  502    0  0.17278357254E+01  0.75499269358E+02  0.16563483146E+02  0.77427039617E+02  0.41800000000E+01 0. -1.
         -5    1    3    3    0  502 -0.43518290244E+02 -0.26723401568E+02  0.73357705572E+02  0.89480764100E+02  0.41800000000E+01 0. -1.
        -11    1    4    4    0    0 -0.29145596131E+02 -0.20412294038E+02  0.14525156502E+03  0.14954646322E+03  0.00000000000E+00 0.  1.
         11    1    4    4    0    0  0.70936050650E+02 -0.28363573752E+02  0.30806509281E+03  0.31739646659E+03  0.00000000000E+00 0. -1.
</event>
<event>
 8    1  0.7103328E-009  0.1719318E+03  0.7561462E-02  0.1175848E+00
          2   -1    0    0  501    0  0.00000000000E+00  0.00000000000E+00  0.75580689939E+02  0.75580689939E+02  0.00000000000E+00 0.  1.
         -2   -1    0    0    0  501 -0.00000000000E+00 -0.00000000000E+00 -0.47586194591E+03  0.47586194591E+03  0.00000000000E+00 0. -1.
         25    2    1    2    0    0 -0.15428610985E+03 -0.38880833472E+01 -0.20243050978E+03  0.28362508534E+03  0.12508299989E+03 0.  0.
         23    2    1    2    0    0  0.15428610985E+03  0.38880833472E+01 -0.19785074619E+03  0.26781755051E+03  0.93605564493E+02 0.  0.
          5    1    3    3  502    0 -0.46203205334E+02  0.36052561169E+02 -0.14150104348E+03  0.15321403674E+03  0.41800000000E+01 0. -1.
         -5    1    3    3    0  502 -0.10808290452E+03 -0.39940644516E+02 -0.60929466299E+02  0.13041104860E+03  0.41800000000E+01 0. -1.
        -11    1    4    4    0    0  0.67797738774E+02 -0.33453770125E+02 -0.13450199926E+03  0.15429347336E+03  0.00000000000E+00 0. -1.
         11    1    4    4    0    0  0.86488371078E+02  0.37341853472E+02 -0.63348746935E+02  0.11352407714E+03  0.00000000000E+00 0.  1.
</event>
<event>
 8    1  0.7103328E-009  0.7889708E+02  0.7561462E-02  0.1332211E+00
         -2   -1    0    0    0  501 -0.00000000000E+00  0.00000000000E+00  0.30886507782E+02  0.30886507782E+02  0.00000000000E+00 0.  1.
          2   -1    0    0  501    0  0.00000000000E+00 -0.00000000000E+00 -0.45587238507E+03  0.45587238507E+03  0.00000000000E+00 0. -1.
         25    2    1    2    0    0 -0.43991462570E+01  0.54563282122E+01 -0.32429974589E+03  0.34765881111E+03  0.12508876749E+03 0.  0.
         23    2    1    2    0    0  0.43991462570E+01 -0.54563282122E+01 -0.10068613139E+03  0.13910008174E+03  0.95718397808E+02 0.  0.
          5    1    3    3  502    0 -0.11875716712E+02 -0.26833537835E+02 -0.95493715198E+01  0.31140557101E+02  0.41800000000E+01 0. -1.
         -5    1    3    3    0  502  0.74765704547E+01  0.32289866047E+02 -0.31475037437E+03  0.31651825401E+03  0.41800000000E+01 0. -1.
        -11    1    4    4    0    0 -0.42530649071E+02  0.12763780301E+02 -0.58334589781E+02  0.73312308399E+02  0.00000000000E+00 0. -1.
         11    1    4    4    0    0  0.46929795328E+02 -0.18220108513E+02 -0.42351541612E+02  0.65787773337E+02  0.00000000000E+00 0.  1.
</event>
<event>
 8    1  0.7103328E-009  0.1087128E+03  0.7561462E-02  0.1262972E+00
          1   -1    0    0  501    0  0.00000000000E+00  0.00000000000E+00  0.23517080257E+02  0.23517080257E+02  0.00000000000E+00 0. -1.
         -1   -1    0    0    0  501 -0.00000000000E+00 -0.00000000000E+00 -0.88357721495E+03  0.88357721495E+03  0.00000000000E+00 0.  1.
         25    2    1    2    0    0  0.35700360990E+02 -0.79456534226E+02 -0.58942037965E+03  0.60881277927E+03  0.12509500248E+03 0.  0.
         23    2    1    2    0    0 -0.35700360990E+02  0.79456534226E+02 -0.27063975505E+03  0.29828151594E+03  0.90211579835E+02 0.  0.
          5    1    3    3  502    0  0.10340358772E+02 -0.73105424105E+02 -0.13756425619E+03  0.15618169878E+03  0.41800000000E+01 0. -1.
         -5    1    3    3    0  502  0.25360002218E+02 -0.63511101217E+01 -0.45185612346E+03  0.45263108048E+03  0.41800000000E+01 0. -1.
        -11    1    4    4    0    0  0.23877901213E+02  0.11127454346E+02 -0.24490200629E+02  0.35968657654E+02  0.00000000000E+00 0. -1.
         11    1    4    4    0    0 -0.59578262203E+02  0.68329079880E+02 -0.24614955442E+03  0.26231285829E+03  0.00000000000E+00 0.  1.
</event>
<event>
 8    1  0.7103328E-009  0.1353430E+03  0.7561462E-02  0.1219736E+00
         -1   -1    0    0    0  501 -0.00000000000E+00  0.00000000000E+00  0.10208253816E+04  0.10208253816E+04  0.00000000000E+00 0. -1.
          1   -1    0    0  501    0  0.00000000000E+00 -0.00000000000E+00 -0.21110022119E+02  0.21110022119E+02  0.00000000000E+00 0.  1.
         25    2    1    2    0    0  0.96730970462E+02  0.18711064052E+02  0.56978977789E+03  0.59162043105E+03  0.12508940356E+03 0.  0.
         23    2    1    2    0    0 -0.96730970462E+02 -0.18711064052E+02  0.42992558160E+03  0.45031497268E+03  0.90777664330E+02 0.  0.
          5    1    3    3  502    0  0.49208706662E+02  0.72150076033E+02  0.29985404350E+03  0.31234123981E+03  0.41800000000E+01 0. -1.
         -5    1    3    3    0  502  0.47522263800E+02 -0.53439011982E+02  0.26993573438E+03  0.27927919123E+03  0.41800000000E+01 0. -1.
        -11    1    4    4    0    0 -0.65581511027E+02 -0.37196919019E+02  0.38640945655E+03  0.39369634681E+03  0.00000000000E+00 0. -1.
         11    1    4    4    0    0 -0.31149459435E+02  0.18485854968E+02  0.43516125046E+02  0.56618625876E+02  0.00000000000E+00 0.  1.
</event>
<event>
 8    1  0.7103328E-009  0.1028513E+03  0.7561462E-02  0.1274412E+00
          2   -1    0    0  501    0  0.00000000000E+00  0.00000000000E+00  0.72336525654E+03  0.72336525654E+03  0.00000000000E+00 0. -1.
         -2   -1    0    0    0  501 -0.00000000000E+00 -0.00000000000E+00 -0.23468682795E+02  0.23468682795E+02  0.00000000000E+00 0.  1.
         25    2    1    2    0    0 -0.45360271609E+02 -0.18348143831E+01  0.55046996045E+03  0.56632613851E+03  0.12508875657E+03 0.  0.
         23    2    1    2    0    0  0.45360271609E+02  0.18348143831E+01  0.14942661330E+03  0.18050780083E+03  0.90519791277E+02 0.  0.
          5    1    3    3  502    0 -0.79860061861E+02 -0.31269783545E+02  0.31505599184E+03  0.32654736140E+03  0.41800000000E+01 0. -1.
         -5    1    3    3    0  502  0.34499790252E+02  0.29434969162E+02  0.23541396860E+03  0.23977877711E+03  0.41800000000E+01 0. -1.
        -11    1    4    4    0    0  0.43748543918E+02  0.25457768385E+02  0.30175468335E+02  0.58928702304E+02  0.00000000000E+00 0.  1.
         11    1    4    4    0    0  0.16117276914E+01 -0.23622954002E+02  0.11925114497E+03  0.12157909852E+03  0.00000000000E+00 0. -1.
</event>
<event>
 8    1  0.7103328E-009  0.9309289E+02  0.7561462E-02  0.1295530E+00
         -4   -1    0    0    0  501 -0.00000000000E+00  0.00000000000E+00  0.42706682698E+03  0.42706682698E+03  0.00000000000E+00 0.  1.
          4   -1    0    0  501    0  0.00000000000E+00 -0.00000000000E+00 -0.38644416343E+02  0.38644416343E+02  0.00000000000E+00 0. -1.
         25    2    1    2    0    0 -0.37505126138E+02  0.56904863972E+02  0.23084532967E+03  0.27126215986E+03  0.12509514422E+03 0.  0.
         23    2    1    2    0    0  0.37505126138E+02 -0.56904863972E+02  0.15757708096E+03  0.19444908347E+03  0.91296832286E+02 0.  0.
          5    1    3    3  502    0  0.13684795059E+02 -0.93368718376E+01  0.16170648625E+03  0.16260661391E+03  0.41800000000E+01 0. -1.
         -5    1    3    3    0  502 -0.51189921196E+02  0.66241735810E+02  0.69138843423E+02  0.10865554595E+03  0.41800000000E+01 0. -1.
        -11    1    4    4    0    0  0.10342993267E+02 -0.57188285061E+02  0.15685582110E+03  0.16727589806E+03  0.00000000000E+00 0.  1.
         11    1    4    4    0    0  0.27162132870E+02  0.28342108911E+00  0.72125986575E+00  0.27173185411E+02  0.00000000000E+00 0. -1.
</event>
<event>
 8    1  0.7103328E-009  0.1084613E+03  0.7561462E-02  0.1263446E+00
          1   -1    0    0  501    0  0.00000000000E+00  0.00000000000E+00  0.74195721173E+03  0.74195721173E+03  0.00000000000E+00 0. -1.
         -1   -1    0    0    0  501 -0.00000000000E+00 -0.00000000000E+00 -0.17465510990E+02  0.17465510990E+02  0.00000000000E+00 0.  1.
         25    2    1    2    0    0 -0.43632011200E+01  0.25634902527E+02  0.50804772965E+03  0.52386894904E+03  0.12509993771E+03 0.  0.
         23    2    1    2    0    0  0.43632011200E+01 -0.25634902527E+02  0.21644397109E+03  0.23555377368E+03  0.89226688392E+02 0.  0.
          5    1    3    3  502    0 -0.63740909049E+02  0.25491748590E+01  0.25335063103E+03  0.26129182234E+03  0.41800000000E+01 0. -1.
         -5    1    3    3    0  502  0.59377707929E+02  0.23085727668E+02  0.25469709861E+03  0.26257712670E+03  0.41800000000E+01 0. -1.
        -11    1    4    4    0    0 -0.35828439251E+02 -0.32503372162E+02  0.14988783369E+03  0.15750082206E+03  0.00000000000E+00 0. -1.
         11    1    4    4    0    0  0.40191640371E+02  0.68684696345E+01  0.66556137396E+02  0.78052951616E+02  0.00000000000E+00 0.  1.
</event>
<event>
 8    1  0.7103328E-009  0.1164952E+03  0.7561462E-02  0.1248993E+00
          2   -1    0    0  501    0  0.00000000000E+00  0.00000000000E+00  0.64199463922E+03  0.64199463922E+03  0.00000000000E+00 0.  1.
         -2   -1    0    0    0  501 -0.00000000000E+00 -0.00000000000E+00 -0.33957501443E+02  0.33957501443E+02  0.00000000000E+00 0. -1.
         25    2    1    2    0    0 -0.50461255501E+02 -0.19053896756E+02  0.52356688824E+03  0.54099819350E+03  0.12508944646E+03 0.  0.
         23    2    1    2    0    0  0.50461255501E+02  0.19053896756E+02  0.84470249528E+02  0.13495394716E+03  0.90376742086E+02 0.  0.
          5    1    3    3  502    0 -0.84137595354E+02  0.13518461842E+02  0.27185064537E+03  0.28492477876E+03  0.41800000000E+01 0.  1.
         -5    1    3    3    0  502  0.33676339853E+02 -0.32572358598E+02  0.25171624288E+03  0.25607341474E+03  0.41800000000E+01 0.  1.
        -11    1    4    4    0    0  0.17090214292E+02  0.51395371426E+02  0.25476431006E+02  0.59854892577E+02  0.00000000000E+00 0. -1.
         11    1    4    4    0    0  0.33371041209E+02 -0.32341474671E+02  0.58993818522E+02  0.75099054582E+02  0.00000000000E+00 0.  1.
</event>
<event>
 8    1  0.7103328E-009  0.6981417E+02  0.7561462E-02  0.1360726E+00
          2   -1    0    0  501    0  0.00000000000E+00  0.00000000000E+00  0.65215535080E+02  0.65215535080E+02  0.00000000000E+00 0. -1.
         -2   -1    0    0    0  501 -0.00000000000E+00 -0.00000000000E+00 -0.24892192843E+03  0.24892192843E+03  0.00000000000E+00 0.  1.
         25    2    1    2    0    0  0.31882919498E+02  0.52857110188E+02 -0.13610698923E+03  0.19489068731E+03  0.12508746073E+03 0.  0.
         23    2    1    2    0    0 -0.31882919498E+02 -0.52857110188E+02 -0.47599404122E+02  0.11924677620E+03  0.90242427422E+02 0.  0.
          5    1    3    3  502    0  0.24126429334E+02  0.38932221806E+02 -0.15965620756E+03  0.16614866686E+03  0.41800000000E+01 0.  1.
         -5    1    3    3    0  502  0.77564901642E+01  0.13924888382E+02  0.23549218329E+02  0.28742020458E+02  0.41800000000E+01 0.  1.
        -11    1    4    4    0    0 -0.52852850190E+01 -0.50144438480E+02 -0.68678745780E+02  0.85200757450E+02  0.00000000000E+00 0.  1.
         11    1    4    4    0    0 -0.26597634479E+02 -0.27126717082E+01  0.21079341657E+02  0.34046018745E+02  0.00000000000E+00 0. -1.
</event>
<event>
 8    1  0.7103328E-009  0.1626449E+03  0.7561462E-02  0.1185743E+00
          1   -1    0    0  501    0  0.00000000000E+00  0.00000000000E+00  0.67189287180E+03  0.67189287180E+03  0.00000000000E+00 0. -1.
         -1   -1    0    0    0  501 -0.00000000000E+00 -0.00000000000E+00 -0.58468361070E+02  0.58468361070E+02  0.00000000000E+00 0.  1.
         25    2    1    2    0    0 -0.76218879770E+02  0.14009105420E+03  0.24528841049E+03  0.31819602022E+03  0.12508989513E+03 0.  0.
         23    2    1    2    0    0  0.76218879770E+02 -0.14009105420E+03  0.36813610024E+03  0.41216521265E+03  0.94451856097E+02 0.  0.
          5    1    3    3  502    0 -0.22817258248E+02  0.85032781450E+02  0.35915499560E+02  0.95176660499E+02  0.41800000000E+01 0.  1.
         -5    1    3    3    0  502 -0.53401621522E+02  0.55058272746E+02  0.20937291093E+03  0.22301935972E+03  0.41800000000E+01 0.  1.
        -11    1    4    4    0    0  0.47416759919E+02 -0.69914546117E+02  0.88184770797E+02  0.12211857631E+03  0.00000000000E+00 0.  1.
         11    1    4    4    0    0  0.28802119851E+02 -0.70176508078E+02  0.27995132945E+03  0.29004663634E+03  0.00000000000E+00 0. -1.
</event>
<event>
 8    1  0.7103328E-009  0.1228264E+03  0.7561462E-02  0.1238506E+00
          2   -1    0    0  501    0  0.00000000000E+00  0.00000000000E+00  0.16110664289E+02  0.16110664289E+02  0.00000000000E+00 0. -1.
         -2   -1    0    0    0  501 -0.00000000000E+00 -0.00000000000E+00 -0.13046072139E+04  0.13046072139E+04  0.00000000000E+00 0.  1.
         25    2    1    2    0    0 -0.69049049512E+02  0.31474647383E+02 -0.96156389859E+03  0.97263070069E+03  0.12508766600E+03 0.  0.
         23    2    1    2    0    0  0.69049049512E+02 -0.31474647383E+02 -0.32693265106E+03  0.34808717754E+03  0.92310888698E+02 0.  0.
          5    1    3    3  502    0  0.28304482549E+02  0.14648439068E+02 -0.47689592003E+03  0.47797794032E+03  0.41800000000E+01 0. -1.
         -5    1    3    3    0  502 -0.97353532061E+02  0.16826208315E+02 -0.48466797857E+03  0.49465276037E+03  0.41800000000E+01 0. -1.
        -11    1    4    4    0    0  0.14399202120E+02 -0.53722897305E+02 -0.20820178796E+03  0.21550283345E+03  0.00000000000E+00 0. -1.
         11    1    4    4    0    0  0.54649847392E+02  0.22248249922E+02 -0.11873086311E+03  0.13258434409E+03  0.00000000000E+00 0.  1.
</event>
<event>
 8    1  0.7103328E-009  0.1615376E+03  0.7561462E-02  0.1186972E+00
          2   -1    0    0  501    0  0.00000000000E+00  0.00000000000E+00  0.77899234682E+03  0.77899234682E+03  0.00000000000E+00 0. -1.
         -2   -1    0    0    0  501 -0.00000000000E+00 -0.00000000000E+00 -0.91565213598E+02  0.91565213598E+02  0.00000000000E+00 0.  1.
         25    2    1    2    0    0  0.13503423173E+02  0.14909375974E+03  0.66518354502E+03  0.69320086266E+03  0.12508795223E+03 0.  0.
         23    2    1    2    0    0 -0.13503423173E+02 -0.14909375974E+03  0.22243588208E+02  0.17735669777E+03  0.92462583755E+02 0.  0.
          5    1    3    3  502    0 -0.27040151381E+02  0.96657361444E+02  0.55902581345E+03  0.56797988328E+03  0.41800000000E+01 0. -1.
         -5    1    3    3    0  502  0.40543574554E+02  0.52436398299E+02  0.10615773157E+03  0.12522097938E+03  0.41800000000E+01 0. -1.
        -11    1    4    4    0    0  0.16351251799E+02 -0.43464103977E+02 -0.30516720375E+02  0.55567634396E+02  0.00000000000E+00 0.  1.
         11    1    4    4    0    0 -0.29854674972E+02 -0.10562965577E+03  0.52760308583E+02  0.12178906337E+03  0.00000000000E+00 0. -1.
</event>
<event>
 8    1  0.7103328E-009  0.1385046E+03  0.7561462E-02  0.1215355E+00
          2   -1    0    0  501    0  0.00000000000E+00  0.00000000000E+00  0.22076124487E+04  0.22076124487E+04  0.00000000000E+00 0.  1.
         -2   -1    0    0    0  501 -0.00000000000E+00 -0.00000000000E+00 -0.11049331401E+02  0.11049331401E+02  0.00000000000E+00 0. -1.
         25    2    1    2    0    0 -0.21223539113E+02 -0.94133298605E+02  0.15856072334E+04  0.15934576285E+04  0.12508156826E+03 0.  0.
         23    2    1    2    0    0  0.21223539113E+02  0.94133298605E+02  0.61095588393E+03  0.62520415162E+03  0.91113240429E+02 0.  0.
          5    1    3    3  502    0  0.51822415156E+02 -0.41653040762E+02  0.77781767781E+03  0.78066532575E+03  0.41800000000E+01 0.  1.
         -5    1    3    3    0  502 -0.73045954269E+02 -0.52480257842E+02  0.80778955561E+03  0.81279230277E+03  0.41800000000E+01 0.  1.
        -11    1    4    4    0    0  0.58908889078E+01  0.10264444220E+03  0.58443623748E+03  0.59341073445E+03  0.00000000000E+00 0.  1.
         11    1    4    4    0    0  0.15332650206E+02 -0.85111435914E+01  0.26519646452E+02  0.31793417172E+02  0.00000000000E+00 0. -1.
</event>
<event>
 8    1  0.7103328E-009  0.1111475E+03  0.7561462E-02  0.1258460E+00
         -1   -1    0    0    0  501 -0.00000000000E+00  0.00000000000E+00  0.20128527748E+02  0.20128527748E+02  0.00000000000E+00 0.  1.
          1   -1    0    0  501    0  0.00000000000E+00 -0.00000000000E+00 -0.63846442208E+03  0.63846442208E+03  0.00000000000E+00 0. -1.
         25    2    1    2    0    0  0.32738067992E+02 -0.11438013271E+02 -0.38294484269E+03  0.40434801059E+03  0.12509177382E+03 0.  0.
         23    2    1    2    0    0 -0.32738067992E+02  0.11438013271E+02 -0.23539105164E+03  0.25424493924E+03  0.89604311804E+02 0.  0.
          5    1    3    3  502    0 -0.75321633667E+01  0.51572814433E+02 -0.19863630128E+03  0.20540287549E+03  0.41800000000E+01 0. -1.
         -5    1    3    3    0  502  0.40270231359E+02 -0.63010827704E+02 -0.18430854141E+03  0.19894513510E+03  0.41800000000E+01 0. -1.
        -11    1    4    4    0    0 -0.56485190412E+02 -0.16112582093E+02 -0.16233959725E+03  0.17263932597E+03  0.00000000000E+00 0. -1.
         11    1    4    4    0    0  0.23747122420E+02  0.27550595364E+02 -0.73051454393E+02  0.81605613269E+02  0.00000000000E+00 0.  1.
</event>
<event>
 8    1  0.7103328E-009  0.1113605E+03  0.7561462E-02  0.1258071E+00
          3   -1    0    0  501    0  0.00000000000E+00  0.00000000000E+00  0.42474200168E+02  0.42474200168E+02  0.00000000000E+00 0.  1.
         -3   -1    0    0    0  501 -0.00000000000E+00 -0.00000000000E+00 -0.61246199871E+03  0.61246199871E+03  0.00000000000E+00 0. -1.
         25    2    1    2    0    0 -0.88026585571E+02 -0.64867044930E+01 -0.45822847303E+03  0.48312727721E+03  0.12509146806E+03 0.  0.
         23    2    1    2    0    0  0.88026585571E+02  0.64867044930E+01 -0.11175932551E+03  0.17180892167E+03  0.96111402159E+02 0.  0.
          5    1    3    3  502    0  0.15231170096E+02 -0.23818161002E+02 -0.23265473730E+03  0.23440348232E+03  0.41800000000E+01 0.  1.
         -5    1    3    3    0  502 -0.10325775567E+03  0.17331456509E+02 -0.22557373573E+03  0.24872379488E+03  0.41800000000E+01 0.  1.
        -11    1    4    4    0    0  0.63050005145E+02 -0.16978985895E+01 -0.66028965968E+01  0.63417538992E+02  0.00000000000E+00 0.  1.
         11    1    4    4    0    0  0.24976580426E+02  0.81846030824E+01 -0.10515642891E+03  0.10839138268E+03  0.00000000000E+00 0. -1.
</event>
<event>
 8    1  0.7103328E-009  0.8039480E+02  0.7561462E-02  0.1327935E+00
          3   -1    0    0  501    0  0.00000000000E+00  0.00000000000E+00  0.27372102350E+02  0.27372102350E+02  0.00000000000E+00 0. -1.
         -3   -1    0    0    0  501 -0.00000000000E+00 -0.00000000000E+00 -0.45809706408E+03  0.45809706408E+03  0.00000000000E+00 0.  1.
         25    2    1    2    0    0 -0.63265839553E+01  0.21043351956E+02 -0.28802548657E+03  0.31478393585E+03  0.12508955605E+03 0.  0.
         23    2    1    2    0    0  0.63265839553E+01 -0.21043351956E+02 -0.14269947516E+03  0.17068523058E+03  0.91035484286E+02 0.  0.
          5    1    3    3  502    0 -0.28419382038E+02  0.49949653700E+02 -0.26573876136E+03  0.27191394019E+03  0.41800000000E+01 0. -1.
         -5    1    3    3    0  502  0.22092798082E+02 -0.28906301744E+02 -0.22286725205E+02  0.42869995661E+02  0.41800000000E+01 0. -1.
        -11    1    4    4    0    0  0.32346513454E+02 -0.24116033148E+02 -0.19650745667E+02  0.44877965559E+02  0.00000000000E+00 0. -1.
         11    1    4    4    0    0 -0.26019929498E+02  0.30726811925E+01 -0.12304872950E+03  0.12580726502E+03  0.00000000000E+00 0.  1.
</event>
<event>
 8    1  0.7103328E-009  0.1112804E+03  0.7561462E-02  0.1258217E+00
         -2   -1    0    0    0  501 -0.00000000000E+00  0.00000000000E+00  0.25339359728E+03  0.25339359728E+03  0.00000000000E+00 0.  1.
          2   -1    0    0  501    0  0.00000000000E+00 -0.00000000000E+00 -0.83707491887E+02  0.83707491887E+02  0.00000000000E+00 0. -1.
         25    2    1    2    0    0 -0.27253126815E+02  0.39147666764E+02  0.18971757374E+03  0.23219662133E+03  0.12508893011E+03 0.  0.
         23    2    1    2    0    0  0.27253126815E+02 -0.39147666764E+02 -0.20031468347E+02  0.10490446784E+03  0.91260149650E+02 0.  0.
          5    1    3    3  502    0  0.16249481789E+02  0.66982313308E+02  0.15539283577E+03  0.17004435234E+03  0.41800000000E+01 0.  1.
         -5    1    3    3    0  502 -0.43502608604E+02 -0.27834646544E+02  0.34324737974E+02  0.62152268990E+02  0.41800000000E+01 0.  1.
        -11    1    4    4    0    0  0.11433262903E+02  0.29295291979E+02 -0.13923925986E+02  0.34391995400E+02  0.00000000000E+00 0. -1.
         11    1    4    4    0    0  0.15819863912E+02 -0.68442958743E+02 -0.61075423612E+01  0.70512472439E+02  0.00000000000E+00 0.  1.
</event>
<event>
 8    1  0.7103328E-009  0.1761169E+03  0.7561462E-02  0.1171615E+00
         -1   -1    0    0    0  501 -0.00000000000E+00  0.00000000000E+00  0.53229010985E+03  0.53229010985E+03  0.00000000000E+00 0.  1.
          1   -1    0    0  501    0  0.00000000000E+00 -0.00000000000E+00 -0.76833344214E+02  0.76833344214E+02  0.00000000000E+00 0. -1.
         25    2    1    2    0    0  0.35817442737E+02 -0.14203148999E+03  0.10685718889E+03  0.22028247976E+03  0.12510027464E+03 0.  0.
         23    2    1    2    0    0 -0.35817442737E+02  0.14203148999E+03  0.34859957674E+03  0.38884097430E+03  0.90663140460E+02 0.  0.
          5    1    3    3  502    0  0.61272238265E+02 -0.14417874410E+03  0.62080644830E+02  0.16856238102E+03  0.41800000000E+01 0. -1.
         -5    1    3    3    0  502 -0.25454795528E+02  0.21472541038E+01  0.44776544063E+02  0.51720098741E+02  0.41800000000E+01 0. -1.
        -11    1    4    4    0    0 -0.40470909788E+02  0.16002076414E+02  0.62299278997E+02  0.75994481064E+02  0.00000000000E+00 0. -1.
         11    1    4    4    0    0  0.46534670512E+01  0.12602941358E+03  0.28630029774E+03  0.31284649324E+03  0.00000000000E+00 0.  1.
</event>
<event>
 8    1  0.7103328E-009  0.1059481E+03  0.7561462E-02  0.1268263E+00
         -2   -1    0    0    0  501 -0.00000000000E+00  0.00000000000E+00  0.92317167494E+02  0.92317167494E+02  0.00000000000E+00 0.  1.
          2   -1    0    0  501    0  0.00000000000E+00 -0.00000000000E+00 -0.16342784344E+03  0.16342784344E+03  0.00000000000E+00 0. -1.
         25    2    1    2    0    0 -0.16276303892E+02  0.53264206444E+02 -0.40467137617E+02  0.14277445831E+03  0.12507982636E+03 0.  0.
         23    2    1    2    0    0  0.16276303892E+02 -0.53264206444E+02 -0.30643538332E+02  0.11297055263E+03  0.93388037580E+02 0.  0.
          5    1    3    3  502    0  0.20591085289E+02  0.85113546497E+02 -0.30857865010E+02  0.92940781273E+02  0.41800000000E+01 0. -1.
         -5    1    3    3    0  502 -0.36867389181E+02 -0.31849340053E+02 -0.96092726073E+01  0.49833677035E+02  0.41800000000E+01 0. -1.
        -11    1    4    4    0    0  0.27972054481E+02 -0.87568528276E+01  0.26559948671E+02  0.39554382522E+02  0.00000000000E+00 0.  1.
         11    1    4    4    0    0 -0.11695750589E+02 -0.44507353616E+02 -0.57203487002E+02  0.73416170106E+02  0.00000000000E+00 0. -1.
</event>
<event>
 8    1  0.7103328E-009  0.1061754E+03  0.7561462E-02  0.1267821E+00
          2   -1    0    0  501    0  0.00000000000E+00  0.00000000000E+00  0.20938798992E+03  0.20938798992E+03  0.00000000000E+00 0. -1.
         -2   -1    0    0    0  501 -0.00000000000E+00 -0.00000000000E+00 -0.94734292964E+02  0.94734292964E+02  0.00000000000E+00 0.  1.
         25    2    1    2    0    0  0.68142045974E+02  0.56006859877E+02  0.78646358390E+02  0.17208491660E+03  0.12509141477E+03 0.  0.
         23    2    1    2    0    0 -0.68142045974E+02 -0.56006859877E+02  0.36007338568E+02  0.13203736629E+03  0.91417891479E+02 0.  0.
          5    1    3    3  502    0  0.24685083498E+02  0.20506942533E+02 -0.33521454032E+02  0.46594509545E+02  0.41800000000E+01 0. -1.
         -5    1    3    3    0  502  0.43456962476E+02  0.35499917344E+02  0.11216781242E+03  0.12549040705E+03  0.41800000000E+01 0. -1.
        -11    1    4    4    0    0  0.21292712204E+01 -0.53354820953E+02  0.81954233355E+00  0.53403580072E+02  0.00000000000E+00 0.  1.
         11    1    4    4    0    0 -0.70271317194E+02 -0.26520389242E+01  0.35187796234E+02  0.78633786215E+02  0.00000000000E+00 0. -1.
</event>
<event>
 8    1  0.7103328E-009  0.1062358E+03  0.7561462E-02  0.1267704E+00
          1   -1    0    0  501    0  0.00000000000E+00  0.00000000000E+00  0.15396043019E+03  0.15396043019E+03  0.00000000000E+00 0. -1.
         -1   -1    0    0    0  501 -0.00000000000E+00 -0.00000000000E+00 -0.10352145449E+03  0.10352145449E+03  0.00000000000E+00 0.  1.
         25    2    1    2    0    0  0.56348797606E+02  0.23497872107E+02  0.46260802880E+02  0.14667854399E+03  0.12508875408E+03 0.  0.
         23    2    1    2    0    0 -0.56348797606E+02 -0.23497872107E+02  0.41781728172E+01  0.11080334070E+03  0.92371998984E+02 0.  0.
          5    1    3    3  502    0  0.67548544122E+02 -0.22943825515E+02 -0.10657155839E+02  0.72251451977E+02  0.41800000000E+01 0.  1.
         -5    1    3    3    0  502 -0.11199746516E+02  0.46441697622E+02  0.56917958719E+02  0.74427092008E+02  0.41800000000E+01 0.  1.
        -11    1    4    4    0    0 -0.44045825582E+02  0.19618552536E+02 -0.27867698440E+02  0.55691390458E+02  0.00000000000E+00 0.  1.
         11    1    4    4    0    0 -0.12302972024E+02 -0.43116424642E+02  0.32045871257E+02  0.55111950240E+02  0.00000000000E+00 0. -1.
</event>
<event>
 8    1  0.7103328E-009  0.1456395E+03  0.7561462E-02  0.1205936E+00
          1   -1    0    0  501    0  0.00000000000E+00  0.00000000000E+00  0.14452392180E+03  0.14452392180E+03  0.00000000000E+00 0. -1.
         -1   -1    0    0    0  501 -0.00000000000E+00 -0.00000000000E+00 -0.18817847322E+03  0.18817847322E+03  0.00000000000E+00 0.  1.
         25    2    1    2    0    0 -0.93029599264E+02  0.82703295190E+02 -0.14992850131E+02  0.17710561714E+03  0.12508905905E+03 0.  0.
         23    2    1    2    0    0  0.93029599264E+02 -0.82703295190E+02 -0.28661701287E+02  0.15559677787E+03  0.88851127115E+02 0.  0.
          5    1    3    3  502    0 -0.62402652596E+02  0.10012392651E+03  0.28034458196E+02  0.12133546455E+03  0.41800000000E+01 0.  1.
         -5    1    3    3    0  502 -0.30626946667E+02 -0.17420631324E+02 -0.43027308327E+02  0.55770152589E+02  0.41800000000E+01 0.  1.
        -11    1    4    4    0    0  0.32394867047E+02  0.32490436462E+01 -0.37947978764E+02  0.50000327878E+02  0.00000000000E+00 0.  1.
         11    1    4    4    0    0  0.60634732217E+02 -0.85952338836E+02  0.92862774771E+01  0.10559645000E+03  0.00000000000E+00 0. -1.
</event>
<event>
 8    1  0.7103328E-009  0.1267921E+03  0.7561462E-02  0.1232295E+00
         -2   -1    0    0    0  501 -0.00000000000E+00  0.00000000000E+00  0.43396006113E+02  0.43396006113E+02  0.00000000000E+00 0.  1.
          2   -1    0    0  501    0  0.00000000000E+00 -0.00000000000E+00 -0.55087560206E+03  0.55087560206E+03  0.00000000000E+00 0. -1.
         25    2    1    2    0    0 -0.40712505660E+02 -0.10050782608E+03 -0.24258553845E+03  0.29369118888E+03  0.12508972677E+03 0.  0.
         23    2    1    2    0    0  0.40712505660E+02  0.10050782608E+03 -0.26489405750E+03  0.30058041929E+03  0.91762713235E+02 0.  0.
          5    1    3    3  502    0  0.21173501516E+02 -0.15934912324E+02  0.26614161230E+01  0.26959119663E+02  0.41800000000E+01 0.  1.
         -5    1    3    3    0  502 -0.61886007176E+02 -0.84572913755E+02 -0.24524695457E+03  0.26673206922E+03  0.41800000000E+01 0.  1.
        -11    1    4    4    0    0  0.39391727750E+02  0.25649846463E+02 -0.34449305191E+02  0.58278447704E+02  0.00000000000E+00 0.  1.
         11    1    4    4    0    0  0.13207779102E+01  0.74857979616E+02 -0.23044475231E+03  0.24230197158E+03  0.00000000000E+00 0. -1.
</event>
<event>
 8    1  0.7103328E-009  0.1334275E+03  0.7561462E-02  0.1222457E+00
         -1   -1    0    0    0  501 -0.00000000000E+00  0.00000000000E+00  0.58053869756E+03  0.58053869756E+03  0.00000000000E+00 0.  1.
          1   -1    0    0  501    0  0.00000000000E+00 -0.00000000000E+00 -0.52263691407E+02  0.52263691407E+02  0.00000000000E+00 0. -1.
         25    2    1    2    0    0  0.36355628504E+02 -0.11888864787E+03  0.18084162646E+03  0.25260212255E+03  0.12509155103E+03 0.  0.
         23    2    1    2    0    0 -0.36355628504E+02  0.11888864787E+03  0.34743337970E+03  0.38020026642E+03  0.91575362091E+02 0.  0.
          5    1    3    3  502    0 -0.63174886177E+01 -0.86614714669E+02  0.17889062852E+03  0.19890034900E+03  0.41800000000E+01 0. -1.
         -5    1    3    3    0  502  0.42673117122E+02 -0.32273933203E+02  0.19509979359E+01  0.53701773548E+02  0.41800000000E+01 0. -1.
        -11    1    4    4    0    0 -0.23338166448E+01  0.43162847427E+02  0.31352341912E+02  0.53398946071E+02  0.00000000000E+00 0. -1.
         11    1    4    4    0    0 -0.34021811859E+02  0.75725800444E+02  0.31608103778E+03  0.32680132035E+03  0.00000000000E+00 0.  1.
</event>
<event>
 8    1  0.7103328E-009  0.1081904E+03  0.7561462E-02  0.1263958E+00
          2   -1    0    0  501    0  0.00000000000E+00  0.00000000000E+00  0.42937829293E+03  0.42937829293E+03  0.00000000000E+00 0. -1.
         -2   -1    0    0    0  501 -0.00000000000E+00 -0.00000000000E+00 -0.41025907104E+02  0.41025907104E+02  0.00000000000E+00 0.  1.
         25    2    1    2    0    0 -0.28575881600E+02 -0.11709410098E+02  0.33805018201E+03  0.36177333359E+03  0.12509327739E+03 0.  0.
         23    2    1    2    0    0  0.28575881600E+02  0.11709410098E+02  0.50302203824E+02  0.10863086645E+03  0.91195735326E+02 0.  0.
          5    1    3    3  502    0 -0.26967757562E+02 -0.66536913839E+02  0.16000713319E+03  0.17542569915E+03  0.41800000000E+01 0.  1.
         -5    1    3    3    0  502 -0.16081240385E+01  0.54827503741E+02  0.17804304882E+03  0.18634763444E+03  0.41800000000E+01 0.  1.
        -11    1    4    4    0    0  0.31500461259E+02  0.45608679513E+02  0.10758997845E+02  0.56464030507E+02  0.00000000000E+00 0.  1.
         11    1    4    4    0    0 -0.29245796586E+01 -0.33899269415E+02  0.39543205979E+02  0.52166835941E+02  0.00000000000E+00 0. -1.
</event>
<event>
 8    1  0.7103328E-009  0.1072913E+03  0.7561462E-02  0.1265670E+00
         -2   -1    0    0    0  501 -0.00000000000E+00  0.00000000000E+00  0.34921694969E+02  0.34921694969E+02  0.00000000000E+00 0.  1.
          2   -1    0    0  501    0  0.00000000000E+00 -0.00000000000E+00 -0.53117104936E+03  0.53117104936E+03  0.00000000000E+00 0. -1.
         25    2    1    2    0    0  0.48370017112E+02  0.24990560599E+02 -0.39539788157E+03  0.41827189435E+03  0.12509079175E+03 0.  0.
         23    2    1    2    0    0 -0.48370017112E+02 -0.24990560599E+02 -0.10085147282E+03  0.14782084998E+03  0.93358435311E+02 0.  0.
          5    1    3    3  502    0  0.40755234649E+02  0.74946712055E+02 -0.23434085292E+03  0.24942154387E+03  0.41800000000E+01 0.  1.
         -5    1    3    3    0  502  0.76147824630E+01 -0.49956151457E+02 -0.16105702865E+03  0.16885035048E+03  0.41800000000E+01 0.  1.
        -11    1    4    4    0    0 -0.92513321954E+01  0.18061695220E+02 -0.85197828934E+02  0.87581288166E+02  0.00000000000E+00 0. -1.
         11    1    4    4    0    0 -0.39118684916E+02 -0.43052255818E+02 -0.15653643890E+02  0.60239561815E+02  0.00000000000E+00 0.  1.
</event>
<event>
 8    1  0.7103328E-009  0.1589249E+03  0.7561462E-02  0.1189916E+00
         -1   -1    0    0    0  501 -0.00000000000E+00  0.00000000000E+00  0.21506542234E+03  0.21506542234E+03  0.00000000000E+00 0.  1.
          1   -1    0    0  501    0  0.00000000000E+00 -0.00000000000E+00 -0.21042020694E+03  0.21042020694E+03  0.00000000000E+00 0. -1.
         25    2    1    2    0    0  0.14497539124E+03 -0.46753322323E+02 -0.97194160909E+02  0.21977050216E+03  0.12509449025E+03 0.  0.
         23    2    1    2    0    0 -0.14497539124E+03  0.46753322323E+02  0.10183937631E+03  0.20571512712E+03  0.93507848593E+02 0.  0.
          5    1    3    3  502    0  0.34016970955E+02  0.15906514762E+02 -0.83362114600E+02  0.91525330239E+02  0.41800000000E+01 0. -1.
         -5    1    3    3    0  502  0.11095842028E+03 -0.62659837085E+02 -0.13832046309E+02  0.12824517192E+03  0.41800000000E+01 0. -1.
        -11    1    4    4    0    0 -0.69492206237E+02  0.26910526830E+02  0.10363563594E+03  0.12764673211E+03  0.00000000000E+00 0.  1.
         11    1    4    4    0    0 -0.75483185001E+02  0.19842795493E+02 -0.17962596371E+01  0.78068395011E+02  0.00000000000E+00 0. -1.
</event>
<event>
 8    1  0.7103328E-009  0.8932591E+02  0.7561462E-02  0.1304492E+00
         -1   -1    0    0    0  501 -0.00000000000E+00  0.00000000000E+00  0.16721710615E+02  0.16721710615E+02  0.00000000000E+00 0.  1.
          1   -1    0    0  501    0  0.00000000000E+00 -0.00000000000E+00 -0.87978841098E+03  0.87978841098E+03  0.00000000000E+00 0. -1.
         25    2    1    2    0    0  0.34581223816E+02  0.40494950198E+02 -0.50731704003E+03  0.52521844118E+03  0.12509248505E+03 0.  0.
         23    2    1    2    0    0 -0.34581223816E+02 -0.40494950198E+02 -0.35574966034E+03  0.37129168042E+03  0.91999940693E+02 0.  0.
          5    1    3    3  502    0  0.45103990145E+01  0.41544705495E+02 -0.48669122565E+03  0.48849987490E+03  0.41800000000E+01 0.  1.
         -5    1    3    3    0  502  0.30070824801E+02 -0.10497552969E+01 -0.20625814377E+02  0.36718566273E+02  0.41800000000E+01 0.  1.
        -11    1    4    4    0    0 -0.48545568330E+02  0.13594717905E+02 -0.16484695602E+03  0.17238331552E+03  0.00000000000E+00 0.  1.
         11    1    4    4    0    0  0.13964344515E+02 -0.54089668104E+02 -0.19090270432E+03  0.19890836491E+03  0.00000000000E+00 0. -1.
</event>
<event>
 8    1  0.7103328E-009  0.1083045E+03  0.7561462E-02  0.1263742E+00
         -4   -1    0    0    0  501 -0.00000000000E+00  0.00000000000E+00  0.23412333511E+02  0.23412333511E+02  0.00000000000E+00 0.  1.
          4   -1    0    0  501    0  0.00000000000E+00 -0.00000000000E+00 -0.87406129097E+03  0.87406129097E+03  0.00000000000E+00 0. -1.
         25    2    1    2    0    0 -0.29789044679E+02 -0.85500413122E+02 -0.39711422456E+03  0.42608044592E+03  0.12508849358E+03 0.  0.
         23    2    1    2    0    0  0.29789044679E+02  0.85500413122E+02 -0.45353473290E+03  0.47139317856E+03  0.91214401366E+02 0.  0.
          5    1    3    3  502    0 -0.13268417657E+02 -0.42339345259E+02 -0.36930032214E+03  0.37197966530E+03  0.41800000000E+01 0. -1.
         -5    1    3    3    0  502 -0.16520627022E+02 -0.43161067863E+02 -0.27813902417E+02  0.54100780622E+02  0.41800000000E+01 0. -1.
        -11    1    4    4    0    0  0.70526722948E+01  0.98964507845E+02 -0.39322905529E+03  0.40555246754E+03  0.00000000000E+00 0. -1.
         11    1    4    4    0    0  0.22736372384E+02 -0.13464094723E+02 -0.60305677611E+02  0.65840711023E+02  0.00000000000E+00 0.  1.
</event>
<event>
 8    1  0.7103328E-009  0.1935542E+03  0.7561462E-02  0.1155294E+00
         -2   -1    0    0    0  501 -0.00000000000E+00  0.00000000000E+00  0.30614638953E+03  0.30614638953E+03  0.00000000000E+00 0.  1.
          2   -1    0    0  501    0  0.00000000000E+00 -0.00000000000E+00 -0.13790277877E+03  0.13790277877E+03  0.00000000000E+00 0. -1.
         25    2    1    2    0    0 -0.11284525207E+02 -0.17298927744E+03  0.10345685152E+03  0.23749567693E+03  0.12509294870E+03 0.  0.
         23    2    1    2    0    0  0.11284525207E+02  0.17298927744E+03  0.64786759235E+02  0.20655349137E+03  0.91729984215E+02 0.  0.
          5    1    3    3  502    0  0.35848943903E+02 -0.97725989557E+02  0.10591024325E+03  0.14855964405E+03  0.41800000000E+01 0. -1.
         -5    1    3    3    0  502 -0.47133469110E+02 -0.75263287887E+02 -0.24533917292E+01  0.88936032883E+02  0.41800000000E+01 0. -1.
        -11    1    4    4    0    0  0.49433301583E+02  0.89735710952E+02  0.19114638560E+02  0.10421860934E+03  0.00000000000E+00 0. -1.
         11    1    4    4    0    0 -0.38148776376E+02  0.83253566492E+02  0.45672120675E+02  0.10233488203E+03  0.00000000000E+00 0.  1.
</event>
<event>
 8    1  0.7103328E-009  0.1298283E+03  0.7561462E-02  0.1227711E+00
          3   -1    0    0  501    0  0.00000000000E+00  0.00000000000E+00  0.11183919534E+03  0.11183919534E+03  0.00000000000E+00 0.  1.
         -3   -1    0    0    0  501 -0.00000000000E+00 -0.00000000000E+00 -0.16694827977E+03  0.16694827977E+03  0.00000000000E+00 0. -1.
         25    2    1    2    0    0 -0.52831376437E+02 -0.61203965143E+02 -0.11840749745E+02  0.14941433033E+03  0.12508940430E+03 0.  0.
         23    2    1    2    0    0  0.52831376437E+02  0.61203965143E+02 -0.43268334689E+02  0.12937314478E+03  0.91258874192E+02 0.  0.
          5    1    3    3  502    0 -0.89393643071E+02 -0.19290699623E+02 -0.17997823777E+02  0.93299242088E+02  0.41800000000E+01 0. -1.
         -5    1    3    3    0  502  0.36562266634E+02 -0.41913265520E+02  0.61570740316E+01  0.56115088243E+02  0.41800000000E+01 0. -1.
        -11    1    4    4    0    0 -0.20136992847E+02  0.20692978319E+02 -0.35195591266E+02  0.45523922032E+02  0.00000000000E+00 0. -1.
         11    1    4    4    0    0  0.72968369284E+02  0.40510986824E+02 -0.80727434233E+01  0.83849222750E+02  0.00000000000E+00 0.  1.
</event>
<event>
 8    1  0.7103328E-009  0.1082460E+03  0.7561462E-02  0.1263853E+00
         -2   -1    0    0    0  501 -0.00000000000E+00  0.00000000000E+00  0.23284051728E+03  0.23284051728E+03  0.00000000000E+00 0.  1.
          2   -1    0    0  501    0  0.00000000000E+00 -0.00000000000E+00 -0.59639192607E+02  0.59639192607E+02  0.00000000000E+00 0. -1.
         25    2    1    2    0    0 -0.48278639826E+02  0.15604281424E+02  0.81352157335E+02  0.15760726944E+03  0.12509019632E+03 0.  0.
         23    2    1    2    0    0  0.48278639826E+02 -0.15604281424E+02  0.91849167338E+02  0.13487244044E+03  0.84734792079E+02 0.  0.
          5    1    3    3  502    0  0.95223446600E+01 -0.39479476957E+02  0.63807800092E+02  0.75750986140E+02  0.41800000000E+01 0. -1.
         -5    1    3    3    0  502 -0.57800984486E+02  0.55083758381E+02  0.17544357244E+02  0.81856283302E+02  0.41800000000E+01 0. -1.
        -11    1    4    4    0    0  0.67106790632E+00 -0.41507896477E+02  0.56705606825E+02  0.70277177288E+02  0.00000000000E+00 0.  1.
         11    1    4    4    0    0  0.47607571920E+02  0.25903615053E+02  0.35143560512E+02  0.64595263157E+02  0.00000000000E+00 0. -1.
</event>
<event>
 8    1  0.7103328E-009  0.1202052E+03  0.7561462E-02  0.1242759E+00
         -3   -1    0    0    0  501 -0.00000000000E+00  0.00000000000E+00  0.26590438383E+03  0.26590438383E+03  0.00000000000E+00 0.  1.
          3   -1    0    0  501    0  0.00000000000E+00 -0.00000000000E+00 -0.70214311171E+02  0.70214311171E+02  0.00000000000E+00 0. -1.
         25    2    1    2    0    0  0.14194309866E+02 -0.52885728563E+02  0.29692470122E+02  0.13974154031E+03  0.12509067347E+03 0.  0.
         23    2    1    2    0    0 -0.14194309866E+02  0.52885728563E+02  0.16599760254E+03  0.19637715469E+03  0.89500860987E+02 0.  0.
          5    1    3    3  502    0 -0.63834326675E+01 -0.91910906489E+02  0.19356440328E+02  0.94236442667E+02  0.41800000000E+01 0. -1.
         -5    1    3    3    0  502  0.20577742533E+02  0.39025177926E+02  0.10336029794E+02  0.45505097647E+02  0.41800000000E+01 0. -1.
        -11    1    4    4    0    0  0.12650015605E+02  0.70587620294E+02  0.10111052927E+03  0.12395956664E+03  0.00000000000E+00 0. -1.
         11    1    4    4    0    0 -0.26844325471E+02 -0.17701891731E+02  0.64887073271E+02  0.72417588047E+02  0.00000000000E+00 0.  1.
</event>
<event>
 8    1  0.7103328E-009  0.9952575E+02  0.7561462E-02  0.1281296E+00
         -1   -1    0    0    0  501 -0.00000000000E+00  0.00000000000E+00  0.40229479706E+02  0.40229479706E+02  0.00000000000E+00 0.  1.
          1   -1    0    0  501    0  0.00000000000E+00 -0.00000000000E+00 -0.44531618050E+03  0.44531618050E+03  0.00000000000E+00 0. -1.
         25    2    1    2    0    0  0.58298541160E+02  0.51649735025E+02 -0.18710150832E+03  0.23815808592E+03  0.12508350988E+03 0.  0.
         23    2    1    2    0    0 -0.58298541160E+02 -0.51649735025E+02 -0.21798519247E+03  0.24738757429E+03  0.87273436645E+02 0.  0.
          5    1    3    3  502    0  0.58087790689E+02  0.21108102663E+02 -0.15561281218E+02  0.63869940491E+02  0.41800000000E+01 0. -1.
         -5    1    3    3    0  502  0.21075047144E+00  0.30541632362E+02 -0.17154022711E+03  0.17428814543E+03  0.41800000000E+01 0. -1.
        -11    1    4    4    0    0 -0.33693326528E+02 -0.68581473520E+02 -0.19580010029E+03  0.21018167864E+03  0.00000000000E+00 0. -1.
         11    1    4    4    0    0 -0.24605214632E+02  0.16931738495E+02 -0.22185092183E+02  0.37205895645E+02  0.00000000000E+00 0.  1.
</event>
<event>
 8    1  0.7103328E-009  0.7831152E+02  0.7561462E-02  0.1333913E+00
         -1   -1    0    0    0  501 -0.00000000000E+00  0.00000000000E+00  0.44049003451E+02  0.44049003451E+02  0.00000000000E+00 0.  1.
          1   -1    0    0  501    0  0.00000000000E+00 -0.00000000000E+00 -0.32896576446E+03  0.32896576446E+03  0.00000000000E+00 0. -1.
         25    2    1    2    0    0  0.21059344150E+02 -0.32138433014E+01 -0.23232631881E+03  0.26472051221E+03  0.12509039296E+03 0.  0.
         23    2    1    2    0    0 -0.21059344150E+02  0.32138433014E+01 -0.52590442200E+02  0.10829425569E+03  0.92239180617E+02 0.  0.
          5    1    3    3  502    0  0.39988735361E+02 -0.99820931988E+01 -0.11571644797E+02  0.43012980642E+02  0.41800000000E+01 0.  1.
         -5    1    3    3    0  502 -0.18929391211E+02  0.67682498974E+01 -0.22075467401E+03  0.22170753157E+03  0.41800000000E+01 0.  1.
        -11    1    4    4    0    0 -0.49227656527E+02 -0.24638851255E+02 -0.30066645097E+02  0.62725101082E+02  0.00000000000E+00 0. -1.
         11    1    4    4    0    0  0.28168312377E+02  0.27852694557E+02 -0.22523797103E+02  0.45569154613E+02  0.00000000000E+00 0.  1.
</event>
<event>
 8    1  0.7103328E-009  0.8759967E+02  0.7561462E-02  0.1308771E+00
          1   -1    0    0  501    0  0.00000000000E+00  0.00000000000E+00  0.12407538290E+04  0.12407538290E+04  0.00000000000E+00 0. -1.
         -1   -1    0    0    0  501 -0.00000000000E+00 -0.00000000000E+00 -0.12499102261E+02  0.12499102261E+02  0.00000000000E+00 0.  1.
         25    2    1    2    0    0 -0.12339448768E+02  0.74700608348E+01  0.99250782501E+03  0.10004635781E+04  0.12509006564E+03 0.  0.
         23    2    1    2    0    0  0.12339448768E+02 -0.74700608348E+01  0.23574690175E+03  0.25278935322E+03  0.90098788065E+02 0.  0.
          5    1    3    3  502    0  0.14050856426E+02  0.41007997145E+02  0.13428456745E+03  0.14116975545E+03  0.41800000000E+01 0.  1.
         -5    1    3    3    0  502 -0.26390305194E+02 -0.33537936310E+02  0.85822325756E+03  0.85929382262E+03  0.41800000000E+01 0.  1.
        -11    1    4    4    0    0  0.83977267050E+01  0.40133756839E+02  0.13853981678E+03  0.14448017540E+03  0.00000000000E+00 0. -1.
         11    1    4    4    0    0  0.39417220632E+01 -0.47603817674E+02  0.97207084973E+02  0.10830917782E+03  0.00000000000E+00 0.  1.
</event>
<event>
 8    1  0.7103328E-009  0.1034877E+03  0.7561462E-02  0.1273128E+00
         -2   -1    0    0    0  501 -0.00000000000E+00  0.00000000000E+00  0.47467971936E+02  0.47467971936E+02  0.00000000000E+00 0.  1.
          2   -1    0    0  501    0  0.00000000000E+00 -0.00000000000E+00 -0.34365817932E+03  0.34365817932E+03  0.00000000000E+00 0. -1.
         25    2    1    2    0    0 -0.60740434120E+02 -0.22646859612E+02 -0.19291922958E+03  0.23888460518E+03  0.12508295194E+03 0.  0.
         23    2    1    2    0    0  0.60740434120E+02  0.22646859612E+02 -0.10327097781E+03  0.15224154608E+03  0.91160917647E+02 0.  0.
          5    1    3    3  502    0  0.86111386914E+01  0.31963631299E+02 -0.85707294811E+01  0.34449314060E+02  0.41800000000E+01 0.  1.
         -5    1    3    3    0  502 -0.69351572812E+02 -0.54610490911E+02 -0.18434850010E+03  0.20443529112E+03  0.41800000000E+01 0.  1.
        -11    1    4    4    0    0  0.35564113889E+02  0.40856366903E+02 -0.11528327581E+02  0.55380061846E+02  0.00000000000E+00 0.  1.
         11    1    4    4    0    0  0.25176320231E+02 -0.18209507291E+02 -0.91742650229E+02  0.96861484230E+02  0.00000000000E+00 0. -1.
</event>
<event>
 8    1  0.7103328E-009  0.1093431E+03  0.7561462E-02  0.1261791E+00
          2   -1    0    0  501    0  0.00000000000E+00  0.00000000000E+00  0.61309113333E+03  0.61309113333E+03  0.00000000000E+00 0. -1.
         -2   -1    0    0    0  501 -0.00000000000E+00 -0.00000000000E+00 -0.31704467515E+02  0.31704467515E+02  0.00000000000E+00 0.  1.
         25    2    1    2    0    0  0.32616758510E+02  0.12221798537E+02  0.13240873219E+03  0.18545438458E+03  0.12509209050E+03 0.  0.
         23    2    1    2    0    0 -0.32616758510E+02 -0.12221798537E+02  0.44897793362E+03  0.45934121626E+03  0.90553535454E+02 0.  0.
          5    1    3    3  502    0 -0.40508680781E+02  0.32132379135E+02  0.37926994829E+02  0.64260192532E+02  0.41800000000E+01 0. -1.
         -5    1    3    3    0  502  0.73125439291E+02 -0.19910580598E+02  0.94481737363E+02  0.12119419205E+03  0.41800000000E+01 0. -1.
        -11    1    4    4    0    0  0.19151376787E+02  0.21757695086E+02  0.77614105780E+02  0.82849996646E+02  0.00000000000E+00 0.  1.
         11    1    4    4    0    0 -0.51768135297E+02 -0.33979493622E+02  0.37136382784E+03  0.37649121962E+03  0.00000000000E+00 0. -1.
</event>
<event>
 8    1  0.7103328E-009  0.1090519E+03  0.7561462E-02  0.1262336E+00
         -1   -1    0    0    0  501 -0.00000000000E+00  0.00000000000E+00  0.14297867086E+03  0.14297867086E+03  0.00000000000E+00 0.  1.
          1   -1    0    0  501    0  0.00000000000E+00 -0.00000000000E+00 -0.92875868141E+02  0.92875868141E+02  0.00000000000E+00 0. -1.
         25    2    1    2    0    0 -0.28302377848E+01  0.31500257556E+02 -0.23140088561E+00  0.12902580278E+03  0.12508927918E+03 0.  0.
         23    2    1    2    0    0  0.28302377848E+01 -0.31500257556E+02  0.50334203603E+02  0.10682873622E+03  0.88761311152E+02 0.  0.
          5    1    3    3  502    0 -0.58015828059E+02  0.36241167011E+02  0.17475035740E+02  0.70725580703E+02  0.41800000000E+01 0.  1.
         -5    1    3    3    0  502  0.55185590274E+02 -0.47409094550E+01 -0.17706436625E+02  0.58300222078E+02  0.41800000000E+01 0.  1.
        -11    1    4    4    0    0  0.35679719645E+02  0.13639059390E+02  0.17026515637E+02  0.41820671560E+02  0.00000000000E+00 0. -1.
         11    1    4    4    0    0 -0.32849481860E+02 -0.45139316946E+02  0.33307687966E+02  0.65008064657E+02  0.00000000000E+00 0.  1.
</event>
<event>
 8    1  0.7103328E-009  0.2117709E+03  0.7561462E-02  0.1140171E+00
          2   -1    0    0  501    0  0.00000000000E+00  0.00000000000E+00  0.19414097870E+03  0.19414097870E+03  0.00000000000E+00 0. -1.
         -2   -1    0    0    0  501 -0.00000000000E+00 -0.00000000000E+00 -0.27619375456E+03  0.27619375456E+03  0.00000000000E+00 0.  1.
         25    2    1    2    0    0  0.10776438668E+03  0.17332206432E+03 -0.40385009489E+02  0.24275726285E+03  0.12508572523E+03 0.  0.
         23    2    1    2    0    0 -0.10776438668E+03 -0.17332206432E+03 -0.41667766375E+02  0.22757747042E+03  0.91660249124E+02 0.  0.
          5    1    3    3  502    0  0.93959500250E+02  0.13405751989E+03  0.24474729326E+02  0.16557865533E+03  0.41800000000E+01 0. -1.
         -5    1    3    3    0  502  0.13804886427E+02  0.39264544437E+02 -0.64859738815E+02  0.77178607517E+02  0.41800000000E+01 0. -1.
        -11    1    4    4    0    0 -0.27057777640E+02 -0.11560893539E+03 -0.48200649211E+02  0.12814387171E+03  0.00000000000E+00 0.  1.
         11    1    4    4    0    0 -0.80706609037E+02 -0.57713128936E+02  0.65328828365E+01  0.99433598708E+02  0.00000000000E+00 0. -1.
</event>
<event>
 8    1  0.7103328E-009  0.1442269E+03  0.7561462E-02  0.1207752E+00
         -2   -1    0    0    0  501 -0.00000000000E+00  0.00000000000E+00  0.98067364092E+02  0.98067364092E+02  0.00000000000E+00 0.  1.
          2   -1    0    0  501    0  0.00000000000E+00 -0.00000000000E+00 -0.35279886172E+03  0.35279886172E+03  0.00000000000E+00 0. -1.
         25    2    1    2    0    0  0.69173912309E+02  0.93767932908E+02 -0.25125153895E+03  0.30389462743E+03  0.12508858211E+03 0.  0.
         23    2    1    2    0    0 -0.69173912309E+02 -0.93767932908E+02 -0.34799586774E+01  0.14697159838E+03  0.89504665972E+02 0.  0.
          5    1    3    3  502    0  0.50233483357E+02  0.11214301313E+03 -0.24822399269E+03  0.27700556166E+03  0.41800000000E+01 0.  1.
         -5    1    3    3    0  502  0.18940428952E+02 -0.18375080219E+02 -0.30275462593E+01  0.26889065776E+02  0.41800000000E+01 0.  1.
        -11    1    4    4    0    0 -0.25445200447E+02  0.90878798445E+01 -0.20502102683E+02  0.33917311218E+02  0.00000000000E+00 0. -1.
         11    1    4    4    0    0 -0.43728711862E+02 -0.10285581275E+03  0.17022144006E+02  0.11305428716E+03  0.00000000000E+00 0.  1.
</event>
<event>
 8    1  0.7103328E-009  0.1587508E+03  0.7561462E-02  0.1190114E+00
         -1   -1    0    0    0  501 -0.00000000000E+00  0.00000000000E+00  0.22590844971E+03  0.22590844971E+03  0.00000000000E+00 0.  1.
          1   -1    0    0  501    0  0.00000000000E+00 -0.00000000000E+00 -0.13606136905E+03  0.13606136905E+03  0.00000000000E+00 0. -1.
         25    2    1    2    0    0 -0.11442550985E+03  0.63170757844E+02  0.47321764226E+01  0.18099150101E+03  0.12510710609E+03 0.  0.
         23    2    1    2    0    0  0.11442550985E+03 -0.63170757844E+02  0.85114904238E+02  0.18097831774E+03  0.91787050382E+02 0.  0.
          5    1    3    3  502    0 -0.11790418403E+03  0.90890657042E+02 -0.97479928322E+01  0.14924812868E+03  0.41800000000E+01 0. -1.
         -5    1    3    3    0  502  0.34786741776E+01 -0.27719899198E+02  0.14480169255E+02  0.31743372335E+02  0.41800000000E+01 0. -1.
        -11    1    4    4    0    0  0.10961421535E+03 -0.40040378519E+02  0.99465522521E+02  0.15333590020E+03  0.00000000000E+00 0.  1.
         11    1    4    4    0    0  0.48112944979E+01 -0.23130379325E+02 -0.14350618284E+02  0.27642417542E+02  0.00000000000E+00 0. -1.
</event>
<event>
 8    1  0.7103328E-009  0.1977079E+03  0.7561462E-02  0.1151687E+00
         -1   -1    0    0    0  501 -0.00000000000E+00  0.00000000000E+00  0.42427004373E+02  0.42427004373E+02  0.00000000000E+00 0.  1.
          1   -1    0    0  501    0  0.00000000000E+00 -0.00000000000E+00 -0.10321027592E+04  0.10321027592E+04  0.00000000000E+00 0. -1.
         25    2    1    2    0    0 -0.73417257478E+02 -0.15821487344E+03 -0.60673504097E+03  0.64358121908E+03  0.12508931105E+03 0.  0.
         23    2    1    2    0    0  0.73417257478E+02  0.15821487344E+03 -0.38294071384E+03  0.43094854447E+03  0.93010847719E+02 0.  0.
          5    1    3    3  502    0 -0.49172895859E+02 -0.17003163824E+03 -0.43433571712E+03  0.46903488064E+03  0.41800000000E+01 0. -1.
         -5    1    3    3    0  502 -0.24244361619E+02  0.11816764794E+02 -0.17239932385E+03  0.17454633844E+03  0.41800000000E+01 0. -1.
        -11    1    4    4    0    0  0.18531514459E+02  0.12615982686E+03 -0.30357569304E+03  0.32926876613E+03  0.00000000000E+00 0. -1.
         11    1    4    4    0    0  0.54885743018E+02  0.32055046584E+02 -0.79365020795E+02  0.10167977834E+03  0.00000000000E+00 0.  1.
</event>
<event>
 8    1  0.7103328E-009  0.1049152E+03  0.7561462E-02  0.1270287E+00
         -2   -1    0    0    0  501 -0.00000000000E+00  0.00000000000E+00  0.67790355477E+02  0.67790355477E+02  0.00000000000E+00 0. -1.
          2   -1    0    0  501    0  0.00000000000E+00 -0.00000000000E+00 -0.23922816400E+03  0.23922816400E+03  0.00000000000E+00 0.  1.
         25    2    1    2    0    0  0.65631906378E+01  0.65944739798E+02 -0.10348761024E+03  0.17535536472E+03  0.12509210321E+03 0.  0.
         23    2    1    2    0    0 -0.65631906378E+01 -0.65944739798E+02 -0.67950198283E+02  0.13166315475E+03  0.91247864051E+02 0.  0.
          5    1    3    3  502    0 -0.40811112533E+02 -0.45389046071E+01  0.18354672885E+00  0.41275351611E+02  0.41800000000E+01 0.  1.
         -5    1    3    3    0  502  0.47374303170E+02  0.70483644405E+02 -0.10367115696E+03  0.13408001311E+03  0.41800000000E+01 0.  1.
        -11    1    4    4    0    0  0.17003891465E+02 -0.54952176165E+02 -0.83476129514E+02  0.10137622102E+03  0.00000000000E+00 0.  1.
         11    1    4    4    0    0 -0.23567082103E+02 -0.10992563633E+02  0.15525931231E+02  0.30286933728E+02  0.00000000000E+00 0. -1.
</event>
<event>
 8    1  0.7103328E-009  0.3050925E+03  0.7561462E-02  0.1082722E+00
          1   -1    0    0  501    0  0.00000000000E+00  0.00000000000E+00  0.23126320592E+04  0.23126320592E+04  0.00000000000E+00 0. -1.
         -1   -1    0    0    0  501 -0.00000000000E+00 -0.00000000000E+00 -0.44991875537E+02  0.44991875537E+02  0.00000000000E+00 0.  1.
         25    2    1    2    0    0 -0.19342236984E+03  0.21842143092E+03  0.14639361617E+04  0.14979571297E+04  0.12508533985E+03 0.  0.
         23    2    1    2    0    0  0.19342236984E+03 -0.21842143092E+03  0.80370402192E+03  0.85966680499E+03  0.89256518637E+02 0.  0.
          5    1    3    3  502    0 -0.17601560370E+03  0.22697523126E+03  0.14306718318E+04  0.14592253462E+04  0.41800000000E+01 0. -1.
         -5    1    3    3    0  502 -0.17406766143E+02 -0.85538003405E+01  0.33264329918E+02  0.38731783495E+02  0.41800000000E+01 0. -1.
        -11    1    4    4    0    0  0.20170333138E+03 -0.20747341336E+03  0.74135469416E+03  0.79582424799E+03  0.00000000000E+00 0.  1.
         11    1    4    4    0    0 -0.82809615356E+01 -0.10948017561E+02  0.62349327761E+02  0.63842557003E+02  0.00000000000E+00 0. -1.
</event>
<event>
 8    1  0.7103328E-009  0.1484799E+03  0.7561462E-02  0.1202353E+00
          2   -1    0    0  501    0  0.00000000000E+00  0.00000000000E+00  0.68972220050E+03  0.68972220050E+03  0.00000000000E+00 0. -1.
         -2   -1    0    0    0  501 -0.00000000000E+00 -0.00000000000E+00 -0.33074668142E+02  0.33074668142E+02  0.00000000000E+00 0.  1.
         25    2    1    2    0    0  0.47485858312E+02  0.94565591523E+02  0.42672775607E+03  0.45710179772E+03  0.12509163775E+03 0.  0.
         23    2    1    2    0    0 -0.47485858312E+02 -0.94565591523E+02  0.22991977628E+03  0.26569507092E+03  0.80828270706E+02 0.  0.
          5    1    3    3  502    0  0.65802747670E+02 -0.14830639877E+01  0.17571680474E+03  0.18768609151E+03  0.41800000000E+01 0. -1.
         -5    1    3    3    0  502 -0.18316889358E+02  0.96048655511E+02  0.25101095134E+03  0.26941570621E+03  0.41800000000E+01 0. -1.
        -11    1    4    4    0    0  0.85240897615E+01 -0.72403643098E+02  0.12371242676E+03  0.14359565514E+03  0.00000000000E+00 0.  1.
         11    1    4    4    0    0 -0.56009948074E+02 -0.22161948426E+02  0.10620734952E+03  0.12209941578E+03  0.00000000000E+00 0. -1.
</event>
<event>
 8    1  0.7103328E-009  0.1073715E+03  0.7561462E-02  0.1265516E+00
         -1   -1    0    0    0  501 -0.00000000000E+00  0.00000000000E+00  0.25537881573E+02  0.25537881573E+02  0.00000000000E+00 0.  1.
          1   -1    0    0  501    0  0.00000000000E+00 -0.00000000000E+00 -0.48648251467E+03  0.48648251467E+03  0.00000000000E+00 0. -1.
         25    2    1    2    0    0  0.25489681523E+02 -0.31558609681E+00 -0.23890500062E+03  0.27087420164E+03  0.12508960922E+03 0.  0.
         23    2    1    2    0    0 -0.25489681523E+02  0.31558609681E+00 -0.22203963247E+03  0.24114619460E+03  0.90554212056E+02 0.  0.
          5    1    3    3  502    0  0.72636590648E+02  0.62497495989E+01 -0.18470952981E+03  0.19862078561E+03  0.41800000000E+01 0.  1.
         -5    1    3    3    0  502 -0.47146909125E+02 -0.65653356957E+01 -0.54195470806E+02  0.72253416036E+02  0.41800000000E+01 0.  1.
        -11    1    4    4    0    0 -0.46066338771E+02 -0.31668640188E+02 -0.13854799683E+03  0.14940066186E+03  0.00000000000E+00 0. -1.
         11    1    4    4    0    0  0.20576657248E+02  0.31984226284E+02 -0.83491635641E+02  0.91745532734E+02  0.00000000000E+00 0.  1.
</event>
<event>
 8    1  0.7103328E-009  0.1068778E+03  0.7561462E-02  0.1266463E+00
          2   -1    0    0  501    0  0.00000000000E+00  0.00000000000E+00  0.67396550156E+03  0.67396550156E+03  0.00000000000E+00 0.  1.
         -2   -1    0    0    0  501 -0.00000000000E+00 -0.00000000000E+00 -0.23037347442E+02  0.23037347442E+02  0.00000000000E+00 0. -1.
         25    2    1    2    0    0  0.40631247582E+02 -0.47315585655E+02  0.39083924886E+03  0.41508067970E+03  0.12508792622E+03 0.  0.
         23    2    1    2    0    0 -0.40631247582E+02  0.47315585655E+02  0.26008890526E+03  0.28192216931E+03  0.89130286543E+02 0.  0.
          5    1    3    3  502    0  0.56878423388E+02  0.18307127042E+01  0.71167773455E+02  0.91218588756E+02  0.41800000000E+01 0.  1.
         -5    1    3    3    0  502 -0.16247175806E+02 -0.49146298359E+02  0.31967147540E+03  0.32386209094E+03  0.41800000000E+01 0.  1.
        -11    1    4    4    0    0 -0.26777814733E+02 -0.21640919301E+02  0.52870177950E+02  0.63092285317E+02  0.00000000000E+00 0. -1.
         11    1    4    4    0    0 -0.13853432850E+02  0.68956504956E+02  0.20721872731E+03  0.21882988399E+03  0.00000000000E+00 0.  1.
</event>
<event>
 8    1  0.7103328E-009  0.1188274E+03  0.7561462E-02  0.1245044E+00
         -1   -1    0    0    0  501 -0.00000000000E+00  0.00000000000E+00  0.29450709561E+02  0.29450709561E+02  0.00000000000E+00 0.  1.
          1   -1    0    0  501    0  0.00000000000E+00 -0.00000000000E+00 -0.83086223369E+03  0.83086223369E+03  0.00000000000E+00 0. -1.
         25    2    1    2    0    0 -0.74256818079E+02 -0.45190607220E+02 -0.62538054480E+03  0.64366492523E+03  0.12508974434E+03 0.  0.
         23    2    1    2    0    0  0.74256818079E+02  0.45190607220E+02 -0.17603097933E+03  0.21664801802E+03  0.91614365788E+02 0.  0.
          5    1    3    3  502    0 -0.36848258198E+02 -0.73885277066E+02 -0.21143451484E+03  0.22702170549E+03  0.41800000000E+01 0. -1.
         -5    1    3    3    0  502 -0.37408559881E+02  0.28694669846E+02 -0.41394602996E+03  0.41664321973E+03  0.41800000000E+01 0. -1.
        -11    1    4    4    0    0  0.75057382344E+02  0.13876477709E+02 -0.61832926473E+02  0.98231756954E+02  0.00000000000E+00 0.  1.
         11    1    4    4    0    0 -0.80056426527E+00  0.31314129510E+02 -0.11419805286E+03  0.11841626107E+03  0.00000000000E+00 0. -1.
</event>
<event>
 8    1  0.7103328E-009  0.1098638E+03  0.7561462E-02  0.1260822E+00
          1   -1    0    0  501    0  0.00000000000E+00  0.00000000000E+00  0.10832094945E+03  0.10832094945E+03  0.00000000000E+00 0. -1.
         -1   -1    0    0    0  501 -0.00000000000E+00 -0.00000000000E+00 -0.20283459535E+03  0.20283459535E+03  0.00000000000E+00 0.  1.
         25    2    1    2    0    0  0.92089780861E+00  0.93502618794E+02 -0.27119889106E+02  0.15851178895E+03  0.12508761361E+03 0.  0.
         23    2    1    2    0    0 -0.92089780861E+00 -0.93502618794E+02 -0.67393756791E+02  0.15264375584E+03  0.10007302319E+03 0.  0.
          5    1    3    3  502    0 -0.19291680220E+02  0.10192408329E+03  0.20599840421E+02  0.10584192698E+03  0.41800000000E+01 0.  1.
         -5    1    3    3    0  502  0.20212578029E+02 -0.84214644973E+01 -0.47719729527E+02  0.52669861980E+02  0.41800000000E+01 0.  1.
        -11    1    4    4    0    0  0.13254843017E+01 -0.10361887603E+02  0.25739716194E+02  0.27778743908E+02  0.00000000000E+00 0. -1.
         11    1    4    4    0    0 -0.22463821103E+01 -0.83140731191E+02 -0.93133472985E+02  0.12486501194E+03  0.00000000000E+00 0.  1.
</event>
<event>
 8    1  0.7103328E-009  0.9276449E+02  0.7561462E-02  0.1296292E+00
          1   -1    0    0  501    0  0.00000000000E+00  0.00000000000E+00  0.19347354039E+03  0.19347354039E+03  0.00000000000E+00 0. -1.
         -1   -1    0    0    0  501 -0.00000000000E+00 -0.00000000000E+00 -0.81477201745E+02  0.81477201745E+02  0.00000000000E+00 0.  1.
         25    2    1    2    0    0  0.56515752342E+02  0.56607122464E+01  0.32006015950E+02  0.14104953653E+03  0.12507802674E+03 0.  0.
         23    2    1    2    0    0 -0.56515752342E+02 -0.56607122464E+01  0.79990322699E+02  0.13390120561E+03  0.91131812291E+02 0.  0.
          5    1    3    3  502    0 -0.67376615809E+01  0.12119368720E+02  0.66866788472E+02  0.68417212618E+02  0.41800000000E+01 0.  1.
         -5    1    3    3    0  502  0.63253413923E+02 -0.64586564736E+01 -0.34860772523E+02  0.72632323915E+02  0.41800000000E+01 0.  1.
        -11    1    4    4    0    0 -0.10785379904E+02  0.40760873505E+02  0.29319467615E+02  0.51355665800E+02  0.00000000000E+00 0. -1.
         11    1    4    4    0    0 -0.45730372438E+02 -0.46421585751E+02  0.50670855084E+02  0.82545539806E+02  0.00000000000E+00 0.  1.
</event>
<event>
 8    1  0.7103328E-009  0.1143557E+03  0.7561462E-02  0.1252710E+00
         -3   -1    0    0    0  501 -0.00000000000E+00  0.00000000000E+00  0.19956340028E+03  0.19956340028E+03  0.00000000000E+00 0.  1.
          3   -1    0    0  501    0  0.00000000000E+00 -0.00000000000E+00 -0.98454658842E+02  0.98454658842E+02  0.00000000000E+00 0. -1.
         25    2    1    2    0    0  0.44622858339E+02 -0.52327046128E+02 -0.10087803817E+01  0.14275928087E+03  0.12509946201E+03 0.  0.
         23    2    1    2    0    0 -0.44622858339E+02  0.52327046128E+02  0.10211752182E+03  0.15525877825E+03  0.94593766805E+02 0.  0.
          5    1    3    3  502    0 -0.15706477235E+02  0.30983839811E+02  0.15904914718E+02  0.38433455072E+02  0.41800000000E+01 0. -1.
         -5    1    3    3    0  502  0.60329335574E+02 -0.83310885939E+02 -0.16913695100E+02  0.10432582580E+03  0.41800000000E+01 0. -1.
        -11    1    4    4    0    0 -0.40882464723E+01  0.50010055448E+02  0.10308300343E+03  0.11464652198E+03  0.00000000000E+00 0. -1.
         11    1    4    4    0    0 -0.40534611867E+02  0.23169906801E+01 -0.96548160936E+00  0.40612256275E+02  0.00000000000E+00 0.  1.
</event>
<event>
 8    1  0.7103328E-009  0.1193107E+03  0.7561462E-02  0.1244238E+00
          2   -1    0    0  501    0  0.00000000000E+00  0.00000000000E+00  0.13209411341E+03  0.13209411341E+03  0.00000000000E+00 0. -1.
         -2   -1    0    0    0  501 -0.00000000000E+00 -0.00000000000E+00 -0.17918545460E+03  0.17918545460E+03  0.00000000000E+00 0.  1.
         25    2    1    2    0    0  0.69092837519E+02 -0.72438386637E+02  0.21652138166E+02  0.16166688733E+03  0.12508488045E+03 0.  0.
         23    2    1    2    0    0 -0.69092837519E+02  0.72438386637E+02 -0.68743479352E+02  0.14961268068E+03  0.87390778760E+02 0.  0.
          5    1    3    3  502    0  0.42766268982E+02 -0.70556393767E+02  0.68776226908E+02  0.10749325677E+03  0.41800000000E+01 0. -1.
         -5    1    3    3    0  502  0.26326568537E+02 -0.18819928702E+01 -0.47124088742E+02  0.54173630559E+02  0.41800000000E+01 0. -1.
        -11    1    4    4    0    0 -0.67995091737E+02  0.12250886221E+02 -0.19360863623E+02  0.71751374577E+02  0.00000000000E+00 0.  1.
         11    1    4    4    0    0 -0.10977457826E+01  0.60187500415E+02 -0.49382615729E+02  0.77861306105E+02  0.00000000000E+00 0. -1.
</event>
<event>
 8    1  0.7103328E-009  0.1365068E+03  0.7561462E-02  0.1218108E+00
          2   -1    0    0  501    0  0.00000000000E+00  0.00000000000E+00  0.29934289976E+02  0.29934289976E+02  0.00000000000E+00 0.  1.
         -2   -1    0    0    0  501 -0.00000000000E+00 -0.00000000000E+00 -0.79415306910E+03  0.79415306910E+03  0.00000000000E+00 0. -1.
         25    2    1    2    0    0  0.92830134142E+02  0.25702283175E+02 -0.27776685953E+03  0.31950023965E+03  0.12509170123E+03 0.  0.
         23    2    1    2    0    0 -0.92830134142E+02 -0.25702283175E+02 -0.48645191959E+03  0.50458711943E+03  0.93245106312E+02 0.  0.
          5    1    3    3  502    0  0.51996523986E+02 -0.43863827681E+02 -0.18126943034E+03  0.19365885640E+03  0.41800000000E+01 0. -1.
         -5    1    3    3    0  502  0.40833610156E+02  0.69566110856E+02 -0.96497429191E+02  0.12584138325E+03  0.41800000000E+01 0. -1.
        -11    1    4    4    0    0 -0.23743037339E+02  0.27905228277E+02 -0.69525774504E+02  0.78589228955E+02  0.00000000000E+00 0.  1.
         11    1    4    4    0    0 -0.69087096804E+02 -0.53607511452E+02 -0.41692614509E+03  0.42599789047E+03  0.00000000000E+00 0. -1.
</event>
<event>
 8    1  0.7103328E-009  0.1021549E+03  0.7561462E-02  0.1275829E+00
         -2   -1    0    0    0  501 -0.00000000000E+00  0.00000000000E+00  0.14036134473E+02  0.14036134473E+02  0.00000000000E+00 0.  1.
          2   -1    0    0  501    0  0.00000000000E+00 -0.00000000000E+00 -0.11182398448E+04  0.11182398448E+04  0.00000000000E+00 0. -1.
         25    2    1    2    0    0  0.22098773459E+02  0.96637731450E+00 -0.87987700301E+03  0.88899959309E+03  0.12508975346E+03 0.  0.
         23    2    1    2    0    0 -0.22098773459E+02 -0.96637731450E+00 -0.22432670735E+03  0.24327638621E+03  0.91496659964E+02 0.  0.
          5    1    3    3  502    0 -0.43413102068E+02 -0.93132592557E+01 -0.58646297460E+03  0.58815620987E+03  0.41800000000E+01 0. -1.
         -5    1    3    3    0  502  0.65511875527E+02  0.10279636570E+02 -0.29341402841E+03  0.30084338323E+03  0.41800000000E+01 0. -1.
        -11    1    4    4    0    0 -0.56284022000E+02  0.10410708811E+02 -0.15323322940E+03  0.16357474311E+03  0.00000000000E+00 0.  1.
         11    1    4    4    0    0  0.34185248541E+02 -0.11377086125E+02 -0.71093477946E+02  0.79701643100E+02  0.00000000000E+00 0. -1.
</event>
<event>
 8    1  0.7103328E-009  0.6364914E+02  0.7561462E-02  0.1383126E+00
          1   -1    0    0  501    0  0.00000000000E+00  0.00000000000E+00  0.99728914869E+02  0.99728914869E+02  0.00000000000E+00 0. -1.
         -1   -1    0    0    0  501 -0.00000000000E+00 -0.00000000000E+00 -0.18283973855E+03  0.18283973855E+03  0.00000000000E+00 0.  1.
         25    2    1    2    0    0 -0.38638746902E+02 -0.47279975350E+02 -0.10010274324E+03  0.17145298902E+03  0.12508884606E+03 0.  0.
         23    2    1    2    0    0  0.38638746902E+02  0.47279975350E+02  0.16991919559E+02  0.11111566440E+03  0.91266733878E+02 0.  0.
          5    1    3    3  502    0 -0.12771892817E+02 -0.11021047751E+02 -0.12088341401E+03  0.12212639732E+03  0.41800000000E+01 0. -1.
         -5    1    3    3    0  502 -0.25866854085E+02 -0.36258927600E+02  0.20780670772E+02  0.49326591699E+02  0.41800000000E+01 0. -1.
        -11    1    4    4    0    0  0.31246245428E+01  0.20413589389E+02 -0.36241326944E+02  0.41712248668E+02  0.00000000000E+00 0.  1.
         11    1    4    4    0    0  0.35514122359E+02  0.26866385961E+02  0.53233246503E+02  0.69403415729E+02  0.00000000000E+00 0. -1.
</event>
<event>
 8    1  0.7103328E-009  0.3424810E+03  0.7561462E-02  0.1065744E+00
          2   -1    0    0  501    0  0.00000000000E+00  0.00000000000E+00  0.12185415328E+04  0.12185415328E+04  0.00000000000E+00 0. -1.
         -2   -1    0    0    0  501 -0.00000000000E+00 -0.00000000000E+00 -0.17508313439E+03  0.17508313439E+03  0.00000000000E+00 0.  1.
         25    2    1    2    0    0 -0.96210037478E+02 -0.31331911743E+03  0.64223285933E+02  0.35664621524E+03  0.12508657694E+03 0.  0.
         23    2    1    2    0    0  0.96210037478E+02  0.31331911743E+03  0.97923511250E+03  0.10369784520E+04  0.94856015340E+02 0.  0.
          5    1    3    3  502    0  0.21038382252E+02 -0.10556034231E+03  0.46705563435E+02  0.11740733134E+03  0.41800000000E+01 0. -1.
         -5    1    3    3    0  502 -0.11724841973E+03 -0.20775877512E+03  0.17517722499E+02  0.23923888390E+03  0.41800000000E+01 0. -1.
        -11    1    4    4    0    0  0.11071696252E+03  0.24575325646E+03  0.72377018007E+03  0.77233165312E+03  0.00000000000E+00 0. -1.
         11    1    4    4    0    0 -0.14506925042E+02  0.67565860969E+02  0.25546493242E+03  0.26464679885E+03  0.00000000000E+00 0.  1.
</event>
<event>
 8    1  0.7103328E-009  0.1139714E+03  0.7561462E-02  0.1253387E+00
         -1   -1    0    0    0  501 -0.00000000000E+00  0.00000000000E+00  0.43770739464E+02  0.43770739464E+02  0.00000000000E+00 0.  1.
          1   -1    0    0  501    0  0.00000000000E+00 -0.00000000000E+00 -0.67828554720E+03  0.67828554720E+03  0.00000000000E+00 0. -1.
         25    2    1    2    0    0 -0.85942361444E+02  0.25612281007E+02 -0.54795070333E+03  0.56915646849E+03  0.12508810461E+03 0.  0.
         23    2    1    2    0    0  0.85942361444E+02 -0.25612281007E+02 -0.86564104407E+02  0.15289981818E+03  0.88560328575E+02 0.  0.
          5    1    3    3  502    0  0.83580130434E+01  0.17540863477E+02 -0.87833434406E+01  0.21729192243E+02  0.41800000000E+01 0. -1.
         -5    1    3    3    0  502 -0.94300374487E+02  0.80714175305E+01 -0.53916735989E+03  0.54742727625E+03  0.41800000000E+01 0. -1.
        -11    1    4    4    0    0  0.21149477966E+02 -0.41535095744E+02 -0.70094207763E+02  0.84176377676E+02  0.00000000000E+00 0. -1.
         11    1    4    4    0    0  0.64792883478E+02  0.15922814737E+02 -0.16469896644E+02  0.68723440499E+02  0.00000000000E+00 0.  1.
</event>
<event>
 8    1  0.7103328E-009  0.1050452E+03  0.7561462E-02  0.1270031E+00
         -1   -1    0    0    0  501 -0.00000000000E+00  0.00000000000E+00  0.27512099535E+02  0.27512099535E+02  0.00000000000E+00 0.  1.
          1   -1    0    0  501    0  0.00000000000E+00 -0.00000000000E+00 -0.59360694130E+03  0.59360694130E+03  0.00000000000E+00 0. -1.
         25    2    1    2    0    0  0.11019642021E+02  0.71117515499E+02 -0.30725846826E+03  0.33946353394E+03  0.12509432853E+03 0.  0.
         23    2    1    2    0    0 -0.11019642021E+02 -0.71117515499E+02 -0.25883637351E+03  0.28165550690E+03  0.84583821138E+02 0.  0.
          5    1    3    3  502    0 -0.42747889317E+01  0.80671954470E+02 -0.88409349830E+02  0.11983289864E+03  0.41800000000E+01 0. -1.
         -5    1    3    3    0  502  0.15294430953E+02 -0.95544389711E+01 -0.21884911843E+03  0.21963063530E+03  0.41800000000E+01 0. -1.
        -11    1    4    4    0    0 -0.47779333644E+02 -0.35739639572E+02 -0.15092893327E+03  0.16229519234E+03  0.00000000000E+00 0.  1.
         11    1    4    4    0    0  0.36759691623E+02 -0.35377875927E+02 -0.10790744024E+03  0.11936031456E+03  0.00000000000E+00 0. -1.
</event>
<event>
 8    1  0.7103328E-009  0.1336492E+03  0.7561462E-02  0.1222139E+00
         -2   -1    0    0    0  501 -0.00000000000E+00  0.00000000000E+00  0.29546458161E+02  0.29546458161E+02  0.00000000000E+00 0.  1.
          2   -1    0    0  501    0  0.00000000000E+00 -0.00000000000E+00 -0.80298774749E+03  0.80298774749E+03  0.00000000000E+00 0. -1.
         25    2    1    2    0    0  0.51571902748E+02 -0.88144126730E+02 -0.45777646879E+03  0.48542299136E+03  0.12508851641E+03 0.  0.
         23    2    1    2    0    0 -0.51571902748E+02  0.88144126730E+02 -0.31566482054E+03  0.34711121429E+03  0.10204346098E+03 0.  0.
          5    1    3    3  502    0  0.64791008692E+02 -0.89709889504E+02 -0.21137211951E+03  0.23862393926E+03  0.41800000000E+01 0. -1.
         -5    1    3    3    0  502 -0.13219105944E+02  0.15657627741E+01 -0.24640434928E+03  0.24679905210E+03  0.41800000000E+01 0. -1.
        -11    1    4    4    0    0  0.29661096295E+02  0.14740359597E+02 -0.98298221653E+02  0.10372848796E+03  0.00000000000E+00 0.  1.
         11    1    4    4    0    0 -0.81232999043E+02  0.73403767133E+02 -0.21736659889E+03  0.24338272633E+03  0.00000000000E+00 0. -1.
</event>
<event>
 8    1  0.7103328E-009  0.1236135E+03  0.7561462E-02  0.1237252E+00
          1   -1    0    0  501    0  0.00000000000E+00  0.00000000000E+00  0.23827530024E+03  0.23827530024E+03  0.00000000000E+00 0. -1.
         -1   -1    0    0    0  501 -0.00000000000E+00 -0.00000000000E+00 -0.81467719979E+02  0.81467719979E+02  0.00000000000E+00 0.  1.
         25    2    1    2    0    0 -0.60969856685E+02 -0.63378801963E+02  0.85035147322E+02  0.17496483272E+03  0.12509004935E+03 0.  0.
         23    2    1    2    0    0  0.60969856685E+02  0.63378801963E+02  0.71772432942E+02  0.14477818750E+03  0.89862369675E+02 0.  0.
          5    1    3    3  502    0  0.21585721605E+02 -0.15094248194E+02  0.73929157732E+02  0.78592445366E+02  0.41800000000E+01 0. -1.
         -5    1    3    3    0  502 -0.82555578290E+02 -0.48284553768E+02  0.11105989591E+02  0.96372387353E+02  0.41800000000E+01 0. -1.
        -11    1    4    4    0    0  0.79707985690E+02  0.27443640413E+02  0.56431051716E+02  0.10144446747E+03  0.00000000000E+00 0. -1.
         11    1    4    4    0    0 -0.18738129004E+02  0.35935161550E+02  0.15341381226E+02  0.43333720036E+02  0.00000000000E+00 0.  1.
</event>
<event>
 8    1  0.7103328E-009  0.1103884E+03  0.7561462E-02  0.1259852E+00
         -2   -1    0    0    0  501 -0.00000000000E+00  0.00000000000E+00  0.49225157057E+02  0.49225157057E+02  0.00000000000E+00 0.  1.
          2   -1    0    0  501    0  0.00000000000E+00 -0.00000000000E+00 -0.28267659512E+03  0.28267659512E+03  0.00000000000E+00 0. -1.
         25    2    1    2    0    0 -0.28252877002E+02  0.25423395007E+02 -0.16797035805E+03  0.21285335391E+03  0.12509170641E+03 0.  0.
         23    2    1    2    0    0  0.28252877002E+02 -0.25423395007E+02 -0.65481080008E+02  0.11904839827E+03  0.91870426243E+02 0.  0.
          5    1    3    3  502    0 -0.70932596837E+02 -0.10634335515E+02 -0.71937266080E+02  0.10167086622E+03  0.41800000000E+01 0.  1.
         -5    1    3    3    0  502  0.42679719835E+02  0.36057730522E+02 -0.96033091975E+02  0.11118248769E+03  0.41800000000E+01 0.  1.
        -11    1    4    4    0    0 -0.18934852539E+02  0.19902778882E+02 -0.40655746695E+02  0.49066678991E+02  0.00000000000E+00 0.  1.
         11    1    4    4    0    0  0.47187729541E+02 -0.45326173889E+02 -0.24825333313E+02  0.69981719275E+02  0.00000000000E+00 0. -1.
</event>
<event>
 8    1  0.7103328E-009  0.8400673E+02  0.7561462E-02  0.1318051E+00
         -1   -1    0    0    0  501 -0.00000000000E+00  0.00000000000E+00  0.10098365104E+03  0.10098365104E+03  0.00000000000E+00 0.  1.
          1   -1    0    0  501    0  0.00000000000E+00 -0.00000000000E+00 -0.14963939536E+03  0.14963939536E+03  0.00000000000E+00 0. -1.
         25    2    1    2    0    0  0.10186924365E+02  0.28819315322E+02  0.21595138739E+02  0.13057232938E+03  0.12509379209E+03 0.  0.
         23    2    1    2    0    0 -0.10186924365E+02 -0.28819315322E+02 -0.70250883057E+02  0.12005071702E+03  0.92426520664E+02 0.  0.
          5    1    3    3  502    0  0.47182357881E+02  0.44363894668E+02  0.49410889891E+02  0.81567386161E+02  0.41800000000E+01 0. -1.
         -5    1    3    3    0  502 -0.36995433516E+02 -0.15544579345E+02 -0.27815751152E+02  0.49004943222E+02  0.41800000000E+01 0. -1.
        -11    1    4    4    0    0 -0.30746983237E+02 -0.28917724896E+02  0.45704672382E+01  0.42455870761E+02  0.00000000000E+00 0.  1.
         11    1    4    4    0    0  0.20560058872E+02  0.98409573600E-01 -0.74821350295E+02  0.77594846254E+02  0.00000000000E+00 0. -1.
</event>
<event>
 8    1  0.7103328E-009  0.9626166E+02  0.7561462E-02  0.1288360E+00
         -2   -1    0    0    0  501 -0.00000000000E+00  0.00000000000E+00  0.25409916538E+02  0.25409916538E+02  0.00000000000E+00 0. -1.
          2   -1    0    0  501    0  0.00000000000E+00 -0.00000000000E+00 -0.71508533309E+03  0.71508533309E+03  0.00000000000E+00 0.  1.
         25    2    1    2    0    0 -0.72781524766E+02  0.30357410820E+02 -0.43204950120E+03  0.45665466212E+03  0.12509191104E+03 0.  0.
         23    2    1    2    0    0  0.72781524766E+02 -0.30357410820E+02 -0.25762591535E+03  0.28384058751E+03  0.89306461795E+02 0.  0.
          5    1    3    3  502    0 -0.12847625625E+02  0.19964898759E+02 -0.36589470361E+03  0.36668796707E+03  0.41800000000E+01 0. -1.
         -5    1    3    3    0  502 -0.59933899141E+02  0.10392512061E+02 -0.66154797595E+02  0.89966695048E+02  0.41800000000E+01 0. -1.
        -11    1    4    4    0    0  0.85278342088E+02 -0.37379018608E+02 -0.25162703405E+03  0.26830160440E+03  0.00000000000E+00 0.  1.
         11    1    4    4    0    0 -0.12496817322E+02  0.70216077872E+01 -0.59988813028E+01  0.15538983106E+02  0.00000000000E+00 0. -1.
</event>
<event>
 8    1  0.7103328E-009  0.9629706E+02  0.7561462E-02  0.1288281E+00
         -1   -1    0    0    0  501 -0.00000000000E+00  0.00000000000E+00  0.33744119220E+02  0.33744119220E+02  0.00000000000E+00 0.  1.
          1   -1    0    0  501    0  0.00000000000E+00 -0.00000000000E+00 -0.40999379358E+03  0.40999379358E+03  0.00000000000E+00 0. -1.
         25    2    1    2    0    0  0.30848825111E+02 -0.31040207078E+02 -0.23033475063E+03  0.26573740399E+03  0.12508847296E+03 0.  0.
         23    2    1    2    0    0 -0.30848825111E+02  0.31040207078E+02 -0.14591492373E+03  0.17800050881E+03  0.92075358822E+02 0.  0.
          5    1    3    3  502    0  0.24503836470E+01  0.43882376138E+02 -0.41616833239E+02  0.60672073678E+02  0.41800000000E+01 0.  1.
         -5    1    3    3    0  502  0.28398441464E+02 -0.74922583216E+02 -0.18871791739E+03  0.20506533032E+03  0.41800000000E+01 0.  1.
        -11    1    4    4    0    0  0.22646052451E+00  0.36636205792E+02 -0.93201816106E+01  0.37803817856E+02  0.00000000000E+00 0.  1.
         11    1    4    4    0    0 -0.31075285636E+02 -0.55959987136E+01 -0.13659474212E+03  0.14019669095E+03  0.00000000000E+00 0. -1.
</event>
<event>
 8    1  0.7103328E-009  0.1305241E+03  0.7561462E-02  0.1226680E+00
         -2   -1    0    0    0  501 -0.00000000000E+00  0.00000000000E+00  0.93454928902E+02  0.93454928902E+02  0.00000000000E+00 0.  1.
          2   -1    0    0  501    0  0.00000000000E+00 -0.00000000000E+00 -0.24360263326E+03  0.24360263326E+03  0.00000000000E+00 0. -1.
         25    2    1    2    0    0  0.42598377945E+02 -0.94950977962E+02 -0.72213820578E+02  0.17802614152E+03  0.12509261034E+03 0.  0.
         23    2    1    2    0    0 -0.42598377945E+02  0.94950977962E+02 -0.77933883780E+02  0.15903142064E+03  0.91580524629E+02 0.  0.
          5    1    3    3  502    0  0.60225527943E+02 -0.67931680371E+02  0.82312011946E+01  0.91252684822E+02  0.41800000000E+01 0.  1.
         -5    1    3    3    0  502 -0.17627149998E+02 -0.27019297591E+02 -0.80445021773E+02  0.86773456699E+02  0.41800000000E+01 0.  1.
        -11    1    4    4    0    0 -0.14769302281E+02  0.10649091201E+03 -0.52695400427E+02  0.11972991212E+03  0.00000000000E+00 0. -1.
         11    1    4    4    0    0 -0.27829075663E+02 -0.11539934048E+02 -0.25238483353E+02  0.39301508522E+02  0.00000000000E+00 0.  1.
</event>
<event>
 8    1  0.7103328E-009  0.2448776E+03  0.7561462E-02  0.1116586E+00
         -3   -1    0    0    0  501 -0.00000000000E+00  0.00000000000E+00  0.12509376108E+03  0.12509376108E+03  0.00000000000E+00 0.  1.
          3   -1    0    0  501    0  0.00000000000E+00 -0.00000000000E+00 -0.72895281384E+03  0.72895281384E+03  0.00000000000E+00 0. -1.
         25    2    1    2    0    0 -0.37126104186E+01 -0.22126021923E+03 -0.55419792405E+03  0.60971492499E+03  0.12508829937E+03 0.  0.
         23    2    1    2    0    0  0.37126104186E+01  0.22126021923E+03 -0.49661128717E+02  0.24433164994E+03  0.90894770826E+02 0.  0.
          5    1    3    3  502    0  0.37640785628E+02 -0.14080455796E+02 -0.61138390718E+02  0.73283444227E+02  0.41800000000E+01 0. -1.
         -5    1    3    3    0  502 -0.41353396046E+02 -0.20717976344E+03 -0.49305953333E+03  0.53643148076E+03  0.41800000000E+01 0. -1.
        -11    1    4    4    0    0  0.39870436643E+02  0.55212532851E+02 -0.25322052447E+02  0.72658666668E+02  0.00000000000E+00 0.  1.
         11    1    4    4    0    0 -0.36157826224E+02  0.16604768638E+03 -0.24339076270E+02  0.17167298327E+03  0.00000000000E+00 0. -1.
</event>
<event>
 8    1  0.7103328E-009  0.8448733E+02  0.7561462E-02  0.1316779E+00
         -2   -1    0    0    0  501 -0.00000000000E+00  0.00000000000E+00  0.25879944797E+02  0.25879944797E+02  0.00000000000E+00 0.  1.
          2   -1    0    0  501    0  0.00000000000E+00 -0.00000000000E+00 -0.44962070816E+03  0.44962070816E+03  0.00000000000E+00 0. -1.
         25    2    1    2    0    0  0.90568421009E+01  0.17014195738E+01 -0.27439938174E+03  0.30171150668E+03  0.12509952576E+03 0.  0.
         23    2    1    2    0    0 -0.90568421009E+01 -0.17014195738E+01 -0.14934138162E+03  0.17378914628E+03  0.88401911073E+02 0.  0.
          5    1    3    3  502    0  0.40459346443E+02  0.28678090031E+02 -0.40570264388E+02  0.64209113956E+02  0.41800000000E+01 0.  1.
         -5    1    3    3    0  502 -0.31402504342E+02 -0.26976670458E+02 -0.23382911735E+03  0.23750239272E+03  0.41800000000E+01 0.  1.
        -11    1    4    4    0    0  0.93138536982E+01  0.35180996918E+02 -0.28831105354E+02  0.46429333947E+02  0.00000000000E+00 0.  1.
         11    1    4    4    0    0 -0.18370695799E+02 -0.36882416492E+02 -0.12051027627E+03  0.12735981233E+03  0.00000000000E+00 0. -1.
</event>
<event>
 8    1  0.7103328E-009  0.1110834E+03  0.7561462E-02  0.1258577E+00
          2   -1    0    0  501    0  0.00000000000E+00  0.00000000000E+00  0.65004097614E+03  0.65004097614E+03  0.00000000000E+00 0. -1.
         -2   -1    0    0    0  501 -0.00000000000E+00 -0.00000000000E+00 -0.35302300314E+02  0.35302300314E+02  0.00000000000E+00 0.  1.
         25    2    1    2    0    0 -0.63870147470E+02  0.37577974696E+02  0.50353669151E+03  0.52410727271E+03  0.12509090170E+03 0.  0.
         23    2    1    2    0    0  0.63870147470E+02 -0.37577974696E+02  0.11120198431E+03  0.16123600374E+03  0.90220106781E+02 0.  0.
          5    1    3    3  502    0 -0.84127147716E+02  0.34975239757E+02  0.49179648211E+03  0.50018186352E+03  0.41800000000E+01 0. -1.
         -5    1    3    3    0  502  0.20257000246E+02  0.26027349397E+01  0.11740209403E+02  0.23925409191E+02  0.41800000000E+01 0. -1.
        -11    1    4    4    0    0  0.49252036626E+02  0.18159975087E+02  0.26530160919E+02  0.58816640889E+02  0.00000000000E+00 0. -1.
         11    1    4    4    0    0  0.14618110844E+02 -0.55737949783E+02  0.84671823394E+02  0.10241936285E+03  0.00000000000E+00 0.  1.
</event>
<event>
 8    1  0.7103328E-009  0.9977728E+02  0.7561462E-02  0.1280765E+00
          2   -1    0    0  501    0  0.00000000000E+00  0.00000000000E+00  0.15662888211E+03  0.15662888211E+03  0.00000000000E+00 0. -1.
         -2   -1    0    0    0  501 -0.00000000000E+00 -0.00000000000E+00 -0.10316002735E+03  0.10316002735E+03  0.00000000000E+00 0.  1.
         25    2    1    2    0    0 -0.47142861526E+02  0.60772270308E+01  0.78394914116E+02  0.15507454909E+03  0.12507186388E+03 0.  0.
         23    2    1    2    0    0  0.47142861526E+02 -0.60772270308E+01 -0.24926059357E+02  0.10471436037E+03  0.89913329106E+02 0.  0.
          5    1    3    3  502    0  0.21778446734E+02 -0.42968508187E+02  0.20710817981E+02  0.52602317624E+02  0.41800000000E+01 0. -1.
         -5    1    3    3    0  502 -0.68921308260E+02  0.49045735218E+02  0.57684096135E+02  0.10247223147E+03  0.41800000000E+01 0. -1.
        -11    1    4    4    0    0 -0.33748172649E+00 -0.17636447346E+02 -0.47658720081E+02  0.50818419581E+02  0.00000000000E+00 0.  1.
         11    1    4    4    0    0  0.47480343253E+02  0.11559220315E+02  0.22732660725E+02  0.53895940787E+02  0.00000000000E+00 0. -1.
</event>
<event>
 8    1  0.7103328E-009  0.9469116E+02  0.7561462E-02  0.1291873E+00
          2   -1    0    0  501    0  0.00000000000E+00  0.00000000000E+00  0.77628965427E+03  0.77628965427E+03  0.00000000000E+00 0. -1.
         -2   -1    0    0    0  501 -0.00000000000E+00 -0.00000000000E+00 -0.19182202812E+02  0.19182202812E+02  0.00000000000E+00 0.  1.
         25    2    1    2    0    0  0.51370016799E+02  0.13851898210E+02  0.36795281816E+03  0.39225827768E+03  0.12508607561E+03 0.  0.
         23    2    1    2    0    0 -0.51370016799E+02 -0.13851898210E+02  0.38915463330E+03  0.40321357940E+03  0.91154310284E+02 0.  0.
          5    1    3    3  502    0 -0.21615623542E+02 -0.33198376385E+01  0.25887166176E+03  0.25982737763E+03  0.41800000000E+01 0.  1.
         -5    1    3    3    0  502  0.72985640341E+02  0.17171735848E+02  0.10908115640E+03  0.13243090005E+03  0.41800000000E+01 0.  1.
        -11    1    4    4    0    0 -0.30082947967E+02 -0.45100077737E+02  0.31847514448E+03  0.32305637035E+03  0.00000000000E+00 0. -1.
         11    1    4    4    0    0 -0.21287068832E+02  0.31248179527E+02  0.70679488822E+02  0.80157209054E+02  0.00000000000E+00 0.  1.
</event>
<event>
 8    1  0.7103328E-009  0.1400078E+03  0.7561462E-02  0.1213318E+00
         -1   -1    0    0    0  501 -0.00000000000E+00  0.00000000000E+00  0.31487943891E+02  0.31487943891E+02  0.00000000000E+00 0.  1.
          1   -1    0    0  501    0  0.00000000000E+00 -0.00000000000E+00 -0.67823521327E+03  0.67823521327E+03  0.00000000000E+00 0. -1.
         25    2    1    2    0    0  0.74637879435E+02  0.47480186180E+02 -0.25096552482E+03  0.29403499072E+03  0.12509076701E+03 0.  0.
         23    2    1    2    0    0 -0.74637879435E+02 -0.47480186180E+02 -0.39578174456E+03  0.41568816645E+03  0.91259417438E+02 0.  0.
          5    1    3    3  502    0  0.10740442515E+03  0.52571323001E+02 -0.19098268608E+03  0.22536928213E+03  0.41800000000E+01 0. -1.
         -5    1    3    3    0  502 -0.32766545720E+02 -0.50911368207E+01 -0.59982838748E+02  0.68665708594E+02  0.41800000000E+01 0. -1.
        -11    1    4    4    0    0 -0.34798083104E+02  0.25943204479E+02 -0.14525289775E+03  0.15159934284E+03  0.00000000000E+00 0. -1.
         11    1    4    4    0    0 -0.39839796330E+02 -0.73423390659E+02 -0.25052884681E+03  0.26408882360E+03  0.00000000000E+00 0.  1.
</event>
<event>
 8    1  0.7103328E-009  0.9743130E+02  0.7561462E-02  0.1285792E+00
         -1   -1    0    0    0  501 -0.00000000000E+00  0.00000000000E+00  0.28757745962E+03  0.28757745962E+03  0.00000000000E+00 0.  1.
          1   -1    0    0  501    0  0.00000000000E+00 -0.00000000000E+00 -0.58434007394E+02  0.58434007394E+02  0.00000000000E+00 0. -1.
         25    2    1    2    0    0  0.30413535681E+02 -0.44290219858E+02  0.63820474182E+02  0.15035693814E+03  0.12509016426E+03 0.  0.
         23    2    1    2    0    0 -0.30413535681E+02  0.44290219858E+02  0.16532297804E+03  0.19565452887E+03  0.89790872980E+02 0.  0.
          5    1    3    3  502    0  0.71650556103E+02 -0.49422396805E+02  0.64776653714E+02  0.10858113447E+03  0.41800000000E+01 0.  1.
         -5    1    3    3    0  502 -0.41237020422E+02  0.51321769469E+01 -0.95617953127E+00  0.41775803676E+02  0.41800000000E+01 0.  1.
        -11    1    4    4    0    0  0.14291913547E+01  0.31670622195E+02  0.54677972203E+01  0.32170913954E+02  0.00000000000E+00 0. -1.
         11    1    4    4    0    0 -0.31842727035E+02  0.12619597663E+02  0.15985518082E+03  0.16348361492E+03  0.00000000000E+00 0.  1.
</event>
<event>
 8    1  0.7103328E-009  0.1307681E+03  0.7561462E-02  0.1226320E+00
          1   -1    0    0  501    0  0.00000000000E+00  0.00000000000E+00  0.54438929382E+02  0.54438929382E+02  0.00000000000E+00 0. -1.
         -1   -1    0    0    0  501 -0.00000000000E+00 -0.00000000000E+00 -0.46775160060E+03  0.46775160060E+03  0.00000000000E+00 0.  1.
         25    2    1    2    0    0  0.11335772230E+03  0.22832681266E+02 -0.24723781937E+03  0.30024508482E+03  0.12509703072E+03 0.  0.
         23    2    1    2    0    0 -0.11335772230E+03 -0.22832681266E+02 -0.16607485184E+03  0.22194544516E+03  0.91146144586E+02 0.  0.
          5    1    3    3  502    0  0.43725935174E+02  0.31984838670E+01 -0.21749819768E+03  0.22191242890E+03  0.41800000000E+01 0. -1.
         -5    1    3    3    0  502  0.69631787122E+02  0.19634197399E+02 -0.29739621688E+02  0.78332655920E+02  0.41800000000E+01 0. -1.
        -11    1    4    4    0    0 -0.31282171924E+01  0.24763753410E+02 -0.44830662665E+02  0.51310988499E+02  0.00000000000E+00 0.  1.
         11    1    4    4    0    0 -0.11022950510E+03 -0.47596434676E+02 -0.12124418918E+03  0.17063445666E+03  0.00000000000E+00 0. -1.
</event>
<event>
 8    1  0.7103328E-009  0.1169187E+03  0.7561462E-02  0.1248268E+00
          1   -1    0    0  501    0  0.00000000000E+00  0.00000000000E+00  0.34017349275E+03  0.34017349275E+03  0.00000000000E+00 0. -1.
         -1   -1    0    0    0  501 -0.00000000000E+00 -0.00000000000E+00 -0.88357059692E+02  0.88357059692E+02  0.00000000000E+00 0.  1.
         25    2    1    2    0    0  0.10316287619E+03  0.42591513985E+02  0.43543502088E+02  0.17320774067E+03  0.12509304043E+03 0.  0.
         23    2    1    2    0    0 -0.10316287619E+03 -0.42591513985E+02  0.20827293097E+03  0.25532281177E+03  0.96723876827E+02 0.  0.
          5    1    3    3  502    0  0.25158504024E+02  0.29674784725E+02 -0.41482758666E+02  0.57024861593E+02  0.41800000000E+01 0. -1.
         -5    1    3    3    0  502  0.78004372170E+02  0.12916729261E+02  0.85026260754E+02  0.11618287908E+03  0.41800000000E+01 0. -1.
        -11    1    4    4    0    0 -0.26681747794E+02 -0.26035903423E+02  0.15794115532E+03  0.16228121418E+03  0.00000000000E+00 0. -1.
         11    1    4    4    0    0 -0.76481128399E+02 -0.16555610563E+02  0.50331775650E+02  0.93041597592E+02  0.00000000000E+00 0.  1.
</event>
<event>
 8    1  0.7103328E-009  0.1202933E+03  0.7561462E-02  0.1242614E+00
         -2   -1    0    0    0  501 -0.00000000000E+00  0.00000000000E+00  0.11456051348E+02  0.11456051348E+02  0.00000000000E+00 0.  1.
          2   -1    0    0  501    0  0.00000000000E+00 -0.00000000000E+00 -0.16657814651E+04  0.16657814651E+04  0.00000000000E+00 0. -1.
         25    2    1    2    0    0  0.69241288411E+02 -0.28899777262E+02 -0.11624408341E+04  0.11715576731E+04  0.12509650448E+03 0.  0.
         23    2    1    2    0    0 -0.69241288411E+02  0.28899777262E+02 -0.49188457967E+03  0.50567984338E+03  0.90178218753E+02 0.  0.
          5    1    3    3  502    0 -0.27641150198E+02 -0.10675600817E+02 -0.58364840407E+03  0.58441503541E+03  0.41800000000E+01 0.  1.
         -5    1    3    3    0  502  0.96882438609E+02 -0.18224176445E+02 -0.57879243001E+03  0.58714263766E+03  0.41800000000E+01 0.  1.
        -11    1    4    4    0    0  0.30751640873E+01  0.38870001660E+02 -0.10584120620E+03  0.11279492273E+03  0.00000000000E+00 0. -1.
         11    1    4    4    0    0 -0.72316452498E+02 -0.99702243980E+01 -0.38604337346E+03  0.39288492065E+03  0.00000000000E+00 0.  1.
</event>
<event>
 8    1  0.7103328E-009  0.6054492E+02  0.7561462E-02  0.1395559E+00
         -1   -1    0    0    0  501 -0.00000000000E+00  0.00000000000E+00  0.92492036654E+02  0.92492036654E+02  0.00000000000E+00 0.  1.
          1   -1    0    0  501    0  0.00000000000E+00 -0.00000000000E+00 -0.23632590953E+03  0.23632590953E+03  0.00000000000E+00 0. -1.
         25    2    1    2    0    0 -0.11151163929E+02  0.27989332791E+02  0.27292347985E+02  0.13152875365E+03  0.12508872680E+03 0.  0.
         23    2    1    2    0    0  0.11151163929E+02 -0.27989332791E+02 -0.17112622086E+03  0.19728919254E+03  0.93440306169E+02 0.  0.
          5    1    3    3  502    0  0.19423677711E+02  0.46436979152E+01  0.70578371172E+02  0.73468510693E+02  0.41800000000E+01 0. -1.
         -5    1    3    3    0  502 -0.30574841640E+02  0.23345634876E+02 -0.43286023187E+02  0.58060242959E+02  0.41800000000E+01 0. -1.
        -11    1    4    4    0    0 -0.22079298050E+02 -0.11473893142E+02 -0.29374998104E+01  0.25055429179E+02  0.00000000000E+00 0.  1.
         11    1    4    4    0    0  0.33230461979E+02 -0.16515439649E+02 -0.16818872105E+03  0.17223376336E+03  0.00000000000E+00 0. -1.
</event>
<event>
 8    1  0.7103328E-009  0.9270157E+02  0.7561462E-02  0.1296438E+00
          3   -1    0    0  501    0  0.00000000000E+00  0.00000000000E+00  0.18037800357E+03  0.18037800357E+03  0.00000000000E+00 0. -1.
         -3   -1    0    0    0  501 -0.00000000000E+00 -0.00000000000E+00 -0.72652692007E+02  0.72652692007E+02  0.00000000000E+00 0.  1.
         25    2    1    2    0    0 -0.25928415563E+02 -0.43644452159E+01  0.31428690824E+02  0.13162985719E+03  0.12508927045E+03 0.  0.
         23    2    1    2    0    0  0.25928415563E+02  0.43644452159E+01  0.76296620734E+02  0.12140083838E+03  0.90695413931E+02 0.  0.
          5    1    3    3  502    0  0.11397066992E+02  0.53205473085E+02  0.31259055687E+02  0.62891306749E+02  0.41800000000E+01 0. -1.
         -5    1    3    3    0  502 -0.37325482554E+02 -0.57569918301E+02  0.16963513686E+00  0.68738550444E+02  0.41800000000E+01 0. -1.
        -11    1    4    4    0    0 -0.15239046800E+02 -0.10296934353E+02 -0.12634045994E+02  0.22313102039E+02  0.00000000000E+00 0.  1.
         11    1    4    4    0    0  0.41167462363E+02  0.14661379569E+02  0.88930666728E+02  0.99087736340E+02  0.00000000000E+00 0. -1.
</event>
<event>
 8    1  0.7103328E-009  0.9689422E+02  0.7561462E-02  0.1286966E+00
          1   -1    0    0  501    0  0.00000000000E+00  0.00000000000E+00  0.11554218690E+03  0.11554218690E+03  0.00000000000E+00 0. -1.
         -1   -1    0    0    0  501 -0.00000000000E+00 -0.00000000000E+00 -0.14044403576E+03  0.14044403576E+03  0.00000000000E+00 0.  1.
         25    2    1    2    0    0  0.42274484290E+02 -0.25873987396E+02 -0.58717265378E+02  0.14681869636E+03  0.12510562378E+03 0.  0.
         23    2    1    2    0    0 -0.42274484290E+02  0.25873987396E+02  0.33815416518E+02  0.10916752630E+03  0.91200170823E+02 0.  0.
          5    1    3    3  502    0  0.92210087501E+01  0.27402396753E+02 -0.76190041346E+02  0.81598487428E+02  0.41800000000E+01 0. -1.
         -5    1    3    3    0  502  0.33053475540E+02 -0.53276384150E+02  0.17472775967E+02  0.65220208934E+02  0.41800000000E+01 0. -1.
        -11    1    4    4    0    0 -0.59370269350E+02  0.46165013100E+02  0.34233179542E+02  0.82631397778E+02  0.00000000000E+00 0.  1.
         11    1    4    4    0    0  0.17095785061E+02 -0.20291025703E+02 -0.41776302377E+00  0.26536128521E+02  0.00000000000E+00 0. -1.
</event>
<event>
 8    1  0.7103328E-009  0.1003798E+03  0.7561462E-02  0.1279499E+00
         -2   -1    0    0    0  501 -0.00000000000E+00  0.00000000000E+00  0.16376209277E+03  0.16376209277E+03  0.00000000000E+00 0.  1.
          2   -1    0    0  501    0  0.00000000000E+00 -0.00000000000E+00 -0.74639985287E+02  0.74639985287E+02  0.00000000000E+00 0. -1.
         25    2    1    2    0    0  0.35675839652E+02  0.96152595964E+01  0.68550774737E+02  0.14734728911E+03  0.12508715417E+03 0.  0.
         23    2    1    2    0    0 -0.35675839652E+02 -0.96152595964E+01  0.20571332747E+02  0.91054788946E+02  0.80638552238E+02 0.  0.
          5    1    3    3  502    0  0.50938701648E+02  0.57795334690E+02  0.26849388055E+02  0.81690966921E+02  0.41800000000E+01 0.  1.
         -5    1    3    3    0  502 -0.15262861996E+02 -0.48180075094E+02  0.41701386682E+02  0.65656322191E+02  0.41800000000E+01 0.  1.
        -11    1    4    4    0    0 -0.35971386476E+02 -0.33412750752E+02 -0.12166535337E+02  0.50580402726E+02  0.00000000000E+00 0. -1.
         11    1    4    4    0    0  0.29554682371E+00  0.23797491156E+02  0.32737868084E+02  0.40474386221E+02  0.00000000000E+00 0.  1.
</event>
<event>
 8    1  0.7103328E-009  0.1542937E+03  0.7561462E-02  0.1195294E+00
         -1   -1    0    0    0  501 -0.00000000000E+00  0.00000000000E+00  0.11795323954E+03  0.11795323954E+03  0.00000000000E+00 0.  1.
          1   -1    0    0  501    0  0.00000000000E+00 -0.00000000000E+00 -0.34778414958E+03  0.34778414958E+03  0.00000000000E+00 0. -1.
         25    2    1    2    0    0 -0.11662915106E+03  0.43567879070E+01  0.25655629145E+02  0.17299614876E+03  0.12509242864E+03 0.  0.
         23    2    1    2    0    0  0.11662915106E+03 -0.43567879070E+01 -0.25548653918E+03  0.29274124036E+03  0.82478613134E+02 0.  0.
          5    1    3    3  502    0  0.88964943856E+01  0.35144117682E+02  0.23989459456E+02  0.43671766451E+02  0.41800000000E+01 0. -1.
         -5    1    3    3    0  502 -0.12552564545E+03 -0.30787329775E+02  0.16661696884E+01  0.12932438231E+03  0.41800000000E+01 0. -1.
        -11    1    4    4    0    0  0.11605205516E+03 -0.27796167256E+02 -0.20871278369E+03  0.24041990870E+03  0.00000000000E+00 0. -1.
         11    1    4    4    0    0  0.57709589679E+00  0.23439379349E+02 -0.46773755490E+02  0.52321331659E+02  0.00000000000E+00 0.  1.
</event>
<event>
 8    1  0.7103328E-009  0.1132486E+03  0.7561462E-02  0.1254670E+00
         -3   -1    0    0    0  501 -0.00000000000E+00  0.00000000000E+00  0.38795284757E+03  0.38795284757E+03  0.00000000000E+00 0.  1.
          3   -1    0    0  501    0  0.00000000000E+00 -0.00000000000E+00 -0.56060642402E+02  0.56060642402E+02  0.00000000000E+00 0. -1.
         25    2    1    2    0    0 -0.46224363132E+02 -0.40190428640E+02  0.61488606601E+02  0.15224673801E+03  0.12508500387E+03 0.  0.
         23    2    1    2    0    0  0.46224363132E+02  0.40190428640E+02  0.27040359856E+03  0.29176675196E+03  0.90872268211E+02 0.  0.
          5    1    3    3  502    0  0.32603441391E+02  0.17195273905E+02  0.35284333383E+02  0.51196859449E+02  0.41800000000E+01 0.  1.
         -5    1    3    3    0  502 -0.78827804523E+02 -0.57385702546E+02  0.26204273218E+02  0.10104987856E+03  0.41800000000E+01 0.  1.
        -11    1    4    4    0    0 -0.67351598145E+01  0.38222831610E+02  0.19953249896E+03  0.20327214609E+03  0.00000000000E+00 0.  1.
         11    1    4    4    0    0  0.52959522947E+02  0.19675970307E+01  0.70871099605E+02  0.88494605869E+02  0.00000000000E+00 0. -1.
</event>
<event>
 8    1  0.7103328E-009  0.1964241E+03  0.7561462E-02  0.1152792E+00
         -1   -1    0    0    0  501 -0.00000000000E+00  0.00000000000E+00  0.11139257542E+03  0.11139257542E+03  0.00000000000E+00 0.  1.
          1   -1    0    0  501    0  0.00000000000E+00 -0.00000000000E+00 -0.35213330996E+03  0.35213330996E+03  0.00000000000E+00 0. -1.
         25    2    1    2    0    0  0.15573109837E+03 -0.51213294063E+02 -0.14207729295E+03  0.25041378985E+03  0.12508450138E+03 0.  0.
         23    2    1    2    0    0 -0.15573109837E+03  0.51213294063E+02 -0.98663441586E+02  0.21311209553E+03  0.93847291207E+02 0.  0.
          5    1    3    3  502    0  0.15286259468E+02  0.36938461299E+02 -0.31452653577E+02  0.51037843496E+02  0.41800000000E+01 0. -1.
         -5    1    3    3    0  502  0.14044483891E+03 -0.88151755362E+02 -0.11062463937E+03  0.19937594636E+03  0.41800000000E+01 0. -1.
        -11    1    4    4    0    0 -0.16217453679E+03  0.62488462578E+02 -0.99199161210E+02  0.20011462196E+03  0.00000000000E+00 0. -1.
         11    1    4    4    0    0  0.64434384166E+01 -0.11275168515E+02  0.53571962322E+00  0.12997473569E+02  0.00000000000E+00 0.  1.
</event>
<event>
 8    1  0.7103328E-009  0.1012811E+03  0.7561462E-02  0.1277625E+00
         -1   -1    0    0    0  501 -0.00000000000E+00  0.00000000000E+00  0.35081838549E+02  0.35081838549E+02  0.00000000000E+00 0.  1.
          1   -1    0    0  501    0  0.00000000000E+00 -0.00000000000E+00 -0.40656799653E+03  0.40656799653E+03  0.00000000000E+00 0. -1.
         25    2    1    2    0    0  0.24799682717E+02  0.44660885454E+01 -0.12794177096E+03  0.18069348373E+03  0.12508424399E+03 0.  0.
         23    2    1    2    0    0 -0.24799682717E+02 -0.44660885454E+01 -0.24354438702E+03  0.26095635135E+03  0.90273909030E+02 0.  0.
          5    1    3    3  502    0  0.72734526910E+02 -0.75150632384E-01 -0.47895449458E+02  0.87188092829E+02  0.41800000000E+01 0. -1.
         -5    1    3    3    0  502 -0.47934844193E+02  0.45412391778E+01 -0.80046321502E+02  0.93505390899E+02  0.41800000000E+01 0. -1.
        -11    1    4    4    0    0  0.43734549259E+01 -0.37242347811E+02 -0.17915662538E+03  0.18303883740E+03  0.00000000000E+00 0. -1.
         11    1    4    4    0    0 -0.29173137643E+02  0.32776259266E+02 -0.64387761633E+02  0.77917513946E+02  0.00000000000E+00 0.  1.
</event>
<event>
 8    1  0.7103328E-009  0.1217020E+03  0.7561462E-02  0.1240315E+00
         -1   -1    0    0    0  501 -0.00000000000E+00  0.00000000000E+00  0.18014110396E+03  0.18014110396E+03  0.00000000000E+00 0.  1.
          1   -1    0    0  501    0  0.00000000000E+00 -0.00000000000E+00 -0.90869607439E+02  0.90869607439E+02  0.00000000000E+00 0. -1.
         25    2    1    2    0    0 -0.44187722902E+02 -0.31722987281E+02  0.85262046297E+02  0.16085195674E+03  0.12507930553E+03 0.  0.
         23    2    1    2    0    0  0.44187722902E+02  0.31722987281E+02  0.40094502232E+01  0.11015875465E+03  0.95707746595E+02 0.  0.
          5    1    3    3  502    0 -0.67323584999E+02  0.25095456557E+02  0.29291117891E+02  0.77702567680E+02  0.41800000000E+01 0.  1.
         -5    1    3    3    0  502  0.23135862096E+02 -0.56818443838E+02  0.55970928406E+02  0.83149389064E+02  0.41800000000E+01 0.  1.
        -11    1    4    4    0    0 -0.22383389752E+02 -0.16443645887E+02  0.34515340902E+01  0.27987903001E+02  0.00000000000E+00 0.  1.
         11    1    4    4    0    0  0.66571112654E+02  0.48166633168E+02  0.55791613303E+00  0.82170851652E+02  0.00000000000E+00 0. -1.
</event>
<event>
 8    1  0.7103328E-009  0.1124899E+03  0.7561462E-02  0.1256027E+00
          2   -1    0    0  501    0  0.00000000000E+00  0.00000000000E+00  0.64637069548E+03  0.64637069548E+03  0.00000000000E+00 0.  1.
         -2   -1    0    0    0  501 -0.00000000000E+00 -0.00000000000E+00 -0.24069235008E+02  0.24069235008E+02  0.00000000000E+00 0. -1.
         25    2    1    2    0    0 -0.15136299040E+02  0.54692584398E+02  0.28491582355E+03  0.31630070897E+03  0.12509486660E+03 0.  0.
         23    2    1    2    0    0  0.15136299040E+02 -0.54692584398E+02  0.33738563693E+03  0.35413922152E+03  0.91461105827E+02 0.  0.
          5    1    3    3  502    0  0.49038118668E+02  0.33304334209E+02  0.19403766081E+03  0.20293349150E+03  0.41800000000E+01 0.  1.
         -5    1    3    3    0  502 -0.64174417708E+02  0.21388250188E+02  0.90878162739E+02  0.11336721747E+03  0.41800000000E+01 0.  1.
        -11    1    4    4    0    0  0.47086157290E+02 -0.21675056536E+02  0.10317105765E+03  0.11546073541E+03  0.00000000000E+00 0. -1.
         11    1    4    4    0    0 -0.31949858250E+02 -0.33017527862E+02  0.23421457928E+03  0.23867848612E+03  0.00000000000E+00 0.  1.
</event>
<event>
 8    1  0.7103328E-009  0.1637796E+03  0.7561462E-02  0.1184494E+00
         -2   -1    0    0    0  501 -0.00000000000E+00  0.00000000000E+00  0.10372640208E+03  0.10372640208E+03  0.00000000000E+00 0. -1.
          2   -1    0    0  501    0  0.00000000000E+00 -0.00000000000E+00 -0.46610390697E+03  0.46610390697E+03  0.00000000000E+00 0.  1.
         25    2    1    2    0    0  0.10121516195E+03 -0.84653767912E+02 -0.90860741965E+01  0.18203459917E+03  0.12507305513E+03 0.  0.
         23    2    1    2    0    0 -0.10121516195E+03  0.84653767912E+02 -0.35329143069E+03  0.38779570988E+03  0.90332210009E+02 0.  0.
          5    1    3    3  502    0  0.39018985371E+02  0.24414662032E+02 -0.29402170450E+02  0.54776974804E+02  0.41800000000E+01 0.  1.
         -5    1    3    3    0  502  0.62196176582E+02 -0.10906842994E+03  0.20316096253E+02  0.12725762436E+03  0.41800000000E+01 0.  1.
        -11    1    4    4    0    0  0.10873123534E+02  0.28180903282E+02 -0.38709496464E+02  0.49100033011E+02  0.00000000000E+00 0.  1.
         11    1    4    4    0    0 -0.11208828549E+03  0.56472864630E+02 -0.31458193423E+03  0.33869567686E+03  0.00000000000E+00 0. -1.
</event>
<event>
 8    1  0.7103328E-009  0.2275517E+03  0.7561462E-02  0.1128375E+00
         -1   -1    0    0    0  501 -0.00000000000E+00  0.00000000000E+00  0.51412564309E+02  0.51412564309E+02  0.00000000000E+00 0.  1.
          1   -1    0    0  501    0  0.00000000000E+00 -0.00000000000E+00 -0.11948390178E+04  0.11948390178E+04  0.00000000000E+00 0. -1.
         25    2    1    2    0    0  0.22100606366E+03 -0.15616932126E+02 -0.64586206578E+03  0.69416901642E+03  0.12508096022E+03 0.  0.
         23    2    1    2    0    0 -0.22100606366E+03  0.15616932126E+02 -0.49756438776E+03  0.55208256573E+03  0.90206821636E+02 0.  0.
          5    1    3    3  502    0  0.13992776150E+03  0.24531526318E+02 -0.52022393798E+03  0.53928841288E+03  0.41800000000E+01 0.  1.
         -5    1    3    3    0  502  0.81078302166E+02 -0.40148458444E+02 -0.12563812779E+03  0.15488060354E+03  0.41800000000E+01 0.  1.
        -11    1    4    4    0    0 -0.24974872782E+02  0.80195982986E+01 -0.15599167543E+03  0.15818173419E+03  0.00000000000E+00 0. -1.
         11    1    4    4    0    0 -0.19603119088E+03  0.75973338272E+01 -0.34157271233E+03  0.39390083154E+03  0.00000000000E+00 0.  1.
</event>
<event>
 8    1  0.7103328E-009  0.8767026E+02  0.7561462E-02  0.1308594E+00
         -1   -1    0    0    0  501 -0.00000000000E+00  0.00000000000E+00  0.17443291421E+03  0.17443291421E+03  0.00000000000E+00 0.  1.
          1   -1    0    0  501    0  0.00000000000E+00 -0.00000000000E+00 -0.69214114214E+02  0.69214114214E+02  0.00000000000E+00 0. -1.
         25    2    1    2    0    0  0.14033288970E+02 -0.13104724432E+02  0.64801714346E+02  0.14217986138E+03  0.12508870372E+03 0.  0.
         23    2    1    2    0    0 -0.14033288970E+02  0.13104724432E+02  0.40417085651E+02  0.10146716704E+03  0.91067986546E+02 0.  0.
          5    1    3    3  502    0 -0.32546183084E+02 -0.33631789980E+02 -0.13325008110E+02  0.48840347785E+02  0.41800000000E+01 0. -1.
         -5    1    3    3    0  502  0.46579472054E+02  0.20527065548E+02  0.78126722456E+02  0.93339513597E+02  0.41800000000E+01 0. -1.
        -11    1    4    4    0    0 -0.26304707863E+01  0.44138802774E+02 -0.58483067597E+01  0.44602197018E+02  0.00000000000E+00 0. -1.
         11    1    4    4    0    0 -0.11402818184E+02 -0.31034078342E+02  0.46265392410E+02  0.56864970025E+02  0.00000000000E+00 0.  1.
</event>
<event>
 8    1  0.7103328E-009  0.1194081E+03  0.7561462E-02  0.1244077E+00
         -1   -1    0    0    0  501 -0.00000000000E+00  0.00000000000E+00  0.38297168933E+02  0.38297168933E+02  0.00000000000E+00 0.  1.
          1   -1    0    0  501    0  0.00000000000E+00 -0.00000000000E+00 -0.57011719076E+03  0.57011719076E+03  0.00000000000E+00 0. -1.
         25    2    1    2    0    0  0.69187672714E+02 -0.42316311134E+02 -0.40953889569E+03  0.43582592102E+03  0.12507806405E+03 0.  0.
         23    2    1    2    0    0 -0.69187672714E+02  0.42316311134E+02 -0.12228112613E+03  0.17258843867E+03  0.90865235984E+02 0.  0.
          5    1    3    3  502    0 -0.20327945162E+02 -0.54777969135E+02 -0.15765950645E+03  0.16818990348E+03  0.41800000000E+01 0.  1.
         -5    1    3    3    0  502  0.89515617875E+02  0.12461658001E+02 -0.25187938924E+03  0.26763601755E+03  0.41800000000E+01 0.  1.
        -11    1    4    4    0    0 -0.30356189439E+01  0.19578537441E+02 -0.95745239566E+02  0.97773641695E+02  0.00000000000E+00 0. -1.
         11    1    4    4    0    0 -0.66152053770E+02  0.22737773693E+02 -0.26535886568E+02  0.74814796975E+02  0.00000000000E+00 0.  1.
</event>
<event>
 8    1  0.7103328E-009  0.9817028E+02  0.7561462E-02  0.1284191E+00
          2   -1    0    0  501    0  0.00000000000E+00  0.00000000000E+00  0.44557758365E+03  0.44557758365E+03  0.00000000000E+00 0.  1.
         -2   -1    0    0    0  501 -0.00000000000E+00 -0.00000000000E+00 -0.39765982906E+02  0.39765982906E+02  0.00000000000E+00 0. -1.
         25    2    1    2    0    0  0.62791807276E+02  0.22411352383E+02  0.28812633073E+03  0.32110332784E+03  0.12508191282E+03 0.  0.
         23    2    1    2    0    0 -0.62791807276E+02 -0.22411352383E+02  0.11768527001E+03  0.16424023871E+03  0.93166267808E+02 0.  0.
          5    1    3    3  502    0  0.50839388622E+02  0.37788797310E+02  0.46584507923E+02  0.78741510121E+02  0.41800000000E+01 0. -1.
         -5    1    3    3    0  502  0.11952418654E+02 -0.15377444927E+02  0.24154182281E+03  0.24236181772E+03  0.41800000000E+01 0. -1.
        -11    1    4    4    0    0 -0.75144323900E+02  0.12254258313E+02  0.65807686798E+02  0.10063542072E+03  0.00000000000E+00 0. -1.
         11    1    4    4    0    0  0.12352516624E+02 -0.34665610696E+02  0.51877583211E+02  0.63604817991E+02  0.00000000000E+00 0.  1.
</event>
<event>
 8    1  0.7103328E-009  0.1118926E+03  0.7561462E-02  0.1257105E+00
         -2   -1    0    0    0  501 -0.00000000000E+00  0.00000000000E+00  0.25422899223E+02  0.25422899223E+02  0.00000000000E+00 0.  1.
          2   -1    0    0  501    0  0.00000000000E+00 -0.00000000000E+00 -0.66056361617E+03  0.66056361617E+03  0.00000000000E+00 0. -1.
         25    2    1    2    0    0 -0.58791438011E+02  0.25851578032E+02 -0.42375427467E+03  0.44647528416E+03  0.12509099407E+03 0.  0.
         23    2    1    2    0    0  0.58791438011E+02 -0.25851578032E+02 -0.21138644228E+03  0.23951123123E+03  0.92502241256E+02 0.  0.
          5    1    3    3  502    0 -0.93316042970E+02  0.28779722221E+02 -0.23491241834E+03  0.25443559691E+03  0.41800000000E+01 0.  1.
         -5    1    3    3    0  502  0.34524604959E+02 -0.29281441886E+01 -0.18884185633E+03  0.19203968725E+03  0.41800000000E+01 0.  1.
        -11    1    4    4    0    0  0.36726157764E+02  0.18857914335E+02 -0.29049832842E+02  0.50480930908E+02  0.00000000000E+00 0.  1.
         11    1    4    4    0    0  0.22065280247E+02 -0.44709492368E+02 -0.18233660944E+03  0.18903030032E+03  0.00000000000E+00 0. -1.
</event>
<event>
 8    1  0.7103328E-009  0.1135143E+03  0.7561462E-02  0.1254197E+00
          2   -1    0    0  501    0  0.00000000000E+00  0.00000000000E+00  0.73849962649E+03  0.73849962649E+03  0.00000000000E+00 0. -1.
         -2   -1    0    0    0  501 -0.00000000000E+00 -0.00000000000E+00 -0.18437896463E+02  0.18437896463E+02  0.00000000000E+00 0.  1.
         25    2    1    2    0    0 -0.66787825854E+01 -0.34194344898E+02  0.39095929503E+03  0.41195929915E+03  0.12508970552E+03 0.  0.
         23    2    1    2    0    0  0.66787825854E+01  0.34194344898E+02  0.32910243499E+03  0.34497822380E+03  0.97404839798E+02 0.  0.
          5    1    3    3  502    0 -0.62035782721E+02 -0.43743782820E+01  0.24826215053E+03  0.25596707075E+03  0.41800000000E+01 0.  1.
         -5    1    3    3    0  502  0.55357000135E+02 -0.29819966616E+02  0.14269714450E+03  0.15599222840E+03  0.41800000000E+01 0.  1.
        -11    1    4    4    0    0  0.26896396497E+02 -0.26470142324E+02  0.92870325943E+02  0.10024461093E+03  0.00000000000E+00 0.  1.
         11    1    4    4    0    0 -0.20217613911E+02  0.60664487222E+02  0.23623210905E+03  0.24473361287E+03  0.00000000000E+00 0. -1.
</event>
<event>
 8    1  0.7103328E-009  0.1272818E+03  0.7561462E-02  0.1231546E+00
         -1   -1    0    0    0  501 -0.00000000000E+00  0.00000000000E+00  0.71546826458E+02  0.71546826458E+02  0.00000000000E+00 0.  1.
          1   -1    0    0  501    0  0.00000000000E+00 -0.00000000000E+00 -0.47444456584E+03  0.47444456584E+03  0.00000000000E+00 0. -1.
         25    2    1    2    0    0  0.86991399022E+02 -0.70920180432E+01 -0.38832102994E+03  0.41720279142E+03  0.12508855525E+03 0.  0.
         23    2    1    2    0    0 -0.86991399022E+02  0.70920180432E+01 -0.14576709439E+02  0.12878860087E+03  0.93574692266E+02 0.  0.
          5    1    3    3  502    0  0.85631246938E+02  0.28846925299E+02 -0.14288669994E+03  0.16911220231E+03  0.41800000000E+01 0.  1.
         -5    1    3    3    0  502  0.13601520845E+01 -0.35938943343E+02 -0.24543433000E+03  0.24809058911E+03  0.41800000000E+01 0.  1.
        -11    1    4    4    0    0 -0.64838133137E+02 -0.39771915845E+02 -0.67249700538E+01  0.76361076609E+02  0.00000000000E+00 0.  1.
         11    1    4    4    0    0 -0.22153265886E+02  0.46863933889E+02 -0.78517393857E+01  0.52427524262E+02  0.00000000000E+00 0. -1.
</event>
<event>
 8    1  0.7103328E-009  0.1369311E+03  0.7561462E-02  0.1217519E+00
         -1   -1    0    0    0  501 -0.00000000000E+00  0.00000000000E+00  0.63585710749E+03  0.63585710749E+03  0.00000000000E+00 0.  1.
          1   -1    0    0  501    0  0.00000000000E+00 -0.00000000000E+00 -0.41020174134E+02  0.41020174134E+02  0.00000000000E+00 0. -1.
         25    2    1    2    0    0 -0.44419595065E+01 -0.11388801301E+03  0.42355121580E+03  0.45610834524E+03  0.12509588194E+03 0.  0.
         23    2    1    2    0    0  0.44419595065E+01  0.11388801301E+03  0.17128571756E+03  0.22076893639E+03  0.80061949290E+02 0.  0.
          5    1    3    3  502    0 -0.42668782674E+02 -0.10497911546E+03  0.20733675329E+03  0.23632020938E+03  0.41800000000E+01 0.  1.
         -5    1    3    3    0  502  0.38226823167E+02 -0.89088975503E+01  0.21621446251E+03  0.21978813586E+03  0.41800000000E+01 0.  1.
        -11    1    4    4    0    0 -0.15125226534E+02  0.83437146221E+02  0.16284787710E+03  0.18360272581E+03  0.00000000000E+00 0.  1.
         11    1    4    4    0    0  0.19567186040E+02  0.30450866786E+02  0.84378404577E+01  0.37166210583E+02  0.00000000000E+00 0. -1.
</event>
<event>
 8    1  0.7103328E-009  0.1598449E+03  0.7561462E-02  0.1188872E+00
         -2   -1    0    0    0  501 -0.00000000000E+00  0.00000000000E+00  0.22149997524E+02  0.22149997524E+02  0.00000000000E+00 0.  1.
          2   -1    0    0  501    0  0.00000000000E+00 -0.00000000000E+00 -0.15318602998E+04  0.15318602998E+04  0.00000000000E+00 0. -1.
         25    2    1    2    0    0 -0.14303495006E+03 -0.20894250654E+02 -0.89203057482E+03  0.91228388851E+03  0.12509108750E+03 0.  0.
         23    2    1    2    0    0  0.14303495006E+03  0.20894250654E+02 -0.61767972749E+03  0.64172640885E+03  0.96896704865E+02 0.  0.
          5    1    3    3  502    0 -0.58527199535E+02 -0.28777952709E+02 -0.69028620868E+03  0.69337300635E+03  0.41800000000E+01 0. -1.
         -5    1    3    3    0  502 -0.84507750521E+02  0.78837020551E+01 -0.20174436614E+03  0.21891088216E+03  0.41800000000E+01 0. -1.
        -11    1    4    4    0    0  0.74868104225E+02  0.55227406401E+02 -0.26423806923E+03  0.28013756741E+03  0.00000000000E+00 0.  1.
         11    1    4    4    0    0  0.68166845831E+02 -0.34333155747E+02 -0.35344165826E+03  0.36158884144E+03  0.00000000000E+00 0. -1.
</event>
<event>
 8    1  0.7103328E-009  0.1398125E+03  0.7561462E-02  0.1213582E+00
          2   -1    0    0  501    0  0.00000000000E+00  0.00000000000E+00  0.58328720869E+03  0.58328720869E+03  0.00000000000E+00 0.  1.
         -2   -1    0    0    0  501 -0.00000000000E+00 -0.00000000000E+00 -0.49737009555E+02  0.49737009555E+02  0.00000000000E+00 0. -1.
         25    2    1    2    0    0 -0.11731902619E+03  0.55145224625E+02  0.24830027996E+03  0.30676575394E+03  0.12508976400E+03 0.  0.
         23    2    1    2    0    0  0.11731902619E+03 -0.55145224625E+02  0.28524991918E+03  0.32625846430E+03  0.90952292073E+02 0.  0.
          5    1    3    3  502    0 -0.19693888308E+02  0.32686058954E+02  0.18330024887E+03  0.18727701761E+03  0.41800000000E+01 0.  1.
         -5    1    3    3    0  502 -0.97625137885E+02  0.22459165670E+02  0.65000031086E+02  0.11948873633E+03  0.41800000000E+01 0.  1.
        -11    1    4    4    0    0  0.84344348550E+02 -0.98074683529E+01  0.92692507742E+02  0.12570623119E+03  0.00000000000E+00 0. -1.
         11    1    4    4    0    0  0.32974677644E+02 -0.45337756272E+02  0.19255741143E+03  0.20055223311E+03  0.00000000000E+00 0.  1.
</event>
<event>
 8    1  0.7103328E-009  0.1145773E+03  0.7561462E-02  0.1252321E+00
         -2   -1    0    0    0  501 -0.00000000000E+00  0.00000000000E+00  0.36156775527E+02  0.36156775527E+02  0.00000000000E+00 0.  1.
          2   -1    0    0  501    0  0.00000000000E+00 -0.00000000000E+00 -0.46643572917E+03  0.46643572917E+03  0.00000000000E+00 0. -1.
         25    2    1    2    0    0 -0.29711188961E+02  0.60161673453E+02 -0.29334423338E+03  0.32588385719E+03  0.12508903797E+03 0.  0.
         23    2    1    2    0    0  0.29711188961E+02 -0.60161673453E+02 -0.13693472027E+03  0.17670864751E+03  0.89289679064E+02 0.  0.
          5    1    3    3  502    0 -0.31562387026E+02 -0.27752067453E+02 -0.41978145313E+02  0.59548288025E+02  0.41800000000E+01 0.  1.
         -5    1    3    3    0  502  0.18511980650E+01  0.87913740906E+02 -0.25136608807E+03  0.26633556917E+03  0.41800000000E+01 0.  1.
        -11    1    4    4    0    0  0.45076774288E+02 -0.96615816721E+01 -0.23836156927E+02  0.51898209195E+02  0.00000000000E+00 0.  1.
         11    1    4    4    0    0 -0.15365585326E+02 -0.50500091781E+02 -0.11309856334E+03  0.12481043831E+03  0.00000000000E+00 0. -1.
</event>
<event>
 8    1  0.7103328E-009  0.9286014E+02  0.7561462E-02  0.1296070E+00
         -1   -1    0    0    0  501 -0.00000000000E+00  0.00000000000E+00  0.30635309401E+03  0.30635309401E+03  0.00000000000E+00 0.  1.
          1   -1    0    0  501    0  0.00000000000E+00 -0.00000000000E+00 -0.59515567937E+02  0.59515567937E+02  0.00000000000E+00 0. -1.
         25    2    1    2    0    0 -0.61994463197E+02 -0.48410135098E+02  0.16158821123E+03  0.21896450080E+03  0.12509135844E+03 0.  0.
         23    2    1    2    0    0  0.61994463197E+02  0.48410135098E+02  0.85249314844E+02  0.14690416114E+03  0.90147280784E+02 0.  0.
          5    1    3    3  502    0 -0.43089971481E+02 -0.42198394140E+02  0.18101430844E+03  0.19084313551E+03  0.41800000000E+01 0.  1.
         -5    1    3    3    0  502 -0.18904491716E+02 -0.62117409582E+01 -0.19426097217E+02  0.28121365291E+02  0.41800000000E+01 0.  1.
        -11    1    4    4    0    0  0.16783381294E+02  0.56554539651E+02  0.81776896236E+02  0.10083431262E+03  0.00000000000E+00 0.  1.
         11    1    4    4    0    0  0.45211081903E+02 -0.81444045529E+01  0.34724186081E+01  0.46069848528E+02  0.00000000000E+00 0. -1.
</event>
<event>
 8    1  0.7103328E-009  0.1191413E+03  0.7561462E-02  0.1244520E+00
         -3   -1    0    0    0  501 -0.00000000000E+00  0.00000000000E+00  0.15357164266E+03  0.15357164266E+03  0.00000000000E+00 0.  1.
          3   -1    0    0  501    0  0.00000000000E+00 -0.00000000000E+00 -0.10691606464E+03  0.10691606464E+03  0.00000000000E+00 0. -1.
         25    2    1    2    0    0  0.48020156973E+02  0.42986964559E+02  0.40871655643E+02  0.14653264950E+03  0.12509000974E+03 0.  0.
         23    2    1    2    0    0 -0.48020156973E+02 -0.42986964559E+02  0.57839223782E+01  0.11395505780E+03  0.93800249696E+02 0.  0.
          5    1    3    3  502    0  0.27351941573E+02  0.84022468769E+02  0.59332252554E+01  0.88659909360E+02  0.41800000000E+01 0. -1.
         -5    1    3    3    0  502  0.20668215400E+02 -0.41035504210E+02  0.34938430388E+02  0.57872740142E+02  0.41800000000E+01 0. -1.
        -11    1    4    4    0    0 -0.67082728380E+01 -0.58998642024E+02 -0.20043640841E+02  0.62670473297E+02  0.00000000000E+00 0.  1.
         11    1    4    4    0    0 -0.41311884134E+02  0.16011677465E+02  0.25827563219E+02  0.51284584505E+02  0.00000000000E+00 0. -1.
</event>
<event>
 8    1  0.7103328E-009  0.1601592E+03  0.7561462E-02  0.1188517E+00
         -3   -1    0    0    0  501 -0.00000000000E+00  0.00000000000E+00  0.22871257263E+02  0.22871257263E+02  0.00000000000E+00 0.  1.
          3   -1    0    0  501    0  0.00000000000E+00 -0.00000000000E+00 -0.15701673496E+04  0.15701673496E+04  0.00000000000E+00 0. -1.
         25    2    1    2    0    0  0.92972907578E+02  0.80918257248E+02 -0.12138656718E+04  0.12265027271E+04  0.12508934654E+03 0.  0.
         23    2    1    2    0    0 -0.92972907578E+02 -0.80918257248E+02 -0.33343042056E+03  0.36653587975E+03  0.89336330147E+02 0.  0.
          5    1    3    3  502    0  0.39263168492E+01  0.80364185246E+02 -0.42090211545E+03  0.42854390840E+03  0.41800000000E+01 0. -1.
         -5    1    3    3    0  502  0.89046590729E+02  0.55407200265E+00 -0.79296355631E+03  0.79795881870E+03  0.41800000000E+01 0. -1.
        -11    1    4    4    0    0 -0.39049690034E+01 -0.58668810376E+02 -0.10490234405E+03  0.12025714067E+03  0.00000000000E+00 0.  1.
         11    1    4    4    0    0 -0.89067938575E+02 -0.22249446873E+02 -0.22852807651E+03  0.24627873908E+03  0.00000000000E+00 0. -1.
</event>
<event>
 8    1  0.7103328E-009  0.1215925E+03  0.7561462E-02  0.1240493E+00
          2   -1    0    0  501    0  0.00000000000E+00  0.00000000000E+00  0.24154829638E+03  0.24154829638E+03  0.00000000000E+00 0. -1.
         -2   -1    0    0    0  501 -0.00000000000E+00 -0.00000000000E+00 -0.86277124951E+02  0.86277124951E+02  0.00000000000E+00 0.  1.
         25    2    1    2    0    0  0.62008252972E+02  0.68644084667E+02  0.10156848141E+03  0.18579939601E+03  0.12509286688E+03 0.  0.
         23    2    1    2    0    0 -0.62008252972E+02 -0.68644084667E+02  0.53702690010E+02  0.14202602532E+03  0.93436497993E+02 0.  0.
          5    1    3    3  502    0  0.50528146478E+02  0.88036656851E+02  0.11939129347E+03  0.15676511057E+03  0.41800000000E+01 0. -1.
         -5    1    3    3    0  502  0.11480106495E+02 -0.19392572184E+02 -0.17822812057E+02  0.29034285434E+02  0.41800000000E+01 0. -1.
        -11    1    4    4    0    0 -0.16569069955E+02 -0.71257052221E+02  0.61836518088E+02  0.95790691299E+02  0.00000000000E+00 0. -1.
         11    1    4    4    0    0 -0.45439183018E+02  0.26129675536E+01 -0.81338280780E+01  0.46235334020E+02  0.00000000000E+00 0.  1.
</event>
<event>
 8    1  0.7103328E-009  0.1037165E+03  0.7561462E-02  0.1272669E+00
         -1   -1    0    0    0  501 -0.00000000000E+00  0.00000000000E+00  0.93944085328E+02  0.93944085328E+02  0.00000000000E+00 0.  1.
          1   -1    0    0  501    0  0.00000000000E+00 -0.00000000000E+00 -0.22622790465E+03  0.22622790465E+03  0.00000000000E+00 0. -1.
         25    2    1    2    0    0  0.52522898430E+02  0.68959589753E+02 -0.19196236434E+02  0.15340168336E+03  0.12509796596E+03 0.  0.
         23    2    1    2    0    0 -0.52522898430E+02 -0.68959589753E+02 -0.11308758289E+03  0.16677030661E+03  0.86657105226E+02 0.  0.
          5    1    3    3  502    0 -0.21359113793E+01  0.54416121685E+02  0.42790506039E+02  0.69384264958E+02  0.41800000000E+01 0. -1.
         -5    1    3    3    0  502  0.54658809810E+02  0.14543468068E+02 -0.61986742473E+02  0.84017418407E+02  0.41800000000E+01 0. -1.
        -11    1    4    4    0    0 -0.18544652088E+02 -0.57221339356E+02 -0.11603675146E+03  0.13070085497E+03  0.00000000000E+00 0. -1.
         11    1    4    4    0    0 -0.33978246342E+02 -0.11738250397E+02  0.29491685750E+01  0.36069451648E+02  0.00000000000E+00 0.  1.
</event>
<event>
 8    1  0.7103328E-009  0.8027647E+02  0.7561462E-02  0.1328269E+00
          2   -1    0    0  501    0  0.00000000000E+00  0.00000000000E+00  0.32779357993E+03  0.32779357993E+03  0.00000000000E+00 0. -1.
         -2   -1    0    0    0  501 -0.00000000000E+00 -0.00000000000E+00 -0.46821251701E+02  0.46821251701E+02  0.00000000000E+00 0.  1.
         25    2    1    2    0    0  0.82850603890E+01  0.18420471890E+02  0.73576895549E+02  0.14652457410E+03  0.12509170735E+03 0.  0.
         23    2    1    2    0    0 -0.82850603890E+01 -0.18420471890E+02  0.20739543268E+03  0.22809025752E+03  0.92759603663E+02 0.  0.
          5    1    3    3  502    0 -0.33011199843E+02  0.20545173247E+01 -0.22753762853E+02  0.40362934488E+02  0.41800000000E+01 0.  1.
         -5    1    3    3    0  502  0.41296260232E+02  0.16365954565E+02  0.96330658402E+02  0.10616163962E+03  0.41800000000E+01 0.  1.
        -11    1    4    4    0    0  0.22783167255E+02  0.21963251661E+02  0.30306351557E+02  0.43817029548E+02  0.00000000000E+00 0.  1.
         11    1    4    4    0    0 -0.31068227644E+02 -0.40383723551E+02  0.17708908112E+03  0.18427322798E+03  0.00000000000E+00 0. -1.
</event>
<event>
 8    1  0.7103328E-009  0.1685948E+03  0.7561462E-02  0.1179321E+00
         -2   -1    0    0    0  501 -0.00000000000E+00  0.00000000000E+00  0.62063333183E+02  0.62063333183E+02  0.00000000000E+00 0. -1.
          2   -1    0    0  501    0  0.00000000000E+00 -0.00000000000E+00 -0.87327461783E+03  0.87327461783E+03  0.00000000000E+00 0.  1.
         25    2    1    2    0    0  0.12595325893E+03  0.63842254975E+02 -0.11909099131E+03  0.22309201978E+03  0.12508928060E+03 0.  0.
         23    2    1    2    0    0 -0.12595325893E+03 -0.63842254975E+02 -0.69212029334E+03  0.71224593124E+03  0.91234363913E+02 0.  0.
          5    1    3    3  502    0  0.14888561919E+03  0.38721041649E+02 -0.10336323582E+03  0.18538521404E+03  0.41800000000E+01 0. -1.
         -5    1    3    3    0  502 -0.22932360257E+02  0.25121213327E+02 -0.15727755496E+02  0.37706805738E+02  0.41800000000E+01 0. -1.
        -11    1    4    4    0    0 -0.11005992871E+03 -0.33963068651E+02 -0.63873561084E+03  0.64903764027E+03  0.00000000000E+00 0.  1.
         11    1    4    4    0    0 -0.15893330219E+02 -0.29879186324E+02 -0.53384682499E+02  0.63208290962E+02  0.00000000000E+00 0. -1.
</event>
<event>
 8    1  0.7103328E-009  0.1046841E+03  0.7561462E-02  0.1270743E+00
         -2   -1    0    0    0  501 -0.00000000000E+00  0.00000000000E+00  0.10446906218E+03  0.10446906218E+03  0.00000000000E+00 0.  1.
          2   -1    0    0  501    0  0.00000000000E+00 -0.00000000000E+00 -0.14793357988E+03  0.14793357988E+03  0.00000000000E+00 0. -1.
         25    2    1    2    0    0 -0.51495499646E+02  0.18521633898E+02 -0.49979268338E+02  0.14539633843E+03  0.12508929034E+03 0.  0.
         23    2    1    2    0    0  0.51495499646E+02 -0.18521633898E+02  0.65147506330E+01  0.10700630363E+03  0.91722786892E+02 0.  0.
          5    1    3    3  502    0  0.24221182983E+02  0.15045713970E+02  0.25401763385E+02  0.38415637403E+02  0.41800000000E+01 0. -1.
         -5    1    3    3    0  502 -0.75716682628E+02  0.34759199278E+01 -0.75381031723E+02  0.10698070102E+03  0.41800000000E+01 0. -1.
        -11    1    4    4    0    0  0.49192810026E+02 -0.51709228929E+02  0.14419299289E+02  0.72812726269E+02  0.00000000000E+00 0. -1.
         11    1    4    4    0    0  0.23026896193E+01  0.33187595031E+02 -0.79045486562E+01  0.34193577363E+02  0.00000000000E+00 0.  1.
</event>
<event>
 8    1  0.7103328E-009  0.1181240E+03  0.7561462E-02  0.1246224E+00
          1   -1    0    0  501    0  0.00000000000E+00  0.00000000000E+00  0.33549903969E+03  0.33549903969E+03  0.00000000000E+00 0. -1.
         -1   -1    0    0    0  501 -0.00000000000E+00 -0.00000000000E+00 -0.50221029091E+02  0.50221029091E+02  0.00000000000E+00 0.  1.
         25    2    1    2    0    0  0.61537863205E+02  0.31941034430E+02  0.15332317150E+03  0.20967534465E+03  0.12509443212E+03 0.  0.
         23    2    1    2    0    0 -0.61537863205E+02 -0.31941034430E+02  0.13195483910E+03  0.17604472413E+03  0.93661769389E+02 0.  0.
          5    1    3    3  502    0 -0.10601700897E+02  0.54945787149E+02  0.26847149385E+02  0.62206731287E+02  0.41800000000E+01 0.  1.
         -5    1    3    3    0  502  0.72139564102E+02 -0.23004752719E+02  0.12647602212E+03  0.14746861336E+03  0.41800000000E+01 0.  1.
        -11    1    4    4    0    0  0.93620411986E+01 -0.32059799602E+02  0.98029455045E+01  0.34807704700E+02  0.00000000000E+00 0.  1.
         11    1    4    4    0    0 -0.70899904404E+02  0.11876517206E+00  0.12215189359E+03  0.14123701943E+03  0.00000000000E+00 0. -1.
</event>
<event>
 8    1  0.7103328E-009  0.1267644E+03  0.7561462E-02  0.1232337E+00
          1   -1    0    0  501    0  0.00000000000E+00  0.00000000000E+00  0.13665682997E+03  0.13665682997E+03  0.00000000000E+00 0. -1.
         -1   -1    0    0    0  501 -0.00000000000E+00 -0.00000000000E+00 -0.13466797506E+03  0.13466797506E+03  0.00000000000E+00 0.  1.
         25    2    1    2    0    0 -0.61884030443E+02 -0.52176961982E+02  0.89038907152E+01  0.14925613387E+03  0.12508415425E+03 0.  0.
         23    2    1    2    0    0  0.61884030443E+02  0.52176961982E+02 -0.69150358058E+01  0.12206867116E+03  0.91109133319E+02 0.  0.
          5    1    3    3  502    0 -0.93365566197E+02 -0.65349003863E+02  0.12331045147E+02  0.11470461338E+03  0.41800000000E+01 0. -1.
         -5    1    3    3    0  502  0.31481535754E+02  0.13172041881E+02 -0.34271544321E+01  0.34551520491E+02  0.41800000000E+01 0. -1.
        -11    1    4    4    0    0 -0.97350088701E+01  0.27797730761E+02 -0.30914271940E+02  0.42698670269E+02  0.00000000000E+00 0.  1.
         11    1    4    4    0    0  0.71619039313E+02  0.24379231222E+02  0.23999236134E+02  0.79370000895E+02  0.00000000000E+00 0. -1.
</event>
<event>
 8    1  0.7103328E-009  0.1024639E+03  0.7561462E-02  0.1275198E+00
         -2   -1    0    0    0  501 -0.00000000000E+00  0.00000000000E+00  0.19846970926E+02  0.19846970926E+02  0.00000000000E+00 0.  1.
          2   -1    0    0  501    0  0.00000000000E+00 -0.00000000000E+00 -0.92548163259E+03  0.92548163259E+03  0.00000000000E+00 0. -1.
         25    2    1    2    0    0 -0.34278363397E+02 -0.54209249061E+02 -0.67941032616E+03  0.69380119418E+03  0.12509219350E+03 0.  0.
         23    2    1    2    0    0  0.34278363397E+02  0.54209249061E+02 -0.22622433551E+03  0.25152740934E+03  0.89302512796E+02 0.  0.
          5    1    3    3  502    0  0.32866867697E+02  0.18783137498E+02 -0.12874326011E+03  0.13425846964E+03  0.41800000000E+01 0.  1.
         -5    1    3    3    0  502 -0.67145231094E+02 -0.72992386560E+02 -0.55066706605E+03  0.55954272454E+03  0.41800000000E+01 0.  1.
        -11    1    4    4    0    0  0.22438355503E+02  0.15958997353E+02 -0.66425858259E+01  0.28324783153E+02  0.00000000000E+00 0.  1.
         11    1    4    4    0    0  0.11840007894E+02  0.38250251709E+02 -0.21958174969E+03  0.22320262619E+03  0.00000000000E+00 0. -1.
</event>
<event>
 8    1  0.7103328E-009  0.1216891E+03  0.7561462E-02  0.1240336E+00
         -2   -1    0    0    0  501 -0.00000000000E+00  0.00000000000E+00  0.63976080026E+02  0.63976080026E+02  0.00000000000E+00 0. -1.
          2   -1    0    0  501    0  0.00000000000E+00 -0.00000000000E+00 -0.24418756904E+03  0.24418756904E+03  0.00000000000E+00 0.  1.
         25    2    1    2    0    0 -0.54380730194E+02  0.24900334326E+02 -0.73305055981E+02  0.15683525703E+03  0.12508547537E+03 0.  0.
         23    2    1    2    0    0  0.54380730194E+02 -0.24900334326E+02 -0.10690643303E+03  0.15132839203E+03  0.88848220841E+02 0.  0.
          5    1    3    3  502    0 -0.50624053744E+02 -0.45034526528E+02 -0.28742384583E+02  0.73719064486E+02  0.41800000000E+01 0. -1.
         -5    1    3    3    0  502 -0.37566764494E+01  0.69934860855E+02 -0.44562671397E+02  0.83116192542E+02  0.41800000000E+01 0. -1.
        -11    1    4    4    0    0  0.59663206958E+01 -0.50305179001E+02 -0.37787006908E+02  0.63198622675E+02  0.00000000000E+00 0. -1.
         11    1    4    4    0    0  0.48414409498E+02  0.25404844674E+02 -0.69119426121E+02  0.88129769359E+02  0.00000000000E+00 0.  1.
</event>
<event>
 8    1  0.7103328E-009  0.1059162E+03  0.7561462E-02  0.1268325E+00
          1   -1    0    0  501    0  0.00000000000E+00  0.00000000000E+00  0.61564670134E+02  0.61564670134E+02  0.00000000000E+00 0. -1.
         -1   -1    0    0    0  501 -0.00000000000E+00 -0.00000000000E+00 -0.23363578981E+03  0.23363578981E+03  0.00000000000E+00 0.  1.
         25    2    1    2    0    0 -0.60060101052E+01 -0.42178862314E+02 -0.61922116392E+02  0.14593312959E+03  0.12508797396E+03 0.  0.
         23    2    1    2    0    0  0.60060101052E+01  0.42178862314E+02 -0.11014900329E+03  0.14926733036E+03  0.91284195802E+02 0.  0.
          5    1    3    3  502    0  0.49053969097E+02  0.69565345389E+01 -0.50982218156E+02  0.71213371112E+02  0.41800000000E+01 0.  1.
         -5    1    3    3    0  502 -0.55059979202E+02 -0.49135396853E+02 -0.10939898235E+02  0.74719758478E+02  0.41800000000E+01 0.  1.
        -11    1    4    4    0    0  0.15815323092E+02  0.63120621872E+02 -0.10793938916E+03  0.12603669737E+03  0.00000000000E+00 0.  1.
         11    1    4    4    0    0 -0.98093129864E+01 -0.20941759558E+02 -0.22096141251E+01  0.23230632992E+02  0.00000000000E+00 0. -1.
</event>
<event>
 8    1  0.7103328E-009  0.1603874E+03  0.7561462E-02  0.1188260E+00
          1   -1    0    0  501    0  0.00000000000E+00  0.00000000000E+00  0.93036761665E+03  0.93036761665E+03  0.00000000000E+00 0. -1.
         -1   -1    0    0    0  501 -0.00000000000E+00 -0.00000000000E+00 -0.36431002330E+02  0.36431002330E+02  0.00000000000E+00 0.  1.
         25    2    1    2    0    0 -0.47289060720E+02  0.13532270312E+03  0.57109533667E+03  0.60195202084E+03  0.12509141688E+03 0.  0.
         23    2    1    2    0    0  0.47289060720E+02 -0.13532270312E+03  0.32284127764E+03  0.36484659814E+03  0.91312980343E+02 0.  0.
          5    1    3    3  502    0 -0.36780416522E+02  0.13524907669E+03  0.30581129999E+03  0.33642701346E+03  0.41800000000E+01 0. -1.
         -5    1    3    3    0  502 -0.10508644198E+02  0.73626435903E-01  0.26528403668E+03  0.26552500738E+03  0.41800000000E+01 0. -1.
        -11    1    4    4    0    0  0.72777065441E+02 -0.78956219300E+02  0.22061496512E+03  0.24536003883E+03  0.00000000000E+00 0. -1.
         11    1    4    4    0    0 -0.25488004721E+02 -0.56366483823E+02  0.10222631253E+03  0.11948655931E+03  0.00000000000E+00 0.  1.
</event>
<event>
 8    1  0.7103328E-009  0.1254291E+03  0.7561462E-02  0.1234400E+00
         -1   -1    0    0    0  501 -0.00000000000E+00  0.00000000000E+00  0.56993010984E+02  0.56993010984E+02  0.00000000000E+00 0.  1.
          1   -1    0    0  501    0  0.00000000000E+00 -0.00000000000E+00 -0.39222995616E+03  0.39222995616E+03  0.00000000000E+00 0. -1.
         25    2    1    2    0    0 -0.81561695106E+02  0.34146877859E+02 -0.10353172492E+03  0.18489232239E+03  0.12509209983E+03 0.  0.
         23    2    1    2    0    0  0.81561695106E+02 -0.34146877859E+02 -0.23170522025E+03  0.26433064475E+03  0.91460708966E+02 0.  0.
          5    1    3    3  502    0 -0.63115538784E+02 -0.24629117805E+02 -0.42952462313E+01  0.68015338123E+02  0.41800000000E+01 0.  1.
         -5    1    3    3    0  502 -0.18446156322E+02  0.58775995664E+02 -0.99236478689E+02  0.11687698427E+03  0.41800000000E+01 0.  1.
        -11    1    4    4    0    0  0.17583224675E+01  0.23007917942E+02 -0.83013251512E+02  0.86160640159E+02  0.00000000000E+00 0. -1.
         11    1    4    4    0    0  0.79803372639E+02 -0.57154795801E+02 -0.14869196874E+03  0.17817000459E+03  0.00000000000E+00 0.  1.
</event>
<event>
 8    1  0.7103328E-009  0.1220557E+03  0.7561462E-02  0.1239744E+00
          2   -1    0    0  501    0  0.00000000000E+00  0.00000000000E+00  0.82176746638E+03  0.82176746638E+03  0.00000000000E+00 0. -1.
         -2   -1    0    0    0  501 -0.00000000000E+00 -0.00000000000E+00 -0.20318974083E+02  0.20318974083E+02  0.00000000000E+00 0.  1.
         25    2    1    2    0    0  0.64001997739E+02  0.24108593039E+02  0.50031819174E+03  0.52023377344E+03  0.12508959220E+03 0.  0.
         23    2    1    2    0    0 -0.64001997739E+02 -0.24108593039E+02  0.30113030056E+03  0.32185266702E+03  0.90731479539E+02 0.  0.
          5    1    3    3  502    0  0.49295094671E+02 -0.41589405830E+02  0.34344179939E+03  0.34947020904E+03  0.41800000000E+01 0.  1.
         -5    1    3    3    0  502  0.14706903068E+02  0.65697998870E+02  0.15687639235E+03  0.17076356441E+03  0.41800000000E+01 0.  1.
        -11    1    4    4    0    0 -0.75113087254E+02  0.10348406445E+02  0.17715340732E+03  0.19269767803E+03  0.00000000000E+00 0. -1.
         11    1    4    4    0    0  0.11111089515E+02 -0.34456999484E+02  0.12397689323E+03  0.12915498898E+03  0.00000000000E+00 0.  1.
</event>
<event>
 8    1  0.7103328E-009  0.1202478E+03  0.7561462E-02  0.1242689E+00
         -1   -1    0    0    0  501 -0.00000000000E+00  0.00000000000E+00  0.22862698300E+02  0.22862698300E+02  0.00000000000E+00 0.  1.
          1   -1    0    0  501    0  0.00000000000E+00 -0.00000000000E+00 -0.70309428770E+03  0.70309428770E+03  0.00000000000E+00 0. -1.
         25    2    1    2    0    0  0.59042920081E+02  0.14360832019E+02 -0.45491191757E+03  0.47569396296E+03  0.12509034233E+03 0.  0.
         23    2    1    2    0    0 -0.59042920081E+02 -0.14360832019E+02 -0.22531967182E+03  0.25026302303E+03  0.90389857167E+02 0.  0.
          5    1    3    3  502    0  0.73567979579E+02 -0.38090792571E+02 -0.30780782743E+03  0.31878878137E+03  0.41800000000E+01 0.  1.
         -5    1    3    3    0  502 -0.14525059498E+02  0.52451624590E+02 -0.14710409014E+03  0.15690518159E+03  0.41800000000E+01 0.  1.
        -11    1    4    4    0    0  0.41671682593E+01  0.27065674025E+02 -0.28939170918E+02  0.39842083469E+02  0.00000000000E+00 0.  1.
         11    1    4    4    0    0 -0.63210088340E+02 -0.41426506044E+02 -0.19638050091E+03  0.21042093956E+03  0.00000000000E+00 0. -1.
</event>
<event>
 8    1  0.7103328E-009  0.1203877E+03  0.7561462E-02  0.1242459E+00
          2   -1    0    0  501    0  0.00000000000E+00  0.00000000000E+00  0.97409198590E+03  0.97409198590E+03  0.00000000000E+00 0. -1.
         -2   -1    0    0    0  501 -0.00000000000E+00 -0.00000000000E+00 -0.18428079256E+02  0.18428079256E+02  0.00000000000E+00 0.  1.
         25    2    1    2    0    0 -0.32608841693E+02  0.65027399006E+02  0.64119568311E+03  0.65732215619E+03  0.12509441951E+03 0.  0.
         23    2    1    2    0    0  0.32608841693E+02 -0.65027399006E+02  0.31446822353E+03  0.33519790897E+03  0.90418335468E+02 0.  0.
          5    1    3    3  502    0 -0.31809415580E+02  0.93630238725E+02  0.32321810801E+03  0.33803236275E+03  0.41800000000E+01 0.  1.
         -5    1    3    3    0  502 -0.79942611298E+00 -0.28602839719E+02  0.31797757511E+03  0.31928979344E+03  0.41800000000E+01 0.  1.
        -11    1    4    4    0    0 -0.29020832841E+02 -0.31079399677E+02  0.82800159551E+02  0.93080633028E+02  0.00000000000E+00 0.  1.
         11    1    4    4    0    0  0.61629674534E+02 -0.33947999329E+02  0.23166806397E+03  0.24211727594E+03  0.00000000000E+00 0. -1.
</event>
<event>
 8    1  0.7103328E-009  0.1209382E+03  0.7561462E-02  0.1241557E+00
         -1   -1    0    0    0  501 -0.00000000000E+00  0.00000000000E+00  0.30935042658E+03  0.30935042658E+03  0.00000000000E+00 0.  1.
          1   -1    0    0  501    0  0.00000000000E+00 -0.00000000000E+00 -0.60320686738E+02  0.60320686738E+02  0.00000000000E+00 0. -1.
         25    2    1    2    0    0  0.46709436044E+01 -0.73769346577E+02  0.18739525936E+03  0.23712413749E+03  0.12508852523E+03 0.  0.
         23    2    1    2    0    0 -0.46709436044E+01  0.73769346577E+02  0.61634480485E+02  0.13254697583E+03  0.91138122690E+02 0.  0.
          5    1    3    3  502    0 -0.59555224655E+02 -0.29853247158E+02  0.97514122965E+02  0.11817156057E+03  0.41800000000E+01 0.  1.
         -5    1    3    3    0  502  0.64226168259E+02 -0.43916099420E+02  0.89881136392E+02  0.11895257692E+03  0.41800000000E+01 0.  1.
        -11    1    4    4    0    0 -0.25247499323E+02  0.54102924241E+01  0.55112055883E+02  0.60860875690E+02  0.00000000000E+00 0.  1.
         11    1    4    4    0    0  0.20576555719E+02  0.68359054153E+02  0.65224246021E+01  0.71686100136E+02  0.00000000000E+00 0. -1.
</event>
<event>
 8    1  0.7103328E-009  0.1070413E+03  0.7561462E-02  0.1266149E+00
         -1   -1    0    0    0  501 -0.00000000000E+00  0.00000000000E+00  0.23221814438E+03  0.23221814438E+03  0.00000000000E+00 0.  1.
          1   -1    0    0  501    0  0.00000000000E+00 -0.00000000000E+00 -0.10616531764E+03  0.10616531764E+03  0.00000000000E+00 0. -1.
         25    2    1    2    0    0  0.44152514923E+02  0.47807165116E+02  0.16911011410E+03  0.22018337916E+03  0.12509004820E+03 0.  0.
         23    2    1    2    0    0 -0.44152514923E+02 -0.47807165116E+02 -0.43057287358E+02  0.11820008286E+03  0.88782655872E+02 0.  0.
          5    1    3    3  502    0 -0.18936944471E+02  0.69263278765E+02  0.10742669764E+03  0.12928254877E+03  0.41800000000E+01 0. -1.
         -5    1    3    3    0  502  0.63089459394E+02 -0.21456113649E+02  0.61683416459E+02  0.90900830390E+02  0.41800000000E+01 0. -1.
        -11    1    4    4    0    0 -0.33723515456E+02 -0.85816211414E+01 -0.63759237043E+02  0.72637180730E+02  0.00000000000E+00 0. -1.
         11    1    4    4    0    0 -0.10428999467E+02 -0.39225543975E+02  0.20701949685E+02  0.45562902133E+02  0.00000000000E+00 0.  1.
</event>
<event>
 8    1  0.7103328E-009  0.1233744E+03  0.7561462E-02  0.1237632E+00
          1   -1    0    0  501    0  0.00000000000E+00  0.00000000000E+00  0.96788000357E+02  0.96788000357E+02  0.00000000000E+00 0. -1.
         -1   -1    0    0    0  501 -0.00000000000E+00 -0.00000000000E+00 -0.25039589799E+03  0.25039589799E+03  0.00000000000E+00 0.  1.
         25    2    1    2    0    0  0.10041689096E+03 -0.26591333077E+02 -0.12901895520E+03  0.20756898233E+03  0.12509332772E+03 0.  0.
         23    2    1    2    0    0 -0.10041689096E+03  0.26591333077E+02 -0.24588942440E+02  0.13961491602E+03  0.89983652410E+02 0.  0.
          5    1    3    3  502    0  0.39101585035E+02  0.35964640443E+02 -0.10320983729E+03  0.11615563795E+03  0.41800000000E+01 0.  1.
         -5    1    3    3    0  502  0.61315305924E+02 -0.62555973520E+02 -0.25809117911E+02  0.91413344381E+02  0.41800000000E+01 0.  1.
        -11    1    4    4    0    0 -0.25045265296E+02 -0.20616271060E+01 -0.49252536902E+02  0.55293109981E+02  0.00000000000E+00 0.  1.
         11    1    4    4    0    0 -0.75371625663E+02  0.28652960183E+02  0.24663594462E+02  0.84321806042E+02  0.00000000000E+00 0. -1.
</event>
<event>
 8    1  0.7103328E-009  0.1293882E+03  0.7561462E-02  0.1228366E+00
          1   -1    0    0  501    0  0.00000000000E+00  0.00000000000E+00  0.93636330406E+03  0.93636330406E+03  0.00000000000E+00 0. -1.
         -1   -1    0    0    0  501 -0.00000000000E+00 -0.00000000000E+00 -0.24643044870E+02  0.24643044870E+02  0.00000000000E+00 0.  1.
         25    2    1    2    0    0  0.84361661238E+02 -0.41592420971E+02  0.64130417392E+03  0.66012508177E+03  0.12508901119E+03 0.  0.
         23    2    1    2    0    0 -0.84361661238E+02  0.41592420971E+02  0.27041608526E+03  0.30088126716E+03  0.92508693581E+02 0.  0.
          5    1    3    3  502    0  0.44367236936E+01 -0.60809765419E+02  0.14997071663E+03  0.16194505344E+03  0.41800000000E+01 0. -1.
         -5    1    3    3    0  502  0.79924937545E+02  0.19217344448E+02  0.49133345730E+03  0.49818002833E+03  0.41800000000E+01 0. -1.
        -11    1    4    4    0    0 -0.25692079569E+02 -0.18276263592E+02  0.15536885924E+03  0.15853575996E+03  0.00000000000E+00 0. -1.
         11    1    4    4    0    0 -0.58669581670E+02  0.59868684563E+02  0.11504722602E+03  0.14234550720E+03  0.00000000000E+00 0.  1.
</event>
<event>
 8    1  0.7103328E-009  0.1345821E+03  0.7561462E-02  0.1220811E+00
         -1   -1    0    0    0  501 -0.00000000000E+00  0.00000000000E+00  0.53541759755E+02  0.53541759755E+02  0.00000000000E+00 0.  1.
          1   -1    0    0  501    0  0.00000000000E+00 -0.00000000000E+00 -0.42015793469E+03  0.42015793469E+03  0.00000000000E+00 0. -1.
         25    2    1    2    0    0 -0.30410876735E+02 -0.95891697851E+02 -0.24495559198E+03  0.29286755371E+03  0.12509245714E+03 0.  0.
         23    2    1    2    0    0  0.30410876735E+02  0.95891697851E+02 -0.12166058295E+03  0.18083214073E+03  0.88198222983E+02 0.  0.
          5    1    3    3  502    0  0.39154553599E+02 -0.30219460070E+01 -0.34193631433E+02  0.52238760091E+02  0.41800000000E+01 0. -1.
         -5    1    3    3    0  502 -0.69565430334E+02 -0.92869751844E+02 -0.21076196055E+03  0.24062879362E+03  0.41800000000E+01 0. -1.
        -11    1    4    4    0    0  0.38554292620E+01  0.84627498564E+02 -0.38958773243E+02  0.93244108986E+02  0.00000000000E+00 0.  1.
         11    1    4    4    0    0  0.26555447473E+02  0.11264199286E+02 -0.82701809710E+02  0.87588031748E+02  0.00000000000E+00 0. -1.
</event>
<event>
 8    1  0.7103328E-009  0.1263084E+03  0.7561462E-02  0.1233038E+00
         -2   -1    0    0    0  501 -0.00000000000E+00  0.00000000000E+00  0.15615882710E+02  0.15615882710E+02  0.00000000000E+00 0.  1.
          2   -1    0    0  501    0  0.00000000000E+00 -0.00000000000E+00 -0.10950924150E+04  0.10950924150E+04  0.00000000000E+00 0. -1.
         25    2    1    2    0    0  0.38896265683E+02  0.52732458429E+02 -0.73013060458E+03  0.74366099139E+03  0.12508932298E+03 0.  0.
         23    2    1    2    0    0 -0.38896265683E+02 -0.52732458429E+02 -0.34934592771E+03  0.36704730631E+03  0.91583383914E+02 0.  0.
          5    1    3    3  502    0  0.75800483806E+02  0.66632510593E+02 -0.55249136437E+03  0.56164916533E+03  0.41800000000E+01 0.  1.
         -5    1    3    3    0  502 -0.36904218123E+02 -0.13900052164E+02 -0.17763924020E+03  0.18201182606E+03  0.41800000000E+01 0.  1.
        -11    1    4    4    0    0  0.10871191467E+01  0.24742591087E+02 -0.61907852453E+02  0.66678031142E+02  0.00000000000E+00 0.  1.
         11    1    4    4    0    0 -0.39983384829E+02 -0.77475049516E+02 -0.28743807526E+03  0.30036927517E+03  0.00000000000E+00 0. -1.
</event>
<event>
 8    1  0.7103328E-009  0.1000150E+03  0.7561462E-02  0.1280264E+00
          2   -1    0    0  501    0  0.00000000000E+00  0.00000000000E+00  0.66043730711E+03  0.66043730711E+03  0.00000000000E+00 0. -1.
         -2   -1    0    0    0  501 -0.00000000000E+00 -0.00000000000E+00 -0.18085692104E+02  0.18085692104E+02  0.00000000000E+00 0.  1.
         25    2    1    2    0    0  0.20499057931E+01  0.71148729933E+01  0.40882160719E+03  0.42759479459E+03  0.12508948125E+03 0.  0.
         23    2    1    2    0    0 -0.20499057931E+01 -0.71148729933E+01  0.23353000782E+03  0.25092820463E+03  0.91508883701E+02 0.  0.
          5    1    3    3  502    0 -0.54172444599E+02  0.20584715001E+02  0.12403468685E+03  0.13696882925E+03  0.41800000000E+01 0.  1.
         -5    1    3    3    0  502  0.56222350392E+02 -0.13469842008E+02  0.28478692034E+03  0.29062596533E+03  0.41800000000E+01 0.  1.
        -11    1    4    4    0    0 -0.42449753097E+02  0.21893641856E+01  0.16872649397E+03  0.17399828913E+03  0.00000000000E+00 0. -1.
         11    1    4    4    0    0  0.40399847304E+02 -0.93042371789E+01  0.64803513853E+02  0.76929915503E+02  0.00000000000E+00 0.  1.
</event>
<event>
 8    1  0.7103328E-009  0.1897734E+03  0.7561462E-02  0.1158666E+00
         -1   -1    0    0    0  501 -0.00000000000E+00  0.00000000000E+00  0.16002016432E+03  0.16002016432E+03  0.00000000000E+00 0.  1.
          1   -1    0    0  501    0  0.00000000000E+00 -0.00000000000E+00 -0.22694480682E+03  0.22694480682E+03  0.00000000000E+00 0. -1.
         25    2    1    2    0    0 -0.10569245345E+03 -0.11456132517E+03 -0.20943079180E+02  0.20095100339E+03  0.12508997265E+03 0.  0.
         23    2    1    2    0    0  0.10569245345E+03  0.11456132517E+03 -0.45981563318E+02  0.18601396775E+03  0.90508011208E+02 0.  0.
          5    1    3    3  502    0 -0.49427102677E+02  0.20112647932E+02 -0.10638725934E+02  0.54572996760E+02  0.41800000000E+01 0.  1.
         -5    1    3    3    0  502 -0.56265350769E+02 -0.13467397310E+03 -0.10304353245E+02  0.14637800663E+03  0.41800000000E+01 0.  1.
        -11    1    4    4    0    0  0.13186873574E+02  0.80274740682E+02 -0.25515691222E+02  0.85258302380E+02  0.00000000000E+00 0.  1.
         11    1    4    4    0    0  0.92505579873E+02  0.34286584487E+02 -0.20465872096E+02  0.10075566537E+03  0.00000000000E+00 0. -1.
</event>
<event>
 8    1  0.7103328E-009  0.1014882E+03  0.7561462E-02  0.1277197E+00
         -1   -1    0    0    0  501 -0.00000000000E+00  0.00000000000E+00  0.34312310723E+03  0.34312310723E+03  0.00000000000E+00 0.  1.
          1   -1    0    0  501    0  0.00000000000E+00 -0.00000000000E+00 -0.45476467729E+02  0.45476467729E+02  0.00000000000E+00 0. -1.
         25    2    1    2    0    0 -0.39416560124E+02 -0.46246542141E+02  0.18415364853E+03  0.23076720812E+03  0.12509408540E+03 0.  0.
         23    2    1    2    0    0  0.39416560124E+02  0.46246542141E+02  0.11349299097E+03  0.15783236684E+03  0.91312590329E+02 0.  0.
          5    1    3    3  502    0  0.17282516494E+02  0.35063561607E+02  0.43383118911E+02  0.58546615063E+02  0.41800000000E+01 0.  1.
         -5    1    3    3    0  502 -0.56699076618E+02 -0.81310103748E+02  0.14077052962E+03  0.17222059305E+03  0.41800000000E+01 0.  1.
        -11    1    4    4    0    0  0.19737133710E+02  0.38564312114E+02  0.95858797374E+00  0.43332199423E+02  0.00000000000E+00 0. -1.
         11    1    4    4    0    0  0.19679426414E+02  0.76822300272E+01  0.11253440299E+03  0.11450016742E+03  0.00000000000E+00 0.  1.
</event>
<event>
 8    1  0.7103328E-009  0.9925622E+02  0.7561462E-02  0.1281868E+00
         -1   -1    0    0    0  501 -0.00000000000E+00  0.00000000000E+00  0.23190313854E+03  0.23190313854E+03  0.00000000000E+00 0. -1.
          1   -1    0    0  501    0  0.00000000000E+00 -0.00000000000E+00 -0.60654368100E+02  0.60654368100E+02  0.00000000000E+00 0.  1.
         25    2    1    2    0    0  0.35186279884E+01  0.22573844162E+02  0.45115912971E+02  0.13490699071E+03  0.12506994586E+03 0.  0.
         23    2    1    2    0    0 -0.35186279884E+01 -0.22573844162E+02  0.12613285747E+03  0.15765051593E+03  0.91772698859E+02 0.  0.
          5    1    3    3  502    0  0.46326255636E+02 -0.12866177348E+02  0.60213246853E+02  0.77167143121E+02  0.41800000000E+01 0. -1.
         -5    1    3    3    0  502 -0.42807627648E+02  0.35440021510E+02 -0.15097333882E+02  0.57739847591E+02  0.41800000000E+01 0. -1.
        -11    1    4    4    0    0 -0.43037431118E+02 -0.32314496190E+02  0.74434353979E+02  0.91852709233E+02  0.00000000000E+00 0.  1.
         11    1    4    4    0    0  0.39518803129E+02  0.97406520282E+01  0.51698503489E+02  0.65797806694E+02  0.00000000000E+00 0. -1.
</event>
<event>
 8    1  0.7103328E-009  0.1451825E+03  0.7561462E-02  0.1206521E+00
         -1   -1    0    0    0  501 -0.00000000000E+00  0.00000000000E+00  0.10054954661E+03  0.10054954661E+03  0.00000000000E+00 0.  1.
          1   -1    0    0  501    0  0.00000000000E+00 -0.00000000000E+00 -0.26075034018E+03  0.26075034018E+03  0.00000000000E+00 0. -1.
         25    2    1    2    0    0 -0.57864465422E+02  0.10189154227E+03 -0.62371770047E+02  0.18238954209E+03  0.12508207155E+03 0.  0.
         23    2    1    2    0    0  0.57864465422E+02 -0.10189154227E+03 -0.97829023522E+02  0.17891034470E+03  0.93317794942E+02 0.  0.
          5    1    3    3  502    0 -0.82808589890E+02  0.41635869005E+02 -0.10676565039E+01  0.92786962650E+02  0.41800000000E+01 0.  1.
         -5    1    3    3    0  502  0.24944124468E+02  0.60255673263E+02 -0.61304113543E+02  0.89602579445E+02  0.41800000000E+01 0.  1.
        -11    1    4    4    0    0 -0.21659354240E+01 -0.57584005643E+02 -0.85771500996E+02  0.10333130874E+03  0.00000000000E+00 0. -1.
         11    1    4    4    0    0  0.60030400846E+02 -0.44307536625E+02 -0.12057522526E+02  0.75579035962E+02  0.00000000000E+00 0.  1.
</event>
<event>
 8    1  0.7103328E-009  0.8280400E+02  0.7561462E-02  0.1321277E+00
         -1   -1    0    0    0  501 -0.00000000000E+00  0.00000000000E+00  0.70830210456E+02  0.70830210456E+02  0.00000000000E+00 0.  1.
          1   -1    0    0  501    0  0.00000000000E+00 -0.00000000000E+00 -0.18699773337E+03  0.18699773337E+03  0.00000000000E+00 0. -1.
         25    2    1    2    0    0  0.30713568426E+02  0.21438725450E+02 -0.56269494721E+02  0.14217354584E+03  0.12507645209E+03 0.  0.
         23    2    1    2    0    0 -0.30713568426E+02 -0.21438725450E+02 -0.59898028189E+02  0.11565439798E+03  0.91570867401E+02 0.  0.
          5    1    3    3  502    0 -0.48842495807E+01  0.34443610702E+02 -0.86621108149E+02  0.93439322499E+02  0.41800000000E+01 0. -1.
         -5    1    3    3    0  502  0.35597818007E+02 -0.13004885252E+02  0.30351613428E+02  0.48734223344E+02  0.41800000000E+01 0. -1.
        -11    1    4    4    0    0  0.24270900194E+02  0.13028247940E+02 -0.30411175718E+00  0.27548218174E+02  0.00000000000E+00 0.  1.
         11    1    4    4    0    0 -0.54984468620E+02 -0.34466973391E+02 -0.59593916432E+02  0.88106179805E+02  0.00000000000E+00 0. -1.
</event>
<event>
 8    1  0.7103328E-009  0.1466425E+03  0.7561462E-02  0.1204660E+00
         -1   -1    0    0    0  501 -0.00000000000E+00  0.00000000000E+00  0.65004252796E+02  0.65004252796E+02  0.00000000000E+00 0.  1.
          1   -1    0    0  501    0  0.00000000000E+00 -0.00000000000E+00 -0.40636194060E+03  0.40636194060E+03  0.00000000000E+00 0. -1.
         25    2    1    2    0    0 -0.11548068446E+03 -0.32431442849E+02 -0.20048734208E+03  0.26500511689E+03  0.12507977724E+03 0.  0.
         23    2    1    2    0    0  0.11548068446E+03  0.32431442849E+02 -0.14087034573E+03  0.20636107651E+03  0.91393941942E+02 0.  0.
          5    1    3    3  502    0 -0.12887407086E+03 -0.10208672922E+02 -0.20064550389E+03  0.23872334150E+03  0.41800000000E+01 0.  1.
         -5    1    3    3    0  502  0.13393386400E+02 -0.22222769928E+02  0.15816181284E+00  0.26281775391E+02  0.41800000000E+01 0.  1.
        -11    1    4    4    0    0  0.71869924504E+02 -0.14793914167E+02 -0.32263568949E+02  0.80156620599E+02  0.00000000000E+00 0. -1.
         11    1    4    4    0    0  0.43610759960E+02  0.47225357016E+02 -0.10860677678E+03  0.12620445591E+03  0.00000000000E+00 0.  1.
</event>
<event>
 8    1  0.7103328E-009  0.1693209E+03  0.7561462E-02  0.1178558E+00
          1   -1    0    0  501    0  0.00000000000E+00  0.00000000000E+00  0.13840346317E+03  0.13840346317E+03  0.00000000000E+00 0. -1.
         -1   -1    0    0    0  501 -0.00000000000E+00 -0.00000000000E+00 -0.26402844649E+03  0.26402844649E+03  0.00000000000E+00 0.  1.
         25    2    1    2    0    0  0.13233943043E+03 -0.49758315308E+02  0.64816403904E+01  0.18889364477E+03  0.12509669293E+03 0.  0.
         23    2    1    2    0    0 -0.13233943043E+03  0.49758315308E+02 -0.13210662371E+03  0.21353826489E+03  0.90315091515E+02 0.  0.
          5    1    3    3  502    0  0.10255653057E+02 -0.63477298080E+02  0.13249306266E+02  0.65784210170E+02  0.41800000000E+01 0. -1.
         -5    1    3    3    0  502  0.12208377737E+03  0.13718982772E+02 -0.67676658752E+01  0.12310943460E+03  0.41800000000E+01 0. -1.
        -11    1    4    4    0    0 -0.10816632938E+03  0.61479635920E+02 -0.13823809266E+03  0.18598244730E+03  0.00000000000E+00 0.  1.
         11    1    4    4    0    0 -0.24173101055E+02 -0.11721320612E+02  0.61314689459E+01  0.27555817588E+02  0.00000000000E+00 0. -1.
</event>
<event>
 8    1  0.7103328E-009  0.1093725E+03  0.7561462E-02  0.1261736E+00
         -2   -1    0    0    0  501 -0.00000000000E+00  0.00000000000E+00  0.95146258809E+01  0.95146258809E+01  0.00000000000E+00 0.  1.
          2   -1    0    0  501    0  0.00000000000E+00 -0.00000000000E+00 -0.20627062114E+04  0.20627062114E+04  0.00000000000E+00 0. -1.
         25    2    1    2    0    0 -0.99712030510E+01 -0.11891046337E+02 -0.17646436055E+04  0.17691397145E+04  0.12508978021E+03 0.  0.
         23    2    1    2    0    0  0.99712030510E+01  0.11891046337E+02 -0.28854798002E+03  0.30308112279E+03  0.91418862059E+02 0.  0.
          5    1    3    3  502    0  0.54291693227E+02 -0.25616713110E+02 -0.82453799380E+03  0.82673102008E+03  0.41800000000E+01 0. -1.
         -5    1    3    3    0  502 -0.64262896278E+02  0.13725666773E+02 -0.94010561174E+03  0.94240869445E+03  0.41800000000E+01 0. -1.
        -11    1    4    4    0    0  0.36015998303E+02 -0.27628678673E+02 -0.13988118288E+03  0.14706203229E+03  0.00000000000E+00 0.  1.
         11    1    4    4    0    0 -0.26044795252E+02  0.39519725010E+02 -0.14866679715E+03  0.15601909049E+03  0.00000000000E+00 0. -1.
</event>
<event>
 8    1  0.7103328E-009  0.1888423E+03  0.7561462E-02  0.1159510E+00
          1   -1    0    0  501    0  0.00000000000E+00  0.00000000000E+00  0.45743625362E+03  0.45743625362E+03  0.00000000000E+00 0. -1.
         -1   -1    0    0    0  501 -0.00000000000E+00 -0.00000000000E+00 -0.94295810414E+02  0.94295810414E+02  0.00000000000E+00 0.  1.
         25    2    1    2    0    0  0.16611632903E+03  0.35560292129E+02  0.25303512143E+03  0.32944728970E+03  0.12509826084E+03 0.  0.
         23    2    1    2    0    0 -0.16611632903E+03 -0.35560292129E+02  0.11010532177E+03  0.22228477434E+03  0.91805064530E+02 0.  0.
          5    1    3    3  502    0  0.28576579319E+02  0.44085629573E+02  0.14503794069E+03  0.15431668821E+03  0.41800000000E+01 0. -1.
         -5    1    3    3    0  502  0.13753974971E+03 -0.85253374443E+01  0.10799718074E+03  0.17513060148E+03  0.41800000000E+01 0. -1.
        -11    1    4    4    0    0 -0.30778416435E+02  0.24216241763E+02  0.23138199848E+01  0.39231250888E+02  0.00000000000E+00 0.  1.
         11    1    4    4    0    0 -0.13533791259E+03 -0.59776533891E+02  0.10779150179E+03  0.18305352345E+03  0.00000000000E+00 0. -1.
</event>
<event>
 8    1  0.7103328E-009  0.1413942E+03  0.7561462E-02  0.1211465E+00
         -2   -1    0    0    0  501 -0.00000000000E+00  0.00000000000E+00  0.18044794665E+03  0.18044794665E+03  0.00000000000E+00 0.  1.
          2   -1    0    0  501    0  0.00000000000E+00 -0.00000000000E+00 -0.18734197741E+03  0.18734197741E+03  0.00000000000E+00 0. -1.
         25    2    1    2    0    0  0.98605160700E+02 -0.52001688893E+02  0.92867903467E+02  0.19157021821E+03  0.12509015807E+03 0.  0.
         23    2    1    2    0    0 -0.98605160700E+02  0.52001688893E+02 -0.99761934226E+02  0.17621970586E+03  0.93133172652E+02 0.  0.
          5    1    3    3  502    0  0.41063278685E+02 -0.83451608837E+02  0.23499397073E+02  0.96021132760E+02  0.41800000000E+01 0.  1.
         -5    1    3    3    0  502  0.57541882015E+02  0.31449919944E+02  0.69368506394E+02  0.95549085446E+02  0.41800000000E+01 0.  1.
        -11    1    4    4    0    0 -0.13949169010E+02 -0.11560051945E+02  0.12427348254E+02  0.21969367348E+02  0.00000000000E+00 0.  1.
         11    1    4    4    0    0 -0.84655991690E+02  0.63561740838E+02 -0.11218928248E+03  0.15425033851E+03  0.00000000000E+00 0. -1.
</event>
<event>
 8    1  0.7103328E-009  0.1195115E+03  0.7561462E-02  0.1243905E+00
         -1   -1    0    0    0  501 -0.00000000000E+00  0.00000000000E+00  0.16003077336E+02  0.16003077336E+02  0.00000000000E+00 0.  1.
          1   -1    0    0  501    0  0.00000000000E+00 -0.00000000000E+00 -0.10455849284E+04  0.10455849284E+04  0.00000000000E+00 0. -1.
         25    2    1    2    0    0 -0.58022718602E+02 -0.36158499056E+02 -0.61253220425E+03  0.62890155298E+03  0.12508952463E+03 0.  0.
         23    2    1    2    0    0  0.58022718602E+02  0.36158499056E+02 -0.41704964681E+03  0.43268645275E+03  0.92806710759E+02 0.  0.
          5    1    3    3  502    0  0.25929617362E+02  0.97262822995E+01 -0.31713058158E+03  0.31836492238E+03  0.41800000000E+01 0. -1.
         -5    1    3    3    0  502 -0.83952335964E+02 -0.45884781356E+02 -0.29540162266E+03  0.31053663060E+03  0.41800000000E+01 0. -1.
        -11    1    4    4    0    0 -0.12490020418E+02  0.42648759159E+02 -0.15699459767E+03  0.16316317282E+03  0.00000000000E+00 0. -1.
         11    1    4    4    0    0  0.70512739020E+02 -0.64902601026E+01 -0.26005504914E+03  0.26952327993E+03  0.00000000000E+00 0.  1.
</event>
<event>
 8    1  0.7103328E-009  0.1086293E+03  0.7561462E-02  0.1263129E+00
         -2   -1    0    0    0  501 -0.00000000000E+00  0.00000000000E+00  0.33031740388E+02  0.33031740388E+02  0.00000000000E+00 0.  1.
          2   -1    0    0  501    0  0.00000000000E+00 -0.00000000000E+00 -0.65645829286E+03  0.65645829286E+03  0.00000000000E+00 0. -1.
         25    2    1    2    0    0  0.96631103518E+02  0.21908667603E+02 -0.31092888623E+03  0.34949210413E+03  0.12510155342E+03 0.  0.
         23    2    1    2    0    0 -0.96631103518E+02 -0.21908667603E+02 -0.31249766624E+03  0.33999792912E+03  0.90145662787E+02 0.  0.
          5    1    3    3  502    0  0.49502484059E+02  0.19665065644E+02 -0.29457558235E+03  0.29938179112E+03  0.41800000000E+01 0. -1.
         -5    1    3    3    0  502  0.47128619459E+02  0.22436019592E+01 -0.16353303881E+02  0.50110313007E+02  0.41800000000E+01 0. -1.
        -11    1    4    4    0    0 -0.75617150445E+02  0.12007023892E+02 -0.11264847619E+03  0.13620499716E+03  0.00000000000E+00 0.  1.
         11    1    4    4    0    0 -0.21013953073E+02 -0.33915691495E+02 -0.19984919005E+03  0.20379293196E+03  0.00000000000E+00 0. -1.
</event>
<event>
 8    1  0.7103328E-009  0.5248955E+02  0.7561462E-02  0.1432358E+00
          4   -1    0    0  501    0  0.00000000000E+00  0.00000000000E+00  0.47975680005E+02  0.47975680005E+02  0.00000000000E+00 0. -1.
         -4   -1    0    0    0  501 -0.00000000000E+00 -0.00000000000E+00 -0.27079969277E+03  0.27079969277E+03  0.00000000000E+00 0.  1.
         25    2    1    2    0    0 -0.15823917121E+02  0.35786791531E+01 -0.17456139923E+03  0.21536551202E+03  0.12508964134E+03 0.  0.
         23    2    1    2    0    0  0.15823917121E+02 -0.35786791531E+01 -0.48262613533E+02  0.10340986075E+03  0.90006200553E+02 0.  0.
          5    1    3    3  502    0 -0.18971011036E+02  0.26857049702E+02 -0.18598288572E+03  0.18891348962E+03  0.41800000000E+01 0. -1.
         -5    1    3    3    0  502  0.31470939148E+01 -0.23278370549E+02  0.11421486491E+02  0.26452022403E+02  0.41800000000E+01 0. -1.
        -11    1    4    4    0    0 -0.14124122830E+02  0.75614598441E+01  0.21421174511E+02  0.26749453043E+02  0.00000000000E+00 0. -1.
         11    1    4    4    0    0  0.29948039951E+02 -0.11140138997E+02 -0.69683788044E+02  0.76660407708E+02  0.00000000000E+00 0.  1.
</event>
<event>
 8    1  0.7103328E-009  0.9054080E+02  0.7561462E-02  0.1301547E+00
          2   -1    0    0  501    0  0.00000000000E+00  0.00000000000E+00  0.20137601851E+03  0.20137601851E+03  0.00000000000E+00 0. -1.
         -2   -1    0    0    0  501 -0.00000000000E+00 -0.00000000000E+00 -0.82867516471E+02  0.82867516471E+02  0.00000000000E+00 0.  1.
         25    2    1    2    0    0 -0.51408517350E+02 -0.45728655464E+02  0.80304150940E+02  0.16380557438E+03  0.12509821723E+03 0.  0.
         23    2    1    2    0    0  0.51408517350E+02  0.45728655464E+02  0.38204351101E+02  0.12043796060E+03  0.91168987733E+02 0.  0.
          5    1    3    3  502    0  0.11642213795E+02 -0.46971905316E+02  0.87619164529E+02  0.10018229097E+03  0.41800000000E+01 0.  1.
         -5    1    3    3    0  502 -0.63050731146E+02  0.12432498527E+01 -0.73150135890E+01  0.63623283411E+02  0.41800000000E+01 0.  1.
        -11    1    4    4    0    0  0.56883276073E+01  0.90641143261E+01  0.57692856358E+02  0.58676919775E+02  0.00000000000E+00 0. -1.
         11    1    4    4    0    0  0.45720189743E+02  0.36664541137E+02 -0.19488505257E+02  0.61761040828E+02  0.00000000000E+00 0.  1.
</event>
<event>
 8    1  0.7103328E-009  0.1409655E+03  0.7561462E-02  0.1212036E+00
         -4   -1    0    0    0  501 -0.00000000000E+00  0.00000000000E+00  0.75644196960E+03  0.75644196960E+03  0.00000000000E+00 0.  1.
          4   -1    0    0  501    0  0.00000000000E+00 -0.00000000000E+00 -0.31899822888E+02  0.31899822888E+02  0.00000000000E+00 0. -1.
         25    2    1    2    0    0 -0.43900945185E+02  0.95360380774E+02  0.47612202294E+03  0.50335431475E+03  0.12510991263E+03 0.  0.
         23    2    1    2    0    0  0.43900945185E+02 -0.95360380774E+02  0.24842012377E+03  0.28498747774E+03  0.92110853675E+02 0.  0.
          5    1    3    3  502    0 -0.65543777799E+02  0.10951070084E+03  0.44350102822E+03  0.46151837974E+03  0.41800000000E+01 0. -1.
         -5    1    3    3    0  502  0.21642832614E+02 -0.14150320063E+02  0.32620994719E+02  0.41835935007E+02  0.41800000000E+01 0. -1.
        -11    1    4    4    0    0  0.27895251533E+02  0.33018732968E+01  0.11440794568E+03  0.11780588042E+03  0.00000000000E+00 0.  1.
         11    1    4    4    0    0  0.16005693652E+02 -0.98662254070E+02  0.13401217809E+03  0.16718159732E+03  0.00000000000E+00 0. -1.
</event>
<event>
 8    1  0.7103328E-009  0.1229579E+03  0.7561462E-02  0.1238296E+00
          2   -1    0    0  501    0  0.00000000000E+00  0.00000000000E+00  0.56351430428E+03  0.56351430428E+03  0.00000000000E+00 0. -1.
         -2   -1    0    0    0  501 -0.00000000000E+00 -0.00000000000E+00 -0.40638851399E+02  0.40638851399E+02  0.00000000000E+00 0.  1.
         25    2    1    2    0    0 -0.51089836775E+02  0.84122864999E+02  0.36366084353E+03  0.39696942968E+03  0.12509472868E+03 0.  0.
         23    2    1    2    0    0  0.51089836775E+02 -0.84122864999E+02  0.15921460935E+03  0.20718372600E+03  0.88819911344E+02 0.  0.
          5    1    3    3  502    0 -0.39891870840E+02  0.91244412323E+02  0.36888069687E+03  0.38210907483E+03  0.41800000000E+01 0. -1.
         -5    1    3    3    0  502 -0.11197965935E+02 -0.71215473240E+01 -0.52198533435E+01  0.14860354851E+02  0.41800000000E+01 0. -1.
        -11    1    4    4    0    0  0.70778069745E+02 -0.34082198285E+02  0.10061653253E+03  0.12765115752E+03  0.00000000000E+00 0. -1.
         11    1    4    4    0    0 -0.19688232969E+02 -0.50040666714E+02  0.58598076823E+02  0.79532568486E+02  0.00000000000E+00 0.  1.
</event>
<event>
 8    1  0.7103328E-009  0.9624732E+02  0.7561462E-02  0.1288391E+00
          1   -1    0    0  501    0  0.00000000000E+00  0.00000000000E+00  0.28154760528E+03  0.28154760528E+03  0.00000000000E+00 0. -1.
         -1   -1    0    0    0  501 -0.00000000000E+00 -0.00000000000E+00 -0.53562134874E+02  0.53562134874E+02  0.00000000000E+00 0.  1.
         25    2    1    2    0    0 -0.58407148680E+01 -0.47427342902E+02  0.17182987534E+03  0.21784515672E+03  0.12509012527E+03 0.  0.
         23    2    1    2    0    0  0.58407148680E+01  0.47427342902E+02  0.56155595068E+02  0.11726458344E+03  0.91181494101E+02 0.  0.
          5    1    3    3  502    0 -0.39257449294E+02 -0.13284198125E+02  0.23609354345E+01  0.41721261498E+02  0.41800000000E+01 0.  1.
         -5    1    3    3    0  502  0.33416734426E+02 -0.34143144777E+02  0.16946893990E+03  0.17612389522E+03  0.41800000000E+01 0.  1.
        -11    1    4    4    0    0  0.26129362987E+02 -0.19721121643E+02  0.19766628025E+02  0.38241153649E+02  0.00000000000E+00 0. -1.
         11    1    4    4    0    0 -0.20288648119E+02  0.67148464544E+02  0.36388967043E+02  0.79023429789E+02  0.00000000000E+00 0.  1.
</event>
<event>
 8    1  0.7103328E-009  0.2800291E+03  0.7561462E-02  0.1095673E+00
          2   -1    0    0  501    0  0.00000000000E+00  0.00000000000E+00  0.28422403679E+04  0.28422403679E+04  0.00000000000E+00 0. -1.
         -2   -1    0    0    0  501 -0.00000000000E+00 -0.00000000000E+00 -0.41682734508E+02  0.41682734508E+02  0.00000000000E+00 0.  1.
         25    2    1    2    0    0 -0.47672983318E+02 -0.26309706451E+03  0.22095599832E+04  0.22291920723E+04  0.12509675149E+03 0.  0.
         23    2    1    2    0    0  0.47672983318E+02  0.26309706451E+03  0.59099765021E+03  0.65473103011E+03  0.88891622428E+02 0.  0.
          5    1    3    3  502    0 -0.16286861270E+02 -0.23680737438E+03  0.20734381583E+04  0.20869849696E+04  0.41800000000E+01 0.  1.
         -5    1    3    3    0  502 -0.31386122048E+02 -0.26289690135E+02  0.13612182483E+03  0.14220710271E+03  0.41800000000E+01 0.  1.
        -11    1    4    4    0    0 -0.21406933385E+02  0.12787622048E+03  0.28654227165E+03  0.31451082335E+03  0.00000000000E+00 0.  1.
         11    1    4    4    0    0  0.69079916702E+02  0.13522084403E+03  0.30445537856E+03  0.34022020675E+03  0.00000000000E+00 0. -1.
</event>
<event>
 8    1  0.7103328E-009  0.9394743E+02  0.7561462E-02  0.1293564E+00
          4   -1    0    0  501    0  0.00000000000E+00  0.00000000000E+00  0.80045653374E+02  0.80045653374E+02  0.00000000000E+00 0. -1.
         -4   -1    0    0    0  501 -0.00000000000E+00 -0.00000000000E+00 -0.17093955542E+03  0.17093955542E+03  0.00000000000E+00 0.  1.
         25    2    1    2    0    0 -0.29396810812E+02  0.21457206707E+02 -0.39748154528E+02  0.13620672381E+03  0.12509105330E+03 0.  0.
         23    2    1    2    0    0  0.29396810812E+02 -0.21457206707E+02 -0.51145747514E+02  0.11477848499E+03  0.96091773431E+02 0.  0.
          5    1    3    3  502    0 -0.57079141814E+02 -0.32088529985E+02 -0.37862262123E+02  0.75754375979E+02  0.41800000000E+01 0.  1.
         -5    1    3    3    0  502  0.27682331002E+02  0.53545736692E+02 -0.18858924048E+01  0.60452347827E+02  0.41800000000E+01 0.  1.
        -11    1    4    4    0    0  0.28845908531E+01 -0.32868170386E+02  0.19595952706E+02  0.38374976890E+02  0.00000000000E+00 0. -1.
         11    1    4    4    0    0  0.26512219959E+02  0.11410963679E+02 -0.70741700220E+02  0.76403508095E+02  0.00000000000E+00 0.  1.
</event>
<event>
 8    1  0.7103328E-009  0.8297341E+02  0.7561462E-02  0.1320819E+00
         -1   -1    0    0    0  501 -0.00000000000E+00  0.00000000000E+00  0.20023052517E+03  0.20023052517E+03  0.00000000000E+00 0.  1.
          1   -1    0    0  501    0  0.00000000000E+00 -0.00000000000E+00 -0.84120361605E+02  0.84120361605E+02  0.00000000000E+00 0. -1.
         25    2    1    2    0    0 -0.58879282428E+02 -0.15922354355E+02  0.24719828415E+02  0.14134717462E+03  0.12509061751E+03 0.  0.
         23    2    1    2    0    0  0.58879282428E+02  0.15922354355E+02  0.91390335154E+02  0.14300371216E+03  0.91529105012E+02 0.  0.
          5    1    3    3  502    0 -0.45964508933E+02  0.21518720449E+02 -0.40407565697E+02  0.65007962411E+02  0.41800000000E+01 0. -1.
         -5    1    3    3    0  502 -0.12914773495E+02 -0.37441074803E+02  0.65127394112E+02  0.76339212209E+02  0.41800000000E+01 0. -1.
        -11    1    4    4    0    0  0.25029097794E+02 -0.15142127222E+02  0.92531757092E+02  0.97045689362E+02  0.00000000000E+00 0.  1.
         11    1    4    4    0    0  0.33850184634E+02  0.31064481577E+02 -0.11414219380E+01  0.45958022797E+02  0.00000000000E+00 0. -1.
</event>
<event>
 8    1  0.7103328E-009  0.1154837E+03  0.7561462E-02  0.1250739E+00
          1   -1    0    0  501    0  0.00000000000E+00  0.00000000000E+00  0.28856188193E+03  0.28856188193E+03  0.00000000000E+00 0. -1.
         -1   -1    0    0    0  501 -0.00000000000E+00 -0.00000000000E+00 -0.64087034461E+02  0.64087034461E+02  0.00000000000E+00 0.  1.
         25    2    1    2    0    0  0.10679606401E+02  0.81822952171E+02  0.11942023384E+03  0.19161847038E+03  0.12508955370E+03 0.  0.
         23    2    1    2    0    0 -0.10679606401E+02 -0.81822952171E+02  0.10505461363E+03  0.16103044601E+03  0.89918202849E+02 0.  0.
          5    1    3    3  502    0  0.12776694434E+02  0.99517047610E+02  0.13453589108E+03  0.16788169964E+03  0.41800000000E+01 0. -1.
         -5    1    3    3    0  502 -0.20970880331E+01 -0.17694095439E+02 -0.15115657235E+02  0.23736770742E+02  0.41800000000E+01 0. -1.
        -11    1    4    4    0    0 -0.72219611746E+01  0.14320912669E+02 -0.30392182409E+01  0.16324279782E+02  0.00000000000E+00 0. -1.
         11    1    4    4    0    0 -0.34576452261E+01 -0.96143864840E+02  0.10809383187E+03  0.14470616623E+03  0.00000000000E+00 0.  1.
</event>
<event>
 8    1  0.7103328E-009  0.7769483E+02  0.7561462E-02  0.1335723E+00
         -3   -1    0    0    0  501 -0.00000000000E+00  0.00000000000E+00  0.35577336903E+03  0.35577336903E+03  0.00000000000E+00 0.  1.
          3   -1    0    0  501    0  0.00000000000E+00 -0.00000000000E+00 -0.39581257367E+02  0.39581257367E+02  0.00000000000E+00 0. -1.
         25    2    1    2    0    0 -0.15043133979E+02  0.38864158957E+02  0.20955372302E+03  0.24757618043E+03  0.12507790993E+03 0.  0.
         23    2    1    2    0    0  0.15043133979E+02 -0.38864158957E+02  0.10663838865E+03  0.14777844597E+03  0.93434492714E+02 0.  0.
          5    1    3    3  502    0  0.30238611180E+02  0.20300224752E+02  0.19191890316E+03  0.19538887001E+03  0.41800000000E+01 0. -1.
         -5    1    3    3    0  502 -0.45281745159E+02  0.18563934205E+02  0.17634819855E+02  0.52187310423E+02  0.41800000000E+01 0. -1.
        -11    1    4    4    0    0 -0.18231969456E+02 -0.30118747755E+02 -0.54202838846E+00  0.35211325896E+02  0.00000000000E+00 0. -1.
         11    1    4    4    0    0  0.33275103435E+02 -0.87454112024E+01  0.10718041704E+03  0.11256712008E+03  0.00000000000E+00 0.  1.
</event>
<event>
 8    1  0.7103328E-009  0.1389621E+03  0.7561462E-02  0.1214732E+00
         -2   -1    0    0    0  501 -0.00000000000E+00  0.00000000000E+00  0.38775994230E+02  0.38775994230E+02  0.00000000000E+00 0.  1.
          2   -1    0    0  501    0  0.00000000000E+00 -0.00000000000E+00 -0.80813028934E+03  0.80813028934E+03  0.00000000000E+00 0. -1.
         25    2    1    2    0    0 -0.39375941852E+02  0.13158597429E+03 -0.39937240254E+03  0.44046652850E+03  0.12508842230E+03 0.  0.
         23    2    1    2    0    0  0.39375941852E+02 -0.13158597429E+03 -0.36998189258E+03  0.40643975507E+03  0.97166559279E+02 0.  0.
          5    1    3    3  502    0 -0.19263556726E+02  0.30983097375E+02 -0.28258154990E+03  0.28495761384E+03  0.41800000000E+01 0.  1.
         -5    1    3    3    0  502 -0.20112385126E+02  0.10060287692E+03 -0.11679085264E+03  0.15550891466E+03  0.41800000000E+01 0.  1.
        -11    1    4    4    0    0  0.23309011669E+02 -0.10417306104E+03 -0.35611653682E+03  0.37177187154E+03  0.00000000000E+00 0. -1.
         11    1    4    4    0    0  0.16066930183E+02 -0.27412913255E+02 -0.13865355761E+02  0.34667883538E+02  0.00000000000E+00 0.  1.
</event>
<event>
 8    1  0.7103328E-009  0.1043707E+03  0.7561462E-02  0.1271364E+00
          2   -1    0    0  501    0  0.00000000000E+00  0.00000000000E+00  0.18872080684E+03  0.18872080684E+03  0.00000000000E+00 0. -1.
         -2   -1    0    0    0  501 -0.00000000000E+00 -0.00000000000E+00 -0.79919970259E+02  0.79919970259E+02  0.00000000000E+00 0.  1.
         25    2    1    2    0    0  0.33273114548E+02 -0.44243099132E+02  0.80274321184E+02  0.15860582998E+03  0.12508913098E+03 0.  0.
         23    2    1    2    0    0 -0.33273114548E+02  0.44243099132E+02  0.28526515399E+02  0.11003494712E+03  0.90715905632E+02 0.  0.
          5    1    3    3  502    0 -0.21216584145E+02 -0.70086728227E+02  0.27415880655E+02  0.78303230000E+02  0.41800000000E+01 0. -1.
         -5    1    3    3    0  502  0.54489698693E+02  0.25843629095E+02  0.52858440529E+02  0.80302599980E+02  0.41800000000E+01 0. -1.
        -11    1    4    4    0    0 -0.33962016859E+02  0.34429008606E+01 -0.25299764347E+02  0.42489413170E+02  0.00000000000E+00 0.  1.
         11    1    4    4    0    0  0.68890231124E+00  0.40800198272E+02  0.53826279747E+02  0.67545533951E+02  0.00000000000E+00 0. -1.
</event>
<event>
 8    1  0.7103328E-009  0.1032246E+03  0.7561462E-02  0.1273657E+00
          1   -1    0    0  501    0  0.00000000000E+00  0.00000000000E+00  0.53270439010E+03  0.53270439010E+03  0.00000000000E+00 0. -1.
         -1   -1    0    0    0  501 -0.00000000000E+00 -0.00000000000E+00 -0.22309491476E+02  0.22309491476E+02  0.00000000000E+00 0.  1.
         25    2    1    2    0    0 -0.12913611502E+02  0.17026118713E+02  0.27379884864E+03  0.30177795085E+03  0.12508985580E+03 0.  0.
         23    2    1    2    0    0  0.12913611502E+02 -0.17026118713E+02  0.23659604998E+03  0.25323593072E+03  0.87715994328E+02 0.  0.
          5    1    3    3  502    0 -0.67925558293E+02  0.91492935958E+01  0.12089815111E+03  0.13903749992E+03  0.41800000000E+01 0. -1.
         -5    1    3    3    0  502  0.55011946790E+02  0.78768251172E+01  0.15290069754E+03  0.16274045094E+03  0.41800000000E+01 0. -1.
        -11    1    4    4    0    0  0.41676729053E+02  0.96989978979E+01  0.17527226613E+03  0.18042003098E+03  0.00000000000E+00 0. -1.
         11    1    4    4    0    0 -0.28763117551E+02 -0.26725116611E+02  0.61323783850E+02  0.72815899739E+02  0.00000000000E+00 0.  1.
</event>
<event>
 8    1  0.7103328E-009  0.5271635E+02  0.7561462E-02  0.1431218E+00
          2   -1    0    0  501    0  0.00000000000E+00  0.00000000000E+00  0.37987127529E+03  0.37987127529E+03  0.00000000000E+00 0. -1.
         -2   -1    0    0    0  501 -0.00000000000E+00 -0.00000000000E+00 -0.44516653537E+02  0.44516653537E+02  0.00000000000E+00 0.  1.
         25    2    1    2    0    0  0.40643459402E+02 -0.24007416224E+02  0.27145484362E+03  0.30259723130E+03  0.12509638460E+03 0.  0.
         23    2    1    2    0    0 -0.40643459402E+02  0.24007416224E+02  0.63899778139E+02  0.12179069753E+03  0.92312217684E+02 0.  0.
          5    1    3    3  502    0  0.11042455178E+02 -0.51029265771E+01 -0.11612189476E+02  0.17328907076E+02  0.41800000000E+01 0. -1.
         -5    1    3    3    0  502  0.29601004224E+02 -0.18904489647E+02  0.28306703309E+03  0.28526832422E+03  0.41800000000E+01 0. -1.
        -11    1    4    4    0    0 -0.17651465095E+02  0.28737889947E+02  0.84233774818E+02  0.90734609487E+02  0.00000000000E+00 0. -1.
         11    1    4    4    0    0 -0.22991994306E+02 -0.47304737233E+01 -0.20333996679E+02  0.31056088047E+02  0.00000000000E+00 0.  1.
</event>
<event>
 8    1  0.7103328E-009  0.1047630E+03  0.7561462E-02  0.1270587E+00
          2   -1    0    0  501    0  0.00000000000E+00  0.00000000000E+00  0.88127724638E+03  0.88127724638E+03  0.00000000000E+00 0. -1.
         -2   -1    0    0    0  501 -0.00000000000E+00 -0.00000000000E+00 -0.22051598894E+02  0.22051598894E+02  0.00000000000E+00 0.  1.
         25    2    1    2    0    0 -0.23286406035E+00  0.11094212902E+02  0.75942082075E+03  0.76973400902E+03  0.12508927157E+03 0.  0.
         23    2    1    2    0    0  0.23286406035E+00 -0.11094212902E+02  0.99804826731E+02  0.13359483625E+03  0.88110391264E+02 0.  0.
          5    1    3    3  502    0 -0.41285939313E+02 -0.41518479899E+02  0.34914638104E+03  0.35404657992E+03  0.41800000000E+01 0. -1.
         -5    1    3    3    0  502  0.41053075253E+02  0.52612692801E+02  0.41027443971E+03  0.41568742910E+03  0.41800000000E+01 0. -1.
        -11    1    4    4    0    0 -0.73706579413E+01 -0.46839146231E+02  0.34076983751E+02  0.58390693092E+02  0.00000000000E+00 0.  1.
         11    1    4    4    0    0  0.76035220016E+01  0.35744933330E+02  0.65727842981E+02  0.75204143160E+02  0.00000000000E+00 0. -1.
</event>
<event>
 8    1  0.7103328E-009  0.3600406E+03  0.7561462E-02  0.1058568E+00
         -1   -1    0    0    0  501 -0.00000000000E+00  0.00000000000E+00  0.81210502901E+03  0.81210502901E+03  0.00000000000E+00 0.  1.
          1   -1    0    0  501    0  0.00000000000E+00 -0.00000000000E+00 -0.17170620522E+03  0.17170620522E+03  0.00000000000E+00 0. -1.
         25    2    1    2    0    0  0.21305270714E+03  0.28647212707E+03  0.35611347641E+03  0.51954027061E+03  0.12509016384E+03 0.  0.
         23    2    1    2    0    0 -0.21305270714E+03 -0.28647212707E+03  0.28428534738E+03  0.46427096362E+03  0.85273872411E+02 0.  0.
          5    1    3    3  502    0  0.39400373800E+02  0.10066674207E+03  0.18054600148E+03  0.21047687157E+03  0.41800000000E+01 0. -1.
         -5    1    3    3    0  502  0.17365233334E+03  0.18580538500E+03  0.17556747493E+03  0.30906339904E+03  0.41800000000E+01 0. -1.
        -11    1    4    4    0    0 -0.11559753763E+03 -0.13911600203E+03  0.91229626493E+02  0.20258059502E+03  0.00000000000E+00 0.  1.
         11    1    4    4    0    0 -0.97455169508E+02 -0.14735612503E+03  0.19305572089E+03  0.26169036860E+03  0.00000000000E+00 0. -1.
</event>
<event>
 8    1  0.7103328E-009  0.1642572E+03  0.7561462E-02  0.1183973E+00
          2   -1    0    0  501    0  0.00000000000E+00  0.00000000000E+00  0.11851336244E+03  0.11851336244E+03  0.00000000000E+00 0. -1.
         -2   -1    0    0    0  501 -0.00000000000E+00 -0.00000000000E+00 -0.42893936851E+03  0.42893936851E+03  0.00000000000E+00 0.  1.
         25    2    1    2    0    0  0.74973038572E+02  0.12598142224E+03 -0.32105137856E+03  0.37445140422E+03  0.12509033207E+03 0.  0.
         23    2    1    2    0    0 -0.74973038572E+02 -0.12598142224E+03  0.10625372495E+02  0.17300132673E+03  0.91237521049E+02 0.  0.
          5    1    3    3  502    0  0.46008299082E+02 -0.38191226098E+01 -0.32244422035E+02  0.56467020767E+02  0.41800000000E+01 0. -1.
         -5    1    3    3    0  502  0.28964739490E+02  0.12980054485E+03 -0.28880695653E+03  0.31798438345E+03  0.41800000000E+01 0. -1.
        -11    1    4    4    0    0 -0.64867933477E+02 -0.85188298569E+02 -0.33375225712E+02  0.11215525265E+03  0.00000000000E+00 0. -1.
         11    1    4    4    0    0 -0.10105105095E+02 -0.40793123673E+02  0.44000598207E+02  0.60846074077E+02  0.00000000000E+00 0.  1.
</event>
<event>
 8    1  0.7103328E-009  0.1197985E+03  0.7561462E-02  0.1243430E+00
          2   -1    0    0  501    0  0.00000000000E+00  0.00000000000E+00  0.64163606422E+03  0.64163606422E+03  0.00000000000E+00 0. -1.
         -2   -1    0    0    0  501 -0.00000000000E+00 -0.00000000000E+00 -0.32332387341E+02  0.32332387341E+02  0.00000000000E+00 0.  1.
         25    2    1    2    0    0 -0.23989911402E+02  0.43294827207E+02  0.51311465822E+03  0.53045864348E+03  0.12509900897E+03 0.  0.
         23    2    1    2    0    0  0.23989911402E+02 -0.43294827207E+02  0.96189018654E+02  0.14350980808E+03  0.94301536539E+02 0.  0.
          5    1    3    3  502    0 -0.53634569134E+02  0.73511538659E+02  0.37717805199E+03  0.38802238161E+03  0.41800000000E+01 0. -1.
         -5    1    3    3    0  502  0.29644657731E+02 -0.30216711452E+02  0.13593660623E+03  0.14243626187E+03  0.41800000000E+01 0. -1.
        -11    1    4    4    0    0  0.45729919726E+02  0.11383332139E+02  0.49971935175E+02  0.68687699873E+02  0.00000000000E+00 0.  1.
         11    1    4    4    0    0 -0.21740008323E+02 -0.54678159346E+02  0.46217083479E+02  0.74822108208E+02  0.00000000000E+00 0. -1.
</event>
<event>
 8    1  0.7103328E-009  0.1298776E+03  0.7561462E-02  0.1227637E+00
          2   -1    0    0  501    0  0.00000000000E+00  0.00000000000E+00  0.15775472801E+03  0.15775472801E+03  0.00000000000E+00 0. -1.
         -2   -1    0    0    0  501 -0.00000000000E+00 -0.00000000000E+00 -0.12221282303E+03  0.12221282303E+03  0.00000000000E+00 0.  1.
         25    2    1    2    0    0  0.86682119498E+02 -0.14592478603E+02  0.19212744873E+02  0.15409053751E+03  0.12509210171E+03 0.  0.
         23    2    1    2    0    0 -0.86682119498E+02  0.14592478603E+02  0.16329160104E+02  0.12587701354E+03  0.88609541224E+02 0.  0.
          5    1    3    3  502    0  0.49266198864E+02  0.45671032194E+02  0.42156959085E+02  0.79420923764E+02  0.41800000000E+01 0. -1.
         -5    1    3    3    0  502  0.37415920633E+02 -0.60263510798E+02 -0.22944214211E+02  0.74669613741E+02  0.41800000000E+01 0. -1.
        -11    1    4    4    0    0 -0.10102263359E+03  0.24510191100E+02  0.24221541568E+02  0.10673802060E+03  0.00000000000E+00 0. -1.
         11    1    4    4    0    0  0.14340514094E+02 -0.99177124971E+01 -0.78923814645E+01  0.19138992942E+02  0.00000000000E+00 0.  1.
</event>
<event>
 8    1  0.7103328E-009  0.1142353E+03  0.7561462E-02  0.1252922E+00
         -1   -1    0    0    0  501 -0.00000000000E+00  0.00000000000E+00  0.52411409379E+02  0.52411409379E+02  0.00000000000E+00 0.  1.
          1   -1    0    0  501    0  0.00000000000E+00 -0.00000000000E+00 -0.35892531480E+03  0.35892531480E+03  0.00000000000E+00 0. -1.
         25    2    1    2    0    0  0.26441249930E+02  0.73741126516E+02 -0.18634820595E+03  0.23771554832E+03  0.12508450988E+03 0.  0.
         23    2    1    2    0    0 -0.26441249930E+02 -0.73741126516E+02 -0.12016569946E+03  0.17362117585E+03  0.97814231789E+02 0.  0.
          5    1    3    3  502    0  0.22078832802E+02 -0.33197975775E+02 -0.58699210964E+02  0.71081996464E+02  0.41800000000E+01 0.  1.
         -5    1    3    3    0  502  0.43624171275E+01  0.10693910229E+03 -0.12764899499E+03  0.16663355186E+03  0.41800000000E+01 0.  1.
        -11    1    4    4    0    0 -0.17010447646E+02 -0.18102633309E+02  0.13684901786E+02  0.28360839175E+02  0.00000000000E+00 0.  1.
         11    1    4    4    0    0 -0.94308022838E+01 -0.55638493207E+02 -0.13385060125E+03  0.14526033668E+03  0.00000000000E+00 0. -1.
</event>
<event>
 8    1  0.7103328E-009  0.1100836E+03  0.7561462E-02  0.1260415E+00
         -1   -1    0    0    0  501 -0.00000000000E+00  0.00000000000E+00  0.12494487309E+03  0.12494487309E+03  0.00000000000E+00 0.  1.
          1   -1    0    0  501    0  0.00000000000E+00 -0.00000000000E+00 -0.11784456032E+03  0.11784456032E+03  0.00000000000E+00 0. -1.
         25    2    1    2    0    0 -0.52281259933E+02  0.25237690831E+01  0.10697300068E+02  0.13601383026E+03  0.12508249375E+03 0.  0.
         23    2    1    2    0    0  0.52281259933E+02 -0.25237690831E+01 -0.35969873048E+01  0.10677560315E+03  0.92996728759E+02 0.  0.
          5    1    3    3  502    0 -0.84747701959E+02 -0.27554395280E+02  0.17867848907E+02  0.90984339923E+02  0.41800000000E+01 0. -1.
         -5    1    3    3    0  502  0.32466442027E+02  0.30078164363E+02 -0.71705488385E+01  0.45029490336E+02  0.41800000000E+01 0. -1.
        -11    1    4    4    0    0 -0.97377782905E+01  0.18589379028E+02  0.27224052988E+02  0.34373513056E+02  0.00000000000E+00 0.  1.
         11    1    4    4    0    0  0.62019038223E+02 -0.21113148111E+02 -0.30821040293E+02  0.72402090095E+02  0.00000000000E+00 0. -1.
</event>
<event>
 8    1  0.7103328E-009  0.1478762E+03  0.7561462E-02  0.1203107E+00
          2   -1    0    0  501    0  0.00000000000E+00  0.00000000000E+00  0.14284110049E+03  0.14284110049E+03  0.00000000000E+00 0. -1.
         -2   -1    0    0    0  501 -0.00000000000E+00 -0.00000000000E+00 -0.26031084223E+03  0.26031084223E+03  0.00000000000E+00 0.  1.
         25    2    1    2    0    0  0.13505234891E+03 -0.56717229812E+02 -0.12678671458E+03  0.23059508615E+03  0.12507294535E+03 0.  0.
         23    2    1    2    0    0 -0.13505234891E+03  0.56717229812E+02  0.93169728385E+01  0.17255685658E+03  0.90736330459E+02 0.  0.
          5    1    3    3  502    0  0.48235544174E+02 -0.32100185577E+02  0.17228652490E+02  0.60591983813E+02  0.41800000000E+01 0.  1.
         -5    1    3    3    0  502  0.86816804739E+02 -0.24617044235E+02 -0.14401536707E+03  0.17000310234E+03  0.41800000000E+01 0.  1.
        -11    1    4    4    0    0 -0.36771165373E+02  0.79962663400E+01 -0.37649033231E+02  0.53230710887E+02  0.00000000000E+00 0.  1.
         11    1    4    4    0    0 -0.98281183539E+02  0.48720963472E+02  0.46966006070E+02  0.11932614569E+03  0.00000000000E+00 0. -1.
</event>
<event>
 8    1  0.7103328E-009  0.7340660E+02  0.7561462E-02  0.1348877E+00
         -1   -1    0    0    0  501 -0.00000000000E+00  0.00000000000E+00  0.54919686040E+02  0.54919686040E+02  0.00000000000E+00 0.  1.
          1   -1    0    0  501    0  0.00000000000E+00 -0.00000000000E+00 -0.21709473161E+03  0.21709473161E+03  0.00000000000E+00 0. -1.
         25    2    1    2    0    0  0.52988534852E+01  0.29696603076E+00 -0.11047354595E+03  0.16697432111E+03  0.12509138068E+03 0.  0.
         23    2    1    2    0    0 -0.52988534852E+01 -0.29696603076E+00 -0.51701499623E+02  0.10504009654E+03  0.91280944234E+02 0.  0.
          5    1    3    3  502    0  0.45467760001E+02 -0.31146660195E+02 -0.12847452659E+02  0.56744700903E+02  0.41800000000E+01 0. -1.
         -5    1    3    3    0  502 -0.40168906516E+02  0.31443626226E+02 -0.97626093287E+02  0.11022962021E+03  0.41800000000E+01 0. -1.
        -11    1    4    4    0    0  0.15378024840E+02 -0.91191654072E+01 -0.72343717822E+02  0.74520174007E+02  0.00000000000E+00 0. -1.
         11    1    4    4    0    0 -0.20676878325E+02  0.88221993764E+01  0.20642218199E+02  0.30519922531E+02  0.00000000000E+00 0.  1.
</event>
<event>
 8    1  0.7103328E-009  0.2439333E+03  0.7561462E-02  0.1117200E+00
         -2   -1    0    0    0  501 -0.00000000000E+00  0.00000000000E+00  0.54620835750E+03  0.54620835750E+03  0.00000000000E+00 0.  1.
          2   -1    0    0  501    0  0.00000000000E+00 -0.00000000000E+00 -0.11664607890E+03  0.11664607890E+03  0.00000000000E+00 0. -1.
         25    2    1    2    0    0 -0.19715847516E+03  0.11419690161E+03  0.21218635279E+03  0.33553570362E+03  0.12509501760E+03 0.  0.
         23    2    1    2    0    0  0.19715847516E+03 -0.11419690161E+03  0.21737592581E+03  0.32731873279E+03  0.89290890051E+02 0.  0.
          5    1    3    3  502    0 -0.49133081260E+02  0.98213880539E+02  0.10534854354E+03  0.15223604708E+03  0.41800000000E+01 0.  1.
         -5    1    3    3    0  502 -0.14802539390E+03  0.15983021068E+02  0.10683780925E+03  0.18329965654E+03  0.41800000000E+01 0.  1.
        -11    1    4    4    0    0  0.59290028444E+02 -0.46961132150E+02  0.21697542548E+02  0.78685696021E+02  0.00000000000E+00 0. -1.
         11    1    4    4    0    0  0.13786844672E+03 -0.67235769457E+02  0.19567838326E+03  0.24863303677E+03  0.00000000000E+00 0.  1.
</event>
<event>
 8    1  0.7103328E-009  0.1098130E+03  0.7561462E-02  0.1260917E+00
          2   -1    0    0  501    0  0.00000000000E+00  0.00000000000E+00  0.36957592780E+03  0.36957592780E+03  0.00000000000E+00 0. -1.
         -2   -1    0    0    0  501 -0.00000000000E+00 -0.00000000000E+00 -0.51099138457E+02  0.51099138457E+02  0.00000000000E+00 0.  1.
         25    2    1    2    0    0 -0.11081503195E+02  0.81562738954E+02  0.14994314897E+03  0.21190534684E+03  0.12508256472E+03 0.  0.
         23    2    1    2    0    0  0.11081503195E+02 -0.81562738954E+02  0.16853364037E+03  0.20876971942E+03  0.91683846499E+02 0.  0.
          5    1    3    3  502    0 -0.17052278040E+02 -0.20584250114E+02  0.88357376601E+02  0.92406655274E+02  0.41800000000E+01 0. -1.
         -5    1    3    3    0  502  0.59707748449E+01  0.10214698907E+03  0.61585772366E+02  0.11949869156E+03  0.41800000000E+01 0. -1.
        -11    1    4    4    0    0 -0.80789921161E+01 -0.62901124803E+02  0.34701737187E+02  0.72291300852E+02  0.00000000000E+00 0.  1.
         11    1    4    4    0    0  0.19160495311E+02 -0.18661614151E+02  0.13383190319E+03  0.13647841856E+03  0.00000000000E+00 0. -1.
</event>
<event>
 8    1  0.7103328E-009  0.7970395E+02  0.7561462E-02  0.1329894E+00
         -2   -1    0    0    0  501 -0.00000000000E+00  0.00000000000E+00  0.80878673495E+02  0.80878673495E+02  0.00000000000E+00 0.  1.
          2   -1    0    0  501    0  0.00000000000E+00 -0.00000000000E+00 -0.16450353683E+03  0.16450353683E+03  0.00000000000E+00 0. -1.
         25    2    1    2    0    0 -0.14868780362E+02 -0.12484331449E+02 -0.14039661802E+02  0.12736364014E+03  0.12508975004E+03 0.  0.
         23    2    1    2    0    0  0.14868780362E+02  0.12484331449E+02 -0.69585201536E+02  0.11801857019E+03  0.93323863373E+02 0.  0.
          5    1    3    3  502    0  0.31411782983E+02  0.16227083919E+01 -0.55222607115E+02  0.63689418503E+02  0.41800000000E+01 0. -1.
         -5    1    3    3    0  502 -0.46280563344E+02 -0.14107039841E+02  0.41182945313E+02  0.63674221638E+02  0.41800000000E+01 0. -1.
        -11    1    4    4    0    0 -0.15500075057E+02  0.36980557921E+02 -0.22064031670E+01  0.40158214675E+02  0.00000000000E+00 0.  1.
         11    1    4    4    0    0  0.30368855419E+02 -0.24496226472E+02 -0.67378798369E+02  0.77860355512E+02  0.00000000000E+00 0. -1.
</event>
<event>
 8    1  0.7103328E-009  0.7998541E+02  0.7561462E-02  0.1329093E+00
          4   -1    0    0  501    0  0.00000000000E+00  0.00000000000E+00  0.83267935229E+02  0.83267935229E+02  0.00000000000E+00 0. -1.
         -4   -1    0    0    0  501 -0.00000000000E+00 -0.00000000000E+00 -0.20169049602E+03  0.20169049602E+03  0.00000000000E+00 0.  1.
         25    2    1    2    0    0 -0.29243119607E+02  0.59844072954E+02 -0.48622362643E+02  0.14983259907E+03  0.12509676448E+03 0.  0.
         23    2    1    2    0    0  0.29243119607E+02 -0.59844072954E+02 -0.69800198151E+02  0.13512583218E+03  0.94606816612E+02 0.  0.
          5    1    3    3  502    0 -0.16103671909E+02 -0.48789938238E+01 -0.76194984031E+02  0.78142695252E+02  0.41800000000E+01 0. -1.
         -5    1    3    3    0  502 -0.13139447697E+02  0.64723066778E+02  0.27572621388E+02  0.71689903816E+02  0.41800000000E+01 0. -1.
        -11    1    4    4    0    0 -0.22443209084E+01 -0.38159548117E+02  0.15810521145E+02  0.41366177823E+02  0.00000000000E+00 0. -1.
         11    1    4    4    0    0  0.31487440515E+02 -0.21684524837E+02 -0.85610719295E+02  0.93759654361E+02  0.00000000000E+00 0.  1.
</event>
<event>
 8    1  0.7103328E-009  0.1377524E+03  0.7561462E-02  0.1216386E+00
         -2   -1    0    0    0  501 -0.00000000000E+00  0.00000000000E+00  0.31869419852E+02  0.31869419852E+02  0.00000000000E+00 0.  1.
          2   -1    0    0  501    0  0.00000000000E+00 -0.00000000000E+00 -0.77930123469E+03  0.77930123469E+03  0.00000000000E+00 0. -1.
         25    2    1    2    0    0  0.82668211457E+02 -0.41439649341E+02 -0.56214812225E+03  0.58327335184E+03  0.12508402732E+03 0.  0.
         23    2    1    2    0    0 -0.82668211457E+02  0.41439649341E+02 -0.18528369259E+03  0.22789730271E+03  0.95162262049E+02 0.  0.
          5    1    3    3  502    0 -0.87021818392E+01 -0.55737183230E+02 -0.29930117892E+03  0.30459978606E+03  0.41800000000E+01 0. -1.
         -5    1    3    3    0  502  0.91370393296E+02  0.14297533890E+02 -0.26284694333E+03  0.27867356578E+03  0.41800000000E+01 0. -1.
        -11    1    4    4    0    0 -0.16871838505E+02  0.56413353117E+02 -0.52222571419E+02  0.78704017115E+02  0.00000000000E+00 0.  1.
         11    1    4    4    0    0 -0.65796372951E+02 -0.14973703776E+02 -0.13306112117E+03  0.14919328559E+03  0.00000000000E+00 0. -1.
</event>
<event>
 8    1  0.7103328E-009  0.1903002E+03  0.7561462E-02  0.1158191E+00
         -1   -1    0    0    0  501 -0.00000000000E+00  0.00000000000E+00  0.30491382917E+02  0.30491382917E+02  0.00000000000E+00 0.  1.
          1   -1    0    0  501    0  0.00000000000E+00 -0.00000000000E+00 -0.13721030582E+04  0.13721030582E+04  0.00000000000E+00 0. -1.
         25    2    1    2    0    0  0.15088216419E+03  0.82874849566E+02 -0.65671937247E+03  0.69033313799E+03  0.12508332849E+03 0.  0.
         23    2    1    2    0    0 -0.15088216419E+03 -0.82874849566E+02 -0.68489230280E+03  0.71226130311E+03  0.92763297267E+02 0.  0.
          5    1    3    3  502    0  0.12452977956E+03  0.98831480976E+02 -0.62862490612E+03  0.64843046861E+03  0.41800000000E+01 0. -1.
         -5    1    3    3    0  502  0.26352384625E+02 -0.15956631410E+02 -0.28094466351E+02  0.41902669377E+02  0.41800000000E+01 0. -1.
        -11    1    4    4    0    0 -0.23029258317E+02 -0.54987461493E+02 -0.14586543887E+03  0.15757758063E+03  0.00000000000E+00 0. -1.
         11    1    4    4    0    0 -0.12785290587E+03 -0.27887388073E+02 -0.53902686393E+03  0.55468372248E+03  0.00000000000E+00 0.  1.
</event>
<event>
 8    1  0.7103328E-009  0.1291207E+03  0.7561462E-02  0.1228766E+00
         -2   -1    0    0    0  501 -0.00000000000E+00  0.00000000000E+00  0.48230820223E+02  0.48230820223E+02  0.00000000000E+00 0.  1.
          2   -1    0    0  501    0  0.00000000000E+00 -0.00000000000E+00 -0.54590127670E+03  0.54590127670E+03  0.00000000000E+00 0. -1.
         25    2    1    2    0    0 -0.10564042682E+03 -0.31287155505E+02 -0.17684300017E+03  0.24302258468E+03  0.12509094323E+03 0.  0.
         23    2    1    2    0    0  0.10564042682E+03  0.31287155505E+02 -0.32082745631E+03  0.35110951225E+03  0.90602687537E+02 0.  0.
          5    1    3    3  502    0 -0.67596263857E+02  0.12098420284E+01 -0.96092183129E+01  0.68414385050E+02  0.41800000000E+01 0. -1.
         -5    1    3    3    0  502 -0.38044162962E+02 -0.32496997534E+02 -0.16723378186E+03  0.17460819963E+03  0.41800000000E+01 0. -1.
        -11    1    4    4    0    0  0.89219205372E+02 -0.15639857091E+02 -0.17521584395E+03  0.19724417281E+03  0.00000000000E+00 0.  1.
         11    1    4    4    0    0  0.16421221447E+02  0.46927012596E+02 -0.14561161236E+03  0.15386533944E+03  0.00000000000E+00 0. -1.
</event>
<event>
 8    1  0.7103328E-009  0.1416438E+03  0.7561462E-02  0.1211134E+00
         -2   -1    0    0    0  501 -0.00000000000E+00  0.00000000000E+00  0.27019872894E+02  0.27019872894E+02  0.00000000000E+00 0.  1.
          2   -1    0    0  501    0  0.00000000000E+00 -0.00000000000E+00 -0.10617762801E+04  0.10617762801E+04  0.00000000000E+00 0. -1.
         25    2    1    2    0    0 -0.76291246739E+02 -0.10056825496E+03 -0.45713205243E+03  0.49046000357E+03  0.12508786315E+03 0.  0.
         23    2    1    2    0    0  0.76291246739E+02  0.10056825496E+03 -0.57762435481E+03  0.59833614946E+03  0.91771042506E+02 0.  0.
          5    1    3    3  502    0  0.35110068209E+01 -0.13780809315E+02 -0.26212700955E+03  0.26254576631E+03  0.41800000000E+01 0. -1.
         -5    1    3    3    0  502 -0.79802253560E+02 -0.86787445647E+02 -0.19500504288E+03  0.22791423726E+03  0.41800000000E+01 0. -1.
        -11    1    4    4    0    0  0.23955825764E+02  0.94867832596E+02 -0.44531841563E+03  0.45594109109E+03  0.00000000000E+00 0. -1.
         11    1    4    4    0    0  0.52335420976E+02  0.57004223661E+01 -0.13230593918E+03  0.14239505837E+03  0.00000000000E+00 0.  1.
</event>
<event>
 8    1  0.7103328E-009  0.1178940E+03  0.7561462E-02  0.1246612E+00
         -2   -1    0    0    0  501 -0.00000000000E+00  0.00000000000E+00  0.88069892626E+02  0.88069892626E+02  0.00000000000E+00 0.  1.
          2   -1    0    0  501    0  0.00000000000E+00 -0.00000000000E+00 -0.23305953385E+03  0.23305953385E+03  0.00000000000E+00 0. -1.
         25    2    1    2    0    0 -0.62407021060E+02 -0.35905353614E+02 -0.14589896960E+03  0.20522628909E+03  0.12508992648E+03 0.  0.
         23    2    1    2    0    0  0.62407021060E+02  0.35905353614E+02  0.90932837542E+00  0.11590313739E+03  0.90823343268E+02 0.  0.
          5    1    3    3  502    0 -0.32941836524E+02  0.46251025686E+02 -0.56196735217E+02  0.79999171368E+02  0.41800000000E+01 0. -1.
         -5    1    3    3    0  502 -0.29465184536E+02 -0.82156379300E+02 -0.89702234381E+02  0.12522711772E+03  0.41800000000E+01 0. -1.
        -11    1    4    4    0    0  0.19801207685E+02 -0.15180023556E+02 -0.32894411702E+02  0.41286356853E+02  0.00000000000E+00 0. -1.
         11    1    4    4    0    0  0.42605813374E+02  0.51085377171E+02  0.33803740078E+02  0.74616780534E+02  0.00000000000E+00 0.  1.
</event>
<event>
 8    1  0.7103328E-009  0.1272744E+03  0.7561462E-02  0.1231557E+00
          2   -1    0    0  501    0  0.00000000000E+00  0.00000000000E+00  0.22704415175E+03  0.22704415175E+03  0.00000000000E+00 0. -1.
         -2   -1    0    0    0  501 -0.00000000000E+00 -0.00000000000E+00 -0.20481211824E+03  0.20481211824E+03  0.00000000000E+00 0.  1.
         25    2    1    2    0    0 -0.53202504452E+02  0.89353997497E+02 -0.14234736347E+03  0.21616462394E+03  0.12509887853E+03 0.  0.
         23    2    1    2    0    0  0.53202504452E+02 -0.89353997497E+02  0.16457939698E+03  0.21569164605E+03  0.92853997853E+02 0.  0.
          5    1    3    3  502    0 -0.18091507774E+02  0.95029571638E+02 -0.34929149210E+02  0.10293415373E+03  0.41800000000E+01 0.  1.
         -5    1    3    3    0  502 -0.35110996678E+02 -0.56755741412E+01 -0.10741821426E+03  0.11323047022E+03  0.41800000000E+01 0.  1.
        -11    1    4    4    0    0  0.12901914141E+01 -0.64221705354E+02  0.13793562160E+03  0.15215888978E+03  0.00000000000E+00 0. -1.
         11    1    4    4    0    0  0.51912313038E+02 -0.25132292143E+02  0.26643775384E+02  0.63532756276E+02  0.00000000000E+00 0.  1.
</event>
<event>
 8    1  0.7103328E-009  0.1181883E+03  0.7561462E-02  0.1246116E+00
         -2   -1    0    0    0  501 -0.00000000000E+00  0.00000000000E+00  0.11078438658E+02  0.11078438658E+02  0.00000000000E+00 0.  1.
          2   -1    0    0  501    0  0.00000000000E+00 -0.00000000000E+00 -0.12726801656E+04  0.12726801656E+04  0.00000000000E+00 0. -1.
         25    2    1    2    0    0 -0.25483590301E+02 -0.40368287234E+02 -0.72770509721E+03  0.73992096120E+03  0.12509719551E+03 0.  0.
         23    2    1    2    0    0  0.25483590301E+02  0.40368287234E+02 -0.53389662970E+03  0.54383764303E+03  0.91840942843E+02 0.  0.
          5    1    3    3  502    0  0.38997782780E+02 -0.55038062015E+02 -0.37779979554E+03  0.38379704694E+03  0.41800000000E+01 0.  1.
         -5    1    3    3    0  502 -0.64481373081E+02  0.14669774782E+02 -0.34990530167E+03  0.35612391426E+03  0.41800000000E+01 0.  1.
        -11    1    4    4    0    0 -0.28349685383E+02  0.39589823112E+02 -0.21661616362E+03  0.22202166808E+03  0.00000000000E+00 0.  1.
         11    1    4    4    0    0  0.53833275684E+02  0.77846412174E+00 -0.31728046608E+03  0.32181597495E+03  0.00000000000E+00 0. -1.
</event>
<event>
 8    1  0.7103328E-009  0.1407106E+03  0.7561462E-02  0.1212376E+00
         -1   -1    0    0    0  501 -0.00000000000E+00  0.00000000000E+00  0.10356809815E+03  0.10356809815E+03  0.00000000000E+00 0.  1.
          1   -1    0    0  501    0  0.00000000000E+00 -0.00000000000E+00 -0.22836080752E+03  0.22836080752E+03  0.00000000000E+00 0. -1.
         25    2    1    2    0    0 -0.76136864668E+02 -0.72187166896E+02 -0.46197851873E+02  0.16966472990E+03  0.12507625606E+03 0.  0.
         23    2    1    2    0    0  0.76136864668E+02  0.72187166896E+02 -0.78594857505E+02  0.16226417577E+03  0.95627934652E+02 0.  0.
          5    1    3    3  502    0 -0.96819768724E+02 -0.75558552054E+02 -0.46838162899E+01  0.12297387096E+03  0.41800000000E+01 0. -1.
         -5    1    3    3    0  502  0.20682904056E+02  0.33713851582E+01 -0.41514035583E+02  0.46690858939E+02  0.41800000000E+01 0. -1.
        -11    1    4    4    0    0 -0.18510569332E+02  0.25829023410E+02 -0.17357615866E+01  0.31824400947E+02  0.00000000000E+00 0.  1.
         11    1    4    4    0    0  0.94647434001E+02  0.46358143486E+02 -0.76859095918E+02  0.13043977482E+03  0.00000000000E+00 0. -1.
</event>
<event>
 8    1  0.7103328E-009  0.1106429E+03  0.7561462E-02  0.1259384E+00
         -1   -1    0    0    0  501 -0.00000000000E+00  0.00000000000E+00  0.41978310224E+02  0.41978310224E+02  0.00000000000E+00 0.  1.
          1   -1    0    0  501    0  0.00000000000E+00 -0.00000000000E+00 -0.33930488652E+03  0.33930488652E+03  0.00000000000E+00 0. -1.
         25    2    1    2    0    0  0.33123393281E+02  0.93542269557E+01 -0.19859985387E+03  0.23722107455E+03  0.12508907032E+03 0.  0.
         23    2    1    2    0    0 -0.33123393281E+02 -0.93542269557E+01 -0.98726722434E+02  0.14406212219E+03  0.99107358879E+02 0.  0.
          5    1    3    3  502    0  0.75832705205E+02  0.18953102156E+02 -0.85742832685E+02  0.11609963401E+03  0.41800000000E+01 0. -1.
         -5    1    3    3    0  502 -0.42709311924E+02 -0.95988752002E+01 -0.11285702118E+03  0.12112144055E+03  0.41800000000E+01 0. -1.
        -11    1    4    4    0    0  0.32648476166E+02 -0.58608482788E+01 -0.57432257246E+02  0.66322972723E+02  0.00000000000E+00 0. -1.
         11    1    4    4    0    0 -0.65771869447E+02 -0.34933786769E+01 -0.41294465188E+02  0.77739149470E+02  0.00000000000E+00 0.  1.
</event>
<event>
 8    1  0.7103328E-009  0.1204694E+03  0.7561462E-02  0.1242325E+00
          2   -1    0    0  501    0  0.00000000000E+00  0.00000000000E+00  0.92440453628E+03  0.92440453628E+03  0.00000000000E+00 0. -1.
         -2   -1    0    0    0  501 -0.00000000000E+00 -0.00000000000E+00 -0.26563340856E+02  0.26563340856E+02  0.00000000000E+00 0.  1.
         25    2    1    2    0    0  0.79922049050E+02  0.37152711554E+02  0.69801114878E+03  0.71458889331E+03  0.12509941935E+03 0.  0.
         23    2    1    2    0    0 -0.79922049050E+02 -0.37152711554E+02  0.19983004665E+03  0.23637898383E+03  0.90416362198E+02 0.  0.
          5    1    3    3  502    0  0.51452853810E+00  0.58323932024E+02  0.43749988163E+03  0.44139048994E+03  0.41800000000E+01 0. -1.
         -5    1    3    3    0  502  0.79407520512E+02 -0.21171220470E+02  0.26051126715E+03  0.27319840337E+03  0.41800000000E+01 0. -1.
        -11    1    4    4    0    0 -0.56423324922E+02 -0.24736996829E+00  0.36287516138E+02  0.67085293580E+02  0.00000000000E+00 0.  1.
         11    1    4    4    0    0 -0.23498724127E+02 -0.36905341586E+02  0.16354253051E+03  0.16929369025E+03  0.00000000000E+00 0. -1.
</event>
<event>
 8    1  0.7103328E-009  0.1345490E+03  0.7561462E-02  0.1220858E+00
          3   -1    0    0  501    0  0.00000000000E+00  0.00000000000E+00  0.96509087744E+02  0.96509087744E+02  0.00000000000E+00 0. -1.
         -3   -1    0    0    0  501 -0.00000000000E+00 -0.00000000000E+00 -0.24301518008E+03  0.24301518008E+03  0.00000000000E+00 0.  1.
         25    2    1    2    0    0 -0.64996221904E+02 -0.80902243407E+02 -0.41959406985E+02  0.16786221846E+03  0.12508977057E+03 0.  0.
         23    2    1    2    0    0  0.64996221904E+02  0.80902243407E+02 -0.10454668535E+03  0.17166204936E+03  0.88137210777E+02 0.  0.
          5    1    3    3  502    0 -0.46989666853E+02  0.25810371881E+02 -0.19888245339E+02  0.57334272388E+02  0.41800000000E+01 0.  1.
         -5    1    3    3    0  502 -0.18006555051E+02 -0.10671261529E+03 -0.22071161646E+02  0.11052794607E+03  0.41800000000E+01 0.  1.
        -11    1    4    4    0    0  0.29584382265E+02  0.17423485840E+02 -0.91609001410E+02  0.97831603647E+02  0.00000000000E+00 0.  1.
         11    1    4    4    0    0  0.35411839639E+02  0.63478757568E+02 -0.12937683942E+02  0.73830445717E+02  0.00000000000E+00 0. -1.
</event>
<event>
 8    1  0.7103328E-009  0.1585762E+03  0.7561462E-02  0.1190314E+00
         -1   -1    0    0    0  501 -0.00000000000E+00  0.00000000000E+00  0.10951185976E+03  0.10951185976E+03  0.00000000000E+00 0.  1.
          1   -1    0    0  501    0  0.00000000000E+00 -0.00000000000E+00 -0.27242514384E+03  0.27242514384E+03  0.00000000000E+00 0. -1.
         25    2    1    2    0    0  0.68478219059E+02 -0.11305354280E+03 -0.91677733165E+02  0.20376922798E+03  0.12508685578E+03 0.  0.
         23    2    1    2    0    0 -0.68478219059E+02  0.11305354280E+03 -0.71235550914E+02  0.17816777561E+03  0.95910805049E+02 0.  0.
          5    1    3    3  502    0  0.43339048228E+02 -0.13811256830E+03 -0.62903518116E+02  0.15788502024E+03  0.41800000000E+01 0. -1.
         -5    1    3    3    0  502  0.25139170832E+02  0.25059025497E+02 -0.28774215049E+02  0.45884207748E+02  0.41800000000E+01 0. -1.
        -11    1    4    4    0    0 -0.12048199719E+01  0.28601803486E+02 -0.63814834058E+02  0.69941745758E+02  0.00000000000E+00 0. -1.
         11    1    4    4    0    0 -0.67273399087E+02  0.84451739317E+02 -0.74207168564E+01  0.10822602985E+03  0.00000000000E+00 0.  1.
</event>
<event>
 8    1  0.7103328E-009  0.1038845E+03  0.7561462E-02  0.1272333E+00
         -4   -1    0    0    0  501 -0.00000000000E+00  0.00000000000E+00  0.49385438798E+03  0.49385438798E+03  0.00000000000E+00 0. -1.
          4   -1    0    0  501    0  0.00000000000E+00 -0.00000000000E+00 -0.28676075300E+02  0.28676075300E+02  0.00000000000E+00 0.  1.
         25    2    1    2    0    0  0.35634845431E+02  0.18764292827E+02  0.33105289390E+03  0.35618703183E+03  0.12510492471E+03 0.  0.
         23    2    1    2    0    0 -0.35634845431E+02 -0.18764292827E+02  0.13412541877E+03  0.16634343145E+03  0.89769528963E+02 0.  0.
          5    1    3    3  502    0  0.80136099769E+02  0.26081101951E+02  0.18637253118E+03  0.20458301773E+03  0.41800000000E+01 0. -1.
         -5    1    3    3    0  502 -0.44501254338E+02 -0.73168091239E+01  0.14468036272E+03  0.15160401409E+03  0.41800000000E+01 0. -1.
        -11    1    4    4    0    0 -0.44749349430E+02  0.11739449108E+02  0.24830093914E+02  0.52505737815E+02  0.00000000000E+00 0.  1.
         11    1    4    4    0    0  0.91145039987E+01 -0.30503741935E+02  0.10929532486E+03  0.11383769363E+03  0.00000000000E+00 0. -1.
</event>
<event>
 8    1  0.7103328E-009  0.1100800E+03  0.7561462E-02  0.1260422E+00
         -1   -1    0    0    0  501 -0.00000000000E+00  0.00000000000E+00  0.69234059913E+02  0.69234059913E+02  0.00000000000E+00 0.  1.
          1   -1    0    0  501    0  0.00000000000E+00 -0.00000000000E+00 -0.32520848464E+03  0.32520848464E+03  0.00000000000E+00 0. -1.
         25    2    1    2    0    0 -0.73377526593E+02  0.68556133945E+01 -0.23390767709E+03  0.27530236233E+03  0.12508928195E+03 0.  0.
         23    2    1    2    0    0  0.73377526593E+02 -0.68556133945E+01 -0.22066747636E+02  0.11914018222E+03  0.90973517160E+02 0.  0.
          5    1    3    3  502    0 -0.18138075536E+02 -0.55405302712E+02 -0.68204853202E+02  0.89822668370E+02  0.41800000000E+01 0.  1.
         -5    1    3    3    0  502 -0.55239451057E+02  0.62260916107E+02 -0.16570282388E+03  0.18547969396E+03  0.41800000000E+01 0.  1.
        -11    1    4    4    0    0  0.75045296737E+01 -0.99082433674E+01  0.31703604826E+02  0.34053044081E+02  0.00000000000E+00 0.  1.
         11    1    4    4    0    0  0.65872996919E+02  0.30526299729E+01 -0.53770352462E+02  0.85087138139E+02  0.00000000000E+00 0. -1.
</event>
<event>
 8    1  0.7103328E-009  0.1321941E+03  0.7561462E-02  0.1224236E+00
         -1   -1    0    0    0  501 -0.00000000000E+00  0.00000000000E+00  0.44153842894E+02  0.44153842894E+02  0.00000000000E+00 0.  1.
          1   -1    0    0  501    0  0.00000000000E+00 -0.00000000000E+00 -0.52501077875E+03  0.52501077875E+03  0.00000000000E+00 0. -1.
         25    2    1    2    0    0 -0.35296984892E+02 -0.89603556557E+02 -0.17576176527E+03  0.23625084106E+03  0.12509031649E+03 0.  0.
         23    2    1    2    0    0  0.35296984892E+02  0.89603556557E+02 -0.30509517059E+03  0.33291378059E+03  0.92053504555E+02 0.  0.
          5    1    3    3  502    0 -0.73262075369E+02 -0.16339286884E+02 -0.80299106959E+02  0.10999874073E+03  0.41800000000E+01 0.  1.
         -5    1    3    3    0  502  0.37965090477E+02 -0.73264269673E+02 -0.95462658311E+02  0.12625210033E+03  0.41800000000E+01 0.  1.
        -11    1    4    4    0    0  0.40701721015E+02  0.41310806239E+02 -0.26076908565E+03  0.26713990499E+03  0.00000000000E+00 0. -1.
         11    1    4    4    0    0 -0.54047361233E+01  0.48292750319E+02 -0.44326084936E+02  0.65773875601E+02  0.00000000000E+00 0.  1.
</event>
<event>
 8    1  0.7103328E-009  0.1039230E+03  0.7561462E-02  0.1272256E+00
         -2   -1    0    0    0  501 -0.00000000000E+00  0.00000000000E+00  0.23469641976E+02  0.23469641976E+02  0.00000000000E+00 0.  1.
          2   -1    0    0  501    0  0.00000000000E+00 -0.00000000000E+00 -0.53780063594E+03  0.53780063594E+03  0.00000000000E+00 0. -1.
         25    2    1    2    0    0  0.17658715085E+02 -0.50804296754E+01 -0.24670602808E+03  0.27721660861E+03  0.12509013876E+03 0.  0.
         23    2    1    2    0    0 -0.17658715085E+02  0.50804296754E+01 -0.26762496589E+03  0.28405366931E+03  0.93411582238E+02 0.  0.
          5    1    3    3  502    0 -0.60685161987E+01 -0.58514480880E+02 -0.17460380356E+03  0.18429523048E+03  0.41800000000E+01 0.  1.
         -5    1    3    3    0  502  0.23727231284E+02  0.53434051205E+02 -0.72102224520E+02  0.92921378129E+02  0.41800000000E+01 0.  1.
        -11    1    4    4    0    0  0.35281108629E+02  0.11070804219E+02 -0.67572591950E+02  0.77028400704E+02  0.00000000000E+00 0.  1.
         11    1    4    4    0    0 -0.52939823714E+02 -0.59903745434E+01 -0.20005237394E+03  0.20702526860E+03  0.00000000000E+00 0. -1.
</event>
<event>
 8    1  0.7103328E-009  0.1363937E+03  0.7561462E-02  0.1218266E+00
          1   -1    0    0  501    0  0.00000000000E+00  0.00000000000E+00  0.79537212298E+03  0.79537212298E+03  0.00000000000E+00 0. -1.
         -1   -1    0    0    0  501 -0.00000000000E+00 -0.00000000000E+00 -0.33164127199E+02  0.33164127199E+02  0.00000000000E+00 0.  1.
         25    2    1    2    0    0 -0.80099075037E+02 -0.60169937813E+02  0.57558614304E+03  0.59748058476E+03  0.12508939948E+03 0.  0.
         23    2    1    2    0    0  0.80099075037E+02  0.60169937813E+02  0.18662185274E+03  0.23105566542E+03  0.92318586242E+02 0.  0.
          5    1    3    3  502    0 -0.34698080826E+02  0.33550484517E+02  0.10719598413E+03  0.11763521257E+03  0.41800000000E+01 0. -1.
         -5    1    3    3    0  502 -0.45400994211E+02 -0.93720422330E+02  0.46839015891E+03  0.47984537218E+03  0.41800000000E+01 0. -1.
        -11    1    4    4    0    0  0.70611900255E+02  0.74683430770E+02  0.10246100947E+03  0.14512723298E+03  0.00000000000E+00 0.  1.
         11    1    4    4    0    0  0.94871747823E+01 -0.14513492957E+02  0.84160843270E+02  0.85928432449E+02  0.00000000000E+00 0. -1.
</event>
<event>
 8    1  0.7103328E-009  0.1112449E+03  0.7561462E-02  0.1258282E+00
          3   -1    0    0  501    0  0.00000000000E+00  0.00000000000E+00  0.18321815635E+03  0.18321815635E+03  0.00000000000E+00 0. -1.
         -3   -1    0    0    0  501 -0.00000000000E+00 -0.00000000000E+00 -0.11608670819E+03  0.11608670819E+03  0.00000000000E+00 0.  1.
         25    2    1    2    0    0 -0.43063344173E+01 -0.37887272546E+02  0.12949151461E+03  0.18403035880E+03  0.12508049675E+03 0.  0.
         23    2    1    2    0    0  0.43063344173E+01  0.37887272546E+02 -0.62360066439E+02  0.11527450575E+03  0.89137219227E+02 0.  0.
          5    1    3    3  502    0 -0.63319353672E+02 -0.27101202052E+02  0.54651217286E+02  0.88022972302E+02  0.41800000000E+01 0. -1.
         -5    1    3    3    0  502  0.59013019255E+02 -0.10786070495E+02  0.74840297320E+02  0.96007386493E+02  0.41800000000E+01 0. -1.
        -11    1    4    4    0    0  0.27149252633E+02 -0.18271319611E+02 -0.37440172887E+02  0.49726145886E+02  0.00000000000E+00 0.  1.
         11    1    4    4    0    0 -0.22842918215E+02  0.56158592157E+02 -0.24919893552E+02  0.65548359860E+02  0.00000000000E+00 0. -1.
</event>
<event>
 8    1  0.7103328E-009  0.6803593E+02  0.7561462E-02  0.1366902E+00
          1   -1    0    0  501    0  0.00000000000E+00  0.00000000000E+00  0.85115267476E+02  0.85115267476E+02  0.00000000000E+00 0. -1.
         -1   -1    0    0    0  501 -0.00000000000E+00 -0.00000000000E+00 -0.16400335942E+03  0.16400335942E+03  0.00000000000E+00 0.  1.
         25    2    1    2    0    0  0.28022500423E+02  0.87224718151E+01 -0.82361511279E+02  0.15261611719E+03  0.12508764384E+03 0.  0.
         23    2    1    2    0    0 -0.28022500423E+02 -0.87224718151E+01  0.34734193348E+01  0.96502509706E+02  0.91865813517E+02 0.  0.
          5    1    3    3  502    0  0.48221852354E+01  0.27766375810E+02 -0.10875748330E+03  0.11242725501E+03  0.41800000000E+01 0.  1.
         -5    1    3    3    0  502  0.23200315188E+02 -0.19043903994E+02  0.26395972021E+02  0.40188862177E+02  0.41800000000E+01 0.  1.
        -11    1    4    4    0    0 -0.16482269687E+02  0.31434848226E+02 -0.27160103048E+02  0.44693244396E+02  0.00000000000E+00 0.  1.
         11    1    4    4    0    0 -0.11540230737E+02 -0.40157320042E+02  0.30633522383E+02  0.51809265310E+02  0.00000000000E+00 0. -1.
</event>
<event>
 8    1  0.7103328E-009  0.2735231E+03  0.7561462E-02  0.1099280E+00
         -1   -1    0    0    0  501 -0.00000000000E+00  0.00000000000E+00  0.37214706944E+03  0.37214706944E+03  0.00000000000E+00 0.  1.
          1   -1    0    0  501    0  0.00000000000E+00 -0.00000000000E+00 -0.24812173521E+03  0.24812173521E+03  0.00000000000E+00 0. -1.
         25    2    1    2    0    0 -0.14469128994E+03  0.22751686978E+03  0.15317558104E+03  0.33437777808E+03  0.12508494885E+03 0.  0.
         23    2    1    2    0    0  0.14469128994E+03 -0.22751686978E+03 -0.29150246803E+02  0.28589102657E+03  0.90467932272E+02 0.  0.
          5    1    3    3  502    0 -0.30817064610E+02  0.11721232605E+02  0.68384557422E+02  0.76032880116E+02  0.41800000000E+01 0. -1.
         -5    1    3    3    0  502 -0.11387422533E+03  0.21579563717E+03  0.84791023617E+02  0.25834489796E+03  0.41800000000E+01 0. -1.
        -11    1    4    4    0    0  0.84373850883E+02 -0.12437228074E+03 -0.61053506689E+02  0.16221880781E+03  0.00000000000E+00 0. -1.
         11    1    4    4    0    0  0.60317439053E+02 -0.10314458904E+03  0.31903259886E+02  0.12367221876E+03  0.00000000000E+00 0.  1.
</event>
<event>
 8    1  0.7103328E-009  0.1094229E+03  0.7561462E-02  0.1261642E+00
          2   -1    0    0  501    0  0.00000000000E+00  0.00000000000E+00  0.21280758657E+03  0.21280758657E+03  0.00000000000E+00 0. -1.
         -2   -1    0    0    0  501 -0.00000000000E+00 -0.00000000000E+00 -0.16618295083E+03  0.16618295083E+03  0.00000000000E+00 0.  1.
         25    2    1    2    0    0 -0.86673583501E+02  0.26554337688E+01  0.15172028189E+03  0.21491831315E+03  0.12510585912E+03 0.  0.
         23    2    1    2    0    0  0.86673583501E+02 -0.26554337688E+01 -0.10509564615E+03  0.16407222424E+03  0.91406993842E+02 0.  0.
          5    1    3    3  502    0 -0.85346861746E+00  0.21716178345E+02 -0.14762921706E+02  0.26603328136E+02  0.41800000000E+01 0.  1.
         -5    1    3    3    0  502 -0.85820114884E+02 -0.19060744576E+02  0.16648320360E+03  0.18831498502E+03  0.41800000000E+01 0.  1.
        -11    1    4    4    0    0  0.11183978347E+02 -0.27130823189E+02  0.35181870717E+01  0.29555719901E+02  0.00000000000E+00 0. -1.
         11    1    4    4    0    0  0.75489605154E+02  0.24475389420E+02 -0.10861383322E+03  0.13451650434E+03  0.00000000000E+00 0.  1.
</event>
<event>
 8    1  0.7103328E-009  0.1205181E+03  0.7561462E-02  0.1242245E+00
          2   -1    0    0  501    0  0.00000000000E+00  0.00000000000E+00  0.19550044546E+04  0.19550044546E+04  0.00000000000E+00 0. -1.
         -2   -1    0    0    0  501 -0.00000000000E+00 -0.00000000000E+00 -0.11507017757E+02  0.11507017757E+02  0.00000000000E+00 0.  1.
         25    2    1    2    0    0 -0.28124814627E+02 -0.52057727308E+02  0.16172257074E+04  0.16231351676E+04  0.12509105304E+03 0.  0.
         23    2    1    2    0    0  0.28124814627E+02  0.52057727308E+02  0.32627172943E+03  0.34337630472E+03  0.89179779340E+02 0.  0.
          5    1    3    3  502    0 -0.76564468382E+02 -0.39219932660E+02  0.11467519164E+04  0.11499816308E+04  0.41800000000E+01 0. -1.
         -5    1    3    3    0  502  0.48439653754E+02 -0.12837794648E+02  0.47047379097E+03  0.47315353684E+03  0.41800000000E+01 0. -1.
        -11    1    4    4    0    0 -0.15653526694E+02  0.58333841416E+02  0.15149296312E+03  0.16308889548E+03  0.00000000000E+00 0.  1.
         11    1    4    4    0    0  0.43778341321E+02 -0.62761141082E+01  0.17477876631E+03  0.18028740924E+03  0.00000000000E+00 0. -1.
</event>
<event>
 8    1  0.7103328E-009  0.7924023E+02  0.7561462E-02  0.1331221E+00
         -1   -1    0    0    0  501 -0.00000000000E+00  0.00000000000E+00  0.37149198447E+03  0.37149198447E+03  0.00000000000E+00 0.  1.
          1   -1    0    0  501    0  0.00000000000E+00 -0.00000000000E+00 -0.33201045686E+02  0.33201045686E+02  0.00000000000E+00 0. -1.
         25    2    1    2    0    0  0.10559956206E+02  0.27054311603E+02  0.18882455918E+03  0.22835394692E+03  0.12508941790E+03 0.  0.
         23    2    1    2    0    0 -0.10559956206E+02 -0.27054311603E+02  0.14946637960E+03  0.17633908324E+03  0.88948441213E+02 0.  0.
          5    1    3    3  502    0  0.24649671279E+02  0.38866124207E+02  0.84288189987E+01  0.46975518036E+02  0.41800000000E+01 0.  1.
         -5    1    3    3    0  502 -0.14089715072E+02 -0.11811812604E+02  0.18039574018E+03  0.18137842888E+03  0.41800000000E+01 0.  1.
        -11    1    4    4    0    0 -0.49339999893E+02 -0.72556836546E+01  0.84878292426E+02  0.98444934150E+02  0.00000000000E+00 0. -1.
         11    1    4    4    0    0  0.38780043686E+02 -0.19798627948E+02  0.64588087176E+02  0.77894149087E+02  0.00000000000E+00 0.  1.
</event>
<event>
 8    1  0.7103328E-009  0.1113627E+03  0.7561462E-02  0.1258067E+00
          2   -1    0    0  501    0  0.00000000000E+00  0.00000000000E+00  0.27007945047E+03  0.27007945047E+03  0.00000000000E+00 0. -1.
         -2   -1    0    0    0  501 -0.00000000000E+00 -0.00000000000E+00 -0.52415660338E+02  0.52415660338E+02  0.00000000000E+00 0.  1.
         25    2    1    2    0    0  0.34418760153E+02 -0.10366901306E+02  0.16150817828E+03  0.20742170760E+03  0.12508696750E+03 0.  0.
         23    2    1    2    0    0 -0.34418760153E+02  0.10366901306E+02  0.56155611847E+02  0.11507340321E+03  0.93788654380E+02 0.  0.
          5    1    3    3  502    0 -0.51057304838E+01  0.49841873248E+02  0.10269802974E+03  0.11434438563E+03  0.41800000000E+01 0. -1.
         -5    1    3    3    0  502  0.39524490636E+02 -0.60208774553E+02  0.58810148539E+02  0.93077321966E+02  0.41800000000E+01 0. -1.
        -11    1    4    4    0    0  0.10198599289E+02  0.43532332136E+02  0.28021030353E+02  0.52766026103E+02  0.00000000000E+00 0. -1.
         11    1    4    4    0    0 -0.44617359441E+02 -0.33165430830E+02  0.28134581494E+02  0.62307377103E+02  0.00000000000E+00 0.  1.
</event>
<event>
 8    1  0.7103328E-009  0.9419317E+02  0.7561462E-02  0.1293004E+00
          1   -1    0    0  501    0  0.00000000000E+00  0.00000000000E+00  0.38170836317E+03  0.38170836317E+03  0.00000000000E+00 0. -1.
         -1   -1    0    0    0  501 -0.00000000000E+00 -0.00000000000E+00 -0.37484652730E+02  0.37484652730E+02  0.00000000000E+00 0.  1.
         25    2    1    2    0    0 -0.22926200875E+02  0.22808602646E+02  0.25149752099E+03  0.28274188125E+03  0.12508447268E+03 0.  0.
         23    2    1    2    0    0  0.22926200875E+02 -0.22808602646E+02  0.92726189448E+02  0.13645113465E+03  0.94736069670E+02 0.  0.
          5    1    3    3  502    0 -0.73159950792E+02  0.80664122090E+01  0.17557671201E+03  0.19042610011E+03  0.41800000000E+01 0. -1.
         -5    1    3    3    0  502  0.50233749916E+02  0.14742190437E+02  0.75920808987E+02  0.92315781136E+02  0.41800000000E+01 0. -1.
        -11    1    4    4    0    0  0.40135682070E+02 -0.19495601182E+02  0.26639052029E+01  0.44699528315E+02  0.00000000000E+00 0.  1.
         11    1    4    4    0    0 -0.17209481194E+02 -0.33130014643E+01  0.90062284245E+02  0.91751606335E+02  0.00000000000E+00 0. -1.
</event>
<event>
 8    1  0.7103328E-009  0.1196595E+03  0.7561462E-02  0.1243660E+00
         -2   -1    0    0    0  501 -0.00000000000E+00  0.00000000000E+00  0.21203808159E+03  0.21203808159E+03  0.00000000000E+00 0.  1.
          2   -1    0    0  501    0  0.00000000000E+00 -0.00000000000E+00 -0.75401121437E+02  0.75401121437E+02  0.00000000000E+00 0. -1.
         25    2    1    2    0    0  0.40960958846E+02  0.35291729530E+02  0.34296696217E+02  0.14052106560E+03  0.12508637089E+03 0.  0.
         23    2    1    2    0    0 -0.40960958846E+02 -0.35291729530E+02  0.10234026393E+03  0.14691813743E+03  0.90488138232E+02 0.  0.
          5    1    3    3  502    0 -0.10031959827E+02 -0.41038961233E+02  0.46199675997E-01  0.42453634609E+02  0.41800000000E+01 0. -1.
         -5    1    3    3    0  502  0.50992918672E+02  0.76330690764E+02  0.34250496541E+02  0.98067430987E+02  0.41800000000E+01 0. -1.
        -11    1    4    4    0    0 -0.26879317902E+02  0.28775614286E+02  0.32021180747E+02  0.50753223788E+02  0.00000000000E+00 0. -1.
         11    1    4    4    0    0 -0.14081640944E+02 -0.64067343817E+02  0.70319083187E+02  0.96164913641E+02  0.00000000000E+00 0.  1.
</event>
<event>
 8    1  0.7103328E-009  0.6400093E+02  0.7561462E-02  0.1381769E+00
         -2   -1    0    0    0  501 -0.00000000000E+00  0.00000000000E+00  0.42506129122E+02  0.42506129122E+02  0.00000000000E+00 0.  1.
          2   -1    0    0  501    0  0.00000000000E+00 -0.00000000000E+00 -0.34166000581E+03  0.34166000581E+03  0.00000000000E+00 0. -1.
         25    2    1    2    0    0 -0.25761437800E+02 -0.40971576875E+02 -0.14125879330E+03  0.19478434621E+03  0.12507826771E+03 0.  0.
         23    2    1    2    0    0  0.25761437800E+02  0.40971576875E+02 -0.15789508339E+03  0.18938178873E+03  0.92694567016E+02 0.  0.
          5    1    3    3  502    0 -0.13774739414E+02 -0.41676476379E+02 -0.16340427275E+03  0.16924863628E+03  0.41800000000E+01 0.  1.
         -5    1    3    3    0  502 -0.11986698386E+02  0.70489950388E+00  0.22145479449E+02  0.25535709928E+02  0.41800000000E+01 0.  1.
        -11    1    4    4    0    0 -0.42093026204E+00 -0.12052165665E+02  0.71792961024E+01  0.14034748734E+02  0.00000000000E+00 0.  1.
         11    1    4    4    0    0  0.26182368062E+02  0.53023742540E+02 -0.16507437949E+03  0.17534703999E+03  0.00000000000E+00 0. -1.
</event>
<event>
 8    1  0.7103328E-009  0.4345134E+03  0.7561462E-02  0.1032444E+00
         -2   -1    0    0    0  501 -0.00000000000E+00  0.00000000000E+00  0.66364838975E+03  0.66364838975E+03  0.00000000000E+00 0.  1.
          2   -1    0    0  501    0  0.00000000000E+00 -0.00000000000E+00 -0.55585152920E+03  0.55585152920E+03  0.00000000000E+00 0. -1.
         25    2    1    2    0    0 -0.12848384103E+03 -0.40272047047E+03 -0.36970508321E+03  0.57534537253E+03  0.12509426206E+03 0.  0.
         23    2    1    2    0    0  0.12848384103E+03  0.40272047047E+03  0.47750194377E+03  0.64415454642E+03  0.90747444244E+02 0.  0.
          5    1    3    3  502    0 -0.11545253850E+03 -0.40873964808E+03 -0.36385861783E+03  0.55929236963E+03  0.41800000000E+01 0.  1.
         -5    1    3    3    0  502 -0.13031302530E+02  0.60191776099E+01 -0.58464653827E+01  0.16053002902E+02  0.41800000000E+01 0.  1.
        -11    1    4    4    0    0  0.11129366465E+03  0.22751842349E+03  0.31853644042E+03  0.40695992026E+03  0.00000000000E+00 0.  1.
         11    1    4    4    0    0  0.17190176378E+02  0.17520204697E+03  0.15896550335E+03  0.23719462617E+03  0.00000000000E+00 0. -1.
</event>
<event>
 8    1  0.7103328E-009  0.6680964E+02  0.7561462E-02  0.1371291E+00
         -1   -1    0    0    0  501 -0.00000000000E+00  0.00000000000E+00  0.72675743137E+02  0.72675743137E+02  0.00000000000E+00 0.  1.
          1   -1    0    0  501    0  0.00000000000E+00 -0.00000000000E+00 -0.17738323927E+03  0.17738323927E+03  0.00000000000E+00 0. -1.
         25    2    1    2    0    0 -0.21647436024E+02  0.22535407306E+02 -0.72971919036E+02  0.14814918140E+03  0.12508726119E+03 0.  0.
         23    2    1    2    0    0  0.21647436024E+02 -0.22535407306E+02 -0.31735577095E+02  0.10190980101E+03  0.91662449339E+02 0.  0.
          5    1    3    3  502    0  0.54372089418E+01  0.49965490810E+02  0.14492840517E+02  0.52475025862E+02  0.41800000000E+01 0. -1.
         -5    1    3    3    0  502 -0.27084644966E+02 -0.27430083504E+02 -0.87464759552E+02  0.95674155536E+02  0.41800000000E+01 0. -1.
        -11    1    4    4    0    0  0.18870165761E+02  0.26653794348E+01 -0.60579929205E+02  0.63506812436E+02  0.00000000000E+00 0. -1.
         11    1    4    4    0    0  0.27772702630E+01 -0.25200786741E+02  0.28844352110E+02  0.38402988570E+02  0.00000000000E+00 0.  1.
</event>
<event>
 8    1  0.7103328E-009  0.8309335E+02  0.7561462E-02  0.1320495E+00
         -2   -1    0    0    0  501 -0.00000000000E+00  0.00000000000E+00  0.12992733850E+03  0.12992733850E+03  0.00000000000E+00 0. -1.
          2   -1    0    0  501    0  0.00000000000E+00 -0.00000000000E+00 -0.15120739553E+03  0.15120739553E+03  0.00000000000E+00 0.  1.
         25    2    1    2    0    0  0.75257430726E+01  0.82100639639E+02  0.25719117720E+02  0.15200738946E+03  0.12509045366E+03 0.  0.
         23    2    1    2    0    0 -0.75257430726E+01 -0.82100639639E+02 -0.46999174757E+02  0.12912734456E+03  0.87565957131E+02 0.  0.
          5    1    3    3  502    0  0.39709929271E+01  0.68623914497E+02  0.74292796322E+02  0.10130104842E+03  0.41800000000E+01 0. -1.
         -5    1    3    3    0  502  0.35547501455E+01  0.13476725142E+02 -0.48573678602E+02  0.50706341044E+02  0.41800000000E+01 0. -1.
        -11    1    4    4    0    0  0.34982312998E+00 -0.35987807814E+02  0.24604823861E+02  0.43596353571E+02  0.00000000000E+00 0. -1.
         11    1    4    4    0    0 -0.78755662026E+01 -0.46112831825E+02 -0.71603998619E+02  0.85530990993E+02  0.00000000000E+00 0.  1.
</event>
<event>
 8    1  0.7103328E-009  0.1355069E+03  0.7561462E-02  0.1219506E+00
          1   -1    0    0  501    0  0.00000000000E+00  0.00000000000E+00  0.21787150377E+02  0.21787150377E+02  0.00000000000E+00 0. -1.
         -1   -1    0    0    0  501 -0.00000000000E+00 -0.00000000000E+00 -0.17798017140E+04  0.17798017140E+04  0.00000000000E+00 0.  1.
         25    2    1    2    0    0  0.12524343910E+03  0.25304248025E+02 -0.13843143158E+04  0.13958153379E+04  0.12509240017E+03 0.  0.
         23    2    1    2    0    0 -0.12524343910E+03 -0.25304248025E+02 -0.37370024786E+03  0.40577352651E+03  0.93134609917E+02 0.  0.
          5    1    3    3  502    0  0.11663031938E+03  0.34473961369E+02 -0.13730130408E+04  0.13783952147E+04  0.41800000000E+01 0. -1.
         -5    1    3    3    0  502  0.86131197139E+01 -0.91697133436E+01 -0.11301274980E+02  0.17420123139E+02  0.41800000000E+01 0. -1.
        -11    1    4    4    0    0 -0.69447070808E+02 -0.37540613026E+02 -0.10668925844E+03  0.13272072610E+03  0.00000000000E+00 0. -1.
         11    1    4    4    0    0 -0.55796368290E+02  0.12236365001E+02 -0.26701098942E+03  0.27305280041E+03  0.00000000000E+00 0.  1.
</event>
<event>
 8    1  0.7103328E-009  0.7178333E+02  0.7561462E-02  0.1354132E+00
          1   -1    0    0  501    0  0.00000000000E+00  0.00000000000E+00  0.41819692051E+03  0.41819692051E+03  0.00000000000E+00 0. -1.
         -1   -1    0    0    0  501 -0.00000000000E+00 -0.00000000000E+00 -0.37274905652E+02  0.37274905652E+02  0.00000000000E+00 0.  1.
         25    2    1    2    0    0  0.85778209957E+01  0.23504624158E+01  0.32310033970E+03  0.34658395178E+03  0.12508997734E+03 0.  0.
         23    2    1    2    0    0 -0.85778209957E+01 -0.23504624158E+01  0.57821675160E+02  0.10888787438E+03  0.91837461760E+02 0.  0.
          5    1    3    3  502    0 -0.22495706307E+02  0.46122148312E+02  0.64963836200E+02  0.82891988641E+02  0.41800000000E+01 0. -1.
         -5    1    3    3    0  502  0.31073527302E+02 -0.43771685896E+02  0.25813650350E+03  0.26369196314E+03  0.41800000000E+01 0. -1.
        -11    1    4    4    0    0  0.92864383514E+01  0.12106097326E+02  0.77282332683E+02  0.78774072350E+02  0.00000000000E+00 0. -1.
         11    1    4    4    0    0 -0.17864259347E+02 -0.14456559741E+02 -0.19460657523E+02  0.30113802032E+02  0.00000000000E+00 0.  1.
</event>
<event>
 8    1  0.7103328E-009  0.1434631E+03  0.7561462E-02  0.1208744E+00
         -3   -1    0    0    0  501 -0.00000000000E+00  0.00000000000E+00  0.28372781371E+03  0.28372781371E+03  0.00000000000E+00 0.  1.
          3   -1    0    0  501    0  0.00000000000E+00 -0.00000000000E+00 -0.88237347964E+02  0.88237347964E+02  0.00000000000E+00 0. -1.
         25    2    1    2    0    0 -0.10043642038E+03  0.40374901862E+02  0.15296049454E+03  0.22530287585E+03  0.12508743238E+03 0.  0.
         23    2    1    2    0    0  0.10043642038E+03 -0.40374901862E+02  0.42529971208E+02  0.14666228582E+03  0.89349988212E+02 0.  0.
          5    1    3    3  502    0 -0.70756162261E+02  0.81136160649E+02  0.71144684923E+02  0.12910673745E+03  0.41800000000E+01 0. -1.
         -5    1    3    3    0  502 -0.29680258116E+02 -0.40761258787E+02  0.81815809613E+02  0.96196138396E+02  0.41800000000E+01 0. -1.
        -11    1    4    4    0    0 -0.85199969554E+00 -0.26323160955E+02  0.35445076624E+02  0.44158670304E+02  0.00000000000E+00 0.  1.
         11    1    4    4    0    0  0.10128842007E+03 -0.14051740907E+02  0.70848945835E+01  0.10250361552E+03  0.00000000000E+00 0. -1.
</event>
<event>
 8    1  0.7103328E-009  0.7990293E+02  0.7561462E-02  0.1329327E+00
          1   -1    0    0  501    0  0.00000000000E+00  0.00000000000E+00  0.99639576614E+02  0.99639576614E+02  0.00000000000E+00 0. -1.
         -1   -1    0    0    0  501 -0.00000000000E+00 -0.00000000000E+00 -0.14010789270E+03  0.14010789270E+03  0.00000000000E+00 0.  1.
         25    2    1    2    0    0 -0.34310530971E+02 -0.59849253262E+01 -0.21308373284E+02  0.13158761863E+03  0.12509285647E+03 0.  0.
         23    2    1    2    0    0  0.34310530971E+02  0.59849253262E+01 -0.19159942805E+02  0.10815985068E+03  0.10059034757E+03 0.  0.
          5    1    3    3  502    0  0.22326981366E+02 -0.85716265237E+01 -0.58713623372E+02  0.63535256729E+02  0.41800000000E+01 0. -1.
         -5    1    3    3    0  502 -0.56637512337E+02  0.25867011975E+01  0.37405250087E+02  0.68052361906E+02  0.41800000000E+01 0. -1.
        -11    1    4    4    0    0  0.76417272219E+01  0.36995330322E+02 -0.45784239597E+02  0.59356946148E+02  0.00000000000E+00 0.  1.
         11    1    4    4    0    0  0.26668803749E+02 -0.31010404995E+02  0.26624296792E+02  0.48802904535E+02  0.00000000000E+00 0. -1.
</event>
<event>
 8    1  0.7103328E-009  0.1106110E+03  0.7561462E-02  0.1259443E+00
          2   -1    0    0  501    0  0.00000000000E+00  0.00000000000E+00  0.59611099342E+03  0.59611099342E+03  0.00000000000E+00 0. -1.
         -2   -1    0    0    0  501 -0.00000000000E+00 -0.00000000000E+00 -0.28230234089E+02  0.28230234089E+02  0.00000000000E+00 0.  1.
         25    2    1    2    0    0  0.14672785984E+02 -0.55360823191E+02  0.21040989475E+03  0.25139452836E+03  0.12508706443E+03 0.  0.
         23    2    1    2    0    0 -0.14672785984E+02  0.55360823191E+02  0.35747086458E+03  0.37294669915E+03  0.89575163903E+02 0.  0.
          5    1    3    3  502    0 -0.16040185204E+02 -0.81400648669E+02  0.81884343376E+02  0.11664420789E+03  0.41800000000E+01 0.  1.
         -5    1    3    3    0  502  0.30712971188E+02  0.26039825478E+02  0.12852555137E+03  0.13475032047E+03  0.41800000000E+01 0.  1.
        -11    1    4    4    0    0 -0.46433124938E+02  0.21262547462E+02  0.11202708121E+03  0.12311863361E+03  0.00000000000E+00 0. -1.
         11    1    4    4    0    0  0.31760338954E+02  0.34098275729E+02  0.24544378337E+03  0.24982806554E+03  0.00000000000E+00 0.  1.
</event>
<event>
 8    1  0.7103328E-009  0.9915412E+02  0.7561462E-02  0.1282085E+00
          1   -1    0    0  501    0  0.00000000000E+00  0.00000000000E+00  0.10441735012E+02  0.10441735012E+02  0.00000000000E+00 0. -1.
         -1   -1    0    0    0  501 -0.00000000000E+00 -0.00000000000E+00 -0.13084610728E+04  0.13084610728E+04  0.00000000000E+00 0.  1.
         25    2    1    2    0    0 -0.10487499608E+02  0.38038114932E+02 -0.82646976677E+03  0.83681315151E+03  0.12508832606E+03 0.  0.
         23    2    1    2    0    0  0.10487499608E+02 -0.38038114932E+02 -0.47154957098E+03  0.48208965627E+03  0.92165899071E+02 0.  0.
          5    1    3    3  502    0 -0.40059156289E+01  0.67470530880E+02 -0.76726620909E+03  0.77024880909E+03  0.41800000000E+01 0.  1.
         -5    1    3    3    0  502 -0.64815839787E+01 -0.29432415948E+02 -0.59203557687E+02  0.66564342423E+02  0.41800000000E+01 0.  1.
        -11    1    4    4    0    0 -0.27860988881E+02  0.17330745074E+02 -0.16437835517E+03  0.16762109973E+03  0.00000000000E+00 0. -1.
         11    1    4    4    0    0  0.38348488489E+02 -0.55368860006E+02 -0.30717121581E+03  0.31446855654E+03  0.00000000000E+00 0.  1.
</event>
<event>
 8    1  0.7103328E-009  0.1264659E+03  0.7561462E-02  0.1232796E+00
          1   -1    0    0  501    0  0.00000000000E+00  0.00000000000E+00  0.47300771659E+02  0.47300771659E+02  0.00000000000E+00 0. -1.
         -1   -1    0    0    0  501 -0.00000000000E+00 -0.00000000000E+00 -0.42158568352E+03  0.42158568352E+03  0.00000000000E+00 0.  1.
         25    2    1    2    0    0  0.81547640532E+02  0.42382387578E+01 -0.14046431924E+03  0.20504795210E+03  0.12508579991E+03 0.  0.
         23    2    1    2    0    0 -0.81547640532E+02 -0.42382387578E+01 -0.23382059262E+03  0.26383850307E+03  0.90943421026E+02 0.  0.
          5    1    3    3  502    0  0.91899105113E+02  0.34765929116E+02 -0.14174226653E+03  0.17251799289E+03  0.41800000000E+01 0. -1.
         -5    1    3    3    0  502 -0.10351464581E+02 -0.30527690358E+02  0.12779472888E+01  0.32529959219E+02  0.41800000000E+01 0. -1.
        -11    1    4    4    0    0  0.74206534545E+01  0.26836657544E+02 -0.58795458664E+02  0.65055193838E+02  0.00000000000E+00 0. -1.
         11    1    4    4    0    0 -0.88968293987E+02 -0.31074896302E+02 -0.17502513395E+03  0.19878330924E+03  0.00000000000E+00 0.  1.
</event>
<event>
 8    1  0.7103328E-009  0.1417964E+03  0.7561462E-02  0.1210932E+00
         -1   -1    0    0    0  501 -0.00000000000E+00  0.00000000000E+00  0.11110062826E+03  0.11110062826E+03  0.00000000000E+00 0.  1.
          1   -1    0    0  501    0  0.00000000000E+00 -0.00000000000E+00 -0.50576831954E+03  0.50576831954E+03  0.00000000000E+00 0. -1.
         25    2    1    2    0    0 -0.30309663263E+02  0.10683196723E+03 -0.43665601258E+03  0.46759800414E+03  0.12509066811E+03 0.  0.
         23    2    1    2    0    0  0.30309663263E+02 -0.10683196723E+03  0.41988321298E+02  0.14927094366E+03  0.90482321959E+02 0.  0.
          5    1    3    3  502    0 -0.56068362804E+02  0.15106778839E+02 -0.26412357212E+03  0.27046369409E+03  0.41800000000E+01 0. -1.
         -5    1    3    3    0  502  0.25758699541E+02  0.91725188391E+02 -0.17253244046E+03  0.19713431005E+03  0.41800000000E+01 0. -1.
        -11    1    4    4    0    0  0.45153562143E+02 -0.10591406122E+03  0.11954297280E+02  0.11575637244E+03  0.00000000000E+00 0. -1.
         11    1    4    4    0    0 -0.14843898880E+02 -0.91790601379E+00  0.30034024018E+02  0.33514571221E+02  0.00000000000E+00 0.  1.
</event>
<event>
 8    1  0.7103328E-009  0.8439283E+02  0.7561462E-02  0.1317028E+00
         -2   -1    0    0    0  501 -0.00000000000E+00  0.00000000000E+00  0.30076227274E+02  0.30076227274E+02  0.00000000000E+00 0. -1.
          2   -1    0    0  501    0  0.00000000000E+00 -0.00000000000E+00 -0.43048037898E+03  0.43048037898E+03  0.00000000000E+00 0.  1.
         25    2    1    2    0    0  0.34319230254E+02 -0.90312107345E+01 -0.19952523713E+03  0.23815598668E+03  0.12509429007E+03 0.  0.
         23    2    1    2    0    0 -0.34319230254E+02  0.90312107345E+01 -0.20087891457E+03  0.22240061957E+03  0.88602059413E+02 0.  0.
          5    1    3    3  502    0  0.61421821403E+02 -0.35228459536E+02 -0.18395995784E+03  0.19716090635E+03  0.41800000000E+01 0. -1.
         -5    1    3    3    0  502 -0.27102591149E+02  0.26197248801E+02 -0.15565279291E+02  0.40995080329E+02  0.41800000000E+01 0. -1.
        -11    1    4    4    0    0  0.11545185253E+02  0.80142365616E+01  0.21815793639E+01  0.14222467392E+02  0.00000000000E+00 0. -1.
         11    1    4    4    0    0 -0.45864415506E+02  0.10169741729E+01 -0.20306049394E+03  0.20817815218E+03  0.00000000000E+00 0.  1.
</event>
<event>
 8    1  0.7103328E-009  0.1244536E+03  0.7561462E-02  0.1235926E+00
          2   -1    0    0  501    0  0.00000000000E+00  0.00000000000E+00  0.56053484376E+03  0.56053484376E+03  0.00000000000E+00 0. -1.
         -2   -1    0    0    0  501 -0.00000000000E+00 -0.00000000000E+00 -0.57796218207E+02  0.57796218207E+02  0.00000000000E+00 0.  1.
         25    2    1    2    0    0  0.74166468346E+02  0.48146019095E+02  0.45973211357E+03  0.48458303105E+03  0.12509353922E+03 0.  0.
         23    2    1    2    0    0 -0.74166468346E+02 -0.48146019095E+02  0.43006511985E+02  0.13374803092E+03  0.90665713032E+02 0.  0.
          5    1    3    3  502    0  0.53756634717E+01 -0.39889531832E+02  0.14693275547E+03  0.15240334490E+03  0.41800000000E+01 0.  1.
         -5    1    3    3    0  502  0.68790804874E+02  0.88035550927E+02  0.31279935810E+03  0.33217968615E+03  0.41800000000E+01 0.  1.
        -11    1    4    4    0    0 -0.45495582215E+01 -0.21691848557E+02  0.54089322589E+02  0.58454166592E+02  0.00000000000E+00 0. -1.
         11    1    4    4    0    0 -0.69616910124E+02 -0.26454170537E+02 -0.11082810604E+02  0.75293864325E+02  0.00000000000E+00 0.  1.
</event>
<event>
 8    1  0.7103328E-009  0.1054666E+03  0.7561462E-02  0.1269203E+00
         -2   -1    0    0    0  501 -0.00000000000E+00  0.00000000000E+00  0.11702884604E+03  0.11702884604E+03  0.00000000000E+00 0.  1.
          2   -1    0    0  501    0  0.00000000000E+00 -0.00000000000E+00 -0.19494076830E+03  0.19494076830E+03  0.00000000000E+00 0. -1.
         25    2    1    2    0    0  0.19477556023E+02 -0.96070727453E+02 -0.77140021543E+02  0.17665434570E+03  0.12508882871E+03 0.  0.
         23    2    1    2    0    0 -0.19477556023E+02  0.96070727453E+02 -0.77190071727E+00  0.13531526864E+03  0.93277361850E+02 0.  0.
          5    1    3    3  502    0  0.20254929497E+02 -0.50078735158E+02  0.28600253922E+02  0.61266539060E+02  0.41800000000E+01 0. -1.
         -5    1    3    3    0  502 -0.77737347472E+00 -0.45991992295E+02 -0.10574027547E+03  0.11538780664E+03  0.41800000000E+01 0. -1.
        -11    1    4    4    0    0  0.45743980643E+01  0.83121854852E+02 -0.36032968229E+02  0.90711315011E+02  0.00000000000E+00 0. -1.
         11    1    4    4    0    0 -0.24051954087E+02  0.12948872601E+02  0.35261067511E+02  0.44603953626E+02  0.00000000000E+00 0.  1.
</event>
<event>
 8    1  0.7103328E-009  0.2053672E+03  0.7561462E-02  0.1145288E+00
         -1   -1    0    0    0  501 -0.00000000000E+00  0.00000000000E+00  0.60883124859E+02  0.60883124859E+02  0.00000000000E+00 0.  1.
          1   -1    0    0  501    0  0.00000000000E+00 -0.00000000000E+00 -0.85304224399E+03  0.85304224399E+03  0.00000000000E+00 0. -1.
         25    2    1    2    0    0 -0.13053015924E+03  0.14833267060E+03 -0.34587619104E+03  0.41751484409E+03  0.12509037481E+03 0.  0.
         23    2    1    2    0    0  0.13053015924E+03 -0.14833267060E+03 -0.44628292809E+03  0.49641052475E+03  0.90632519217E+02 0.  0.
          5    1    3    3  502    0 -0.28479548434E+02  0.27755342285E+02 -0.19491496157E+03  0.19897426554E+03  0.41800000000E+01 0. -1.
         -5    1    3    3    0  502 -0.10205061081E+03  0.12057732832E+03 -0.15096122947E+03  0.21854057855E+03  0.41800000000E+01 0. -1.
        -11    1    4    4    0    0  0.11009528147E+03 -0.67029865482E+02 -0.21842665184E+03  0.25362211280E+03  0.00000000000E+00 0. -1.
         11    1    4    4    0    0  0.20434877773E+02 -0.81302805122E+02 -0.22785627625E+03  0.24278841195E+03  0.00000000000E+00 0.  1.
</event>
<event>
 8    1  0.7103328E-009  0.9630910E+02  0.7561462E-02  0.1288255E+00
         -1   -1    0    0    0  501 -0.00000000000E+00  0.00000000000E+00  0.15953907636E+02  0.15953907636E+02  0.00000000000E+00 0.  1.
          1   -1    0    0  501    0  0.00000000000E+00 -0.00000000000E+00 -0.90148156194E+03  0.90148156194E+03  0.00000000000E+00 0. -1.
         25    2    1    2    0    0  0.51422830431E+02 -0.70239656417E+01 -0.49341104194E+03  0.51165972744E+03  0.12509027455E+03 0.  0.
         23    2    1    2    0    0 -0.51422830431E+02  0.70239656417E+01 -0.39211661236E+03  0.40577574214E+03  0.90580746494E+02 0.  0.
          5    1    3    3  502    0 -0.18274374471E+02  0.15969137299E+02 -0.17760894052E+02  0.30362606375E+02  0.41800000000E+01 0.  1.
         -5    1    3    3    0  502  0.69697204902E+02 -0.22993102941E+02 -0.47565014789E+03  0.48129712106E+03  0.41800000000E+01 0.  1.
        -11    1    4    4    0    0 -0.39628527699E+02 -0.33739497328E+02 -0.29832498746E+03  0.30283092978E+03  0.00000000000E+00 0. -1.
         11    1    4    4    0    0 -0.11794302732E+02  0.40763462969E+02 -0.93791624900E+02  0.10294481236E+03  0.00000000000E+00 0.  1.
</event>
<event>
 8    1  0.7103328E-009  0.1626971E+03  0.7561462E-02  0.1185685E+00
          1   -1    0    0  501    0  0.00000000000E+00  0.00000000000E+00  0.40669120314E+03  0.40669120314E+03  0.00000000000E+00 0. -1.
         -1   -1    0    0    0  501 -0.00000000000E+00 -0.00000000000E+00 -0.69584761428E+02  0.69584761428E+02  0.00000000000E+00 0.  1.
         25    2    1    2    0    0  0.12179591978E+03  0.40018806616E+02  0.18100242514E+03  0.25464641662E+03  0.12508864309E+03 0.  0.
         23    2    1    2    0    0 -0.12179591978E+03 -0.40018806616E+02  0.15610401656E+03  0.22162954795E+03  0.91189043072E+02 0.  0.
          5    1    3    3  502    0  0.14303762550E+03  0.35281224972E+02  0.12102842536E+03  0.19070888623E+03  0.41800000000E+01 0. -1.
         -5    1    3    3    0  502 -0.21241705713E+02  0.47375816441E+01  0.59973999785E+02  0.63937530385E+02  0.41800000000E+01 0. -1.
        -11    1    4    4    0    0 -0.95583085939E+01 -0.42522350697E+02  0.30671764032E+02  0.53294171171E+02  0.00000000000E+00 0.  1.
         11    1    4    4    0    0 -0.11223761119E+03  0.25035440811E+01  0.12543225253E+03  0.16833537678E+03  0.00000000000E+00 0. -1.
</event>
<event>
 8    1  0.7103328E-009  0.8840744E+02  0.7561462E-02  0.1306755E+00
          2   -1    0    0  501    0  0.00000000000E+00  0.00000000000E+00  0.52770436237E+03  0.52770436237E+03  0.00000000000E+00 0.  1.
         -2   -1    0    0    0  501 -0.00000000000E+00 -0.00000000000E+00 -0.29262209074E+02  0.29262209074E+02  0.00000000000E+00 0. -1.
         25    2    1    2    0    0  0.34118364921E+02  0.47939669226E+02  0.24967439511E+03  0.28538951848E+03  0.12509036324E+03 0.  0.
         23    2    1    2    0    0 -0.34118364921E+02 -0.47939669226E+02  0.24876775818E+03  0.27157705296E+03  0.91686550109E+02 0.  0.
          5    1    3    3  502    0 -0.37275125644E+01  0.37055020966E+02  0.53255082443E+01  0.37852375972E+02  0.41800000000E+01 0.  1.
         -5    1    3    3    0  502  0.37845877486E+02  0.10884648260E+02  0.24434888686E+03  0.24753714251E+03  0.41800000000E+01 0.  1.
        -11    1    4    4    0    0 -0.59185879713E+02 -0.45298789559E+02  0.22465136089E+03  0.23669216853E+03  0.00000000000E+00 0.  1.
         11    1    4    4    0    0  0.25067514792E+02 -0.26408796667E+01  0.24116397297E+02  0.34884884432E+02  0.00000000000E+00 0. -1.
</event>
<event>
 8    1  0.7103328E-009  0.1707347E+03  0.7561462E-02  0.1177084E+00
          2   -1    0    0  501    0  0.00000000000E+00  0.00000000000E+00  0.52941899151E+03  0.52941899151E+03  0.00000000000E+00 0. -1.
         -2   -1    0    0    0  501 -0.00000000000E+00 -0.00000000000E+00 -0.74736495335E+02  0.74736495335E+02  0.00000000000E+00 0.  1.
         25    2    1    2    0    0  0.13699618213E+02  0.15768932688E+03  0.32345938538E+03  0.38121930186E+03  0.12509427952E+03 0.  0.
         23    2    1    2    0    0 -0.13699618213E+02 -0.15768932688E+03  0.13122311080E+03  0.22293618499E+03  0.86182564468E+02 0.  0.
          5    1    3    3  502    0  0.33502142300E+02  0.52498874039E+02  0.23236831377E+03  0.24060555055E+03  0.41800000000E+01 0. -1.
         -5    1    3    3    0  502 -0.19802524087E+02  0.10519045284E+03  0.91091071610E+02  0.14061375130E+03  0.41800000000E+01 0. -1.
        -11    1    4    4    0    0 -0.26697630230E+02 -0.19323932380E+02  0.17619212440E+01  0.33004275314E+02  0.00000000000E+00 0.  1.
         11    1    4    4    0    0  0.12998012018E+02 -0.13836539450E+03  0.12946118955E+03  0.18993190967E+03  0.00000000000E+00 0. -1.
</event>
<event>
 8    1  0.7103328E-009  0.1507268E+03  0.7561462E-02  0.1199583E+00
         -2   -1    0    0    0  501 -0.00000000000E+00  0.00000000000E+00  0.72752035071E+02  0.72752035071E+02  0.00000000000E+00 0.  1.
          2   -1    0    0  501    0  0.00000000000E+00 -0.00000000000E+00 -0.33827628959E+03  0.33827628959E+03  0.00000000000E+00 0. -1.
         25    2    1    2    0    0  0.36430378151E+02  0.10040446746E+03 -0.11330288388E+03  0.19973582470E+03  0.12509447083E+03 0.  0.
         23    2    1    2    0    0 -0.36430378151E+02 -0.10040446746E+03 -0.15222137064E+03  0.21129249997E+03  0.10032420109E+03 0.  0.
          5    1    3    3  502    0  0.62091598961E+02  0.15366569240E+01 -0.41850544265E+02  0.75011122051E+02  0.41800000000E+01 0.  1.
         -5    1    3    3    0  502 -0.25661220809E+02  0.98867810537E+02 -0.71452339617E+02  0.12472470265E+03  0.41800000000E+01 0.  1.
        -11    1    4    4    0    0  0.10765555723E+02 -0.87342204702E+02 -0.58876103879E+02  0.10588179031E+03  0.00000000000E+00 0. -1.
         11    1    4    4    0    0 -0.47195933875E+02 -0.13062262758E+02 -0.93345266759E+02  0.10541070965E+03  0.00000000000E+00 0.  1.
</event>
<event>
 8    1  0.7103328E-009  0.1636135E+03  0.7561462E-02  0.1184677E+00
         -2   -1    0    0    0  501 -0.00000000000E+00  0.00000000000E+00  0.16541336585E+03  0.16541336585E+03  0.00000000000E+00 0. -1.
          2   -1    0    0  501    0  0.00000000000E+00 -0.00000000000E+00 -0.26084084529E+03  0.26084084529E+03  0.00000000000E+00 0.  1.
         25    2    1    2    0    0 -0.74467379823E+01 -0.16210760871E+03 -0.12379292957E+03  0.23938781538E+03  0.12508999174E+03 0.  0.
         23    2    1    2    0    0  0.74467379823E+01  0.16210760871E+03  0.28365450128E+02  0.18686639575E+03  0.88204990746E+02 0.  0.
          5    1    3    3  502    0 -0.98286148209E+00 -0.56434438269E+01 -0.74967045543E+02  0.75301691829E+02  0.41800000000E+01 0. -1.
         -5    1    3    3    0  502 -0.64638765002E+01 -0.15646416488E+03 -0.48825884027E+02  0.16408612356E+03  0.41800000000E+01 0. -1.
        -11    1    4    4    0    0  0.13618411205E+02  0.80702658930E+02 -0.29283968079E+02  0.86924858749E+02  0.00000000000E+00 0.  1.
         11    1    4    4    0    0 -0.61716732225E+01  0.81404949782E+02  0.57649418207E+02  0.99941537005E+02  0.00000000000E+00 0. -1.
</event>
<event>
 8    1  0.7103328E-009  0.1220374E+03  0.7561462E-02  0.1239773E+00
          1   -1    0    0  501    0  0.00000000000E+00  0.00000000000E+00  0.88347966085E+02  0.88347966085E+02  0.00000000000E+00 0. -1.
         -1   -1    0    0    0  501 -0.00000000000E+00 -0.00000000000E+00 -0.27480330106E+03  0.27480330106E+03  0.00000000000E+00 0.  1.
         25    2    1    2    0    0  0.31171054885E+02  0.68843860609E+02 -0.44611302054E+01  0.14620492423E+03  0.12507944028E+03 0.  0.
         23    2    1    2    0    0 -0.31171054885E+02 -0.68843860609E+02 -0.18199420477E+03  0.21694634292E+03  0.90734300727E+02 0.  0.
          5    1    3    3  502    0  0.66481695816E+02  0.24949352083E+02 -0.37860803272E+02  0.80580387640E+02  0.41800000000E+01 0. -1.
         -5    1    3    3    0  502 -0.35310640930E+02  0.43894508526E+02  0.33399673067E+02  0.65624536590E+02  0.41800000000E+01 0. -1.
        -11    1    4    4    0    0 -0.74719471519E+01 -0.86549102131E+02 -0.15024273245E+03  0.17354957715E+03  0.00000000000E+00 0.  1.
         11    1    4    4    0    0 -0.23699107733E+02  0.17705241521E+02 -0.31751472318E+02  0.43396765767E+02  0.00000000000E+00 0. -1.
</event>
<event>
 8    1  0.7103328E-009  0.9576616E+02  0.7561462E-02  0.1289460E+00
         -1   -1    0    0    0  501 -0.00000000000E+00  0.00000000000E+00  0.34950546147E+02  0.34950546147E+02  0.00000000000E+00 0.  1.
          1   -1    0    0  501    0  0.00000000000E+00 -0.00000000000E+00 -0.40229785650E+03  0.40229785650E+03  0.00000000000E+00 0. -1.
         25    2    1    2    0    0 -0.23284959967E+02 -0.28537613833E+02 -0.26367508128E+03  0.29415781437E+03  0.12509071310E+03 0.  0.
         23    2    1    2    0    0  0.23284959967E+02  0.28537613833E+02 -0.10367222907E+03  0.14309058828E+03  0.91489893480E+02 0.  0.
          5    1    3    3  502    0 -0.35829872413E+02 -0.59571045175E+02 -0.74432101077E+02  0.10193183630E+03  0.41800000000E+01 0.  1.
         -5    1    3    3    0  502  0.12544912447E+02  0.31033431343E+02 -0.18924298021E+03  0.19222597807E+03  0.41800000000E+01 0.  1.
        -11    1    4    4    0    0 -0.86701889011E+01  0.49295502551E+02 -0.25608127184E+02  0.56222726057E+02  0.00000000000E+00 0.  1.
         11    1    4    4    0    0  0.31955148868E+02 -0.20757888719E+02 -0.78064101889E+02  0.86867862221E+02  0.00000000000E+00 0. -1.
</event>
<event>
 8    1  0.7103328E-009  0.1001892E+03  0.7561462E-02  0.1279899E+00
         -4   -1    0    0    0  501 -0.00000000000E+00  0.00000000000E+00  0.23962871060E+03  0.23962871060E+03  0.00000000000E+00 0.  1.
          4   -1    0    0  501    0  0.00000000000E+00 -0.00000000000E+00 -0.59212582121E+02  0.59212582121E+02  0.00000000000E+00 0. -1.
         25    2    1    2    0    0 -0.12873137374E+02 -0.56452009323E+02  0.96869896391E+02  0.16847360420E+03  0.12508809481E+03 0.  0.
         23    2    1    2    0    0  0.12873137374E+02  0.56452009323E+02  0.83546232086E+02  0.13036768852E+03  0.81628513966E+02 0.  0.
          5    1    3    3  502    0  0.19945763035E+02 -0.65268861042E+02  0.11185542747E+03  0.13109907223E+03  0.41800000000E+01 0. -1.
         -5    1    3    3    0  502 -0.32818900409E+02  0.88168517191E+01 -0.14985531078E+02  0.37374531970E+02  0.41800000000E+01 0. -1.
        -11    1    4    4    0    0  0.11563624083E+02 -0.19031115300E+02  0.82652070053E+01  0.23753197644E+02  0.00000000000E+00 0. -1.
         11    1    4    4    0    0  0.13095132909E+01  0.75483124622E+02  0.75281025081E+02  0.10661449088E+03  0.00000000000E+00 0.  1.
</event>
<event>
 8    1  0.7103328E-009  0.1230010E+03  0.7561462E-02  0.1238227E+00
          1   -1    0    0  501    0  0.00000000000E+00  0.00000000000E+00  0.20411171596E+03  0.20411171596E+03  0.00000000000E+00 0. -1.
         -1   -1    0    0    0  501 -0.00000000000E+00 -0.00000000000E+00 -0.96654289333E+02  0.96654289333E+02  0.00000000000E+00 0.  1.
         25    2    1    2    0    0 -0.11121202749E+02  0.86501074660E+02  0.70370678930E+02  0.16795171286E+03  0.12509847454E+03 0.  0.
         23    2    1    2    0    0  0.11121202749E+02 -0.86501074660E+02  0.37086747701E+02  0.13281429244E+03  0.93048870779E+02 0.  0.
          5    1    3    3  502    0  0.50226378580E+02  0.35601080511E+02  0.25443552455E+00  0.61706265292E+02  0.41800000000E+01 0.  1.
         -5    1    3    3    0  502 -0.61347581329E+02  0.50899994149E+02  0.70116243405E+02  0.10624544757E+03  0.41800000000E+01 0.  1.
        -11    1    4    4    0    0 -0.21862375731E+02 -0.17537627446E+02 -0.22458021478E+02  0.35915102363E+02  0.00000000000E+00 0.  1.
         11    1    4    4    0    0  0.32983578479E+02 -0.68963447213E+02  0.59544769178E+02  0.96899190076E+02  0.00000000000E+00 0. -1.
</event>
<event>
 8    1  0.7103328E-009  0.9353884E+02  0.7561462E-02  0.1294501E+00
          1   -1    0    0  501    0  0.00000000000E+00  0.00000000000E+00  0.93843910608E+02  0.93843910608E+02  0.00000000000E+00 0. -1.
         -1   -1    0    0    0  501 -0.00000000000E+00 -0.00000000000E+00 -0.14945112814E+03  0.14945112814E+03  0.00000000000E+00 0.  1.
         25    2    1    2    0    0 -0.14170672618E+02 -0.27503906341E+02 -0.17072997722E+02  0.12998902906E+03  0.12509351541E+03 0.  0.
         23    2    1    2    0    0  0.14170672618E+02  0.27503906341E+02 -0.38534219811E+02  0.11330600969E+03  0.10196123238E+03 0.  0.
          5    1    3    3  502    0 -0.60962570721E+02 -0.26919743428E+02  0.20480464580E+02  0.69842891152E+02  0.41800000000E+01 0.  1.
         -5    1    3    3    0  502  0.46791898103E+02 -0.58416291364E+00 -0.37553462302E+02  0.60146137908E+02  0.41800000000E+01 0.  1.
        -11    1    4    4    0    0  0.25772236164E+02  0.45277347803E+02 -0.62451392376E+02  0.81329101746E+02  0.00000000000E+00 0.  1.
         11    1    4    4    0    0 -0.11601563547E+02 -0.17773441462E+02  0.23917172565E+02  0.31976907944E+02  0.00000000000E+00 0. -1.
</event>
<event>
 8    1  0.7103328E-009  0.1153972E+03  0.7561462E-02  0.1250889E+00
          2   -1    0    0  501    0  0.00000000000E+00  0.00000000000E+00  0.48855499087E+03  0.48855499087E+03  0.00000000000E+00 0. -1.
         -2   -1    0    0    0  501 -0.00000000000E+00 -0.00000000000E+00 -0.49799906139E+02  0.49799906139E+02  0.00000000000E+00 0.  1.
         25    2    1    2    0    0  0.93459804648E+02  0.23484805896E+02  0.13853012582E+03  0.21004740991E+03  0.12507216899E+03 0.  0.
         23    2    1    2    0    0 -0.93459804648E+02 -0.23484805896E+02  0.30022495891E+03  0.32830748710E+03  0.91457689349E+02 0.  0.
          5    1    3    3  502    0  0.58698966811E+02 -0.66449569458E+01  0.15100417278E+03  0.16220190120E+03  0.41800000000E+01 0.  1.
         -5    1    3    3    0  502  0.34760837838E+02  0.30129762842E+02 -0.12474046954E+02  0.47845508707E+02  0.41800000000E+01 0.  1.
        -11    1    4    4    0    0 -0.76025384260E+02 -0.51895157722E+02  0.16402803627E+03  0.18809083744E+03  0.00000000000E+00 0. -1.
         11    1    4    4    0    0 -0.17434420389E+02  0.28410351826E+02  0.13619692264E+03  0.14021664966E+03  0.00000000000E+00 0.  1.
</event>
<event>
 8    1  0.7103328E-009  0.1256934E+03  0.7561462E-02  0.1233990E+00
          1   -1    0    0  501    0  0.00000000000E+00  0.00000000000E+00  0.48453240019E+03  0.48453240019E+03  0.00000000000E+00 0. -1.
         -1   -1    0    0    0  501 -0.00000000000E+00 -0.00000000000E+00 -0.41133214168E+02  0.41133214168E+02  0.00000000000E+00 0.  1.
         25    2    1    2    0    0  0.76940117935E+02  0.12990633198E+02  0.33530391104E+03  0.36628543930E+03  0.12509105477E+03 0.  0.
         23    2    1    2    0    0 -0.76940117935E+02 -0.12990633198E+02  0.10809527498E+03  0.15938017506E+03  0.87343651349E+02 0.  0.
          5    1    3    3  502    0  0.10861809879E+03 -0.77192088407E+01  0.23649253103E+03  0.26039137313E+03  0.41800000000E+01 0. -1.
         -5    1    3    3    0  502 -0.31677980857E+02  0.20709842039E+02  0.98811380014E+02  0.10589406616E+03  0.41800000000E+01 0. -1.
        -11    1    4    4    0    0 -0.86840210541E+02  0.14223558110E+01  0.11173461893E+03  0.14151985843E+03  0.00000000000E+00 0. -1.
         11    1    4    4    0    0  0.99000926058E+01 -0.14412989009E+02 -0.36393439496E+01  0.17860316631E+02  0.00000000000E+00 0.  1.
</event>
<event>
 8    1  0.7103328E-009  0.1248256E+03  0.7561462E-02  0.1235342E+00
         -2   -1    0    0    0  501 -0.00000000000E+00  0.00000000000E+00  0.11461859965E+03  0.11461859965E+03  0.00000000000E+00 0.  1.
          2   -1    0    0  501    0  0.00000000000E+00 -0.00000000000E+00 -0.14808220150E+03  0.14808220150E+03  0.00000000000E+00 0. -1.
         25    2    1    2    0    0 -0.62854893818E+02 -0.34412393084E+02 -0.10462012130E+02  0.14453609208E+03  0.12508508201E+03 0.  0.
         23    2    1    2    0    0  0.62854893818E+02  0.34412393084E+02 -0.23001589725E+02  0.11816470907E+03  0.91098160604E+02 0.  0.
          5    1    3    3  502    0 -0.83095385062E+02  0.12656216763E+02 -0.30284015911E+02  0.89440577263E+02  0.41800000000E+01 0. -1.
         -5    1    3    3    0  502  0.20240491244E+02 -0.47068609847E+02  0.19822003781E+02  0.55095514814E+02  0.41800000000E+01 0. -1.
        -11    1    4    4    0    0  0.77189349086E+02  0.41378318502E+00 -0.56656763307E+01  0.77398105385E+02  0.00000000000E+00 0. -1.
         11    1    4    4    0    0 -0.14334455268E+02  0.33998609899E+02 -0.17335913394E+02  0.40766603686E+02  0.00000000000E+00 0.  1.
</event>
<event>
 8    1  0.7103328E-009  0.1008537E+03  0.7561462E-02  0.1278511E+00
          2   -1    0    0  501    0  0.00000000000E+00  0.00000000000E+00  0.31690934792E+03  0.31690934792E+03  0.00000000000E+00 0. -1.
         -2   -1    0    0    0  501 -0.00000000000E+00 -0.00000000000E+00 -0.64552380434E+02  0.64552380434E+02  0.00000000000E+00 0.  1.
         25    2    1    2    0    0 -0.84343608340E+02  0.38968429112E+02  0.14526643500E+03  0.21303060205E+03  0.12508923830E+03 0.  0.
         23    2    1    2    0    0  0.84343608340E+02 -0.38968429112E+02  0.10709053249E+03  0.16843112631E+03  0.90930079867E+02 0.  0.
          5    1    3    3  502    0 -0.47981929145E+02  0.40107260745E+02  0.16130466675E+03  0.17305353451E+03  0.41800000000E+01 0. -1.
         -5    1    3    3    0  502 -0.36361679195E+02 -0.11388316331E+01 -0.16038231756E+02  0.39977067542E+02  0.41800000000E+01 0. -1.
        -11    1    4    4    0    0  0.77806222671E+02 -0.17201970592E+02  0.25395887838E+02  0.83634126992E+02  0.00000000000E+00 0.  1.
         11    1    4    4    0    0  0.65373856696E+01 -0.21766458520E+02  0.81694644654E+02  0.84796999317E+02  0.00000000000E+00 0. -1.
</event>
<event>
 8    1  0.7103328E-009  0.1145918E+03  0.7561462E-02  0.1252295E+00
         -1   -1    0    0    0  501 -0.00000000000E+00  0.00000000000E+00  0.33741604276E+03  0.33741604276E+03  0.00000000000E+00 0.  1.
          1   -1    0    0  501    0  0.00000000000E+00 -0.00000000000E+00 -0.65691306692E+02  0.65691306692E+02  0.00000000000E+00 0. -1.
         25    2    1    2    0    0  0.79895886354E+02 -0.29370199160E+02  0.72529572640E+02  0.16779131186E+03  0.12508966454E+03 0.  0.
         23    2    1    2    0    0 -0.79895886354E+02  0.29370199160E+02  0.19919516343E+03  0.23531603760E+03  0.91918241715E+02 0.  0.
          5    1    3    3  502    0  0.93300344240E+02 -0.22132043747E+02  0.98413272653E+02  0.13746790982E+03  0.41800000000E+01 0. -1.
         -5    1    3    3    0  502 -0.13404457887E+02 -0.72381554133E+01 -0.25883700013E+02  0.30323402042E+02  0.41800000000E+01 0. -1.
        -11    1    4    4    0    0 -0.89272657281E+02  0.28951538928E+01  0.18103360302E+03  0.20186915237E+03  0.00000000000E+00 0. -1.
         11    1    4    4    0    0  0.93767709274E+01  0.26475045267E+02  0.18161560407E+02  0.33446885226E+02  0.00000000000E+00 0.  1.
</event>
<event>
 8    1  0.7103328E-009  0.1005861E+03  0.7561462E-02  0.1279068E+00
         -1   -1    0    0    0  501 -0.00000000000E+00  0.00000000000E+00  0.51295661335E+03  0.51295661335E+03  0.00000000000E+00 0.  1.
          1   -1    0    0  501    0  0.00000000000E+00 -0.00000000000E+00 -0.26818393321E+02  0.26818393321E+02  0.00000000000E+00 0. -1.
         25    2    1    2    0    0 -0.10509741875E+02  0.36474431410E+02  0.32966091145E+03  0.35463326088E+03  0.12509034480E+03 0.  0.
         23    2    1    2    0    0  0.10509741875E+02 -0.36474431410E+02  0.15647730858E+03  0.18514174579E+03  0.91386427403E+02 0.  0.
          5    1    3    3  502    0 -0.63433060669E+02  0.18920791629E+02  0.11447821948E+03  0.13230451496E+03  0.41800000000E+01 0.  1.
         -5    1    3    3    0  502  0.52923318793E+02  0.17553639781E+02  0.21518269197E+03  0.22232874593E+03  0.41800000000E+01 0.  1.
        -11    1    4    4    0    0  0.39869505583E+02 -0.15180447034E+02  0.26553285280E+02  0.50250377180E+02  0.00000000000E+00 0. -1.
         11    1    4    4    0    0 -0.29359763708E+02 -0.21293984376E+02  0.12992402330E+03  0.13489136861E+03  0.00000000000E+00 0.  1.
</event>
<event>
 8    1  0.7103328E-009  0.5778821E+02  0.7561462E-02  0.1407355E+00
          1   -1    0    0  501    0  0.00000000000E+00  0.00000000000E+00  0.16433433967E+04  0.16433433967E+04  0.00000000000E+00 0. -1.
         -1   -1    0    0    0  501 -0.00000000000E+00 -0.00000000000E+00 -0.12771009678E+02  0.12771009678E+02  0.00000000000E+00 0.  1.
         25    2    1    2    0    0 -0.24894566926E+02 -0.12811839286E+02  0.14114888368E+04  0.14172970962E+04  0.12508572965E+03 0.  0.
         23    2    1    2    0    0  0.24894566926E+02  0.12811839286E+02  0.21908355023E+03  0.23881731020E+03  0.90841746905E+02 0.  0.
          5    1    3    3  502    0  0.16608176940E+02 -0.10036309890E+02  0.35496108737E+02  0.40669462659E+02  0.41800000000E+01 0. -1.
         -5    1    3    3    0  502 -0.41502743866E+02 -0.27755293959E+01  0.13759927280E+04  0.13766276335E+04  0.41800000000E+01 0. -1.
        -11    1    4    4    0    0  0.14013606719E+01 -0.16385724248E+02 -0.10728057049E+00  0.16445889455E+02  0.00000000000E+00 0.  1.
         11    1    4    4    0    0  0.23493206254E+02  0.29197563534E+02  0.21919083080E+03  0.22237142075E+03  0.00000000000E+00 0. -1.
</event>
<event>
 8    1  0.7103328E-009  0.8622525E+02  0.7561462E-02  0.1312259E+00
          3   -1    0    0  501    0  0.00000000000E+00  0.00000000000E+00  0.28591594460E+03  0.28591594460E+03  0.00000000000E+00 0. -1.
         -3   -1    0    0    0  501 -0.00000000000E+00 -0.00000000000E+00 -0.50015509670E+02  0.50015509670E+02  0.00000000000E+00 0.  1.
         25    2    1    2    0    0  0.20806992705E+02  0.29944982379E+02  0.83759824369E+02  0.15489139863E+03  0.12508398889E+03 0.  0.
         23    2    1    2    0    0 -0.20806992705E+02 -0.29944982379E+02  0.15214061056E+03  0.18104005564E+03  0.91099415194E+02 0.  0.
          5    1    3    3  502    0  0.38235582597E+02 -0.39528824415E+01 -0.20528282764E+02  0.43777481076E+02  0.41800000000E+01 0. -1.
         -5    1    3    3    0  502 -0.17428589892E+02  0.33897864820E+02  0.10428810713E+03  0.11111391756E+03  0.41800000000E+01 0. -1.
        -11    1    4    4    0    0 -0.22185902817E+01 -0.60032591069E+02  0.11505625532E+03  0.12979513096E+03  0.00000000000E+00 0. -1.
         11    1    4    4    0    0 -0.18588402424E+02  0.30087608690E+02  0.37084355235E+02  0.51244924671E+02  0.00000000000E+00 0.  1.
</event>
<event>
 8    1  0.7103328E-009  0.1138081E+03  0.7561462E-02  0.1253676E+00
         -2   -1    0    0    0  501 -0.00000000000E+00  0.00000000000E+00  0.21090016982E+02  0.21090016982E+02  0.00000000000E+00 0. -1.
          2   -1    0    0  501    0  0.00000000000E+00 -0.00000000000E+00 -0.10073149252E+04  0.10073149252E+04  0.00000000000E+00 0.  1.
         25    2    1    2    0    0  0.74234103169E+01 -0.91827948456E+02 -0.62679813730E+03  0.64576400001E+03  0.12509100545E+03 0.  0.
         23    2    1    2    0    0 -0.74234103169E+01  0.91827948456E+02 -0.35942677096E+03  0.38264094222E+03  0.93482660636E+02 0.  0.
          5    1    3    3  502    0  0.50999231317E+02 -0.68417290183E+02 -0.22098014130E+03  0.23692096243E+03  0.41800000000E+01 0.  1.
         -5    1    3    3    0  502 -0.43575821000E+02 -0.23410658273E+02 -0.40581799600E+03  0.40884303758E+03  0.41800000000E+01 0.  1.
        -11    1    4    4    0    0 -0.25966513369E+01  0.74631365403E+02 -0.35686792218E+03  0.36459744538E+03  0.00000000000E+00 0.  1.
         11    1    4    4    0    0 -0.48267589800E+01  0.17196583053E+02 -0.25588487829E+01  0.18043496835E+02  0.00000000000E+00 0. -1.
</event>
<event>
 8    1  0.7103328E-009  0.1432261E+03  0.7561462E-02  0.1209053E+00
         -1   -1    0    0    0  501 -0.00000000000E+00  0.00000000000E+00  0.65763128554E+02  0.65763128554E+02  0.00000000000E+00 0.  1.
          1   -1    0    0  501    0  0.00000000000E+00 -0.00000000000E+00 -0.88307348238E+03  0.88307348238E+03  0.00000000000E+00 0. -1.
         25    2    1    2    0    0 -0.12923651796E+03 -0.98804967652E+00 -0.76167499153E+03  0.78262363295E+03  0.12509158372E+03 0.  0.
         23    2    1    2    0    0  0.12923651796E+03  0.98804967652E+00 -0.55635362303E+02  0.16621297799E+03  0.88478283756E+02 0.  0.
          5    1    3    3  502    0 -0.77540853092E+02  0.45235289803E+01 -0.15223744048E+03  0.17095834843E+03  0.41800000000E+01 0.  1.
         -5    1    3    3    0  502 -0.51695664867E+02 -0.55115786568E+01 -0.60943755104E+03  0.61166528452E+03  0.41800000000E+01 0.  1.
        -11    1    4    4    0    0 -0.13578535453E+02 -0.15976926950E+01 -0.66911146587E+01  0.15221703662E+02  0.00000000000E+00 0.  1.
         11    1    4    4    0    0  0.14281505341E+03  0.25857423716E+01 -0.48944247644E+02  0.15099127433E+03  0.00000000000E+00 0. -1.
</event>
<event>
 8    1  0.7103328E-009  0.2831995E+03  0.7561462E-02  0.1093954E+00
          1   -1    0    0  501    0  0.00000000000E+00  0.00000000000E+00  0.11839845015E+04  0.11839845015E+04  0.00000000000E+00 0. -1.
         -1   -1    0    0    0  501 -0.00000000000E+00 -0.00000000000E+00 -0.73957379840E+02  0.73957379840E+02  0.00000000000E+00 0.  1.
         25    2    1    2    0    0  0.58348313021E+01 -0.27291818150E+03  0.51866021303E+03  0.59931129208E+03  0.12508888515E+03 0.  0.
         23    2    1    2    0    0 -0.58348313021E+01  0.27291818150E+03  0.59136690861E+03  0.65863058923E+03  0.97780639323E+02 0.  0.
          5    1    3    3  502    0 -0.44540864585E+02 -0.63310282743E+02  0.20057142144E+03  0.21503127218E+03  0.41800000000E+01 0.  1.
         -5    1    3    3    0  502  0.50375695887E+02 -0.20960789876E+03  0.31808879159E+03  0.38428001990E+03  0.41800000000E+01 0.  1.
        -11    1    4    4    0    0  0.27256511031E+01  0.15824061678E+03  0.22833792779E+03  0.27782320141E+03  0.00000000000E+00 0.  1.
         11    1    4    4    0    0 -0.85604824051E+01  0.11467756472E+03  0.36302898081E+03  0.38080738782E+03  0.00000000000E+00 0. -1.
</event>
<event>
 8    1  0.7103328E-009  0.1293123E+03  0.7561462E-02  0.1228480E+00
          1   -1    0    0  501    0  0.00000000000E+00  0.00000000000E+00  0.14517870945E+04  0.14517870945E+04  0.00000000000E+00 0. -1.
         -1   -1    0    0    0  501 -0.00000000000E+00 -0.00000000000E+00 -0.15863187507E+02  0.15863187507E+02  0.00000000000E+00 0.  1.
         25    2    1    2    0    0  0.63174213636E+02  0.59903450423E+02  0.10771288422E+04  0.10878571508E+04  0.12508890103E+03 0.  0.
         23    2    1    2    0    0 -0.63174213636E+02 -0.59903450423E+02  0.35879506479E+03  0.37979313123E+03  0.89047848759E+02 0.  0.
          5    1    3    3  502    0  0.89521829094E+02  0.76523883680E+02  0.92795940642E+03  0.93541231285E+03  0.41800000000E+01 0. -1.
         -5    1    3    3    0  502 -0.26347615458E+02 -0.16620433258E+02  0.14916943582E+03  0.15244483798E+03  0.41800000000E+01 0. -1.
        -11    1    4    4    0    0 -0.39135361695E+02  0.56362405375E+01  0.52957989108E+02  0.66090032174E+02  0.00000000000E+00 0.  1.
         11    1    4    4    0    0 -0.24038851941E+02 -0.65539690960E+02  0.30583707569E+03  0.31370309906E+03  0.00000000000E+00 0. -1.
</event>
<event>
 8    1  0.7103328E-009  0.1147274E+03  0.7561462E-02  0.1252058E+00
         -1   -1    0    0    0  501 -0.00000000000E+00  0.00000000000E+00  0.19860685166E+02  0.19860685166E+02  0.00000000000E+00 0.  1.
          1   -1    0    0  501    0  0.00000000000E+00 -0.00000000000E+00 -0.76547437432E+03  0.76547437432E+03  0.00000000000E+00 0. -1.
         25    2    1    2    0    0  0.54206913573E+02 -0.55412224916E+01 -0.49118806338E+03  0.50978515472E+03  0.12508435451E+03 0.  0.
         23    2    1    2    0    0 -0.54206913573E+02  0.55412224916E+01 -0.25442562577E+03  0.27554990476E+03  0.90698711893E+02 0.  0.
          5    1    3    3  502    0  0.84527939469E+02  0.22208093844E+02 -0.24501033933E+03  0.26016477617E+03  0.41800000000E+01 0. -1.
         -5    1    3    3    0  502 -0.30321025896E+02 -0.27749316335E+02 -0.24617772405E+03  0.24962037855E+03  0.41800000000E+01 0. -1.
        -11    1    4    4    0    0  0.12006823898E+02 -0.24994236799E+02 -0.37092307588E+02  0.46311067527E+02  0.00000000000E+00 0.  1.
         11    1    4    4    0    0 -0.66213737471E+02  0.30535459291E+02 -0.21733331819E+03  0.22923883724E+03  0.00000000000E+00 0. -1.
</event>
<event>
 8    1  0.7103328E-009  0.1063143E+03  0.7561462E-02  0.1267551E+00
          2   -1    0    0  501    0  0.00000000000E+00  0.00000000000E+00  0.27042351037E+03  0.27042351037E+03  0.00000000000E+00 0. -1.
         -2   -1    0    0    0  501 -0.00000000000E+00 -0.00000000000E+00 -0.58891448440E+02  0.58891448440E+02  0.00000000000E+00 0.  1.
         25    2    1    2    0    0  0.30575312864E+02  0.38337339317E+02  0.81048951121E+02  0.15690884332E+03  0.12508737463E+03 0.  0.
         23    2    1    2    0    0 -0.30575312864E+02 -0.38337339317E+02  0.13048311081E+03  0.17240611549E+03  0.10145651831E+03 0.  0.
          5    1    3    3  502    0  0.40102319775E+02  0.63338835167E+02  0.39437726447E+01  0.75186633348E+02  0.41800000000E+01 0. -1.
         -5    1    3    3    0  502 -0.95270069116E+01 -0.25001495850E+02  0.77105178476E+02  0.81722209975E+02  0.41800000000E+01 0. -1.
        -11    1    4    4    0    0  0.22201581042E+02 -0.51491861602E+02  0.83220272175E+02  0.10034906932E+03  0.00000000000E+00 0. -1.
         11    1    4    4    0    0 -0.52776893905E+02  0.13154522285E+02  0.47262838635E+02  0.72057046169E+02  0.00000000000E+00 0.  1.
</event>
<event>
 8    1  0.7103328E-009  0.6334152E+02  0.7561462E-02  0.1384321E+00
          2   -1    0    0  501    0  0.00000000000E+00  0.00000000000E+00  0.13395875953E+03  0.13395875953E+03  0.00000000000E+00 0. -1.
         -2   -1    0    0    0  501 -0.00000000000E+00 -0.00000000000E+00 -0.11772187524E+03  0.11772187524E+03  0.00000000000E+00 0.  1.
         25    2    1    2    0    0 -0.46899118806E+02  0.11570137385E+02  0.47318427853E+02  0.14219471989E+03  0.12508760660E+03 0.  0.
         23    2    1    2    0    0  0.46899118806E+02 -0.11570137385E+02 -0.31081543568E+02  0.10948591488E+03  0.93207874042E+02 0.  0.
          5    1    3    3  502    0 -0.45433312111E+02  0.14092207619E+02  0.88573680221E+02  0.10062576903E+03  0.41800000000E+01 0.  1.
         -5    1    3    3    0  502 -0.14658066947E+01 -0.25220702343E+01 -0.41255252368E+02  0.41568950859E+02  0.41800000000E+01 0.  1.
        -11    1    4    4    0    0 -0.39842403835E+01  0.15634764643E+02  0.24522696876E+02  0.29354432356E+02  0.00000000000E+00 0. -1.
         11    1    4    4    0    0  0.50883359189E+02 -0.27204902028E+02 -0.55604240444E+02  0.80131482527E+02  0.00000000000E+00 0.  1.
</event>
<event>
 8    1  0.7103328E-009  0.1370915E+03  0.7561462E-02  0.1217297E+00
         -2   -1    0    0    0  501 -0.00000000000E+00  0.00000000000E+00  0.15535215447E+03  0.15535215447E+03  0.00000000000E+00 0.  1.
          2   -1    0    0  501    0  0.00000000000E+00 -0.00000000000E+00 -0.19452314497E+03  0.19452314497E+03  0.00000000000E+00 0. -1.
         25    2    1    2    0    0 -0.28675593379E+01 -0.13422193448E+03 -0.57110098185E+01  0.18358550413E+03  0.12508905268E+03 0.  0.
         23    2    1    2    0    0  0.28675593379E+01  0.13422193448E+03 -0.33459980686E+02  0.16628979532E+03  0.92244106196E+02 0.  0.
          5    1    3    3  502    0  0.10549607743E+02 -0.99448589400E+02 -0.60672290912E+02  0.11704663789E+03  0.41800000000E+01 0. -1.
         -5    1    3    3    0  502 -0.13417167081E+02 -0.34773345076E+02  0.54961281093E+02  0.66538866234E+02  0.41800000000E+01 0. -1.
        -11    1    4    4    0    0 -0.64847205151E+01  0.11524314424E+03 -0.61795607407E+02  0.13092643350E+03  0.00000000000E+00 0. -1.
         11    1    4    4    0    0  0.93522798530E+01  0.18978790238E+02  0.28335626721E+02  0.35363361818E+02  0.00000000000E+00 0.  1.
</event>
<event>
 8    1  0.7103328E-009  0.1065896E+03  0.7561462E-02  0.1267019E+00
         -1   -1    0    0    0  501 -0.00000000000E+00  0.00000000000E+00  0.86709331405E+02  0.86709331405E+02  0.00000000000E+00 0.  1.
          1   -1    0    0  501    0  0.00000000000E+00 -0.00000000000E+00 -0.23549981602E+03  0.23549981602E+03  0.00000000000E+00 0. -1.
         25    2    1    2    0    0  0.12901514005E+02 -0.74669704788E+02 -0.20671803287E+02  0.14770400146E+03  0.12508850754E+03 0.  0.
         23    2    1    2    0    0 -0.12901514005E+02  0.74669704788E+02 -0.12811868133E+03  0.17450514597E+03  0.91080379822E+02 0.  0.
          5    1    3    3  502    0  0.42976196573E+02  0.18579863545E+01  0.28534449791E+02  0.51788925554E+02  0.41800000000E+01 0.  1.
         -5    1    3    3    0  502 -0.30074682568E+02 -0.76527691142E+02 -0.49206253079E+02  0.95915075901E+02  0.41800000000E+01 0.  1.
        -11    1    4    4    0    0 -0.25948620656E+02  0.24136743747E+02 -0.11549532881E+03  0.12081011666E+03  0.00000000000E+00 0. -1.
         11    1    4    4    0    0  0.13047106651E+02  0.50532961040E+02 -0.12623352526E+02  0.53695029309E+02  0.00000000000E+00 0.  1.
</event>
<event>
 8    1  0.7103328E-009  0.1133910E+03  0.7561462E-02  0.1254416E+00
          1   -1    0    0  501    0  0.00000000000E+00  0.00000000000E+00  0.24370239748E+04  0.24370239748E+04  0.00000000000E+00 0. -1.
         -1   -1    0    0    0  501 -0.00000000000E+00 -0.00000000000E+00 -0.10153953775E+02  0.10153953775E+02  0.00000000000E+00 0.  1.
         25    2    1    2    0    0 -0.83940858344E+02 -0.10844629907E+02  0.18945644409E+04  0.19005751134E+04  0.12509063543E+03 0.  0.
         23    2    1    2    0    0  0.83940858344E+02  0.10844629907E+02  0.53230558010E+03  0.54660281520E+03  0.90894077252E+02 0.  0.
          5    1    3    3  502    0 -0.83110550458E+02 -0.30211342523E+02  0.66689110039E+03  0.67274163019E+03  0.41800000000E+01 0. -1.
         -5    1    3    3    0  502 -0.83030788576E+00  0.19366712617E+02  0.12276733406E+04  0.12278334832E+04  0.41800000000E+01 0. -1.
        -11    1    4    4    0    0  0.40881483938E+01  0.34810930696E+02  0.91525095120E+02  0.98006922663E+02  0.00000000000E+00 0.  1.
         11    1    4    4    0    0  0.79852709950E+02 -0.23966300789E+02  0.44078048498E+03  0.44859589253E+03  0.00000000000E+00 0. -1.
</event>
<event>
 8    1  0.7103328E-009  0.1417202E+03  0.7561462E-02  0.1211033E+00
          2   -1    0    0  501    0  0.00000000000E+00  0.00000000000E+00  0.26433148281E+03  0.26433148281E+03  0.00000000000E+00 0. -1.
         -2   -1    0    0    0  501 -0.00000000000E+00 -0.00000000000E+00 -0.10970788801E+03  0.10970788801E+03  0.00000000000E+00 0.  1.
         25    2    1    2    0    0  0.35482311304E+02  0.12700193962E+03  0.61815166144E+02  0.19198046836E+03  0.12508756287E+03 0.  0.
         23    2    1    2    0    0 -0.35482311304E+02 -0.12700193962E+03  0.92808428660E+02  0.18205890246E+03  0.84519538885E+02 0.  0.
          5    1    3    3  502    0  0.30278127087E+02  0.12588382458E+03  0.93385442255E+02  0.15969287866E+03  0.41800000000E+01 0. -1.
         -5    1    3    3    0  502  0.52041842164E+01  0.11181150390E+01 -0.31570276111E+02  0.32287589695E+02  0.41800000000E+01 0. -1.
        -11    1    4    4    0    0 -0.54483442710E+02 -0.84052622767E+02  0.31852522852E+02  0.10510885850E+03  0.00000000000E+00 0.  1.
         11    1    4    4    0    0  0.19001131407E+02 -0.42949316853E+02  0.60955905808E+02  0.76950043962E+02  0.00000000000E+00 0. -1.
</event>
<event>
 8    1  0.7103328E-009  0.9440224E+02  0.7561462E-02  0.1292528E+00
          3   -1    0    0  501    0  0.00000000000E+00  0.00000000000E+00  0.21488671784E+03  0.21488671784E+03  0.00000000000E+00 0. -1.
         -3   -1    0    0    0  501 -0.00000000000E+00 -0.00000000000E+00 -0.97820334746E+02  0.97820334746E+02  0.00000000000E+00 0.  1.
         25    2    1    2    0    0 -0.45476092417E+02  0.80805166905E+02  0.87371888937E+02  0.17854639441E+03  0.12508963986E+03 0.  0.
         23    2    1    2    0    0  0.45476092417E+02 -0.80805166905E+02  0.29694494159E+02  0.13416065818E+03  0.92302596065E+02 0.  0.
          5    1    3    3  502    0 -0.16025831439E+02  0.11090148508E+02 -0.31671310230E+02  0.37421423796E+02  0.41800000000E+01 0. -1.
         -5    1    3    3    0  502 -0.29450260979E+02  0.69715018397E+02  0.11904319917E+03  0.14112497061E+03  0.41800000000E+01 0. -1.
        -11    1    4    4    0    0  0.32726972202E+02 -0.64969156798E+02  0.62272428667E+02  0.95759602217E+02  0.00000000000E+00 0. -1.
         11    1    4    4    0    0  0.12749120215E+02 -0.15836010107E+02 -0.32577934508E+02  0.38401055965E+02  0.00000000000E+00 0.  1.
</event>
<event>
 8    1  0.7103328E-009  0.9150040E+02  0.7561462E-02  0.1299258E+00
         -1   -1    0    0    0  501 -0.00000000000E+00  0.00000000000E+00  0.90166271126E+03  0.90166271126E+03  0.00000000000E+00 0.  1.
          1   -1    0    0  501    0  0.00000000000E+00 -0.00000000000E+00 -0.54496389520E+02  0.54496389520E+02  0.00000000000E+00 0. -1.
         25    2    1    2    0    0  0.14100788801E+02 -0.55739175482E+02  0.84429469841E+03  0.85544531420E+03  0.12508980732E+03 0.  0.
         23    2    1    2    0    0 -0.14100788801E+02  0.55739175482E+02  0.28716233379E+01  0.10071378659E+03  0.82639776502E+02 0.  0.
          5    1    3    3  502    0 -0.16705557320E+01 -0.75246452682E+02  0.80574134930E+03  0.80925979375E+03  0.41800000000E+01 0.  1.
         -5    1    3    3    0  502  0.15771344533E+02  0.19507277200E+02  0.38553349105E+02  0.46185520451E+02  0.41800000000E+01 0.  1.
        -11    1    4    4    0    0 -0.35107215958E+02  0.48698399368E+02  0.28820729358E+02  0.66593431763E+02  0.00000000000E+00 0.  1.
         11    1    4    4    0    0  0.21006427157E+02  0.70407761137E+01 -0.25949106020E+02  0.34120354826E+02  0.00000000000E+00 0. -1.
</event>
<event>
 8    1  0.7103328E-009  0.8742852E+02  0.7561462E-02  0.1309201E+00
         -1   -1    0    0    0  501 -0.00000000000E+00  0.00000000000E+00  0.55001702689E+02  0.55001702689E+02  0.00000000000E+00 0.  1.
          1   -1    0    0  501    0  0.00000000000E+00 -0.00000000000E+00 -0.24570823281E+03  0.24570823281E+03  0.00000000000E+00 0. -1.
         25    2    1    2    0    0  0.43314810424E+02 -0.39967441560E+01 -0.12924253509E+03  0.18505041083E+03  0.12509146617E+03 0.  0.
         23    2    1    2    0    0 -0.43314810424E+02  0.39967441560E+01 -0.61463995037E+02  0.11565952467E+03  0.87790410608E+02 0.  0.
          5    1    3    3  502    0 -0.43429858540E+02 -0.69498387508E+01 -0.56524666088E+02  0.71742338601E+02  0.41800000000E+01 0.  1.
         -5    1    3    3    0  502  0.86744668964E+02  0.29530945948E+01 -0.72717869000E+02  0.11330807223E+03  0.41800000000E+01 0.  1.
        -11    1    4    4    0    0 -0.25279473570E+02  0.47850474031E+01  0.19768044647E+02  0.32445709297E+02  0.00000000000E+00 0.  1.
         11    1    4    4    0    0 -0.18035336853E+02 -0.78830324713E+00 -0.81232039684E+02  0.83213815371E+02  0.00000000000E+00 0. -1.
</event>
<event>
 8    1  0.7103328E-009  0.1181021E+03  0.7561462E-02  0.1246261E+00
         -2   -1    0    0    0  501 -0.00000000000E+00  0.00000000000E+00  0.27743692121E+02  0.27743692121E+02  0.00000000000E+00 0.  1.
          2   -1    0    0  501    0  0.00000000000E+00 -0.00000000000E+00 -0.60167544836E+03  0.60167544836E+03  0.00000000000E+00 0. -1.
         25    2    1    2    0    0 -0.22983702771E+02 -0.42035173887E+02 -0.43722603884E+03  0.45728407792E+03  0.12508761908E+03 0.  0.
         23    2    1    2    0    0  0.22983702771E+02  0.42035173887E+02 -0.13670571741E+03  0.17213506256E+03  0.92988279666E+02 0.  0.
          5    1    3    3  502    0  0.32833310177E+02  0.27327065663E+02 -0.10827879296E+03  0.11647559478E+03  0.41800000000E+01 0.  1.
         -5    1    3    3    0  502 -0.55817012949E+02 -0.69362239550E+02 -0.32894724587E+03  0.34080848314E+03  0.41800000000E+01 0.  1.
        -11    1    4    4    0    0  0.52691854156E+02  0.15529111520E-01 -0.77140163416E+02  0.93418609213E+02  0.00000000000E+00 0. -1.
         11    1    4    4    0    0 -0.29708151384E+02  0.42019644776E+02 -0.59565553990E+02  0.78716453349E+02  0.00000000000E+00 0.  1.
</event>
<event>
 8    1  0.7103328E-009  0.1024167E+03  0.7561462E-02  0.1275295E+00
         -1   -1    0    0    0  501 -0.00000000000E+00  0.00000000000E+00  0.41887690492E+03  0.41887690492E+03  0.00000000000E+00 0.  1.
          1   -1    0    0  501    0  0.00000000000E+00 -0.00000000000E+00 -0.65323121700E+02  0.65323121700E+02  0.00000000000E+00 0. -1.
         25    2    1    2    0    0 -0.75486584158E+02 -0.26068244816E+02  0.33071021589E+03  0.36248498545E+03  0.12509332520E+03 0.  0.
         23    2    1    2    0    0  0.75486584158E+02  0.26068244816E+02  0.22843567334E+02  0.12171504117E+03  0.88965976099E+02 0.  0.
          5    1    3    3  502    0 -0.57509821887E+02  0.10693102694E+02  0.31170254755E+03  0.31717136158E+03  0.41800000000E+01 0. -1.
         -5    1    3    3    0  502 -0.17976762271E+02 -0.36761347509E+02  0.19007668337E+02  0.45313623868E+02  0.41800000000E+01 0. -1.
        -11    1    4    4    0    0 -0.10927633246E+02 -0.64906824177E+01  0.26402030882E+02  0.29302036811E+02  0.00000000000E+00 0.  1.
         11    1    4    4    0    0  0.86414217404E+02  0.32558927233E+02 -0.35584635477E+01  0.92413004360E+02  0.00000000000E+00 0. -1.
</event>
<event>
 8    1  0.7103328E-009  0.8825755E+02  0.7561462E-02  0.1307127E+00
         -1   -1    0    0    0  501 -0.00000000000E+00  0.00000000000E+00  0.15510098382E+03  0.15510098382E+03  0.00000000000E+00 0.  1.
          1   -1    0    0  501    0  0.00000000000E+00 -0.00000000000E+00 -0.15798727533E+03  0.15798727533E+03  0.00000000000E+00 0. -1.
         25    2    1    2    0    0  0.68331856474E+02 -0.12512620153E+01 -0.91362109392E+02  0.16930507679E+03  0.12508543372E+03 0.  0.
         23    2    1    2    0    0 -0.68331856474E+02  0.12512620153E+01  0.88475817881E+02  0.14378318236E+03  0.90414738364E+02 0.  0.
          5    1    3    3  502    0  0.42365941035E+01 -0.34924960568E+02 -0.90051623338E+02  0.96770185832E+02  0.41800000000E+01 0. -1.
         -5    1    3    3    0  502  0.64095262371E+02  0.33673698552E+02 -0.13104860541E+01  0.72534890958E+02  0.41800000000E+01 0. -1.
        -11    1    4    4    0    0 -0.55228539056E+02 -0.11577918567E+01  0.10732140011E+03  0.12070383147E+03  0.00000000000E+00 0.  1.
         11    1    4    4    0    0 -0.13103317418E+02  0.24090538720E+01 -0.18845582233E+02  0.23079350892E+02  0.00000000000E+00 0. -1.
</event>
<event>
 8    1  0.7103328E-009  0.1271180E+03  0.7561462E-02  0.1231796E+00
          1   -1    0    0  501    0  0.00000000000E+00  0.00000000000E+00  0.52478044638E+03  0.52478044638E+03  0.00000000000E+00 0. -1.
         -1   -1    0    0    0  501 -0.00000000000E+00 -0.00000000000E+00 -0.44776658764E+02  0.44776658764E+02  0.00000000000E+00 0.  1.
         25    2    1    2    0    0 -0.54642637547E+02 -0.61818630753E+02  0.38788831586E+03  0.41582596787E+03  0.12508608647E+03 0.  0.
         23    2    1    2    0    0  0.54642637547E+02  0.61818630753E+02  0.92115471760E+02  0.15373113728E+03  0.91327112537E+02 0.  0.
          5    1    3    3  502    0 -0.84671029753E+02 -0.20035665177E+02  0.16012706601E+03  0.18228757727E+03  0.41800000000E+01 0. -1.
         -5    1    3    3    0  502  0.30028392206E+02 -0.41782965576E+02  0.22776124985E+03  0.23353839060E+03  0.41800000000E+01 0. -1.
        -11    1    4    4    0    0 -0.20526898998E+02  0.23254834922E+02  0.33682244568E+01  0.31200735019E+02  0.00000000000E+00 0. -1.
         11    1    4    4    0    0  0.75169536545E+02  0.38563795831E+02  0.88747247303E+02  0.12253040226E+03  0.00000000000E+00 0.  1.
</event>
<event>
 8    1  0.7103328E-009  0.1314435E+03  0.7561462E-02  0.1225329E+00
         -1   -1    0    0    0  501 -0.00000000000E+00  0.00000000000E+00  0.43339190427E+02  0.43339190427E+02  0.00000000000E+00 0.  1.
          1   -1    0    0  501    0  0.00000000000E+00 -0.00000000000E+00 -0.60643967905E+03  0.60643967905E+03  0.00000000000E+00 0. -1.
         25    2    1    2    0    0  0.45304476370E+02  0.69330856246E+02 -0.47871065314E+03  0.50166880023E+03  0.12509369486E+03 0.  0.
         23    2    1    2    0    0 -0.45304476370E+02 -0.69330856246E+02 -0.84389835484E+02  0.14811006924E+03  0.89194647098E+02 0.  0.
          5    1    3    3  502    0 -0.30707021670E+02 -0.16360148343E+02 -0.97970833920E+02  0.10404966282E+03  0.41800000000E+01 0.  1.
         -5    1    3    3    0  502  0.76011498040E+02  0.85691004588E+02 -0.38073981922E+03  0.39761913741E+03  0.41800000000E+01 0.  1.
        -11    1    4    4    0    0 -0.53091046865E+02 -0.82391886072E+02 -0.88819131827E+02  0.13227214494E+03  0.00000000000E+00 0. -1.
         11    1    4    4    0    0  0.77865704950E+01  0.13061029827E+02  0.44292963429E+01  0.15837924305E+02  0.00000000000E+00 0.  1.
</event>
<event>
 8    1  0.7103328E-009  0.1716216E+03  0.7561462E-02  0.1176167E+00
         -3   -1    0    0    0  501 -0.00000000000E+00  0.00000000000E+00  0.14810560917E+03  0.14810560917E+03  0.00000000000E+00 0.  1.
          3   -1    0    0  501    0  0.00000000000E+00 -0.00000000000E+00 -0.26484498499E+03  0.26484498499E+03  0.00000000000E+00 0. -1.
         25    2    1    2    0    0 -0.67723126042E+02  0.14722573698E+03 -0.32630935743E+02  0.20730262124E+03  0.12509100438E+03 0.  0.
         23    2    1    2    0    0  0.67723126042E+02 -0.14722573698E+03 -0.84108440083E+02  0.20564797292E+03  0.94630965557E+02 0.  0.
          5    1    3    3  502    0 -0.31578066324E+02  0.90637387910E+02  0.43709652784E+02  0.10554769778E+03  0.41800000000E+01 0. -1.
         -5    1    3    3    0  502 -0.36145059719E+02  0.56588349072E+02 -0.76340588527E+02  0.10175492346E+03  0.41800000000E+01 0. -1.
        -11    1    4    4    0    0  0.43211394294E+02 -0.15499435060E+02  0.27180600805E+01  0.45987443227E+02  0.00000000000E+00 0.  1.
         11    1    4    4    0    0  0.24511731749E+02 -0.13172630192E+03 -0.86826500163E+02  0.15966052969E+03  0.00000000000E+00 0. -1.
</event>
<event>
 8    1  0.7103328E-009  0.1464868E+03  0.7561462E-02  0.1204858E+00
         -2   -1    0    0    0  501 -0.00000000000E+00  0.00000000000E+00  0.10544398682E+03  0.10544398682E+03  0.00000000000E+00 0.  1.
          2   -1    0    0  501    0  0.00000000000E+00 -0.00000000000E+00 -0.22749912920E+03  0.22749912920E+03  0.00000000000E+00 0. -1.
         25    2    1    2    0    0 -0.48104924760E+02  0.84308629061E+02 -0.11048174445E+03  0.19306104609E+03  0.12507726788E+03 0.  0.
         23    2    1    2    0    0  0.48104924760E+02 -0.84308629061E+02 -0.11573397929E+02  0.13988206993E+03  0.10005509096E+03 0.  0.
          5    1    3    3  502    0 -0.41875632772E+01  0.10582763820E+03 -0.92837492090E+02  0.14090172827E+03  0.41800000000E+01 0.  1.
         -5    1    3    3    0  502 -0.43917361483E+02 -0.21519009137E+02 -0.17644252360E+02  0.52159317818E+02  0.41800000000E+01 0.  1.
        -11    1    4    4    0    0  0.35224290021E+02 -0.10653507189E+03 -0.17379135244E+02  0.11354517379E+03  0.00000000000E+00 0.  1.
         11    1    4    4    0    0  0.12880634739E+02  0.22226442830E+02  0.58057373148E+01  0.26336896133E+02  0.00000000000E+00 0. -1.
</event>
<event>
 8    1  0.7103328E-009  0.1712887E+03  0.7561462E-02  0.1176511E+00
          2   -1    0    0  501    0  0.00000000000E+00  0.00000000000E+00  0.18999586864E+03  0.18999586864E+03  0.00000000000E+00 0. -1.
         -2   -1    0    0    0  501 -0.00000000000E+00 -0.00000000000E+00 -0.23606668824E+03  0.23606668824E+03  0.00000000000E+00 0.  1.
         25    2    1    2    0    0 -0.13140796051E+03 -0.67390515078E+02 -0.12929806747E+03  0.23275377145E+03  0.12508714668E+03 0.  0.
         23    2    1    2    0    0  0.13140796051E+03  0.67390515078E+02  0.83227247877E+02  0.19330878543E+03  0.92908439473E+02 0.  0.
          5    1    3    3  502    0 -0.14599064124E+02 -0.74783292486E+02 -0.47197163403E+02  0.89725794182E+02  0.41800000000E+01 0.  1.
         -5    1    3    3    0  502 -0.11680889639E+03  0.73927774075E+01 -0.82100904071E+02  0.14302797727E+03  0.41800000000E+01 0.  1.
        -11    1    4    4    0    0  0.11363577131E+03  0.49551194547E+02  0.10309321317E+03  0.16123467370E+03  0.00000000000E+00 0. -1.
         11    1    4    4    0    0  0.17772189197E+02  0.17839320532E+02 -0.19865965290E+02  0.32074111723E+02  0.00000000000E+00 0.  1.
</event>
<event>
 8    1  0.7103328E-009  0.1102500E+03  0.7561462E-02  0.1260108E+00
         -1   -1    0    0    0  501 -0.00000000000E+00  0.00000000000E+00  0.32941039977E+02  0.32941039977E+02  0.00000000000E+00 0.  1.
          1   -1    0    0  501    0  0.00000000000E+00 -0.00000000000E+00 -0.65882231150E+03  0.65882231150E+03  0.00000000000E+00 0. -1.
         25    2    1    2    0    0 -0.60711444214E+02 -0.57158203026E+02 -0.21226108770E+03  0.26010606970E+03  0.12508980178E+03 0.  0.
         23    2    1    2    0    0  0.60711444214E+02  0.57158203026E+02 -0.41362018382E+03  0.43165728178E+03  0.91068176751E+02 0.  0.
          5    1    3    3  502    0 -0.26187049731E+02 -0.69608316493E+02 -0.21031550209E+03  0.22311692476E+03  0.41800000000E+01 0. -1.
         -5    1    3    3    0  502 -0.34524394482E+02  0.12450113468E+02 -0.19455856181E+01  0.36989144937E+02  0.41800000000E+01 0. -1.
        -11    1    4    4    0    0  0.15089188501E+02  0.61425890823E+02 -0.33274535530E+03  0.33870384578E+03  0.00000000000E+00 0. -1.
         11    1    4    4    0    0  0.45622255713E+02 -0.42676877968E+01 -0.80874828518E+02  0.92953435995E+02  0.00000000000E+00 0.  1.
</event>
<event>
 8    1  0.7103328E-009  0.8846501E+02  0.7561462E-02  0.1306612E+00
         -2   -1    0    0    0  501 -0.00000000000E+00  0.00000000000E+00  0.10993949023E+02  0.10993949023E+02  0.00000000000E+00 0.  1.
          2   -1    0    0  501    0  0.00000000000E+00 -0.00000000000E+00 -0.11472348939E+04  0.11472348939E+04  0.00000000000E+00 0. -1.
         25    2    1    2    0    0  0.25014781540E+02 -0.17187940377E+02 -0.65813071902E+03  0.67060224193E+03  0.12510059542E+03 0.  0.
         23    2    1    2    0    0 -0.25014781540E+02  0.17187940377E+02 -0.47811022588E+03  0.48762660102E+03  0.90934863160E+02 0.  0.
          5    1    3    3  502    0 -0.99662022049E+01 -0.38701387588E+02 -0.58690766689E+03  0.58828156901E+03  0.41800000000E+01 0.  1.
         -5    1    3    3    0  502  0.34980983745E+02  0.21513447211E+02 -0.71223052131E+02  0.82320672917E+02  0.41800000000E+01 0.  1.
        -11    1    4    4    0    0  0.32780756340E+02  0.18534225082E+02 -0.16732893517E+03  0.17151404617E+03  0.00000000000E+00 0.  1.
         11    1    4    4    0    0 -0.57795537880E+02 -0.13462847056E+01 -0.31078129071E+03  0.31611255485E+03  0.00000000000E+00 0. -1.
</event>
<event>
 8    1  0.7103328E-009  0.2814751E+03  0.7561462E-02  0.1094886E+00
          2   -1    0    0  501    0  0.00000000000E+00  0.00000000000E+00  0.44559109178E+03  0.44559109178E+03  0.00000000000E+00 0. -1.
         -2   -1    0    0    0  501 -0.00000000000E+00 -0.00000000000E+00 -0.20994870863E+03  0.20994870863E+03  0.00000000000E+00 0.  1.
         25    2    1    2    0    0 -0.11569447561E+03 -0.24463516544E+03  0.21652279970E+02  0.29891135523E+03  0.12509037213E+03 0.  0.
         23    2    1    2    0    0  0.11569447561E+03  0.24463516544E+03  0.21399010318E+03  0.35662844518E+03  0.90335528972E+02 0.  0.
          5    1    3    3  502    0 -0.91661390458E+01 -0.14697265829E+03  0.41310026270E+02  0.15299990542E+03  0.41800000000E+01 0.  1.
         -5    1    3    3    0  502 -0.10652833657E+03 -0.97662507158E+02 -0.19657746300E+02  0.14591144981E+03  0.41800000000E+01 0.  1.
        -11    1    4    4    0    0  0.75602097038E+02  0.17624696957E+03  0.95955767236E+02  0.21444388689E+03  0.00000000000E+00 0. -1.
         11    1    4    4    0    0  0.40092378573E+02  0.68388195874E+02  0.11803433594E+03  0.14218455829E+03  0.00000000000E+00 0.  1.
</event>
<event>
 8    1  0.7103328E-009  0.1191852E+03  0.7561462E-02  0.1244447E+00
         -2   -1    0    0    0  501 -0.00000000000E+00  0.00000000000E+00  0.13269195418E+02  0.13269195418E+02  0.00000000000E+00 0.  1.
          2   -1    0    0  501    0  0.00000000000E+00 -0.00000000000E+00 -0.20849792814E+04  0.20849792814E+04  0.00000000000E+00 0. -1.
         25    2    1    2    0    0  0.46257123764E+02 -0.42450871457E+02 -0.17946376300E+04  0.18000875075E+04  0.12509601855E+03 0.  0.
         23    2    1    2    0    0 -0.46257123764E+02  0.42450871457E+02 -0.27707245602E+03  0.29816096930E+03  0.90493202744E+02 0.  0.
          5    1    3    3  502    0  0.86158014291E+02 -0.11968163489E+02 -0.96512206800E+03  0.96904309446E+03  0.41800000000E+01 0. -1.
         -5    1    3    3    0  502 -0.39900890527E+02 -0.30482707967E+02 -0.82951556197E+03  0.83104441307E+03  0.41800000000E+01 0. -1.
        -11    1    4    4    0    0 -0.31446096027E+02 -0.19633634421E+02 -0.49722433116E+02  0.62021422999E+02  0.00000000000E+00 0.  1.
         11    1    4    4    0    0 -0.14811027736E+02  0.62084505878E+02 -0.22735002290E+03  0.23613954630E+03  0.00000000000E+00 0. -1.
</event>
<event>
 8    1  0.7103328E-009  0.9852113E+02  0.7561462E-02  0.1283437E+00
         -2   -1    0    0    0  501 -0.00000000000E+00  0.00000000000E+00  0.16416118741E+03  0.16416118741E+03  0.00000000000E+00 0. -1.
          2   -1    0    0  501    0  0.00000000000E+00 -0.00000000000E+00 -0.92669860960E+02  0.92669860960E+02  0.00000000000E+00 0.  1.
         25    2    1    2    0    0 -0.19594843851E+02  0.47919033813E+02  0.69613362706E+02  0.15222892905E+03  0.12508970728E+03 0.  0.
         23    2    1    2    0    0  0.19594843851E+02 -0.47919033813E+02  0.18779637455E+01  0.10460211932E+03  0.90872905263E+02 0.  0.
          5    1    3    3  502    0 -0.55243851210E+02  0.53754985072E+02  0.41040472428E+01  0.77303280140E+02  0.41800000000E+01 0.  1.
         -5    1    3    3    0  502  0.35649007358E+02 -0.58359512593E+01  0.65509315463E+02  0.74925648914E+02  0.41800000000E+01 0.  1.
        -11    1    4    4    0    0 -0.24323183023E+02 -0.14735950761E+02 -0.29718723493E+02  0.41133538667E+02  0.00000000000E+00 0.  1.
         11    1    4    4    0    0  0.43918026874E+02 -0.33183083052E+02  0.31596687239E+02  0.63468580651E+02  0.00000000000E+00 0. -1.
</event>
<event>
 8    1  0.7103328E-009  0.1354095E+03  0.7561462E-02  0.1219643E+00
         -2   -1    0    0    0  501 -0.00000000000E+00  0.00000000000E+00  0.21822255496E+03  0.21822255496E+03  0.00000000000E+00 0.  1.
          2   -1    0    0  501    0  0.00000000000E+00 -0.00000000000E+00 -0.11281966016E+03  0.11281966016E+03  0.00000000000E+00 0. -1.
         25    2    1    2    0    0  0.91315569851E+02  0.64032520425E+02  0.73625419577E+02  0.18305002381E+03  0.12509161379E+03 0.  0.
         23    2    1    2    0    0 -0.91315569851E+02 -0.64032520425E+02  0.31777475230E+02  0.14799219131E+03  0.91941197445E+02 0.  0.
          5    1    3    3  502    0  0.74654153791E+02  0.88160446671E+02  0.92394585096E+02  0.14798560332E+03  0.41800000000E+01 0.  1.
         -5    1    3    3    0  502  0.16661416060E+02 -0.24127926246E+02 -0.18769165519E+02  0.35064420491E+02  0.41800000000E+01 0.  1.
        -11    1    4    4    0    0 -0.67205169292E+02 -0.73596674473E+02 -0.85638491910E+01  0.10003171890E+03  0.00000000000E+00 0. -1.
         11    1    4    4    0    0 -0.24110400559E+02  0.95641540486E+01  0.40341324421E+02  0.47960472410E+02  0.00000000000E+00 0.  1.
</event>
<event>
 8    1  0.7103328E-009  0.1351576E+03  0.7561462E-02  0.1219997E+00
         -1   -1    0    0    0  501 -0.00000000000E+00  0.00000000000E+00  0.35851656233E+03  0.35851656233E+03  0.00000000000E+00 0.  1.
          1   -1    0    0  501    0  0.00000000000E+00 -0.00000000000E+00 -0.65168359812E+02  0.65168359812E+02  0.00000000000E+00 0. -1.
         25    2    1    2    0    0 -0.52740487516E+02 -0.87248940431E+02  0.11274299383E+03  0.19685665604E+03  0.12509046222E+03 0.  0.
         23    2    1    2    0    0  0.52740487516E+02  0.87248940431E+02  0.18060520869E+03  0.22682826611E+03  0.91863400061E+02 0.  0.
          5    1    3    3  502    0  0.18734402586E+02  0.22268125282E+01  0.73080061108E+02  0.75591694424E+02  0.41800000000E+01 0. -1.
         -5    1    3    3    0  502 -0.71474890102E+02 -0.89475752959E+02  0.39662932724E+02  0.12126496161E+03  0.41800000000E+01 0. -1.
        -11    1    4    4    0    0  0.38896081200E+02 -0.83649139989E+01  0.41757654538E+02  0.57676499820E+02  0.00000000000E+00 0.  1.
         11    1    4    4    0    0  0.13844406316E+02  0.95613854429E+02  0.13884755415E+03  0.16915176629E+03  0.00000000000E+00 0. -1.
</event>
<event>
 8    1  0.7103328E-009  0.1473132E+03  0.7561462E-02  0.1203814E+00
         -1   -1    0    0    0  501 -0.00000000000E+00  0.00000000000E+00  0.13788544040E+03  0.13788544040E+03  0.00000000000E+00 0.  1.
          1   -1    0    0  501    0  0.00000000000E+00 -0.00000000000E+00 -0.23850097445E+03  0.23850097445E+03  0.00000000000E+00 0. -1.
         25    2    1    2    0    0  0.34622144844E+02 -0.13193098090E+03 -0.58434611505E+01  0.18516596965E+03  0.12509122128E+03 0.  0.
         23    2    1    2    0    0 -0.34622144844E+02  0.13193098090E+03 -0.94772072903E+02  0.19122044521E+03  0.94757776620E+02 0.  0.
          5    1    3    3  502    0  0.23863596189E+02 -0.97046712488E+02  0.54954456081E+02  0.11412712329E+03  0.41800000000E+01 0. -1.
         -5    1    3    3    0  502  0.10758548654E+02 -0.34884268410E+02 -0.60797917231E+02  0.71038846354E+02  0.41800000000E+01 0. -1.
        -11    1    4    4    0    0 -0.50507538424E+02  0.39630032445E+02 -0.10152132563E+02  0.64997051508E+02  0.00000000000E+00 0.  1.
         11    1    4    4    0    0  0.15885393580E+02  0.92300948453E+02 -0.84619940340E+02  0.12622339370E+03  0.00000000000E+00 0. -1.
</event>
<event>
 8    1  0.7103328E-009  0.8506498E+02  0.7561462E-02  0.1315263E+00
         -1   -1    0    0    0  501 -0.00000000000E+00  0.00000000000E+00  0.84893579238E+02  0.84893579238E+02  0.00000000000E+00 0.  1.
          1   -1    0    0  501    0  0.00000000000E+00 -0.00000000000E+00 -0.21699732690E+03  0.21699732690E+03  0.00000000000E+00 0. -1.
         25    2    1    2    0    0  0.49759838542E+02 -0.54332175181E+02 -0.31830687070E+02  0.14862133026E+03  0.12508829033E+03 0.  0.
         23    2    1    2    0    0 -0.49759838542E+02  0.54332175181E+02 -0.10027306060E+03  0.15326957588E+03  0.89492175179E+02 0.  0.
          5    1    3    3  502    0  0.50247623165E+02 -0.45099102277E+02  0.38315455457E+02  0.77745091079E+02  0.41800000000E+01 0. -1.
         -5    1    3    3    0  502 -0.48778462300E+00 -0.92330729032E+01 -0.70146142527E+02  0.70876239181E+02  0.41800000000E+01 0. -1.
        -11    1    4    4    0    0 -0.72386155783E+01 -0.11722768168E+02 -0.66238409426E+02  0.67656099003E+02  0.00000000000E+00 0. -1.
         11    1    4    4    0    0 -0.42521222964E+02  0.66054943348E+02 -0.34034651169E+02  0.85613476879E+02  0.00000000000E+00 0.  1.
</event>
<event>
 8    1  0.7103328E-009  0.1499900E+03  0.7561462E-02  0.1200485E+00
         -1   -1    0    0    0  501 -0.00000000000E+00  0.00000000000E+00  0.16209410837E+02  0.16209410837E+02  0.00000000000E+00 0.  1.
          1   -1    0    0  501    0  0.00000000000E+00 -0.00000000000E+00 -0.16016887339E+04  0.16016887339E+04  0.00000000000E+00 0. -1.
         25    2    1    2    0    0 -0.10396700076E+03 -0.52054074491E+02 -0.95973065815E+03  0.97480704491E+03  0.12508826758E+03 0.  0.
         23    2    1    2    0    0  0.10396700076E+03  0.52054074491E+02 -0.62574866487E+03  0.64309109979E+03  0.92119526280E+02 0.  0.
          5    1    3    3  502    0  0.22149005573E+02 -0.52404784113E+01 -0.49051770090E+02  0.54236423286E+02  0.41800000000E+01 0.  1.
         -5    1    3    3    0  502 -0.12611600633E+03 -0.46813596079E+02 -0.91067888806E+03  0.92057062162E+03  0.41800000000E+01 0.  1.
        -11    1    4    4    0    0  0.60245568458E+02 -0.15107480362E+02 -0.18589825966E+03  0.19599981486E+03  0.00000000000E+00 0.  1.
         11    1    4    4    0    0  0.43721432303E+02  0.67161554852E+02 -0.43985040521E+03  0.44709128493E+03  0.00000000000E+00 0. -1.
</event>
<event>
 8    1  0.7103328E-009  0.9615658E+02  0.7561462E-02  0.1288592E+00
         -1   -1    0    0    0  501 -0.00000000000E+00  0.00000000000E+00  0.41227935764E+03  0.41227935764E+03  0.00000000000E+00 0.  1.
          1   -1    0    0  501    0  0.00000000000E+00 -0.00000000000E+00 -0.29752935753E+02  0.29752935753E+02  0.00000000000E+00 0. -1.
         25    2    1    2    0    0 -0.11070939070E+02  0.22392814925E+02  0.22282797437E+03  0.25676039829E+03  0.12509832979E+03 0.  0.
         23    2    1    2    0    0  0.11070939070E+02 -0.22392814925E+02  0.15969844751E+03  0.18527189510E+03  0.90543233450E+02 0.  0.
          5    1    3    3  502    0  0.47789612000E+02  0.29532269284E+02  0.55052446247E+02  0.78767037407E+02  0.41800000000E+01 0.  1.
         -5    1    3    3    0  502 -0.58860551070E+02 -0.71394543598E+01  0.16777552813E+03  0.17799336088E+03  0.41800000000E+01 0.  1.
        -11    1    4    4    0    0 -0.21694197821E+00 -0.48289809717E+02  0.14618782063E+03  0.15395723980E+03  0.00000000000E+00 0. -1.
         11    1    4    4    0    0  0.11287881048E+02  0.25896994792E+02  0.13510626885E+02  0.31314655301E+02  0.00000000000E+00 0.  1.
</event>
<event>
 8    1  0.7103328E-009  0.1193016E+03  0.7561462E-02  0.1244254E+00
         -2   -1    0    0    0  501 -0.00000000000E+00  0.00000000000E+00  0.10857651310E+03  0.10857651310E+03  0.00000000000E+00 0.  1.
          2   -1    0    0  501    0  0.00000000000E+00 -0.00000000000E+00 -0.17567164731E+03  0.17567164731E+03  0.00000000000E+00 0. -1.
         25    2    1    2    0    0  0.41606236627E+01 -0.84135135637E+02 -0.44439581050E+02  0.15721493818E+03  0.12508248713E+03 0.  0.
         23    2    1    2    0    0 -0.41606236627E+01  0.84135135637E+02 -0.22655553164E+02  0.12703322223E+03  0.92347894523E+02 0.  0.
          5    1    3    3  502    0 -0.24852814351E+01  0.30701581861E+02  0.58051528621E+01  0.31621763903E+02  0.41800000000E+01 0.  1.
         -5    1    3    3    0  502  0.66459050978E+01 -0.11483671750E+03 -0.50244733913E+02  0.12559317428E+03  0.41800000000E+01 0.  1.
        -11    1    4    4    0    0  0.15686173595E+02  0.20862234491E+02  0.31861305293E+02  0.41187760864E+02  0.00000000000E+00 0.  1.
         11    1    4    4    0    0 -0.19846797258E+02  0.63272901146E+02 -0.54516858458E+02  0.85845461365E+02  0.00000000000E+00 0. -1.
</event>
<event>
 8    1  0.7103328E-009  0.1195399E+03  0.7561462E-02  0.1243858E+00
          1   -1    0    0  501    0  0.00000000000E+00  0.00000000000E+00  0.83470989080E+02  0.83470989080E+02  0.00000000000E+00 0. -1.
         -1   -1    0    0    0  501 -0.00000000000E+00 -0.00000000000E+00 -0.31035134538E+03  0.31035134538E+03  0.00000000000E+00 0.  1.
         25    2    1    2    0    0  0.35636767572E+02  0.10364800422E+03 -0.17596898322E+03  0.24212683904E+03  0.12508970839E+03 0.  0.
         23    2    1    2    0    0 -0.35636767572E+02 -0.10364800422E+03 -0.50911373082E+02  0.15169549542E+03  0.91687880552E+02 0.  0.
          5    1    3    3  502    0  0.33450645597E+02  0.61244404370E+02 -0.18565056554E+03  0.19837698365E+03  0.41800000000E+01 0. -1.
         -5    1    3    3    0  502  0.21861219758E+01  0.42403599851E+02  0.96815823254E+01  0.43749855382E+02  0.41800000000E+01 0. -1.
        -11    1    4    4    0    0 -0.52976074567E+02 -0.62997480289E+02 -0.65461089616E+02  0.10516796686E+03  0.00000000000E+00 0.  1.
         11    1    4    4    0    0  0.17339306995E+02 -0.40650523932E+02  0.14549716534E+02  0.46527528564E+02  0.00000000000E+00 0. -1.
</event>
<event>
 8    1  0.7103328E-009  0.1171120E+03  0.7561462E-02  0.1247939E+00
         -1   -1    0    0    0  501 -0.00000000000E+00  0.00000000000E+00  0.33919456265E+02  0.33919456265E+02  0.00000000000E+00 0.  1.
          1   -1    0    0  501    0  0.00000000000E+00 -0.00000000000E+00 -0.78616176557E+03  0.78616176557E+03  0.00000000000E+00 0. -1.
         25    2    1    2    0    0  0.70521857356E+02  0.62258332329E+02 -0.59083140426E+03  0.61120976151E+03  0.12508473923E+03 0.  0.
         23    2    1    2    0    0 -0.70521857356E+02 -0.62258332329E+02 -0.16141090504E+03  0.20887146033E+03  0.93404359448E+02 0.  0.
          5    1    3    3  502    0 -0.23181176419E+02 -0.42459252665E+01 -0.28376836751E+02  0.37122932071E+02  0.41800000000E+01 0.  1.
         -5    1    3    3    0  502  0.93703033775E+02  0.66504257595E+02 -0.56245456751E+03  0.57408682943E+03  0.41800000000E+01 0.  1.
        -11    1    4    4    0    0 -0.32246086648E+02 -0.38660160368E+02 -0.15558851165E+03  0.16353043467E+03  0.00000000000E+00 0. -1.
         11    1    4    4    0    0 -0.38275770707E+02 -0.23598171961E+02 -0.58223933866E+01  0.45341025660E+02  0.00000000000E+00 0.  1.
</event>
<event>
 8    1  0.7103328E-009  0.1057971E+03  0.7561462E-02  0.1268557E+00
          2   -1    0    0  501    0  0.00000000000E+00  0.00000000000E+00  0.33471812362E+03  0.33471812362E+03  0.00000000000E+00 0. -1.
         -2   -1    0    0    0  501 -0.00000000000E+00 -0.00000000000E+00 -0.37889280504E+02  0.37889280504E+02  0.00000000000E+00 0.  1.
         25    2    1    2    0    0 -0.14826585876E+00  0.17830391206E+02  0.12785334350E+03  0.17976565625E+03  0.12510503143E+03 0.  0.
         23    2    1    2    0    0  0.14826585876E+00 -0.17830391206E+02  0.16897549961E+03  0.19284174787E+03  0.91199097697E+02 0.  0.
          5    1    3    3  502    0 -0.62323475592E+02  0.70346092383E+01  0.69573977033E+02  0.93764129694E+02  0.41800000000E+01 0.  1.
         -5    1    3    3    0  502  0.62175209733E+02  0.10795781968E+02  0.58279366469E+02  0.86001526554E+02  0.41800000000E+01 0.  1.
        -11    1    4    4    0    0 -0.32257068695E+02  0.18196462986E+02  0.37432540851E+02  0.52657619207E+02  0.00000000000E+00 0.  1.
         11    1    4    4    0    0  0.32405334554E+02 -0.36026854192E+02  0.13154295876E+03  0.14018412867E+03  0.00000000000E+00 0. -1.
</event>
<event>
 8    1  0.7103328E-009  0.1599793E+03  0.7561462E-02  0.1188720E+00
          1   -1    0    0  501    0  0.00000000000E+00  0.00000000000E+00  0.84128828074E+03  0.84128828074E+03  0.00000000000E+00 0. -1.
         -1   -1    0    0    0  501 -0.00000000000E+00 -0.00000000000E+00 -0.35326569576E+02  0.35326569576E+02  0.00000000000E+00 0.  1.
         25    2    1    2    0    0 -0.67638834424E+02  0.11515954843E+03  0.41379763405E+03  0.45245131525E+03  0.12508787796E+03 0.  0.
         23    2    1    2    0    0  0.67638834424E+02 -0.11515954843E+03  0.39216407712E+03  0.42416353506E+03  0.91023664954E+02 0.  0.
          5    1    3    3  502    0 -0.59020530096E+02  0.19536328336E+02  0.28511195330E+03  0.29184137714E+03  0.41800000000E+01 0. -1.
         -5    1    3    3    0  502 -0.86183043274E+01  0.95623220092E+02  0.12868568075E+03  0.16060993811E+03  0.41800000000E+01 0. -1.
        -11    1    4    4    0    0  0.27349674485E+01 -0.92887323678E+02  0.21910534402E+03  0.23799724101E+03  0.00000000000E+00 0.  1.
         11    1    4    4    0    0  0.64903866975E+02 -0.22272224749E+02  0.17305873309E+03  0.18616629406E+03  0.00000000000E+00 0. -1.
</event>
<event>
 8    1  0.7103328E-009  0.1146976E+03  0.7561462E-02  0.1252110E+00
          2   -1    0    0  501    0  0.00000000000E+00  0.00000000000E+00  0.14068578887E+03  0.14068578887E+03  0.00000000000E+00 0.  1.
         -2   -1    0    0    0  501 -0.00000000000E+00 -0.00000000000E+00 -0.11076186730E+03  0.11076186730E+03  0.00000000000E+00 0. -1.
         25    2    1    2    0    0 -0.31619480486E+02  0.28061308847E+02  0.61379391687E+02  0.14561168456E+03  0.12509238328E+03 0.  0.
         23    2    1    2    0    0  0.31619480486E+02 -0.28061308847E+02 -0.31455470121E+02  0.10583597162E+03  0.91785498241E+02 0.  0.
          5    1    3    3  502    0  0.36499995773E+02  0.45542840906E+02  0.12415392578E+02  0.59816506268E+02  0.41800000000E+01 0.  1.
         -5    1    3    3    0  502 -0.68119476259E+02 -0.17481532059E+02  0.48963999109E+02  0.85795178289E+02  0.41800000000E+01 0.  1.
        -11    1    4    4    0    0 -0.60700270126E+01  0.30330176303E+02 -0.15186050013E+02  0.34458394297E+02  0.00000000000E+00 0.  1.
         11    1    4    4    0    0  0.37689507498E+02 -0.58391485150E+02 -0.16269420108E+02  0.71377577321E+02  0.00000000000E+00 0. -1.
</event>
<event>
 8    1  0.7103328E-009  0.9200628E+02  0.7561462E-02  0.1298065E+00
          2   -1    0    0  501    0  0.00000000000E+00  0.00000000000E+00  0.80740059085E+03  0.80740059085E+03  0.00000000000E+00 0. -1.
         -2   -1    0    0    0  501 -0.00000000000E+00 -0.00000000000E+00 -0.21293614386E+02  0.21293614386E+02  0.00000000000E+00 0.  1.
         25    2    1    2    0    0 -0.69898407028E+02 -0.19570144308E+02  0.46362862897E+03  0.48566597434E+03  0.12510457695E+03 0.  0.
         23    2    1    2    0    0  0.69898407028E+02  0.19570144308E+02  0.32247834749E+03  0.34302823089E+03  0.91691355861E+02 0.  0.
          5    1    3    3  502    0 -0.11434054463E+01  0.15468492668E+02  0.33655098695E+03  0.33693414915E+03  0.41800000000E+01 0. -1.
         -5    1    3    3    0  502 -0.68755001582E+02 -0.35038636977E+02  0.12707764202E+03  0.14873182519E+03  0.41800000000E+01 0. -1.
        -11    1    4    4    0    0  0.50836492480E+02  0.38525006668E+02  0.30347940904E+03  0.31011010435E+03  0.00000000000E+00 0. -1.
         11    1    4    4    0    0  0.19061914548E+02 -0.18954862360E+02  0.18998938446E+02  0.32918126548E+02  0.00000000000E+00 0.  1.
</event>
<event>
 8    1  0.7103328E-009  0.6324178E+02  0.7561462E-02  0.1384710E+00
          2   -1    0    0  501    0  0.00000000000E+00  0.00000000000E+00  0.46785682885E+03  0.46785682885E+03  0.00000000000E+00 0. -1.
         -2   -1    0    0    0  501 -0.00000000000E+00 -0.00000000000E+00 -0.31104700424E+02  0.31104700424E+02  0.00000000000E+00 0.  1.
         25    2    1    2    0    0 -0.28283756013E+01 -0.47372730452E+02  0.29231516380E+03  0.32147148217E+03  0.12507431216E+03 0.  0.
         23    2    1    2    0    0  0.28283756013E+01  0.47372730452E+02  0.14443696462E+03  0.17749004710E+03  0.91588780820E+02 0.  0.
          5    1    3    3  502    0 -0.19750320651E+02 -0.51233638228E+01  0.26965575480E+03  0.27045891096E+03  0.41800000000E+01 0.  1.
         -5    1    3    3    0  502  0.16921945050E+02 -0.42249366630E+02  0.22659409002E+02  0.51012571208E+02  0.41800000000E+01 0.  1.
        -11    1    4    4    0    0 -0.15869261605E+02  0.32104311964E+02  0.14872191906E+03  0.15297296990E+03  0.00000000000E+00 0. -1.
         11    1    4    4    0    0  0.18697637206E+02  0.15268418488E+02 -0.42849544360E+01  0.24517077206E+02  0.00000000000E+00 0.  1.
</event>
<event>
 8    1  0.7103328E-009  0.1493605E+03  0.7561462E-02  0.1201261E+00
         -2   -1    0    0    0  501 -0.00000000000E+00  0.00000000000E+00  0.40042946723E+02  0.40042946723E+02  0.00000000000E+00 0.  1.
          2   -1    0    0  501    0  0.00000000000E+00 -0.00000000000E+00 -0.73508365888E+03  0.73508365888E+03  0.00000000000E+00 0. -1.
         25    2    1    2    0    0  0.12813454040E+02  0.11495364083E+03 -0.51619403008E+03  0.54358186908E+03  0.12508576085E+03 0.  0.
         23    2    1    2    0    0 -0.12813454040E+02 -0.11495364083E+03 -0.17884668208E+03  0.23154473652E+03  0.90820180436E+02 0.  0.
          5    1    3    3  502    0 -0.42833474209E+02  0.55596035809E+02 -0.36622194261E+03  0.37290965308E+03  0.41800000000E+01 0. -1.
         -5    1    3    3    0  502  0.55646928249E+02  0.59357605018E+02 -0.14997208747E+03  0.17067221600E+03  0.41800000000E+01 0. -1.
        -11    1    4    4    0    0  0.28111263609E+02 -0.99175676946E+02 -0.12117992510E+03  0.15909315601E+03  0.00000000000E+00 0.  1.
         11    1    4    4    0    0 -0.40924717648E+02 -0.15777963882E+02 -0.57666756973E+02  0.72451580512E+02  0.00000000000E+00 0. -1.
</event>
<event>
 8    1  0.7103328E-009  0.1396597E+03  0.7561462E-02  0.1213788E+00
         -1   -1    0    0    0  501 -0.00000000000E+00  0.00000000000E+00  0.19452226804E+03  0.19452226804E+03  0.00000000000E+00 0.  1.
          1   -1    0    0  501    0  0.00000000000E+00 -0.00000000000E+00 -0.25556987066E+03  0.25556987066E+03  0.00000000000E+00 0. -1.
         25    2    1    2    0    0 -0.48952423483E+02  0.92004510019E+02  0.13347259372E+03  0.21053391909E+03  0.12509367763E+03 0.  0.
         23    2    1    2    0    0  0.48952423483E+02 -0.92004510019E+02 -0.19452019634E+03  0.23955821962E+03  0.93214077124E+02 0.  0.
          5    1    3    3  502    0 -0.86945951126E+02  0.63035250842E+02  0.60850529844E+02  0.12350425356E+03  0.41800000000E+01 0. -1.
         -5    1    3    3    0  502  0.37993527644E+02  0.28969259177E+02  0.72622063872E+02  0.87029665524E+02  0.41800000000E+01 0. -1.
        -11    1    4    4    0    0 -0.11849658764E+02 -0.46378749946E+02 -0.13430788983E+03  0.14258335152E+03  0.00000000000E+00 0.  1.
         11    1    4    4    0    0  0.60802082247E+02 -0.45625760073E+02 -0.60212306506E+02  0.96974868098E+02  0.00000000000E+00 0. -1.
</event>
<event>
 8    1  0.7103328E-009  0.9164647E+02  0.7561462E-02  0.1298913E+00
          2   -1    0    0  501    0  0.00000000000E+00  0.00000000000E+00  0.12258764987E+03  0.12258764987E+03  0.00000000000E+00 0. -1.
         -2   -1    0    0    0  501 -0.00000000000E+00 -0.00000000000E+00 -0.13689754530E+03  0.13689754530E+03  0.00000000000E+00 0.  1.
         25    2    1    2    0    0 -0.35057317707E+01  0.48723953181E+02 -0.59585660953E+02  0.14691184698E+03  0.12508527501E+03 0.  0.
         23    2    1    2    0    0  0.35057317707E+01 -0.48723953181E+02  0.45275765524E+02  0.11257334819E+03  0.90755440666E+02 0.  0.
          5    1    3    3  502    0 -0.74522598773E+01 -0.18451114237E+02  0.29105215552E+02  0.35504447132E+02  0.41800000000E+01 0. -1.
         -5    1    3    3    0  502  0.39465281065E+01  0.67175067417E+02 -0.88690876505E+02  0.11140739985E+03  0.41800000000E+01 0. -1.
        -11    1    4    4    0    0 -0.35315625742E+02 -0.44017141844E+02  0.53492024552E+01  0.56686119681E+02  0.00000000000E+00 0.  1.
         11    1    4    4    0    0  0.38821357512E+02 -0.47068113365E+01  0.39926563069E+02  0.55887228510E+02  0.00000000000E+00 0. -1.
</event>
<event>
 8    1  0.7103328E-009  0.1219042E+03  0.7561462E-02  0.1239988E+00
          1   -1    0    0  501    0  0.00000000000E+00  0.00000000000E+00  0.30291137844E+02  0.30291137844E+02  0.00000000000E+00 0. -1.
         -1   -1    0    0    0  501 -0.00000000000E+00 -0.00000000000E+00 -0.54134882945E+03  0.54134882945E+03  0.00000000000E+00 0.  1.
         25    2    1    2    0    0  0.69823112845E+01 -0.62026898616E+02 -0.22203131560E+03  0.26237477125E+03  0.12508607700E+03 0.  0.
         23    2    1    2    0    0 -0.69823112845E+01  0.62026898616E+02 -0.28902637600E+03  0.30926519604E+03  0.90623543486E+02 0.  0.
          5    1    3    3  502    0 -0.47422219603E+02  0.93784614659E+01 -0.60777061677E+02  0.77769827553E+02  0.41800000000E+01 0.  1.
         -5    1    3    3    0  502  0.54404530888E+02 -0.71405360081E+02 -0.16125425393E+03  0.18460494370E+03  0.41800000000E+01 0.  1.
        -11    1    4    4    0    0  0.36138431604E+02  0.47984820275E+02 -0.20696813542E+03  0.21550948539E+03  0.00000000000E+00 0.  1.
         11    1    4    4    0    0 -0.43120742888E+02  0.14042078341E+02 -0.82058240584E+02  0.93755710648E+02  0.00000000000E+00 0. -1.
</event>
<event>
 8    1  0.7103328E-009  0.2262439E+03  0.7561462E-02  0.1129312E+00
         -1   -1    0    0    0  501 -0.00000000000E+00  0.00000000000E+00  0.20453978741E+03  0.20453978741E+03  0.00000000000E+00 0.  1.
          1   -1    0    0  501    0  0.00000000000E+00 -0.00000000000E+00 -0.26059477599E+03  0.26059477599E+03  0.00000000000E+00 0. -1.
         25    2    1    2    0    0 -0.76259292065E+02  0.18869783465E+03 -0.42573855261E+02  0.24264773321E+03  0.12507212660E+03 0.  0.
         23    2    1    2    0    0  0.76259292065E+02 -0.18869783465E+03 -0.13481133314E+02  0.22248683019E+03  0.88861106359E+02 0.  0.
          5    1    3    3  502    0 -0.65882571157E+02  0.26397725074E+02  0.97329673262E+01  0.71760407777E+02  0.41800000000E+01 0. -1.
         -5    1    3    3    0  502 -0.10376720908E+02  0.16230010958E+03 -0.52306822587E+02  0.17088732544E+03  0.41800000000E+01 0. -1.
        -11    1    4    4    0    0  0.93260157005E+02 -0.16513258157E+03 -0.24881229437E+02  0.19127284690E+03  0.00000000000E+00 0. -1.
         11    1    4    4    0    0 -0.17000864940E+02 -0.23565253081E+02  0.11400096123E+02  0.31213983294E+02  0.00000000000E+00 0.  1.
</event>
<event>
 8    1  0.7103328E-009  0.1293366E+03  0.7561462E-02  0.1228443E+00
          1   -1    0    0  501    0  0.00000000000E+00  0.00000000000E+00  0.11595380333E+03  0.11595380333E+03  0.00000000000E+00 0. -1.
         -1   -1    0    0    0  501 -0.00000000000E+00 -0.00000000000E+00 -0.23890266201E+03  0.23890266201E+03  0.00000000000E+00 0.  1.
         25    2    1    2    0    0  0.11614123203E+03 -0.43735895620E+02 -0.95778942358E+02  0.20054816660E+03  0.12507736400E+03 0.  0.
         23    2    1    2    0    0 -0.11614123203E+03  0.43735895620E+02 -0.27169916330E+02  0.15430829874E+03  0.87585571662E+02 0.  0.
          5    1    3    3  502    0  0.34796445813E+02 -0.39082715456E+02 -0.10603808383E+03  0.11832074590E+03  0.41800000000E+01 0. -1.
         -5    1    3    3    0  502  0.81344786218E+02 -0.46531801642E+01  0.10259141474E+02  0.82227420696E+02  0.41800000000E+01 0. -1.
        -11    1    4    4    0    0 -0.75460987795E+02  0.33985238289E+02 -0.59088153667E+02  0.10168956192E+03  0.00000000000E+00 0. -1.
         11    1    4    4    0    0 -0.40680244237E+02  0.97506573312E+01  0.31918237336E+02  0.52618736817E+02  0.00000000000E+00 0.  1.
</event>
<event>
 8    1  0.7103328E-009  0.8913066E+02  0.7561462E-02  0.1304971E+00
          1   -1    0    0  501    0  0.00000000000E+00  0.00000000000E+00  0.72012430786E+03  0.72012430786E+03  0.00000000000E+00 0. -1.
         -1   -1    0    0    0  501 -0.00000000000E+00 -0.00000000000E+00 -0.19501500308E+02  0.19501500308E+02  0.00000000000E+00 0.  1.
         25    2    1    2    0    0 -0.25950458733E+02  0.38413187504E+02  0.50597855760E+03  0.52327003763E+03  0.12509289446E+03 0.  0.
         23    2    1    2    0    0  0.25950458733E+02 -0.38413187504E+02  0.19464424995E+03  0.21635577054E+03  0.82306962794E+02 0.  0.
          5    1    3    3  502    0 -0.11526671162E+02  0.79856955193E+02  0.40667034903E+03  0.41461818897E+03  0.41800000000E+01 0. -1.
         -5    1    3    3    0  502 -0.14423787571E+02 -0.41443767690E+02  0.99308208570E+02  0.10865184866E+03  0.41800000000E+01 0. -1.
        -11    1    4    4    0    0  0.29026618758E+02 -0.21307147560E+02  0.19566002526E+03  0.19894568259E+03  0.00000000000E+00 0. -1.
         11    1    4    4    0    0 -0.30761600243E+01 -0.17106039944E+02 -0.10157753127E+01  0.17410087953E+02  0.00000000000E+00 0.  1.
</event>
<event>
 8    1  0.7103328E-009  0.9029946E+02  0.7561462E-02  0.1302128E+00
          2   -1    0    0  501    0  0.00000000000E+00  0.00000000000E+00  0.42411045783E+03  0.42411045783E+03  0.00000000000E+00 0. -1.
         -2   -1    0    0    0  501 -0.00000000000E+00 -0.00000000000E+00 -0.63652693069E+02  0.63652693069E+02  0.00000000000E+00 0.  1.
         25    2    1    2    0    0  0.36459322871E+02 -0.29596828312E+02  0.36031558266E+03  0.38429196276E+03  0.12509092319E+03 0.  0.
         23    2    1    2    0    0 -0.36459322871E+02  0.29596828312E+02  0.14218209791E+00  0.10347118813E+03  0.92200933225E+02 0.  0.
          5    1    3    3  502    0 -0.12750651935E+02 -0.30791480092E+02  0.17383820156E+02  0.37820153017E+02  0.41800000000E+01 0. -1.
         -5    1    3    3    0  502  0.49209974806E+02  0.11946517803E+01  0.34293176251E+03  0.34647180975E+03  0.41800000000E+01 0. -1.
        -11    1    4    4    0    0 -0.57925825033E+02 -0.36429395584E+01  0.16973649609E+02  0.60471290671E+02  0.00000000000E+00 0.  1.
         11    1    4    4    0    0  0.21466502162E+02  0.33239767870E+02 -0.16831467511E+02  0.42999897462E+02  0.00000000000E+00 0. -1.
</event>
<event>
 8    1  0.7103328E-009  0.1232767E+03  0.7561462E-02  0.1237787E+00
          1   -1    0    0  501    0  0.00000000000E+00  0.00000000000E+00  0.19947222702E+03  0.19947222702E+03  0.00000000000E+00 0. -1.
         -1   -1    0    0    0  501 -0.00000000000E+00 -0.00000000000E+00 -0.10022281787E+03  0.10022281787E+03  0.00000000000E+00 0.  1.
         25    2    1    2    0    0  0.12387717611E+01 -0.84849381594E+02  0.83642072003E+02  0.17275394678E+03  0.12508788034E+03 0.  0.
         23    2    1    2    0    0 -0.12387717611E+01  0.84849381594E+02  0.15607337146E+02  0.12694109811E+03  0.93110156828E+02 0.  0.
          5    1    3    3  502    0 -0.12829732340E+01 -0.11704387200E+03  0.55038962880E+02  0.12941280395E+03  0.41800000000E+01 0. -1.
         -5    1    3    3    0  502  0.25217449951E+01  0.32194490403E+02  0.28603109123E+02  0.43341142828E+02  0.41800000000E+01 0. -1.
        -11    1    4    4    0    0  0.19258978698E+02  0.16027232387E+02  0.43259128109E+02  0.49991325280E+02  0.00000000000E+00 0. -1.
         11    1    4    4    0    0 -0.20497750459E+02  0.68822149207E+02 -0.27651790963E+02  0.76949772832E+02  0.00000000000E+00 0.  1.
</event>
<event>
 8    1  0.7103328E-009  0.1761864E+03  0.7561462E-02  0.1171546E+00
          1   -1    0    0  501    0  0.00000000000E+00  0.00000000000E+00  0.14108896957E+03  0.14108896957E+03  0.00000000000E+00 0. -1.
         -1   -1    0    0    0  501 -0.00000000000E+00 -0.00000000000E+00 -0.22917959577E+03  0.22917959577E+03  0.00000000000E+00 0.  1.
         25    2    1    2    0    0  0.13723365372E+03  0.44344212630E+02 -0.47011585062E+02  0.19661612297E+03  0.12509326831E+03 0.  0.
         23    2    1    2    0    0 -0.13723365372E+03 -0.44344212630E+02 -0.41079041146E+02  0.17365244236E+03  0.87568248867E+02 0.  0.
          5    1    3    3  502    0 -0.13611003436E+01 -0.32100624113E+02 -0.11208643320E+02  0.34284234681E+02  0.41800000000E+01 0. -1.
         -5    1    3    3    0  502  0.13859475407E+03  0.76444836743E+02 -0.35802941742E+02  0.16233188829E+03  0.41800000000E+01 0. -1.
        -11    1    4    4    0    0 -0.17229123085E+02 -0.37699306307E+02  0.10663381168E+02  0.42799393410E+02  0.00000000000E+00 0.  1.
         11    1    4    4    0    0 -0.12000453064E+03 -0.66449063235E+01 -0.51742422314E+02  0.13085304895E+03  0.00000000000E+00 0. -1.
</event>
<event>
 8    1  0.7103328E-009  0.2919316E+03  0.7561462E-02  0.1089345E+00
         -2   -1    0    0    0  501 -0.00000000000E+00  0.00000000000E+00  0.11258177322E+03  0.11258177322E+03  0.00000000000E+00 0.  1.
          2   -1    0    0  501    0  0.00000000000E+00 -0.00000000000E+00 -0.86310981233E+03  0.86310981233E+03  0.00000000000E+00 0. -1.
         25    2    1    2    0    0 -0.25546161801E+03  0.13948209605E+03 -0.34484003317E+03  0.46827295352E+03  0.12509603160E+03 0.  0.
         23    2    1    2    0    0  0.25546161801E+03 -0.13948209605E+03 -0.40568800594E+03  0.50741863204E+03  0.90415798277E+02 0.  0.
          5    1    3    3  502    0 -0.19390717016E+03  0.99490400891E+02 -0.32635984607E+03  0.39246216637E+03  0.41800000000E+01 0.  1.
         -5    1    3    3    0  502 -0.61554447853E+02  0.39991695154E+02 -0.18480187104E+02  0.75810787143E+02  0.41800000000E+01 0.  1.
        -11    1    4    4    0    0  0.22856651688E+03 -0.11446436085E+03 -0.29270263460E+03  0.38861237094E+03  0.00000000000E+00 0.  1.
         11    1    4    4    0    0  0.26895101132E+02 -0.25017735194E+02 -0.11298537134E+03  0.11880626110E+03  0.00000000000E+00 0. -1.
</event>
<event>
 8    1  0.7103328E-009  0.1148581E+03  0.7561462E-02  0.1251829E+00
          1   -1    0    0  501    0  0.00000000000E+00  0.00000000000E+00  0.39734115002E+02  0.39734115002E+02  0.00000000000E+00 0. -1.
         -1   -1    0    0    0  501 -0.00000000000E+00 -0.00000000000E+00 -0.34721794778E+03  0.34721794778E+03  0.00000000000E+00 0.  1.
         25    2    1    2    0    0  0.42812913950E+02 -0.15755590584E+02 -0.13889411199E+03  0.19240610963E+03  0.12508937782E+03 0.  0.
         23    2    1    2    0    0 -0.42812913950E+02  0.15755590584E+02 -0.16858972079E+03  0.19454595315E+03  0.85699764858E+02 0.  0.
          5    1    3    3  502    0  0.59131333664E+01  0.53773534494E+02 -0.53692438464E+02  0.76334189629E+02  0.41800000000E+01 0.  1.
         -5    1    3    3    0  502  0.36899780583E+02 -0.69529125078E+02 -0.85201673527E+02  0.11607192000E+03  0.41800000000E+01 0.  1.
        -11    1    4    4    0    0  0.25052786522E+02 -0.52366794191E+01 -0.53318597049E+02  0.59143365774E+02  0.00000000000E+00 0.  1.
         11    1    4    4    0    0 -0.67865700472E+02  0.20992270003E+02 -0.11527112374E+03  0.13540258738E+03  0.00000000000E+00 0. -1.
</event>
<event>
 8    1  0.7103328E-009  0.2167602E+03  0.7561462E-02  0.1136322E+00
         -2   -1    0    0    0  501 -0.00000000000E+00  0.00000000000E+00  0.38837358971E+03  0.38837358971E+03  0.00000000000E+00 0.  1.
          2   -1    0    0  501    0  0.00000000000E+00 -0.00000000000E+00 -0.21965800268E+03  0.21965800268E+03  0.00000000000E+00 0. -1.
         25    2    1    2    0    0 -0.17734317078E+03  0.73739246757E+02 -0.11244003304E+03  0.25530030400E+03  0.12508959771E+03 0.  0.
         23    2    1    2    0    0  0.17734317078E+03 -0.73739246757E+02  0.28115562008E+03  0.35273128839E+03  0.92102130105E+02 0.  0.
          5    1    3    3  502    0 -0.46994774628E+02  0.86125565686E+02 -0.48718031403E+02  0.10962226458E+03  0.41800000000E+01 0. -1.
         -5    1    3    3    0  502 -0.13034839616E+03 -0.12386318928E+02 -0.63722001641E+02  0.14567803942E+03  0.41800000000E+01 0. -1.
        -11    1    4    4    0    0  0.62608577656E+02 -0.63421724957E+02  0.74586869763E+02  0.11621252228E+03  0.00000000000E+00 0. -1.
         11    1    4    4    0    0  0.11473459313E+03 -0.10317521801E+02  0.20656875032E+03  0.23651876611E+03  0.00000000000E+00 0.  1.
</event>
<event>
 8    1  0.7103328E-009  0.1036282E+03  0.7561462E-02  0.1272846E+00
         -2   -1    0    0    0  501 -0.00000000000E+00  0.00000000000E+00  0.37657437924E+02  0.37657437924E+02  0.00000000000E+00 0.  1.
          2   -1    0    0  501    0  0.00000000000E+00 -0.00000000000E+00 -0.55843238868E+03  0.55843238868E+03  0.00000000000E+00 0. -1.
         25    2    1    2    0    0  0.32926296704E+02  0.83679652884E+01 -0.46410043860E+03  0.48186195204E+03  0.12509020686E+03 0.  0.
         23    2    1    2    0    0 -0.32926296704E+02 -0.83679652884E+01 -0.56674512155E+02  0.11422787457E+03  0.93176408722E+02 0.  0.
          5    1    3    3  502    0  0.17370766888E+02 -0.47210370625E+02 -0.35304426718E+03  0.35663467249E+03  0.41800000000E+01 0.  1.
         -5    1    3    3    0  502  0.15555529817E+02  0.55578335913E+02 -0.11105617142E+03  0.12522727954E+03  0.41800000000E+01 0.  1.
        -11    1    4    4    0    0 -0.36170638751E+01 -0.48822913303E+02 -0.32213635064E+02  0.58604422175E+02  0.00000000000E+00 0. -1.
         11    1    4    4    0    0 -0.29309232829E+02  0.40454948015E+02 -0.24460877091E+02  0.55623452392E+02  0.00000000000E+00 0.  1.
</event>
<event>
 8    1  0.7103328E-009  0.1027484E+03  0.7561462E-02  0.1274620E+00
          1   -1    0    0  501    0  0.00000000000E+00  0.00000000000E+00  0.12745372979E+04  0.12745372979E+04  0.00000000000E+00 0. -1.
         -1   -1    0    0    0  501 -0.00000000000E+00 -0.00000000000E+00 -0.11812336224E+02  0.11812336224E+02  0.00000000000E+00 0.  1.
         25    2    1    2    0    0 -0.50647072535E+00  0.17964522114E+01  0.10044868303E+04  0.10122470306E+04  0.12508706905E+03 0.  0.
         23    2    1    2    0    0  0.50647072535E+00 -0.17964522114E+01  0.25823813136E+03  0.27410260356E+03  0.91879383105E+02 0.  0.
          5    1    3    3  502    0  0.48236619848E+02  0.30194269515E+02  0.71577923422E+03  0.71805003304E+03  0.41800000000E+01 0.  1.
         -5    1    3    3    0  502 -0.48743090573E+02 -0.28397817304E+02  0.28870759610E+03  0.29419699752E+03  0.41800000000E+01 0.  1.
        -11    1    4    4    0    0  0.32010181626E+02  0.32280667651E+02  0.13123701208E+03  0.13888789210E+03  0.00000000000E+00 0. -1.
         11    1    4    4    0    0 -0.31503710901E+02 -0.34077119863E+02  0.12700111927E+03  0.13521471146E+03  0.00000000000E+00 0.  1.
</event>
<event>
 8    1  0.7103328E-009  0.1374609E+03  0.7561462E-02  0.1216787E+00
         -2   -1    0    0    0  501 -0.00000000000E+00  0.00000000000E+00  0.14788033983E+02  0.14788033983E+02  0.00000000000E+00 0.  1.
          2   -1    0    0  501    0  0.00000000000E+00 -0.00000000000E+00 -0.13608702963E+04  0.13608702963E+04  0.00000000000E+00 0. -1.
         25    2    1    2    0    0 -0.86214497081E+02  0.20150966565E+02 -0.82867916824E+03  0.84273122806E+03  0.12509099857E+03 0.  0.
         23    2    1    2    0    0  0.86214497081E+02 -0.20150966565E+02 -0.51740309405E+03  0.53292710219E+03  0.92012681495E+02 0.  0.
          5    1    3    3  502    0 -0.58326696478E+02  0.69586779689E+02 -0.61150992749E+03  0.61822826468E+03  0.41800000000E+01 0. -1.
         -5    1    3    3    0  502 -0.27887800602E+02 -0.49435813125E+02 -0.21716924075E+03  0.22450296338E+03  0.41800000000E+01 0. -1.
        -11    1    4    4    0    0  0.10240544002E+03 -0.31730580740E+02 -0.45325606361E+03  0.46576256086E+03  0.00000000000E+00 0.  1.
         11    1    4    4    0    0 -0.16190942940E+02  0.11579614176E+02 -0.64147030435E+02  0.67164541325E+02  0.00000000000E+00 0. -1.
</event>
<event>
 8    1  0.7103328E-009  0.9493403E+02  0.7561462E-02  0.1291325E+00
         -2   -1    0    0    0  501 -0.00000000000E+00  0.00000000000E+00  0.22073132487E+03  0.22073132487E+03  0.00000000000E+00 0. -1.
          2   -1    0    0  501    0  0.00000000000E+00 -0.00000000000E+00 -0.80360706090E+02  0.80360706090E+02  0.00000000000E+00 0.  1.
         25    2    1    2    0    0 -0.54298923307E+02 -0.23249152511E+02  0.23102581621E+02  0.14025207067E+03  0.12509203766E+03 0.  0.
         23    2    1    2    0    0  0.54298923307E+02  0.23249152511E+02  0.11726803716E+03  0.16083996029E+03  0.92891356548E+02 0.  0.
          5    1    3    3  502    0 -0.26249764279E+02 -0.39264479079E+02 -0.44617620535E+02  0.65107249245E+02  0.41800000000E+01 0.  1.
         -5    1    3    3    0  502 -0.28049159028E+02  0.16015326568E+02  0.67720202156E+02  0.75144821427E+02  0.41800000000E+01 0.  1.
        -11    1    4    4    0    0  0.58719651029E+02 -0.23264734845E+02  0.72122203065E+02  0.95868959937E+02  0.00000000000E+00 0. -1.
         11    1    4    4    0    0 -0.44207277217E+01  0.46513887356E+02  0.45145834094E+02  0.64971000351E+02  0.00000000000E+00 0.  1.
</event>
<event>
 8    1  0.7103328E-009  0.1106401E+03  0.7561462E-02  0.1259389E+00
         -1   -1    0    0    0  501 -0.00000000000E+00  0.00000000000E+00  0.42804446636E+02  0.42804446636E+02  0.00000000000E+00 0.  1.
          1   -1    0    0  501    0  0.00000000000E+00 -0.00000000000E+00 -0.46528261238E+03  0.46528261238E+03  0.00000000000E+00 0. -1.
         25    2    1    2    0    0  0.83413303575E+02 -0.14464705714E+02 -0.17668908803E+03  0.23245152003E+03  0.12509064078E+03 0.  0.
         23    2    1    2    0    0 -0.83413303575E+02  0.14464705714E+02 -0.24578907772E+03  0.27563553899E+03  0.91627903526E+02 0.  0.
          5    1    3    3  502    0  0.44522211923E+02  0.46165337705E+02 -0.13399876868E+03  0.14861563904E+03  0.41800000000E+01 0. -1.
         -5    1    3    3    0  502  0.38891091652E+02 -0.60630043419E+02 -0.42690319351E+02  0.83835880989E+02  0.41800000000E+01 0. -1.
        -11    1    4    4    0    0 -0.37735634503E+02  0.36279759978E+01 -0.16080930023E+02  0.41179322864E+02  0.00000000000E+00 0.  1.
         11    1    4    4    0    0 -0.45677669072E+02  0.10836729716E+02 -0.22970814769E+03  0.23445621613E+03  0.00000000000E+00 0. -1.
</event>
<event>
 8    1  0.7103328E-009  0.9381715E+02  0.7561462E-02  0.1293863E+00
          4   -1    0    0  501    0  0.00000000000E+00  0.00000000000E+00  0.11268919493E+03  0.11268919493E+03  0.00000000000E+00 0. -1.
         -4   -1    0    0    0  501 -0.00000000000E+00 -0.00000000000E+00 -0.13220211855E+03  0.13220211855E+03  0.00000000000E+00 0.  1.
         25    2    1    2    0    0  0.35478533550E+02  0.38633021893E+02  0.70521479444E+01  0.13582355064E+03  0.12508823843E+03 0.  0.
         23    2    1    2    0    0 -0.35478533550E+02 -0.38633021893E+02 -0.26565071566E+02  0.10906776285E+03  0.91863143541E+02 0.  0.
          5    1    3    3  502    0 -0.26813746526E+02  0.34223165846E+02  0.44934454811E+02  0.62664022473E+02  0.41800000000E+01 0. -1.
         -5    1    3    3    0  502  0.62292280076E+02  0.44098560469E+01 -0.37882306866E+02  0.73159528162E+02  0.41800000000E+01 0. -1.
        -11    1    4    4    0    0 -0.40055634447E+02  0.23567650482E+01 -0.48019380177E+02  0.62576905205E+02  0.00000000000E+00 0.  1.
         11    1    4    4    0    0  0.45771008972E+01 -0.40989786941E+02  0.21454308611E+02  0.46490857640E+02  0.00000000000E+00 0. -1.
</event>
<event>
 8    1  0.7103328E-009  0.9374462E+02  0.7561462E-02  0.1294029E+00
         -1   -1    0    0    0  501 -0.00000000000E+00  0.00000000000E+00  0.21118531711E+02  0.21118531711E+02  0.00000000000E+00 0.  1.
          1   -1    0    0  501    0  0.00000000000E+00 -0.00000000000E+00 -0.55742391765E+03  0.55742391765E+03  0.00000000000E+00 0. -1.
         25    2    1    2    0    0  0.11690524900E+02 -0.10562471176E+02 -0.32454911312E+03  0.34817759311E+03  0.12508906965E+03 0.  0.
         23    2    1    2    0    0 -0.11690524900E+02  0.10562471176E+02 -0.21175627282E+03  0.23036485626E+03  0.89325325351E+02 0.  0.
          5    1    3    3  502    0 -0.34986618621E+02  0.23141564861E+02 -0.40975488276E+02  0.58788251770E+02  0.41800000000E+01 0. -1.
         -5    1    3    3    0  502  0.46677143521E+02 -0.33704036038E+02 -0.28357362484E+03  0.28938934134E+03  0.41800000000E+01 0. -1.
        -11    1    4    4    0    0 -0.20957077818E+02 -0.35173507247E+02 -0.69653031154E+02  0.80795541162E+02  0.00000000000E+00 0.  1.
         11    1    4    4    0    0  0.92665529181E+01  0.45735978424E+02 -0.14210324167E+03  0.14956931510E+03  0.00000000000E+00 0. -1.
</event>
<event>
 8    1  0.7103328E-009  0.1301247E+03  0.7561462E-02  0.1227271E+00
          1   -1    0    0  501    0  0.00000000000E+00  0.00000000000E+00  0.38785240552E+03  0.38785240552E+03  0.00000000000E+00 0.  1.
         -1   -1    0    0    0  501 -0.00000000000E+00 -0.00000000000E+00 -0.64316744078E+02  0.64316744078E+02  0.00000000000E+00 0. -1.
         25    2    1    2    0    0 -0.66635638427E+02 -0.82181523241E+02  0.24086062360E+03  0.29129922704E+03  0.12508912263E+03 0.  0.
         23    2    1    2    0    0  0.66635638427E+02  0.82181523241E+02  0.82675037839E+02  0.16086992256E+03  0.88599430200E+02 0.  0.
          5    1    3    3  502    0 -0.46927374641E+02 -0.89594314429E+02  0.80026773274E+02  0.12903905033E+03  0.41800000000E+01 0.  1.
         -5    1    3    3    0  502 -0.19708263786E+02  0.74127911885E+01  0.16083385033E+03  0.16226017671E+03  0.41800000000E+01 0.  1.
        -11    1    4    4    0    0  0.11234285542E+02  0.81376807284E+02  0.42996585582E+02  0.92720549540E+02  0.00000000000E+00 0.  1.
         11    1    4    4    0    0  0.55401352886E+02  0.80471595694E+00  0.39678452258E+02  0.68149373019E+02  0.00000000000E+00 0. -1.
</event>
<event>
 8    1  0.7103328E-009  0.1095764E+03  0.7561462E-02  0.1261356E+00
          3   -1    0    0  501    0  0.00000000000E+00  0.00000000000E+00  0.76124545617E+03  0.76124545617E+03  0.00000000000E+00 0. -1.
         -3   -1    0    0    0  501 -0.00000000000E+00 -0.00000000000E+00 -0.27290201768E+02  0.27290201768E+02  0.00000000000E+00 0.  1.
         25    2    1    2    0    0  0.13326605385E+02 -0.50830411554E+02  0.61499138420E+03  0.62977901674E+03  0.12508348467E+03 0.  0.
         23    2    1    2    0    0 -0.13326605385E+02  0.50830411554E+02  0.11896387020E+03  0.15875664120E+03  0.91049105218E+02 0.  0.
          5    1    3    3  502    0  0.57452497092E+02 -0.23117728801E+02  0.49525239920E+03  0.49912686776E+03  0.41800000000E+01 0. -1.
         -5    1    3    3    0  502 -0.44125891707E+02 -0.27712682753E+02  0.11973898500E+03  0.13065214898E+03  0.41800000000E+01 0. -1.
        -11    1    4    4    0    0  0.37380991975E+02  0.75361780878E+01  0.37459489213E+02  0.53454147391E+02  0.00000000000E+00 0.  1.
         11    1    4    4    0    0 -0.50707597360E+02  0.43294233466E+02  0.81504380988E+02  0.10530249381E+03  0.00000000000E+00 0. -1.
</event>
<event>
 8    1  0.7103328E-009  0.8184013E+02  0.7561462E-02  0.1323909E+00
          2   -1    0    0  501    0  0.00000000000E+00  0.00000000000E+00  0.46552493723E+03  0.46552493723E+03  0.00000000000E+00 0. -1.
         -2   -1    0    0    0  501 -0.00000000000E+00 -0.00000000000E+00 -0.33535070719E+02  0.33535070719E+02  0.00000000000E+00 0.  1.
         25    2    1    2    0    0 -0.30050356704E+01  0.61616589104E+02  0.23908146016E+03  0.27679084788E+03  0.12509034570E+03 0.  0.
         23    2    1    2    0    0  0.30050356704E+01 -0.61616589104E+02  0.19290840635E+03  0.22226916007E+03  0.91565779545E+02 0.  0.
          5    1    3    3  502    0 -0.17993629824E+02  0.28539452688E+02 -0.93268345124E+00  0.34009018986E+02  0.41800000000E+01 0.  1.
         -5    1    3    3    0  502  0.14988594154E+02  0.33077136416E+02  0.24001414361E+03  0.24278182889E+03  0.41800000000E+01 0.  1.
        -11    1    4    4    0    0 -0.30606770173E+02 -0.11314368382E+02  0.13367894949E+03  0.13760396378E+03  0.00000000000E+00 0.  1.
         11    1    4    4    0    0  0.33611805843E+02 -0.50302220723E+02  0.59229456861E+02  0.84665196284E+02  0.00000000000E+00 0. -1.
</event>
<event>
 8    1  0.7103328E-009  0.1391217E+03  0.7561462E-02  0.1214516E+00
         -2   -1    0    0    0  501 -0.00000000000E+00  0.00000000000E+00  0.11640362988E+03  0.11640362988E+03  0.00000000000E+00 0.  1.
          2   -1    0    0  501    0  0.00000000000E+00 -0.00000000000E+00 -0.28968805386E+03  0.28968805386E+03  0.00000000000E+00 0. -1.
         25    2    1    2    0    0 -0.74698258169E+02  0.66663928028E+02 -0.21474616720E+03  0.26793070209E+03  0.12508811183E+03 0.  0.
         23    2    1    2    0    0  0.74698258169E+02 -0.66663928028E+02  0.41461743218E+02  0.13816098165E+03  0.85705726913E+02 0.  0.
          5    1    3    3  502    0 -0.46832614963E+01  0.79734731786E+02 -0.68891501160E+02  0.10556074897E+03  0.41800000000E+01 0. -1.
         -5    1    3    3    0  502 -0.70014996673E+02 -0.13070803758E+02 -0.14585466604E+03  0.16236995312E+03  0.41800000000E+01 0. -1.
        -11    1    4    4    0    0  0.81425107911E+02 -0.25674476018E+02  0.44931920030E+02  0.96478517581E+02  0.00000000000E+00 0.  1.
         11    1    4    4    0    0 -0.67268497421E+01 -0.40989452010E+02 -0.34701768123E+01  0.41682464066E+02  0.00000000000E+00 0. -1.
</event>
<event>
 8    1  0.7103328E-009  0.1047122E+03  0.7561462E-02  0.1270688E+00
         -1   -1    0    0    0  501 -0.00000000000E+00  0.00000000000E+00  0.26690414326E+02  0.26690414326E+02  0.00000000000E+00 0.  1.
          1   -1    0    0  501    0  0.00000000000E+00 -0.00000000000E+00 -0.50231983413E+03  0.50231983413E+03  0.00000000000E+00 0. -1.
         25    2    1    2    0    0 -0.93218067458E+01  0.34826943978E+02 -0.30300364479E+03  0.32978391953E+03  0.12508562155E+03 0.  0.
         23    2    1    2    0    0  0.93218067458E+01 -0.34826943978E+02 -0.17262577501E+03  0.19922632892E+03  0.92691206860E+02 0.  0.
          5    1    3    3  502    0 -0.36109494990E+02 -0.28018222572E+02 -0.50817476149E+02  0.68474847256E+02  0.41800000000E+01 0.  1.
         -5    1    3    3    0  502  0.26787688244E+02  0.62845166550E+02 -0.25218616864E+03  0.26130907228E+03  0.41800000000E+01 0.  1.
        -11    1    4    4    0    0 -0.91665599579E+01 -0.61749224214E+02 -0.83143698668E+02  0.10397051092E+03  0.00000000000E+00 0.  1.
         11    1    4    4    0    0  0.18488366704E+02  0.26922280237E+02 -0.89482076344E+02  0.95255818003E+02  0.00000000000E+00 0. -1.
</event>
<event>
 8    1  0.7103328E-009  0.1068668E+03  0.7561462E-02  0.1266485E+00
          2   -1    0    0  501    0  0.00000000000E+00  0.00000000000E+00  0.27084150210E+03  0.27084150210E+03  0.00000000000E+00 0. -1.
         -2   -1    0    0    0  501 -0.00000000000E+00 -0.00000000000E+00 -0.47618137035E+02  0.47618137035E+02  0.00000000000E+00 0.  1.
         25    2    1    2    0    0 -0.21405503233E+02  0.16687714035E+02  0.15718833054E+03  0.20271362870E+03  0.12509184080E+03 0.  0.
         23    2    1    2    0    0  0.21405503233E+02 -0.16687714035E+02  0.66035034524E+02  0.11574601044E+03  0.91103445483E+02 0.  0.
          5    1    3    3  502    0 -0.69189493315E+02 -0.14202610687E+02  0.81445711669E+02  0.10788779581E+03  0.41800000000E+01 0.  1.
         -5    1    3    3    0  502  0.47783990082E+02  0.30890324722E+02  0.75742618875E+02  0.94825832892E+02  0.41800000000E+01 0.  1.
        -11    1    4    4    0    0 -0.19038559905E+02  0.22593265737E+02  0.48340480250E+02  0.56654430106E+02  0.00000000000E+00 0. -1.
         11    1    4    4    0    0  0.40444063138E+02 -0.39280979772E+02  0.17694554274E+02  0.59091580330E+02  0.00000000000E+00 0.  1.
</event>
<event>
 8    1  0.7103328E-009  0.1059986E+03  0.7561462E-02  0.1268165E+00
          2   -1    0    0  501    0  0.00000000000E+00  0.00000000000E+00  0.15694874945E+02  0.15694874945E+02  0.00000000000E+00 0. -1.
         -2   -1    0    0    0  501 -0.00000000000E+00 -0.00000000000E+00 -0.90466803899E+03  0.90466803899E+03  0.00000000000E+00 0.  1.
         25    2    1    2    0    0 -0.46631310224E+02 -0.31121942781E+02 -0.51739175496E+03  0.53524183364E+03  0.12508612217E+03 0.  0.
         23    2    1    2    0    0  0.46631310224E+02  0.31121942781E+02 -0.37158140908E+03  0.38512108029E+03  0.84276025632E+02 0.  0.
          5    1    3    3  502    0 -0.87386835592E+02 -0.24736570426E+02 -0.28406667981E+03  0.29826114050E+03  0.41800000000E+01 0. -1.
         -5    1    3    3    0  502  0.40755525368E+02 -0.63853723556E+01 -0.23332507515E+03  0.23698069314E+03  0.41800000000E+01 0. -1.
        -11    1    4    4    0    0  0.72874929389E+01 -0.16385383231E+02 -0.15399827026E+02  0.23637745438E+02  0.00000000000E+00 0. -1.
         11    1    4    4    0    0  0.39343817285E+02  0.47507326012E+02 -0.35618158205E+03  0.36148333485E+03  0.00000000000E+00 0.  1.
</event>
<event>
 8    1  0.7103328E-009  0.7950142E+02  0.7561462E-02  0.1330472E+00
          2   -1    0    0  501    0  0.00000000000E+00  0.00000000000E+00  0.20592760013E+03  0.20592760013E+03  0.00000000000E+00 0. -1.
         -2   -1    0    0    0  501 -0.00000000000E+00 -0.00000000000E+00 -0.81939645840E+02  0.81939645840E+02  0.00000000000E+00 0.  1.
         25    2    1    2    0    0 -0.39929013279E+02 -0.43564134927E+02  0.24200310182E+02  0.14044723717E+03  0.12509041315E+03 0.  0.
         23    2    1    2    0    0  0.39929013279E+02  0.43564134927E+02  0.99787644104E+02  0.14742000880E+03  0.91010576998E+02 0.  0.
          5    1    3    3  502    0 -0.56885316973E+02 -0.42108542698E+02  0.64911070474E+02  0.96124856959E+02  0.41800000000E+01 0. -1.
         -5    1    3    3    0  502  0.16956303694E+02 -0.14555922286E+01 -0.40710760292E+02  0.44322380207E+02  0.41800000000E+01 0. -1.
        -11    1    4    4    0    0 -0.56646651635E+01  0.16759668708E+02  0.92327699864E+02  0.94007335293E+02  0.00000000000E+00 0. -1.
         11    1    4    4    0    0  0.45593678442E+02  0.26804466219E+02  0.74599442397E+01  0.53412673508E+02  0.00000000000E+00 0.  1.
</event>
<event>
 8    1  0.7103328E-009  0.1065123E+03  0.7561462E-02  0.1267168E+00
          1   -1    0    0  501    0  0.00000000000E+00  0.00000000000E+00  0.23007067005E+03  0.23007067005E+03  0.00000000000E+00 0. -1.
         -1   -1    0    0    0  501 -0.00000000000E+00 -0.00000000000E+00 -0.63641143812E+02  0.63641143812E+02  0.00000000000E+00 0.  1.
         25    2    1    2    0    0  0.14309316239E+02  0.19462470040E+01  0.15577559255E+03  0.20030400472E+03  0.12508842737E+03 0.  0.
         23    2    1    2    0    0 -0.14309316239E+02 -0.19462470040E+01  0.10653933683E+02  0.93407809141E+02  0.91667704766E+02 0.  0.
          5    1    3    3  502    0  0.67824219155E+02 -0.13430503530E+02  0.97452397896E+02  0.11956147116E+03  0.41800000000E+01 0.  1.
         -5    1    3    3    0  502 -0.53514902916E+02  0.15376750534E+02  0.58323194657E+02  0.80742533562E+02  0.41800000000E+01 0.  1.
        -11    1    4    4    0    0 -0.51075348758E+02  0.43405370504E+00 -0.86650352136E+01  0.51806973359E+02  0.00000000000E+00 0.  1.
         11    1    4    4    0    0  0.36766032518E+02 -0.23803007090E+01  0.19318968897E+02  0.41600835783E+02  0.00000000000E+00 0. -1.
</event>
<event>
 8    1  0.7103328E-009  0.1143763E+03  0.7561462E-02  0.1252674E+00
          1   -1    0    0  501    0  0.00000000000E+00  0.00000000000E+00  0.13515824345E+03  0.13515824345E+03  0.00000000000E+00 0. -1.
         -1   -1    0    0    0  501 -0.00000000000E+00 -0.00000000000E+00 -0.17852417668E+03  0.17852417668E+03  0.00000000000E+00 0.  1.
         25    2    1    2    0    0 -0.44482024261E+02 -0.75365927435E+02  0.45437172879E+02  0.15928221666E+03  0.12509042475E+03 0.  0.
         23    2    1    2    0    0  0.44482024261E+02  0.75365927435E+02 -0.88803106108E+02  0.15440020347E+03  0.91075560267E+02 0.  0.
          5    1    3    3  502    0 -0.44651717016E+02  0.26860571561E+01 -0.27248813179E+02  0.52544847084E+02  0.41800000000E+01 0.  1.
         -5    1    3    3    0  502  0.16969275501E+00 -0.78051984591E+02  0.72685986058E+02  0.10673736957E+03  0.41800000000E+01 0.  1.
        -11    1    4    4    0    0 -0.12123324858E+02  0.32407227486E+02  0.68178086752E+01  0.35265931351E+02  0.00000000000E+00 0. -1.
         11    1    4    4    0    0  0.56605349119E+02  0.42958699949E+02 -0.95620914783E+02  0.11913427212E+03  0.00000000000E+00 0.  1.
</event>
<event>
 8    1  0.7103328E-009  0.1078665E+03  0.7561462E-02  0.1264573E+00
          3   -1    0    0  501    0  0.00000000000E+00  0.00000000000E+00  0.26266912445E+02  0.26266912445E+02  0.00000000000E+00 0.  1.
         -3   -1    0    0    0  501 -0.00000000000E+00 -0.00000000000E+00 -0.53884432013E+03  0.53884432013E+03  0.00000000000E+00 0. -1.
         25    2    1    2    0    0 -0.20710729399E+02  0.26490705750E+01 -0.40185924239E+03  0.42139557493E+03  0.12508967980E+03 0.  0.
         23    2    1    2    0    0  0.20710729399E+02 -0.26490705750E+01 -0.11071816530E+03  0.14371565765E+03  0.89217297864E+02 0.  0.
          5    1    3    3  502    0  0.28261554662E+02 -0.48170544283E+02 -0.16873228108E+03  0.17778405971E+03  0.41800000000E+01 0. -1.
         -5    1    3    3    0  502 -0.48972284061E+02  0.50819614858E+02 -0.23312696130E+03  0.24361151522E+03  0.41800000000E+01 0. -1.
        -11    1    4    4    0    0 -0.31228870069E+02 -0.16436325592E+02 -0.27882784017E+02  0.44976046617E+02  0.00000000000E+00 0.  1.
         11    1    4    4    0    0  0.51939599468E+02  0.13787255017E+02 -0.82835381283E+02  0.98739611029E+02  0.00000000000E+00 0. -1.
</event>
<event>
 8    1  0.7103328E-009  0.1023499E+03  0.7561462E-02  0.1275431E+00
         -1   -1    0    0    0  501 -0.00000000000E+00  0.00000000000E+00  0.55462021192E+02  0.55462021192E+02  0.00000000000E+00 0.  1.
          1   -1    0    0  501    0  0.00000000000E+00 -0.00000000000E+00 -0.33640982155E+03  0.33640982155E+03  0.00000000000E+00 0. -1.
         25    2    1    2    0    0  0.73293167295E+02 -0.52705386254E+01 -0.20415594878E+03  0.25045694011E+03  0.12509740396E+03 0.  0.
         23    2    1    2    0    0 -0.73293167295E+02  0.52705386254E+01 -0.76791851581E+02  0.14141490264E+03  0.93281934312E+02 0.  0.
          5    1    3    3  502    0  0.16661538992E+02 -0.22054769701E+02  0.88902632948E+01  0.29334773386E+02  0.41800000000E+01 0. -1.
         -5    1    3    3    0  502  0.56631628302E+02  0.16784231075E+02 -0.21304621208E+03  0.22112216673E+03  0.41800000000E+01 0. -1.
        -11    1    4    4    0    0 -0.60571446565E+02 -0.38618299544E+02 -0.56614397718E+02  0.91462906294E+02  0.00000000000E+00 0.  1.
         11    1    4    4    0    0 -0.12721720729E+02  0.43888838170E+02 -0.20177453862E+02  0.49951996342E+02  0.00000000000E+00 0. -1.
</event>
<event>
 8    1  0.7103328E-009  0.1086164E+03  0.7561462E-02  0.1263154E+00
          1   -1    0    0  501    0  0.00000000000E+00  0.00000000000E+00  0.61203592628E+03  0.61203592628E+03  0.00000000000E+00 0. -1.
         -1   -1    0    0    0  501 -0.00000000000E+00 -0.00000000000E+00 -0.29930364684E+02  0.29930364684E+02  0.00000000000E+00 0.  1.
         25    2    1    2    0    0 -0.34740659130E+02 -0.69843863128E+02  0.34642786301E+03  0.37649007163E+03  0.12508969244E+03 0.  0.
         23    2    1    2    0    0  0.34740659130E+02  0.69843863128E+02  0.23567769859E+03  0.26547621934E+03  0.94066820967E+02 0.  0.
          5    1    3    3  502    0 -0.75939443986E+02 -0.59395248227E+02  0.29057710199E+03  0.30618151359E+03  0.41800000000E+01 0.  1.
         -5    1    3    3    0  502  0.41198784856E+02 -0.10448614901E+02  0.55850761020E+02  0.70308558038E+02  0.41800000000E+01 0.  1.
        -11    1    4    4    0    0  0.17326769648E+02  0.32920608474E+02  0.13494627166E+02  0.39573834425E+02  0.00000000000E+00 0.  1.
         11    1    4    4    0    0  0.17413889482E+02  0.36923254654E+02  0.22218307142E+03  0.22590238491E+03  0.00000000000E+00 0. -1.
</event>
<event>
 8    1  0.7103328E-009  0.2071096E+03  0.7561462E-02  0.1143876E+00
         -2   -1    0    0    0  501 -0.00000000000E+00  0.00000000000E+00  0.33537570548E+03  0.33537570548E+03  0.00000000000E+00 0. -1.
          2   -1    0    0  501    0  0.00000000000E+00 -0.00000000000E+00 -0.16042863966E+03  0.16042863966E+03  0.00000000000E+00 0.  1.
         25    2    1    2    0    0  0.17159209924E+03 -0.72421660763E+02  0.48599978057E+00  0.22435842071E+03  0.12509084410E+03 0.  0.
         23    2    1    2    0    0 -0.17159209924E+03  0.72421660763E+02  0.17446106604E+03  0.27144592443E+03  0.92506653043E+02 0.  0.
          5    1    3    3  502    0  0.51175060902E+02  0.35548528831E+02  0.34198653253E+01  0.62544005622E+02  0.41800000000E+01 0.  1.
         -5    1    3    3    0  502  0.12041703834E+03 -0.10797018959E+03 -0.29338655447E+01  0.16181441509E+03  0.41800000000E+01 0.  1.
        -11    1    4    4    0    0 -0.84151728599E+02  0.15286833152E+02  0.25008276095E+02  0.89110126064E+02  0.00000000000E+00 0.  1.
         11    1    4    4    0    0 -0.87440370645E+02  0.57134827610E+02  0.14945278994E+03  0.18233579837E+03  0.00000000000E+00 0. -1.
</event>
<event>
 8    1  0.7103328E-009  0.1246287E+03  0.7561462E-02  0.1235651E+00
          2   -1    0    0  501    0  0.00000000000E+00  0.00000000000E+00  0.38420358291E+03  0.38420358291E+03  0.00000000000E+00 0. -1.
         -2   -1    0    0    0  501 -0.00000000000E+00 -0.00000000000E+00 -0.53612829598E+02  0.53612829598E+02  0.00000000000E+00 0.  1.
         25    2    1    2    0    0  0.82124255861E+02  0.43295726611E+02  0.18091481942E+03  0.23873801395E+03  0.12508698604E+03 0.  0.
         23    2    1    2    0    0 -0.82124255861E+02 -0.43295726611E+02  0.14967593389E+03  0.19907839855E+03  0.92792296239E+02 0.  0.
          5    1    3    3  502    0  0.78810925770E+02  0.16684156135E+00  0.17855184815E+03  0.19521635366E+03  0.41800000000E+01 0.  1.
         -5    1    3    3    0  502  0.33133300906E+01  0.43128885049E+02  0.23629712727E+01  0.43521660298E+02  0.41800000000E+01 0.  1.
        -11    1    4    4    0    0 -0.40335477801E+02  0.24532552656E+02  0.81664163245E+02  0.94328322723E+02  0.00000000000E+00 0.  1.
         11    1    4    4    0    0 -0.41788778060E+02 -0.67828279267E+02  0.68011770640E+02  0.10475007583E+03  0.00000000000E+00 0. -1.
</event>
<event>
 8    1  0.7103328E-009  0.1097735E+03  0.7561462E-02  0.1260990E+00
          2   -1    0    0  501    0  0.00000000000E+00  0.00000000000E+00  0.72960047831E+03  0.72960047831E+03  0.00000000000E+00 0. -1.
         -2   -1    0    0    0  501 -0.00000000000E+00 -0.00000000000E+00 -0.18812025756E+02  0.18812025756E+02  0.00000000000E+00 0.  1.
         25    2    1    2    0    0 -0.35854167887E+02 -0.20212377388E+02  0.46729359417E+03  0.48549285016E+03  0.12508374338E+03 0.  0.
         23    2    1    2    0    0  0.35854167887E+02  0.20212377388E+02  0.24349485839E+03  0.26291965390E+03  0.90238222457E+02 0.  0.
          5    1    3    3  502    0 -0.33016792918E+02  0.48906663425E+02  0.26929312352E+03  0.27571403504E+03  0.41800000000E+01 0. -1.
         -5    1    3    3    0  502 -0.28373749697E+01 -0.69119040813E+02  0.19800047065E+03  0.20977881513E+03  0.41800000000E+01 0. -1.
        -11    1    4    4    0    0 -0.30586136363E+01  0.44900042385E+02  0.17254268571E+03  0.17831530309E+03  0.00000000000E+00 0. -1.
         11    1    4    4    0    0  0.38912781524E+02 -0.24687664997E+02  0.70952172682E+02  0.84604350817E+02  0.00000000000E+00 0.  1.
</event>
<event>
 8    1  0.7103328E-009  0.8230610E+02  0.7561462E-02  0.1322632E+00
          1   -1    0    0  501    0  0.00000000000E+00  0.00000000000E+00  0.67027303182E+03  0.67027303182E+03  0.00000000000E+00 0. -1.
         -1   -1    0    0    0  501 -0.00000000000E+00 -0.00000000000E+00 -0.21191421392E+02  0.21191421392E+02  0.00000000000E+00 0.  1.
         25    2    1    2    0    0  0.38325257643E+02 -0.18522150640E+02  0.43403384562E+03  0.45370293558E+03  0.12509627961E+03 0.  0.
         23    2    1    2    0    0 -0.38325257643E+02  0.18522150640E+02  0.21504776481E+03  0.23776151763E+03  0.92049457792E+02 0.  0.
          5    1    3    3  502    0  0.71571813808E+01 -0.46810731588E+02  0.56640330718E+02  0.73946394780E+02  0.41800000000E+01 0. -1.
         -5    1    3    3    0  502  0.31168076262E+02  0.28288580948E+02  0.37739351490E+03  0.37975654080E+03  0.41800000000E+01 0. -1.
        -11    1    4    4    0    0 -0.43117796202E+02 -0.11296875778E+02  0.39259165820E+02  0.59397355602E+02  0.00000000000E+00 0.  1.
         11    1    4    4    0    0  0.47925385586E+01  0.29819026418E+02  0.17578859899E+03  0.17836416203E+03  0.00000000000E+00 0. -1.
</event>
<event>
 8    1  0.7103328E-009  0.1362170E+03  0.7561462E-02  0.1218512E+00
         -3   -1    0    0    0  501 -0.00000000000E+00  0.00000000000E+00  0.11594548094E+04  0.11594548094E+04  0.00000000000E+00 0.  1.
          3   -1    0    0  501    0  0.00000000000E+00 -0.00000000000E+00 -0.17335668502E+02  0.17335668502E+02  0.00000000000E+00 0. -1.
         25    2    1    2    0    0 -0.80647995099E+02 -0.29619196336E+02  0.49423689476E+03  0.51701078624E+03  0.12509456039E+03 0.  0.
         23    2    1    2    0    0  0.80647995099E+02  0.29619196336E+02  0.64788224615E+03  0.65977969167E+03  0.90423673706E+02 0.  0.
          5    1    3    3  502    0  0.30856625334E+02  0.48717096333E+01  0.15673076487E+03  0.15986828934E+03  0.41800000000E+01 0. -1.
         -5    1    3    3    0  502 -0.11150462043E+03 -0.34490905969E+02  0.33750612989E+03  0.35714249689E+03  0.41800000000E+01 0. -1.
        -11    1    4    4    0    0  0.87347614625E+02 -0.63108647018E+01  0.48546453337E+03  0.49330036079E+03  0.00000000000E+00 0. -1.
         11    1    4    4    0    0 -0.66996195260E+01  0.35930061038E+02  0.16241771277E+03  0.16647933088E+03  0.00000000000E+00 0.  1.
</event>
<event>
 8    1  0.7103328E-009  0.1421807E+03  0.7561462E-02  0.1210424E+00
         -2   -1    0    0    0  501 -0.00000000000E+00  0.00000000000E+00  0.37237847842E+02  0.37237847842E+02  0.00000000000E+00 0.  1.
          2   -1    0    0  501    0  0.00000000000E+00 -0.00000000000E+00 -0.91455306081E+03  0.91455306081E+03  0.00000000000E+00 0. -1.
         25    2    1    2    0    0 -0.13456189108E+03 -0.13068964229E+02 -0.62730088892E+03  0.65378207395E+03  0.12508754782E+03 0.  0.
         23    2    1    2    0    0  0.13456189108E+03  0.13068964229E+02 -0.25001432404E+03  0.29800883470E+03  0.89579032011E+02 0.  0.
          5    1    3    3  502    0 -0.85490877695E+02 -0.18647135900E+02 -0.14842479899E+03  0.17234790164E+03  0.41800000000E+01 0.  1.
         -5    1    3    3    0  502 -0.49071013382E+02  0.55781716713E+01 -0.47887608993E+03  0.48143417231E+03  0.41800000000E+01 0.  1.
        -11    1    4    4    0    0  0.12335358724E+03  0.29946767215E+02 -0.15252209003E+03  0.19843362693E+03  0.00000000000E+00 0.  1.
         11    1    4    4    0    0  0.11208303840E+02 -0.16877802986E+02 -0.97492234019E+02  0.99575207771E+02  0.00000000000E+00 0. -1.
</event>
<event>
 8    1  0.7103328E-009  0.1097899E+03  0.7561462E-02  0.1260959E+00
         -1   -1    0    0    0  501 -0.00000000000E+00  0.00000000000E+00  0.10194455031E+03  0.10194455031E+03  0.00000000000E+00 0.  1.
          1   -1    0    0  501    0  0.00000000000E+00 -0.00000000000E+00 -0.13429771976E+03  0.13429771976E+03  0.00000000000E+00 0. -1.
         25    2    1    2    0    0 -0.58465084996E+00  0.43041450374E+02 -0.78535274142E+01  0.13253410674E+03  0.12510277091E+03 0.  0.
         23    2    1    2    0    0  0.58465084996E+00 -0.43041450374E+02 -0.24499642035E+02  0.10370816333E+03  0.91116641814E+02 0.  0.
          5    1    3    3  502    0  0.41999642312E+02  0.62797885118E+02  0.19373925079E+02  0.78104837895E+02  0.41800000000E+01 0.  1.
         -5    1    3    3    0  502 -0.42584293162E+02 -0.19756434744E+02 -0.27227452493E+02  0.54429268847E+02  0.41800000000E+01 0.  1.
        -11    1    4    4    0    0  0.42435715051E+02 -0.10348330491E+02 -0.25526403464E+02  0.50591255466E+02  0.00000000000E+00 0. -1.
         11    1    4    4    0    0 -0.41851064201E+02 -0.32693119883E+02  0.10267614287E+01  0.53116907868E+02  0.00000000000E+00 0.  1.
</event>
<event>
 8    1  0.7103328E-009  0.1027603E+03  0.7561462E-02  0.1274596E+00
         -2   -1    0    0    0  501 -0.00000000000E+00  0.00000000000E+00  0.37263936268E+02  0.37263936268E+02  0.00000000000E+00 0.  1.
          2   -1    0    0  501    0  0.00000000000E+00 -0.00000000000E+00 -0.51939639600E+03  0.51939639600E+03  0.00000000000E+00 0. -1.
         25    2    1    2    0    0 -0.26793085615E+00  0.55656966942E+02 -0.39860793190E+03  0.42146585006E+03  0.12508960644E+03 0.  0.
         23    2    1    2    0    0  0.26793085615E+00 -0.55656966942E+02 -0.83524527830E+02  0.13519448220E+03  0.90572796759E+02 0.  0.
          5    1    3    3  502    0  0.11715828822E+02 -0.20276474602E+02 -0.10861318722E+02  0.26150271732E+02  0.41800000000E+01 0.  1.
         -5    1    3    3    0  502 -0.11983759678E+02  0.75933441544E+02 -0.38774661318E+03  0.39531557833E+03  0.41800000000E+01 0.  1.
        -11    1    4    4    0    0 -0.33189008744E+02 -0.62343418671E+02 -0.45053355212E+02  0.83773605443E+02  0.00000000000E+00 0.  1.
         11    1    4    4    0    0  0.33456939600E+02  0.66864517291E+01 -0.38471172618E+02  0.51420876760E+02  0.00000000000E+00 0. -1.
</event>
<event>
 8    1  0.7103328E-009  0.2258376E+03  0.7561462E-02  0.1129604E+00
         -2   -1    0    0    0  501 -0.00000000000E+00  0.00000000000E+00  0.56679248851E+02  0.56679248851E+02  0.00000000000E+00 0.  1.
          2   -1    0    0  501    0  0.00000000000E+00 -0.00000000000E+00 -0.11104497979E+04  0.11104497979E+04  0.00000000000E+00 0. -1.
         25    2    1    2    0    0  0.18335715447E+03 -0.10202169416E+03 -0.34809687867E+03  0.42525913294E+03  0.12508245694E+03 0.  0.
         23    2    1    2    0    0 -0.18335715447E+03  0.10202169416E+03 -0.70567367035E+03  0.74186991378E+03  0.91473317302E+02 0.  0.
          5    1    3    3  502    0  0.18250806506E+03 -0.77938140481E+02 -0.22625058355E+03  0.30098230265E+03  0.41800000000E+01 0.  1.
         -5    1    3    3    0  502  0.84908940465E+00 -0.24083553682E+02 -0.12184629512E+03  0.12427683029E+03  0.41800000000E+01 0.  1.
        -11    1    4    4    0    0 -0.56321465227E+02  0.82945520034E+02 -0.32403708371E+03  0.33919330530E+03  0.00000000000E+00 0. -1.
         11    1    4    4    0    0 -0.12703568924E+03  0.19076174128E+02 -0.38163658664E+03  0.40267660848E+03  0.00000000000E+00 0.  1.
</event>
<event>
 8    1  0.7103328E-009  0.7729416E+02  0.7561462E-02  0.1336910E+00
         -1   -1    0    0    0  501 -0.00000000000E+00  0.00000000000E+00  0.22720520476E+02  0.22720520476E+02  0.00000000000E+00 0.  1.
          1   -1    0    0  501    0  0.00000000000E+00 -0.00000000000E+00 -0.65166290985E+03  0.65166290985E+03  0.00000000000E+00 0. -1.
         25    2    1    2    0    0  0.52342143926E+02  0.10348997731E+02 -0.32519405349E+03  0.35248340587E+03  0.12508627903E+03 0.  0.
         23    2    1    2    0    0 -0.52342143926E+02 -0.10348997731E+02 -0.30374833588E+03  0.32190002445E+03  0.92248427677E+02 0.  0.
          5    1    3    3  502    0  0.47409419936E+02  0.15991467990E+02 -0.32819845567E+02  0.59983287758E+02  0.41800000000E+01 0.  1.
         -5    1    3    3    0  502  0.49327239906E+01 -0.56424702592E+01 -0.29237420792E+03  0.29250011811E+03  0.41800000000E+01 0.  1.
        -11    1    4    4    0    0 -0.18062167098E+02 -0.44122480053E+02 -0.80799439849E+02  0.93816760796E+02  0.00000000000E+00 0.  1.
         11    1    4    4    0    0 -0.34279976829E+02  0.33773482322E+02 -0.22294889603E+03  0.22808326366E+03  0.00000000000E+00 0. -1.
</event>
<event>
 8    1  0.7103328E-009  0.2144339E+03  0.7561462E-02  0.1138102E+00
         -2   -1    0    0    0  501 -0.00000000000E+00  0.00000000000E+00  0.65055870332E+02  0.65055870332E+02  0.00000000000E+00 0. -1.
          2   -1    0    0  501    0  0.00000000000E+00 -0.00000000000E+00 -0.74276831294E+03  0.74276831294E+03  0.00000000000E+00 0.  1.
         25    2    1    2    0    0  0.12350372662E+03  0.14476256429E+03 -0.36799773368E+03  0.43275767021E+03  0.12508996213E+03 0.  0.
         23    2    1    2    0    0 -0.12350372662E+03 -0.14476256429E+03 -0.30971470894E+03  0.37506651306E+03  0.92424660027E+02 0.  0.
          5    1    3    3  502    0  0.14381173932E+03  0.12218984071E+03 -0.26539567417E+03  0.32567546701E+03  0.41800000000E+01 0.  1.
         -5    1    3    3    0  502 -0.20308012693E+02  0.22572723577E+02 -0.10260205950E+03  0.10708220321E+03  0.41800000000E+01 0.  1.
        -11    1    4    4    0    0 -0.87952247362E+02 -0.36000762465E+02 -0.16696458538E+03  0.19211669757E+03  0.00000000000E+00 0. -1.
         11    1    4    4    0    0 -0.35551479261E+02 -0.10876180183E+03 -0.14275012356E+03  0.18294981549E+03  0.00000000000E+00 0.  1.
</event>
<event>
 8    1  0.7103328E-009  0.9405546E+02  0.7561462E-02  0.1293318E+00
          2   -1    0    0  501    0  0.00000000000E+00  0.00000000000E+00  0.37048047384E+03  0.37048047384E+03  0.00000000000E+00 0. -1.
         -2   -1    0    0    0  501 -0.00000000000E+00 -0.00000000000E+00 -0.49960565594E+02  0.49960565594E+02  0.00000000000E+00 0.  1.
         25    2    1    2    0    0 -0.23555991189E+02 -0.11707550136E+01  0.61481999960E+02  0.14136424219E+03  0.12509019651E+03 0.  0.
         23    2    1    2    0    0  0.23555991189E+02  0.11707550136E+01  0.25903790829E+03  0.27907679724E+03  0.10112846010E+03 0.  0.
          5    1    3    3  502    0 -0.49513269323E+02  0.38129826734E+02 -0.14477373732E+01  0.62649947081E+02  0.41800000000E+01 0. -1.
         -5    1    3    3    0  502  0.25957278133E+02 -0.39300581748E+02  0.62929737333E+02  0.78714295109E+02  0.41800000000E+01 0. -1.
        -11    1    4    4    0    0  0.48648140600E+02 -0.11638590482E+02  0.23980214829E+03  0.24496360688E+03  0.00000000000E+00 0. -1.
         11    1    4    4    0    0 -0.25092149410E+02  0.12809345495E+02  0.19235759999E+02  0.34113190363E+02  0.00000000000E+00 0.  1.
</event>
<event>
 8    1  0.7103328E-009  0.1281359E+03  0.7561462E-02  0.1230248E+00
          2   -1    0    0  501    0  0.00000000000E+00  0.00000000000E+00  0.53507606941E+02  0.53507606941E+02  0.00000000000E+00 0. -1.
         -2   -1    0    0    0  501 -0.00000000000E+00 -0.00000000000E+00 -0.36212733775E+03  0.36212733775E+03  0.00000000000E+00 0.  1.
         25    2    1    2    0    0 -0.72088737835E+02  0.43464954250E+02 -0.19717546879E+03  0.24821669585E+03  0.12508946493E+03 0.  0.
         23    2    1    2    0    0  0.72088737835E+02 -0.43464954250E+02 -0.11144426202E+03  0.16741824884E+03  0.92320410187E+02 0.  0.
          5    1    3    3  502    0 -0.13824061481E+02 -0.41433679695E+02 -0.86492256868E+02  0.96985758682E+02  0.41800000000E+01 0. -1.
         -5    1    3    3    0  502 -0.58264676354E+02  0.84898633945E+02 -0.11068321192E+03  0.15123093717E+03  0.41800000000E+01 0. -1.
        -11    1    4    4    0    0  0.82593646601E+02 -0.50395766746E+02 -0.11850585465E+03  0.15298719342E+03  0.00000000000E+00 0.  1.
         11    1    4    4    0    0 -0.10504908767E+02  0.69308124958E+01  0.70615926292E+01  0.14431055419E+02  0.00000000000E+00 0. -1.
</event>
<event>
 8    1  0.7103328E-009  0.8918697E+02  0.7561462E-02  0.1304833E+00
          1   -1    0    0  501    0  0.00000000000E+00  0.00000000000E+00  0.38980491294E+03  0.38980491294E+03  0.00000000000E+00 0. -1.
         -1   -1    0    0    0  501 -0.00000000000E+00 -0.00000000000E+00 -0.40950695141E+02  0.40950695141E+02  0.00000000000E+00 0.  1.
         25    2    1    2    0    0  0.49345163404E+02  0.34924994073E+02  0.25617884579E+03  0.29142763539E+03  0.12509102795E+03 0.  0.
         23    2    1    2    0    0 -0.49345163404E+02 -0.34924994073E+02  0.92675372010E+02  0.13932797270E+03  0.84669115013E+02 0.  0.
          5    1    3    3  502    0  0.46489079792E+02  0.58829901375E+02  0.25621345709E+03  0.26699250893E+03  0.41800000000E+01 0. -1.
         -5    1    3    3    0  502  0.28560836125E+01 -0.23904907302E+02 -0.34611292755E-01  0.24435126451E+02  0.41800000000E+01 0. -1.
        -11    1    4    4    0    0 -0.48222353628E+02 -0.46631308821E+02  0.10350466148E+03  0.12334135276E+03  0.00000000000E+00 0. -1.
         11    1    4    4    0    0 -0.11228097766E+01  0.11706314748E+02 -0.10829289470E+02  0.15986619943E+02  0.00000000000E+00 0.  1.
</event>
<event>
 8    1  0.7103328E-009  0.1096782E+03  0.7561462E-02  0.1261167E+00
          1   -1    0    0  501    0  0.00000000000E+00  0.00000000000E+00  0.14903276363E+03  0.14903276363E+03  0.00000000000E+00 0. -1.
         -1   -1    0    0    0  501 -0.00000000000E+00 -0.00000000000E+00 -0.11853523088E+03  0.11853523088E+03  0.00000000000E+00 0.  1.
         25    2    1    2    0    0  0.73165669770E+02 -0.18489643605E+02  0.35053970666E+02  0.15023727006E+03  0.12508946520E+03 0.  0.
         23    2    1    2    0    0 -0.73165669770E+02  0.18489643605E+02 -0.45564379173E+01  0.11733072445E+03  0.89725445773E+02 0.  0.
          5    1    3    3  502    0  0.14861495426E+02  0.35326166682E+02  0.56075117780E+02  0.68049197885E+02  0.41800000000E+01 0. -1.
         -5    1    3    3    0  502  0.58304174344E+02 -0.53815810286E+02 -0.21021147114E+02  0.82188072180E+02  0.41800000000E+01 0. -1.
        -11    1    4    4    0    0 -0.17061213139E+02  0.38237625462E+02 -0.31140406748E+02  0.52181662749E+02  0.00000000000E+00 0.  1.
         11    1    4    4    0    0 -0.56104456631E+02 -0.19747981858E+02  0.26583968831E+02  0.65149061698E+02  0.00000000000E+00 0. -1.
</event>
<event>
 8    1  0.7103328E-009  0.7698170E+02  0.7561462E-02  0.1337842E+00
         -2   -1    0    0    0  501 -0.00000000000E+00  0.00000000000E+00  0.21215012844E+02  0.21215012844E+02  0.00000000000E+00 0.  1.
          2   -1    0    0  501    0  0.00000000000E+00 -0.00000000000E+00 -0.60288215703E+03  0.60288215703E+03  0.00000000000E+00 0. -1.
         25    2    1    2    0    0 -0.28168859503E+02 -0.15058427122E+02 -0.32018509509E+03  0.34523424503E+03  0.12509175813E+03 0.  0.
         23    2    1    2    0    0  0.28168859503E+02  0.15058427122E+02 -0.26148204910E+03  0.27886292485E+03  0.91495507979E+02 0.  0.
          5    1    3    3  502    0 -0.40532473876E+02 -0.25257771157E+02 -0.32457680187E+03  0.32809816999E+03  0.41800000000E+01 0. -1.
         -5    1    3    3    0  502  0.12363614374E+02  0.10199344035E+02  0.43917067805E+01  0.17136075034E+02  0.41800000000E+01 0. -1.
        -11    1    4    4    0    0  0.22562160864E+02 -0.33603422412E+02 -0.66734782939E+02  0.78049806883E+02  0.00000000000E+00 0.  1.
         11    1    4    4    0    0  0.56066986387E+01  0.48661849533E+02 -0.19474726616E+03  0.20081311796E+03  0.00000000000E+00 0. -1.
</event>
<event>
 8    1  0.7103328E-009  0.1411766E+03  0.7561462E-02  0.1211754E+00
          2   -1    0    0  501    0  0.00000000000E+00  0.00000000000E+00  0.27265491465E+03  0.27265491465E+03  0.00000000000E+00 0. -1.
         -2   -1    0    0    0  501 -0.00000000000E+00 -0.00000000000E+00 -0.90496233184E+02  0.90496233184E+02  0.00000000000E+00 0.  1.
         25    2    1    2    0    0  0.34910562123E+02  0.10798653147E+03  0.98043933259E+02  0.19529427414E+03  0.12508957725E+03 0.  0.
         23    2    1    2    0    0 -0.34910562123E+02 -0.10798653147E+03  0.84114748212E+02  0.16785687370E+03  0.90668632132E+02 0.  0.
          5    1    3    3  502    0  0.62698771875E+02  0.62395489293E+01  0.41290512356E+02  0.75448305323E+02  0.41800000000E+01 0.  1.
         -5    1    3    3    0  502 -0.27788209752E+02  0.10174698254E+03  0.56753420903E+02  0.11984596882E+03  0.41800000000E+01 0.  1.
        -11    1    4    4    0    0 -0.22927878913E+02 -0.79644827188E+02  0.10265232399E+03  0.13193364146E+03  0.00000000000E+00 0.  1.
         11    1    4    4    0    0 -0.11982683211E+02 -0.28341704286E+02 -0.18537575773E+02  0.35923232236E+02  0.00000000000E+00 0. -1.
</event>
<event>
 8    1  0.7103328E-009  0.1119133E+03  0.7561462E-02  0.1257067E+00
          1   -1    0    0  501    0  0.00000000000E+00  0.00000000000E+00  0.64338196143E+02  0.64338196143E+02  0.00000000000E+00 0. -1.
         -1   -1    0    0    0  501 -0.00000000000E+00 -0.00000000000E+00 -0.39075472252E+03  0.39075472252E+03  0.00000000000E+00 0.  1.
         25    2    1    2    0    0 -0.88790042351E+01  0.60929306893E+02 -0.34901972036E+02  0.14372646840E+03  0.12509169802E+03 0.  0.
         23    2    1    2    0    0  0.88790042351E+01 -0.60929306893E+02 -0.29151455435E+03  0.31136645026E+03  0.90427395183E+02 0.  0.
          5    1    3    3  502    0 -0.64240513357E+02  0.12684380700E+02 -0.12096958831E+02  0.66719906198E+02  0.41800000000E+01 0.  1.
         -5    1    3    3    0  502  0.55361509122E+02  0.48244926193E+02 -0.22805013204E+02  0.77006562206E+02  0.41800000000E+01 0.  1.
        -11    1    4    4    0    0  0.30636440474E+01 -0.72047713501E+02 -0.28987760913E+03  0.29871271685E+03  0.00000000000E+00 0.  1.
         11    1    4    4    0    0  0.58153601877E+01  0.11118406608E+02 -0.16369452187E+01  0.12653733412E+02  0.00000000000E+00 0. -1.
</event>
<event>
 8    1  0.7103328E-009  0.1079222E+03  0.7561462E-02  0.1264467E+00
          1   -1    0    0  501    0  0.00000000000E+00  0.00000000000E+00  0.56169702750E+02  0.56169702750E+02  0.00000000000E+00 0. -1.
         -1   -1    0    0    0  501 -0.00000000000E+00 -0.00000000000E+00 -0.27027009630E+03  0.27027009630E+03  0.00000000000E+00 0.  1.
         25    2    1    2    0    0  0.33006651592E+02  0.23613116418E+02 -0.64732675861E+02  0.14657493971E+03  0.12508747063E+03 0.  0.
         23    2    1    2    0    0 -0.33006651592E+02 -0.23613116418E+02 -0.14936771769E+03  0.17986485935E+03  0.91616779158E+02 0.  0.
          5    1    3    3  502    0 -0.36380976103E+02  0.31728847275E+02 -0.59012448980E+02  0.76355986708E+02  0.41800000000E+01 0. -1.
         -5    1    3    3    0  502  0.69387627695E+02 -0.81157308571E+01 -0.57202268816E+01  0.70218952998E+02  0.41800000000E+01 0. -1.
        -11    1    4    4    0    0 -0.58287972413E+02  0.58514736015E+01 -0.10968774474E+03  0.12435082958E+03  0.00000000000E+00 0.  1.
         11    1    4    4    0    0  0.25281320821E+02 -0.29464590019E+02 -0.39679972950E+02  0.55514029765E+02  0.00000000000E+00 0. -1.
</event>
<event>
 8    1  0.7103328E-009  0.1368814E+03  0.7561462E-02  0.1217588E+00
          2   -1    0    0  501    0  0.00000000000E+00  0.00000000000E+00  0.68018053406E+03  0.68018053406E+03  0.00000000000E+00 0.  1.
         -2   -1    0    0    0  501 -0.00000000000E+00 -0.00000000000E+00 -0.47622449409E+02  0.47622449409E+02  0.00000000000E+00 0. -1.
         25    2    1    2    0    0 -0.11923972655E+03 -0.22855813218E+02  0.18013059051E+03  0.25067522200E+03  0.12510210510E+03 0.  0.
         23    2    1    2    0    0  0.11923972655E+03  0.22855813218E+02  0.45242749415E+03  0.47712776148E+03  0.90662907086E+02 0.  0.
          5    1    3    3  502    0 -0.95211978640E+01  0.59020696821E+00 -0.19232690163E+02  0.21871678581E+02  0.41800000000E+01 0. -1.
         -5    1    3    3    0  502 -0.10971852869E+03 -0.23446020186E+02  0.19936328067E+03  0.22880354342E+03  0.41800000000E+01 0. -1.
        -11    1    4    4    0    0  0.13006907275E+03  0.35106168871E+02  0.41390316405E+03  0.43527719443E+03  0.00000000000E+00 0.  1.
         11    1    4    4    0    0 -0.10829346193E+02 -0.12250355654E+02  0.38524330101E+02  0.41850567049E+02  0.00000000000E+00 0. -1.
</event>
<event>
 8    1  0.7103328E-009  0.1219338E+03  0.7561462E-02  0.1239941E+00
          1   -1    0    0  501    0  0.00000000000E+00  0.00000000000E+00  0.46077427516E+03  0.46077427516E+03  0.00000000000E+00 0. -1.
         -1   -1    0    0    0  501 -0.00000000000E+00 -0.00000000000E+00 -0.45953568082E+02  0.45953568082E+02  0.00000000000E+00 0.  1.
         25    2    1    2    0    0 -0.53665977040E+02 -0.53186193807E+02  0.32110087729E+03  0.35279175455E+03  0.12508972932E+03 0.  0.
         23    2    1    2    0    0  0.53665977040E+02  0.53186193807E+02  0.93719829794E+02  0.15393608869E+03  0.95938024796E+02 0.  0.
          5    1    3    3  502    0  0.27713649514E+02 -0.33641668427E+02  0.20490477507E+03  0.20953101792E+03  0.41800000000E+01 0. -1.
         -5    1    3    3    0  502 -0.81379626554E+02 -0.19544525380E+02  0.11619610222E+03  0.14326073664E+03  0.41800000000E+01 0. -1.
        -11    1    4    4    0    0  0.57991782279E+02 -0.47494201781E+01  0.70401045442E+02  0.91334062667E+02  0.00000000000E+00 0.  1.
         11    1    4    4    0    0 -0.43258052387E+01  0.57935613985E+02  0.23318784351E+02  0.62602026025E+02  0.00000000000E+00 0. -1.
</event>
<event>
 8    1  0.7103328E-009  0.5937312E+02  0.7561462E-02  0.1400481E+00
          1   -1    0    0  501    0  0.00000000000E+00  0.00000000000E+00  0.47966906379E+02  0.47966906379E+02  0.00000000000E+00 0. -1.
         -1   -1    0    0    0  501 -0.00000000000E+00 -0.00000000000E+00 -0.28111659176E+03  0.28111659176E+03  0.00000000000E+00 0.  1.
         25    2    1    2    0    0 -0.26205471369E+02 -0.96831069583E+01 -0.89757691686E+02  0.15647419183E+03  0.12508892918E+03 0.  0.
         23    2    1    2    0    0  0.26205471369E+02  0.96831069583E+01 -0.14339199370E+03  0.17260930631E+03  0.91935953127E+02 0.  0.
          5    1    3    3  502    0 -0.24360917107E+02  0.25976418311E+01 -0.12051034267E+03  0.12304640229E+03  0.41800000000E+01 0. -1.
         -5    1    3    3    0  502 -0.18445542617E+01 -0.12280748789E+02  0.30752650985E+02  0.33427789545E+02  0.41800000000E+01 0. -1.
        -11    1    4    4    0    0  0.50061819686E+02 -0.85205764437E+01 -0.39113059852E+02  0.64098498143E+02  0.00000000000E+00 0. -1.
         11    1    4    4    0    0 -0.23856348317E+02  0.18203683402E+02 -0.10427893385E+03  0.10851080817E+03  0.00000000000E+00 0.  1.
</event>
<event>
 8    1  0.7103328E-009  0.1251011E+03  0.7561462E-02  0.1234911E+00
          3   -1    0    0  501    0  0.00000000000E+00  0.00000000000E+00  0.12573601835E+03  0.12573601835E+03  0.00000000000E+00 0. -1.
         -3   -1    0    0    0  501 -0.00000000000E+00 -0.00000000000E+00 -0.12873278280E+03  0.12873278280E+03  0.00000000000E+00 0.  1.
         25    2    1    2    0    0 -0.40644360387E+02  0.48599746788E+02 -0.20547799509E+02  0.14171570835E+03  0.12508889043E+03 0.  0.
         23    2    1    2    0    0  0.40644360387E+02 -0.48599746788E+02  0.17551035051E+02  0.11275309280E+03  0.91604157582E+02 0.  0.
          5    1    3    3  502    0 -0.54825822756E+02 -0.28016250198E+02 -0.32784179072E+01  0.61798070682E+02  0.41800000000E+01 0. -1.
         -5    1    3    3    0  502  0.14181462369E+02  0.76615996986E+02 -0.17269381602E+02  0.79917637666E+02  0.41800000000E+01 0. -1.
        -11    1    4    4    0    0  0.57377972116E+02 -0.65226766064E+02  0.19661310961E+02  0.89069241852E+02  0.00000000000E+00 0.  1.
         11    1    4    4    0    0 -0.16733611729E+02  0.16627019276E+02 -0.21102759101E+01  0.23683850952E+02  0.00000000000E+00 0. -1.
</event>
<event>
 8    1  0.7103328E-009  0.1215116E+03  0.7561462E-02  0.1240624E+00
          2   -1    0    0  501    0  0.00000000000E+00  0.00000000000E+00  0.84237393126E+03  0.84237393126E+03  0.00000000000E+00 0.  1.
         -2   -1    0    0    0  501 -0.00000000000E+00 -0.00000000000E+00 -0.21175528545E+02  0.21175528545E+02  0.00000000000E+00 0. -1.
         25    2    1    2    0    0 -0.13288919142E+02 -0.75635742425E+02  0.39943788391E+03  0.42555390880E+03  0.12509254688E+03 0.  0.
         23    2    1    2    0    0  0.13288919142E+02  0.75635742425E+02  0.42176051880E+03  0.43799555100E+03  0.89781994727E+02 0.  0.
          5    1    3    3  502    0 -0.68893901274E+02 -0.44064192622E+02  0.24607423896E+03  0.25934152422E+03  0.41800000000E+01 0. -1.
         -5    1    3    3    0  502  0.55604982132E+02 -0.31571549803E+02  0.15336364496E+03  0.16621238458E+03  0.41800000000E+01 0. -1.
        -11    1    4    4    0    0 -0.20712851546E+02  0.97028878495E+01  0.23160817791E+02  0.32551370670E+02  0.00000000000E+00 0.  1.
         11    1    4    4    0    0  0.34001770687E+02  0.65932854575E+02  0.39859970101E+03  0.40544418033E+03  0.00000000000E+00 0. -1.
</event>
<event>
 8    1  0.7103328E-009  0.7118459E+02  0.7561462E-02  0.1356111E+00
         -3   -1    0    0    0  501 -0.00000000000E+00  0.00000000000E+00  0.10146269644E+03  0.10146269644E+03  0.00000000000E+00 0.  1.
          3   -1    0    0  501    0  0.00000000000E+00 -0.00000000000E+00 -0.16198569458E+03  0.16198569458E+03  0.00000000000E+00 0. -1.
         25    2    1    2    0    0 -0.33532961462E+02  0.28587975128E+02  0.19331030606E+02  0.13402750459E+03  0.12509177197E+03 0.  0.
         23    2    1    2    0    0  0.33532961462E+02 -0.28587975128E+02 -0.79854028749E+02  0.12942088643E+03  0.91822481514E+02 0.  0.
          5    1    3    3  502    0 -0.13071051072E+02  0.46102647129E+01 -0.53039393251E+02  0.54979601247E+02  0.41800000000E+01 0.  1.
         -5    1    3    3    0  502 -0.20461910390E+02  0.23977710415E+02  0.72370423857E+02  0.79047903342E+02  0.41800000000E+01 0.  1.
        -11    1    4    4    0    0  0.37343765436E+02 -0.56608311231E+02 -0.74311675428E+02  0.10060458649E+03  0.00000000000E+00 0.  1.
         11    1    4    4    0    0 -0.38108039738E+01  0.28020336103E+02 -0.55423533213E+01  0.28816299946E+02  0.00000000000E+00 0. -1.
</event>
<event>
 8    1  0.7103328E-009  0.1114124E+03  0.7561462E-02  0.1257976E+00
         -1   -1    0    0    0  501 -0.00000000000E+00  0.00000000000E+00  0.12220217909E+02  0.12220217909E+02  0.00000000000E+00 0.  1.
          1   -1    0    0  501    0  0.00000000000E+00 -0.00000000000E+00 -0.12286976456E+04  0.12286976456E+04  0.00000000000E+00 0. -1.
         25    2    1    2    0    0 -0.45115871026E+02  0.10382197517E+02 -0.81966117791E+03  0.83044251657E+03  0.12508834841E+03 0.  0.
         23    2    1    2    0    0  0.45115871026E+02 -0.10382197517E+02 -0.39681624975E+03  0.41047534691E+03  0.94253076930E+02 0.  0.
          5    1    3    3  502    0 -0.55012842808E+02 -0.39967250718E+02 -0.63800073157E+03  0.64162777363E+03  0.41800000000E+01 0. -1.
         -5    1    3    3    0  502  0.98969717825E+01  0.50349448235E+02 -0.18166044634E+03  0.18881474294E+03  0.41800000000E+01 0. -1.
        -11    1    4    4    0    0  0.69445163166E+02  0.11622264000E+02 -0.23298246229E+03  0.24338967817E+03  0.00000000000E+00 0. -1.
         11    1    4    4    0    0 -0.24329292140E+02 -0.22004461517E+02 -0.16383378746E+03  0.16708566874E+03  0.00000000000E+00 0.  1.
</event>
<event>
 8    1  0.7103328E-009  0.1649568E+03  0.7561462E-02  0.1183212E+00
         -2   -1    0    0    0  501 -0.00000000000E+00  0.00000000000E+00  0.33190429407E+03  0.33190429407E+03  0.00000000000E+00 0.  1.
          2   -1    0    0  501    0  0.00000000000E+00 -0.00000000000E+00 -0.11744873622E+03  0.11744873622E+03  0.00000000000E+00 0. -1.
         25    2    1    2    0    0  0.59550466032E+02 -0.11347858459E+03  0.22795151519E+03  0.28988486896E+03  0.12509075429E+03 0.  0.
         23    2    1    2    0    0 -0.59550466032E+02  0.11347858459E+03 -0.13495957344E+02  0.15946816134E+03  0.93937779675E+02 0.  0.
          5    1    3    3  502    0 -0.33128925119E+02 -0.18043019169E+02  0.92504238501E+02  0.99987913074E+02  0.41800000000E+01 0. -1.
         -5    1    3    3    0  502  0.92679391151E+02 -0.95435565422E+02  0.13544727669E+03  0.18989695588E+03  0.41800000000E+01 0. -1.
        -11    1    4    4    0    0 -0.28479186198E+02 -0.11025599042E+02 -0.39036440231E+01  0.30787437655E+02  0.00000000000E+00 0. -1.
         11    1    4    4    0    0 -0.31071279834E+02  0.12450418363E+03 -0.95923133207E+01  0.12868072368E+03  0.00000000000E+00 0.  1.
</event>
<event>
 8    1  0.7103328E-009  0.2007658E+03  0.7561462E-02  0.1149094E+00
         -1   -1    0    0    0  501 -0.00000000000E+00  0.00000000000E+00  0.61451804200E+02  0.61451804200E+02  0.00000000000E+00 0.  1.
          1   -1    0    0  501    0  0.00000000000E+00 -0.00000000000E+00 -0.77821584512E+03  0.77821584512E+03  0.00000000000E+00 0. -1.
         25    2    1    2    0    0  0.18034543230E+03 -0.36419662907E+02 -0.28532627229E+03  0.36181409135E+03  0.12508992063E+03 0.  0.
         23    2    1    2    0    0 -0.18034543230E+03  0.36419662907E+02 -0.43143776863E+03  0.47785355797E+03  0.91403544074E+02 0.  0.
          5    1    3    3  502    0  0.10430389627E+03 -0.64901035825E+02 -0.23765699051E+03  0.26756263709E+03  0.41800000000E+01 0. -1.
         -5    1    3    3    0  502  0.76041536028E+02  0.28481372918E+02 -0.47669281782E+02  0.94251454262E+02  0.41800000000E+01 0. -1.
        -11    1    4    4    0    0 -0.61218929419E+02 -0.21448204177E+02 -0.21043973687E+03  0.22021050301E+03  0.00000000000E+00 0. -1.
         11    1    4    4    0    0 -0.11912650288E+03  0.57867867084E+02 -0.22099803176E+03  0.25764305496E+03  0.00000000000E+00 0.  1.
</event>
<event>
 8    1  0.7103328E-009  0.1281399E+03  0.7561462E-02  0.1230242E+00
          1   -1    0    0  501    0  0.00000000000E+00  0.00000000000E+00  0.47292162820E+02  0.47292162820E+02  0.00000000000E+00 0. -1.
         -1   -1    0    0    0  501 -0.00000000000E+00 -0.00000000000E+00 -0.63675869930E+03  0.63675869930E+03  0.00000000000E+00 0.  1.
         25    2    1    2    0    0 -0.35353997657E+02  0.99878144756E+02 -0.47798174909E+03  0.50531146174E+03  0.12509025524E+03 0.  0.
         23    2    1    2    0    0  0.35353997657E+02 -0.99878144756E+02 -0.11148478739E+03  0.17873940038E+03  0.91067922332E+02 0.  0.
          5    1    3    3  502    0  0.10102001896E+02 -0.17863761434E+02 -0.15929053700E+02  0.26312954351E+02  0.41800000000E+01 0.  1.
         -5    1    3    3    0  502 -0.45455999553E+02  0.11774190619E+03 -0.46205269539E+03  0.47899850739E+03  0.41800000000E+01 0.  1.
        -11    1    4    4    0    0  0.17248326523E+02 -0.81315450604E+02 -0.12452055156E+03  0.14971664916E+03  0.00000000000E+00 0.  1.
         11    1    4    4    0    0  0.18105671135E+02 -0.18562694152E+02  0.13035764161E+02  0.29022751225E+02  0.00000000000E+00 0. -1.
</event>
<event>
 8    1  0.7103328E-009  0.1195435E+03  0.7561462E-02  0.1243852E+00
         -2   -1    0    0    0  501 -0.00000000000E+00  0.00000000000E+00  0.37574184703E+02  0.37574184703E+02  0.00000000000E+00 0.  1.
          2   -1    0    0  501    0  0.00000000000E+00 -0.00000000000E+00 -0.42268500929E+03  0.42268500929E+03  0.00000000000E+00 0. -1.
         25    2    1    2    0    0 -0.48254896124E+02  0.28463267740E+02 -0.26952676026E+03  0.30237547087E+03  0.12509020057E+03 0.  0.
         23    2    1    2    0    0  0.48254896124E+02 -0.28463267740E+02 -0.11558406433E+03  0.15788372312E+03  0.91809049063E+02 0.  0.
          5    1    3    3  502    0 -0.42729116639E+02  0.75054730519E+02 -0.20496341391E+03  0.22245553134E+03  0.41800000000E+01 0.  1.
         -5    1    3    3    0  502 -0.55257794847E+01 -0.46591462779E+02 -0.64563346350E+02  0.79919939532E+02  0.41800000000E+01 0.  1.
        -11    1    4    4    0    0  0.25509166815E+02  0.31996034102E+02 -0.60223730570E+02  0.72810449206E+02  0.00000000000E+00 0. -1.
         11    1    4    4    0    0  0.22745729309E+02 -0.60459301841E+02 -0.55360333755E+02  0.85073273914E+02  0.00000000000E+00 0.  1.
</event>
<event>
 8    1  0.7103328E-009  0.1878651E+03  0.7561462E-02  0.1160401E+00
          1   -1    0    0  501    0  0.00000000000E+00  0.00000000000E+00  0.24539913964E+04  0.24539913964E+04  0.00000000000E+00 0.  1.
         -1   -1    0    0    0  501 -0.00000000000E+00 -0.00000000000E+00 -0.15415742389E+02  0.15415742389E+02  0.00000000000E+00 0. -1.
         25    2    1    2    0    0  0.13685361266E+03 -0.75826480534E+02  0.15135236023E+04  0.15267210089E+04  0.12507908738E+03 0.  0.
         23    2    1    2    0    0 -0.13685361266E+03  0.75826480534E+02  0.92505205171E+03  0.94268612980E+03  0.91963441137E+02 0.  0.
          5    1    3    3  502    0  0.15684722383E+03 -0.58345413163E+02  0.14040698788E+04  0.14140137679E+04  0.41800000000E+01 0.  1.
         -5    1    3    3    0  502 -0.19993611171E+02 -0.17481067371E+02  0.10945372350E+03  0.11270724108E+03  0.41800000000E+01 0.  1.
        -11    1    4    4    0    0 -0.14695436847E+03  0.52542968588E+02  0.80213296973E+03  0.81717418650E+03  0.00000000000E+00 0.  1.
         11    1    4    4    0    0  0.10100755810E+02  0.23283511946E+02  0.12291908198E+03  0.12551194330E+03  0.00000000000E+00 0. -1.
</event>
<event>
 8    1  0.7103328E-009  0.1845127E+03  0.7561462E-02  0.1163506E+00
         -1   -1    0    0    0  501 -0.00000000000E+00  0.00000000000E+00  0.22647923690E+02  0.22647923690E+02  0.00000000000E+00 0.  1.
          1   -1    0    0  501    0  0.00000000000E+00 -0.00000000000E+00 -0.18710048819E+04  0.18710048819E+04  0.00000000000E+00 0. -1.
         25    2    1    2    0    0 -0.44023558579E+01 -0.15794179962E+03 -0.13084999810E+04  0.13239270182E+04  0.12508219916E+03 0.  0.
         23    2    1    2    0    0  0.44023558579E+01  0.15794179962E+03 -0.53985697721E+03  0.56972578735E+03  0.90426346416E+02 0.  0.
          5    1    3    3  502    0  0.23595696449E+02  0.13658014919E+02 -0.18551821265E+03  0.18755739891E+03  0.41800000000E+01 0.  1.
         -5    1    3    3    0  502 -0.27998052307E+02 -0.17159981453E+03 -0.11229817683E+04  0.11363696193E+04  0.41800000000E+01 0.  1.
        -11    1    4    4    0    0 -0.22619741294E+02  0.11168770907E+03 -0.45750802672E+03  0.47148636414E+03  0.00000000000E+00 0.  1.
         11    1    4    4    0    0  0.27022097152E+02  0.46254090542E+02 -0.82348950493E+02  0.98239423215E+02  0.00000000000E+00 0. -1.
</event>
<event>
 8    1  0.7103328E-009  0.1637714E+03  0.7561462E-02  0.1184503E+00
          2   -1    0    0  501    0  0.00000000000E+00  0.00000000000E+00  0.17617293069E+03  0.17617293069E+03  0.00000000000E+00 0.  1.
         -2   -1    0    0    0  501 -0.00000000000E+00 -0.00000000000E+00 -0.17602481105E+03  0.17602481105E+03  0.00000000000E+00 0. -1.
         25    2    1    2    0    0  0.18870543440E+02 -0.13477924041E+03 -0.27574936503E+02  0.18689478970E+03  0.12509094387E+03 0.  0.
         23    2    1    2    0    0 -0.18870543440E+02  0.13477924041E+03  0.27723056147E+02  0.16530295204E+03  0.89637921968E+02 0.  0.
          5    1    3    3  502    0  0.21138420243E+02  0.77690066459E+01  0.25896854613E+02  0.34573251995E+02  0.41800000000E+01 0. -1.
         -5    1    3    3    0  502 -0.22678768032E+01 -0.14254824706E+03 -0.53471791116E+02  0.15232153771E+03  0.41800000000E+01 0. -1.
        -11    1    4    4    0    0 -0.53561822110E+02  0.66193020532E+02  0.23470985541E+02  0.88324809182E+02  0.00000000000E+00 0.  1.
         11    1    4    4    0    0  0.34691278670E+02  0.68586219880E+02  0.42520706064E+01  0.76978142856E+02  0.00000000000E+00 0. -1.
</event>
<event>
 8    1  0.7103328E-009  0.3766389E+03  0.7561462E-02  0.1052183E+00
         -2   -1    0    0    0  501 -0.00000000000E+00  0.00000000000E+00  0.23199057107E+03  0.23199057107E+03  0.00000000000E+00 0.  1.
          2   -1    0    0  501    0  0.00000000000E+00 -0.00000000000E+00 -0.72442393972E+03  0.72442393972E+03  0.00000000000E+00 0. -1.
         25    2    1    2    0    0 -0.21478860151E+02  0.36082512429E+03 -0.43479615265E+03  0.57909518895E+03  0.12508969485E+03 0.  0.
         23    2    1    2    0    0  0.21478860151E+02 -0.36082512429E+03 -0.57637215996E+02  0.37731932184E+03  0.91606278266E+02 0.  0.
          5    1    3    3  502    0  0.50618919731E+02  0.19484681239E+03 -0.23647460972E+03  0.31058858442E+03  0.41800000000E+01 0. -1.
         -5    1    3    3    0  502 -0.72097779882E+02  0.16597831190E+03 -0.19832154293E+03  0.26850660453E+03  0.41800000000E+01 0. -1.
        -11    1    4    4    0    0  0.39212194203E+02 -0.75868614183E+02 -0.29821661448E+02  0.90459793742E+02  0.00000000000E+00 0. -1.
         11    1    4    4    0    0 -0.17733334053E+02 -0.28495651010E+03 -0.27815554548E+02  0.28685952810E+03  0.00000000000E+00 0.  1.
</event>
<event>
 8    1  0.7103328E-009  0.1066249E+03  0.7561462E-02  0.1266951E+00
          2   -1    0    0  501    0  0.00000000000E+00  0.00000000000E+00  0.25886640315E+03  0.25886640315E+03  0.00000000000E+00 0. -1.
         -2   -1    0    0    0  501 -0.00000000000E+00 -0.00000000000E+00 -0.65628811014E+02  0.65628811014E+02  0.00000000000E+00 0.  1.
         25    2    1    2    0    0 -0.25247226232E+02 -0.46479317307E+02  0.47244142877E+02  0.14379328711E+03  0.12508697378E+03 0.  0.
         23    2    1    2    0    0  0.25247226232E+02  0.46479317307E+02  0.14599344926E+03  0.18070192706E+03  0.92419423532E+02 0.  0.
          5    1    3    3  502    0 -0.18784544666E+02 -0.79286362716E+02  0.66255913134E+02  0.10510235419E+03  0.41800000000E+01 0. -1.
         -5    1    3    3    0  502 -0.64626815653E+01  0.32807045410E+02 -0.19011770257E+02  0.38690932915E+02  0.41800000000E+01 0. -1.
        -11    1    4    4    0    0  0.49749915290E+02  0.52915396235E+02  0.71093484944E+02  0.10163354186E+03  0.00000000000E+00 0.  1.
         11    1    4    4    0    0 -0.24502689058E+02 -0.64360789278E+01  0.74899964312E+02  0.79068385193E+02  0.00000000000E+00 0. -1.
</event>
<event>
 8    1  0.7103328E-009  0.1786456E+03  0.7561462E-02  0.1169120E+00
          2   -1    0    0  501    0  0.00000000000E+00  0.00000000000E+00  0.81202897617E+03  0.81202897617E+03  0.00000000000E+00 0. -1.
         -2   -1    0    0    0  501 -0.00000000000E+00 -0.00000000000E+00 -0.49968489949E+02  0.49968489949E+02  0.00000000000E+00 0.  1.
         25    2    1    2    0    0 -0.16015271771E+03  0.92290610484E+01  0.51290920681E+03  0.55177600082E+03  0.12508729790E+03 0.  0.
         23    2    1    2    0    0  0.16015271771E+03 -0.92290610484E+01  0.24915127941E+03  0.31022146530E+03  0.91798305760E+02 0.  0.
          5    1    3    3  502    0 -0.11267839764E+03  0.37284176682E+02  0.18925552446E+03  0.22343154895E+03  0.41800000000E+01 0.  1.
         -5    1    3    3    0  502 -0.47474320067E+02 -0.28055115633E+02  0.32365368234E+03  0.32834445187E+03  0.41800000000E+01 0.  1.
        -11    1    4    4    0    0  0.78457878938E+02 -0.48860308739E+02  0.14601863594E+03  0.17281322455E+03  0.00000000000E+00 0.  1.
         11    1    4    4    0    0  0.81694838772E+02  0.39631247691E+02  0.10313264347E+03  0.13740824074E+03  0.00000000000E+00 0. -1.
</event>
<event>
 8    1  0.7103328E-009  0.2190933E+03  0.7561462E-02  0.1134561E+00
          2   -1    0    0  501    0  0.00000000000E+00  0.00000000000E+00  0.82326446934E+03  0.82326446934E+03  0.00000000000E+00 0.  1.
         -2   -1    0    0    0  501 -0.00000000000E+00 -0.00000000000E+00 -0.60149151713E+02  0.60149151713E+02  0.00000000000E+00 0. -1.
         25    2    1    2    0    0  0.17191580225E+03  0.83514448329E+02  0.32084917594E+03  0.39385375764E+03  0.12508749961E+03 0.  0.
         23    2    1    2    0    0 -0.17191580225E+03 -0.83514448329E+02  0.44226614169E+03  0.48955986342E+03  0.86832100322E+02 0.  0.
          5    1    3    3  502    0  0.12038776170E+03 -0.10720408869E+02  0.17058710472E+03  0.20910660685E+03  0.41800000000E+01 0. -1.
         -5    1    3    3    0  502  0.51528040553E+02  0.94234857198E+02  0.15026207122E+03  0.18474715078E+03  0.41800000000E+01 0. -1.
        -11    1    4    4    0    0 -0.22618603467E+02 -0.52662603718E+02  0.11244200096E+03  0.12620679313E+03  0.00000000000E+00 0.  1.
         11    1    4    4    0    0 -0.14929719878E+03 -0.30851844611E+02  0.32982414073E+03  0.36335307029E+03  0.00000000000E+00 0. -1.
</event>
<event>
 8    1  0.7103328E-009  0.1309568E+03  0.7561462E-02  0.1226043E+00
          2   -1    0    0  501    0  0.00000000000E+00  0.00000000000E+00  0.47325626995E+03  0.47325626995E+03  0.00000000000E+00 0.  1.
         -2   -1    0    0    0  501 -0.00000000000E+00 -0.00000000000E+00 -0.38017487079E+02  0.38017487079E+02  0.00000000000E+00 0. -1.
         25    2    1    2    0    0  0.73489696533E+02  0.15359302826E+02  0.29131058768E+03  0.32580068946E+03  0.12509031568E+03 0.  0.
         23    2    1    2    0    0 -0.73489696533E+02 -0.15359302826E+02  0.14392819519E+03  0.18547306758E+03  0.89712260835E+02 0.  0.
          5    1    3    3  502    0 -0.27843456238E+02  0.32402228931E+02  0.79767608936E+02  0.90584249902E+02  0.41800000000E+01 0. -1.
         -5    1    3    3    0  502  0.10133315277E+03 -0.17042926105E+02  0.21154297874E+03  0.23521643955E+03  0.41800000000E+01 0. -1.
        -11    1    4    4    0    0 -0.71253494140E+02 -0.46397214021E+02  0.95067278261E+02  0.12754430325E+03  0.00000000000E+00 0.  1.
         11    1    4    4    0    0 -0.22362023930E+01  0.31037911195E+02  0.48860916933E+02  0.57928764324E+02  0.00000000000E+00 0. -1.
</event>
<event>
 8    1  0.7103328E-009  0.1330638E+03  0.7561462E-02  0.1222979E+00
          4   -1    0    0  501    0  0.00000000000E+00  0.00000000000E+00  0.10815103421E+03  0.10815103421E+03  0.00000000000E+00 0. -1.
         -4   -1    0    0    0  501 -0.00000000000E+00 -0.00000000000E+00 -0.24758038173E+03  0.24758038173E+03  0.00000000000E+00 0.  1.
         25    2    1    2    0    0  0.10215553022E+03  0.53966076275E+02 -0.23449984108E+02  0.17188920311E+03  0.12509159304E+03 0.  0.
         23    2    1    2    0    0 -0.10215553022E+03 -0.53966076275E+02 -0.11597936341E+03  0.18384221283E+03  0.83657974760E+02 0.  0.
          5    1    3    3  502    0  0.51240054280E+02  0.10711175741E+01  0.47282670288E+02  0.69855663801E+02  0.41800000000E+01 0.  1.
         -5    1    3    3    0  502  0.50915475937E+02  0.52894958701E+02 -0.70732654396E+02  0.10203353931E+03  0.41800000000E+01 0.  1.
        -11    1    4    4    0    0 -0.47663069813E+02 -0.69710787149E+02 -0.82070411166E+02  0.11775786368E+03  0.00000000000E+00 0.  1.
         11    1    4    4    0    0 -0.54492460404E+02  0.15744710873E+02 -0.33908952242E+02  0.66084349157E+02  0.00000000000E+00 0. -1.
</event>
<event>
 8    1  0.7103328E-009  0.1472972E+03  0.7561462E-02  0.1203834E+00
          1   -1    0    0  501    0  0.00000000000E+00  0.00000000000E+00  0.21623294600E+02  0.21623294600E+02  0.00000000000E+00 0. -1.
         -1   -1    0    0    0  501 -0.00000000000E+00 -0.00000000000E+00 -0.11823243658E+04  0.11823243658E+04  0.00000000000E+00 0.  1.
         25    2    1    2    0    0 -0.81627557960E+02 -0.76537621356E+02 -0.75183432819E+03  0.77033905088E+03  0.12508529314E+03 0.  0.
         23    2    1    2    0    0  0.81627557960E+02  0.76537621356E+02 -0.40886674297E+03  0.43360860948E+03  0.91232379172E+02 0.  0.
          5    1    3    3  502    0  0.20298572413E+01 -0.77740576966E+02 -0.25969850141E+03  0.27112451320E+03  0.41800000000E+01 0. -1.
         -5    1    3    3    0  502 -0.83657415202E+02  0.12029556102E+01 -0.49213582679E+03  0.49921453768E+03  0.41800000000E+01 0. -1.
        -11    1    4    4    0    0  0.43752562428E+02  0.83655899190E+02 -0.35524110498E+03  0.36757154250E+03  0.00000000000E+00 0.  1.
         11    1    4    4    0    0  0.37874995533E+02 -0.71182778344E+01 -0.53625637993E+02  0.66037066986E+02  0.00000000000E+00 0. -1.
</event>
<event>
 8    1  0.7103328E-009  0.1276832E+03  0.7561462E-02  0.1230935E+00
          1   -1    0    0  501    0  0.00000000000E+00  0.00000000000E+00  0.25328117832E+03  0.25328117832E+03  0.00000000000E+00 0. -1.
         -1   -1    0    0    0  501 -0.00000000000E+00 -0.00000000000E+00 -0.79378425987E+02  0.79378425987E+02  0.00000000000E+00 0.  1.
         25    2    1    2    0    0 -0.85850864249E+02 -0.31656397234E+02  0.94170231456E+02  0.18135037390E+03  0.12508967680E+03 0.  0.
         23    2    1    2    0    0  0.85850864249E+02  0.31656397234E+02  0.79732520882E+02  0.15130923042E+03  0.90358784547E+02 0.  0.
          5    1    3    3  502    0 -0.11650399496E+03 -0.33161581396E+02  0.60034912494E+02  0.13525728979E+03  0.41800000000E+01 0. -1.
         -5    1    3    3    0  502  0.30653130713E+02  0.15051841619E+01  0.34135318962E+02  0.46093084107E+02  0.41800000000E+01 0. -1.
        -11    1    4    4    0    0  0.17644964661E+02  0.30189088905E+02  0.75205773094E+02  0.82937531755E+02  0.00000000000E+00 0. -1.
         11    1    4    4    0    0  0.68205899588E+02  0.14673083288E+01  0.45267477875E+01  0.68371698662E+02  0.00000000000E+00 0.  1.
</event>
<event>
 8    1  0.7103328E-009  0.2518009E+03  0.7561462E-02  0.1112172E+00
         -1   -1    0    0    0  501 -0.00000000000E+00  0.00000000000E+00  0.62983481188E+03  0.62983481188E+03  0.00000000000E+00 0.  1.
          1   -1    0    0  501    0  0.00000000000E+00 -0.00000000000E+00 -0.17396636565E+03  0.17396636565E+03  0.00000000000E+00 0. -1.
         25    2    1    2    0    0 -0.92265725555E+02 -0.21765826314E+03  0.47988399554E+03  0.54938533158E+03  0.12509000661E+03 0.  0.
         23    2    1    2    0    0  0.92265725555E+02  0.21765826314E+03 -0.24015549306E+02  0.25441584595E+03  0.90898803293E+02 0.  0.
          5    1    3    3  502    0 -0.54596001306E+02 -0.22215325692E+03  0.39895391003E+03  0.45990704240E+03  0.41800000000E+01 0.  1.
         -5    1    3    3    0  502 -0.37669724249E+02  0.44949937800E+01  0.80930085509E+02  0.89478289180E+02  0.41800000000E+01 0.  1.
        -11    1    4    4    0    0  0.29062108044E+02  0.81336404520E+02  0.34711206787E+02  0.93086436718E+02  0.00000000000E+00 0.  1.
         11    1    4    4    0    0  0.63203617511E+02  0.13632185862E+03 -0.58726756093E+02  0.16132940924E+03  0.00000000000E+00 0. -1.
</event>
<event>
 8    1  0.7103328E-009  0.1219885E+03  0.7561462E-02  0.1239852E+00
          1   -1    0    0  501    0  0.00000000000E+00  0.00000000000E+00  0.19589507162E+03  0.19589507162E+03  0.00000000000E+00 0. -1.
         -1   -1    0    0    0  501 -0.00000000000E+00 -0.00000000000E+00 -0.89648094426E+02  0.89648094426E+02  0.00000000000E+00 0.  1.
         25    2    1    2    0    0  0.40618522526E+02  0.18784791403E+02  0.18858565447E+01  0.13286524274E+03  0.12508750342E+03 0.  0.
         23    2    1    2    0    0 -0.40618522526E+02 -0.18784791403E+02  0.10436112065E+03  0.15267792331E+03  0.10206160885E+03 0.  0.
          5    1    3    3  502    0 -0.24714182798E+02 -0.38325526311E+02  0.39552293824E+01  0.45964693384E+02  0.41800000000E+01 0.  1.
         -5    1    3    3    0  502  0.65332705324E+02  0.57110317714E+02 -0.20693728377E+01  0.86900549355E+02  0.41800000000E+01 0.  1.
        -11    1    4    4    0    0 -0.60479149084E+02 -0.47145272304E+02  0.75329487363E+02  0.10749388746E+03  0.00000000000E+00 0.  1.
         11    1    4    4    0    0  0.19860626559E+02  0.28360480901E+02  0.29031633285E+02  0.45184035847E+02  0.00000000000E+00 0. -1.
</event>
<event>
 8    1  0.7103328E-009  0.1157978E+03  0.7561462E-02  0.1250195E+00
         -2   -1    0    0    0  501 -0.00000000000E+00  0.00000000000E+00  0.67438336284E+02  0.67438336284E+02  0.00000000000E+00 0.  1.
          2   -1    0    0  501    0  0.00000000000E+00 -0.00000000000E+00 -0.24538494479E+03  0.24538494479E+03  0.00000000000E+00 0. -1.
         25    2    1    2    0    0 -0.63073792577E+02  0.28132908909E+02 -0.92766119577E+02  0.17036150389E+03  0.12509086774E+03 0.  0.
         23    2    1    2    0    0  0.63073792577E+02 -0.28132908909E+02 -0.85180488932E+02  0.14246177719E+03  0.90938871726E+02 0.  0.
          5    1    3    3  502    0  0.21220954436E+02  0.51016514891E+02 -0.37749105247E+02  0.67048348569E+02  0.41800000000E+01 0.  1.
         -5    1    3    3    0  502 -0.84294747013E+02 -0.22883605982E+02 -0.55017014330E+02  0.10331315532E+03  0.41800000000E+01 0.  1.
        -11    1    4    4    0    0  0.72321666886E+00  0.13658201996E+02 -0.62602251820E+02  0.64078947066E+02  0.00000000000E+00 0. -1.
         11    1    4    4    0    0  0.62350575908E+02 -0.41791110905E+02 -0.22578237112E+02  0.78382830121E+02  0.00000000000E+00 0.  1.
</event>
<event>
 8    1  0.7103328E-009  0.4228982E+03  0.7561462E-02  0.1036127E+00
         -1   -1    0    0    0  501 -0.00000000000E+00  0.00000000000E+00  0.12177877653E+03  0.12177877653E+03  0.00000000000E+00 0.  1.
          1   -1    0    0  501    0  0.00000000000E+00 -0.00000000000E+00 -0.15505651012E+04  0.15505651012E+04  0.00000000000E+00 0. -1.
         25    2    1    2    0    0 -0.27062523072E+03 -0.32189346636E+03 -0.72106313933E+03  0.84405724945E+03  0.12508864965E+03 0.  0.
         23    2    1    2    0    0  0.27062523072E+03  0.32189346636E+03 -0.70772318530E+03  0.82828662823E+03  0.91286430013E+02 0.  0.
          5    1    3    3  502    0 -0.94624515448E+02 -0.81011549808E+02 -0.32582176892E+03  0.34884662479E+03  0.41800000000E+01 0. -1.
         -5    1    3    3    0  502 -0.17600071527E+03 -0.24088191655E+03 -0.39524137041E+03  0.49521062466E+03  0.41800000000E+01 0. -1.
        -11    1    4    4    0    0  0.89497757764E+01  0.27510283019E+02 -0.99900892943E+02  0.10400530068E+03  0.00000000000E+00 0. -1.
         11    1    4    4    0    0  0.26167545494E+03  0.29438318334E+03 -0.60782229236E+03  0.72428132755E+03  0.00000000000E+00 0.  1.
</event>
<event>
 8    1  0.7103328E-009  0.1123592E+03  0.7561462E-02  0.1256262E+00
          2   -1    0    0  501    0  0.00000000000E+00  0.00000000000E+00  0.58873254975E+03  0.58873254975E+03  0.00000000000E+00 0. -1.
         -2   -1    0    0    0  501 -0.00000000000E+00 -0.00000000000E+00 -0.39951211534E+02  0.39951211534E+02  0.00000000000E+00 0.  1.
         25    2    1    2    0    0 -0.66964882067E+02  0.39608310640E+02  0.44605417307E+03  0.46974970746E+03  0.12508936262E+03 0.  0.
         23    2    1    2    0    0  0.66964882067E+02 -0.39608310640E+02  0.10272716514E+03  0.15893405382E+03  0.93027142837E+02 0.  0.
          5    1    3    3  502    0  0.20932014811E+02 -0.63493628435E+01  0.13703858164E+02  0.26148265357E+02  0.41800000000E+01 0. -1.
         -5    1    3    3    0  502 -0.87896896878E+02  0.45957673484E+02  0.43235031491E+03  0.44360144210E+03  0.41800000000E+01 0. -1.
        -11    1    4    4    0    0  0.17487844763E+02 -0.49692581387E+02  0.93908706543E+02  0.10767554283E+03  0.00000000000E+00 0. -1.
         11    1    4    4    0    0  0.49477037304E+02  0.10084270747E+02  0.88184585960E+01  0.51258510990E+02  0.00000000000E+00 0.  1.
</event>
<event>
 8    1  0.7103328E-009  0.2591204E+03  0.7561462E-02  0.1107673E+00
         -2   -1    0    0    0  501 -0.00000000000E+00  0.00000000000E+00  0.10843145925E+03  0.10843145925E+03  0.00000000000E+00 0.  1.
          2   -1    0    0  501    0  0.00000000000E+00 -0.00000000000E+00 -0.80572700205E+03  0.80572700205E+03  0.00000000000E+00 0. -1.
         25    2    1    2    0    0  0.24965953908E+03  0.21595253955E+02 -0.18274108959E+03  0.33441599330E+03  0.12507401929E+03 0.  0.
         23    2    1    2    0    0 -0.24965953908E+03 -0.21595253955E+02 -0.51455445320E+03  0.57974246800E+03  0.92405646201E+02 0.  0.
          5    1    3    3  502    0  0.24366764928E+03  0.91411478782E+01 -0.12335016461E+03  0.27329511411E+03  0.41800000000E+01 0. -1.
         -5    1    3    3    0  502  0.59918897994E+01  0.12454106077E+02 -0.59390924989E+02  0.61120879187E+02  0.41800000000E+01 0. -1.
        -11    1    4    4    0    0 -0.48451402749E+02  0.23312873868E+02 -0.59669878282E+02  0.80321372564E+02  0.00000000000E+00 0.  1.
         11    1    4    4    0    0 -0.20120813633E+03 -0.44908127822E+02 -0.45488457492E+03  0.49942109544E+03  0.00000000000E+00 0. -1.
</event>
<event>
 8    1  0.7103328E-009  0.1236202E+03  0.7561462E-02  0.1237242E+00
          2   -1    0    0  501    0  0.00000000000E+00  0.00000000000E+00  0.12158398396E+03  0.12158398396E+03  0.00000000000E+00 0. -1.
         -2   -1    0    0    0  501 -0.00000000000E+00 -0.00000000000E+00 -0.16964724989E+03  0.16964724989E+03  0.00000000000E+00 0.  1.
         25    2    1    2    0    0  0.89754686038E+02  0.19987044425E+02 -0.83302066848E+01  0.15547086343E+03  0.12508561636E+03 0.  0.
         23    2    1    2    0    0 -0.89754686038E+02 -0.19987044425E+02 -0.39733059249E+02  0.13576037042E+03  0.91633926959E+02 0.  0.
          5    1    3    3  502    0 -0.87539026459E+01  0.50960561686E+02 -0.14930480855E+01  0.51897121803E+02  0.41800000000E+01 0.  1.
         -5    1    3    3    0  502  0.98508588684E+02 -0.30973517261E+02 -0.68371585993E+01  0.10357374162E+03  0.41800000000E+01 0.  1.
        -11    1    4    4    0    0 -0.56630785210E+02 -0.14301030133E+02 -0.69556369559E+02  0.90827605069E+02  0.00000000000E+00 0.  1.
         11    1    4    4    0    0 -0.33123900828E+02 -0.56860142915E+01  0.29823310310E+02  0.44932765355E+02  0.00000000000E+00 0. -1.
</event>
<event>
 8    1  0.7103328E-009  0.7595124E+02  0.7561462E-02  0.1340950E+00
         -2   -1    0    0    0  501 -0.00000000000E+00  0.00000000000E+00  0.62893941872E+02  0.62893941872E+02  0.00000000000E+00 0.  1.
          2   -1    0    0  501    0  0.00000000000E+00 -0.00000000000E+00 -0.21764006586E+03  0.21764006586E+03  0.00000000000E+00 0. -1.
         25    2    1    2    0    0  0.42507563575E+02  0.13108867502E+02 -0.86052282626E+02  0.15821396221E+03  0.12509167488E+03 0.  0.
         23    2    1    2    0    0 -0.42507563575E+02 -0.13108867502E+02 -0.68693841360E+02  0.12232004552E+03  0.90909924247E+02 0.  0.
          5    1    3    3  502    0  0.13978183593E+01  0.25989248442E+02 -0.10694983586E+03  0.11015050940E+03  0.41800000000E+01 0.  1.
         -5    1    3    3    0  502  0.41109745216E+02 -0.12880380940E+02  0.20897553234E+02  0.48063452810E+02  0.41800000000E+01 0.  1.
        -11    1    4    4    0    0  0.19304971376E+02 -0.14710545732E+01 -0.54504242141E+02  0.57840801626E+02  0.00000000000E+00 0. -1.
         11    1    4    4    0    0 -0.61812534952E+02 -0.11637812929E+02 -0.14189599219E+02  0.64479243892E+02  0.00000000000E+00 0.  1.
</event>
<event>
 8    1  0.7103328E-009  0.1181169E+03  0.7561462E-02  0.1246236E+00
          1   -1    0    0  501    0  0.00000000000E+00  0.00000000000E+00  0.16555646258E+03  0.16555646258E+03  0.00000000000E+00 0. -1.
         -1   -1    0    0    0  501 -0.00000000000E+00 -0.00000000000E+00 -0.14036773166E+03  0.14036773166E+03  0.00000000000E+00 0.  1.
         25    2    1    2    0    0 -0.26545260661E+02 -0.83183500953E+02 -0.47875729484E+02  0.15988423547E+03  0.12508692011E+03 0.  0.
         23    2    1    2    0    0  0.26545260661E+02  0.83183500953E+02  0.73064460395E+02  0.14603995877E+03  0.91460967033E+02 0.  0.
          5    1    3    3  502    0  0.19435678407E+02 -0.47307052078E+02  0.32313717035E+02  0.60641169844E+02  0.41800000000E+01 0.  1.
         -5    1    3    3    0  502 -0.45980939068E+02 -0.35876448875E+02 -0.80189446520E+02  0.99243065625E+02  0.41800000000E+01 0.  1.
        -11    1    4    4    0    0 -0.33444352666E+02  0.41970726009E+02  0.30885804127E+02  0.61919297990E+02  0.00000000000E+00 0. -1.
         11    1    4    4    0    0  0.59989613327E+02  0.41212774944E+02  0.42178656269E+02  0.84120660782E+02  0.00000000000E+00 0.  1.
</event>
<event>
 8    1  0.7103328E-009  0.1156747E+03  0.7561462E-02  0.1250408E+00
          2   -1    0    0  501    0  0.00000000000E+00  0.00000000000E+00  0.22610371734E+02  0.22610371734E+02  0.00000000000E+00 0. -1.
         -2   -1    0    0    0  501 -0.00000000000E+00 -0.00000000000E+00 -0.65188821752E+03  0.65188821752E+03  0.00000000000E+00 0.  1.
         25    2    1    2    0    0 -0.39905734157E+02 -0.86742726612E+01 -0.45369693963E+03  0.47239476506E+03  0.12509272721E+03 0.  0.
         23    2    1    2    0    0  0.39905734157E+02  0.86742726612E+01 -0.17558090616E+03  0.20210382420E+03  0.91376093824E+02 0.  0.
          5    1    3    3  502    0 -0.65692597721E+01 -0.65204745387E+02 -0.21500595724E+03  0.22481069379E+03  0.41800000000E+01 0. -1.
         -5    1    3    3    0  502 -0.33336474385E+02  0.56530472726E+02 -0.23869098239E+03  0.24758407127E+03  0.41800000000E+01 0. -1.
        -11    1    4    4    0    0  0.94524255113E+01 -0.40769491358E+02 -0.79325886451E+02  0.89688884678E+02  0.00000000000E+00 0.  1.
         11    1    4    4    0    0  0.30453308646E+02  0.49443764020E+02 -0.96255019711E+02  0.11241493952E+03  0.00000000000E+00 0. -1.
</event>
<event>
 8    1  0.7103328E-009  0.8589091E+02  0.7561462E-02  0.1313119E+00
          1   -1    0    0  501    0  0.00000000000E+00  0.00000000000E+00  0.26323477709E+03  0.26323477709E+03  0.00000000000E+00 0. -1.
         -1   -1    0    0    0  501 -0.00000000000E+00 -0.00000000000E+00 -0.70156828804E+02  0.70156828804E+02  0.00000000000E+00 0.  1.
         25    2    1    2    0    0  0.34941245911E+02  0.66899322231E+02  0.11733266292E+03  0.18737903690E+03  0.12509012630E+03 0.  0.
         23    2    1    2    0    0 -0.34941245911E+02 -0.66899322231E+02  0.75745285364E+02  0.14601256900E+03  0.99427923997E+02 0.  0.
          5    1    3    3  502    0 -0.10625973602E+01  0.56547159593E+01 -0.26212893160E+02  0.27160506136E+02  0.41800000000E+01 0.  1.
         -5    1    3    3    0  502  0.36003843271E+02  0.61244606272E+02  0.14354555608E+03  0.16021853076E+03  0.41800000000E+01 0.  1.
        -11    1    4    4    0    0 -0.49575528737E+02 -0.43766159838E+02  0.92657578519E+02  0.11383600772E+03  0.00000000000E+00 0. -1.
         11    1    4    4    0    0  0.14634282826E+02 -0.23133162393E+02 -0.16912293154E+02  0.32176561281E+02  0.00000000000E+00 0.  1.
</event>
<event>
 8    1  0.7103328E-009  0.1099026E+03  0.7561462E-02  0.1260750E+00
         -1   -1    0    0    0  501 -0.00000000000E+00  0.00000000000E+00  0.11654145247E+03  0.11654145247E+03  0.00000000000E+00 0.  1.
          1   -1    0    0  501    0  0.00000000000E+00 -0.00000000000E+00 -0.19504130759E+03  0.19504130759E+03  0.00000000000E+00 0. -1.
         25    2    1    2    0    0  0.66854826747E+02 -0.63468237513E+02  0.99715895701E+01  0.15570291006E+03  0.12508468559E+03 0.  0.
         23    2    1    2    0    0 -0.66854826747E+02  0.63468237513E+02 -0.88471444683E+02  0.15587985000E+03  0.89294714739E+02 0.  0.
          5    1    3    3  502    0  0.81004622209E+02 -0.72972445858E+02 -0.29057437794E+02  0.11290940512E+03  0.41800000000E+01 0. -1.
         -5    1    3    3    0  502 -0.14149795462E+02  0.95042083448E+01  0.39029027364E+02  0.42793504938E+02  0.41800000000E+01 0. -1.
        -11    1    4    4    0    0 -0.10462156123E+02  0.40200532048E+01  0.18197165114E+02  0.21371812200E+02  0.00000000000E+00 0.  1.
         11    1    4    4    0    0 -0.56392670624E+02  0.59448184308E+02 -0.10666860980E+03  0.13450803780E+03  0.00000000000E+00 0. -1.
</event>
<event>
 8    1  0.7103328E-009  0.2627245E+03  0.7561462E-02  0.1105517E+00
         -2   -1    0    0    0  501 -0.00000000000E+00  0.00000000000E+00  0.35710921126E+02  0.35710921126E+02  0.00000000000E+00 0.  1.
          2   -1    0    0  501    0  0.00000000000E+00 -0.00000000000E+00 -0.21369691844E+04  0.21369691844E+04  0.00000000000E+00 0. -1.
         25    2    1    2    0    0  0.25233259993E+03 -0.15775148266E+02 -0.11143970926E+04  0.11495430895E+04  0.12509132009E+03 0.  0.
         23    2    1    2    0    0 -0.25233259993E+03  0.15775148266E+02 -0.98686117071E+03  0.10231370161E+04  0.94835579118E+02 0.  0.
          5    1    3    3  502    0  0.15445028594E+03 -0.27044817749E+02 -0.89981748048E+03  0.91338671085E+03  0.41800000000E+01 0.  1.
         -5    1    3    3    0  502  0.97882313991E+02  0.11269669483E+02 -0.21457961213E+03  0.23615637866E+03  0.41800000000E+01 0.  1.
        -11    1    4    4    0    0 -0.20619303657E+03  0.50430480263E+02 -0.76765427089E+03  0.79646210286E+03  0.00000000000E+00 0. -1.
         11    1    4    4    0    0 -0.46139563353E+02 -0.34655331997E+02 -0.21920689982E+03  0.22667491320E+03  0.00000000000E+00 0.  1.
</event>
<event>
 8    1  0.7103328E-009  0.2286509E+03  0.7561462E-02  0.1127593E+00
         -2   -1    0    0    0  501 -0.00000000000E+00  0.00000000000E+00  0.28111208830E+04  0.28111208830E+04  0.00000000000E+00 0.  1.
          2   -1    0    0  501    0  0.00000000000E+00 -0.00000000000E+00 -0.31272238450E+02  0.31272238450E+02  0.00000000000E+00 0. -1.
         25    2    1    2    0    0 -0.19404367574E+03 -0.10198557394E+03  0.22158209376E+04  0.22301488110E+04  0.12508911447E+03 0.  0.
         23    2    1    2    0    0  0.19404367574E+03  0.10198557394E+03  0.56402770704E+03  0.61224431049E+03  0.93068985311E+02 0.  0.
          5    1    3    3  502    0 -0.11591841356E+03 -0.56604955940E+02  0.17991891869E+04  0.18038127404E+04  0.41800000000E+01 0.  1.
         -5    1    3    3    0  502 -0.78125262181E+02 -0.45380617999E+02  0.41663175064E+03  0.42633607063E+03  0.41800000000E+01 0.  1.
        -11    1    4    4    0    0  0.17595946182E+03  0.11942900101E+03  0.49333489885E+03  0.53721908093E+03  0.00000000000E+00 0. -1.
         11    1    4    4    0    0  0.18084213913E+02 -0.17443427067E+02  0.70692808188E+02  0.75025229558E+02  0.00000000000E+00 0.  1.
</event>
<event>
 8    1  0.7103328E-009  0.1668847E+03  0.7561462E-02  0.1181136E+00
          2   -1    0    0  501    0  0.00000000000E+00  0.00000000000E+00  0.32221101609E+03  0.32221101609E+03  0.00000000000E+00 0. -1.
         -2   -1    0    0    0  501 -0.00000000000E+00 -0.00000000000E+00 -0.11015354650E+03  0.11015354650E+03  0.00000000000E+00 0.  1.
         25    2    1    2    0    0 -0.12626126597E+03 -0.88443334479E+02  0.11498017550E+03  0.22941813377E+03  0.12509240043E+03 0.  0.
         23    2    1    2    0    0  0.12626126597E+03  0.88443334479E+02  0.97077294087E+02  0.20294642882E+03  0.89437806562E+02 0.  0.
          5    1    3    3  502    0 -0.16318036642E+02  0.10011782929E+02 -0.20981784334E+02  0.28709263158E+02  0.41800000000E+01 0.  1.
         -5    1    3    3    0  502 -0.10994322933E+03 -0.98455117408E+02  0.13596195984E+03  0.20070887061E+03  0.41800000000E+01 0.  1.
        -11    1    4    4    0    0  0.82711293940E+02  0.19490365070E+02  0.85550363277E+02  0.12058149581E+03  0.00000000000E+00 0. -1.
         11    1    4    4    0    0  0.43549972034E+02  0.68952969410E+02  0.11526930810E+02  0.82364933002E+02  0.00000000000E+00 0.  1.
</event>
<event>
 8    1  0.7103328E-009  0.1717645E+03  0.7561462E-02  0.1176020E+00
          2   -1    0    0  501    0  0.00000000000E+00  0.00000000000E+00  0.66130842889E+03  0.66130842889E+03  0.00000000000E+00 0. -1.
         -2   -1    0    0    0  501 -0.00000000000E+00 -0.00000000000E+00 -0.54799407089E+02  0.54799407089E+02  0.00000000000E+00 0.  1.
         25    2    1    2    0    0  0.56333519772E+02 -0.13933742252E+03  0.39816056630E+03  0.44358427481E+03  0.12508712777E+03 0.  0.
         23    2    1    2    0    0 -0.56333519772E+02  0.13933742252E+03  0.20834845550E+03  0.27252356117E+03  0.90948500362E+02 0.  0.
          5    1    3    3  502    0  0.33016285732E+02 -0.14863336944E+03  0.24618936950E+03  0.28949720498E+03  0.41800000000E+01 0.  1.
         -5    1    3    3    0  502  0.23317234039E+02  0.92959469142E+01  0.15197119680E+03  0.15408706983E+03  0.41800000000E+01 0.  1.
        -11    1    4    4    0    0 -0.10764586766E+02  0.11223160021E+03  0.18001120878E+03  0.21240490508E+03  0.00000000000E+00 0. -1.
         11    1    4    4    0    0 -0.45568933006E+02  0.27105822310E+02  0.28337246714E+02  0.60118656087E+02  0.00000000000E+00 0.  1.
</event>
<event>
 8    1  0.7103328E-009  0.1413421E+03  0.7561462E-02  0.1211534E+00
          1   -1    0    0  501    0  0.00000000000E+00  0.00000000000E+00  0.42777496059E+02  0.42777496059E+02  0.00000000000E+00 0. -1.
         -1   -1    0    0    0  501 -0.00000000000E+00 -0.00000000000E+00 -0.68573182271E+03  0.68573182271E+03  0.00000000000E+00 0.  1.
         25    2    1    2    0    0  0.10248258731E+03  0.51814477664E+02 -0.20249880261E+03  0.26427325222E+03  0.12508863250E+03 0.  0.
         23    2    1    2    0    0 -0.10248258731E+03 -0.51814477664E+02 -0.44045552405E+03  0.46423606656E+03  0.91250402919E+02 0.  0.
          5    1    3    3  502    0 -0.22542501258E+02 -0.13381137883E+02 -0.49493224185E+02  0.56162895707E+02  0.41800000000E+01 0.  1.
         -5    1    3    3    0  502  0.12502508857E+03  0.65195615547E+02 -0.15300557842E+03  0.20811035651E+03  0.41800000000E+01 0.  1.
        -11    1    4    4    0    0 -0.33297404157E+02 -0.13007707751E+02 -0.31463041560E+02  0.47621849699E+02  0.00000000000E+00 0. -1.
         11    1    4    4    0    0 -0.69185183151E+02 -0.38806769913E+02 -0.40899248249E+03  0.41661421686E+03  0.00000000000E+00 0.  1.
</event>
<event>
 8    1  0.7103328E-009  0.8555261E+02  0.7561462E-02  0.1313994E+00
         -1   -1    0    0    0  501 -0.00000000000E+00  0.00000000000E+00  0.57421990085E+02  0.57421990085E+02  0.00000000000E+00 0.  1.
          1   -1    0    0  501    0  0.00000000000E+00 -0.00000000000E+00 -0.29720224551E+03  0.29720224551E+03  0.00000000000E+00 0. -1.
         25    2    1    2    0    0 -0.51585845063E+01 -0.50328937607E+02 -0.20582902017E+03  0.24611238059E+03  0.12508439304E+03 0.  0.
         23    2    1    2    0    0  0.51585845063E+01  0.50328937607E+02 -0.33951235260E+02  0.10851185501E+03  0.89791554987E+02 0.  0.
          5    1    3    3  502    0  0.42616772021E+02 -0.55563166356E+02 -0.17582040231E+03  0.18929802160E+03  0.41800000000E+01 0.  1.
         -5    1    3    3    0  502 -0.47775356527E+02  0.52342287490E+01 -0.30008617864E+02  0.56814358995E+02  0.41800000000E+01 0.  1.
        -11    1    4    4    0    0 -0.30204123247E+01  0.36659595553E+02 -0.64390460331E+02  0.74156457699E+02  0.00000000000E+00 0. -1.
         11    1    4    4    0    0  0.81789968310E+01  0.13669342054E+02  0.30439225072E+02  0.34355397310E+02  0.00000000000E+00 0.  1.
</event>
<event>
 8    1  0.7103328E-009  0.2298554E+03  0.7561462E-02  0.1126742E+00
         -1   -1    0    0    0  501 -0.00000000000E+00  0.00000000000E+00  0.33770828138E+03  0.33770828138E+03  0.00000000000E+00 0.  1.
          1   -1    0    0  501    0  0.00000000000E+00 -0.00000000000E+00 -0.21464129928E+03  0.21464129928E+03  0.00000000000E+00 0. -1.
         25    2    1    2    0    0  0.21998692653E+03 -0.99771289699E+01 -0.49187456720E+02  0.25799328792E+03  0.12508932715E+03 0.  0.
         23    2    1    2    0    0 -0.21998692653E+03  0.99771289699E+01  0.17225443882E+03  0.29435629273E+03  0.92088242630E+02 0.  0.
          5    1    3    3  502    0  0.92494301910E+02 -0.48169492456E+02  0.22498858191E+02  0.10676688114E+03  0.41800000000E+01 0.  1.
         -5    1    3    3    0  502  0.12749262462E+03  0.38192363487E+02 -0.71686314911E+02  0.15122640678E+03  0.41800000000E+01 0.  1.
        -11    1    4    4    0    0 -0.41106765485E+02 -0.96725433311E+01 -0.40570195934E+01  0.42423857334E+02  0.00000000000E+00 0. -1.
         11    1    4    4    0    0 -0.17888016105E+03  0.19649672301E+02  0.17631145842E+03  0.25193243540E+03  0.00000000000E+00 0.  1.
</event>
<event>
 8    1  0.7103328E-009  0.2178149E+03  0.7561462E-02  0.1135523E+00
         -1   -1    0    0    0  501 -0.00000000000E+00  0.00000000000E+00  0.54335976937E+02  0.54335976937E+02  0.00000000000E+00 0.  1.
          1   -1    0    0  501    0  0.00000000000E+00 -0.00000000000E+00 -0.12375206017E+04  0.12375206017E+04  0.00000000000E+00 0. -1.
         25    2    1    2    0    0 -0.14623920318E+03  0.14722455684E+03 -0.33191580578E+03  0.41094584694E+03  0.12508961710E+03 0.  0.
         23    2    1    2    0    0  0.14623920318E+03 -0.14722455684E+03 -0.85126881897E+03  0.88091073168E+03  0.91017253105E+02 0.  0.
          5    1    3    3  502    0 -0.10758386639E+02  0.28529169760E+02  0.27146784103E+01  0.30894955724E+02  0.41800000000E+01 0. -1.
         -5    1    3    3    0  502 -0.13548081654E+03  0.11869538708E+03 -0.33463048419E+03  0.38005089121E+03  0.41800000000E+01 0. -1.
        -11    1    4    4    0    0  0.11629264421E+03 -0.56785087957E+02 -0.54565216693E+03  0.56078945477E+03  0.00000000000E+00 0. -1.
         11    1    4    4    0    0  0.29946558969E+02 -0.90439468881E+02 -0.30561665204E+03  0.32012127691E+03  0.00000000000E+00 0.  1.
</event>
<event>
 8    1  0.7103328E-009  0.1141259E+03  0.7561462E-02  0.1253115E+00
         -2   -1    0    0    0  501 -0.00000000000E+00  0.00000000000E+00  0.19886913125E+02  0.19886913125E+02  0.00000000000E+00 0.  1.
          2   -1    0    0  501    0  0.00000000000E+00 -0.00000000000E+00 -0.97269026205E+03  0.97269026205E+03  0.00000000000E+00 0. -1.
         25    2    1    2    0    0 -0.30534524485E+02 -0.32122259787E+02 -0.77326507841E+03  0.78456999355E+03  0.12508795523E+03 0.  0.
         23    2    1    2    0    0  0.30534524485E+02  0.32122259787E+02 -0.17953827052E+03  0.20800718163E+03  0.95230248692E+02 0.  0.
          5    1    3    3  502    0 -0.57435240638E+02  0.22795454810E+02 -0.24277910687E+03  0.25055459836E+03  0.41800000000E+01 0. -1.
         -5    1    3    3    0  502  0.26900716153E+02 -0.54917714597E+02 -0.53048597153E+03  0.53401539519E+03  0.41800000000E+01 0. -1.
        -11    1    4    4    0    0 -0.20136750310E+02 -0.22716765128E+02 -0.53551409101E+02  0.61557237980E+02  0.00000000000E+00 0.  1.
         11    1    4    4    0    0  0.50671274794E+02  0.54839024915E+02 -0.12598686142E+03  0.14644994365E+03  0.00000000000E+00 0. -1.
</event>
<event>
 8    1  0.7103328E-009  0.1757486E+03  0.7561462E-02  0.1171982E+00
         -2   -1    0    0    0  501 -0.00000000000E+00  0.00000000000E+00  0.54407292017E+02  0.54407292017E+02  0.00000000000E+00 0.  1.
          2   -1    0    0  501    0  0.00000000000E+00 -0.00000000000E+00 -0.64210409350E+03  0.64210409350E+03  0.00000000000E+00 0. -1.
         25    2    1    2    0    0 -0.13894722288E+03  0.57768785801E+02 -0.31541270304E+03  0.37118185228E+03  0.12508889186E+03 0.  0.
         23    2    1    2    0    0  0.13894722288E+03 -0.57768785801E+02 -0.27228409844E+03  0.32532953323E+03  0.95168858194E+02 0.  0.
          5    1    3    3  502    0 -0.91491670623E+02 -0.16808725971E+02 -0.92082882802E+02  0.13095796565E+03  0.41800000000E+01 0. -1.
         -5    1    3    3    0  502 -0.47455552255E+02  0.74577511772E+02 -0.22332982023E+03  0.24022388663E+03  0.41800000000E+01 0. -1.
        -11    1    4    4    0    0  0.64674047666E+02  0.14473464125E+02 -0.61299585464E+02  0.90276535065E+02  0.00000000000E+00 0. -1.
         11    1    4    4    0    0  0.74273175212E+02 -0.72242249926E+02 -0.21098451298E+03  0.23505299817E+03  0.00000000000E+00 0.  1.
</event>
<event>
 8    1  0.7103328E-009  0.9319305E+02  0.7561462E-02  0.1295298E+00
         -2   -1    0    0    0  501 -0.00000000000E+00  0.00000000000E+00  0.40595277598E+02  0.40595277598E+02  0.00000000000E+00 0.  1.
          2   -1    0    0  501    0  0.00000000000E+00 -0.00000000000E+00 -0.30754381368E+03  0.30754381368E+03  0.00000000000E+00 0. -1.
         25    2    1    2    0    0  0.12340550698E+02  0.17844001090E+02 -0.15319411955E+03  0.19896339117E+03  0.12508914899E+03 0.  0.
         23    2    1    2    0    0 -0.12340550698E+02 -0.17844001090E+02 -0.11375441653E+03  0.14917570010E+03  0.94035230926E+02 0.  0.
          5    1    3    3  502    0 -0.38363185053E+02 -0.77563612633E+00 -0.23317569287E+01  0.38668398844E+02  0.41800000000E+01 0.  1.
         -5    1    3    3    0  502  0.50703735751E+02  0.18619637216E+02 -0.15086236262E+03  0.16029499232E+03  0.41800000000E+01 0.  1.
        -11    1    4    4    0    0 -0.33246910159E+01  0.37445280177E+02 -0.64136322620E+02  0.74341579598E+02  0.00000000000E+00 0.  1.
         11    1    4    4    0    0 -0.90158596823E+01 -0.55289281267E+02 -0.49618093910E+02  0.74834120507E+02  0.00000000000E+00 0. -1.
</event>
<event>
 8    1  0.7103328E-009  0.1446041E+03  0.7561462E-02  0.1207265E+00
          2   -1    0    0  501    0  0.00000000000E+00  0.00000000000E+00  0.13779429074E+04  0.13779429074E+04  0.00000000000E+00 0. -1.
         -2   -1    0    0    0  501 -0.00000000000E+00 -0.00000000000E+00 -0.16104039322E+02  0.16104039322E+02  0.00000000000E+00 0.  1.
         25    2    1    2    0    0  0.41582278328E+02  0.88744403587E+02  0.86961198084E+03  0.88401073904E+03  0.12508131148E+03 0.  0.
         23    2    1    2    0    0 -0.41582278328E+02 -0.88744403587E+02  0.49222688723E+03  0.51003620767E+03  0.90801814875E+02 0.  0.
          5    1    3    3  502    0  0.69232988711E+02  0.55406168953E+01  0.44657564078E+03  0.45196369379E+03  0.41800000000E+01 0. -1.
         -5    1    3    3    0  502 -0.27650710382E+02  0.83203786691E+02  0.42303634006E+03  0.43204704526E+03  0.41800000000E+01 0. -1.
        -11    1    4    4    0    0 -0.61532359419E+02 -0.27424767838E+02  0.29250906759E+03  0.30016646010E+03  0.00000000000E+00 0. -1.
         11    1    4    4    0    0  0.19950081091E+02 -0.61319635749E+02  0.19971781964E+03  0.20986974757E+03  0.00000000000E+00 0.  1.
</event>
<event>
 8    1  0.7103328E-009  0.7674953E+02  0.7561462E-02  0.1338537E+00
         -1   -1    0    0    0  501 -0.00000000000E+00  0.00000000000E+00  0.11067851976E+03  0.11067851976E+03  0.00000000000E+00 0.  1.
          1   -1    0    0  501    0  0.00000000000E+00 -0.00000000000E+00 -0.19351352868E+03  0.19351352868E+03  0.00000000000E+00 0. -1.
         25    2    1    2    0    0 -0.20542340654E+02  0.53233094655E+02  0.37765570950E+02  0.14258256338E+03  0.12509116238E+03 0.  0.
         23    2    1    2    0    0  0.20542340654E+02 -0.53233094655E+02 -0.12060057987E+03  0.16160948506E+03  0.91199647317E+02 0.  0.
          5    1    3    3  502    0 -0.11625319196E+02  0.22867679710E+02  0.83137659296E+02  0.87105807011E+02  0.41800000000E+01 0.  1.
         -5    1    3    3    0  502 -0.89170214579E+01  0.30365414945E+02 -0.45372088347E+02  0.55476756370E+02  0.41800000000E+01 0.  1.
        -11    1    4    4    0    0  0.45059920932E+01 -0.71291763717E+02 -0.11715243710E+03  0.13721338513E+03  0.00000000000E+00 0. -1.
         11    1    4    4    0    0  0.16036348560E+02  0.18058669062E+02 -0.34481427640E+01  0.24396099933E+02  0.00000000000E+00 0.  1.
</event>
<event>
 8    1  0.7103328E-009  0.8217095E+02  0.7561462E-02  0.1323001E+00
         -2   -1    0    0    0  501 -0.00000000000E+00  0.00000000000E+00  0.12520208431E+02  0.12520208431E+02  0.00000000000E+00 0.  1.
          2   -1    0    0  501    0  0.00000000000E+00 -0.00000000000E+00 -0.14864097961E+04  0.14864097961E+04  0.00000000000E+00 0. -1.
         25    2    1    2    0    0  0.89857718554E+01  0.26816694350E+02 -0.12436608800E+04  0.12502560787E+04  0.12509196080E+03 0.  0.
         23    2    1    2    0    0 -0.89857718554E+01 -0.26816694350E+02 -0.23022870763E+03  0.24867392581E+03  0.89630264793E+02 0.  0.
          5    1    3    3  502    0 -0.25244791195E+02 -0.32913911789E+01 -0.55389589917E+02  0.61103288042E+02  0.41800000000E+01 0.  1.
         -5    1    3    3    0  502  0.34230563050E+02  0.30108085529E+02 -0.11882712901E+04  0.11891527906E+04  0.41800000000E+01 0.  1.
        -11    1    4    4    0    0  0.24037708570E+02 -0.47893607901E+02 -0.11278066180E+03  0.12486427347E+03  0.00000000000E+00 0.  1.
         11    1    4    4    0    0 -0.33023480426E+02  0.21076913551E+02 -0.11744804583E+03  0.12380965234E+03  0.00000000000E+00 0. -1.
</event>
<event>
 8    1  0.7103328E-009  0.1059272E+03  0.7561462E-02  0.1268304E+00
         -1   -1    0    0    0  501 -0.00000000000E+00  0.00000000000E+00  0.69594702540E+02  0.69594702540E+02  0.00000000000E+00 0.  1.
          1   -1    0    0  501    0  0.00000000000E+00 -0.00000000000E+00 -0.23568749678E+03  0.23568749678E+03  0.00000000000E+00 0. -1.
         25    2    1    2    0    0  0.39872271140E+02 -0.20166037181E+02 -0.31608860220E+02  0.13654068589E+03  0.12509105403E+03 0.  0.
         23    2    1    2    0    0 -0.39872271140E+02  0.20166037181E+02 -0.13448393402E+03  0.16874151342E+03  0.91604054400E+02 0.  0.
          5    1    3    3  502    0 -0.13047603623E+02  0.32464495749E+02  0.24632871235E+02  0.42993420308E+02  0.41800000000E+01 0.  1.
         -5    1    3    3    0  502  0.52919874763E+02 -0.52630532930E+02 -0.56241731455E+02  0.93547265585E+02  0.41800000000E+01 0.  1.
        -11    1    4    4    0    0 -0.16954506258E+02  0.56454339334E+02 -0.80566886992E+02  0.99827706533E+02  0.00000000000E+00 0. -1.
         11    1    4    4    0    0 -0.22917764882E+02 -0.36288302153E+02 -0.53917047023E+02  0.68913806890E+02  0.00000000000E+00 0.  1.
</event>
<event>
 8    1  0.7103328E-009  0.1246417E+03  0.7561462E-02  0.1235630E+00
          2   -1    0    0  501    0  0.00000000000E+00  0.00000000000E+00  0.40159932004E+03  0.40159932004E+03  0.00000000000E+00 0. -1.
         -2   -1    0    0    0  501 -0.00000000000E+00 -0.00000000000E+00 -0.54534833363E+02  0.54534833363E+02  0.00000000000E+00 0.  1.
         25    2    1    2    0    0 -0.26901902572E+02  0.89811973638E+02  0.24356176111E+03  0.28941279242E+03  0.12509008742E+03 0.  0.
         23    2    1    2    0    0  0.26901902572E+02 -0.89811973638E+02  0.10350272556E+03  0.16672136098E+03  0.91067530094E+02 0.  0.
          5    1    3    3  502    0 -0.63796781461E+02  0.21807805424E+02  0.60710640760E+02  0.90823256954E+02  0.41800000000E+01 0. -1.
         -5    1    3    3    0  502  0.36894878889E+02  0.68004168213E+02  0.18285112035E+03  0.19858953546E+03  0.41800000000E+01 0. -1.
        -11    1    4    4    0    0 -0.77740864297E+00 -0.70493382432E+02  0.15104111669E+02  0.72097541707E+02  0.00000000000E+00 0.  1.
         11    1    4    4    0    0  0.27679311215E+02 -0.19318591205E+02  0.88398613892E+02  0.94623819272E+02  0.00000000000E+00 0. -1.
</event>
<event>
 8    1  0.7103328E-009  0.2209632E+03  0.7561462E-02  0.1133167E+00
          2   -1    0    0  501    0  0.00000000000E+00  0.00000000000E+00  0.25837275035E+04  0.25837275035E+04  0.00000000000E+00 0. -1.
         -2   -1    0    0    0  501 -0.00000000000E+00 -0.00000000000E+00 -0.39495202198E+02  0.39495202198E+02  0.00000000000E+00 0.  1.
         25    2    1    2    0    0 -0.18471744463E+03 -0.72657705102E+02  0.22142545369E+04  0.22266500634E+04  0.12509066321E+03 0.  0.
         23    2    1    2    0    0  0.18471744463E+03  0.72657705102E+02  0.32997776435E+03  0.39657264229E+03  0.94788497106E+02 0.  0.
          5    1    3    3  502    0 -0.78648351610E+02  0.30136478803E+02  0.65409414235E+03  0.65950768761E+03  0.41800000000E+01 0.  1.
         -5    1    3    3    0  502 -0.10606909302E+03 -0.10279418391E+03  0.15601603946E+04  0.15671423758E+04  0.41800000000E+01 0.  1.
        -11    1    4    4    0    0  0.11983913141E+03  0.80669577577E+02  0.27708916170E+03  0.31248584239E+03  0.00000000000E+00 0. -1.
         11    1    4    4    0    0  0.64878313215E+02 -0.80118724744E+01  0.52888602655E+02  0.84086799897E+02  0.00000000000E+00 0.  1.
</event>
<event>
 8    1  0.7103328E-009  0.1442366E+03  0.7561462E-02  0.1207739E+00
          4   -1    0    0  501    0  0.00000000000E+00  0.00000000000E+00  0.43530567784E+03  0.43530567784E+03  0.00000000000E+00 0. -1.
         -4   -1    0    0    0  501 -0.00000000000E+00 -0.00000000000E+00 -0.74046895792E+02  0.74046895792E+02  0.00000000000E+00 0.  1.
         25    2    1    2    0    0 -0.13131613824E+03 -0.45543386736E+01  0.27014839992E+03  0.32541057951E+03  0.12508883689E+03 0.  0.
         23    2    1    2    0    0  0.13131613824E+03  0.45543386736E+01  0.91110382133E+02  0.18394199413E+03  0.90933411387E+02 0.  0.
          5    1    3    3  502    0 -0.42596163496E+02  0.19642378035E+02  0.21053727964E+03  0.21573983099E+03  0.41800000000E+01 0.  1.
         -5    1    3    3    0  502 -0.88719974748E+02 -0.24196716708E+02  0.59611120275E+02  0.10967074851E+03  0.41800000000E+01 0.  1.
        -11    1    4    4    0    0  0.10258384568E+03 -0.27572004701E+02  0.32295777086E+02  0.11102557388E+03  0.00000000000E+00 0.  1.
         11    1    4    4    0    0  0.28732292564E+02  0.32126343375E+02  0.58814605047E+02  0.72916420246E+02  0.00000000000E+00 0. -1.
</event>
<event>
 8    1  0.7103328E-009  0.1058845E+03  0.7561462E-02  0.1268387E+00
          2   -1    0    0  501    0  0.00000000000E+00  0.00000000000E+00  0.61765259637E+03  0.61765259637E+03  0.00000000000E+00 0. -1.
         -2   -1    0    0    0  501 -0.00000000000E+00 -0.00000000000E+00 -0.23405964866E+02  0.23405964866E+02  0.00000000000E+00 0.  1.
         25    2    1    2    0    0  0.38164145239E+02  0.34503253136E+02  0.35155745772E+03  0.37667990079E+03  0.12509246630E+03 0.  0.
         23    2    1    2    0    0 -0.38164145239E+02 -0.34503253136E+02  0.24268917379E+03  0.26437866045E+03  0.91384159277E+02 0.  0.
          5    1    3    3  502    0  0.68221765901E+02  0.39573810864E+02  0.32947249304E+03  0.33880657007E+03  0.41800000000E+01 0. -1.
         -5    1    3    3    0  502 -0.30057620661E+02 -0.50705577280E+01  0.22084964675E+02  0.37873330725E+02  0.41800000000E+01 0. -1.
        -11    1    4    4    0    0 -0.52586197942E+02 -0.55559979451E+02  0.15198048260E+03  0.17014783755E+03  0.00000000000E+00 0.  1.
         11    1    4    4    0    0  0.14422052703E+02  0.21056726315E+02  0.90708691190E+02  0.94230822901E+02  0.00000000000E+00 0. -1.
</event>
<event>
 8    1  0.7103328E-009  0.1103505E+03  0.7561462E-02  0.1259922E+00
          2   -1    0    0  501    0  0.00000000000E+00  0.00000000000E+00  0.32099079244E+02  0.32099079244E+02  0.00000000000E+00 0. -1.
         -2   -1    0    0    0  501 -0.00000000000E+00 -0.00000000000E+00 -0.47201545739E+03  0.47201545739E+03  0.00000000000E+00 0.  1.
         25    2    1    2    0    0  0.10911188549E+02  0.55062780304E+02 -0.21177728032E+03  0.25228424864E+03  0.12508701707E+03 0.  0.
         23    2    1    2    0    0 -0.10911188549E+02 -0.55062780304E+02 -0.22813909783E+03  0.25183028800E+03  0.90664668893E+02 0.  0.
          5    1    3    3  502    0  0.33737346279E+02  0.83450784613E+02 -0.18828906684E+03  0.20874023828E+03  0.41800000000E+01 0. -1.
         -5    1    3    3    0  502 -0.22826157730E+02 -0.28388004309E+02 -0.23488213483E+02  0.43544010358E+02  0.41800000000E+01 0. -1.
        -11    1    4    4    0    0 -0.40678599428E+02 -0.13615834939E+02 -0.16584972990E+03  0.17130753725E+03  0.00000000000E+00 0.  1.
         11    1    4    4    0    0  0.29767410879E+02 -0.41446945365E+02 -0.62289367930E+02  0.80522750745E+02  0.00000000000E+00 0. -1.
</event>
<event>
 8    1  0.7103328E-009  0.9142917E+02  0.7561462E-02  0.1299427E+00
         -1   -1    0    0    0  501 -0.00000000000E+00  0.00000000000E+00  0.14569401713E+03  0.14569401713E+03  0.00000000000E+00 0.  1.
          1   -1    0    0  501    0  0.00000000000E+00 -0.00000000000E+00 -0.13827027091E+03  0.13827027091E+03  0.00000000000E+00 0. -1.
         25    2    1    2    0    0 -0.10184347395E+02  0.75725077226E+02 -0.44805426226E+02  0.15327718843E+03  0.12509341318E+03 0.  0.
         23    2    1    2    0    0  0.10184347395E+02 -0.75725077226E+02  0.52229172447E+02  0.13068709960E+03  0.92267130087E+02 0.  0.
          5    1    3    3  502    0 -0.86470792699E+01  0.90117228531E+02 -0.76232167756E+02  0.11842593744E+03  0.41800000000E+01 0. -1.
         -5    1    3    3    0  502 -0.15372681252E+01 -0.14392151305E+02  0.31426741529E+02  0.34851250991E+02  0.41800000000E+01 0. -1.
        -11    1    4    4    0    0  0.61692063096E+01 -0.13871650281E+02  0.65552674828E+02  0.67287702927E+02  0.00000000000E+00 0.  1.
         11    1    4    4    0    0  0.40151410855E+01 -0.61853426944E+02 -0.13323502382E+02  0.63399396672E+02  0.00000000000E+00 0. -1.
</event>
<event>
 8    1  0.7103328E-009  0.1137649E+03  0.7561462E-02  0.1253753E+00
          2   -1    0    0  501    0  0.00000000000E+00  0.00000000000E+00  0.36462842387E+03  0.36462842387E+03  0.00000000000E+00 0. -1.
         -2   -1    0    0    0  501 -0.00000000000E+00 -0.00000000000E+00 -0.45900618951E+02  0.45900618951E+02  0.00000000000E+00 0.  1.
         25    2    1    2    0    0 -0.43588623078E+01  0.64673306818E+02  0.14211385947E+03  0.20011346477E+03  0.12508962161E+03 0.  0.
         23    2    1    2    0    0  0.43588623078E+01 -0.64673306818E+02  0.17661394545E+03  0.21041557805E+03  0.94236900756E+02 0.  0.
          5    1    3    3  502    0  0.31896476312E+02  0.87780258431E+02  0.11832248240E+03  0.15079934089E+03  0.41800000000E+01 0. -1.
         -5    1    3    3    0  502 -0.36255338620E+02 -0.23106951613E+02  0.23791377072E+02  0.49314123882E+02  0.41800000000E+01 0. -1.
        -11    1    4    4    0    0 -0.19207188597E+02 -0.64478237961E+02  0.17418188335E+03  0.18672355971E+03  0.00000000000E+00 0. -1.
         11    1    4    4    0    0  0.23566050904E+02 -0.19506885780E+00  0.24320621032E+01  0.23692018343E+02  0.00000000000E+00 0.  1.
</event>
<event>
 8    1  0.7103328E-009  0.9371196E+02  0.7561462E-02  0.1294104E+00
         -2   -1    0    0    0  501 -0.00000000000E+00  0.00000000000E+00  0.34135405781E+02  0.34135405781E+02  0.00000000000E+00 0. -1.
          2   -1    0    0  501    0  0.00000000000E+00 -0.00000000000E+00 -0.57909060695E+03  0.57909060695E+03  0.00000000000E+00 0.  1.
         25    2    1    2    0    0  0.48340563180E+02  0.67601814356E+02 -0.37090527302E+03  0.40015280123E+03  0.12507888479E+03 0.  0.
         23    2    1    2    0    0 -0.48340563180E+02 -0.67601814356E+02 -0.17404992815E+03  0.21307321151E+03  0.90553854809E+02 0.  0.
          5    1    3    3  502    0  0.10523882505E+02  0.40011164158E+02 -0.34296511395E+03  0.34547675341E+03  0.41800000000E+01 0. -1.
         -5    1    3    3    0  502  0.37816680676E+02  0.27590650198E+02 -0.27940159072E+02  0.54676047815E+02  0.41800000000E+01 0. -1.
        -11    1    4    4    0    0 -0.17664214117E+02 -0.65782592979E+02 -0.47988597995E+02  0.83320342876E+02  0.00000000000E+00 0. -1.
         11    1    4    4    0    0 -0.30676349063E+02 -0.18192213778E+01 -0.12606133015E+03  0.12975286863E+03  0.00000000000E+00 0.  1.
</event>
<event>
 8    1  0.7103328E-009  0.9090275E+02  0.7561462E-02  0.1300680E+00
         -1   -1    0    0    0  501 -0.00000000000E+00  0.00000000000E+00  0.11816133756E+03  0.11816133756E+03  0.00000000000E+00 0.  1.
          1   -1    0    0  501    0  0.00000000000E+00 -0.00000000000E+00 -0.15135770056E+03  0.15135770056E+03  0.00000000000E+00 0. -1.
         25    2    1    2    0    0  0.36826702443E+02  0.52280190317E+02 -0.63601812649E+02  0.15421622446E+03  0.12509208209E+03 0.  0.
         23    2    1    2    0    0 -0.36826702443E+02 -0.52280190317E+02  0.30405449648E+02  0.11530281366E+03  0.90999028331E+02 0.  0.
          5    1    3    3  502    0 -0.14292904354E+01 -0.12494873370E+02 -0.76617900008E+02  0.77755641167E+02  0.41800000000E+01 0. -1.
         -5    1    3    3    0  502  0.38255992878E+02  0.64775063687E+02  0.13016087358E+02  0.76460583288E+02  0.41800000000E+01 0. -1.
        -11    1    4    4    0    0 -0.54171855424E+01  0.16623084872E+02 -0.18266523506E+02  0.25285148425E+02  0.00000000000E+00 0. -1.
         11    1    4    4    0    0 -0.31409516900E+02 -0.68903275189E+02  0.48671973154E+02  0.90017665235E+02  0.00000000000E+00 0.  1.
</event>
<event>
 8    1  0.7103328E-009  0.1232007E+03  0.7561462E-02  0.1237908E+00
         -2   -1    0    0    0  501 -0.00000000000E+00  0.00000000000E+00  0.29227804524E+02  0.29227804524E+02  0.00000000000E+00 0.  1.
          2   -1    0    0  501    0  0.00000000000E+00 -0.00000000000E+00 -0.60790487774E+03  0.60790487774E+03  0.00000000000E+00 0. -1.
         25    2    1    2    0    0 -0.34283102301E+02  0.68457271078E+02 -0.29517575071E+03  0.32960210077E+03  0.12508833661E+03 0.  0.
         23    2    1    2    0    0  0.34283102301E+02 -0.68457271078E+02 -0.28350132250E+03  0.30753058149E+03  0.91325405146E+02 0.  0.
          5    1    3    3  502    0 -0.63142368757E+02  0.13043096122E+02 -0.67361759544E+02  0.93338952949E+02  0.41800000000E+01 0.  1.
         -5    1    3    3    0  502  0.28859266456E+02  0.55414174956E+02 -0.22781399117E+03  0.23626314782E+03  0.41800000000E+01 0.  1.
        -11    1    4    4    0    0 -0.24735616695E+02  0.46981928580E+01 -0.60145258569E+02  0.65202575699E+02  0.00000000000E+00 0. -1.
         11    1    4    4    0    0  0.59018718997E+02 -0.73155463936E+02 -0.22335606393E+03  0.24232800579E+03  0.00000000000E+00 0.  1.
</event>
<event>
 8    1  0.7103328E-009  0.2153186E+03  0.7561462E-02  0.1137422E+00
          2   -1    0    0  501    0  0.00000000000E+00  0.00000000000E+00  0.21481066834E+04  0.21481066834E+04  0.00000000000E+00 0.  1.
         -2   -1    0    0    0  501 -0.00000000000E+00 -0.00000000000E+00 -0.54119986152E+02  0.54119986152E+02  0.00000000000E+00 0. -1.
         25    2    1    2    0    0 -0.16692745195E+03  0.10429028174E+03  0.18909496858E+04  0.19052774007E+04  0.12510004815E+03 0.  0.
         23    2    1    2    0    0  0.16692745195E+03 -0.10429028174E+03  0.20303701140E+03  0.29694926887E+03  0.90628931397E+02 0.  0.
          5    1    3    3  502    0 -0.89142576772E+02 -0.13006011290E+02  0.87049708810E+03  0.87515610499E+03  0.41800000000E+01 0. -1.
         -5    1    3    3    0  502 -0.77784875178E+02  0.11729629303E+03  0.10204525977E+04  0.10301212957E+04  0.41800000000E+01 0. -1.
        -11    1    4    4    0    0  0.14584786513E+03 -0.10295577227E+03  0.12979388282E+03  0.22072141451E+03  0.00000000000E+00 0. -1.
         11    1    4    4    0    0  0.21079586817E+02 -0.13345094685E+01  0.73243128580E+02  0.76227854358E+02  0.00000000000E+00 0.  1.
</event>
<event>
 8    1  0.7103328E-009  0.9248294E+02  0.7561462E-02  0.1296948E+00
         -2   -1    0    0    0  501 -0.00000000000E+00  0.00000000000E+00  0.16244442697E+03  0.16244442697E+03  0.00000000000E+00 0.  1.
          2   -1    0    0  501    0  0.00000000000E+00 -0.00000000000E+00 -0.10077795392E+03  0.10077795392E+03  0.00000000000E+00 0. -1.
         25    2    1    2    0    0  0.56122857928E+02 -0.11851054322E+02  0.36547937556E+01  0.13766368558E+03  0.12509080757E+03 0.  0.
         23    2    1    2    0    0 -0.56122857928E+02  0.11851054322E+02  0.58011679299E+02  0.12555869531E+03  0.95443220623E+02 0.  0.
          5    1    3    3  502    0  0.89144185818E+02  0.81040513123E+00  0.29128341076E+02  0.93879045987E+02  0.41800000000E+01 0. -1.
         -5    1    3    3    0  502 -0.33021327889E+02 -0.12661459454E+02 -0.25473547320E+02  0.43784639591E+02  0.41800000000E+01 0. -1.
        -11    1    4    4    0    0 -0.35118988812E+02 -0.16190465171E+01  0.83065629261E+02  0.90199021344E+02  0.00000000000E+00 0.  1.
         11    1    4    4    0    0 -0.21003869116E+02  0.13470100839E+02 -0.25053949962E+02  0.35359673969E+02  0.00000000000E+00 0. -1.
</event>
<event>
 8    1  0.7103328E-009  0.1125980E+03  0.7561462E-02  0.1255833E+00
          4   -1    0    0  501    0  0.00000000000E+00  0.00000000000E+00  0.29011258191E+02  0.29011258191E+02  0.00000000000E+00 0. -1.
         -4   -1    0    0    0  501 -0.00000000000E+00 -0.00000000000E+00 -0.45982553867E+03  0.45982553867E+03  0.00000000000E+00 0.  1.
         25    2    1    2    0    0  0.18125589942E+02  0.28270676401E+02 -0.20012046590E+03  0.23837528493E+03  0.12508719934E+03 0.  0.
         23    2    1    2    0    0 -0.18125589942E+02 -0.28270676401E+02 -0.23069381457E+03  0.25046151193E+03  0.91561808189E+02 0.  0.
          5    1    3    3  502    0  0.38316193148E+01  0.77497841434E+02 -0.12924600306E+03  0.15080649336E+03  0.41800000000E+01 0.  1.
         -5    1    3    3    0  502  0.14293970628E+02 -0.49227165033E+02 -0.70874462844E+02  0.87568791570E+02  0.41800000000E+01 0.  1.
        -11    1    4    4    0    0 -0.53921594547E+02 -0.26849060906E+02 -0.12284583176E+03  0.13681925600E+03  0.00000000000E+00 0. -1.
         11    1    4    4    0    0  0.35796004605E+02 -0.14216154954E+01 -0.10784798281E+03  0.11364225593E+03  0.00000000000E+00 0.  1.
</event>
<event>
 8    1  0.7103328E-009  0.1726573E+03  0.7561462E-02  0.1175105E+00
         -2   -1    0    0    0  501 -0.00000000000E+00  0.00000000000E+00  0.28100774130E+02  0.28100774130E+02  0.00000000000E+00 0.  1.
          2   -1    0    0  501    0  0.00000000000E+00 -0.00000000000E+00 -0.15005961011E+04  0.15005961011E+04  0.00000000000E+00 0. -1.
         25    2    1    2    0    0 -0.54018958738E+02 -0.14925248874E+03 -0.10356469866E+04  0.10551804389E+04  0.12508686768E+03 0.  0.
         23    2    1    2    0    0  0.54018958738E+02  0.14925248874E+03 -0.43684834041E+03  0.47351643638E+03  0.90481985528E+02 0.  0.
          5    1    3    3  502    0 -0.34926295729E+02 -0.14767399842E+03 -0.59376522959E+03  0.61286383171E+03  0.41800000000E+01 0.  1.
         -5    1    3    3    0  502 -0.19092663009E+02 -0.15784903108E+01 -0.44188175698E+03  0.44231660716E+03  0.41800000000E+01 0.  1.
        -11    1    4    4    0    0 -0.84257336307E+01  0.80826408605E+02 -0.27795627773E+03  0.28959211599E+03  0.00000000000E+00 0. -1.
         11    1    4    4    0    0  0.62444692368E+02  0.68426080131E+02 -0.15889206268E+03  0.18392432039E+03  0.00000000000E+00 0.  1.
</event>
<event>
 8    1  0.7103328E-009  0.1112829E+03  0.7561462E-02  0.1258213E+00
          2   -1    0    0  501    0  0.00000000000E+00  0.00000000000E+00  0.35832463799E+03  0.35832463799E+03  0.00000000000E+00 0. -1.
         -2   -1    0    0    0  501 -0.00000000000E+00 -0.00000000000E+00 -0.35434868032E+02  0.35434868032E+02  0.00000000000E+00 0.  1.
         25    2    1    2    0    0 -0.70086511258E+01  0.26670518196E+02  0.19781712003E+03  0.23566864680E+03  0.12509060865E+03 0.  0.
         23    2    1    2    0    0  0.70086511258E+01 -0.26670518196E+02  0.12507264993E+03  0.15809085922E+03  0.92677474499E+02 0.  0.
          5    1    3    3  502    0  0.56082220742E+02  0.31118297214E+02  0.10930011709E+03  0.12679728664E+03  0.41800000000E+01 0.  1.
         -5    1    3    3    0  502 -0.63090871868E+02 -0.44477790182E+01  0.88517002943E+02  0.10887136015E+03  0.41800000000E+01 0.  1.
        -11    1    4    4    0    0 -0.39311159616E+02 -0.28493465778E+02  0.48811975277E+02  0.68846596087E+02  0.00000000000E+00 0.  1.
         11    1    4    4    0    0  0.46319810742E+02  0.18229475822E+01  0.76260674648E+02  0.89244263137E+02  0.00000000000E+00 0. -1.
</event>
<event>
 8    1  0.7103328E-009  0.2052170E+03  0.7561462E-02  0.1145411E+00
          1   -1    0    0  501    0  0.00000000000E+00  0.00000000000E+00  0.10162725799E+04  0.10162725799E+04  0.00000000000E+00 0. -1.
         -1   -1    0    0    0  501 -0.00000000000E+00 -0.00000000000E+00 -0.48439121704E+02  0.48439121704E+02  0.00000000000E+00 0.  1.
         25    2    1    2    0    0 -0.43430001391E+02  0.18143314790E+03  0.62322639107E+03  0.66246737815E+03  0.12509092859E+03 0.  0.
         23    2    1    2    0    0  0.43430001391E+02 -0.18143314790E+03  0.34460706716E+03  0.40224432349E+03  0.90787184453E+02 0.  0.
          5    1    3    3  502    0  0.23471122388E+02  0.55860996009E+02  0.77394798033E+02  0.98380748238E+02  0.41800000000E+01 0. -1.
         -5    1    3    3    0  502 -0.66901123779E+02  0.12557215189E+03  0.54583159304E+03  0.56408662992E+03  0.41800000000E+01 0. -1.
        -11    1    4    4    0    0  0.61897927390E+02 -0.66116138466E+02  0.14372421586E+03  0.16988039147E+03  0.00000000000E+00 0.  1.
         11    1    4    4    0    0 -0.18467925999E+02 -0.11531700943E+03  0.20088285130E+03  0.23236393202E+03  0.00000000000E+00 0. -1.
</event>
<event>
 8    1  0.7103328E-009  0.8000766E+02  0.7561462E-02  0.1329030E+00
          2   -1    0    0  501    0  0.00000000000E+00  0.00000000000E+00  0.42155815853E+03  0.42155815853E+03  0.00000000000E+00 0. -1.
         -2   -1    0    0    0  501 -0.00000000000E+00 -0.00000000000E+00 -0.32282506576E+02  0.32282506576E+02  0.00000000000E+00 0.  1.
         25    2    1    2    0    0  0.28335951500E+02  0.81260545057E+00  0.16093741995E+03  0.20579967215E+03  0.12509622473E+03 0.  0.
         23    2    1    2    0    0 -0.28335951500E+02 -0.81260545057E+00  0.22833823200E+03  0.24804099296E+03  0.92641240915E+02 0.  0.
          5    1    3    3  502    0  0.43177021904E+02  0.30181246292E+02  0.13315592719E+02  0.54497158253E+02  0.41800000000E+01 0. -1.
         -5    1    3    3    0  502 -0.14841070404E+02 -0.29368640842E+02  0.14762182723E+03  0.15130251390E+03  0.41800000000E+01 0. -1.
        -11    1    4    4    0    0  0.77606718046E+01 -0.27843043353E+02  0.20674541548E+02  0.35537300941E+02  0.00000000000E+00 0.  1.
         11    1    4    4    0    0 -0.36096623305E+02  0.27030437902E+02  0.20766369045E+03  0.21250369201E+03  0.00000000000E+00 0. -1.
</event>
<event>
 8    1  0.7103328E-009  0.1097600E+03  0.7561462E-02  0.1261015E+00
         -2   -1    0    0    0  501 -0.00000000000E+00  0.00000000000E+00  0.27980821221E+02  0.27980821221E+02  0.00000000000E+00 0.  1.
          2   -1    0    0  501    0  0.00000000000E+00 -0.00000000000E+00 -0.49079487587E+03  0.49079487587E+03  0.00000000000E+00 0. -1.
         25    2    1    2    0    0  0.72573369050E+01  0.41051282759E+02 -0.28935825258E+03  0.31798095418E+03  0.12508322080E+03 0.  0.
         23    2    1    2    0    0 -0.72573369050E+01 -0.41051282759E+02 -0.17345580207E+03  0.20079474292E+03  0.92161471104E+02 0.  0.
          5    1    3    3  502    0 -0.20743973798E+02 -0.38013638748E+02 -0.63145108849E+02  0.76681981921E+02  0.41800000000E+01 0. -1.
         -5    1    3    3    0  502  0.28001310703E+02  0.79064921507E+02 -0.22621314374E+03  0.24129897226E+03  0.41800000000E+01 0. -1.
        -11    1    4    4    0    0 -0.51111192899E+01  0.25216816283E+02 -0.93237194988E+02  0.96722209926E+02  0.00000000000E+00 0. -1.
         11    1    4    4    0    0 -0.21462176151E+01 -0.66268099043E+02 -0.80218607082E+02  0.10407253299E+03  0.00000000000E+00 0.  1.
</event>
<event>
 8    1  0.7103328E-009  0.9628726E+02  0.7561462E-02  0.1288303E+00
         -1   -1    0    0    0  501 -0.00000000000E+00  0.00000000000E+00  0.45952732691E+02  0.45952732691E+02  0.00000000000E+00 0.  1.
          1   -1    0    0  501    0  0.00000000000E+00 -0.00000000000E+00 -0.27763417592E+03  0.27763417592E+03  0.00000000000E+00 0. -1.
         25    2    1    2    0    0 -0.24933215496E+02  0.11071790030E+02 -0.11117071538E+03  0.16955898152E+03  0.12508825080E+03 0.  0.
         23    2    1    2    0    0  0.24933215496E+02 -0.11071790030E+02 -0.12051072785E+03  0.15402792709E+03  0.91964759700E+02 0.  0.
          5    1    3    3  502    0  0.11959414579E+02  0.46101756063E+02 -0.64503996364E+00  0.47815143896E+02  0.41800000000E+01 0. -1.
         -5    1    3    3    0  502 -0.36892630075E+02 -0.35029966033E+02 -0.11052567541E+03  0.12174383762E+03  0.41800000000E+01 0. -1.
        -11    1    4    4    0    0  0.39042265335E+02  0.30675263907E+02 -0.80081846381E+02  0.94225115644E+02  0.00000000000E+00 0.  1.
         11    1    4    4    0    0 -0.14109049840E+02 -0.41747053938E+02 -0.40428881472E+02  0.59802811447E+02  0.00000000000E+00 0. -1.
</event>
<event>
 8    1  0.7103328E-009  0.1160609E+03  0.7561462E-02  0.1249740E+00
         -2   -1    0    0    0  501 -0.00000000000E+00  0.00000000000E+00  0.25573601719E+02  0.25573601719E+02  0.00000000000E+00 0.  1.
          2   -1    0    0  501    0  0.00000000000E+00 -0.00000000000E+00 -0.61317959284E+03  0.61317959284E+03  0.00000000000E+00 0. -1.
         25    2    1    2    0    0 -0.34962907946E+02 -0.43049166635E+02 -0.39683696182E+03  0.41976652765E+03  0.12509487516E+03 0.  0.
         23    2    1    2    0    0  0.34962907946E+02  0.43049166635E+02 -0.19076902930E+03  0.21898666691E+03  0.92123298150E+02 0.  0.
          5    1    3    3  502    0 -0.73459232662E+02  0.41839477283E+00 -0.27597878379E+03  0.28561896894E+03  0.41800000000E+01 0. -1.
         -5    1    3    3    0  502  0.38496324716E+02 -0.43467561408E+02 -0.12085817802E+03  0.13414755871E+03  0.41800000000E+01 0. -1.
        -11    1    4    4    0    0  0.21423472691E+02 -0.23858114252E+02 -0.28331810768E+02  0.42788623479E+02  0.00000000000E+00 0.  1.
         11    1    4    4    0    0  0.13539435256E+02  0.66907280887E+02 -0.16243721853E+03  0.17619804343E+03  0.00000000000E+00 0. -1.
</event>
<event>
 8    1  0.7103328E-009  0.1167537E+03  0.7561462E-02  0.1248551E+00
          4   -1    0    0  501    0  0.00000000000E+00  0.00000000000E+00  0.49825810622E+03  0.49825810622E+03  0.00000000000E+00 0. -1.
         -4   -1    0    0    0  501 -0.00000000000E+00 -0.00000000000E+00 -0.32468198568E+02  0.32468198568E+02  0.00000000000E+00 0.  1.
         25    2    1    2    0    0 -0.55219249561E+02  0.13135762315E+02  0.18628765037E+03  0.23145710916E+03  0.12509033106E+03 0.  0.
         23    2    1    2    0    0  0.55219249561E+02 -0.13135762315E+02  0.27950225729E+03  0.29926919563E+03  0.90657740176E+02 0.  0.
          5    1    3    3  502    0 -0.66976435012E+02  0.57267379695E+02  0.97254206877E+02  0.13130593581E+03  0.41800000000E+01 0. -1.
         -5    1    3    3    0  502  0.11757185451E+02 -0.44131617380E+02  0.89033443492E+02  0.10015117334E+03  0.41800000000E+01 0. -1.
        -11    1    4    4    0    0 -0.20258955029E+02 -0.12766304169E+02  0.28818359554E+02  0.37468675296E+02  0.00000000000E+00 0.  1.
         11    1    4    4    0    0  0.75478204590E+02 -0.36945814549E+00  0.25068389773E+03  0.26180052034E+03  0.00000000000E+00 0. -1.
</event>
<event>
 8    1  0.7103328E-009  0.7513819E+02  0.7561462E-02  0.1343444E+00
          2   -1    0    0  501    0  0.00000000000E+00  0.00000000000E+00  0.36763730221E+02  0.36763730221E+02  0.00000000000E+00 0. -1.
         -2   -1    0    0    0  501 -0.00000000000E+00 -0.00000000000E+00 -0.90108211936E+03  0.90108211936E+03  0.00000000000E+00 0.  1.
         25    2    1    2    0    0 -0.15913342104E+02 -0.62827233518E+02 -0.79466605658E+03  0.80705883773E+03  0.12509728349E+03 0.  0.
         23    2    1    2    0    0  0.15913342104E+02  0.62827233518E+02 -0.69652332551E+02  0.13078701185E+03  0.89740176680E+02 0.  0.
          5    1    3    3  502    0 -0.24338456718E+02 -0.59727368062E+02 -0.16343865110E+03  0.17575375969E+03  0.41800000000E+01 0.  1.
         -5    1    3    3    0  502  0.84251146143E+01 -0.30998654553E+01 -0.63122740549E+03  0.63130507804E+03  0.41800000000E+01 0.  1.
        -11    1    4    4    0    0 -0.13051870622E+02  0.23759591479E+02  0.16586308404E+02  0.31780106048E+02  0.00000000000E+00 0. -1.
         11    1    4    4    0    0  0.28965212726E+02  0.39067642039E+02 -0.86238640954E+02  0.99006905802E+02  0.00000000000E+00 0.  1.
</event>
<event>
 8    1  0.7103328E-009  0.1165054E+03  0.7561462E-02  0.1248976E+00
         -4   -1    0    0    0  501 -0.00000000000E+00  0.00000000000E+00  0.51795264355E+03  0.51795264355E+03  0.00000000000E+00 0.  1.
          4   -1    0    0  501    0  0.00000000000E+00 -0.00000000000E+00 -0.38322360850E+02  0.38322360850E+02  0.00000000000E+00 0. -1.
         25    2    1    2    0    0  0.55969185606E+02 -0.61515636503E+02  0.31148874526E+03  0.34581229230E+03  0.12507669573E+03 0.  0.
         23    2    1    2    0    0 -0.55969185606E+02  0.61515636503E+02  0.16814153744E+03  0.21046271209E+03  0.95426690700E+02 0.  0.
          5    1    3    3  502    0  0.62953887101E+02  0.21328783558E+02  0.15040817221E+03  0.16449376759E+03  0.41800000000E+01 0. -1.
         -5    1    3    3    0  502 -0.69847014957E+01 -0.82844420060E+02  0.16108057305E+03  0.18131852472E+03  0.41800000000E+01 0. -1.
        -11    1    4    4    0    0 -0.27501873931E+02  0.30028226308E+02  0.16263965800E+03  0.16765949362E+03  0.00000000000E+00 0.  1.
         11    1    4    4    0    0 -0.28467311675E+02  0.31487410194E+02  0.55018794385E+01  0.42803218478E+02  0.00000000000E+00 0. -1.
</event>
<event>
 8    1  0.7103328E-009  0.5212707E+03  0.7561462E-02  0.1008371E+00
         -2   -1    0    0    0  501 -0.00000000000E+00  0.00000000000E+00  0.40006854986E+03  0.40006854986E+03  0.00000000000E+00 0. -1.
          2   -1    0    0  501    0  0.00000000000E+00 -0.00000000000E+00 -0.78211026882E+03  0.78211026882E+03  0.00000000000E+00 0.  1.
         25    2    1    2    0    0 -0.30629646101E+03  0.40891135170E+03  0.18470443189E+02  0.52632125740E+03  0.12508754194E+03 0.  0.
         23    2    1    2    0    0  0.30629646101E+03 -0.40891135170E+03 -0.40051216215E+03  0.65585756128E+03  0.93344164708E+02 0.  0.
          5    1    3    3  502    0 -0.11784333832E+03  0.25561430464E+03 -0.10095466208E+02  0.28168265116E+03  0.41800000000E+01 0.  1.
         -5    1    3    3    0  502 -0.18845312269E+03  0.15329704706E+03  0.28565909397E+02  0.24463860625E+03  0.41800000000E+01 0.  1.
        -11    1    4    4    0    0  0.10954050913E+03 -0.83229503238E+02 -0.86407141730E+02  0.16245758675E+03  0.00000000000E+00 0.  1.
         11    1    4    4    0    0  0.19675595188E+03 -0.32568184846E+03 -0.31410502042E+03  0.49339997453E+03  0.00000000000E+00 0. -1.
</event>
<event>
 8    1  0.7103328E-009  0.1023280E+03  0.7561462E-02  0.1275475E+00
         -2   -1    0    0    0  501 -0.00000000000E+00  0.00000000000E+00  0.19255246102E+02  0.19255246102E+02  0.00000000000E+00 0. -1.
          2   -1    0    0  501    0  0.00000000000E+00 -0.00000000000E+00 -0.84010998400E+03  0.84010998400E+03  0.00000000000E+00 0.  1.
         25    2    1    2    0    0 -0.61821765232E+02  0.15854182468E+01 -0.54983481064E+03  0.56726248151E+03  0.12507581593E+03 0.  0.
         23    2    1    2    0    0  0.61821765232E+02 -0.15854182468E+01 -0.27101992726E+03  0.29210274859E+03  0.89709367158E+02 0.  0.
          5    1    3    3  502    0  0.16504822153E+02 -0.28672469943E+02 -0.48074718662E+02  0.58507868371E+02  0.41800000000E+01 0. -1.
         -5    1    3    3    0  502 -0.78326587384E+02  0.30257888189E+02 -0.50176009198E+03  0.50875461314E+03  0.41800000000E+01 0. -1.
        -11    1    4    4    0    0  0.32510726610E+02 -0.31562794292E+02 -0.22634488926E+03  0.23083579926E+03  0.00000000000E+00 0. -1.
         11    1    4    4    0    0  0.29311038622E+02  0.29977376045E+02 -0.44675038000E+02  0.61266949328E+02  0.00000000000E+00 0.  1.
</event>
<event>
 8    1  0.7103328E-009  0.3082482E+03  0.7561462E-02  0.1081189E+00
          1   -1    0    0  501    0  0.00000000000E+00  0.00000000000E+00  0.94192074098E+03  0.94192074098E+03  0.00000000000E+00 0. -1.
         -1   -1    0    0    0  501 -0.00000000000E+00 -0.00000000000E+00 -0.24895284543E+03  0.24895284543E+03  0.00000000000E+00 0.  1.
         25    2    1    2    0    0 -0.16165428681E+03  0.25467292984E+03  0.79566426325E+03  0.86006986322E+03  0.12509252644E+03 0.  0.
         23    2    1    2    0    0  0.16165428681E+03 -0.25467292984E+03 -0.10269636769E+03  0.33080372319E+03  0.88849027570E+02 0.  0.
          5    1    3    3  502    0 -0.15156743488E+03  0.24649882339E+03  0.79541745906E+03  0.84642823903E+03  0.41800000000E+01 0.  1.
         -5    1    3    3    0  502 -0.10086851935E+02  0.81741064458E+01  0.24680418399E+00  0.13641624187E+02  0.41800000000E+01 0. -1.
        -11    1    4    4    0    0  0.80012132821E+02 -0.19942975703E+03 -0.82532904702E+02  0.23018655422E+03  0.00000000000E+00 0.  1.
         11    1    4    4    0    0  0.81642153993E+02 -0.55243172813E+02 -0.20163462990E+02  0.10061716897E+03  0.00000000000E+00 0. -1.
</event>
<event>
 8    1  0.7103328E-009  0.6146965E+02  0.7561462E-02  0.1391766E+00
          1   -1    0    0  501    0  0.00000000000E+00  0.00000000000E+00  0.10410062532E+04  0.10410062532E+04  0.00000000000E+00 0. -1.
         -1   -1    0    0    0  501 -0.00000000000E+00 -0.00000000000E+00 -0.21041557885E+02  0.21041557885E+02  0.00000000000E+00 0.  1.
         25    2    1    2    0    0 -0.45859827094E+02  0.36565846715E+02  0.87961170612E+03  0.89039622437E+03  0.12509395646E+03 0.  0.
         23    2    1    2    0    0  0.45859827094E+02 -0.36565846715E+02  0.14035298919E+03  0.17165158670E+03  0.79530627797E+02 0.  0.
          5    1    3    3  502    0 -0.13672550321E+02  0.23521764725E+02  0.82552254812E+03  0.82598133266E+03  0.41800000000E+01 0.  1.
         -5    1    3    3    0  502 -0.32187276772E+02  0.13044081991E+02  0.54089158003E+02  0.64414891714E+02  0.41800000000E+01 0.  1.
        -11    1    4    4    0    0  0.25916197549E+02 -0.11374611233E+02  0.13636940152E+03  0.13927542765E+03  0.00000000000E+00 0. -1.
         11    1    4    4    0    0  0.19943629545E+02 -0.25191235482E+02  0.39835876671E+01  0.32376159056E+02  0.00000000000E+00 0.  1.
</event>
<event>
 8    1  0.7103328E-009  0.1686802E+03  0.7561462E-02  0.1179231E+00
         -2   -1    0    0    0  501 -0.00000000000E+00  0.00000000000E+00  0.25409594347E+03  0.25409594347E+03  0.00000000000E+00 0.  1.
          2   -1    0    0  501    0  0.00000000000E+00 -0.00000000000E+00 -0.15710741007E+03  0.15710741007E+03  0.00000000000E+00 0. -1.
         25    2    1    2    0    0 -0.72627065094E+02 -0.13815924741E+03  0.11469811393E+03  0.23057775024E+03  0.12509106017E+03 0.  0.
         23    2    1    2    0    0  0.72627065094E+02  0.13815924741E+03 -0.17709580537E+02  0.18062560330E+03  0.89158909235E+02 0.  0.
          5    1    3    3  502    0 -0.93590585554E+02 -0.11946534660E+03  0.12859672388E+03  0.19896169615E+03  0.41800000000E+01 0. -1.
         -5    1    3    3    0  502  0.20963520460E+02 -0.18693900810E+02 -0.13898609944E+02  0.31616054086E+02  0.41800000000E+01 0. -1.
        -11    1    4    4    0    0  0.49488329582E+02  0.11055497002E+03  0.26103878880E+02  0.12390685475E+03  0.00000000000E+00 0. -1.
         11    1    4    4    0    0  0.23138735512E+02  0.27604277391E+02 -0.43813459417E+02  0.56718748554E+02  0.00000000000E+00 0.  1.
</event>
<event>
 8    1  0.7103328E-009  0.1291263E+03  0.7561462E-02  0.1228758E+00
         -1   -1    0    0    0  501 -0.00000000000E+00  0.00000000000E+00  0.45951546731E+03  0.45951546731E+03  0.00000000000E+00 0.  1.
          1   -1    0    0  501    0  0.00000000000E+00 -0.00000000000E+00 -0.62014499276E+02  0.62014499276E+02  0.00000000000E+00 0. -1.
         25    2    1    2    0    0 -0.73175753441E+02  0.11744150704E+02  0.37604153742E+03  0.40317158577E+03  0.12508986265E+03 0.  0.
         23    2    1    2    0    0  0.73175753441E+02 -0.11744150704E+02  0.21459430609E+02  0.11835838081E+03  0.89752900674E+02 0.  0.
          5    1    3    3  502    0 -0.81654186462E+02 -0.40211479473E+02  0.26466805835E+03  0.27991252698E+03  0.41800000000E+01 0.  1.
         -5    1    3    3    0  502  0.84784330203E+01  0.51955630177E+02  0.11137347907E+03  0.12325905879E+03  0.41800000000E+01 0.  1.
        -11    1    4    4    0    0  0.92622396284E+02 -0.17035344802E+02  0.88631096777E+01  0.94592103154E+02  0.00000000000E+00 0. -1.
         11    1    4    4    0    0 -0.19446642842E+02  0.52911940986E+01  0.12596320932E+02  0.23766277661E+02  0.00000000000E+00 0.  1.
</event>
<event>
 8    1  0.7103328E-009  0.7464854E+02  0.7561462E-02  0.1344963E+00
          2   -1    0    0  501    0  0.00000000000E+00  0.00000000000E+00  0.22998397825E+03  0.22998397825E+03  0.00000000000E+00 0.  1.
         -2   -1    0    0    0  501 -0.00000000000E+00 -0.00000000000E+00 -0.63255653691E+02  0.63255653691E+02  0.00000000000E+00 0. -1.
         25    2    1    2    0    0 -0.42061508686E+00 -0.24671477496E+02  0.14656486682E+03  0.19427236388E+03  0.12510648450E+03 0.  0.
         23    2    1    2    0    0  0.42061508686E+00  0.24671477496E+02  0.20163457740E+02  0.98967268056E+02  0.93696832388E+02 0.  0.
          5    1    3    3  502    0  0.19896135634E+02  0.38976829289E+02  0.14638817964E+02  0.46333754715E+02  0.41800000000E+01 0.  1.
         -5    1    3    3    0  502 -0.20316750721E+02 -0.63648306785E+02  0.13192604885E+03  0.14793860917E+03  0.41800000000E+01 0.  1.
        -11    1    4    4    0    0 -0.12797479896E+02  0.21140292723E+02 -0.34601028392E+02  0.42519626455E+02  0.00000000000E+00 0. -1.
         11    1    4    4    0    0  0.13218094983E+02  0.35311847729E+01  0.54764486132E+02  0.56447641600E+02  0.00000000000E+00 0.  1.
</event>
<event>
 8    1  0.7103328E-009  0.9440756E+02  0.7561462E-02  0.1292516E+00
         -2   -1    0    0    0  501 -0.00000000000E+00  0.00000000000E+00  0.61455626687E+02  0.61455626687E+02  0.00000000000E+00 0.  1.
          2   -1    0    0  501    0  0.00000000000E+00 -0.00000000000E+00 -0.29205946822E+03  0.29205946822E+03  0.00000000000E+00 0. -1.
         25    2    1    2    0    0 -0.34794159627E+02 -0.19346461676E+02 -0.21565818620E+03  0.25246996221E+03  0.12509080470E+03 0.  0.
         23    2    1    2    0    0  0.34794159627E+02  0.19346461676E+02 -0.14945655339E+02  0.10104513270E+03  0.91661481038E+02 0.  0.
          5    1    3    3  502    0  0.55076506625E+01  0.28362184051E+02 -0.17592629113E+03  0.17833193771E+03  0.41800000000E+01 0. -1.
         -5    1    3    3    0  502 -0.40301810290E+02 -0.47708645727E+02 -0.39731895073E+02  0.74138024494E+02  0.41800000000E+01 0. -1.
        -11    1    4    4    0    0  0.64936773524E+02  0.13515744876E+02 -0.21355945701E+02  0.69681678597E+02  0.00000000000E+00 0.  1.
         11    1    4    4    0    0 -0.30142613897E+02  0.58307168004E+01  0.64102903625E+01  0.31363454107E+02  0.00000000000E+00 0. -1.
</event>
<event>
 8    1  0.7103328E-009  0.9737440E+02  0.7561462E-02  0.1285916E+00
          1   -1    0    0  501    0  0.00000000000E+00  0.00000000000E+00  0.88736575004E+03  0.88736575004E+03  0.00000000000E+00 0. -1.
         -1   -1    0    0    0  501 -0.00000000000E+00 -0.00000000000E+00 -0.24213536462E+02  0.24213536462E+02  0.00000000000E+00 0.  1.
         25    2    1    2    0    0  0.29813564878E+02  0.76533734227E+02  0.63172733806E+03  0.64920953496E+03  0.12508928612E+03 0.  0.
         23    2    1    2    0    0 -0.29813564878E+02 -0.76533734227E+02  0.23142487551E+03  0.26236975154E+03  0.92380476245E+02 0.  0.
          5    1    3    3  502    0  0.11778256616E+02  0.23847188654E+02  0.16764959433E+02  0.31716746372E+02  0.41800000000E+01 0.  1.
         -5    1    3    3    0  502  0.18035308262E+02  0.52686545573E+02  0.61496237863E+03  0.61749278859E+03  0.41800000000E+01 0.  1.
        -11    1    4    4    0    0 -0.53866149367E+02 -0.67333062206E+02  0.11853909244E+03  0.14658383182E+03  0.00000000000E+00 0.  1.
         11    1    4    4    0    0  0.24052584489E+02 -0.92006720217E+01  0.11288578307E+03  0.11578591972E+03  0.00000000000E+00 0. -1.
</event>
<event>
 8    1  0.7103328E-009  0.9297484E+02  0.7561462E-02  0.1295803E+00
          1   -1    0    0  501    0  0.00000000000E+00  0.00000000000E+00  0.27679950945E+03  0.27679950945E+03  0.00000000000E+00 0. -1.
         -1   -1    0    0    0  501 -0.00000000000E+00 -0.00000000000E+00 -0.68303200969E+02  0.68303200969E+02  0.00000000000E+00 0.  1.
         25    2    1    2    0    0 -0.50698507349E+02  0.33407653405E+02  0.18650748224E+03  0.23264030473E+03  0.12510020184E+03 0.  0.
         23    2    1    2    0    0  0.50698507349E+02 -0.33407653405E+02  0.21988826246E+02  0.11246240569E+03  0.92075372717E+02 0.  0.
          5    1    3    3  502    0 -0.54181739329E+02 -0.29674338086E+02  0.41852012120E+02  0.74734801372E+02  0.41800000000E+01 0.  1.
         -5    1    3    3    0  502  0.34832319799E+01  0.63081991491E+02  0.14465547012E+03  0.15790550336E+03  0.41800000000E+01 0.  1.
        -11    1    4    4    0    0  0.19005235540E+02 -0.12701474341E+02  0.56678666525E+02  0.61114627279E+02  0.00000000000E+00 0. -1.
         11    1    4    4    0    0  0.31693271809E+02 -0.20706179064E+02 -0.34689840279E+02  0.51347778414E+02  0.00000000000E+00 0.  1.
</event>
<event>
 8    1  0.7103328E-009  0.2685852E+03  0.7561462E-02  0.1102092E+00
          1   -1    0    0  501    0  0.00000000000E+00  0.00000000000E+00  0.91871956376E+03  0.91871956376E+03  0.00000000000E+00 0. -1.
         -1   -1    0    0    0  501 -0.00000000000E+00 -0.00000000000E+00 -0.84350343610E+02  0.84350343610E+02  0.00000000000E+00 0.  1.
         25    2    1    2    0    0 -0.25542881796E+02  0.25023149895E+03  0.34321505077E+03  0.44352145187E+03  0.12508583183E+03 0.  0.
         23    2    1    2    0    0  0.25542881796E+02 -0.25023149895E+03  0.49115416939E+03  0.55954845550E+03  0.92702826651E+02 0.  0.
          5    1    3    3  502    0  0.46438687760E+02  0.15168330113E+03  0.20039326458E+03  0.25561554815E+03  0.41800000000E+01 0. -1.
         -5    1    3    3    0  502 -0.71981569556E+02  0.98548197814E+02  0.14282178618E+03  0.18790590373E+03  0.41800000000E+01 0. -1.
        -11    1    4    4    0    0  0.32203506608E+02 -0.83283348295E+02  0.99199549161E+02  0.13346809542E+03  0.00000000000E+00 0.  1.
         11    1    4    4    0    0 -0.66606248115E+01 -0.16694815065E+03  0.39195462023E+03  0.42608036008E+03  0.00000000000E+00 0. -1.
</event>
<event>
 8    1  0.7103328E-009  0.1119182E+03  0.7561462E-02  0.1257058E+00
         -1   -1    0    0    0  501 -0.00000000000E+00  0.00000000000E+00  0.26689670034E+02  0.26689670034E+02  0.00000000000E+00 0.  1.
          1   -1    0    0  501    0  0.00000000000E+00 -0.00000000000E+00 -0.81726495292E+03  0.81726495292E+03  0.00000000000E+00 0. -1.
         25    2    1    2    0    0  0.29553713972E+02 -0.92930314868E+02 -0.42333083038E+03  0.45206935986E+03  0.12509296040E+03 0.  0.
         23    2    1    2    0    0 -0.29553713972E+02  0.92930314868E+02 -0.36724445251E+03  0.39188526310E+03  0.95896329984E+02 0.  0.
          5    1    3    3  502    0  0.17958474477E+02 -0.20100988314E+01  0.36649517294E+00  0.18551388669E+02  0.41800000000E+01 0. -1.
         -5    1    3    3    0  502  0.11595239495E+02 -0.90920216037E+02 -0.42369732555E+03  0.43351797119E+03  0.41800000000E+01 0. -1.
        -11    1    4    4    0    0 -0.18624337886E+02 -0.13047539358E+01 -0.79751796696E+01  0.20302015548E+02  0.00000000000E+00 0. -1.
         11    1    4    4    0    0 -0.10929376085E+02  0.94235068804E+02 -0.35926927284E+03  0.37158324755E+03  0.00000000000E+00 0.  1.
</event>
<event>
 8    1  0.7103328E-009  0.7869896E+02  0.7561462E-02  0.1332785E+00
         -3   -1    0    0    0  501 -0.00000000000E+00  0.00000000000E+00  0.90132111074E+02  0.90132111074E+02  0.00000000000E+00 0.  1.
          3   -1    0    0  501    0  0.00000000000E+00 -0.00000000000E+00 -0.14676544270E+03  0.14676544270E+03  0.00000000000E+00 0. -1.
         25    2    1    2    0    0 -0.14193979230E+02 -0.71003037151E+01 -0.13477022876E+02  0.12681272944E+03  0.12509178567E+03 0.  0.
         23    2    1    2    0    0  0.14193979230E+02  0.71003037151E+01 -0.43156308748E+02  0.11008482433E+03  0.10002158869E+03 0.  0.
          5    1    3    3  502    0  0.28268288250E+02  0.39268984889E+02 -0.35396710865E+02  0.60096163230E+02  0.41800000000E+01 0.  1.
         -5    1    3    3    0  502 -0.42462267479E+02 -0.46369288605E+02  0.21919687990E+02  0.66716566209E+02  0.41800000000E+01 0.  1.
        -11    1    4    4    0    0  0.17285989948E+02 -0.15373826171E+02  0.27464901104E+02  0.35909341017E+02  0.00000000000E+00 0.  1.
         11    1    4    4    0    0 -0.30920107187E+01  0.22474129886E+02 -0.70621209851E+02  0.74175483317E+02  0.00000000000E+00 0. -1.
</event>
<event>
 8    1  0.7103328E-009  0.1246290E+03  0.7561462E-02  0.1235650E+00
         -2   -1    0    0    0  501 -0.00000000000E+00  0.00000000000E+00  0.94334323887E+02  0.94334323887E+02  0.00000000000E+00 0.  1.
          2   -1    0    0  501    0  0.00000000000E+00 -0.00000000000E+00 -0.23361899064E+03  0.23361899064E+03  0.00000000000E+00 0. -1.
         25    2    1    2    0    0  0.76040095970E+02  0.78318205491E+01 -0.14906384203E+03  0.20907190004E+03  0.12509035446E+03 0.  0.
         23    2    1    2    0    0 -0.76040095970E+02 -0.78318205491E+01  0.97791752708E+01  0.11888141449E+03  0.90519195939E+02 0.  0.
          5    1    3    3  502    0  0.10628234095E+03  0.25852732784E+02 -0.98083409656E+02  0.14697662209E+03  0.41800000000E+01 0. -1.
         -5    1    3    3    0  502 -0.30242244984E+02 -0.18020912235E+02 -0.50980432370E+02  0.62095277953E+02  0.41800000000E+01 0. -1.
        -11    1    4    4    0    0  0.55921952639E+01 -0.20933859489E+02  0.26807052063E+02  0.34469075434E+02  0.00000000000E+00 0.  1.
         11    1    4    4    0    0 -0.81632291234E+02  0.13102038940E+02 -0.17027876792E+02  0.84412339054E+02  0.00000000000E+00 0. -1.
</event>
<event>
 8    1  0.7103328E-009  0.1029390E+03  0.7561462E-02  0.1274234E+00
          2   -1    0    0  501    0  0.00000000000E+00  0.00000000000E+00  0.29784113092E+02  0.29784113092E+02  0.00000000000E+00 0. -1.
         -2   -1    0    0    0  501 -0.00000000000E+00 -0.00000000000E+00 -0.41734352875E+03  0.41734352875E+03  0.00000000000E+00 0.  1.
         25    2    1    2    0    0  0.27731675499E+02  0.86258819310E+01 -0.18736720118E+03  0.22715123603E+03  0.12509102400E+03 0.  0.
         23    2    1    2    0    0 -0.27731675499E+02 -0.86258819310E+01 -0.20019221448E+03  0.21997640582E+03  0.86424792230E+02 0.  0.
          5    1    3    3  502    0  0.52594490526E+01 -0.54914424854E+02 -0.11809762500E+03  0.13041386924E+03  0.41800000000E+01 0. -1.
         -5    1    3    3    0  502  0.22472226446E+02  0.63540306785E+02 -0.69269576180E+02  0.96737366782E+02  0.41800000000E+01 0. -1.
        -11    1    4    4    0    0 -0.29206090577E+02 -0.41154938611E+02 -0.73434285570E+02  0.89102856273E+02  0.00000000000E+00 0. -1.
         11    1    4    4    0    0  0.14744150781E+01  0.32529056680E+02 -0.12675792891E+03  0.13087354954E+03  0.00000000000E+00 0.  1.
</event>
<event>
 8    1  0.7103328E-009  0.6158691E+02  0.7561462E-02  0.1391290E+00
          4   -1    0    0  501    0  0.00000000000E+00  0.00000000000E+00  0.10259285184E+03  0.10259285184E+03  0.00000000000E+00 0.  1.
         -4   -1    0    0    0  501 -0.00000000000E+00 -0.00000000000E+00 -0.11747255953E+03  0.11747255953E+03  0.00000000000E+00 0. -1.
         25    2    1    2    0    0 -0.48175149531E+01 -0.11170396223E+02  0.75825790043E+01  0.12590933010E+03  0.12509067791E+03 0.  0.
         23    2    1    2    0    0  0.48175149531E+01  0.11170396223E+02 -0.22462286695E+02  0.94156081275E+02  0.90624649601E+02 0.  0.
          5    1    3    3  502    0  0.62160374227E+01  0.35251666974E+02 -0.43095087220E+02  0.56178092600E+02  0.41800000000E+01 0.  1.
         -5    1    3    3    0  502 -0.11033552376E+02 -0.46422063197E+02  0.50677666224E+02  0.69731237501E+02  0.41800000000E+01 0.  1.
        -11    1    4    4    0    0  0.15704716187E+02 -0.76696776816E+01 -0.53482056210E+02  0.56265374812E+02  0.00000000000E+00 0. -1.
         11    1    4    4    0    0 -0.10887201234E+02  0.18840073905E+02  0.31019769516E+02  0.37890706463E+02  0.00000000000E+00 0.  1.
</event>
<event>
 8    1  0.7103328E-009  0.1201451E+03  0.7561462E-02  0.1242858E+00
         -1   -1    0    0    0  501 -0.00000000000E+00  0.00000000000E+00  0.21171782411E+02  0.21171782411E+02  0.00000000000E+00 0.  1.
          1   -1    0    0  501    0  0.00000000000E+00 -0.00000000000E+00 -0.89290316236E+03  0.89290316236E+03  0.00000000000E+00 0. -1.
         25    2    1    2    0    0 -0.21970490418E+02 -0.56759332804E+02 -0.67311282632E+03  0.68733801860E+03  0.12509336732E+03 0.  0.
         23    2    1    2    0    0  0.21970490418E+02  0.56759332804E+02 -0.19861855363E+03  0.22673692618E+03  0.90862420913E+02 0.  0.
          5    1    3    3  502    0 -0.28918844099E+02 -0.91190358975E+02 -0.37088420147E+03  0.38304639982E+03  0.41800000000E+01 0. -1.
         -5    1    3    3    0  502  0.69483536814E+01  0.34431026170E+02 -0.30222862485E+03  0.30429161878E+03  0.41800000000E+01 0. -1.
        -11    1    4    4    0    0 -0.46518474975E+01 -0.23833782852E+02 -0.38637316518E+02  0.45634757783E+02  0.00000000000E+00 0. -1.
         11    1    4    4    0    0  0.26622337915E+02  0.80593115656E+02 -0.15998123712E+03  0.18110216839E+03  0.00000000000E+00 0.  1.
</event>
<event>
 8    1  0.7103328E-009  0.8961631E+02  0.7561462E-02  0.1303784E+00
         -1   -1    0    0    0  501 -0.00000000000E+00  0.00000000000E+00  0.44957652625E+03  0.44957652625E+03  0.00000000000E+00 0.  1.
          1   -1    0    0  501    0  0.00000000000E+00 -0.00000000000E+00 -0.33040784504E+02  0.33040784504E+02  0.00000000000E+00 0. -1.
         25    2    1    2    0    0  0.30807386267E+02 -0.35201914684E+02  0.29433091913E+03  0.32321102279E+03  0.12508559251E+03 0.  0.
         23    2    1    2    0    0 -0.30807386267E+02  0.35201914684E+02  0.12220482262E+03  0.15940628797E+03  0.91038871508E+02 0.  0.
          5    1    3    3  502    0  0.53550883530E+02  0.30134994796E+02  0.10685680127E+03  0.12333557239E+03  0.41800000000E+01 0.  1.
         -5    1    3    3    0  502 -0.22743497263E+02 -0.65336909479E+02  0.18747411786E+03  0.19987545040E+03  0.41800000000E+01 0.  1.
        -11    1    4    4    0    0 -0.10978793044E+02  0.21779488660E+02 -0.90276485083E+01  0.26007277070E+02  0.00000000000E+00 0. -1.
         11    1    4    4    0    0 -0.19828593222E+02  0.13422426024E+02  0.13123247113E+03  0.13339901090E+03  0.00000000000E+00 0.  1.
</event>
<event>
 8    1  0.7103328E-009  0.2250930E+03  0.7561462E-02  0.1130142E+00
          1   -1    0    0  501    0  0.00000000000E+00  0.00000000000E+00  0.14413256829E+03  0.14413256829E+03  0.00000000000E+00 0. -1.
         -1   -1    0    0    0  501 -0.00000000000E+00 -0.00000000000E+00 -0.41027901406E+03  0.41027901406E+03  0.00000000000E+00 0.  1.
         25    2    1    2    0    0 -0.11276423489E+03  0.18234568957E+03 -0.96110556161E+02  0.26617746360E+03  0.12508988748E+03 0.  0.
         23    2    1    2    0    0  0.11276423489E+03 -0.18234568957E+03 -0.17003588961E+03  0.28823411875E+03  0.90559263911E+02 0.  0.
          5    1    3    3  502    0  0.14252871774E+02  0.34318981090E+02 -0.55461822104E+02  0.66891127423E+02  0.41800000000E+01 0. -1.
         -5    1    3    3    0  502 -0.12701710666E+03  0.14802670848E+03 -0.40648734057E+02  0.19928633618E+03  0.41800000000E+01 0. -1.
        -11    1    4    4    0    0  0.71339282764E+02 -0.79481022547E+02 -0.13458486186E+03  0.17181272145E+03  0.00000000000E+00 0.  1.
         11    1    4    4    0    0  0.41424952126E+02 -0.10286466702E+03 -0.35451027749E+02  0.11642139730E+03  0.00000000000E+00 0. -1.
</event>
<event>
 8    1  0.7103328E-009  0.1609534E+03  0.7561462E-02  0.1187625E+00
         -2   -1    0    0    0  501 -0.00000000000E+00  0.00000000000E+00  0.26464559283E+02  0.26464559283E+02  0.00000000000E+00 0.  1.
          2   -1    0    0  501    0  0.00000000000E+00 -0.00000000000E+00 -0.13029638270E+04  0.13029638270E+04  0.00000000000E+00 0. -1.
         25    2    1    2    0    0  0.13770844344E+03 -0.58755128570E+02 -0.63595476844E+03  0.66520833556E+03  0.12509149317E+03 0.  0.
         23    2    1    2    0    0 -0.13770844344E+03  0.58755128570E+02 -0.64054449928E+03  0.66422005073E+03  0.92061065090E+02 0.  0.
          5    1    3    3  502    0  0.13289624128E+03 -0.40877147698E+02 -0.32301847962E+03  0.35169697572E+03  0.41800000000E+01 0.  1.
         -5    1    3    3    0  502  0.48122021612E+01 -0.17877980872E+02 -0.31293628882E+03  0.31351135984E+03  0.41800000000E+01 0.  1.
        -11    1    4    4    0    0 -0.11226360429E+03  0.73718888431E+02 -0.59482935927E+03  0.60980288455E+03  0.00000000000E+00 0. -1.
         11    1    4    4    0    0 -0.25444839151E+02 -0.14963759861E+02 -0.45715140012E+02  0.54417166179E+02  0.00000000000E+00 0.  1.
</event>
<event>
 8    1  0.7103328E-009  0.1242605E+03  0.7561462E-02  0.1236230E+00
          1   -1    0    0  501    0  0.00000000000E+00  0.00000000000E+00  0.22654698783E+03  0.22654698783E+03  0.00000000000E+00 0. -1.
         -1   -1    0    0    0  501 -0.00000000000E+00 -0.00000000000E+00 -0.96159830986E+02  0.96159830986E+02  0.00000000000E+00 0.  1.
         25    2    1    2    0    0  0.57216750686E+02  0.35357041235E+02 -0.10750508575E+02  0.14242053645E+03  0.12507661190E+03 0.  0.
         23    2    1    2    0    0 -0.57216750686E+02 -0.35357041235E+02  0.14113766542E+03  0.18028628236E+03  0.89774306369E+02 0.  0.
          5    1    3    3  502    0 -0.13926288743E+02  0.60187250206E+02 -0.22828058307E+02  0.65992721201E+02  0.41800000000E+01 0.  1.
         -5    1    3    3    0  502  0.71143039429E+02 -0.24830208971E+02  0.12077549732E+02  0.76427815253E+02  0.41800000000E+01 0.  1.
        -11    1    4    4    0    0  0.47023799171E+01 -0.47755548562E+02  0.73256397863E+02  0.87573995131E+02  0.00000000000E+00 0. -1.
         11    1    4    4    0    0 -0.61919130603E+02  0.12398507327E+02  0.67881267556E+02  0.92712287231E+02  0.00000000000E+00 0.  1.
</event>
<event>
 8    1  0.7103328E-009  0.1064327E+03  0.7561462E-02  0.1267322E+00
          2   -1    0    0  501    0  0.00000000000E+00  0.00000000000E+00  0.25928804431E+03  0.25928804431E+03  0.00000000000E+00 0. -1.
         -2   -1    0    0    0  501 -0.00000000000E+00 -0.00000000000E+00 -0.59304258258E+02  0.59304258258E+02  0.00000000000E+00 0.  1.
         25    2    1    2    0    0 -0.24582761391E+02 -0.55865644606E+02  0.11440993061E+03  0.18017232853E+03  0.12508858198E+03 0.  0.
         23    2    1    2    0    0  0.24582761391E+02  0.55865644606E+02  0.85573855439E+02  0.13841997404E+03  0.90066209381E+02 0.  0.
          5    1    3    3  502    0  0.34506190975E+02 -0.21298830845E+02 -0.63878273891E+01  0.41262502950E+02  0.41800000000E+01 0.  1.
         -5    1    3    3    0  502 -0.59088952366E+02 -0.34566813761E+02  0.12079775800E+03  0.13890982558E+03  0.41800000000E+01 0.  1.
        -11    1    4    4    0    0 -0.17163109266E+02 -0.13986164884E+02  0.38493294732E+02  0.44406293103E+02  0.00000000000E+00 0. -1.
         11    1    4    4    0    0  0.41745870657E+02  0.69851809489E+02  0.47080560707E+02  0.94013680932E+02  0.00000000000E+00 0.  1.
</event>
<event>
 8    1  0.7103328E-009  0.9295651E+02  0.7561462E-02  0.1295846E+00
          2   -1    0    0  501    0  0.00000000000E+00  0.00000000000E+00  0.13046416186E+03  0.13046416186E+03  0.00000000000E+00 0. -1.
         -2   -1    0    0    0  501 -0.00000000000E+00 -0.00000000000E+00 -0.15986262955E+03  0.15986262955E+03  0.00000000000E+00 0.  1.
         25    2    1    2    0    0 -0.87330549662E+01  0.43024358777E+02 -0.99124804882E+02  0.16553403537E+03  0.12509367780E+03 0.  0.
         23    2    1    2    0    0  0.87330549662E+01 -0.43024358777E+02  0.69726337193E+02  0.12479275604E+03  0.93723573153E+02 0.  0.
          5    1    3    3  502    0 -0.47212989390E+02  0.85272180912E+01  0.57914667116E+01  0.48505600730E+02  0.41800000000E+01 0. -1.
         -5    1    3    3    0  502  0.38479934424E+02  0.34497140686E+02 -0.10491627159E+03  0.11702843464E+03  0.41800000000E+01 0. -1.
        -11    1    4    4    0    0  0.18591901539E+02 -0.61888737194E+02  0.15378930202E+02  0.66425793849E+02  0.00000000000E+00 0.  1.
         11    1    4    4    0    0 -0.98588465729E+01  0.18864378417E+02  0.54347406990E+02  0.58366962191E+02  0.00000000000E+00 0. -1.
</event>
<event>
 8    1  0.7103328E-009  0.2001756E+03  0.7561462E-02  0.1149591E+00
         -3   -1    0    0    0  501 -0.00000000000E+00  0.00000000000E+00  0.31658313396E+03  0.31658313396E+03  0.00000000000E+00 0.  1.
          3   -1    0    0  501    0  0.00000000000E+00 -0.00000000000E+00 -0.14282062966E+03  0.14282062966E+03  0.00000000000E+00 0. -1.
         25    2    1    2    0    0  0.10640249912E+03  0.14329881664E+03  0.13491690123E+03  0.25633717933E+03  0.12510050600E+03 0.  0.
         23    2    1    2    0    0 -0.10640249912E+03 -0.14329881664E+03  0.38845603065E+02  0.20306658429E+03  0.88718735942E+02 0.  0.
          5    1    3    3  502    0  0.10992098171E+02  0.11618850869E+03  0.55990291725E+02  0.12951054375E+03  0.41800000000E+01 0. -1.
         -5    1    3    3    0  502  0.95410400948E+02  0.27110307950E+02  0.78926609508E+02  0.12682663559E+03  0.41800000000E+01 0. -1.
        -11    1    4    4    0    0 -0.48359726935E+02 -0.29771340201E+02  0.49206371240E+02  0.75141618676E+02  0.00000000000E+00 0.  1.
         11    1    4    4    0    0 -0.58042772184E+02 -0.11352747644E+03 -0.10360768175E+02  0.12792496561E+03  0.00000000000E+00 0. -1.
</event>
<event>
 8    1  0.7103328E-009  0.6868623E+02  0.7561462E-02  0.1364618E+00
         -3   -1    0    0    0  501 -0.00000000000E+00  0.00000000000E+00  0.23046561899E+02  0.23046561899E+02  0.00000000000E+00 0.  1.
          3   -1    0    0  501    0  0.00000000000E+00 -0.00000000000E+00 -0.56005936482E+03  0.56005936482E+03  0.00000000000E+00 0. -1.
         25    2    1    2    0    0 -0.11109689037E+02  0.19441673599E+02 -0.23839746862E+03  0.27014496202E+03  0.12507415239E+03 0.  0.
         23    2    1    2    0    0  0.11109689037E+02 -0.19441673599E+02 -0.29861533430E+03  0.31296096470E+03  0.90950776158E+02 0.  0.
          5    1    3    3  502    0  0.15628637631E+02 -0.11225054166E+02 -0.22677058549E+03  0.22762387177E+03  0.41800000000E+01 0.  1.
         -5    1    3    3    0  502 -0.26738326667E+02  0.30666727765E+02 -0.11626883129E+02  0.42521090250E+02  0.41800000000E+01 0.  1.
        -11    1    4    4    0    0  0.30620492900E+02  0.17307735228E+02 -0.51487038667E+02  0.62354530187E+02  0.00000000000E+00 0.  1.
         11    1    4    4    0    0 -0.19510803863E+02 -0.36749408827E+02 -0.24712829563E+03  0.25060643451E+03  0.00000000000E+00 0. -1.
</event>
<event>
 8    1  0.7103328E-009  0.9498985E+02  0.7561462E-02  0.1291199E+00
          2   -1    0    0  501    0  0.00000000000E+00  0.00000000000E+00  0.82053016256E+03  0.82053016256E+03  0.00000000000E+00 0. -1.
         -2   -1    0    0    0  501 -0.00000000000E+00 -0.00000000000E+00 -0.21336679418E+02  0.21336679418E+02  0.00000000000E+00 0.  1.
         25    2    1    2    0    0  0.15339761617E+02  0.67529783843E+02  0.47854934185E+03  0.49945288641E+03  0.12509249845E+03 0.  0.
         23    2    1    2    0    0 -0.15339761617E+02 -0.67529783843E+02  0.32064414129E+03  0.34241395556E+03  0.98178773815E+02 0.  0.
          5    1    3    3  502    0  0.43140956879E+01  0.21165105336E+02  0.38335036160E+01  0.22332515655E+02  0.41800000000E+01 0. -1.
         -5    1    3    3    0  502  0.11025665929E+02  0.46364678506E+02  0.47471583823E+03  0.47712037076E+03  0.41800000000E+01 0. -1.
        -11    1    4    4    0    0  0.36323063232E+02 -0.56724333672E+02  0.18149873782E+03  0.19359443893E+03  0.00000000000E+00 0.  1.
         11    1    4    4    0    0 -0.51662824849E+02 -0.10805450170E+02  0.13914540347E+03  0.14881951663E+03  0.00000000000E+00 0. -1.
</event>
<event>
 8    1  0.7103328E-009  0.1260372E+03  0.7561462E-02  0.1233457E+00
         -2   -1    0    0    0  501 -0.00000000000E+00  0.00000000000E+00  0.11824169401E+03  0.11824169401E+03  0.00000000000E+00 0.  1.
          2   -1    0    0  501    0  0.00000000000E+00 -0.00000000000E+00 -0.88322735679E+03  0.88322735679E+03  0.00000000000E+00 0. -1.
         25    2    1    2    0    0 -0.84632425274E+02 -0.32512774527E+02 -0.83864257486E+03  0.85275377711E+03  0.12509159877E+03 0.  0.
         23    2    1    2    0    0  0.84632425274E+02  0.32512774527E+02  0.73656912073E+02  0.14871527370E+03  0.92038926652E+02 0.  0.
          5    1    3    3  502    0  0.67072228676E+01  0.37532395168E+02 -0.25315266884E+03  0.25604182015E+03  0.41800000000E+01 0. -1.
         -5    1    3    3    0  502 -0.91339648142E+02 -0.70045169694E+02 -0.58548990602E+03  0.59671195695E+03  0.41800000000E+01 0. -1.
        -11    1    4    4    0    0  0.71783859596E+02  0.41445220778E+02  0.92511023660E+02  0.12421319705E+03  0.00000000000E+00 0.  1.
         11    1    4    4    0    0  0.12848565678E+02 -0.89324462511E+01 -0.18854111587E+02  0.24502076642E+02  0.00000000000E+00 0. -1.
</event>
<event>
 8    1  0.7103328E-009  0.1106220E+03  0.7561462E-02  0.1259422E+00
          1   -1    0    0  501    0  0.00000000000E+00  0.00000000000E+00  0.15000591198E+03  0.15000591198E+03  0.00000000000E+00 0. -1.
         -1   -1    0    0    0  501 -0.00000000000E+00 -0.00000000000E+00 -0.15656295478E+03  0.15656295478E+03  0.00000000000E+00 0.  1.
         25    2    1    2    0    0  0.61911632997E+02 -0.63840357040E+02 -0.65285978899E+02  0.16678628355E+03  0.12508702512E+03 0.  0.
         23    2    1    2    0    0 -0.61911632997E+02  0.63840357040E+02  0.58728936102E+02  0.13978258321E+03  0.90451319205E+02 0.  0.
          5    1    3    3  502    0  0.42671229596E+02 -0.76905488440E+02 -0.94532684247E+02  0.12918664319E+03  0.41800000000E+01 0. -1.
         -5    1    3    3    0  502  0.19240403401E+02  0.13065131401E+02  0.29246705348E+02  0.37599640361E+02  0.41800000000E+01 0. -1.
        -11    1    4    4    0    0 -0.30944441300E+02 -0.74588724847E+01 -0.12646168440E+02  0.34250821921E+02  0.00000000000E+00 0.  1.
         11    1    4    4    0    0 -0.30967191697E+02  0.71299229525E+02  0.71375104542E+02  0.10553176129E+03  0.00000000000E+00 0. -1.
</event>
<event>
 8    1  0.7103328E-009  0.1454130E+03  0.7561462E-02  0.1206225E+00
          1   -1    0    0  501    0  0.00000000000E+00  0.00000000000E+00  0.33317354694E+02  0.33317354694E+02  0.00000000000E+00 0. -1.
         -1   -1    0    0    0  501 -0.00000000000E+00 -0.00000000000E+00 -0.93895098762E+03  0.93895098762E+03  0.00000000000E+00 0.  1.
         25    2    1    2    0    0 -0.11239294107E+03  0.81217403313E+02 -0.50174004255E+03  0.53536840664E+03  0.12509124958E+03 0.  0.
         23    2    1    2    0    0  0.11239294107E+03 -0.81217403313E+02 -0.40389359038E+03  0.43689993568E+03  0.92320537507E+02 0.  0.
          5    1    3    3  502    0 -0.61780340630E+02  0.73473776968E+02 -0.13881875923E+03  0.16882928272E+03  0.41800000000E+01 0.  1.
         -5    1    3    3    0  502 -0.50612600438E+02  0.77436263443E+01 -0.36292128332E+03  0.36653912392E+03  0.41800000000E+01 0.  1.
        -11    1    4    4    0    0  0.51756470062E+02 -0.15675240635E+02 -0.27394699794E+03  0.27923359942E+03  0.00000000000E+00 0.  1.
         11    1    4    4    0    0  0.60636471006E+02 -0.65542162678E+02 -0.12994659244E+03  0.15766633626E+03  0.00000000000E+00 0. -1.
</event>
<event>
 8    1  0.7103328E-009  0.9613737E+02  0.7561462E-02  0.1288635E+00
          1   -1    0    0  501    0  0.00000000000E+00  0.00000000000E+00  0.19410332779E+03  0.19410332779E+03  0.00000000000E+00 0. -1.
         -1   -1    0    0    0  501 -0.00000000000E+00 -0.00000000000E+00 -0.72598321708E+02  0.72598321708E+02  0.00000000000E+00 0.  1.
         25    2    1    2    0    0 -0.45712576689E+02  0.14883918779E+02  0.80007698589E+02  0.15607554353E+03  0.12508865956E+03 0.  0.
         23    2    1    2    0    0  0.45712576689E+02 -0.14883918779E+02  0.41497307497E+02  0.11062610597E+03  0.90581113297E+02 0.  0.
          5    1    3    3  502    0  0.26385364197E+02  0.98022845035E+01 -0.18414090512E+02  0.33894296787E+02  0.41800000000E+01 0.  1.
         -5    1    3    3    0  502 -0.72097940886E+02  0.50816342751E+01  0.98421789101E+02  0.12218124675E+03  0.41800000000E+01 0.  1.
        -11    1    4    4    0    0 -0.21912265605E+02  0.10754481922E+01 -0.10029739164E+02  0.24122596055E+02  0.00000000000E+00 0.  1.
         11    1    4    4    0    0  0.67624842294E+02 -0.15959366971E+02  0.51527046660E+02  0.86503509911E+02  0.00000000000E+00 0. -1.
</event>
<event>
 8    1  0.7103328E-009  0.1077800E+03  0.7561462E-02  0.1264737E+00
         -2   -1    0    0    0  501 -0.00000000000E+00  0.00000000000E+00  0.24893255630E+02  0.24893255630E+02  0.00000000000E+00 0.  1.
          2   -1    0    0  501    0  0.00000000000E+00 -0.00000000000E+00 -0.48020325494E+03  0.48020325494E+03  0.00000000000E+00 0. -1.
         25    2    1    2    0    0  0.17507969545E+01 -0.19423762052E+02 -0.24925666304E+03  0.27956569951E+03  0.12509096072E+03 0.  0.
         23    2    1    2    0    0 -0.17507969545E+01  0.19423762052E+02 -0.20605333627E+03  0.22553081106E+03  0.89586949526E+02 0.  0.
          5    1    3    3  502    0 -0.75386213788E+01 -0.70892740522E+02 -0.11438522658E+03  0.13484829969E+03  0.41800000000E+01 0. -1.
         -5    1    3    3    0  502  0.92894183333E+01  0.51468978470E+02 -0.13487143646E+03  0.14471739982E+03  0.41800000000E+01 0. -1.
        -11    1    4    4    0    0  0.13972783545E+02 -0.33590597740E+02 -0.80375336029E+02  0.88225628806E+02  0.00000000000E+00 0. -1.
         11    1    4    4    0    0 -0.15723580500E+02  0.53014359792E+02 -0.12567800025E+03  0.13730518225E+03  0.00000000000E+00 0.  1.
</event>
<event>
 8    1  0.7103328E-009  0.1471679E+03  0.7561462E-02  0.1203997E+00
          2   -1    0    0  501    0  0.00000000000E+00  0.00000000000E+00  0.86918197305E+03  0.86918197305E+03  0.00000000000E+00 0. -1.
         -2   -1    0    0    0  501 -0.00000000000E+00 -0.00000000000E+00 -0.25323044334E+02  0.25323044334E+02  0.00000000000E+00 0.  1.
         25    2    1    2    0    0 -0.91568923614E+02  0.37982102427E+02  0.44002456627E+03  0.46807737233E+03  0.12508916694E+03 0.  0.
         23    2    1    2    0    0  0.91568923614E+02 -0.37982102427E+02  0.40383436245E+03  0.42642764506E+03  0.94503102072E+02 0.  0.
          5    1    3    3  502    0 -0.19815592188E+02  0.74431062025E+02  0.25114221371E+03  0.26272138206E+03  0.41800000000E+01 0. -1.
         -5    1    3    3    0  502 -0.71753331427E+02 -0.36448959598E+02  0.18888235257E+03  0.20535599026E+03  0.41800000000E+01 0. -1.
        -11    1    4    4    0    0  0.55109030446E+02 -0.69303729867E+02  0.27601176913E+03  0.28986636388E+03  0.00000000000E+00 0.  1.
         11    1    4    4    0    0  0.36459893168E+02  0.31321627440E+02  0.12782259332E+03  0.13656128119E+03  0.00000000000E+00 0. -1.
</event>
<event>
 8    1  0.7103328E-009  0.1276345E+03  0.7561462E-02  0.1231008E+00
         -2   -1    0    0    0  501 -0.00000000000E+00  0.00000000000E+00  0.95889830320E+02  0.95889830320E+02  0.00000000000E+00 0.  1.
          2   -1    0    0  501    0  0.00000000000E+00 -0.00000000000E+00 -0.22799738837E+03  0.22799738837E+03  0.00000000000E+00 0. -1.
         25    2    1    2    0    0  0.75603194261E+02 -0.36210424475E+02 -0.13138577585E+03  0.19984645607E+03  0.12509734643E+03 0.  0.
         23    2    1    2    0    0 -0.75603194261E+02  0.36210424475E+02 -0.72178220386E+00  0.12404076262E+03  0.91425116898E+02 0.  0.
          5    1    3    3  502    0  0.75042558081E+02  0.29777988926E+02 -0.50284072847E+02  0.95205433300E+02  0.41800000000E+01 0. -1.
         -5    1    3    3    0  502  0.56063617982E+00 -0.65988413401E+02 -0.81101703003E+02  0.10464102277E+03  0.41800000000E+01 0. -1.
        -11    1    4    4    0    0 -0.10503245829E+02  0.41671170501E+02  0.29433989998E+02  0.52088044608E+02  0.00000000000E+00 0.  1.
         11    1    4    4    0    0 -0.65099948431E+02 -0.54607460263E+01 -0.30155772201E+02  0.71952718017E+02  0.00000000000E+00 0. -1.
</event>
<event>
 8    1  0.7103328E-009  0.1496563E+03  0.7561462E-02  0.1200896E+00
         -2   -1    0    0    0  501 -0.00000000000E+00  0.00000000000E+00  0.45479762211E+02  0.45479762211E+02  0.00000000000E+00 0. -1.
          2   -1    0    0  501    0  0.00000000000E+00 -0.00000000000E+00 -0.56617765900E+03  0.56617765900E+03  0.00000000000E+00 0.  1.
         25    2    1    2    0    0 -0.11723592438E+03 -0.18805467425E+01 -0.25118334497E+03  0.30411865791E+03  0.12508911574E+03 0.  0.
         23    2    1    2    0    0  0.11723592438E+03  0.18805467425E+01 -0.26951455183E+03  0.30753876331E+03  0.90521814324E+02 0.  0.
          5    1    3    3  502    0 -0.14160138026E+03 -0.73596183987E+01 -0.23357710564E+03  0.27327797488E+03  0.41800000000E+01 0.  1.
         -5    1    3    3    0  502  0.24365455879E+02  0.54790716562E+01 -0.17606239329E+02  0.30840683030E+02  0.41800000000E+01 0.  1.
        -11    1    4    4    0    0  0.78676783671E+02  0.30223080294E+02 -0.23168003768E+03  0.24653419790E+03  0.00000000000E+00 0.  1.
         11    1    4    4    0    0  0.38559140712E+02 -0.28342533552E+02 -0.37834514143E+02  0.61004565411E+02  0.00000000000E+00 0. -1.
</event>
<event>
 8    1  0.7103328E-009  0.1347474E+03  0.7561462E-02  0.1220577E+00
         -1   -1    0    0    0  501 -0.00000000000E+00  0.00000000000E+00  0.74309931102E+02  0.74309931102E+02  0.00000000000E+00 0. -1.
          1   -1    0    0  501    0  0.00000000000E+00 -0.00000000000E+00 -0.25621861788E+03  0.25621861788E+03  0.00000000000E+00 0.  1.
         25    2    1    2    0    0  0.59145959183E+02  0.52883691529E+02 -0.66305285634E+02  0.16229221997E+03  0.12508974555E+03 0.  0.
         23    2    1    2    0    0 -0.59145959183E+02 -0.52883691529E+02 -0.11560340115E+03  0.16823632902E+03  0.92975194147E+02 0.  0.
          5    1    3    3  502    0  0.61024585541E+02 -0.27523749068E+02 -0.36894721736E+02  0.76552267733E+02  0.41800000000E+01 0. -1.
         -5    1    3    3    0  502 -0.18786263579E+01  0.80407440597E+02 -0.29410563898E+02  0.85739952235E+02  0.41800000000E+01 0. -1.
        -11    1    4    4    0    0 -0.24157181880E+02  0.26058587142E+02 -0.28099129668E+02  0.45300998757E+02  0.00000000000E+00 0.  1.
         11    1    4    4    0    0 -0.34988777302E+02 -0.78942278672E+02 -0.87504271479E+02  0.12293533026E+03  0.00000000000E+00 0. -1.
</event>
<event>
 8    1  0.7103328E-009  0.1312700E+03  0.7561462E-02  0.1225583E+00
          2   -1    0    0  501    0  0.00000000000E+00  0.00000000000E+00  0.29298813111E+03  0.29298813111E+03  0.00000000000E+00 0. -1.
         -2   -1    0    0    0  501 -0.00000000000E+00 -0.00000000000E+00 -0.74452104835E+02  0.74452104835E+02  0.00000000000E+00 0.  1.
         25    2    1    2    0    0  0.94794783626E+02  0.32392321822E+02  0.11069465830E+03  0.19477580828E+03  0.12509594158E+03 0.  0.
         23    2    1    2    0    0 -0.94794783626E+02 -0.32392321822E+02  0.10784136798E+03  0.17266442766E+03  0.90265887341E+02 0.  0.
          5    1    3    3  502    0  0.38641660799E+02  0.57457781254E+02  0.14980060656E+01  0.69385092045E+02  0.41800000000E+01 0.  1.
         -5    1    3    3    0  502  0.56153122827E+02 -0.25065459432E+02  0.10919665223E+03  0.12539071624E+03  0.41800000000E+01 0.  1.
        -11    1    4    4    0    0 -0.88759754564E+02 -0.57470855562E+02  0.10041289817E+03  0.14582161496E+03  0.00000000000E+00 0. -1.
         11    1    4    4    0    0 -0.60350290616E+01  0.25078533740E+02  0.74284698040E+01  0.26842812706E+02  0.00000000000E+00 0.  1.
</event>
<event>
 8    1  0.7103328E-009  0.1355180E+03  0.7561462E-02  0.1219490E+00
         -2   -1    0    0    0  501 -0.00000000000E+00  0.00000000000E+00  0.20284108686E+03  0.20284108686E+03  0.00000000000E+00 0.  1.
          2   -1    0    0  501    0  0.00000000000E+00 -0.00000000000E+00 -0.15250999236E+03  0.15250999236E+03  0.00000000000E+00 0. -1.
         25    2    1    2    0    0 -0.13156740591E+03  0.70545986058E+01 -0.15130840158E+02  0.18231117996E+03  0.12509466157E+03 0.  0.
         23    2    1    2    0    0  0.13156740591E+03 -0.70545986058E+01  0.65461934658E+02  0.17303989927E+03  0.91092218044E+02 0.  0.
          5    1    3    3  502    0 -0.28398356086E+02  0.14866741067E+02  0.50322164694E+02  0.59810360957E+02  0.41800000000E+01 0. -1.
         -5    1    3    3    0  502 -0.10316904983E+03 -0.78121424613E+01 -0.65453004852E+02  0.12250081900E+03  0.41800000000E+01 0. -1.
        -11    1    4    4    0    0  0.97852253764E+02 -0.18442188707E+02  0.11996356479E+01  0.99582212351E+02  0.00000000000E+00 0. -1.
         11    1    4    4    0    0  0.33715152150E+02  0.11387590101E+02  0.64262299010E+02  0.73457686914E+02  0.00000000000E+00 0.  1.
</event>
<event>
 8    1  0.7103328E-009  0.8371008E+02  0.7561462E-02  0.1318841E+00
          1   -1    0    0  501    0  0.00000000000E+00  0.00000000000E+00  0.19340976825E+03  0.19340976825E+03  0.00000000000E+00 0. -1.
         -1   -1    0    0    0  501 -0.00000000000E+00 -0.00000000000E+00 -0.72075430385E+02  0.72075430385E+02  0.00000000000E+00 0.  1.
         25    2    1    2    0    0  0.77853945105E+01 -0.42947632536E+01  0.92363052888E+01  0.12574911395E+03  0.12509385662E+03 0.  0.
         23    2    1    2    0    0 -0.77853945105E+01  0.42947632536E+01  0.11209803258E+03  0.13973608469E+03  0.82952679871E+02 0.  0.
          5    1    3    3  502    0  0.11536396839E+02  0.47077032469E+02 -0.33184672249E+02  0.58889984805E+02  0.41800000000E+01 0. -1.
         -5    1    3    3    0  502 -0.37510023285E+01 -0.51371795723E+02  0.42420977537E+02  0.66859129141E+02  0.41800000000E+01 0. -1.
        -11    1    4    4    0    0 -0.33112892284E+02  0.18625453688E+02  0.19562199995E+02  0.42732315982E+02  0.00000000000E+00 0.  1.
         11    1    4    4    0    0  0.25327497774E+02 -0.14330690434E+02  0.92535832586E+02  0.97003768712E+02  0.00000000000E+00 0. -1.
</event>
<event>
 8    1  0.7103328E-009  0.1070989E+03  0.7561462E-02  0.1266039E+00
         -2   -1    0    0    0  501 -0.00000000000E+00  0.00000000000E+00  0.39592129005E+03  0.39592129005E+03  0.00000000000E+00 0.  1.
          2   -1    0    0  501    0  0.00000000000E+00 -0.00000000000E+00 -0.35739808402E+02  0.35739808402E+02  0.00000000000E+00 0. -1.
         25    2    1    2    0    0  0.48210286665E+01 -0.35604586954E+02  0.14518693121E+03  0.19498077869E+03  0.12508928864E+03 0.  0.
         23    2    1    2    0    0 -0.48210286665E+01  0.35604586954E+02  0.21499455044E+03  0.23668031977E+03  0.92217070639E+02 0.  0.
          5    1    3    3  502    0  0.14771844199E+02  0.43144026600E+02  0.28989862452E+02  0.54198698668E+02  0.41800000000E+01 0.  1.
         -5    1    3    3    0  502 -0.99508155322E+01 -0.78748613553E+02  0.11619706876E+03  0.14078208002E+03  0.41800000000E+01 0.  1.
        -11    1    4    4    0    0  0.22891166247E+02 -0.17636701777E+02  0.12644778161E+03  0.12970774925E+03  0.00000000000E+00 0.  1.
         11    1    4    4    0    0 -0.27712194914E+02  0.53241288731E+02  0.88546768827E+02  0.10697257051E+03  0.00000000000E+00 0. -1.
</event>
<event>
 8    1  0.7103328E-009  0.8162205E+02  0.7561462E-02  0.1324510E+00
          1   -1    0    0  501    0  0.00000000000E+00  0.00000000000E+00  0.51710320673E+03  0.51710320673E+03  0.00000000000E+00 0. -1.
         -1   -1    0    0    0  501 -0.00000000000E+00 -0.00000000000E+00 -0.24604552847E+02  0.24604552847E+02  0.00000000000E+00 0.  1.
         25    2    1    2    0    0 -0.30678555896E+02  0.79810056452E+01  0.25522819883E+03  0.28599401710E+03  0.12508506743E+03 0.  0.
         23    2    1    2    0    0  0.30678555896E+02 -0.79810056452E+01  0.23727045505E+03  0.25571374248E+03  0.89929856046E+02 0.  0.
          5    1    3    3  502    0 -0.51880197837E+01 -0.28709405365E+02  0.27958585616E+01  0.29604640359E+02  0.41800000000E+01 0.  1.
         -5    1    3    3    0  502 -0.25490536113E+02  0.36690411011E+02  0.25243234027E+03  0.25638937674E+03  0.41800000000E+01 0.  1.
        -11    1    4    4    0    0  0.18739740724E+02 -0.45670311081E+02  0.17602666243E+03  0.18281778109E+03  0.00000000000E+00 0. -1.
         11    1    4    4    0    0  0.11938815173E+02  0.37689305436E+02  0.61243792629E+02  0.72895961394E+02  0.00000000000E+00 0.  1.
</event>
<event>
 8    1  0.7103328E-009  0.1108913E+03  0.7561462E-02  0.1258928E+00
         -2   -1    0    0    0  501 -0.00000000000E+00  0.00000000000E+00  0.55997299252E+02  0.55997299252E+02  0.00000000000E+00 0.  1.
          2   -1    0    0  501    0  0.00000000000E+00 -0.00000000000E+00 -0.54239898137E+03  0.54239898137E+03  0.00000000000E+00 0. -1.
         25    2    1    2    0    0  0.25826193470E+02 -0.43643764033E+02 -0.46927690001E+03  0.48830315156E+03  0.12508952208E+03 0.  0.
         23    2    1    2    0    0 -0.25826193470E+02  0.43643764033E+02 -0.17124782108E+02  0.11009312906E+03  0.96205345463E+02 0.  0.
          5    1    3    3  502    0 -0.39510059850E+02 -0.55388519023E+02 -0.25373701593E+03  0.26273347431E+03  0.41800000000E+01 0. -1.
         -5    1    3    3    0  502  0.65336253320E+02  0.11744754990E+02 -0.21553988408E+03  0.22556967725E+03  0.41800000000E+01 0. -1.
        -11    1    4    4    0    0 -0.37424965697E+02  0.57765025725E+02  0.17431935930E+02  0.71002103101E+02  0.00000000000E+00 0.  1.
         11    1    4    4    0    0  0.11598772227E+02 -0.14121261692E+02 -0.34556718038E+02  0.39091025958E+02  0.00000000000E+00 0. -1.
</event>
<event>
 8    1  0.7103328E-009  0.1627752E+03  0.7561462E-02  0.1185599E+00
          2   -1    0    0  501    0  0.00000000000E+00  0.00000000000E+00  0.46121998079E+03  0.46121998079E+03  0.00000000000E+00 0. -1.
         -2   -1    0    0    0  501 -0.00000000000E+00 -0.00000000000E+00 -0.62431021177E+02  0.62431021177E+02  0.00000000000E+00 0.  1.
         25    2    1    2    0    0 -0.59906219363E+02  0.11643540804E+03  0.18606394957E+03  0.25964118518E+03  0.12509113617E+03 0.  0.
         23    2    1    2    0    0  0.59906219363E+02 -0.11643540804E+03  0.21272501004E+03  0.26400981679E+03  0.85459312541E+02 0.  0.
          5    1    3    3  502    0 -0.90082269586E+02  0.11577017062E+03  0.17195772946E+03  0.22606300188E+03  0.41800000000E+01 0. -1.
         -5    1    3    3    0  502  0.30176050223E+02  0.66523742405E+00  0.14106220113E+02  0.33578183300E+02  0.41800000000E+01 0. -1.
        -11    1    4    4    0    0  0.74737843381E+02 -0.10778284046E+03  0.20850560553E+03  0.24632797946E+03  0.00000000000E+00 0. -1.
         11    1    4    4    0    0 -0.14831624018E+02 -0.86525675816E+01  0.42194045150E+01  0.17681837326E+02  0.00000000000E+00 0.  1.
</event>
<event>
 8    1  0.7103328E-009  0.1469519E+03  0.7561462E-02  0.1204269E+00
         -1   -1    0    0    0  501 -0.00000000000E+00  0.00000000000E+00  0.50854051683E+02  0.50854051683E+02  0.00000000000E+00 0.  1.
          1   -1    0    0  501    0  0.00000000000E+00 -0.00000000000E+00 -0.52046416935E+03  0.52046416935E+03  0.00000000000E+00 0. -1.
         25    2    1    2    0    0  0.57580279695E+02 -0.94925120869E+02 -0.16759162689E+03  0.23676922803E+03  0.12508575761E+03 0.  0.
         23    2    1    2    0    0 -0.57580279695E+02  0.94925120869E+02 -0.30201849078E+03  0.33454899300E+03  0.91551039130E+02 0.  0.
          5    1    3    3  502    0  0.83776824301E+02 -0.20795231569E+02 -0.68932425450E+02  0.11054478560E+03  0.41800000000E+01 0.  1.
         -5    1    3    3    0  502 -0.26196544607E+02 -0.74129889300E+02 -0.98659201443E+02  0.12622444243E+03  0.41800000000E+01 0.  1.
        -11    1    4    4    0    0  0.99291031881E+01  0.41463042484E+02 -0.18140996884E+03  0.18635275092E+03  0.00000000000E+00 0. -1.
         11    1    4    4    0    0 -0.67509382883E+02  0.53462078385E+02 -0.12060852194E+03  0.14819624208E+03  0.00000000000E+00 0.  1.
</event>
<event>
 8    1  0.7103328E-009  0.1087015E+03  0.7561462E-02  0.1262994E+00
          1   -1    0    0  501    0  0.00000000000E+00  0.00000000000E+00  0.48045126010E+03  0.48045126010E+03  0.00000000000E+00 0. -1.
         -1   -1    0    0    0  501 -0.00000000000E+00 -0.00000000000E+00 -0.24629181348E+02  0.24629181348E+02  0.00000000000E+00 0.  1.
         25    2    1    2    0    0  0.16573594626E+02  0.69638021987E+01  0.25966891221E+03  0.28878750513E+03  0.12508837104E+03 0.  0.
         23    2    1    2    0    0 -0.16573594626E+02 -0.69638021987E+01  0.19615316654E+03  0.21629293631E+03  0.89349823602E+02 0.  0.
          5    1    3    3  502    0  0.69997139820E+02 -0.83864079204E+01  0.14331977495E+03  0.15977472175E+03  0.41800000000E+01 0. -1.
         -5    1    3    3    0  502 -0.53423545194E+02  0.15350210119E+02  0.11634913727E+03  0.12901278337E+03  0.41800000000E+01 0. -1.
        -11    1    4    4    0    0 -0.53308021480E+02  0.15528344844E+01  0.11988287991E+03  0.13120998950E+03  0.00000000000E+00 0. -1.
         11    1    4    4    0    0  0.36734426854E+02 -0.85166366831E+01  0.76270286624E+02  0.85082946813E+02  0.00000000000E+00 0.  1.
</event>
<event>
 8    1  0.7103328E-009  0.1379957E+03  0.7561462E-02  0.1216052E+00
         -2   -1    0    0    0  501 -0.00000000000E+00  0.00000000000E+00  0.86234865759E+02  0.86234865759E+02  0.00000000000E+00 0.  1.
          2   -1    0    0  501    0  0.00000000000E+00 -0.00000000000E+00 -0.40668340120E+03  0.40668340120E+03  0.00000000000E+00 0. -1.
         25    2    1    2    0    0 -0.15660496309E+02  0.93786199483E+02 -0.32624578566E+03  0.36211251678E+03  0.12509220515E+03 0.  0.
         23    2    1    2    0    0  0.15660496309E+02 -0.93786199483E+02  0.57972502180E+01  0.13080575018E+03  0.89640581278E+02 0.  0.
          5    1    3    3  502    0  0.41946979094E+02  0.84511496540E+02 -0.23986219631E+03  0.25778496411E+03  0.41800000000E+01 0.  1.
         -5    1    3    3    0  502 -0.57607475404E+02  0.92747029422E+01 -0.86383589352E+02  0.10432755267E+03  0.41800000000E+01 0.  1.
        -11    1    4    4    0    0 -0.31011898603E+02 -0.51253978234E+02 -0.19178264928E+02  0.62900826588E+02  0.00000000000E+00 0.  1.
         11    1    4    4    0    0  0.46672394912E+02 -0.42532221249E+02  0.24975515146E+02  0.67904923592E+02  0.00000000000E+00 0. -1.
</event>
<event>
 8    1  0.7103328E-009  0.8788782E+02  0.7561462E-02  0.1308049E+00
          1   -1    0    0  501    0  0.00000000000E+00  0.00000000000E+00  0.23550232491E+02  0.23550232491E+02  0.00000000000E+00 0. -1.
         -1   -1    0    0    0  501 -0.00000000000E+00 -0.00000000000E+00 -0.58875969708E+03  0.58875969708E+03  0.00000000000E+00 0.  1.
         25    2    1    2    0    0  0.11110159005E+02  0.44183682483E+02 -0.31654464947E+03  0.34339945155E+03  0.12508810811E+03 0.  0.
         23    2    1    2    0    0 -0.11110159005E+02 -0.44183682483E+02 -0.24866481512E+03  0.26891047802E+03  0.91667995924E+02 0.  0.
          5    1    3    3  502    0  0.23969278470E+02  0.52356481632E+02 -0.49966351253E+02  0.76353363625E+02  0.41800000000E+01 0. -1.
         -5    1    3    3    0  502 -0.12859119465E+02 -0.81727991495E+01 -0.26657829821E+03  0.26704608793E+03  0.41800000000E+01 0. -1.
        -11    1    4    4    0    0 -0.11980593819E+02  0.27790433502E+02 -0.79742614715E+02  0.85292012663E+02  0.00000000000E+00 0. -1.
         11    1    4    4    0    0  0.87043481453E+00 -0.71974115985E+02 -0.16892220041E+03  0.18361846535E+03  0.00000000000E+00 0.  1.
</event>
<event>
 8    1  0.7103328E-009  0.8875080E+02  0.7561462E-02  0.1305905E+00
         -1   -1    0    0    0  501 -0.00000000000E+00  0.00000000000E+00  0.62798193159E+02  0.62798193159E+02  0.00000000000E+00 0.  1.
          1   -1    0    0  501    0  0.00000000000E+00 -0.00000000000E+00 -0.21859827597E+03  0.21859827597E+03  0.00000000000E+00 0. -1.
         25    2    1    2    0    0  0.41643872272E+02 -0.15868125517E+02 -0.96939645298E+02  0.16441515627E+03  0.12509612014E+03 0.  0.
         23    2    1    2    0    0 -0.41643872272E+02  0.15868125517E+02 -0.58860437517E+02  0.11698131287E+03  0.90741759681E+02 0.  0.
          5    1    3    3  502    0  0.39650921786E+02  0.50772812848E+02 -0.35592293439E+02  0.73718097339E+02  0.41800000000E+01 0. -1.
         -5    1    3    3    0  502  0.19929504862E+01 -0.66640938366E+02 -0.61347351859E+02  0.90697058927E+02  0.41800000000E+01 0. -1.
        -11    1    4    4    0    0 -0.85257486652E+01  0.88523655067E+01  0.24279718644E+02  0.27213186194E+02  0.00000000000E+00 0.  1.
         11    1    4    4    0    0 -0.33118123607E+02  0.70157600105E+01 -0.83140156161E+02  0.89768126673E+02  0.00000000000E+00 0. -1.
</event>
<event>
 8    1  0.7103328E-009  0.2720441E+03  0.7561462E-02  0.1100115E+00
          2   -1    0    0  501    0  0.00000000000E+00  0.00000000000E+00  0.51354801833E+03  0.51354801833E+03  0.00000000000E+00 0.  1.
         -2   -1    0    0    0  501 -0.00000000000E+00 -0.00000000000E+00 -0.22042713920E+03  0.22042713920E+03  0.00000000000E+00 0. -1.
         25    2    1    2    0    0  0.25109197907E+03  0.91762155385E+02 -0.39002150712E+02  0.29772012828E+03  0.12509449193E+03 0.  0.
         23    2    1    2    0    0 -0.25109197907E+03 -0.91762155385E+02  0.33212302984E+03  0.43625502925E+03  0.92440621373E+02 0.  0.
          5    1    3    3  502    0  0.67234496638E+02  0.42766349922E+02 -0.68456953248E+02  0.10513450942E+03  0.41800000000E+01 0. -1.
         -5    1    3    3    0  502  0.18385748243E+03  0.48995805464E+02  0.29454802536E+02  0.19258561886E+03  0.41800000000E+01 0. -1.
        -11    1    4    4    0    0 -0.83472709093E+02 -0.12553296740E+01  0.15543580440E+03  0.17643570587E+03  0.00000000000E+00 0.  1.
         11    1    4    4    0    0 -0.16761926998E+03 -0.90506825711E+02  0.17668722544E+03  0.25981932338E+03  0.00000000000E+00 0. -1.
</event>
<event>
 8    1  0.7103328E-009  0.1253735E+03  0.7561462E-02  0.1234487E+00
         -1   -1    0    0    0  501 -0.00000000000E+00  0.00000000000E+00  0.52656181369E+02  0.52656181369E+02  0.00000000000E+00 0.  1.
          1   -1    0    0  501    0  0.00000000000E+00 -0.00000000000E+00 -0.34338908735E+03  0.34338908735E+03  0.00000000000E+00 0. -1.
         25    2    1    2    0    0  0.34565534639E+02 -0.57750140684E+02 -0.96573242474E+02  0.17176625902E+03  0.12508957448E+03 0.  0.
         23    2    1    2    0    0 -0.34565534639E+02  0.57750140684E+02 -0.19415966351E+03  0.22427900970E+03  0.89851234398E+02 0.  0.
          5    1    3    3  502    0  0.41779433096E+02 -0.94806388465E+02 -0.65027710352E+02  0.12239218863E+03  0.41800000000E+01 0. -1.
         -5    1    3    3    0  502 -0.72138984573E+01  0.37056247781E+02 -0.31545532122E+02  0.49374070395E+02  0.41800000000E+01 0. -1.
        -11    1    4    4    0    0  0.21961493330E+02  0.46521482166E+02 -0.11837308605E+03  0.12906875297E+03  0.00000000000E+00 0. -1.
         11    1    4    4    0    0 -0.56527027969E+02  0.11228658518E+02 -0.75786577463E+02  0.95210256731E+02  0.00000000000E+00 0.  1.
</event>
<event>
 8    1  0.7103328E-009  0.2780913E+03  0.7561462E-02  0.1096736E+00
          1   -1    0    0  501    0  0.00000000000E+00  0.00000000000E+00  0.88704036891E+03  0.88704036891E+03  0.00000000000E+00 0. -1.
         -1   -1    0    0    0  501 -0.00000000000E+00 -0.00000000000E+00 -0.98170811499E+02  0.98170811499E+02  0.00000000000E+00 0.  1.
         25    2    1    2    0    0 -0.24412917659E+03 -0.93559856017E+02  0.26512679245E+03  0.39280047959E+03  0.12508996429E+03 0.  0.
         23    2    1    2    0    0  0.24412917659E+03  0.93559856017E+02  0.52374276495E+03  0.59241070082E+03  0.91057416431E+02 0.  0.
          5    1    3    3  502    0 -0.17812818882E+03 -0.75066365222E+01  0.19134886713E+03  0.26156808405E+03  0.41800000000E+01 0.  1.
         -5    1    3    3    0  502 -0.66000987769E+02 -0.86053219495E+02  0.73777925325E+02  0.13123239553E+03  0.41800000000E+01 0.  1.
        -11    1    4    4    0    0  0.30733870861E+02 -0.97316635984E+01  0.27225117919E+02  0.42195771591E+02  0.00000000000E+00 0. -1.
         11    1    4    4    0    0  0.21339530573E+03  0.10329151962E+03  0.49651764704E+03  0.55021492923E+03  0.00000000000E+00 0.  1.
</event>
<event>
 8    1  0.7103328E-009  0.2044986E+03  0.7561462E-02  0.1145998E+00
          2   -1    0    0  501    0  0.00000000000E+00  0.00000000000E+00  0.13903431449E+04  0.13903431449E+04  0.00000000000E+00 0. -1.
         -2   -1    0    0    0  501 -0.00000000000E+00 -0.00000000000E+00 -0.40517055482E+02  0.40517055482E+02  0.00000000000E+00 0.  1.
         25    2    1    2    0    0 -0.14455815781E+03 -0.12751232561E+03  0.43509195736E+03  0.49204406666E+03  0.12508356408E+03 0.  0.
         23    2    1    2    0    0  0.14455815781E+03  0.12751232561E+03  0.91473413209E+03  0.93881613376E+03  0.86491308368E+02 0.  0.
          5    1    3    3  502    0 -0.37977602931E+01 -0.19355386152E+02 -0.20005920622E+01  0.20261508457E+02  0.41800000000E+01 0. -1.
         -5    1    3    3    0  502 -0.14076039751E+03 -0.10815693945E+03  0.43709254942E+03  0.47178255820E+03  0.41800000000E+01 0. -1.
        -11    1    4    4    0    0  0.67717536663E+02  0.66407909966E+01  0.29181504341E+03  0.29964276137E+03  0.00000000000E+00 0.  1.
         11    1    4    4    0    0  0.76840621144E+02  0.12087153461E+03  0.62291908867E+03  0.63917337239E+03  0.00000000000E+00 0. -1.
</event>
<event>
 8    1  0.7103328E-009  0.1474520E+03  0.7561462E-02  0.1203639E+00
         -2   -1    0    0    0  501 -0.00000000000E+00  0.00000000000E+00  0.27726971250E+02  0.27726971250E+02  0.00000000000E+00 0.  1.
          2   -1    0    0  501    0  0.00000000000E+00 -0.00000000000E+00 -0.89055065115E+03  0.89055065115E+03  0.00000000000E+00 0. -1.
         25    2    1    2    0    0  0.83834410858E+02  0.60684330712E+02 -0.33712876885E+03  0.37418335761E+03  0.12508629775E+03 0.  0.
         23    2    1    2    0    0 -0.83834410858E+02 -0.60684330712E+02 -0.52569491104E+03  0.54409426479E+03  0.94723983456E+02 0.  0.
          5    1    3    3  502    0  0.18371525821E+02 -0.36715460176E+02 -0.12611936180E+03  0.13269929841E+03  0.41800000000E+01 0.  1.
         -5    1    3    3    0  502  0.65462885038E+02  0.97399790888E+02 -0.21100940705E+03  0.24148405920E+03  0.41800000000E+01 0.  1.
        -11    1    4    4    0    0 -0.17957507705E+01 -0.53854975322E+02 -0.14726533101E+03  0.15681409632E+03  0.00000000000E+00 0.  1.
         11    1    4    4    0    0 -0.82038660088E+02 -0.68293553902E+01 -0.37842958003E+03  0.38728016846E+03  0.00000000000E+00 0. -1.
</event>
<event>
 8    1  0.7103328E-009  0.1103323E+03  0.7561462E-02  0.1259956E+00
         -2   -1    0    0    0  501 -0.00000000000E+00  0.00000000000E+00  0.32587633789E+02  0.32587633789E+02  0.00000000000E+00 0. -1.
          2   -1    0    0  501    0  0.00000000000E+00 -0.00000000000E+00 -0.48798944073E+03  0.48798944073E+03  0.00000000000E+00 0.  1.
         25    2    1    2    0    0 -0.55788624205E+02 -0.15198294666E+02 -0.31116366410E+03  0.34031198677E+03  0.12508422656E+03 0.  0.
         23    2    1    2    0    0  0.55788624205E+02  0.15198294666E+02 -0.14423814284E+03  0.18026508775E+03  0.91364660883E+02 0.  0.
          5    1    3    3  502    0 -0.63453879228E+02  0.27338224137E+02 -0.27567266435E+03  0.28422994839E+03  0.41800000000E+01 0.  1.
         -5    1    3    3    0  502  0.76652550231E+01 -0.42536518803E+02 -0.35490999742E+02  0.56082038382E+02  0.41800000000E+01 0.  1.
        -11    1    4    4    0    0  0.42974380731E+01  0.47201156959E+02 -0.59422530584E+02  0.76009567380E+02  0.00000000000E+00 0.  1.
         11    1    4    4    0    0  0.51491186132E+02 -0.32002862293E+02 -0.84815612259E+02  0.10425552037E+03  0.00000000000E+00 0. -1.
</event>
<event>
 8    1  0.7103328E-009  0.9610884E+02  0.7561462E-02  0.1288698E+00
         -1   -1    0    0    0  501 -0.00000000000E+00  0.00000000000E+00  0.11308329042E+02  0.11308329042E+02  0.00000000000E+00 0.  1.
          1   -1    0    0  501    0  0.00000000000E+00 -0.00000000000E+00 -0.17933179549E+04  0.17933179549E+04  0.00000000000E+00 0. -1.
         25    2    1    2    0    0  0.37198791491E+02  0.65176533568E+02 -0.13204815327E+04  0.13285148200E+04  0.12509363771E+03 0.  0.
         23    2    1    2    0    0 -0.37198791491E+02 -0.65176533568E+02 -0.46152809316E+03  0.47611146392E+03  0.89678395875E+02 0.  0.
          5    1    3    3  502    0  0.32107988624E+02  0.60075303868E+02 -0.28710078507E+03  0.29510048841E+03  0.41800000000E+01 0.  1.
         -5    1    3    3    0  502  0.50908028664E+01  0.51012297005E+01 -0.10333807476E+04  0.10334143316E+04  0.41800000000E+01 0.  1.
        -11    1    4    4    0    0  0.82578150228E+01 -0.69491091312E+02 -0.31277891293E+03  0.32051185883E+03  0.00000000000E+00 0. -1.
         11    1    4    4    0    0 -0.45456606513E+02  0.43145577441E+01 -0.14874918024E+03  0.15559960509E+03  0.00000000000E+00 0.  1.
</event>
<event>
 8    1  0.7103328E-009  0.1226468E+03  0.7561462E-02  0.1238793E+00
         -1   -1    0    0    0  501 -0.00000000000E+00  0.00000000000E+00  0.34578541457E+03  0.34578541457E+03  0.00000000000E+00 0.  1.
          1   -1    0    0  501    0  0.00000000000E+00 -0.00000000000E+00 -0.84537778602E+02  0.84537778602E+02  0.00000000000E+00 0. -1.
         25    2    1    2    0    0 -0.19726144294E+01  0.10558018279E+03  0.23701660318E+03  0.28805400175E+03  0.12508865471E+03 0.  0.
         23    2    1    2    0    0  0.19726144294E+01 -0.10558018279E+03  0.24231032787E+02  0.14226919142E+03  0.92207991365E+02 0.  0.
          5    1    3    3  502    0  0.88968747972E+01  0.30126379523E+02  0.20127571365E+03  0.20375509424E+03  0.41800000000E+01 0. -1.
         -5    1    3    3    0  502 -0.10869489227E+02  0.75453803263E+02  0.35740889529E+02  0.84298907509E+02  0.41800000000E+01 0. -1.
        -11    1    4    4    0    0 -0.40921657361E+02 -0.71861423342E+02  0.31434728469E+00  0.82696705014E+02  0.00000000000E+00 0.  1.
         11    1    4    4    0    0  0.42894271790E+02 -0.33718759444E+02  0.23916685502E+02  0.59572486403E+02  0.00000000000E+00 0. -1.
</event>
<event>
 8    1  0.7103328E-009  0.2135364E+03  0.7561462E-02  0.1138796E+00
          1   -1    0    0  501    0  0.00000000000E+00  0.00000000000E+00  0.86235162611E+03  0.86235162611E+03  0.00000000000E+00 0. -1.
         -1   -1    0    0    0  501 -0.00000000000E+00 -0.00000000000E+00 -0.55500370117E+02  0.55500370117E+02  0.00000000000E+00 0.  1.
         25    2    1    2    0    0 -0.18523572472E+03 -0.35503688092E+02  0.47580100156E+03  0.52688386527E+03  0.12508888366E+03 0.  0.
         23    2    1    2    0    0  0.18523572472E+03  0.35503688092E+02  0.33105025443E+03  0.39096813095E+03  0.87687073632E+02 0.  0.
          5    1    3    3  502    0 -0.11591376471E+03 -0.81811176495E+02  0.27632665535E+03  0.31064925931E+03  0.41800000000E+01 0.  1.
         -5    1    3    3    0  502 -0.69321960007E+02  0.46307488404E+02  0.19947434621E+03  0.21623460596E+03  0.41800000000E+01 0.  1.
        -11    1    4    4    0    0  0.83835631995E+02  0.52401185616E+02  0.11463390577E+03  0.15137777181E+03  0.00000000000E+00 0.  1.
         11    1    4    4    0    0  0.10140009273E+03 -0.16897497524E+02  0.21641634866E+03  0.23959035915E+03  0.00000000000E+00 0. -1.
</event>
<event>
 8    1  0.7103328E-009  0.4939678E+02  0.7561462E-02  0.1448623E+00
         -1   -1    0    0    0  501 -0.00000000000E+00  0.00000000000E+00  0.18080024151E+03  0.18080024151E+03  0.00000000000E+00 0.  1.
          1   -1    0    0  501    0  0.00000000000E+00 -0.00000000000E+00 -0.87518004558E+02  0.87518004558E+02  0.00000000000E+00 0. -1.
         25    2    1    2    0    0  0.34989599291E+02 -0.26424758433E+02  0.99960819156E+02  0.16602300745E+03  0.12509569824E+03 0.  0.
         23    2    1    2    0    0 -0.34989599291E+02  0.26424758433E+02 -0.66785822002E+01  0.10229523863E+03  0.92180108855E+02 0.  0.
          5    1    3    3  502    0  0.34649395327E+02 -0.16169733609E+02 -0.21494924848E+02  0.44062967169E+02  0.41800000000E+01 0. -1.
         -5    1    3    3    0  502  0.34020396379E+00 -0.10255024823E+02  0.12145574400E+03  0.12196004028E+03  0.41800000000E+01 0. -1.
        -11    1    4    4    0    0 -0.12918363355E+02  0.23724856346E+02 -0.48166268502E+02  0.55224472309E+02  0.00000000000E+00 0. -1.
         11    1    4    4    0    0 -0.22071235935E+02  0.26999020871E+01  0.41487686302E+02  0.47070766317E+02  0.00000000000E+00 0.  1.
</event>
<event>
 8    1  0.7103328E-009  0.8359811E+02  0.7561462E-02  0.1319140E+00
         -4   -1    0    0    0  501 -0.00000000000E+00  0.00000000000E+00  0.10567919547E+03  0.10567919547E+03  0.00000000000E+00 0.  1.
          4   -1    0    0  501    0  0.00000000000E+00 -0.00000000000E+00 -0.12764174075E+03  0.12764174075E+03  0.00000000000E+00 0. -1.
         25    2    1    2    0    0  0.26065133384E+02 -0.29131887076E+02  0.22876859745E+01  0.13108423422E+03  0.12509910044E+03 0.  0.
         23    2    1    2    0    0 -0.26065133384E+02  0.29131887076E+02 -0.24250231261E+02  0.10223670200E+03  0.91302855907E+02 0.  0.
          5    1    3    3  502    0  0.76357844733E+01  0.43366070196E+02  0.27443624560E+02  0.52053301315E+02  0.41800000000E+01 0. -1.
         -5    1    3    3    0  502  0.18429348910E+02 -0.72497957273E+02 -0.25155938585E+02  0.79030932906E+02  0.41800000000E+01 0. -1.
        -11    1    4    4    0    0 -0.24764411734E+02  0.68083186524E+01  0.32393034790E+02  0.41339303263E+02  0.00000000000E+00 0.  1.
         11    1    4    4    0    0 -0.13007216496E+01  0.22323568424E+02 -0.56643266051E+02  0.60897398737E+02  0.00000000000E+00 0. -1.
</event>
<event>
 8    1  0.7103328E-009  0.1385018E+03  0.7561462E-02  0.1215359E+00
         -2   -1    0    0    0  501 -0.00000000000E+00  0.00000000000E+00  0.52312176736E+02  0.52312176736E+02  0.00000000000E+00 0.  1.
          2   -1    0    0  501    0  0.00000000000E+00 -0.00000000000E+00 -0.52521891070E+03  0.52521891070E+03  0.00000000000E+00 0. -1.
         25    2    1    2    0    0 -0.11109371585E+03 -0.78326125587E+01 -0.15177751886E+03  0.22602856349E+03  0.12509729319E+03 0.  0.
         23    2    1    2    0    0  0.11109371585E+03  0.78326125587E+01 -0.32112921511E+03  0.35150252394E+03  0.89592901634E+02 0.  0.
          5    1    3    3  502    0  0.16440356608E+02  0.49358512886E+00 -0.74956197900E+02  0.76853321043E+02  0.41800000000E+01 0. -1.
         -5    1    3    3    0  502 -0.12753407246E+03 -0.83261976876E+01 -0.76821320960E+02  0.14917524245E+03  0.41800000000E+01 0. -1.
        -11    1    4    4    0    0  0.38742233061E+02 -0.31387543196E+02 -0.61677347724E+02  0.79310993644E+02  0.00000000000E+00 0.  1.
         11    1    4    4    0    0  0.72351482792E+02  0.39220155755E+02 -0.25945186738E+03  0.27219153030E+03  0.00000000000E+00 0. -1.
</event>
<event>
 8    1  0.7103328E-009  0.1153035E+03  0.7561462E-02  0.1251052E+00
          2   -1    0    0  501    0  0.00000000000E+00  0.00000000000E+00  0.98583527900E+03  0.98583527900E+03  0.00000000000E+00 0.  1.
         -2   -1    0    0    0  501 -0.00000000000E+00 -0.00000000000E+00 -0.15745912946E+02  0.15745912946E+02  0.00000000000E+00 0. -1.
         25    2    1    2    0    0  0.12982886368E+02 -0.56347441935E+02  0.57734477781E+03  0.59356404988E+03  0.12509076425E+03 0.  0.
         23    2    1    2    0    0 -0.12982886368E+02  0.56347441935E+02  0.39274458825E+03  0.40801714207E+03  0.94266044100E+02 0.  0.
          5    1    3    3  502    0 -0.46438622661E+02  0.10559329640E+02  0.22349505293E+03  0.22855099256E+03  0.41800000000E+01 0. -1.
         -5    1    3    3    0  502  0.59421509029E+02 -0.66906771575E+02  0.35384972488E+03  0.36501305732E+03  0.41800000000E+01 0. -1.
        -11    1    4    4    0    0 -0.43517364341E+02  0.36519860635E+02  0.33478891192E+03  0.33957484707E+03  0.00000000000E+00 0.  1.
         11    1    4    4    0    0  0.30534477973E+02  0.19827581299E+02  0.57955676330E+02  0.68442294995E+02  0.00000000000E+00 0. -1.
</event>
<event>
 8    1  0.7103328E-009  0.9630272E+02  0.7561462E-02  0.1288269E+00
          1   -1    0    0  501    0  0.00000000000E+00  0.00000000000E+00  0.80877593879E+02  0.80877593879E+02  0.00000000000E+00 0. -1.
         -1   -1    0    0    0  501 -0.00000000000E+00 -0.00000000000E+00 -0.18592463705E+03  0.18592463705E+03  0.00000000000E+00 0.  1.
         25    2    1    2    0    0 -0.38014937125E+02 -0.41383832796E+02 -0.51363419306E+02  0.14643805041E+03  0.12509254456E+03 0.  0.
         23    2    1    2    0    0  0.38014937125E+02  0.41383832796E+02 -0.53683623860E+02  0.12036418052E+03  0.91912172311E+02 0.  0.
          5    1    3    3  502    0 -0.55749922618E+02 -0.31014534303E+02 -0.85268621339E+02  0.10657469397E+03  0.41800000000E+01 0.  1.
         -5    1    3    3    0  502  0.17734985492E+02 -0.10369298493E+02  0.33905202033E+02  0.39863356438E+02  0.41800000000E+01 0.  1.
        -11    1    4    4    0    0  0.66576832076E+02  0.42737521368E+02 -0.38359903741E+02  0.87922991971E+02  0.00000000000E+00 0. -1.
         11    1    4    4    0    0 -0.28561894951E+02 -0.13536885720E+01 -0.15323720118E+02  0.32441188545E+02  0.00000000000E+00 0.  1.
</event>
<event>
 8    1  0.7103328E-009  0.3541986E+03  0.7561462E-02  0.1060905E+00
         -2   -1    0    0    0  501 -0.00000000000E+00  0.00000000000E+00  0.67413161194E+02  0.67413161194E+02  0.00000000000E+00 0.  1.
          2   -1    0    0  501    0  0.00000000000E+00 -0.00000000000E+00 -0.18971655976E+04  0.18971655976E+04  0.00000000000E+00 0. -1.
         25    2    1    2    0    0 -0.21750357330E+03 -0.26119580802E+03 -0.87409961493E+03  0.94616556856E+03  0.12509233302E+03 0.  0.
         23    2    1    2    0    0  0.21750357330E+03  0.26119580802E+03 -0.95565282143E+03  0.10184131902E+04  0.91444279820E+02 0.  0.
          5    1    3    3  502    0  0.44509273687E+01 -0.48867029194E+02 -0.18968231805E+03  0.19597104754E+03  0.41800000000E+01 0. -1.
         -5    1    3    3    0  502 -0.22195450067E+03 -0.21232877883E+03 -0.68441729688E+03  0.75019452102E+03  0.41800000000E+01 0. -1.
        -11    1    4    4    0    0  0.55273819495E+02  0.15265847127E+02 -0.16002970113E+03  0.16999337180E+03  0.00000000000E+00 0. -1.
         11    1    4    4    0    0  0.16222975381E+03  0.24592996089E+03 -0.79562312030E+03  0.84841981839E+03  0.00000000000E+00 0.  1.
</event>
<event>
 8    1  0.7103328E-009  0.1496733E+03  0.7561462E-02  0.1200875E+00
         -3   -1    0    0    0  501 -0.00000000000E+00  0.00000000000E+00  0.18147110027E+03  0.18147110027E+03  0.00000000000E+00 0.  1.
          3   -1    0    0  501    0  0.00000000000E+00 -0.00000000000E+00 -0.18211188722E+03  0.18211188722E+03  0.00000000000E+00 0. -1.
         25    2    1    2    0    0  0.10348767940E+03  0.30453651375E+02  0.99788289787E+02  0.19298321484E+03  0.12509074212E+03 0.  0.
         23    2    1    2    0    0 -0.10348767940E+03 -0.30453651375E+02 -0.10042907674E+03  0.17059977265E+03  0.85913667738E+02 0.  0.
          5    1    3    3  502    0  0.55287625110E+02 -0.45270811863E+02  0.64791516977E+02  0.96548334885E+02  0.41800000000E+01 0. -1.
         -5    1    3    3    0  502  0.48200054285E+02  0.75724463237E+02  0.34996772811E+02  0.96434879960E+02  0.41800000000E+01 0. -1.
        -11    1    4    4    0    0 -0.42882372351E+02 -0.57342877406E+02 -0.51938517843E+02  0.88457408302E+02  0.00000000000E+00 0.  1.
         11    1    4    4    0    0 -0.60605307044E+02  0.26889226031E+02 -0.48490558892E+02  0.82142364344E+02  0.00000000000E+00 0. -1.
</event>
<event>
 8    1  0.7103328E-009  0.7812418E+02  0.7561462E-02  0.1334461E+00
         -1   -1    0    0    0  501 -0.00000000000E+00  0.00000000000E+00  0.16075856376E+02  0.16075856376E+02  0.00000000000E+00 0.  1.
          1   -1    0    0  501    0  0.00000000000E+00 -0.00000000000E+00 -0.12638043546E+04  0.12638043546E+04  0.00000000000E+00 0. -1.
         25    2    1    2    0    0  0.35764262439E+00  0.11313457843E+02 -0.10928693545E+04  0.11000633786E+04  0.12509152094E+03 0.  0.
         23    2    1    2    0    0 -0.35764262439E+00 -0.11313457843E+02 -0.15485914370E+03  0.17981683239E+03  0.90689671885E+02 0.  0.
          5    1    3    3  502    0  0.25059952621E+02  0.52306498622E+02 -0.29083298219E+03  0.29658939117E+03  0.41800000000E+01 0. -1.
         -5    1    3    3    0  502 -0.24702309997E+02 -0.40993040780E+02 -0.80203637231E+03  0.80347398740E+03  0.41800000000E+01 0. -1.
        -11    1    4    4    0    0  0.21285775713E+02 -0.17488090495E+02 -0.15487889750E+03  0.15730985490E+03  0.00000000000E+00 0. -1.
         11    1    4    4    0    0 -0.21643418337E+02  0.61746326525E+01  0.19753798741E-01  0.22506977494E+02  0.00000000000E+00 0.  1.
</event>
<event>
 8    1  0.7103328E-009  0.1040996E+03  0.7561462E-02  0.1271904E+00
          1   -1    0    0  501    0  0.00000000000E+00  0.00000000000E+00  0.47818161258E+03  0.47818161258E+03  0.00000000000E+00 0. -1.
         -1   -1    0    0    0  501 -0.00000000000E+00 -0.00000000000E+00 -0.30099264451E+02  0.30099264451E+02  0.00000000000E+00 0.  1.
         25    2    1    2    0    0 -0.42128417421E+02 -0.22003968432E+02  0.20607528537E+03  0.24571053144E+03  0.12509062250E+03 0.  0.
         23    2    1    2    0    0  0.42128417421E+02  0.22003968432E+02  0.24200706275E+03  0.26257034559E+03  0.90093228260E+02 0.  0.
          5    1    3    3  502    0 -0.71745162840E+02 -0.42566572236E+02  0.84428557526E+02  0.11876419995E+03  0.41800000000E+01 0.  1.
         -5    1    3    3    0  502  0.29616745418E+02  0.20562603804E+02  0.12164672785E+03  0.12694633150E+03  0.41800000000E+01 0.  1.
        -11    1    4    4    0    0  0.38907339840E+02 -0.21702267735E+02  0.56471257680E+02  0.71928940366E+02  0.00000000000E+00 0.  1.
         11    1    4    4    0    0  0.32210775817E+01  0.43706236167E+02  0.18553580507E+03  0.19064140522E+03  0.00000000000E+00 0. -1.
</event>
<event>
 8    1  0.7103328E-009  0.9183526E+02  0.7561462E-02  0.1298467E+00
          2   -1    0    0  501    0  0.00000000000E+00  0.00000000000E+00  0.19126671510E+03  0.19126671510E+03  0.00000000000E+00 0. -1.
         -2   -1    0    0    0  501 -0.00000000000E+00 -0.00000000000E+00 -0.67279216174E+02  0.67279216174E+02  0.00000000000E+00 0.  1.
         25    2    1    2    0    0  0.28886252480E+02 -0.11018452618E+02  0.52571641138E+02  0.13916680055E+03  0.12509116293E+03 0.  0.
         23    2    1    2    0    0 -0.28886252480E+02  0.11018452618E+02  0.71415857786E+02  0.11937913072E+03  0.90528063211E+02 0.  0.
          5    1    3    3  502    0  0.40604648325E+02 -0.59771195755E+02  0.96280455584E+01  0.73017155305E+02  0.41800000000E+01 0.  1.
         -5    1    3    3    0  502 -0.11718395844E+02  0.48752743136E+02  0.42943595580E+02  0.66149645243E+02  0.41800000000E+01 0.  1.
        -11    1    4    4    0    0  0.45648330734E+00  0.27377173122E+02 -0.11665661806E+02  0.29762487304E+02  0.00000000000E+00 0.  1.
         11    1    4    4    0    0 -0.29342735788E+02 -0.16358720504E+02  0.83081519592E+02  0.89616643419E+02  0.00000000000E+00 0. -1.
</event>
<event>
 8    1  0.7103328E-009  0.1910677E+03  0.7561462E-02  0.1157502E+00
          2   -1    0    0  501    0  0.00000000000E+00  0.00000000000E+00  0.38825512418E+03  0.38825512418E+03  0.00000000000E+00 0. -1.
         -2   -1    0    0    0  501 -0.00000000000E+00 -0.00000000000E+00 -0.10211746034E+03  0.10211746034E+03  0.00000000000E+00 0.  1.
         25    2    1    2    0    0  0.14960080747E+03  0.71386744309E+02  0.17480710985E+03  0.27144978358E+03  0.12510391877E+03 0.  0.
         23    2    1    2    0    0 -0.14960080747E+03 -0.71386744309E+02  0.11133055399E+03  0.21892280094E+03  0.89756513207E+02 0.  0.
          5    1    3    3  502    0 -0.19090537563E+02  0.11999981278E+02  0.24919835396E+01  0.23067955200E+02  0.41800000000E+01 0.  1.
         -5    1    3    3    0  502  0.16869134503E+03  0.59386763031E+02  0.17231512631E+03  0.24838182838E+03  0.41800000000E+01 0.  1.
        -11    1    4    4    0    0 -0.11718496970E+03 -0.85397384928E+02  0.11259997789E+03  0.18358590768E+03  0.00000000000E+00 0. -1.
         11    1    4    4    0    0 -0.32415837768E+02  0.14010640619E+02 -0.12694239017E+01  0.35336893268E+02  0.00000000000E+00 0.  1.
</event>
<event>
 8    1  0.7103328E-009  0.8570687E+02  0.7561462E-02  0.1313594E+00
         -2   -1    0    0    0  501 -0.00000000000E+00  0.00000000000E+00  0.23116153819E+03  0.23116153819E+03  0.00000000000E+00 0.  1.
          2   -1    0    0  501    0  0.00000000000E+00 -0.00000000000E+00 -0.68455155737E+02  0.68455155737E+02  0.00000000000E+00 0. -1.
         25    2    1    2    0    0  0.20531726626E+02 -0.74729939851E+01  0.16207665080E+03  0.20589560936E+03  0.12508702484E+03 0.  0.
         23    2    1    2    0    0 -0.20531726626E+02  0.74729939851E+01  0.62973165717E+00  0.93721084567E+02  0.91136423526E+02 0.  0.
          5    1    3    3  502    0 -0.25118454469E+02 -0.50169040762E+02  0.11330332883E+03  0.12650290957E+03  0.41800000000E+01 0.  1.
         -5    1    3    3    0  502  0.45650181095E+02  0.42696046777E+02  0.48773321964E+02  0.79392699789E+02  0.41800000000E+01 0.  1.
        -11    1    4    4    0    0 -0.19863418337E+02  0.26694836901E+02  0.38718379037E+02  0.51051763735E+02  0.00000000000E+00 0.  1.
         11    1    4    4    0    0 -0.66830828855E+00 -0.19221842916E+02 -0.38088647379E+02  0.42669320832E+02  0.00000000000E+00 0. -1.
</event>
<event>
 8    1  0.7103328E-009  0.1066908E+03  0.7561462E-02  0.1266824E+00
          2   -1    0    0  501    0  0.00000000000E+00  0.00000000000E+00  0.32190388191E+03  0.32190388191E+03  0.00000000000E+00 0.  1.
         -2   -1    0    0    0  501 -0.00000000000E+00 -0.00000000000E+00 -0.44632265388E+02  0.44632265388E+02  0.00000000000E+00 0. -1.
         25    2    1    2    0    0 -0.19206420696E+02  0.49858500289E+02  0.16151152662E+03  0.21115958375E+03  0.12509052695E+03 0.  0.
         23    2    1    2    0    0  0.19206420696E+02 -0.49858500289E+02  0.11576008990E+03  0.15537656354E+03  0.88807215006E+02 0.  0.
          5    1    3    3  502    0 -0.28645585278E+02 -0.36506541474E+02  0.38152819198E+02  0.60219657414E+02  0.41800000000E+01 0. -1.
         -5    1    3    3    0  502  0.94391645824E+01  0.86365041763E+02  0.12335870742E+03  0.15093992634E+03  0.41800000000E+01 0. -1.
        -11    1    4    4    0    0 -0.11183693885E+01 -0.57930465362E+02  0.26929382970E+02  0.63893514806E+02  0.00000000000E+00 0. -1.
         11    1    4    4    0    0  0.20324790084E+02  0.80719650721E+01  0.88830706932E+02  0.91483048737E+02  0.00000000000E+00 0.  1.
</event>
<event>
 8    1  0.7103328E-009  0.1636888E+03  0.7561462E-02  0.1184594E+00
         -3   -1    0    0    0  501 -0.00000000000E+00  0.00000000000E+00  0.14494090116E+04  0.14494090116E+04  0.00000000000E+00 0.  1.
          3   -1    0    0  501    0  0.00000000000E+00 -0.00000000000E+00 -0.19939166449E+02  0.19939166449E+02  0.00000000000E+00 0. -1.
         25    2    1    2    0    0 -0.12603717289E+03  0.32588650442E+02  0.71272705003E+03  0.73523789280E+03  0.12509005589E+03 0.  0.
         23    2    1    2    0    0  0.12603717289E+03 -0.32588650442E+02  0.71674279515E+03  0.73411028528E+03  0.90831093025E+02 0.  0.
          5    1    3    3  502    0  0.11364375427E+02 -0.24726911802E+02  0.17960402732E+03  0.18170208647E+03  0.41800000000E+01 0.  1.
         -5    1    3    3    0  502 -0.13740154832E+03  0.57315562244E+02  0.53312302271E+03  0.55353580634E+03  0.41800000000E+01 0.  1.
        -11    1    4    4    0    0  0.42000539030E+02  0.25145127562E+02  0.13729682424E+03  0.14576261751E+03  0.00000000000E+00 0. -1.
         11    1    4    4    0    0  0.84036633860E+02 -0.57733778004E+02  0.57944597092E+03  0.58834766777E+03  0.00000000000E+00 0.  1.
</event>
<event>
 8    1  0.7103328E-009  0.2443457E+03  0.7561462E-02  0.1116931E+00
          2   -1    0    0  501    0  0.00000000000E+00  0.00000000000E+00  0.10885580652E+04  0.10885580652E+04  0.00000000000E+00 0. -1.
         -2   -1    0    0    0  501 -0.00000000000E+00 -0.00000000000E+00 -0.80518847794E+02  0.80518847794E+02  0.00000000000E+00 0.  1.
         25    2    1    2    0    0 -0.23366240516E+03 -0.16795112728E+02  0.22937608325E+03  0.35091137376E+03  0.12508081096E+03 0.  0.
         23    2    1    2    0    0  0.23366240516E+03  0.16795112728E+02  0.77866313416E+03  0.81816553924E+03  0.90544893280E+02 0.  0.
          5    1    3    3  502    0 -0.17183450281E+03 -0.43866668000E+02  0.22004598963E+03  0.28264658298E+03  0.41800000000E+01 0. -1.
         -5    1    3    3    0  502 -0.61827902348E+02  0.27071555271E+02  0.93300936232E+01  0.68264790783E+02  0.41800000000E+01 0. -1.
        -11    1    4    4    0    0  0.18321879473E+03 -0.15344492578E+02  0.48972330473E+03  0.52309989045E+03  0.00000000000E+00 0.  1.
         11    1    4    4    0    0  0.50443610431E+02  0.32139605306E+02  0.28893982943E+03  0.29506564879E+03  0.00000000000E+00 0. -1.
</event>
<event>
 8    1  0.7103328E-009  0.1190716E+03  0.7561462E-02  0.1244637E+00
         -1   -1    0    0    0  501 -0.00000000000E+00  0.00000000000E+00  0.13485727284E+03  0.13485727284E+03  0.00000000000E+00 0.  1.
          1   -1    0    0  501    0  0.00000000000E+00 -0.00000000000E+00 -0.10971427702E+03  0.10971427702E+03  0.00000000000E+00 0. -1.
         25    2    1    2    0    0 -0.34666854045E+02  0.39314194357E+02 -0.37219701040E+01  0.13568326504E+03  0.12509475890E+03 0.  0.
         23    2    1    2    0    0  0.34666854045E+02 -0.39314194357E+02  0.28864965919E+02  0.10888828482E+03  0.90972939192E+02 0.  0.
          5    1    3    3  502    0  0.33720373800E+02  0.53316020733E+02  0.11123394306E+02  0.64193955922E+02  0.41800000000E+01 0.  1.
         -5    1    3    3    0  502 -0.68387227845E+02 -0.14001826376E+02 -0.14845364410E+02  0.71489309121E+02  0.41800000000E+01 0.  1.
        -11    1    4    4    0    0 -0.19353653876E+02 -0.46619504309E+02  0.13442958471E+02  0.52236531593E+02  0.00000000000E+00 0.  1.
         11    1    4    4    0    0  0.54020507921E+02  0.73053099522E+01  0.15422007448E+02  0.56651753223E+02  0.00000000000E+00 0. -1.
</event>
<event>
 8    1  0.7103328E-009  0.1505680E+03  0.7561462E-02  0.1199777E+00
         -1   -1    0    0    0  501 -0.00000000000E+00  0.00000000000E+00  0.20777717689E+02  0.20777717689E+02  0.00000000000E+00 0.  1.
          1   -1    0    0  501    0  0.00000000000E+00 -0.00000000000E+00 -0.11934553269E+04  0.11934553269E+04  0.00000000000E+00 0. -1.
         25    2    1    2    0    0  0.11278521835E+03  0.21745315052E+01 -0.55773784458E+03  0.58261724836E+03  0.12508445446E+03 0.  0.
         23    2    1    2    0    0 -0.11278521835E+03 -0.21745315052E+01 -0.61493976467E+03  0.63161579627E+03  0.89790677988E+02 0.  0.
          5    1    3    3  502    0  0.87498526665E+02  0.51382717999E+02 -0.45131278635E+03  0.46259796736E+03  0.41800000000E+01 0. -1.
         -5    1    3    3    0  502  0.25286691685E+02 -0.49208186493E+02 -0.10642505823E+03  0.12001928101E+03  0.41800000000E+01 0. -1.
        -11    1    4    4    0    0 -0.91986848062E+02 -0.40487485769E+02 -0.41897488454E+03  0.43086050016E+03  0.00000000000E+00 0.  1.
         11    1    4    4    0    0 -0.20798370288E+02  0.38312954264E+02 -0.19596488013E+03  0.20075529611E+03  0.00000000000E+00 0. -1.
</event>
<event>
 8    1  0.7103328E-009  0.1344744E+03  0.7561462E-02  0.1220964E+00
          2   -1    0    0  501    0  0.00000000000E+00  0.00000000000E+00  0.89307135841E+03  0.89307135841E+03  0.00000000000E+00 0. -1.
         -2   -1    0    0    0  501 -0.00000000000E+00 -0.00000000000E+00 -0.30723921866E+02  0.30723921866E+02  0.00000000000E+00 0.  1.
         25    2    1    2    0    0  0.11784918141E+03  0.24582201234E+02  0.54780049466E+03  0.57465295030E+03  0.12509163506E+03 0.  0.
         23    2    1    2    0    0 -0.11784918141E+03 -0.24582201234E+02  0.31454694188E+03  0.34914232997E+03  0.92021050619E+02 0.  0.
          5    1    3    3  502    0 -0.12887635502E+02 -0.30419770057E+00  0.22583524088E+03  0.22624149069E+03  0.41800000000E+01 0.  1.
         -5    1    3    3    0  502  0.13073681691E+03  0.24886398934E+02  0.32196525378E+03  0.34841145961E+03  0.41800000000E+01 0.  1.
        -11    1    4    4    0    0 -0.65637850983E+02 -0.24425842504E+02  0.27463182761E+03  0.28342122362E+03  0.00000000000E+00 0. -1.
         11    1    4    4    0    0 -0.52211330424E+02 -0.15635872961E+00  0.39915114271E+02  0.65721106351E+02  0.00000000000E+00 0.  1.
</event>
<event>
 8    1  0.7103328E-009  0.9978594E+02  0.7561462E-02  0.1280747E+00
         -2   -1    0    0    0  501 -0.00000000000E+00  0.00000000000E+00  0.76735484826E+03  0.76735484826E+03  0.00000000000E+00 0.  1.
          2   -1    0    0  501    0  0.00000000000E+00 -0.00000000000E+00 -0.17853879764E+02  0.17853879764E+02  0.00000000000E+00 0. -1.
         25    2    1    2    0    0 -0.18011787502E+02 -0.35692939105E+02  0.37431086127E+03  0.39667900203E+03  0.12508876606E+03 0.  0.
         23    2    1    2    0    0  0.18011787502E+02  0.35692939105E+02  0.37519010723E+03  0.38852972600E+03  0.92678589921E+02 0.  0.
          5    1    3    3  502    0  0.22141726037E+00 -0.67712225500E+02  0.10622510415E+03  0.12604062702E+03  0.41800000000E+01 0. -1.
         -5    1    3    3    0  502 -0.18233204763E+02  0.32019286394E+02  0.26808575712E+03  0.27063837501E+03  0.41800000000E+01 0. -1.
        -11    1    4    4    0    0  0.52793857182E+02  0.19492637661E+02  0.28522448017E+03  0.29072350845E+03  0.00000000000E+00 0.  1.
         11    1    4    4    0    0 -0.34782069680E+02  0.16200301444E+02  0.89965627060E+02  0.97806217544E+02  0.00000000000E+00 0. -1.
</event>
<event>
 8    1  0.7103328E-009  0.7905446E+02  0.7561462E-02  0.1331756E+00
          1   -1    0    0  501    0  0.00000000000E+00  0.00000000000E+00  0.12762754966E+03  0.12762754966E+03  0.00000000000E+00 0. -1.
         -1   -1    0    0    0  501 -0.00000000000E+00 -0.00000000000E+00 -0.12998655576E+03  0.12998655576E+03  0.00000000000E+00 0.  1.
         25    2    1    2    0    0 -0.16081001036E+02 -0.62753198785E+02 -0.37126200470E+02  0.14567816335E+03  0.12508880831E+03 0.  0.
         23    2    1    2    0    0  0.16081001036E+02  0.62753198785E+02  0.34767194376E+02  0.11193594207E+03  0.84405774511E+02 0.  0.
          5    1    3    3  502    0 -0.42124251365E+02 -0.42171044128E+02  0.32798208408E+02  0.68161898380E+02  0.41800000000E+01 0. -1.
         -5    1    3    3    0  502  0.26043250330E+02 -0.20582154656E+02 -0.69924408878E+02  0.77516264970E+02  0.41800000000E+01 0. -1.
        -11    1    4    4    0    0  0.69502254408E+01  0.19721994271E+02 -0.28211069437E+02  0.35115909934E+02  0.00000000000E+00 0.  1.
         11    1    4    4    0    0  0.91307755948E+01  0.43031204513E+02  0.62978263813E+02  0.76820032139E+02  0.00000000000E+00 0. -1.
</event>
<event>
 8    1  0.7103328E-009  0.9784613E+02  0.7561462E-02  0.1284892E+00
          2   -1    0    0  501    0  0.00000000000E+00  0.00000000000E+00  0.56287901392E+02  0.56287901392E+02  0.00000000000E+00 0. -1.
         -2   -1    0    0    0  501 -0.00000000000E+00 -0.00000000000E+00 -0.25099182771E+03  0.25099182771E+03  0.00000000000E+00 0.  1.
         25    2    1    2    0    0 -0.42832642096E+02 -0.68723750567E+01 -0.79252130866E+02  0.15430488168E+03  0.12508889437E+03 0.  0.
         23    2    1    2    0    0  0.42832642096E+02  0.68723750567E+01 -0.11545179545E+03  0.15297484742E+03  0.90500398356E+02 0.  0.
          5    1    3    3  502    0 -0.19550940162E+02  0.58827562141E+02 -0.43583865947E+02  0.75894315331E+02  0.41800000000E+01 0. -1.
         -5    1    3    3    0  502 -0.23281701934E+02 -0.65699937198E+02 -0.35668264920E+02  0.78410566349E+02  0.41800000000E+01 0. -1.
        -11    1    4    4    0    0  0.78920199152E+01  0.23678864907E+02  0.58426761299E+01  0.25634146875E+02  0.00000000000E+00 0. -1.
         11    1    4    4    0    0  0.34940622181E+02 -0.16806489851E+02 -0.12129447158E+03  0.12734070054E+03  0.00000000000E+00 0.  1.
</event>
<event>
 8    1  0.7103328E-009  0.8206774E+02  0.7561462E-02  0.1323284E+00
         -1   -1    0    0    0  501 -0.00000000000E+00  0.00000000000E+00  0.37350775109E+02  0.37350775109E+02  0.00000000000E+00 0.  1.
          1   -1    0    0  501    0  0.00000000000E+00 -0.00000000000E+00 -0.34096113433E+03  0.34096113433E+03  0.00000000000E+00 0. -1.
         25    2    1    2    0    0  0.25649840663E+02 -0.20602925092E+02 -0.19111938713E+03  0.23077409271E+03  0.12509063467E+03 0.  0.
         23    2    1    2    0    0 -0.25649840663E+02  0.20602925092E+02 -0.11249097209E+03  0.14753781672E+03  0.89614695857E+02 0.  0.
          5    1    3    3  502    0 -0.37364431197E+02 -0.21238837347E+02 -0.14833010564E+03  0.15448780395E+03  0.41800000000E+01 0.  1.
         -5    1    3    3    0  502  0.63014271860E+02  0.63591225529E+00 -0.42789281488E+02  0.76286288760E+02  0.41800000000E+01 0.  1.
        -11    1    4    4    0    0 -0.25347146404E+02 -0.99596869875E+01  0.36184295638E+01  0.27473009085E+02  0.00000000000E+00 0.  1.
         11    1    4    4    0    0 -0.30269425947E+00  0.30562612079E+02 -0.11610940165E+03  0.12006480764E+03  0.00000000000E+00 0. -1.
</event>
<event>
 8    1  0.7103328E-009  0.2005355E+03  0.7561462E-02  0.1149288E+00
         -1   -1    0    0    0  501 -0.00000000000E+00  0.00000000000E+00  0.19643202407E+03  0.19643202407E+03  0.00000000000E+00 0.  1.
          1   -1    0    0  501    0  0.00000000000E+00 -0.00000000000E+00 -0.39181442999E+03  0.39181442999E+03  0.00000000000E+00 0. -1.
         25    2    1    2    0    0 -0.13703096506E+03  0.10516956745E+03  0.98904552093E+02  0.23509154326E+03  0.12509116669E+03 0.  0.
         23    2    1    2    0    0  0.13703096506E+03 -0.10516956745E+03 -0.29428695801E+03  0.35315491080E+03  0.90969522731E+02 0.  0.
          5    1    3    3  502    0 -0.15884170190E+03  0.95492126398E+02  0.10039266501E+03  0.21082123245E+03  0.41800000000E+01 0. -1.
         -5    1    3    3    0  502  0.21810736835E+02  0.96774410495E+01 -0.14881129144E+01  0.24270310805E+02  0.41800000000E+01 0. -1.
        -11    1    4    4    0    0  0.10844494391E+03 -0.11788346852E+03 -0.21650080536E+03  0.26931286031E+03  0.00000000000E+00 0.  1.
         11    1    4    4    0    0  0.28586021153E+02  0.12713901070E+02 -0.77786152657E+02  0.83842050493E+02  0.00000000000E+00 0. -1.
</event>
<event>
 8    1  0.7103328E-009  0.1190554E+03  0.7561462E-02  0.1244664E+00
         -2   -1    0    0    0  501 -0.00000000000E+00  0.00000000000E+00  0.89064948576E+02  0.89064948576E+02  0.00000000000E+00 0.  1.
          2   -1    0    0  501    0  0.00000000000E+00 -0.00000000000E+00 -0.17422740486E+03  0.17422740486E+03  0.00000000000E+00 0. -1.
         25    2    1    2    0    0 -0.53565995854E+02 -0.12716328316E+02 -0.76683012686E+02  0.15671240549E+03  0.12508985844E+03 0.  0.
         23    2    1    2    0    0  0.53565995854E+02  0.12716328316E+02 -0.84794435977E+01  0.10657994794E+03  0.90864533356E+02 0.  0.
          5    1    3    3  502    0 -0.12987039966E+02  0.53221987159E+02 -0.51184362242E+02  0.75090308712E+02  0.41800000000E+01 0.  1.
         -5    1    3    3    0  502 -0.40578955888E+02 -0.65938315475E+02 -0.25498650444E+02  0.81622096782E+02  0.41800000000E+01 0.  1.
        -11    1    4    4    0    0  0.60325584852E+02  0.43333580500E+02 -0.11164099786E+02  0.75110668421E+02  0.00000000000E+00 0. -1.
         11    1    4    4    0    0 -0.67595889979E+01 -0.30617252184E+02  0.26846561880E+01  0.31469279521E+02  0.00000000000E+00 0.  1.
</event>
<event>
 8    1  0.7103328E-009  0.8402617E+02  0.7561462E-02  0.1317999E+00
         -1   -1    0    0    0  501 -0.00000000000E+00  0.00000000000E+00  0.27898551611E+03  0.27898551611E+03  0.00000000000E+00 0.  1.
          1   -1    0    0  501    0  0.00000000000E+00 -0.00000000000E+00 -0.10857038285E+03  0.10857038285E+03  0.00000000000E+00 0. -1.
         25    2    1    2    0    0  0.14285875691E+02 -0.44006720987E+02  0.23339758351E+03  0.26882085335E+03  0.12509812737E+03 0.  0.
         23    2    1    2    0    0 -0.14285875691E+02  0.44006720987E+02 -0.62982450253E+02  0.11873504560E+03  0.89389844377E+02 0.  0.
          5    1    3    3  502    0  0.50501048747E+02 -0.48291669365E+02  0.21809344254E+03  0.22905166084E+03  0.41800000000E+01 0. -1.
         -5    1    3    3    0  502 -0.36215173055E+02  0.42849483775E+01  0.15304140971E+02  0.39769192510E+02  0.41800000000E+01 0. -1.
        -11    1    4    4    0    0 -0.14452928421E+02 -0.26461986289E+01  0.19234129456E+02  0.24204157557E+02  0.00000000000E+00 0.  1.
         11    1    4    4    0    0  0.16705272962E+00  0.46652919616E+02 -0.82216579709E+02  0.94530888044E+02  0.00000000000E+00 0. -1.
</event>
<event>
 8    1  0.7103328E-009  0.2038530E+03  0.7561462E-02  0.1146528E+00
         -2   -1    0    0    0  501 -0.00000000000E+00  0.00000000000E+00  0.70400218538E+02  0.70400218538E+02  0.00000000000E+00 0.  1.
          2   -1    0    0  501    0  0.00000000000E+00 -0.00000000000E+00 -0.83929369395E+03  0.83929369395E+03  0.00000000000E+00 0. -1.
         25    2    1    2    0    0 -0.17624853731E+03 -0.82152101415E+02 -0.57637969582E+03  0.62102532668E+03  0.12508552257E+03 0.  0.
         23    2    1    2    0    0  0.17624853731E+03  0.82152101415E+02 -0.19251377959E+03  0.28866858581E+03  0.91953697182E+02 0.  0.
          5    1    3    3  502    0 -0.28159366905E+02 -0.37033285475E+02 -0.36233230953E+02  0.59116271896E+02  0.41800000000E+01 0. -1.
         -5    1    3    3    0  502 -0.14808917041E+03 -0.45118815939E+02 -0.54014646487E+03  0.56190905479E+03  0.41800000000E+01 0. -1.
        -11    1    4    4    0    0  0.15863183189E+03  0.44808905073E+02 -0.18300462154E+03  0.24629776200E+03  0.00000000000E+00 0. -1.
         11    1    4    4    0    0  0.17616705423E+02  0.37343196342E+02 -0.95091580579E+01  0.42370823805E+02  0.00000000000E+00 0.  1.
</event>
<event>
 8    1  0.7103328E-009  0.1247894E+03  0.7561462E-02  0.1235399E+00
         -2   -1    0    0    0  501 -0.00000000000E+00  0.00000000000E+00  0.39102338471E+02  0.39102338471E+02  0.00000000000E+00 0. -1.
          2   -1    0    0  501    0  0.00000000000E+00 -0.00000000000E+00 -0.55633761150E+03  0.55633761150E+03  0.00000000000E+00 0.  1.
         25    2    1    2    0    0  0.76961232296E+02 -0.65353500662E+02 -0.28469061817E+03  0.32694075877E+03  0.12508956930E+03 0.  0.
         23    2    1    2    0    0 -0.76961232296E+02  0.65353500662E+02 -0.23254465486E+03  0.26849919120E+03  0.88434652970E+02 0.  0.
          5    1    3    3  502    0  0.30800119562E+02  0.46241192742E+01 -0.21657773694E+03  0.21884564968E+03  0.41800000000E+01 0.  1.
         -5    1    3    3    0  502  0.46161112734E+02 -0.69977619936E+02 -0.68112881224E+02  0.10809510909E+03  0.41800000000E+01 0.  1.
        -11    1    4    4    0    0 -0.23910486852E+02  0.76379068009E+02 -0.13825235052E+03  0.15974725612E+03  0.00000000000E+00 0.  1.
         11    1    4    4    0    0 -0.53050745444E+02 -0.11025567347E+02 -0.94292304342E+02  0.10875193509E+03  0.00000000000E+00 0. -1.
</event>
<event>
 8    1  0.7103328E-009  0.1172196E+03  0.7561462E-02  0.1247756E+00
          1   -1    0    0  501    0  0.00000000000E+00  0.00000000000E+00  0.20770126522E+04  0.20770126522E+04  0.00000000000E+00 0. -1.
         -1   -1    0    0    0  501 -0.00000000000E+00 -0.00000000000E+00 -0.81875829240E+01  0.81875829240E+01  0.00000000000E+00 0.  1.
         25    2    1    2    0    0 -0.21973732446E+02  0.47173593095E+02  0.15483510784E+04  0.15542674387E+04  0.12509203034E+03 0.  0.
         23    2    1    2    0    0  0.21973732446E+02 -0.47173593095E+02  0.52047399092E+03  0.53093279652E+03  0.91039916487E+02 0.  0.
          5    1    3    3  502    0  0.41927098902E+02  0.55234488959E+02  0.68788128241E+03  0.69138040287E+03  0.41800000000E+01 0. -1.
         -5    1    3    3    0  502 -0.63900831348E+02 -0.80608958636E+01  0.86046979600E+03  0.86288703578E+03  0.41800000000E+01 0. -1.
        -11    1    4    4    0    0 -0.15143794164E+02  0.19154727267E+02  0.71099636860E+02  0.75175770298E+02  0.00000000000E+00 0.  1.
         11    1    4    4    0    0  0.37117526610E+02 -0.66328320362E+02  0.44937435406E+03  0.45575702622E+03  0.00000000000E+00 0. -1.
</event>
<event>
 8    1  0.7103328E-009  0.8659817E+02  0.7561462E-02  0.1311305E+00
          1   -1    0    0  501    0  0.00000000000E+00  0.00000000000E+00  0.57922344938E+02  0.57922344938E+02  0.00000000000E+00 0. -1.
         -1   -1    0    0    0  501 -0.00000000000E+00 -0.00000000000E+00 -0.21566957146E+03  0.21566957146E+03  0.00000000000E+00 0.  1.
         25    2    1    2    0    0 -0.17541429921E+02  0.16904119485E+02 -0.78164433312E+02  0.14950433841E+03  0.12509363512E+03 0.  0.
         23    2    1    2    0    0  0.17541429921E+02 -0.16904119485E+02 -0.79582793208E+02  0.12408757799E+03  0.92037247990E+02 0.  0.
          5    1    3    3  502    0  0.19709591350E+02  0.60960030769E+02 -0.19456262690E+02  0.67086600007E+02  0.41800000000E+01 0.  1.
         -5    1    3    3    0  502 -0.37251021271E+02 -0.44055911285E+02 -0.58708170623E+02  0.82417738399E+02  0.41800000000E+01 0.  1.
        -11    1    4    4    0    0  0.11290037863E+02 -0.32468400094E+02 -0.95171448600E+02  0.10118926123E+03  0.00000000000E+00 0.  1.
         11    1    4    4    0    0  0.62513920583E+01  0.15564280609E+02  0.15588655392E+02  0.22898316761E+02  0.00000000000E+00 0. -1.
</event>
<event>
 8    1  0.7103328E-009  0.8551673E+02  0.7561462E-02  0.1314087E+00
         -2   -1    0    0    0  501 -0.00000000000E+00  0.00000000000E+00  0.17047595334E+02  0.17047595334E+02  0.00000000000E+00 0.  1.
          2   -1    0    0  501    0  0.00000000000E+00 -0.00000000000E+00 -0.74140529099E+03  0.74140529099E+03  0.00000000000E+00 0. -1.
         25    2    1    2    0    0  0.11844769830E+02  0.11246587392E+02 -0.34578230170E+03  0.36807453794E+03  0.12508669398E+03 0.  0.
         23    2    1    2    0    0 -0.11844769830E+02 -0.11246587392E+02 -0.37857539395E+03  0.39037834838E+03  0.93857027854E+02 0.  0.
          5    1    3    3  502    0  0.43531615107E+02 -0.51109705966E+01 -0.32202747017E+03  0.32502351835E+03  0.41800000000E+01 0.  1.
         -5    1    3    3    0  502 -0.31686845276E+02  0.16357557989E+02 -0.23754831526E+02  0.43051019590E+02  0.41800000000E+01 0.  1.
        -11    1    4    4    0    0 -0.21182505776E+02  0.36634059000E+02 -0.23397284751E+03  0.23776889242E+03  0.00000000000E+00 0. -1.
         11    1    4    4    0    0  0.93377359454E+01 -0.47880646392E+02 -0.14460254644E+03  0.15260945596E+03  0.00000000000E+00 0.  1.
</event>
<event>
 8    1  0.7103328E-009  0.8035056E+02  0.7561462E-02  0.1328060E+00
         -2   -1    0    0    0  501 -0.00000000000E+00  0.00000000000E+00  0.87321526148E+02  0.87321526148E+02  0.00000000000E+00 0.  1.
          2   -1    0    0  501    0  0.00000000000E+00 -0.00000000000E+00 -0.14095851667E+03  0.14095851667E+03  0.00000000000E+00 0. -1.
         25    2    1    2    0    0 -0.99435066855E+01 -0.12721981458E+02 -0.49056615635E+02  0.13532856923E+03  0.12508616220E+03 0.  0.
         23    2    1    2    0    0  0.99435066855E+01  0.12721981458E+02 -0.45803748912E+01  0.92951473592E+02  0.91423599095E+02 0.  0.
          5    1    3    3  502    0  0.35136679614E+02 -0.28756498539E+02 -0.69506290577E+02  0.83127127295E+02  0.41800000000E+01 0.  1.
         -5    1    3    3    0  502 -0.45080186300E+02  0.16034517082E+02  0.20449674942E+02  0.52201441935E+02  0.41800000000E+01 0.  1.
        -11    1    4    4    0    0 -0.27925886482E+02  0.68531213223E+01  0.29841185396E+02  0.41440520672E+02  0.00000000000E+00 0.  1.
         11    1    4    4    0    0  0.37869393168E+02  0.58688601353E+01 -0.34421560287E+02  0.51510952921E+02  0.00000000000E+00 0. -1.
</event>
<event>
 8    1  0.7103328E-009  0.1450204E+03  0.7561462E-02  0.1206729E+00
          1   -1    0    0  501    0  0.00000000000E+00  0.00000000000E+00  0.79472463004E+02  0.79472463004E+02  0.00000000000E+00 0. -1.
         -1   -1    0    0    0  501 -0.00000000000E+00 -0.00000000000E+00 -0.54035527036E+03  0.54035527036E+03  0.00000000000E+00 0.  1.
         25    2    1    2    0    0 -0.92230469455E+02  0.89340609098E+02 -0.58323813562E+02  0.18851308056E+03  0.12508920971E+03 0.  0.
         23    2    1    2    0    0  0.92230469455E+02 -0.89340609098E+02 -0.40255899380E+03  0.43131465280E+03  0.86546994789E+02 0.  0.
          5    1    3    3  502    0 -0.23028336534E+02 -0.11944561111E+02 -0.60279412384E+02  0.65757560638E+02  0.41800000000E+01 0.  1.
         -5    1    3    3    0  502 -0.69202132921E+02  0.10128517021E+03  0.19555988226E+01  0.12275551992E+03  0.41800000000E+01 0.  1.
        -11    1    4    4    0    0  0.55583169954E+02 -0.14115571679E+02 -0.82334418412E+02  0.10033790212E+03  0.00000000000E+00 0. -1.
         11    1    4    4    0    0  0.36647299501E+02 -0.75225037418E+02 -0.32022457538E+03  0.33097675069E+03  0.00000000000E+00 0.  1.
</event>
<event>
 8    1  0.7103328E-009  0.1346551E+03  0.7561462E-02  0.1220707E+00
         -2   -1    0    0    0  501 -0.00000000000E+00  0.00000000000E+00  0.76745534515E+02  0.76745534515E+02  0.00000000000E+00 0.  1.
          2   -1    0    0  501    0  0.00000000000E+00 -0.00000000000E+00 -0.39974587265E+03  0.39974587265E+03  0.00000000000E+00 0. -1.
         25    2    1    2    0    0 -0.85097032072E+02  0.81546558806E+02 -0.76252704908E+02  0.18802355228E+03  0.12508810929E+03 0.  0.
         23    2    1    2    0    0  0.85097032072E+02 -0.81546558806E+02 -0.24674763322E+03  0.28846785488E+03  0.91858383816E+02 0.  0.
          5    1    3    3  502    0 -0.53002349572E+02  0.77777808853E+02  0.11030359117E+02  0.94856617230E+02  0.41800000000E+01 0. -1.
         -5    1    3    3    0  502 -0.32094682500E+02  0.37687499532E+01 -0.87283064025E+02  0.93166935050E+02  0.41800000000E+01 0. -1.
        -11    1    4    4    0    0  0.43297161459E+02  0.76868060735E+01 -0.40028777795E+02  0.59464562806E+02  0.00000000000E+00 0.  1.
         11    1    4    4    0    0  0.41799870613E+02 -0.89233364880E+02 -0.20671885543E+03  0.22900329207E+03  0.00000000000E+00 0. -1.
</event>
<event>
 8    1  0.7103328E-009  0.1345279E+03  0.7561462E-02  0.1220888E+00
         -2   -1    0    0    0  501 -0.00000000000E+00  0.00000000000E+00  0.26455422082E+03  0.26455422082E+03  0.00000000000E+00 0.  1.
          2   -1    0    0  501    0  0.00000000000E+00 -0.00000000000E+00 -0.12899077975E+03  0.12899077975E+03  0.00000000000E+00 0. -1.
         25    2    1    2    0    0 -0.71359462513E+02 -0.78198000216E+02  0.18870938359E+03  0.24993058766E+03  0.12508783741E+03 0.  0.
         23    2    1    2    0    0  0.71359462513E+02  0.78198000216E+02 -0.53145942523E+02  0.14361441290E+03  0.81200420311E+02 0.  0.
          5    1    3    3  502    0 -0.90053068729E+02 -0.55010697377E+02  0.19254986855E+03  0.21961023722E+03  0.41800000000E+01 0. -1.
         -5    1    3    3    0  502  0.18693606216E+02 -0.23187302839E+02 -0.38404849591E+01  0.30320350444E+02  0.41800000000E+01 0. -1.
        -11    1    4    4    0    0  0.75982856504E+02  0.91705776670E+02 -0.46250522939E+02  0.12775936298E+03  0.00000000000E+00 0.  1.
         11    1    4    4    0    0 -0.46233939917E+01 -0.13507776455E+02 -0.68954195847E+01  0.15855049921E+02  0.00000000000E+00 0. -1.
</event>
<event>
 8    1  0.7103328E-009  0.9409985E+02  0.7561462E-02  0.1293216E+00
          2   -1    0    0  501    0  0.00000000000E+00  0.00000000000E+00  0.39088825116E+03  0.39088825116E+03  0.00000000000E+00 0. -1.
         -2   -1    0    0    0  501 -0.00000000000E+00 -0.00000000000E+00 -0.34342330889E+02  0.34342330889E+02  0.00000000000E+00 0.  1.
         25    2    1    2    0    0 -0.21296313998E+02  0.69609516324E+01  0.26798902544E+03  0.29659422817E+03  0.12509208844E+03 0.  0.
         23    2    1    2    0    0  0.21296313998E+02 -0.69609516324E+01  0.88556894831E+02  0.12863635388E+03  0.90570415034E+02 0.  0.
          5    1    3    3  502    0  0.14994081723E+02  0.43735404260E+02  0.22354596518E+03  0.22831530614E+03  0.41800000000E+01 0. -1.
         -5    1    3    3    0  502 -0.36290395721E+02 -0.36774452628E+02  0.44443060261E+02  0.68278922026E+02  0.41800000000E+01 0. -1.
        -11    1    4    4    0    0  0.38964658783E+02 -0.37872495920E+02  0.69601418784E+02  0.88300215617E+02  0.00000000000E+00 0. -1.
         11    1    4    4    0    0 -0.17668344785E+02  0.30911544287E+02  0.18955476047E+02  0.40336138262E+02  0.00000000000E+00 0.  1.
</event>
<event>
 8    1  0.7103328E-009  0.1123220E+03  0.7561462E-02  0.1256329E+00
         -2   -1    0    0    0  501 -0.00000000000E+00  0.00000000000E+00  0.50486983928E+02  0.50486983928E+02  0.00000000000E+00 0.  1.
          2   -1    0    0  501    0  0.00000000000E+00 -0.00000000000E+00 -0.27929829754E+03  0.27929829754E+03  0.00000000000E+00 0. -1.
         25    2    1    2    0    0  0.56751884596E+02 -0.54514765999E+01 -0.13078148433E+03  0.18974331377E+03  0.12509289938E+03 0.  0.
         23    2    1    2    0    0 -0.56751884596E+02  0.54514765999E+01 -0.98029829282E+02  0.14004196769E+03  0.82166965895E+02 0.  0.
          5    1    3    3  502    0  0.74173432368E+02 -0.42393199447E+02 -0.11987411944E+03  0.14726220947E+03  0.41800000000E+01 0. -1.
         -5    1    3    3    0  502 -0.17421547772E+02  0.36941722847E+02 -0.10907364895E+02  0.42481104301E+02  0.41800000000E+01 0. -1.
        -11    1    4    4    0    0 -0.15031831008E+02 -0.36139762650E+02 -0.53032300534E+02  0.65912542720E+02  0.00000000000E+00 0. -1.
         11    1    4    4    0    0 -0.41720053588E+02  0.41591239250E+02 -0.44997528748E+02  0.74129424975E+02  0.00000000000E+00 0.  1.
</event>
<event>
 8    1  0.7103328E-009  0.9352044E+02  0.7561462E-02  0.1294544E+00
          3   -1    0    0  501    0  0.00000000000E+00  0.00000000000E+00  0.24993946933E+02  0.24993946933E+02  0.00000000000E+00 0. -1.
         -3   -1    0    0    0  501 -0.00000000000E+00 -0.00000000000E+00 -0.77461893905E+03  0.77461893905E+03  0.00000000000E+00 0.  1.
         25    2    1    2    0    0  0.64519391153E+02 -0.56419063103E+02 -0.46059101069E+03  0.48491090349E+03  0.12509453497E+03 0.  0.
         23    2    1    2    0    0 -0.64519391153E+02  0.56419063103E+02 -0.28903398143E+03  0.31470198250E+03  0.90281963031E+02 0.  0.
          5    1    3    3  502    0  0.34595104957E+02 -0.17735577394E+02 -0.41828950968E+03  0.42011303039E+03  0.41800000000E+01 0.  1.
         -5    1    3    3    0  502  0.29924286197E+02 -0.38683485709E+02 -0.42301501006E+02  0.64797873100E+02  0.41800000000E+01 0.  1.
        -11    1    4    4    0    0 -0.50029271454E+01  0.35376467370E+02 -0.25969790428E+02  0.44169601973E+02  0.00000000000E+00 0. -1.
         11    1    4    4    0    0 -0.59516464008E+02  0.21042595734E+02 -0.26306419101E+03  0.27053238053E+03  0.00000000000E+00 0.  1.
</event>
<event>
 8    1  0.7103328E-009  0.9792254E+02  0.7561462E-02  0.1284726E+00
         -2   -1    0    0    0  501 -0.00000000000E+00  0.00000000000E+00  0.10801124465E+03  0.10801124465E+03  0.00000000000E+00 0.  1.
          2   -1    0    0  501    0  0.00000000000E+00 -0.00000000000E+00 -0.15748160271E+03  0.15748160271E+03  0.00000000000E+00 0. -1.
         25    2    1    2    0    0  0.57640483142E+02 -0.11598031521E+01  0.20286149637E+02  0.13921751135E+03  0.12508483985E+03 0.  0.
         23    2    1    2    0    0 -0.57640483142E+02  0.11598031521E+01 -0.69756507704E+02  0.12627533601E+03  0.88066563898E+02 0.  0.
          5    1    3    3  502    0  0.73771500267E+02  0.36123531920E+00 -0.34778707220E+02  0.81666367731E+02  0.41800000000E+01 0.  1.
         -5    1    3    3    0  502 -0.16131017124E+02 -0.15210384713E+01  0.55064856857E+02  0.57551143622E+02  0.41800000000E+01 0.  1.
        -11    1    4    4    0    0 -0.56118255670E+02 -0.36879380912E+02 -0.46138501962E+02  0.81474589408E+02  0.00000000000E+00 0. -1.
         11    1    4    4    0    0 -0.15222274727E+01  0.38039184064E+02 -0.23618005742E+02  0.44800746601E+02  0.00000000000E+00 0.  1.
</event>
<event>
 8    1  0.7103328E-009  0.7081605E+02  0.7561462E-02  0.1357340E+00
          2   -1    0    0  501    0  0.00000000000E+00  0.00000000000E+00  0.18701367421E+02  0.18701367421E+02  0.00000000000E+00 0.  1.
         -2   -1    0    0    0  501 -0.00000000000E+00 -0.00000000000E+00 -0.69762939783E+03  0.69762939783E+03  0.00000000000E+00 0. -1.
         25    2    1    2    0    0  0.34293091546E+02 -0.10919931377E+02 -0.36499411205E+03  0.38751412007E+03  0.12510487759E+03 0.  0.
         23    2    1    2    0    0 -0.34293091546E+02  0.10919931377E+02 -0.31393391836E+03  0.32881664517E+03  0.90942949255E+02 0.  0.
          5    1    3    3  502    0  0.35578251971E+02  0.34109872896E+01 -0.36997784088E+03  0.37172371728E+03  0.41800000000E+01 0. -1.
         -5    1    3    3    0  502 -0.12851604250E+01 -0.14330918666E+02  0.49837288342E+01  0.15790402789E+02  0.41800000000E+01 0. -1.
        -11    1    4    4    0    0 -0.38738771196E+01  0.44894414319E+02 -0.21783105700E+03  0.22244299215E+03  0.00000000000E+00 0. -1.
         11    1    4    4    0    0 -0.30419214426E+02 -0.33974482942E+02 -0.96102861358E+02  0.10637365303E+03  0.00000000000E+00 0.  1.
</event>
<event>
 8    1  0.7103328E-009  0.1055522E+03  0.7561462E-02  0.1269035E+00
          2   -1    0    0  501    0  0.00000000000E+00  0.00000000000E+00  0.69253686642E+03  0.69253686642E+03  0.00000000000E+00 0. -1.
         -2   -1    0    0    0  501 -0.00000000000E+00 -0.00000000000E+00 -0.17631637285E+02  0.17631637285E+02  0.00000000000E+00 0.  1.
         25    2    1    2    0    0 -0.54140003123E+01 -0.82003344209E+01  0.40261087317E+03  0.42170687638E+03  0.12507844542E+03 0.  0.
         23    2    1    2    0    0  0.54140003123E+01  0.82003344209E+01  0.27229435596E+03  0.28846162732E+03  0.94706585117E+02 0.  0.
          5    1    3    3  502    0 -0.91954526449E+01 -0.62719882409E+02  0.28437698157E+03  0.29138647883E+03  0.41800000000E+01 0. -1.
         -5    1    3    3    0  502  0.37814523326E+01  0.54519547988E+02  0.11823389161E+03  0.13032039756E+03  0.41800000000E+01 0. -1.
        -11    1    4    4    0    0 -0.28771339000E+02  0.37829634584E+02  0.10684522692E+03  0.11693918811E+03  0.00000000000E+00 0.  1.
         11    1    4    4    0    0  0.34185339312E+02 -0.29629300163E+02  0.16544912904E+03  0.17152243921E+03  0.00000000000E+00 0. -1.
</event>
<event>
 8    1  0.7103328E-009  0.1455536E+03  0.7561462E-02  0.1206046E+00
          2   -1    0    0  501    0  0.00000000000E+00  0.00000000000E+00  0.87530783398E+03  0.87530783398E+03  0.00000000000E+00 0. -1.
         -2   -1    0    0    0  501 -0.00000000000E+00 -0.00000000000E+00 -0.28409206240E+02  0.28409206240E+02  0.00000000000E+00 0.  1.
         25    2    1    2    0    0 -0.77661972101E+02  0.82674901942E+02  0.48094283533E+03  0.50972608142E+03  0.12509254937E+03 0.  0.
         23    2    1    2    0    0  0.77661972101E+02 -0.82674901942E+02  0.36595579242E+03  0.39399095880E+03  0.91862463994E+02 0.  0.
          5    1    3    3  502    0 -0.45783198877E+02 -0.27041709357E+02  0.18245633992E+03  0.19009246098E+03  0.41800000000E+01 0. -1.
         -5    1    3    3    0  502 -0.31878773225E+02  0.10971661130E+03  0.29848649541E+03  0.31963362044E+03  0.41800000000E+01 0. -1.
        -11    1    4    4    0    0  0.30777414808E+02 -0.29079849464E+01  0.22354671959E+02  0.38150190001E+02  0.00000000000E+00 0.  1.
         11    1    4    4    0    0  0.46884557293E+02 -0.79766916996E+02  0.34360112046E+03  0.35584076880E+03  0.00000000000E+00 0. -1.
</event>
<event>
 8    1  0.7103328E-009  0.1140914E+03  0.7561462E-02  0.1253175E+00
          1   -1    0    0  501    0  0.00000000000E+00  0.00000000000E+00  0.13404856707E+03  0.13404856707E+03  0.00000000000E+00 0. -1.
         -1   -1    0    0    0  501 -0.00000000000E+00 -0.00000000000E+00 -0.16042264196E+03  0.16042264196E+03  0.00000000000E+00 0.  1.
         25    2    1    2    0    0  0.75799557965E+02 -0.78758476927E+01 -0.74941049935E+02  0.16453253199E+03  0.12508873312E+03 0.  0.
         23    2    1    2    0    0 -0.75799557965E+02  0.78758476927E+01  0.48566975039E+02  0.12993867704E+03  0.93368660488E+02 0.  0.
          5    1    3    3  502    0 -0.12912015346E+02  0.35935741294E+02 -0.48812957276E+02  0.62115013005E+02  0.41800000000E+01 0.  1.
         -5    1    3    3    0  502  0.88711573311E+02 -0.43811588987E+02 -0.26128092659E+02  0.10241751898E+03  0.41800000000E+01 0.  1.
        -11    1    4    4    0    0 -0.30836409597E+02  0.27840448658E+02  0.65794580185E+02  0.77813247716E+02  0.00000000000E+00 0. -1.
         11    1    4    4    0    0 -0.44963148368E+02 -0.19964600966E+02 -0.17227605147E+02  0.52125429322E+02  0.00000000000E+00 0.  1.
</event>
<event>
 8    1  0.7103328E-009  0.1212507E+03  0.7561462E-02  0.1241048E+00
         -4   -1    0    0    0  501 -0.00000000000E+00  0.00000000000E+00  0.30850529460E+03  0.30850529460E+03  0.00000000000E+00 0.  1.
          4   -1    0    0  501    0  0.00000000000E+00 -0.00000000000E+00 -0.58029030812E+02  0.58029030812E+02  0.00000000000E+00 0. -1.
         25    2    1    2    0    0 -0.54049525290E+02 -0.40946056002E+02  0.19125389313E+03  0.23837634564E+03  0.12508916755E+03 0.  0.
         23    2    1    2    0    0  0.54049525290E+02  0.40946056002E+02  0.59222370660E+02  0.12815797977E+03  0.91209911230E+02 0.  0.
          5    1    3    3  502    0 -0.90471422425E+02 -0.25088358762E+02  0.92563217545E+02  0.13190877781E+03  0.41800000000E+01 0. -1.
         -5    1    3    3    0  502  0.36421897135E+02 -0.15857697240E+02  0.98690675583E+02  0.10646756783E+03  0.41800000000E+01 0. -1.
        -11    1    4    4    0    0  0.42086189539E+02  0.67448398601E+02  0.25193852915E+02  0.83398225691E+02  0.00000000000E+00 0. -1.
         11    1    4    4    0    0  0.11963335751E+02 -0.26502342599E+02  0.34028517746E+02  0.44759754082E+02  0.00000000000E+00 0.  1.
</event>
<event>
 8    1  0.7103328E-009  0.1203484E+03  0.7561462E-02  0.1242523E+00
         -1   -1    0    0    0  501 -0.00000000000E+00  0.00000000000E+00  0.31073282471E+02  0.31073282471E+02  0.00000000000E+00 0.  1.
          1   -1    0    0  501    0  0.00000000000E+00 -0.00000000000E+00 -0.53516085722E+03  0.53516085722E+03  0.00000000000E+00 0. -1.
         25    2    1    2    0    0  0.29301141940E+02 -0.63077428862E+02 -0.26004827731E+03  0.29683471971E+03  0.12509366629E+03 0.  0.
         23    2    1    2    0    0 -0.29301141940E+02  0.63077428862E+02 -0.24403929744E+03  0.26939941998E+03  0.90462974955E+02 0.  0.
          5    1    3    3  502    0  0.16211167861E+02 -0.99065205209E+02 -0.15273956336E+03  0.18282112422E+03  0.41800000000E+01 0.  1.
         -5    1    3    3    0  502  0.13089974079E+02  0.35987776346E+02 -0.10730871395E+03  0.11401359549E+03  0.41800000000E+01 0.  1.
        -11    1    4    4    0    0 -0.32521349489E+02 -0.55590487153E+01 -0.14598262263E+03  0.14966451585E+03  0.00000000000E+00 0. -1.
         11    1    4    4    0    0  0.32202075485E+01  0.68636477577E+02 -0.98056674811E+02  0.11973490413E+03  0.00000000000E+00 0.  1.
</event>
<event>
 8    1  0.7103328E-009  0.7261628E+02  0.7561462E-02  0.1351416E+00
         -1   -1    0    0    0  501 -0.00000000000E+00  0.00000000000E+00  0.61011923274E+02  0.61011923274E+02  0.00000000000E+00 0.  1.
          1   -1    0    0  501    0  0.00000000000E+00 -0.00000000000E+00 -0.27637423853E+03  0.27637423853E+03  0.00000000000E+00 0. -1.
         25    2    1    2    0    0  0.35747369293E+02 -0.56537298867E+02 -0.16173146726E+03  0.21512520274E+03  0.12508974689E+03 0.  0.
         23    2    1    2    0    0 -0.35747369293E+02  0.56537298867E+02 -0.53630847991E+02  0.12226095906E+03  0.87161537845E+02 0.  0.
          5    1    3    3  502    0  0.39501283527E+02 -0.36955414168E+02 -0.17985408456E+03  0.18785903803E+03  0.41800000000E+01 0. -1.
         -5    1    3    3    0  502 -0.37539142341E+01 -0.19581884700E+02  0.18122617295E+02  0.27266164712E+02  0.41800000000E+01 0. -1.
        -11    1    4    4    0    0 -0.28809601834E+02  0.24475908847E+02  0.19188447009E+02  0.42394100654E+02  0.00000000000E+00 0.  1.
         11    1    4    4    0    0 -0.69377674594E+01  0.32061390021E+02 -0.72819295000E+02  0.79866858406E+02  0.00000000000E+00 0. -1.
</event>
<event>
 8    1  0.7103328E-009  0.6164734E+02  0.7561462E-02  0.1391046E+00
         -2   -1    0    0    0  501 -0.00000000000E+00  0.00000000000E+00  0.91524157545E+02  0.91524157545E+02  0.00000000000E+00 0.  1.
          2   -1    0    0  501    0  0.00000000000E+00 -0.00000000000E+00 -0.18936994461E+03  0.18936994461E+03  0.00000000000E+00 0. -1.
         25    2    1    2    0    0  0.17823015940E+02 -0.24857968360E+02 -0.12632058903E+03  0.18038917667E+03  0.12509110823E+03 0.  0.
         23    2    1    2    0    0 -0.17823015940E+02  0.24857968360E+02  0.28474801963E+02  0.10050492549E+03  0.91404853329E+02 0.  0.
          5    1    3    3  502    0  0.44752969972E+01 -0.19094684509E+02  0.22879954830E+02  0.30423674872E+02  0.41800000000E+01 0. -1.
         -5    1    3    3    0  502  0.13347718943E+02 -0.57632838515E+01 -0.14920054386E+03  0.14996550180E+03  0.41800000000E+01 0. -1.
        -11    1    4    4    0    0 -0.46569670433E+02 -0.47933811136E+01 -0.53527126019E+01  0.47120719847E+02  0.00000000000E+00 0.  1.
         11    1    4    4    0    0  0.28746654493E+02  0.29651349474E+02  0.33827514565E+02  0.53384205640E+02  0.00000000000E+00 0. -1.
</event>
<event>
 8    1  0.7103328E-009  0.1314304E+03  0.7561462E-02  0.1225349E+00
          2   -1    0    0  501    0  0.00000000000E+00  0.00000000000E+00  0.49531319805E+03  0.49531319805E+03  0.00000000000E+00 0. -1.
         -2   -1    0    0    0  501 -0.00000000000E+00 -0.00000000000E+00 -0.43536013112E+02  0.43536013112E+02  0.00000000000E+00 0.  1.
         25    2    1    2    0    0  0.55306733307E+02  0.80063549060E+02  0.20708161080E+03  0.26076810821E+03  0.12509278992E+03 0.  0.
         23    2    1    2    0    0 -0.55306733307E+02 -0.80063549060E+02  0.24469557414E+03  0.27808110296E+03  0.89354178308E+02 0.  0.
          5    1    3    3  502    0  0.43220478023E+01 -0.32844502201E+02  0.57594059603E+02  0.66573189224E+02  0.41800000000E+01 0. -1.
         -5    1    3    3    0  502  0.50984685504E+02  0.11290805126E+03  0.14948755120E+03  0.19419491899E+03  0.41800000000E+01 0. -1.
        -11    1    4    4    0    0 -0.11674016873E+00 -0.32948662805E+02  0.17286236920E+03  0.17597450581E+03  0.00000000000E+00 0. -1.
         11    1    4    4    0    0 -0.55189993138E+02 -0.47114886255E+02  0.71833204938E+02  0.10210659715E+03  0.00000000000E+00 0.  1.
</event>
<event>
 8    1  0.7103328E-009  0.2289418E+03  0.7561462E-02  0.1127387E+00
         -2   -1    0    0    0  501 -0.00000000000E+00  0.00000000000E+00  0.48570122172E+02  0.48570122172E+02  0.00000000000E+00 0.  1.
          2   -1    0    0  501    0  0.00000000000E+00 -0.00000000000E+00 -0.12741908373E+04  0.12741908373E+04  0.00000000000E+00 0. -1.
         25    2    1    2    0    0 -0.20701831864E+03  0.78500920337E+02 -0.56193384957E+03  0.61679576544E+03  0.12509350997E+03 0.  0.
         23    2    1    2    0    0  0.20701831864E+03 -0.78500920337E+02 -0.66368686553E+03  0.70596519399E+03  0.94274179451E+02 0.  0.
          5    1    3    3  502    0 -0.79626566110E+02  0.74080724647E+02 -0.14834462817E+03  0.18398898038E+03  0.41800000000E+01 0.  1.
         -5    1    3    3    0  502 -0.12739175253E+03  0.44201956907E+01 -0.41358922139E+03  0.43280678506E+03  0.41800000000E+01 0.  1.
        -11    1    4    4    0    0  0.97900961880E+02 -0.33471283186E+02 -0.17566833180E+03  0.20387321534E+03  0.00000000000E+00 0.  1.
         11    1    4    4    0    0  0.10911735676E+03 -0.45029637151E+02 -0.48801853373E+03  0.50209197866E+03  0.00000000000E+00 0. -1.
</event>
<event>
 8    1  0.7103328E-009  0.8997741E+02  0.7561462E-02  0.1302906E+00
          2   -1    0    0  501    0  0.00000000000E+00  0.00000000000E+00  0.61639886970E+03  0.61639886970E+03  0.00000000000E+00 0.  1.
         -2   -1    0    0    0  501 -0.00000000000E+00 -0.00000000000E+00 -0.32850783991E+02  0.32850783991E+02  0.00000000000E+00 0. -1.
         25    2    1    2    0    0 -0.26553021321E+02 -0.31850521253E+02  0.50534175674E+03  0.52224081070E+03  0.12508259114E+03 0.  0.
         23    2    1    2    0    0  0.26553021321E+02  0.31850521253E+02  0.78206328965E+02  0.12700884299E+03  0.91079622652E+02 0.  0.
          5    1    3    3  502    0 -0.39088345126E+02  0.24501126443E+02  0.75917192165E+02  0.88933100632E+02  0.41800000000E+01 0. -1.
         -5    1    3    3    0  502  0.12535323805E+02 -0.56351647697E+02  0.42942456457E+03  0.43330771006E+03  0.41800000000E+01 0. -1.
        -11    1    4    4    0    0  0.44278223249E+02  0.63998087933E+01  0.84267583977E+02  0.95407255050E+02  0.00000000000E+00 0.  1.
         11    1    4    4    0    0 -0.17725201928E+02  0.25450712460E+02 -0.60612550126E+01  0.31601587942E+02  0.00000000000E+00 0. -1.
</event>
<event>
 8    1  0.7103328E-009  0.1060716E+03  0.7561462E-02  0.1268023E+00
          2   -1    0    0  501    0  0.00000000000E+00  0.00000000000E+00  0.73482694049E+03  0.73482694049E+03  0.00000000000E+00 0. -1.
         -2   -1    0    0    0  501 -0.00000000000E+00 -0.00000000000E+00 -0.46442856634E+02  0.46442856634E+02  0.00000000000E+00 0.  1.
         25    2    1    2    0    0  0.47647933203E+02  0.28261878899E+01  0.66256210952E+03  0.67595450709E+03  0.12509050248E+03 0.  0.
         23    2    1    2    0    0 -0.47647933203E+02 -0.28261878899E+01  0.25821974340E+02  0.10531529004E+03  0.90256429577E+02 0.  0.
          5    1    3    3  502    0  0.30715405394E+02  0.63036559198E+02  0.39011137095E+03  0.39638541606E+03  0.41800000000E+01 0.  1.
         -5    1    3    3    0  502  0.16932527809E+02 -0.60210371308E+02  0.27245073857E+03  0.27956909103E+03  0.41800000000E+01 0.  1.
        -11    1    4    4    0    0  0.15355769893E+02  0.39188170510E+01 -0.21157977312E+02  0.26435143276E+02  0.00000000000E+00 0.  1.
         11    1    4    4    0    0 -0.63003703096E+02 -0.67450049409E+01  0.46979951652E+02  0.78880146759E+02  0.00000000000E+00 0. -1.
</event>
<event>
 8    1  0.7103328E-009  0.1128582E+03  0.7561462E-02  0.1255367E+00
         -1   -1    0    0    0  501 -0.00000000000E+00  0.00000000000E+00  0.71190034927E+02  0.71190034927E+02  0.00000000000E+00 0.  1.
          1   -1    0    0  501    0  0.00000000000E+00 -0.00000000000E+00 -0.20658954058E+03  0.20658954058E+03  0.00000000000E+00 0. -1.
         25    2    1    2    0    0 -0.38370658164E+02 -0.38074874653E+02 -0.74360125001E+02  0.15523945107E+03  0.12509138855E+03 0.  0.
         23    2    1    2    0    0  0.38370658164E+02  0.38074874653E+02 -0.61039380651E+02  0.12254012444E+03  0.91478263098E+02 0.  0.
          5    1    3    3  502    0  0.42156581593E+02 -0.24369795775E+02 -0.71851878513E+01  0.49398012533E+02  0.41800000000E+01 0. -1.
         -5    1    3    3    0  502 -0.80527239758E+02 -0.13705078877E+02 -0.67174937150E+02  0.10584143853E+03  0.41800000000E+01 0. -1.
        -11    1    4    4    0    0  0.28031611013E+02 -0.21033827477E+02 -0.50724951630E+02  0.61653984723E+02  0.00000000000E+00 0. -1.
         11    1    4    4    0    0  0.10339047151E+02  0.59108702130E+02 -0.10314429022E+02  0.60886139716E+02  0.00000000000E+00 0.  1.
</event>
<event>
 8    1  0.7103328E-009  0.1270715E+03  0.7561462E-02  0.1231867E+00
          2   -1    0    0  501    0  0.00000000000E+00  0.00000000000E+00  0.56443570555E+03  0.56443570555E+03  0.00000000000E+00 0. -1.
         -2   -1    0    0    0  501 -0.00000000000E+00 -0.00000000000E+00 -0.31703835548E+02  0.31703835548E+02  0.00000000000E+00 0.  1.
         25    2    1    2    0    0 -0.28697744896E+02 -0.72268598057E+02  0.30621752231E+03  0.33979707162E+03  0.12508624258E+03 0.  0.
         23    2    1    2    0    0  0.28697744896E+02  0.72268598057E+02  0.22651434769E+03  0.25634246948E+03  0.91413353079E+02 0.  0.
          5    1    3    3  502    0  0.28127792340E+02 -0.76614754899E+02  0.12137418480E+03  0.14632210532E+03  0.41800000000E+01 0.  1.
         -5    1    3    3    0  502 -0.56825537235E+02  0.43461568420E+01  0.18484333751E+03  0.19347496630E+03  0.41800000000E+01 0.  1.
        -11    1    4    4    0    0 -0.11557523593E+02  0.74084323132E+02  0.17882314293E+03  0.19390662633E+03  0.00000000000E+00 0.  1.
         11    1    4    4    0    0  0.40255268488E+02 -0.18157250748E+01  0.47691204757E+02  0.62435843150E+02  0.00000000000E+00 0. -1.
</event>
<event>
 8    1  0.7103328E-009  0.1295870E+03  0.7561462E-02  0.1228070E+00
         -2   -1    0    0    0  501 -0.00000000000E+00  0.00000000000E+00  0.11931957727E+03  0.11931957727E+03  0.00000000000E+00 0.  1.
          2   -1    0    0  501    0  0.00000000000E+00 -0.00000000000E+00 -0.16920538864E+03  0.16920538864E+03  0.00000000000E+00 0. -1.
         25    2    1    2    0    0 -0.78276861456E+02 -0.27311659194E+02 -0.66660480990E+02  0.16420843060E+03  0.12509034810E+03 0.  0.
         23    2    1    2    0    0  0.78276861456E+02  0.27311659194E+02  0.16774669619E+02  0.12431653532E+03  0.91104432631E+02 0.  0.
          5    1    3    3  502    0 -0.67488834672E+02  0.35405732656E+02 -0.65252226234E+02  0.10041730000E+03  0.41800000000E+01 0.  1.
         -5    1    3    3    0  502 -0.10788026784E+02 -0.62717391850E+02 -0.14082547560E+01  0.63791130605E+02  0.41800000000E+01 0.  1.
        -11    1    4    4    0    0  0.41823617619E+02 -0.29774447210E+02  0.23085336060E+02  0.56290900138E+02  0.00000000000E+00 0. -1.
         11    1    4    4    0    0  0.36453243837E+02  0.57086106403E+02 -0.63106664411E+01  0.68025635179E+02  0.00000000000E+00 0.  1.
</event>
<event>
 8    1  0.7103328E-009  0.1267882E+03  0.7561462E-02  0.1232301E+00
          2   -1    0    0  501    0  0.00000000000E+00  0.00000000000E+00  0.10473672271E+03  0.10473672271E+03  0.00000000000E+00 0.  1.
         -2   -1    0    0    0  501 -0.00000000000E+00 -0.00000000000E+00 -0.18306971512E+03  0.18306971512E+03  0.00000000000E+00 0. -1.
         25    2    1    2    0    0  0.85514501754E+02  0.31422363535E+01 -0.46064808768E+02  0.15840458138E+03  0.12508973234E+03 0.  0.
         23    2    1    2    0    0 -0.85514501754E+02 -0.31422363535E+01 -0.32268183640E+02  0.12940185644E+03  0.91547807817E+02 0.  0.
          5    1    3    3  502    0  0.83695598948E+02 -0.34632754947E+02 -0.69031464088E+02  0.11396138132E+03  0.41800000000E+01 0.  1.
         -5    1    3    3    0  502  0.18189028058E+01  0.37774991301E+02  0.22966655320E+02  0.44443200062E+02  0.41800000000E+01 0.  1.
        -11    1    4    4    0    0  0.39702713848E+01 -0.30906121703E+02 -0.12917866333E+02  0.33731627358E+02  0.00000000000E+00 0. -1.
         11    1    4    4    0    0 -0.89484773139E+02  0.27763885350E+02 -0.19350317306E+02  0.95670229085E+02  0.00000000000E+00 0.  1.
</event>
<event>
 8    1  0.7103328E-009  0.1130980E+03  0.7561462E-02  0.1254938E+00
          2   -1    0    0  501    0  0.00000000000E+00  0.00000000000E+00  0.85218535221E+03  0.85218535221E+03  0.00000000000E+00 0. -1.
         -2   -1    0    0    0  501 -0.00000000000E+00 -0.00000000000E+00 -0.24565260024E+02  0.24565260024E+02  0.00000000000E+00 0.  1.
         25    2    1    2    0    0 -0.42633641493E+02 -0.36128056811E+02  0.70363998060E+03  0.71685314797E+03  0.12508536918E+03 0.  0.
         23    2    1    2    0    0  0.42633641493E+02  0.36128056811E+02  0.12398011158E+03  0.15989746426E+03  0.84102717749E+02 0.  0.
          5    1    3    3  502    0  0.27050074752E+02  0.29119241839E+02  0.25868524646E+03  0.26175401798E+03  0.41800000000E+01 0. -1.
         -5    1    3    3    0  502 -0.69683716245E+02 -0.65247298650E+02  0.44495473413E+03  0.45509912999E+03  0.41800000000E+01 0. -1.
        -11    1    4    4    0    0  0.87740478200E+01 -0.21845254810E+02  0.62290893552E+01  0.24351604199E+02  0.00000000000E+00 0.  1.
         11    1    4    4    0    0  0.33859593673E+02  0.57973311621E+02  0.11775102223E+03  0.13554586006E+03  0.00000000000E+00 0. -1.
</event>
<event>
 8    1  0.7103328E-009  0.9661925E+02  0.7561462E-02  0.1287570E+00
          2   -1    0    0  501    0  0.00000000000E+00  0.00000000000E+00  0.19558062773E+03  0.19558062773E+03  0.00000000000E+00 0. -1.
         -2   -1    0    0    0  501 -0.00000000000E+00 -0.00000000000E+00 -0.78956654959E+02  0.78956654959E+02  0.00000000000E+00 0.  1.
         25    2    1    2    0    0 -0.52312214826E+01  0.55582631514E+02  0.49928034625E+02  0.14579852958E+03  0.12509039924E+03 0.  0.
         23    2    1    2    0    0  0.52312214826E+01 -0.55582631514E+02  0.66695938142E+02  0.12873875310E+03  0.94913243450E+02 0.  0.
          5    1    3    3  502    0  0.41970610611E+02 -0.20762086036E+02  0.20016619746E+02  0.51095340665E+02  0.41800000000E+01 0. -1.
         -5    1    3    3    0  502 -0.47201832094E+02  0.76344717550E+02  0.29911414878E+02  0.94703188915E+02  0.41800000000E+01 0. -1.
        -11    1    4    4    0    0  0.63247613282E+01 -0.25621429574E+02 -0.22474176044E+02  0.34663364639E+02  0.00000000000E+00 0.  1.
         11    1    4    4    0    0 -0.10935398457E+01 -0.29961201940E+02  0.89170114186E+02  0.94075388466E+02  0.00000000000E+00 0. -1.
</event>
<event>
 8    1  0.7103328E-009  0.9494277E+02  0.7561462E-02  0.1291305E+00
          2   -1    0    0  501    0  0.00000000000E+00  0.00000000000E+00  0.65037191309E+03  0.65037191309E+03  0.00000000000E+00 0. -1.
         -2   -1    0    0    0  501 -0.00000000000E+00 -0.00000000000E+00 -0.23517647424E+02  0.23517647424E+02  0.00000000000E+00 0.  1.
         25    2    1    2    0    0  0.30884534545E+02 -0.45785161888E+01  0.51601400051E+03  0.53187674867E+03  0.12509040639E+03 0.  0.
         23    2    1    2    0    0 -0.30884534545E+02  0.45785161888E+01  0.11084026516E+03  0.14201281184E+03  0.83109909535E+02 0.  0.
          5    1    3    3  502    0  0.37623190390E+02  0.40949853084E+02  0.43539112808E+03  0.43894794878E+03  0.41800000000E+01 0.  1.
         -5    1    3    3    0  502 -0.67386558448E+01 -0.45528369272E+02  0.80622872426E+02  0.92928799893E+02  0.41800000000E+01 0.  1.
        -11    1    4    4    0    0  0.27547133932E+02 -0.68053739167E+01  0.26849292093E+02  0.39064589949E+02  0.00000000000E+00 0.  1.
         11    1    4    4    0    0 -0.58431668477E+02  0.11383890105E+02  0.83990973063E+02  0.10294822189E+03  0.00000000000E+00 0. -1.
</event>
<event>
 8    1  0.7103328E-009  0.1297974E+03  0.7561462E-02  0.1227757E+00
          1   -1    0    0  501    0  0.00000000000E+00  0.00000000000E+00  0.31368740043E+03  0.31368740043E+03  0.00000000000E+00 0. -1.
         -1   -1    0    0    0  501 -0.00000000000E+00 -0.00000000000E+00 -0.76765238008E+02  0.76765238008E+02  0.00000000000E+00 0.  1.
         25    2    1    2    0    0 -0.80521570538E+02  0.28303297913E+02  0.21590843186E+03  0.26371901300E+03  0.12508583802E+03 0.  0.
         23    2    1    2    0    0  0.80521570538E+02 -0.28303297913E+02  0.21013730561E+02  0.12673362544E+03  0.91296412580E+02 0.  0.
          5    1    3    3  502    0 -0.73856699003E+02  0.74083249740E+02  0.15688321524E+03  0.18860794125E+03  0.41800000000E+01 0.  1.
         -5    1    3    3    0  502 -0.66648715358E+01 -0.45779951827E+02  0.59025216623E+02  0.75111071749E+02  0.41800000000E+01 0.  1.
        -11    1    4    4    0    0 -0.71583938095E+01 -0.18969840061E+02 -0.20886575679E+02  0.29109216367E+02  0.00000000000E+00 0.  1.
         11    1    4    4    0    0  0.87679964348E+02 -0.93334578521E+01  0.41900306241E+02  0.97624409072E+02  0.00000000000E+00 0. -1.
</event>
<event>
 8    1  0.7103328E-009  0.9958463E+02  0.7561462E-02  0.1281172E+00
         -1   -1    0    0    0  501 -0.00000000000E+00  0.00000000000E+00  0.19118863861E+02  0.19118863861E+02  0.00000000000E+00 0.  1.
          1   -1    0    0  501    0  0.00000000000E+00 -0.00000000000E+00 -0.85402571982E+03  0.85402571982E+03  0.00000000000E+00 0. -1.
         25    2    1    2    0    0  0.13583956313E+02  0.15276528117E+02 -0.65133551174E+03  0.66355387512E+03  0.12509156705E+03 0.  0.
         23    2    1    2    0    0 -0.13583956313E+02 -0.15276528117E+02 -0.18357134422E+03  0.20959070857E+03  0.99055189257E+02 0.  0.
          5    1    3    3  502    0  0.57699829773E+02  0.12473595318E+02 -0.16678766037E+03  0.17697586555E+03  0.41800000000E+01 0.  1.
         -5    1    3    3    0  502 -0.44115873460E+02  0.28029327997E+01 -0.48454785137E+03  0.48657800957E+03  0.41800000000E+01 0.  1.
        -11    1    4    4    0    0  0.38513608542E+02 -0.19777863742E+02 -0.49951008123E+02  0.66102686402E+02  0.00000000000E+00 0.  1.
         11    1    4    4    0    0 -0.52097564855E+02  0.45013356250E+01 -0.13362033610E+03  0.14348802216E+03  0.00000000000E+00 0. -1.
</event>
<event>
 8    1  0.7103328E-009  0.1796368E+03  0.7561462E-02  0.1168155E+00
          2   -1    0    0  501    0  0.00000000000E+00  0.00000000000E+00  0.66545033154E+03  0.66545033154E+03  0.00000000000E+00 0. -1.
         -2   -1    0    0    0  501 -0.00000000000E+00 -0.00000000000E+00 -0.65087018639E+02  0.65087018639E+02  0.00000000000E+00 0.  1.
         25    2    1    2    0    0 -0.81739822318E+02  0.14990380993E+03  0.39521625763E+03  0.44832550850E+03  0.12508925008E+03 0.  0.
         23    2    1    2    0    0  0.81739822318E+02 -0.14990380993E+03  0.20514705526E+03  0.28221184168E+03  0.91682378434E+02 0.  0.
          5    1    3    3  502    0 -0.74637175674E+02  0.71409152011E+02  0.33039964070E+03  0.34619556606E+03  0.41800000000E+01 0.  1.
         -5    1    3    3    0  502 -0.71026466444E+01  0.78494657922E+02  0.64816616936E+02  0.10212994244E+03  0.41800000000E+01 0.  1.
        -11    1    4    4    0    0  0.86736696770E+02 -0.12881741996E+03  0.12549680649E+03  0.19966629834E+03  0.00000000000E+00 0.  1.
         11    1    4    4    0    0 -0.49968744517E+01 -0.21086389972E+02  0.79650248768E+02  0.82545543339E+02  0.00000000000E+00 0. -1.
</event>
<event>
 8    1  0.7103328E-009  0.1020243E+03  0.7561462E-02  0.1276096E+00
          2   -1    0    0  501    0  0.00000000000E+00  0.00000000000E+00  0.41432954513E+03  0.41432954513E+03  0.00000000000E+00 0. -1.
         -2   -1    0    0    0  501 -0.00000000000E+00 -0.00000000000E+00 -0.50494037891E+02  0.50494037891E+02  0.00000000000E+00 0.  1.
         25    2    1    2    0    0  0.85003450184E+02 -0.12304500066E+02  0.12931121256E+03  0.19936290263E+03  0.12508872846E+03 0.  0.
         23    2    1    2    0    0 -0.85003450184E+02  0.12304500066E+02  0.23452429467E+03  0.26546068038E+03  0.89948545143E+02 0.  0.
          5    1    3    3  502    0  0.76121400849E+02  0.16668576254E+01  0.77936634491E+01  0.76651547092E+02  0.41800000000E+01 0.  1.
         -5    1    3    3    0  502  0.88820493347E+01 -0.13971357691E+02  0.12151754911E+03  0.12271135554E+03  0.41800000000E+01 0.  1.
        -11    1    4    4    0    0  0.26716126124E+01  0.22315036443E+02  0.11336749550E+03  0.11557373145E+03  0.00000000000E+00 0. -1.
         11    1    4    4    0    0 -0.87675062797E+02 -0.10010536378E+02  0.12115679917E+03  0.14988694893E+03  0.00000000000E+00 0.  1.
</event>
<event>
 8    1  0.7103328E-009  0.1955634E+03  0.7561462E-02  0.1153537E+00
         -2   -1    0    0    0  501 -0.00000000000E+00  0.00000000000E+00  0.38524098739E+02  0.38524098739E+02  0.00000000000E+00 0. -1.
          2   -1    0    0  501    0  0.00000000000E+00 -0.00000000000E+00 -0.10440331924E+04  0.10440331924E+04  0.00000000000E+00 0.  1.
         25    2    1    2    0    0 -0.15345424534E+03 -0.53152218524E+02 -0.41020972945E+03  0.45857725245E+03  0.12509080933E+03 0.  0.
         23    2    1    2    0    0  0.15345424534E+03  0.53152218524E+02 -0.59529936416E+03  0.62398003865E+03  0.92716729381E+02 0.  0.
          5    1    3    3  502    0 -0.12918623927E+03 -0.92170696449E+02 -0.32369667584E+03  0.36052951620E+03  0.41800000000E+01 0.  1.
         -5    1    3    3    0  502 -0.24268006075E+02  0.39018477925E+02 -0.86513053611E+02  0.98047736249E+02  0.41800000000E+01 0.  1.
        -11    1    4    4    0    0  0.22241024440E+02 -0.25040081824E+02 -0.86883258177E+02  0.93114818463E+02  0.00000000000E+00 0.  1.
         11    1    4    4    0    0  0.13121322090E+03  0.78192300348E+02 -0.50841610599E+03  0.53086522018E+03  0.00000000000E+00 0. -1.
</event>
<event>
 8    1  0.7103328E-009  0.1293165E+03  0.7561462E-02  0.1228473E+00
         -1   -1    0    0    0  501 -0.00000000000E+00  0.00000000000E+00  0.94201571479E+02  0.94201571479E+02  0.00000000000E+00 0.  1.
          1   -1    0    0  501    0  0.00000000000E+00 -0.00000000000E+00 -0.23618177856E+03  0.23618177856E+03  0.00000000000E+00 0. -1.
         25    2    1    2    0    0  0.48467449313E+01  0.88479342610E+02 -0.22541804434E+02  0.15494598923E+03  0.12509213255E+03 0.  0.
         23    2    1    2    0    0 -0.48467449313E+01 -0.88479342610E+02 -0.11943840265E+03  0.17543736081E+03  0.93062616212E+02 0.  0.
          5    1    3    3  502    0  0.48443445894E+02  0.10457687806E+02  0.22715969562E+02  0.54677402622E+02  0.41800000000E+01 0. -1.
         -5    1    3    3    0  502 -0.43596700963E+02  0.78021654803E+02 -0.45257773995E+02  0.10026858661E+03  0.41800000000E+01 0. -1.
        -11    1    4    4    0    0 -0.28812690962E+02 -0.11171891133E+01 -0.46474646652E+01  0.29206475306E+02  0.00000000000E+00 0. -1.
         11    1    4    4    0    0  0.23965946031E+02 -0.87362153496E+02 -0.11479093798E+03  0.14623088550E+03  0.00000000000E+00 0.  1.
</event>
<event>
 8    1  0.7103328E-009  0.8921375E+02  0.7561462E-02  0.1304767E+00
          1   -1    0    0  501    0  0.00000000000E+00  0.00000000000E+00  0.27321236662E+03  0.27321236662E+03  0.00000000000E+00 0. -1.
         -1   -1    0    0    0  501 -0.00000000000E+00 -0.00000000000E+00 -0.53189937318E+02  0.53189937318E+02  0.00000000000E+00 0.  1.
         25    2    1    2    0    0 -0.23439206893E+02 -0.10842475488E+02  0.61069601184E+02  0.14158123796E+03  0.12509514402E+03 0.  0.
         23    2    1    2    0    0  0.23439206893E+02  0.10842475488E+02  0.15895282812E+03  0.18482106598E+03  0.90696577497E+02 0.  0.
          5    1    3    3  502    0 -0.21988310851E+02 -0.44771658366E+02 -0.19755332287E+02  0.53812013163E+02  0.41800000000E+01 0. -1.
         -5    1    3    3    0  502 -0.14508960413E+01  0.33929182877E+02  0.80824933471E+02  0.87769224792E+02  0.41800000000E+01 0. -1.
        -11    1    4    4    0    0  0.31721017419E+02 -0.35194716370E+02  0.74856747664E+02  0.88591329583E+02  0.00000000000E+00 0.  1.
         11    1    4    4    0    0 -0.82818105266E+01  0.46037191858E+02  0.84096080455E+02  0.96229736401E+02  0.00000000000E+00 0. -1.
</event>
<event>
 8    1  0.7103328E-009  0.1015929E+03  0.7561462E-02  0.1276982E+00
         -2   -1    0    0    0  501 -0.00000000000E+00  0.00000000000E+00  0.81034022285E+02  0.81034022285E+02  0.00000000000E+00 0.  1.
          2   -1    0    0  501    0  0.00000000000E+00 -0.00000000000E+00 -0.16681086826E+03  0.16681086826E+03  0.00000000000E+00 0. -1.
         25    2    1    2    0    0 -0.34539671536E+02  0.17947256760E+02 -0.27917395858E+02  0.13394917957E+03  0.12509160157E+03 0.  0.
         23    2    1    2    0    0  0.34539671536E+02 -0.17947256760E+02 -0.57859450122E+02  0.11389571098E+03  0.90052340753E+02 0.  0.
          5    1    3    3  502    0 -0.33315309400E+02  0.58807235981E+02  0.20207106467E+02  0.70668241777E+02  0.41800000000E+01 0. -1.
         -5    1    3    3    0  502 -0.12243621367E+01 -0.40859979221E+02 -0.48124502324E+02  0.63280937798E+02  0.41800000000E+01 0. -1.
        -11    1    4    4    0    0  0.61470517473E+02  0.94893766086E+00 -0.22162017437E+02  0.65350440075E+02  0.00000000000E+00 0.  1.
         11    1    4    4    0    0 -0.26930845937E+02 -0.18896194421E+02 -0.35697432685E+02  0.48545270900E+02  0.00000000000E+00 0. -1.
</event>
<event>
 8    1  0.7103328E-009  0.9602793E+02  0.7561462E-02  0.1288878E+00
          2   -1    0    0  501    0  0.00000000000E+00  0.00000000000E+00  0.47179560556E+02  0.47179560556E+02  0.00000000000E+00 0. -1.
         -2   -1    0    0    0  501 -0.00000000000E+00 -0.00000000000E+00 -0.28544294482E+03  0.28544294482E+03  0.00000000000E+00 0.  1.
         25    2    1    2    0    0 -0.33983412483E+02  0.48326850989E+00 -0.96767408984E+02  0.16175505982E+03  0.12508262095E+03 0.  0.
         23    2    1    2    0    0  0.33983412483E+02 -0.48326850989E+00 -0.14149597528E+03  0.17086744555E+03  0.89551477143E+02 0.  0.
          5    1    3    3  502    0 -0.10057509553E+02 -0.58457790392E+02 -0.71958309689E+02  0.93348473416E+02  0.41800000000E+01 0. -1.
         -5    1    3    3    0  502 -0.23925902930E+02  0.58941058901E+02 -0.24809099295E+02  0.68406586403E+02  0.41800000000E+01 0. -1.
        -11    1    4    4    0    0  0.50085194726E+02  0.78756787879E+01 -0.32168042374E+02  0.60044450179E+02  0.00000000000E+00 0. -1.
         11    1    4    4    0    0 -0.16101782243E+02 -0.83589472978E+01 -0.10932793290E+03  0.11082299538E+03  0.00000000000E+00 0.  1.
</event>
<event>
 8    1  0.7103328E-009  0.1484004E+03  0.7561462E-02  0.1202452E+00
          1   -1    0    0  501    0  0.00000000000E+00  0.00000000000E+00  0.26971868150E+03  0.26971868150E+03  0.00000000000E+00 0. -1.
         -1   -1    0    0    0  501 -0.00000000000E+00 -0.00000000000E+00 -0.12443973751E+03  0.12443973751E+03  0.00000000000E+00 0.  1.
         25    2    1    2    0    0  0.17371767301E+02  0.11556986860E+03 -0.19220597712E+02  0.17226544628E+03  0.12509108592E+03 0.  0.
         23    2    1    2    0    0 -0.17371767301E+02 -0.11556986860E+03  0.16449954170E+03  0.22189297273E+03  0.92294199704E+02 0.  0.
          5    1    3    3  502    0  0.59321177868E+02  0.11089985573E+03 -0.28084659922E+02  0.12893409428E+03  0.41800000000E+01 0.  1.
         -5    1    3    3    0  502 -0.41949410567E+02  0.46700128694E+01  0.88640622105E+01  0.43331351998E+02  0.41800000000E+01 0.  1.
        -11    1    4    4    0    0  0.14589301594E+02 -0.77402902595E+02  0.41129609808E+02  0.88857761924E+02  0.00000000000E+00 0.  1.
         11    1    4    4    0    0 -0.31961068895E+02 -0.38166966008E+02  0.12336993189E+03  0.13303521080E+03  0.00000000000E+00 0. -1.
</event>
<event>
 8    1  0.7103328E-009  0.9554528E+02  0.7561462E-02  0.1289953E+00
         -4   -1    0    0    0  501 -0.00000000000E+00  0.00000000000E+00  0.23674108376E+03  0.23674108376E+03  0.00000000000E+00 0. -1.
          4   -1    0    0  501    0  0.00000000000E+00 -0.00000000000E+00 -0.68288976313E+02  0.68288976313E+02  0.00000000000E+00 0.  1.
         25    2    1    2    0    0 -0.61474618296E+02  0.17879383116E+02  0.10898163672E+03  0.17783247081E+03  0.12509432241E+03 0.  0.
         23    2    1    2    0    0  0.61474618296E+02 -0.17879383116E+02  0.59470470732E+02  0.12719758926E+03  0.92432076625E+02 0.  0.
          5    1    3    3  502    0  0.13975609747E+02  0.16462418359E+02 -0.19088970653E+02  0.29123703175E+02  0.41800000000E+01 0.  1.
         -5    1    3    3    0  502 -0.75450228043E+02  0.14169647567E+01  0.12807060737E+03  0.14870876764E+03  0.41800000000E+01 0.  1.
        -11    1    4    4    0    0 -0.90941553240E+01 -0.20993302452E+02  0.51198185585E+02  0.56077416275E+02  0.00000000000E+00 0. -1.
         11    1    4    4    0    0  0.70568773620E+02  0.31139193356E+01  0.82722851468E+01  0.71120172985E+02  0.00000000000E+00 0.  1.
</event>
<event>
 8    1  0.7103328E-009  0.1169007E+03  0.7561462E-02  0.1248299E+00
          1   -1    0    0  501    0  0.00000000000E+00  0.00000000000E+00  0.49647383314E+03  0.49647383314E+03  0.00000000000E+00 0. -1.
         -1   -1    0    0    0  501 -0.00000000000E+00 -0.00000000000E+00 -0.31277154220E+02  0.31277154220E+02  0.00000000000E+00 0.  1.
         25    2    1    2    0    0 -0.34732219387E+02 -0.45491580315E+02  0.28159507007E+03  0.31339910098E+03  0.12508957617E+03 0.  0.
         23    2    1    2    0    0  0.34732219387E+02  0.45491580315E+02  0.18360160886E+03  0.21435188639E+03  0.94664510132E+02 0.  0.
          5    1    3    3  502    0  0.30904080370E+02 -0.55127377684E+02  0.18962144149E+03  0.19991961741E+03  0.41800000000E+01 0.  1.
         -5    1    3    3    0  502 -0.65636299757E+02  0.96357973683E+01  0.91973628577E+02  0.11347948357E+03  0.41800000000E+01 0.  1.
        -11    1    4    4    0    0 -0.19150679462E+02  0.46299811039E+02  0.52326718244E+02  0.72446576650E+02  0.00000000000E+00 0.  1.
         11    1    4    4    0    0  0.53882898850E+02 -0.80823072358E+00  0.13127489061E+03  0.14190530974E+03  0.00000000000E+00 0. -1.
</event>
<event>
 8    1  0.7103328E-009  0.9906577E+02  0.7561462E-02  0.1282273E+00
          4   -1    0    0  501    0  0.00000000000E+00  0.00000000000E+00  0.39126069256E+02  0.39126069256E+02  0.00000000000E+00 0. -1.
         -4   -1    0    0    0  501 -0.00000000000E+00 -0.00000000000E+00 -0.51736512574E+03  0.51736512574E+03  0.00000000000E+00 0.  1.
         25    2    1    2    0    0  0.25484310622E+02 -0.70796413857E+02 -0.36533292420E+03  0.39341745062E+03  0.12509021802E+03 0.  0.
         23    2    1    2    0    0 -0.25484310622E+02  0.70796413857E+02 -0.11290613228E+03  0.16307374438E+03  0.90463634102E+02 0.  0.
          5    1    3    3  502    0 -0.28350153462E+01 -0.41367422828E+02 -0.21038652249E+02  0.46684025875E+02  0.41800000000E+01 0.  1.
         -5    1    3    3    0  502  0.28319325969E+02 -0.29428991029E+02 -0.34429427196E+03  0.34673342475E+03  0.41800000000E+01 0.  1.
        -11    1    4    4    0    0  0.29367076498E+02  0.47419631098E+02 -0.70551626543E+02  0.89936525414E+02  0.00000000000E+00 0. -1.
         11    1    4    4    0    0 -0.54851387121E+02  0.23376782759E+02 -0.42354505738E+02  0.73137218962E+02  0.00000000000E+00 0.  1.
</event>
<event>
 8    1  0.7103328E-009  0.2118322E+03  0.7561462E-02  0.1140123E+00
          1   -1    0    0  501    0  0.00000000000E+00  0.00000000000E+00  0.71599771506E+02  0.71599771506E+02  0.00000000000E+00 0. -1.
         -1   -1    0    0    0  501 -0.00000000000E+00 -0.00000000000E+00 -0.78233126865E+03  0.78233126865E+03  0.00000000000E+00 0.  1.
         25    2    1    2    0    0  0.18398223764E+03 -0.89306553755E+02 -0.45356202500E+03  0.51302260333E+03  0.12509419129E+03 0.  0.
         23    2    1    2    0    0 -0.18398223764E+03  0.89306553755E+02 -0.25716947214E+03  0.34090843682E+03  0.90869690137E+02 0.  0.
          5    1    3    3  502    0  0.19143674489E+03 -0.86583780348E+02 -0.45732347004E+03  0.50329614241E+03  0.41800000000E+01 0. -1.
         -5    1    3    3    0  502 -0.74545072532E+01 -0.27227734074E+01  0.37614450334E+01  0.97264609265E+01  0.41800000000E+01 0. -1.
        -11    1    4    4    0    0 -0.89966885672E+02  0.45762735809E+02 -0.58033062019E+02  0.11643068665E+03  0.00000000000E+00 0. -1.
         11    1    4    4    0    0 -0.94015351966E+02  0.43543817946E+02 -0.19913641012E+03  0.22447775017E+03  0.00000000000E+00 0.  1.
</event>
<event>
 8    1  0.7103328E-009  0.6941254E+02  0.7561462E-02  0.1362102E+00
         -2   -1    0    0    0  501 -0.00000000000E+00  0.00000000000E+00  0.34531177822E+02  0.34531177822E+02  0.00000000000E+00 0.  1.
          2   -1    0    0  501    0  0.00000000000E+00 -0.00000000000E+00 -0.93993063984E+03  0.93993063984E+03  0.00000000000E+00 0. -1.
         25    2    1    2    0    0 -0.58383554461E+02 -0.23447156872E+02 -0.82783411425E+03  0.83959232799E+03  0.12509015911E+03 0.  0.
         23    2    1    2    0    0  0.58383554461E+02  0.23447156872E+02 -0.77565347767E+02  0.13486948967E+03  0.90636568077E+02 0.  0.
          5    1    3    3  502    0 -0.26043935767E+02  0.33968107891E+01 -0.27903374886E+02  0.38547316947E+02  0.41800000000E+01 0.  1.
         -5    1    3    3    0  502 -0.32339618694E+02 -0.26843967661E+02 -0.79993073937E+03  0.80104501105E+03  0.41800000000E+01 0.  1.
        -11    1    4    4    0    0  0.37114921898E+01  0.14034664711E+02  0.18754003442E+02  0.23716231423E+02  0.00000000000E+00 0.  1.
         11    1    4    4    0    0  0.54672062272E+02  0.94124921608E+01 -0.96319351209E+02  0.11115325825E+03  0.00000000000E+00 0. -1.
</event>
<event>
 8    1  0.7103328E-009  0.1359752E+03  0.7561462E-02  0.1218850E+00
         -2   -1    0    0    0  501 -0.00000000000E+00  0.00000000000E+00  0.15273264754E+03  0.15273264754E+03  0.00000000000E+00 0.  1.
          2   -1    0    0  501    0  0.00000000000E+00 -0.00000000000E+00 -0.12921194495E+03  0.12921194495E+03  0.00000000000E+00 0. -1.
         25    2    1    2    0    0 -0.87080264672E+02  0.16784105715E+02 -0.27013079690E+01  0.15336133093E+03  0.12509085522E+03 0.  0.
         23    2    1    2    0    0  0.87080264672E+02 -0.16784105715E+02  0.26222010563E+02  0.12858326156E+03  0.89338584136E+02 0.  0.
          5    1    3    3  502    0  0.28794978353E+02  0.22049762114E+02  0.58636545070E+01  0.36975635651E+02  0.41800000000E+01 0. -1.
         -5    1    3    3    0  502 -0.11587524302E+03 -0.52656563982E+01 -0.85649624760E+01  0.11638569528E+03  0.41800000000E+01 0. -1.
        -11    1    4    4    0    0  0.97574892403E+02 -0.30382264694E+02  0.36556400398E+02  0.10853714592E+03  0.00000000000E+00 0.  1.
         11    1    4    4    0    0 -0.10494627731E+02  0.13598158978E+02 -0.10334389834E+02  0.20046115635E+02  0.00000000000E+00 0. -1.
</event>
<event>
 8    1  0.7103328E-009  0.1442399E+03  0.7561462E-02  0.1207735E+00
         -4   -1    0    0    0  501 -0.00000000000E+00  0.00000000000E+00  0.12419218132E+03  0.12419218132E+03  0.00000000000E+00 0.  1.
          4   -1    0    0  501    0  0.00000000000E+00 -0.00000000000E+00 -0.18761140061E+03  0.18761140061E+03  0.00000000000E+00 0. -1.
         25    2    1    2    0    0  0.98228004037E+02  0.39586432475E+02 -0.37461388871E+02  0.16812944878E+03  0.12509328310E+03 0.  0.
         23    2    1    2    0    0 -0.98228004037E+02 -0.39586432475E+02 -0.25957830411E+02  0.14367413315E+03  0.93555444329E+02 0.  0.
          5    1    3    3  502    0 -0.77987546070E+01  0.45498207314E+02  0.16169565969E+02  0.49090067283E+02  0.41800000000E+01 0.  1.
         -5    1    3    3    0  502  0.10602675864E+03 -0.59117748387E+01 -0.53630954840E+02  0.11903938150E+03  0.41800000000E+01 0.  1.
        -11    1    4    4    0    0 -0.77407816377E+01 -0.44564133435E+02 -0.27688948242E+02  0.53033569971E+02  0.00000000000E+00 0. -1.
         11    1    4    4    0    0 -0.90487222399E+02  0.49777009600E+01  0.17311178308E+01  0.90640563179E+02  0.00000000000E+00 0.  1.
</event>
<event>
 8    1  0.7103328E-009  0.1589895E+03  0.7561462E-02  0.1189842E+00
         -1   -1    0    0    0  501 -0.00000000000E+00  0.00000000000E+00  0.93753601239E+02  0.93753601239E+02  0.00000000000E+00 0.  1.
          1   -1    0    0  501    0  0.00000000000E+00 -0.00000000000E+00 -0.40180615306E+03  0.40180615306E+03  0.00000000000E+00 0. -1.
         25    2    1    2    0    0 -0.90303654030E+02 -0.68998236792E+02 -0.29883383518E+03  0.34331369534E+03  0.12508847170E+03 0.  0.
         23    2    1    2    0    0  0.90303654030E+02  0.68998236792E+02 -0.92187166411E+01  0.15224605895E+03  0.10088791364E+03 0.  0.
          5    1    3    3  502    0 -0.79335577261E+02  0.16849292700E+02 -0.12470068088E+03  0.14881453120E+03  0.41800000000E+01 0. -1.
         -5    1    3    3    0  502 -0.10968076769E+02 -0.85847529492E+02 -0.17413315430E+03  0.19449916414E+03  0.41800000000E+01 0. -1.
        -11    1    4    4    0    0 -0.39235392305E+01  0.54668818277E+02  0.80076515828E+01  0.55391301986E+02  0.00000000000E+00 0.  1.
         11    1    4    4    0    0  0.94227193260E+02  0.14329418515E+02 -0.17226368224E+02  0.96854756966E+02  0.00000000000E+00 0. -1.
</event>
<event>
 8    1  0.7103328E-009  0.9260074E+02  0.7561462E-02  0.1296673E+00
          2   -1    0    0  501    0  0.00000000000E+00  0.00000000000E+00  0.89364518567E+02  0.89364518567E+02  0.00000000000E+00 0. -1.
         -2   -1    0    0    0  501 -0.00000000000E+00 -0.00000000000E+00 -0.34987710688E+03  0.34987710688E+03  0.00000000000E+00 0.  1.
         25    2    1    2    0    0  0.42919724507E+02 -0.43005776728E+02  0.17879011456E+02  0.14021135240E+03  0.12509182510E+03 0.  0.
         23    2    1    2    0    0 -0.42919724507E+02  0.43005776728E+02 -0.27839159977E+03  0.29903027305E+03  0.90695213727E+02 0.  0.
          5    1    3    3  502    0  0.45924411624E+02 -0.54440268921E+02 -0.39450284593E+02  0.81526632566E+02  0.41800000000E+01 0. -1.
         -5    1    3    3    0  502 -0.30046871163E+01  0.11434492193E+02  0.57329296049E+02  0.58684719833E+02  0.41800000000E+01 0. -1.
        -11    1    4    4    0    0  0.23717503859E+02  0.19331484633E+02 -0.39940409817E+02  0.50313642522E+02  0.00000000000E+00 0. -1.
         11    1    4    4    0    0 -0.66637228366E+02  0.23674292095E+02 -0.23845118995E+03  0.24871663052E+03  0.00000000000E+00 0.  1.
</event>
<event>
 8    1  0.7103328E-009  0.8335357E+02  0.7561462E-02  0.1319795E+00
         -2   -1    0    0    0  501 -0.00000000000E+00  0.00000000000E+00  0.29035486438E+02  0.29035486438E+02  0.00000000000E+00 0.  1.
          2   -1    0    0  501    0  0.00000000000E+00 -0.00000000000E+00 -0.47496015487E+03  0.47496015487E+03  0.00000000000E+00 0. -1.
         25    2    1    2    0    0  0.40383081156E+02  0.79914465840E+01 -0.27466229314E+03  0.30460055238E+03  0.12508982682E+03 0.  0.
         23    2    1    2    0    0 -0.40383081156E+02 -0.79914465840E+01 -0.17126237529E+03  0.19939508893E+03  0.93450221174E+02 0.  0.
          5    1    3    3  502    0  0.23687353282E+02 -0.21814596514E+02 -0.26747617967E+03  0.26944006090E+03  0.41800000000E+01 0. -1.
         -5    1    3    3    0  502  0.16695727873E+02  0.29806043098E+02 -0.71861134760E+01  0.35160491483E+02  0.41800000000E+01 0. -1.
        -11    1    4    4    0    0  0.15182395535E+02 -0.34914216513E+02 -0.45764789059E+02  0.59530862303E+02  0.00000000000E+00 0.  1.
         11    1    4    4    0    0 -0.55565476690E+02  0.26922769929E+02 -0.12549758623E+03  0.13986422663E+03  0.00000000000E+00 0. -1.
</event>
<event>
 8    1  0.7103328E-009  0.1466702E+03  0.7561462E-02  0.1204625E+00
          1   -1    0    0  501    0  0.00000000000E+00  0.00000000000E+00  0.28938788002E+02  0.28938788002E+02  0.00000000000E+00 0. -1.
         -1   -1    0    0    0  501 -0.00000000000E+00 -0.00000000000E+00 -0.85516648734E+03  0.85516648734E+03  0.00000000000E+00 0.  1.
         25    2    1    2    0    0 -0.52214902213E+02  0.87078719573E+02 -0.30038133779E+03  0.34085371055E+03  0.12507279673E+03 0.  0.
         23    2    1    2    0    0  0.52214902213E+02 -0.87078719573E+02 -0.52584636155E+03  0.54325156480E+03  0.91097570160E+02 0.  0.
          5    1    3    3  502    0 -0.96763019273E+01  0.10956250953E+03 -0.23567164027E+03  0.26010799438E+03  0.41800000000E+01 0.  1.
         -5    1    3    3    0  502 -0.42538600286E+02 -0.22483789959E+02 -0.64709697528E+02  0.80745716167E+02  0.41800000000E+01 0.  1.
        -11    1    4    4    0    0 -0.24169419358E+02 -0.91194731112E+01 -0.13515159526E+03  0.13759825334E+03  0.00000000000E+00 0.  1.
         11    1    4    4    0    0  0.76384321571E+02 -0.77959246462E+02 -0.39069476629E+03  0.40565331146E+03  0.00000000000E+00 0. -1.
</event>
<event>
 8    1  0.7103328E-009  0.1121444E+03  0.7561462E-02  0.1256650E+00
         -1   -1    0    0    0  501 -0.00000000000E+00  0.00000000000E+00  0.84296247773E+02  0.84296247773E+02  0.00000000000E+00 0.  1.
          1   -1    0    0  501    0  0.00000000000E+00 -0.00000000000E+00 -0.25200782506E+03  0.25200782506E+03  0.00000000000E+00 0. -1.
         25    2    1    2    0    0 -0.74552922128E+02 -0.56475216578E+02 -0.12570541549E+03  0.20049301522E+03  0.12509200367E+03 0.  0.
         23    2    1    2    0    0  0.74552922128E+02  0.56475216578E+02 -0.42006161789E+02  0.13581105761E+03  0.89064793581E+02 0.  0.
          5    1    3    3  502    0  0.30308026872E+01  0.42904107207E+01 -0.97737854040E+02  0.97968126967E+02  0.41800000000E+01 0.  1.
         -5    1    3    3    0  502 -0.77583724815E+02 -0.60765627299E+02 -0.27967561453E+02  0.10252488825E+03  0.41800000000E+01 0.  1.
        -11    1    4    4    0    0  0.37554732371E+02 -0.13399634256E+02 -0.40350692389E+02  0.56728180809E+02  0.00000000000E+00 0.  1.
         11    1    4    4    0    0  0.36998189756E+02  0.69874850833E+02 -0.16554694005E+01  0.79082876801E+02  0.00000000000E+00 0. -1.
</event>
<event>
 8    1  0.7103328E-009  0.2307387E+03  0.7561462E-02  0.1126121E+00
          2   -1    0    0  501    0  0.00000000000E+00  0.00000000000E+00  0.37814191458E+03  0.37814191458E+03  0.00000000000E+00 0. -1.
         -2   -1    0    0    0  501 -0.00000000000E+00 -0.00000000000E+00 -0.15712976397E+03  0.15712976397E+03  0.00000000000E+00 0.  1.
         25    2    1    2    0    0  0.12090672216E+03  0.18100351603E+03  0.12877592796E+03  0.28215548481E+03  0.12509104568E+03 0.  0.
         23    2    1    2    0    0 -0.12090672216E+03 -0.18100351603E+03  0.92236222654E+02  0.25311619373E+03  0.90441022133E+02 0.  0.
          5    1    3    3  502    0  0.11511057051E+03  0.75862114225E+02  0.37993382102E+02  0.14306108241E+03  0.41800000000E+01 0.  1.
         -5    1    3    3    0  502  0.57961516522E+01  0.10514140180E+03  0.90782545857E+02  0.13909440240E+03  0.41800000000E+01 0.  1.
        -11    1    4    4    0    0 -0.76451875950E+02 -0.10136397886E+03  0.99948918371E+02  0.16158382292E+03  0.00000000000E+00 0.  1.
         11    1    4    4    0    0 -0.44454846208E+02 -0.79639537166E+02 -0.77126957165E+01  0.91532370813E+02  0.00000000000E+00 0. -1.
</event>
<event>
 8    1  0.7103328E-009  0.1280184E+03  0.7561462E-02  0.1230426E+00
         -2   -1    0    0    0  501 -0.00000000000E+00  0.00000000000E+00  0.70769452408E+02  0.70769452408E+02  0.00000000000E+00 0.  1.
          2   -1    0    0  501    0  0.00000000000E+00 -0.00000000000E+00 -0.10835721084E+04  0.10835721084E+04  0.00000000000E+00 0. -1.
         25    2    1    2    0    0 -0.30832557609E+02 -0.94904648328E+02 -0.10055987935E+04  0.10182505537E+04  0.12509083805E+03 0.  0.
         23    2    1    2    0    0  0.30832557609E+02  0.94904648328E+02 -0.72038625379E+01  0.13609100714E+03  0.92256857232E+02 0.  0.
          5    1    3    3  502    0  0.30275146622E+01 -0.86467269199E+02 -0.93864394137E+03  0.94263231196E+03  0.41800000000E+01 0. -1.
         -5    1    3    3    0  502 -0.33860072271E+02 -0.84373791292E+01 -0.66954852094E+02  0.75618241713E+02  0.41800000000E+01 0. -1.
        -11    1    4    4    0    0  0.62862963312E+02  0.65596226121E+02  0.50006645417E+01  0.90992437508E+02  0.00000000000E+00 0.  1.
         11    1    4    4    0    0 -0.32030405703E+02  0.29308422207E+02 -0.12204527080E+02  0.45098569634E+02  0.00000000000E+00 0. -1.
</event>
<event>
 8    1  0.7103328E-009  0.1471771E+03  0.7561462E-02  0.1203985E+00
         -2   -1    0    0    0  501 -0.00000000000E+00  0.00000000000E+00  0.17029126613E+03  0.17029126613E+03  0.00000000000E+00 0.  1.
          2   -1    0    0  501    0  0.00000000000E+00 -0.00000000000E+00 -0.13559785790E+03  0.13559785790E+03  0.00000000000E+00 0. -1.
         25    2    1    2    0    0 -0.94439707265E+02 -0.38701647611E+02 -0.50430147490E+01  0.16151890189E+03  0.12508496246E+03 0.  0.
         23    2    1    2    0    0  0.94439707265E+02  0.38701647611E+02  0.39736422984E+02  0.14437022214E+03  0.94059034086E+02 0.  0.
          5    1    3    3  502    0  0.93220497846E+01 -0.52688894892E+02 -0.16403948548E+02  0.56121138487E+02  0.41800000000E+01 0.  1.
         -5    1    3    3    0  502 -0.10376175705E+03  0.13987247281E+02  0.11360933799E+02  0.10539776340E+03  0.41800000000E+01 0.  1.
        -11    1    4    4    0    0  0.36887912939E+02  0.63338248259E+02  0.35986738213E+02  0.81654743529E+02  0.00000000000E+00 0.  1.
         11    1    4    4    0    0  0.57551794326E+02 -0.24636600648E+02  0.37496847703E+01  0.62715478612E+02  0.00000000000E+00 0. -1.
</event>
<event>
 8    1  0.7103328E-009  0.1689402E+03  0.7561462E-02  0.1178958E+00
          1   -1    0    0  501    0  0.00000000000E+00  0.00000000000E+00  0.32893164385E+03  0.32893164385E+03  0.00000000000E+00 0. -1.
         -1   -1    0    0    0  501 -0.00000000000E+00 -0.00000000000E+00 -0.10725195934E+03  0.10725195934E+03  0.00000000000E+00 0.  1.
         25    2    1    2    0    0  0.13219390384E+03 -0.77394950377E+02  0.10307276240E+03  0.22301675348E+03  0.12508905398E+03 0.  0.
         23    2    1    2    0    0 -0.13219390384E+03  0.77394950377E+02  0.11860692211E+03  0.21316684972E+03  0.88922985172E+02 0.  0.
          5    1    3    3  502    0  0.44051842863E+02 -0.53323043567E+02  0.11137965156E+03  0.13117473467E+03  0.41800000000E+01 0. -1.
         -5    1    3    3    0  502  0.88142060978E+02 -0.24071906809E+02 -0.83068891539E+01  0.91842018806E+02  0.41800000000E+01 0. -1.
        -11    1    4    4    0    0 -0.39656371557E+02  0.74667580983E+02  0.56670595364E+02  0.10178129413E+03  0.00000000000E+00 0. -1.
         11    1    4    4    0    0 -0.92537532284E+02  0.27273693933E+01  0.61936326741E+02  0.11138555560E+03  0.00000000000E+00 0.  1.
</event>
<event>
 8    1  0.7103328E-009  0.1308348E+03  0.7561462E-02  0.1226222E+00
          1   -1    0    0  501    0  0.00000000000E+00  0.00000000000E+00  0.54281804116E+03  0.54281804116E+03  0.00000000000E+00 0.  1.
         -1   -1    0    0    0  501 -0.00000000000E+00 -0.00000000000E+00 -0.41617162269E+02  0.41617162269E+02  0.00000000000E+00 0. -1.
         25    2    1    2    0    0 -0.36424502527E+02  0.65365565643E+02  0.13188763551E+03  0.19657389446E+03  0.12509015160E+03 0.  0.
         23    2    1    2    0    0  0.36424502527E+02 -0.65365565643E+02  0.36931324339E+03  0.38786130898E+03  0.91895166908E+02 0.  0.
          5    1    3    3  502    0  0.29175197584E+02  0.73000057049E+02  0.60945798702E+02  0.99559345431E+02  0.41800000000E+01 0.  1.
         -5    1    3    3    0  502 -0.65599700112E+02 -0.76344914066E+01  0.70941836804E+02  0.97014549027E+02  0.41800000000E+01 0.  1.
        -11    1    4    4    0    0  0.54050319449E+02 -0.54604873323E+01  0.20520688173E+03  0.21227604260E+03  0.00000000000E+00 0.  1.
         11    1    4    4    0    0 -0.17625816922E+02 -0.59905078310E+02  0.16410636166E+03  0.17558526638E+03  0.00000000000E+00 0. -1.
</event>
<event>
 8    1  0.7103328E-009  0.1033850E+03  0.7561462E-02  0.1273335E+00
         -2   -1    0    0    0  501 -0.00000000000E+00  0.00000000000E+00  0.29981196468E+03  0.29981196468E+03  0.00000000000E+00 0.  1.
          2   -1    0    0  501    0  0.00000000000E+00 -0.00000000000E+00 -0.47204165597E+02  0.47204165597E+02  0.00000000000E+00 0. -1.
         25    2    1    2    0    0 -0.17771086387E+02 -0.22069919574E+02  0.84594377790E+02  0.15364258407E+03  0.12508773731E+03 0.  0.
         23    2    1    2    0    0  0.17771086387E+02  0.22069919574E+02  0.16801342130E+03  0.19337354621E+03  0.91443566073E+02 0.  0.
          5    1    3    3  502    0  0.43041217948E+02  0.24970197251E+02  0.22696568506E+02  0.54851288181E+02  0.41800000000E+01 0. -1.
         -5    1    3    3    0  502 -0.60812304335E+02 -0.47040116824E+02  0.61897809284E+02  0.98791295890E+02  0.41800000000E+01 0. -1.
        -11    1    4    4    0    0 -0.24020217486E+02 -0.11121856466E+02  0.11552500715E+03  0.11851874879E+03  0.00000000000E+00 0.  1.
         11    1    4    4    0    0  0.41791303873E+02  0.33191776039E+02  0.52488414149E+02  0.74854797414E+02  0.00000000000E+00 0. -1.
</event>
<event>
 8    1  0.7103328E-009  0.9721484E+02  0.7561462E-02  0.1286264E+00
          1   -1    0    0  501    0  0.00000000000E+00  0.00000000000E+00  0.16209111788E+03  0.16209111788E+03  0.00000000000E+00 0. -1.
         -1   -1    0    0    0  501 -0.00000000000E+00 -0.00000000000E+00 -0.13835973018E+03  0.13835973018E+03  0.00000000000E+00 0.  1.
         25    2    1    2    0    0  0.54145473814E+02  0.38891942250E+02  0.92308962074E+02  0.16915527453E+03  0.12509295311E+03 0.  0.
         23    2    1    2    0    0 -0.54145473814E+02 -0.38891942250E+02 -0.68577574376E+02  0.13129557352E+03  0.89951811617E+02 0.  0.
          5    1    3    3  502    0  0.52059127217E+02 -0.13331944090E+02  0.10243778676E+03  0.11575347086E+03  0.41800000000E+01 0.  1.
         -5    1    3    3    0  502  0.20863465962E+01  0.52223886340E+02 -0.10128824682E+02  0.53401803677E+02  0.41800000000E+01 0.  1.
        -11    1    4    4    0    0 -0.53525589483E+02 -0.45176176309E+01 -0.78855059823E+02  0.95412357995E+02  0.00000000000E+00 0.  1.
         11    1    4    4    0    0 -0.61988433076E+00 -0.34374324619E+02  0.10277485447E+02  0.35883215529E+02  0.00000000000E+00 0. -1.
</event>
<event>
 8    1  0.7103328E-009  0.9686688E+02  0.7561462E-02  0.1287026E+00
          1   -1    0    0  501    0  0.00000000000E+00  0.00000000000E+00  0.22687331749E+03  0.22687331749E+03  0.00000000000E+00 0. -1.
         -1   -1    0    0    0  501 -0.00000000000E+00 -0.00000000000E+00 -0.65847359524E+02  0.65847359524E+02  0.00000000000E+00 0.  1.
         25    2    1    2    0    0  0.11958301877E+02 -0.35488977519E+02  0.40215198328E+02  0.13662443270E+03  0.12508599012E+03 0.  0.
         23    2    1    2    0    0 -0.11958301877E+02  0.35488977519E+02  0.12081075964E+03  0.15609624431E+03  0.91478573095E+02 0.  0.
          5    1    3    3  502    0 -0.50720183692E+02 -0.35046615216E+02  0.40359669237E+02  0.73804996937E+02  0.41800000000E+01 0. -1.
         -5    1    3    3    0  502  0.62678485570E+02 -0.44236230299E+00 -0.14447090961E+00  0.62819435763E+02  0.41800000000E+01 0. -1.
        -11    1    4    4    0    0 -0.33198164747E+02  0.75838296472E+01  0.41820705413E+01  0.34309216381E+02  0.00000000000E+00 0. -1.
         11    1    4    4    0    0  0.21239862869E+02  0.27905147872E+02  0.11662868910E+03  0.12178702793E+03  0.00000000000E+00 0.  1.
</event>
<event>
 8    1  0.7103328E-009  0.1533575E+03  0.7561462E-02  0.1196407E+00
          2   -1    0    0  501    0  0.00000000000E+00  0.00000000000E+00  0.61854587590E+03  0.61854587590E+03  0.00000000000E+00 0. -1.
         -2   -1    0    0    0  501 -0.00000000000E+00 -0.00000000000E+00 -0.63503928842E+02  0.63503928842E+02  0.00000000000E+00 0.  1.
         25    2    1    2    0    0  0.13552741580E+03  0.53840767777E+02  0.42538977812E+03  0.46676650555E+03  0.12509196085E+03 0.  0.
         23    2    1    2    0    0 -0.13552741580E+03 -0.53840767777E+02  0.12965216894E+03  0.21528329919E+03  0.90943418068E+02 0.  0.
          5    1    3    3  502    0  0.42837726526E+01 -0.12368862756E+02 -0.28037377524E+01  0.14024008678E+02  0.41800000000E+01 0. -1.
         -5    1    3    3    0  502  0.13124364315E+03  0.66209630533E+02  0.42819351587E+03  0.45274249688E+03  0.41800000000E+01 0. -1.
        -11    1    4    4    0    0 -0.49414792228E+02 -0.22228597362E+02 -0.26980031540E+01  0.54251372818E+02  0.00000000000E+00 0.  1.
         11    1    4    4    0    0 -0.86112623575E+02 -0.31612170415E+02  0.13235017210E+03  0.16103192637E+03  0.00000000000E+00 0. -1.
</event>
<event>
 8    1  0.7103328E-009  0.1116048E+03  0.7561462E-02  0.1257627E+00
          1   -1    0    0  501    0  0.00000000000E+00  0.00000000000E+00  0.23514669700E+02  0.23514669700E+02  0.00000000000E+00 0. -1.
         -1   -1    0    0    0  501 -0.00000000000E+00 -0.00000000000E+00 -0.58101085564E+03  0.58101085564E+03  0.00000000000E+00 0.  1.
         25    2    1    2    0    0  0.46665970722E+02  0.16483775131E+02 -0.33927569139E+03  0.36497265744E+03  0.12509044026E+03 0.  0.
         23    2    1    2    0    0 -0.46665970722E+02 -0.16483775131E+02 -0.21822049455E+03  0.23955286790E+03  0.85533412256E+02 0.  0.
          5    1    3    3  502    0 -0.35426445372E+02 -0.14885071214E+02 -0.16837582990E+03  0.17275558130E+03  0.41800000000E+01 0.  1.
         -5    1    3    3    0  502  0.82092416094E+02  0.31368846345E+02 -0.17089986149E+03  0.19221707614E+03  0.41800000000E+01 0.  1.
        -11    1    4    4    0    0 -0.46119818322E+01  0.32036489615E+02 -0.98780713209E+02  0.10394823878E+03  0.00000000000E+00 0.  1.
         11    1    4    4    0    0 -0.42053988890E+02 -0.48520264746E+02 -0.11943978134E+03  0.13560462912E+03  0.00000000000E+00 0. -1.
</event>
<event>
 8    1  0.7103328E-009  0.1100337E+03  0.7561462E-02  0.1260508E+00
         -1   -1    0    0    0  501 -0.00000000000E+00  0.00000000000E+00  0.25473728356E+02  0.25473728356E+02  0.00000000000E+00 0.  1.
          1   -1    0    0  501    0  0.00000000000E+00 -0.00000000000E+00 -0.60852887174E+03  0.60852887174E+03  0.00000000000E+00 0. -1.
         25    2    1    2    0    0 -0.53943791472E+02  0.32039323907E+02 -0.34926658857E+03  0.37625887528E+03  0.12508853033E+03 0.  0.
         23    2    1    2    0    0  0.53943791472E+02 -0.32039323907E+02 -0.23378855481E+03  0.25774372482E+03  0.88534108719E+02 0.  0.
          5    1    3    3  502    0 -0.14682208201E+02 -0.41550918243E+02 -0.20354419608E+03  0.20830208400E+03  0.41800000000E+01 0. -1.
         -5    1    3    3    0  502 -0.39261583272E+02  0.73590242150E+02 -0.14572239250E+03  0.16795679128E+03  0.41800000000E+01 0. -1.
        -11    1    4    4    0    0  0.68025618532E+02 -0.14082857040E+02 -0.98430562627E+02  0.12047567098E+03  0.00000000000E+00 0.  1.
         11    1    4    4    0    0 -0.14081827060E+02 -0.17956466866E+02 -0.13535799219E+03  0.13726805384E+03  0.00000000000E+00 0. -1.
</event>
<event>
 8    1  0.7103328E-009  0.1078340E+03  0.7561462E-02  0.1264634E+00
          2   -1    0    0  501    0  0.00000000000E+00  0.00000000000E+00  0.45743535022E+02  0.45743535022E+02  0.00000000000E+00 0. -1.
         -2   -1    0    0    0  501 -0.00000000000E+00 -0.00000000000E+00 -0.38361277268E+03  0.38361277268E+03  0.00000000000E+00 0.  1.
         25    2    1    2    0    0  0.66973942139E+01  0.75462050857E+02 -0.18685766825E+03  0.23728091934E+03  0.12508825000E+03 0.  0.
         23    2    1    2    0    0 -0.66973942139E+01 -0.75462050857E+02 -0.15101156941E+03  0.19207538836E+03  0.91373324948E+02 0.  0.
          5    1    3    3  502    0  0.44686086472E+02  0.13351758048E+02 -0.12769411316E+02  0.48534998017E+02  0.41800000000E+01 0.  1.
         -5    1    3    3    0  502 -0.37988692258E+02  0.62110292809E+02 -0.17408825693E+03  0.18874592132E+03  0.41800000000E+01 0.  1.
        -11    1    4    4    0    0  0.18930340011E+02 -0.65896285210E+02 -0.43635131015E+02  0.81269322847E+02  0.00000000000E+00 0. -1.
         11    1    4    4    0    0 -0.25627734225E+02 -0.95657656474E+01 -0.10737643839E+03  0.11080606552E+03  0.00000000000E+00 0.  1.
</event>
<event>
 8    1  0.7103328E-009  0.2382724E+03  0.7561462E-02  0.1120949E+00
          2   -1    0    0  501    0  0.00000000000E+00  0.00000000000E+00  0.14433123352E+03  0.14433123352E+03  0.00000000000E+00 0. -1.
         -2   -1    0    0    0  501 -0.00000000000E+00 -0.00000000000E+00 -0.48765145086E+03  0.48765145086E+03  0.00000000000E+00 0.  1.
         25    2    1    2    0    0  0.21472191148E+03 -0.33328003201E+01 -0.43568990821E+02  0.25231435572E+03  0.12509064838E+03 0.  0.
         23    2    1    2    0    0 -0.21472191148E+03  0.33328003201E+01 -0.29975122652E+03  0.37966832867E+03  0.90446863748E+02 0.  0.
          5    1    3    3  502    0  0.79772288978E+02 -0.57543551718E+02  0.59437455889E+01  0.98628996470E+02  0.41800000000E+01 0. -1.
         -5    1    3    3    0  502  0.13494962250E+03  0.54210751398E+02 -0.49512736410E+02  0.15368535925E+03  0.41800000000E+01 0. -1.
        -11    1    4    4    0    0 -0.72090855829E+02  0.43786936067E+02 -0.11971659047E+03  0.14644606276E+03  0.00000000000E+00 0. -1.
         11    1    4    4    0    0 -0.14263105565E+03 -0.40454135747E+02 -0.18003463606E+03  0.23322226591E+03  0.00000000000E+00 0.  1.
</event>
<event>
 8    1  0.7103328E-009  0.2409829E+03  0.7561462E-02  0.1119140E+00
          1   -1    0    0  501    0  0.00000000000E+00  0.00000000000E+00  0.61309603239E+02  0.61309603239E+02  0.00000000000E+00 0. -1.
         -1   -1    0    0    0  501 -0.00000000000E+00 -0.00000000000E+00 -0.10744831235E+04  0.10744831235E+04  0.00000000000E+00 0.  1.
         25    2    1    2    0    0  0.18802751456E+03  0.13331930280E+03 -0.45385617338E+03  0.52417740343E+03  0.12509253144E+03 0.  0.
         23    2    1    2    0    0 -0.18802751456E+03 -0.13331930280E+03 -0.55931734687E+03  0.61161532330E+03  0.90050132975E+02 0.  0.
          5    1    3    3  502    0  0.14832771295E+02  0.60853570989E+02 -0.55558252287E+02  0.83829350490E+02  0.41800000000E+01 0.  1.
         -5    1    3    3    0  502  0.17319474327E+03  0.72465731811E+02 -0.39829792109E+03  0.44034805294E+03  0.41800000000E+01 0.  1.
        -11    1    4    4    0    0 -0.67647343789E+02 -0.60195271586E+02 -0.33261934539E+03  0.34472490883E+03  0.00000000000E+00 0.  1.
         11    1    4    4    0    0 -0.12038017077E+03 -0.73124031215E+02 -0.22669800148E+03  0.26689041446E+03  0.00000000000E+00 0. -1.
</event>
<event>
 8    1  0.7103328E-009  0.1063277E+03  0.7561462E-02  0.1267525E+00
         -2   -1    0    0    0  501 -0.00000000000E+00  0.00000000000E+00  0.80942949249E+03  0.80942949249E+03  0.00000000000E+00 0.  1.
          2   -1    0    0  501    0  0.00000000000E+00 -0.00000000000E+00 -0.16561651737E+02  0.16561651737E+02  0.00000000000E+00 0. -1.
         25    2    1    2    0    0  0.28332082881E+02 -0.23727460278E+02  0.51921369727E+03  0.53534711275E+03  0.12509183992E+03 0.  0.
         23    2    1    2    0    0 -0.28332082881E+02  0.23727460278E+02  0.27365414349E+03  0.29064403147E+03  0.90673389099E+02 0.  0.
          5    1    3    3  502    0  0.41473183929E+02 -0.62375411312E+02  0.20183361012E+03  0.21532532479E+03  0.41800000000E+01 0.  1.
         -5    1    3    3    0  502 -0.13141101048E+02  0.38647951034E+02  0.31738008714E+03  0.32002178796E+03  0.41800000000E+01 0.  1.
        -11    1    4    4    0    0 -0.91535369864E+01  0.57250910745E+02  0.14024140130E+03  0.15175343377E+03  0.00000000000E+00 0.  1.
         11    1    4    4    0    0 -0.19178545895E+02 -0.33523450466E+02  0.13341274219E+03  0.13889059771E+03  0.00000000000E+00 0. -1.
</event>
<event>
 8    1  0.7103328E-009  0.8627371E+02  0.7561462E-02  0.1312135E+00
          3   -1    0    0  501    0  0.00000000000E+00  0.00000000000E+00  0.18410496676E+03  0.18410496676E+03  0.00000000000E+00 0. -1.
         -3   -1    0    0    0  501 -0.00000000000E+00 -0.00000000000E+00 -0.69756570412E+02  0.69756570412E+02  0.00000000000E+00 0.  1.
         25    2    1    2    0    0 -0.10083971579E+02  0.12492602837E+02  0.31533033411E+02  0.12998425934E+03  0.12507527282E+03 0.  0.
         23    2    1    2    0    0  0.10083971579E+02 -0.12492602837E+02  0.82815362940E+02  0.12387727784E+03  0.90716283086E+02 0.  0.
          5    1    3    3  502    0 -0.27669010952E+02 -0.46990255949E+02  0.39279481550E+02  0.67335045793E+02  0.41800000000E+01 0.  1.
         -5    1    3    3    0  502  0.17585039372E+02  0.59482858786E+02 -0.77464481389E+01  0.62649213545E+02  0.41800000000E+01 0.  1.
        -11    1    4    4    0    0  0.29444997141E+02 -0.19252558649E+02 -0.33176948166E+01  0.35336609487E+02  0.00000000000E+00 0.  1.
         11    1    4    4    0    0 -0.19361025561E+02  0.67599558117E+01  0.86133057756E+02  0.88540668350E+02  0.00000000000E+00 0. -1.
</event>
<event>
 8    1  0.7103328E-009  0.9490592E+02  0.7561462E-02  0.1291388E+00
         -1   -1    0    0    0  501 -0.00000000000E+00  0.00000000000E+00  0.11057941639E+03  0.11057941639E+03  0.00000000000E+00 0.  1.
          1   -1    0    0  501    0  0.00000000000E+00 -0.00000000000E+00 -0.11373934877E+03  0.11373934877E+03  0.00000000000E+00 0. -1.
         25    2    1    2    0    0 -0.26108573350E+02  0.10985490825E+02 -0.10509156807E+02  0.12868744438E+03  0.12509067653E+03 0.  0.
         23    2    1    2    0    0  0.26108573350E+02 -0.10985490825E+02  0.73492244315E+01  0.95631320774E+02  0.91043944346E+02 0.  0.
          5    1    3    3  502    0  0.29251126153E+02  0.50761097273E+02  0.39885253128E+01  0.58870180158E+02  0.41800000000E+01 0. -1.
         -5    1    3    3    0  502 -0.55359699503E+02 -0.39775606448E+02 -0.14497682120E+02  0.69817264227E+02  0.41800000000E+01 0. -1.
        -11    1    4    4    0    0  0.31323389761E+02  0.16085925427E+02  0.39740311304E+02  0.53096177693E+02  0.00000000000E+00 0. -1.
         11    1    4    4    0    0 -0.52148164118E+01 -0.27071416253E+02 -0.32391086873E+02  0.42535143081E+02  0.00000000000E+00 0.  1.
</event>
<event>
 8    1  0.7103328E-009  0.5737318E+02  0.7561462E-02  0.1409198E+00
          2   -1    0    0  501    0  0.00000000000E+00  0.00000000000E+00  0.15184945943E+03  0.15184945943E+03  0.00000000000E+00 0. -1.
         -2   -1    0    0    0  501 -0.00000000000E+00 -0.00000000000E+00 -0.83410736096E+02  0.83410736096E+02  0.00000000000E+00 0.  1.
         25    2    1    2    0    0  0.25625197214E+02 -0.18549400844E+02  0.35314882885E+02  0.13377410308E+03  0.12509052202E+03 0.  0.
         23    2    1    2    0    0 -0.25625197214E+02  0.18549400844E+02  0.33123840444E+02  0.10148609244E+03  0.90562172834E+02 0.  0.
          5    1    3    3  502    0 -0.13034771284E+01  0.13110907579E+02 -0.42916937410E+02  0.45088034630E+02  0.41800000000E+01 0. -1.
         -5    1    3    3    0  502  0.26928674342E+02 -0.31660308423E+02  0.78231820295E+02  0.88686068455E+02  0.41800000000E+01 0. -1.
        -11    1    4    4    0    0  0.12756916174E+02 -0.54613613000E+01  0.50967604466E+02  0.52822931408E+02  0.00000000000E+00 0. -1.
         11    1    4    4    0    0 -0.38382113388E+02  0.24010762144E+02 -0.17843764022E+02  0.48663161029E+02  0.00000000000E+00 0.  1.
</event>
<event>
 8    1  0.7103328E-009  0.9666823E+02  0.7561462E-02  0.1287462E+00
         -1   -1    0    0    0  501 -0.00000000000E+00  0.00000000000E+00  0.94686277414E+02  0.94686277414E+02  0.00000000000E+00 0.  1.
          1   -1    0    0  501    0  0.00000000000E+00 -0.00000000000E+00 -0.17348606735E+03  0.17348606735E+03  0.00000000000E+00 0. -1.
         25    2    1    2    0    0 -0.36259358673E+02 -0.72084481953E+01 -0.97179258393E+02  0.16264896677E+03  0.12507667773E+03 0.  0.
         23    2    1    2    0    0  0.36259358673E+02  0.72084481953E+01  0.18379468458E+02  0.10552337800E+03  0.97111665758E+02 0.  0.
          5    1    3    3  502    0 -0.34822808981E+02  0.50432786918E+02 -0.16883516437E+02  0.63707295885E+02  0.41800000000E+01 0.  1.
         -5    1    3    3    0  502 -0.14365496913E+01 -0.57641235114E+02 -0.80295741956E+02  0.98941670881E+02  0.41800000000E+01 0.  1.
        -11    1    4    4    0    0 -0.12310184470E+02  0.20347286375E+02 -0.28247498096E+02  0.36925246827E+02  0.00000000000E+00 0. -1.
         11    1    4    4    0    0  0.48569543143E+02 -0.13138838180E+02  0.46626966554E+02  0.68598131169E+02  0.00000000000E+00 0.  1.
</event>
<event>
 8    1  0.7103328E-009  0.7083080E+02  0.7561462E-02  0.1357290E+00
          1   -1    0    0  501    0  0.00000000000E+00  0.00000000000E+00  0.11690463478E+03  0.11690463478E+03  0.00000000000E+00 0. -1.
         -1   -1    0    0    0  501 -0.00000000000E+00 -0.00000000000E+00 -0.11030137965E+03  0.11030137965E+03  0.00000000000E+00 0.  1.
         25    2    1    2    0    0 -0.31225809390E+01 -0.38943253849E+02  0.42917356301E+01  0.13113110059E+03  0.12510243409E+03 0.  0.
         23    2    1    2    0    0  0.31225809390E+01  0.38943253849E+02  0.23115194987E+01  0.96074913840E+02  0.87742341061E+02 0.  0.
          5    1    3    3  502    0 -0.21246808203E+02 -0.65207134221E+02  0.42797113901E+02  0.80947282662E+02  0.41800000000E+01 0. -1.
         -5    1    3    3    0  502  0.18124227264E+02  0.26263880372E+02 -0.38505378271E+02  0.50183817928E+02  0.41800000000E+01 0. -1.
        -11    1    4    4    0    0  0.59415242683E+01  0.95883827795E+01  0.43768805119E+02  0.45198972295E+02  0.00000000000E+00 0. -1.
         11    1    4    4    0    0 -0.28189433292E+01  0.29354871070E+02 -0.41457285621E+02  0.50875941545E+02  0.00000000000E+00 0.  1.
</event>
<event>
 8    1  0.7103328E-009  0.1091177E+03  0.7561462E-02  0.1262213E+00
         -2   -1    0    0    0  501 -0.00000000000E+00  0.00000000000E+00  0.17666443698E+03  0.17666443698E+03  0.00000000000E+00 0. -1.
          2   -1    0    0  501    0  0.00000000000E+00 -0.00000000000E+00 -0.10340820555E+03  0.10340820555E+03  0.00000000000E+00 0.  1.
         25    2    1    2    0    0 -0.39054285802E+02 -0.54608510241E+02 -0.40064468736E+01  0.14202461749E+03  0.12509042220E+03 0.  0.
         23    2    1    2    0    0  0.39054285802E+02  0.54608510241E+02  0.77262678308E+02  0.13804802504E+03  0.92630497831E+02 0.  0.
          5    1    3    3  502    0 -0.69167078650E+02 -0.41198309603E+02  0.37454755859E+02  0.88891600388E+02  0.41800000000E+01 0. -1.
         -5    1    3    3    0  502  0.30112792848E+02 -0.13410200638E+02 -0.41461202732E+02  0.53133017101E+02  0.41800000000E+01 0. -1.
        -11    1    4    4    0    0  0.63824988331E+02  0.43535740436E+02  0.28696511553E+02  0.82416500812E+02  0.00000000000E+00 0.  1.
         11    1    4    4    0    0 -0.24770702529E+02  0.11072769805E+02  0.48566166755E+02  0.55631524230E+02  0.00000000000E+00 0. -1.
</event>
<event>
 8    1  0.7103328E-009  0.8831133E+02  0.7561462E-02  0.1306993E+00
          1   -1    0    0  501    0  0.00000000000E+00  0.00000000000E+00  0.33979834604E+03  0.33979834604E+03  0.00000000000E+00 0. -1.
         -1   -1    0    0    0  501 -0.00000000000E+00 -0.00000000000E+00 -0.36813966524E+02  0.36813966524E+02  0.00000000000E+00 0.  1.
         25    2    1    2    0    0 -0.35296392204E+01  0.35996694991E+01  0.22430519055E+03  0.25687587467E+03  0.12508789114E+03 0.  0.
         23    2    1    2    0    0  0.35296392204E+01 -0.35996694991E+01  0.78679188968E+02  0.11973643789E+03  0.90116501309E+02 0.  0.
          5    1    3    3  502    0  0.51053371493E+02 -0.25098385985E+01  0.17696068322E+03  0.18424250822E+03  0.41800000000E+01 0. -1.
         -5    1    3    3    0  502 -0.54583010714E+02  0.61095080975E+01  0.47344507326E+02  0.72633366449E+02  0.41800000000E+01 0. -1.
        -11    1    4    4    0    0 -0.31504639810E+02  0.94140386222E+01  0.27708204288E+00  0.32882263110E+02  0.00000000000E+00 0.  1.
         11    1    4    4    0    0  0.35034279031E+02 -0.13013708121E+02  0.78402106925E+02  0.86854174779E+02  0.00000000000E+00 0. -1.
</event>
<event>
 8    1  0.7103328E-009  0.1256745E+03  0.7561462E-02  0.1234019E+00
          1   -1    0    0  501    0  0.00000000000E+00  0.00000000000E+00  0.15962082221E+03  0.15962082221E+03  0.00000000000E+00 0.  1.
         -1   -1    0    0    0  501 -0.00000000000E+00 -0.00000000000E+00 -0.10766980643E+03  0.10766980643E+03  0.00000000000E+00 0. -1.
         25    2    1    2    0    0 -0.63272293008E+02  0.29355139301E+02  0.51761986776E+02  0.15229128473E+03  0.12509286495E+03 0.  0.
         23    2    1    2    0    0  0.63272293008E+02 -0.29355139301E+02  0.18902900118E+00  0.11499934392E+03  0.91431428427E+02 0.  0.
          5    1    3    3  502    0 -0.78360715768E+02 -0.23267965760E+02  0.52758611821E+02  0.97379379376E+02  0.41800000000E+01 0. -1.
         -5    1    3    3    0  502  0.15088422761E+02  0.52623105061E+02 -0.99662504473E+00  0.54911905350E+02  0.41800000000E+01 0. -1.
        -11    1    4    4    0    0  0.60667408652E+02  0.20981399713E+02  0.48759137816E+01  0.64378009767E+02  0.00000000000E+00 0. -1.
         11    1    4    4    0    0  0.26048843561E+01 -0.50336539014E+02 -0.46868847804E+01  0.50621334152E+02  0.00000000000E+00 0.  1.
</event>
<event>
 8    1  0.7103328E-009  0.1352901E+03  0.7561462E-02  0.1219811E+00
          4   -1    0    0  501    0  0.00000000000E+00  0.00000000000E+00  0.20320000145E+03  0.20320000145E+03  0.00000000000E+00 0. -1.
         -4   -1    0    0    0  501 -0.00000000000E+00 -0.00000000000E+00 -0.97458789470E+02  0.97458789470E+02  0.00000000000E+00 0.  1.
         25    2    1    2    0    0  0.78522590040E+02 -0.20791093674E+02  0.95526437036E+02  0.17712501639E+03  0.12509957848E+03 0.  0.
         23    2    1    2    0    0 -0.78522590040E+02  0.20791093674E+02  0.10214774949E+02  0.12353377453E+03  0.92510459412E+02 0.  0.
          5    1    3    3  502    0 -0.12284004317E+02  0.37557416978E+02  0.15326064057E+02  0.42588930153E+02  0.41800000000E+01 0. -1.
         -5    1    3    3    0  502  0.90806594357E+02 -0.58348510652E+02  0.80200372980E+02  0.13453608624E+03  0.41800000000E+01 0. -1.
        -11    1    4    4    0    0  0.17649332366E+02  0.19969583730E+02  0.56911575925E+01  0.27252017945E+02  0.00000000000E+00 0. -1.
         11    1    4    4    0    0 -0.96171922406E+02  0.82150994462E+00  0.45236173565E+01  0.96281756589E+02  0.00000000000E+00 0.  1.
</event>
<event>
 8    1  0.7103328E-009  0.1442967E+03  0.7561462E-02  0.1207662E+00
         -2   -1    0    0    0  501 -0.00000000000E+00  0.00000000000E+00  0.15852769340E+03  0.15852769340E+03  0.00000000000E+00 0.  1.
          2   -1    0    0  501    0  0.00000000000E+00 -0.00000000000E+00 -0.25949594032E+03  0.25949594032E+03  0.00000000000E+00 0. -1.
         25    2    1    2    0    0  0.51915508622E+02  0.10503882143E+03 -0.18150375630E+03  0.24964622693E+03  0.12510496005E+03 0.  0.
         23    2    1    2    0    0 -0.51915508622E+02 -0.10503882143E+03  0.80535509374E+02  0.16837740679E+03  0.90203152956E+02 0.  0.
          5    1    3    3  502    0 -0.13989437715E+02 -0.23003606709E+02 -0.31893836418E+02  0.41947103483E+02  0.41800000000E+01 0.  1.
         -5    1    3    3    0  502  0.65904946336E+02  0.12804242814E+03 -0.14960991988E+03  0.20769912345E+03  0.41800000000E+01 0.  1.
        -11    1    4    4    0    0 -0.31476185840E+02 -0.57985000129E+02 -0.75845433749E+01  0.66411865003E+02  0.00000000000E+00 0. -1.
         11    1    4    4    0    0 -0.20439322781E+02 -0.47053821303E+02  0.88120052749E+02  0.10196554178E+03  0.00000000000E+00 0.  1.
</event>
<event>
 8    1  0.7103328E-009  0.1418567E+03  0.7561462E-02  0.1210852E+00
         -1   -1    0    0    0  501 -0.00000000000E+00  0.00000000000E+00  0.11007298661E+03  0.11007298661E+03  0.00000000000E+00 0.  1.
          1   -1    0    0  501    0  0.00000000000E+00 -0.00000000000E+00 -0.29995841941E+03  0.29995841941E+03  0.00000000000E+00 0. -1.
         25    2    1    2    0    0 -0.11996105723E+03 -0.13221457383E+02 -0.19192176111E+03  0.25893648183E+03  0.12509467235E+03 0.  0.
         23    2    1    2    0    0  0.11996105723E+03  0.13221457383E+02  0.20363283120E+01  0.15109492419E+03  0.90884912366E+02 0.  0.
          5    1    3    3  502    0 -0.52883665310E+01 -0.25226171074E+02  0.86852410890E+01  0.27517854938E+02  0.41800000000E+01 0.  1.
         -5    1    3    3    0  502 -0.11467269070E+03  0.12004713690E+02 -0.20060700220E+03  0.23141862689E+03  0.41800000000E+01 0.  1.
        -11    1    4    4    0    0  0.29518473961E+02  0.38315694878E+02  0.25029579760E+02  0.54460193187E+02  0.00000000000E+00 0.  1.
         11    1    4    4    0    0  0.90442583266E+02 -0.25094237495E+02 -0.22993251448E+02  0.96634731000E+02  0.00000000000E+00 0. -1.
</event>
<event>
 8    1  0.7103328E-009  0.1155367E+03  0.7561462E-02  0.1250647E+00
          2   -1    0    0  501    0  0.00000000000E+00  0.00000000000E+00  0.22908667931E+03  0.22908667931E+03  0.00000000000E+00 0. -1.
         -2   -1    0    0    0  501 -0.00000000000E+00 -0.00000000000E+00 -0.72447178075E+02  0.72447178075E+02  0.00000000000E+00 0.  1.
         25    2    1    2    0    0  0.66349216304E+02  0.10936796079E+02  0.64797923498E+02  0.15610259999E+03  0.12508964314E+03 0.  0.
         23    2    1    2    0    0 -0.66349216304E+02 -0.10936796079E+02  0.91841577739E+02  0.14543125740E+03  0.90518192721E+02 0.  0.
          5    1    3    3  502    0  0.94786065564E+02  0.40997844978E+01  0.12162548848E+02  0.95742396317E+02  0.41800000000E+01 0.  1.
         -5    1    3    3    0  502 -0.28436849259E+02  0.68370115816E+01  0.52635374650E+02  0.60360203675E+02  0.41800000000E+01 0.  1.
        -11    1    4    4    0    0 -0.46712428709E+02 -0.46516782718E+02  0.32476789130E+02  0.73488801205E+02  0.00000000000E+00 0.  1.
         11    1    4    4    0    0 -0.19636787595E+02  0.35579986638E+02  0.59364788609E+02  0.71942456191E+02  0.00000000000E+00 0. -1.
</event>
<event>
 8    1  0.7103328E-009  0.1507946E+03  0.7561462E-02  0.1199500E+00
         -2   -1    0    0    0  501 -0.00000000000E+00  0.00000000000E+00  0.68474745177E+02  0.68474745177E+02  0.00000000000E+00 0.  1.
          2   -1    0    0  501    0  0.00000000000E+00 -0.00000000000E+00 -0.56575845457E+03  0.56575845457E+03  0.00000000000E+00 0. -1.
         25    2    1    2    0    0 -0.12611482270E+03  0.15063309276E+02 -0.94801135964E+02  0.20190087456E+03  0.12507939869E+03 0.  0.
         23    2    1    2    0    0  0.12611482270E+03 -0.15063309276E+02 -0.40248257343E+03  0.43233232519E+03  0.93739883161E+02 0.  0.
          5    1    3    3  502    0 -0.14860485469E+03  0.32927186591E+01 -0.64320599531E+02  0.16201498930E+03  0.41800000000E+01 0. -1.
         -5    1    3    3    0  502  0.22490031983E+02  0.11770590617E+02 -0.30480536433E+02  0.39885885264E+02  0.41800000000E+01 0. -1.
        -11    1    4    4    0    0  0.16876676113E+02 -0.41626868142E+01 -0.25042143464E+01  0.17561926079E+02  0.00000000000E+00 0.  1.
         11    1    4    4    0    0  0.10923814659E+03 -0.10900622462E+02 -0.39997835909E+03  0.41477039911E+03  0.00000000000E+00 0. -1.
</event>
<event>
 8    1  0.7103328E-009  0.7402979E+02  0.7561462E-02  0.1346902E+00
          2   -1    0    0  501    0  0.00000000000E+00  0.00000000000E+00  0.57961214403E+02  0.57961214403E+02  0.00000000000E+00 0. -1.
         -2   -1    0    0    0  501 -0.00000000000E+00 -0.00000000000E+00 -0.24962292355E+03  0.24962292355E+03  0.00000000000E+00 0.  1.
         25    2    1    2    0    0  0.14660503116E+01  0.42839210659E+02 -0.67957058686E+02  0.14867396117E+03  0.12509371539E+03 0.  0.
         23    2    1    2    0    0 -0.14660503116E+01 -0.42839210659E+02 -0.12370465046E+03  0.15891017679E+03  0.90068065747E+02 0.  0.
          5    1    3    3  502    0  0.33656809356E+02  0.49273491471E+02 -0.90607665034E+02  0.10857199980E+03  0.41800000000E+01 0.  1.
         -5    1    3    3    0  502 -0.32190759044E+02 -0.64342808119E+01  0.22650606348E+02  0.40101961365E+02  0.41800000000E+01 0.  1.
        -11    1    4    4    0    0 -0.17995864526E+02 -0.19323841019E+02 -0.12723880888E+03  0.12994989980E+03  0.00000000000E+00 0.  1.
         11    1    4    4    0    0  0.16529814214E+02 -0.23515369640E+02  0.35341584256E+01  0.28960276985E+02  0.00000000000E+00 0. -1.
</event>
<event>
 8    1  0.7103328E-009  0.3030888E+03  0.7561462E-02  0.1083707E+00
          1   -1    0    0  501    0  0.00000000000E+00  0.00000000000E+00  0.77432240173E+03  0.77432240173E+03  0.00000000000E+00 0. -1.
         -1   -1    0    0    0  501 -0.00000000000E+00 -0.00000000000E+00 -0.13804064852E+03  0.13804064852E+03  0.00000000000E+00 0.  1.
         25    2    1    2    0    0  0.21023446296E+03  0.20291363064E+03  0.18969280851E+03  0.37014209747E+03  0.12509732135E+03 0.  0.
         23    2    1    2    0    0 -0.21023446296E+03 -0.20291363064E+03  0.44658894470E+03  0.54222095278E+03  0.95861385317E+02 0.  0.
          5    1    3    3  502    0  0.15202625541E+03  0.90228555303E+02  0.55243763002E+02  0.18526338083E+03  0.41800000000E+01 0.  1.
         -5    1    3    3    0  502  0.58208207542E+02  0.11268507533E+03  0.13444904551E+03  0.18487871664E+03  0.41800000000E+01 0.  1.
        -11    1    4    4    0    0 -0.96406223012E+02 -0.41569046854E+02  0.11051231614E+03  0.15243069740E+03  0.00000000000E+00 0. -1.
         11    1    4    4    0    0 -0.11382823994E+03 -0.16134458378E+03  0.33607662856E+03  0.38979025538E+03  0.00000000000E+00 0.  1.
</event>
<event>
 8    1  0.7103328E-009  0.1055644E+03  0.7561462E-02  0.1269012E+00
          2   -1    0    0  501    0  0.00000000000E+00  0.00000000000E+00  0.25643306437E+03  0.25643306437E+03  0.00000000000E+00 0. -1.
         -2   -1    0    0    0  501 -0.00000000000E+00 -0.00000000000E+00 -0.61285499290E+02  0.61285499290E+02  0.00000000000E+00 0.  1.
         25    2    1    2    0    0 -0.63049046108E+02  0.63915679269E+01  0.10576112221E+03  0.17564043996E+03  0.12509242511E+03 0.  0.
         23    2    1    2    0    0  0.63049046108E+02 -0.63915679269E+01  0.89386442871E+02  0.14207812371E+03  0.90444583650E+02 0.  0.
          5    1    3    3  502    0  0.33300579909E+02 -0.21450451194E+02  0.31353256005E+02  0.50690724406E+02  0.41800000000E+01 0. -1.
         -5    1    3    3    0  502 -0.96349626017E+02  0.27842019121E+02  0.74407866209E+02  0.12494971555E+03  0.41800000000E+01 0. -1.
        -11    1    4    4    0    0  0.27275004010E+02 -0.18718821931E+02  0.97862154109E+02  0.10330208781E+03  0.00000000000E+00 0. -1.
         11    1    4    4    0    0  0.35774042098E+02  0.12327254004E+02 -0.84757112381E+01  0.38776035902E+02  0.00000000000E+00 0.  1.
</event>
<event>
 8    1  0.7103328E-009  0.1129130E+03  0.7561462E-02  0.1255269E+00
         -2   -1    0    0    0  501 -0.00000000000E+00  0.00000000000E+00  0.15470023023E+02  0.15470023023E+02  0.00000000000E+00 0.  1.
          2   -1    0    0  501    0  0.00000000000E+00 -0.00000000000E+00 -0.88910991092E+03  0.88910991092E+03  0.00000000000E+00 0. -1.
         25    2    1    2    0    0 -0.43596407756E+02  0.10336091522E+02 -0.46396702490E+03  0.48261779753E+03  0.12508819583E+03 0.  0.
         23    2    1    2    0    0  0.43596407756E+02 -0.10336091522E+02 -0.40967286300E+03  0.42196213642E+03  0.90623994268E+02 0.  0.
          5    1    3    3  502    0 -0.28314221002E+02 -0.53326554671E+02 -0.29940636805E+03  0.30546204702E+03  0.41800000000E+01 0. -1.
         -5    1    3    3    0  502 -0.15282186755E+02  0.63662646193E+02 -0.16456065685E+03  0.17715575050E+03  0.41800000000E+01 0. -1.
        -11    1    4    4    0    0  0.69746528391E+02  0.40308081419E+01 -0.31689365191E+03  0.32450333166E+03  0.00000000000E+00 0. -1.
         11    1    4    4    0    0 -0.26150120634E+02 -0.14366899664E+02 -0.92779211089E+02  0.97458804761E+02  0.00000000000E+00 0.  1.
</event>
<event>
 8    1  0.7103328E-009  0.1910757E+03  0.7561462E-02  0.1157495E+00
         -2   -1    0    0    0  501 -0.00000000000E+00  0.00000000000E+00  0.26878901256E+03  0.26878901256E+03  0.00000000000E+00 0. -1.
          2   -1    0    0  501    0  0.00000000000E+00 -0.00000000000E+00 -0.17301729849E+03  0.17301729849E+03  0.00000000000E+00 0.  1.
         25    2    1    2    0    0 -0.10935019951E+03 -0.14841753583E+03  0.49502516348E+02  0.22821840610E+03  0.12509160916E+03 0.  0.
         23    2    1    2    0    0  0.10935019951E+03  0.14841753583E+03  0.46269197721E+02  0.21358790496E+03  0.97435739917E+02 0.  0.
          5    1    3    3  502    0  0.20985580847E+01 -0.36005990794E+02 -0.33527498418E+02  0.49420652255E+02  0.41800000000E+01 0.  1.
         -5    1    3    3    0  502 -0.11144875759E+03 -0.11241154504E+03  0.83030014766E+02  0.17879775384E+03  0.41800000000E+01 0.  1.
        -11    1    4    4    0    0  0.10050257996E+03  0.11409055034E+03 -0.39763564816E+01  0.15209613298E+03  0.00000000000E+00 0. -1.
         11    1    4    4    0    0  0.88476195465E+01  0.34326985489E+02  0.50245554202E+02  0.61491771982E+02  0.00000000000E+00 0.  1.
</event>
<event>
 8    1  0.7103328E-009  0.1708488E+03  0.7561462E-02  0.1176966E+00
         -2   -1    0    0    0  501 -0.00000000000E+00  0.00000000000E+00  0.28957212844E+02  0.28957212844E+02  0.00000000000E+00 0.  1.
          2   -1    0    0  501    0  0.00000000000E+00 -0.00000000000E+00 -0.12899281925E+04  0.12899281925E+04  0.00000000000E+00 0. -1.
         25    2    1    2    0    0 -0.49605607186E+02  0.13134387721E+03 -0.91905587879E+03  0.93809560377E+03  0.12509085952E+03 0.  0.
         23    2    1    2    0    0  0.49605607186E+02 -0.13134387721E+03 -0.34191510091E+03  0.38078980162E+03  0.91558759490E+02 0.  0.
          5    1    3    3  502    0 -0.58579128289E+02  0.15010452202E+03 -0.71514597692E+03  0.73308534463E+03  0.41800000000E+01 0. -1.
         -5    1    3    3    0  502  0.89735211031E+01 -0.18760644808E+02 -0.20390990187E+03  0.20501025914E+03  0.41800000000E+01 0. -1.
        -11    1    4    4    0    0  0.69244115659E+02 -0.90227006415E+02 -0.18293516240E+03  0.21540875999E+03  0.00000000000E+00 0.  1.
         11    1    4    4    0    0 -0.19638508473E+02 -0.41116870794E+02 -0.15897993851E+03  0.16538104162E+03  0.00000000000E+00 0. -1.
</event>
<event>
 8    1  0.7103328E-009  0.1343930E+03  0.7561462E-02  0.1221079E+00
          2   -1    0    0  501    0  0.00000000000E+00  0.00000000000E+00  0.10357819942E+04  0.10357819942E+04  0.00000000000E+00 0. -1.
         -2   -1    0    0    0  501 -0.00000000000E+00 -0.00000000000E+00 -0.19723229699E+02  0.19723229699E+02  0.00000000000E+00 0.  1.
         25    2    1    2    0    0  0.84070257904E+02  0.37918468871E+02  0.53387878972E+03  0.55603966128E+03  0.12509166340E+03 0.  0.
         23    2    1    2    0    0 -0.84070257904E+02 -0.37918468871E+02  0.48217997477E+03  0.49946556262E+03  0.91992943331E+02 0.  0.
          5    1    3    3  502    0  0.70047553160E+02  0.82182089598E+02  0.39669950725E+03  0.41115511308E+03  0.41800000000E+01 0.  1.
         -5    1    3    3    0  502  0.14022704744E+02 -0.44263620726E+02  0.13717928247E+03  0.14488454820E+03  0.41800000000E+01 0.  1.
        -11    1    4    4    0    0 -0.71614895915E+02  0.26503160562E+01  0.40587721598E+03  0.41215534928E+03  0.00000000000E+00 0. -1.
         11    1    4    4    0    0 -0.12455361989E+02 -0.40568784927E+02  0.76302758793E+02  0.87310213332E+02  0.00000000000E+00 0.  1.
</event>
<event>
 8    1  0.7103328E-009  0.9480465E+02  0.7561462E-02  0.1291617E+00
         -4   -1    0    0    0  501 -0.00000000000E+00  0.00000000000E+00  0.78345143156E+02  0.78345143156E+02  0.00000000000E+00 0.  1.
          4   -1    0    0  501    0  0.00000000000E+00 -0.00000000000E+00 -0.26827965861E+03  0.26827965861E+03  0.00000000000E+00 0. -1.
         25    2    1    2    0    0 -0.54181958594E+02  0.50416400249E+02 -0.17946908641E+03  0.23094135840E+03  0.12508900827E+03 0.  0.
         23    2    1    2    0    0  0.54181958594E+02 -0.50416400249E+02 -0.10465429041E+02  0.11568344337E+03  0.88292897867E+02 0.  0.
          5    1    3    3  502    0 -0.20847574707E+02  0.58741920289E+01  0.16267673494E+02  0.27408704896E+02  0.41800000000E+01 0.  1.
         -5    1    3    3    0  502 -0.33334383887E+02  0.44542208220E+02 -0.19573675991E+03  0.20353265350E+03  0.41800000000E+01 0.  1.
        -11    1    4    4    0    0 -0.15948838697E+02 -0.37089538060E+02 -0.17396843285E+02  0.43961909031E+02  0.00000000000E+00 0.  1.
         11    1    4    4    0    0  0.70130797292E+02 -0.13326862189E+02  0.69314142442E+01  0.71721534339E+02  0.00000000000E+00 0. -1.
</event>
<event>
 8    1  0.7103328E-009  0.2175397E+03  0.7561462E-02  0.1135731E+00
         -2   -1    0    0    0  501 -0.00000000000E+00  0.00000000000E+00  0.32915130090E+03  0.32915130090E+03  0.00000000000E+00 0. -1.
          2   -1    0    0  501    0  0.00000000000E+00 -0.00000000000E+00 -0.16798185836E+03  0.16798185836E+03  0.00000000000E+00 0.  1.
         25    2    1    2    0    0  0.17638579320E+03 -0.65696924190E+02  0.17612201644E+03  0.28652026840E+03  0.12508743197E+03 0.  0.
         23    2    1    2    0    0 -0.17638579320E+03  0.65696924190E+02 -0.14952573900E+02  0.21061289087E+03  0.93306893871E+02 0.  0.
          5    1    3    3  502    0  0.19600650635E+03 -0.59152104345E+02  0.16226454203E+03  0.26127528773E+03  0.41800000000E+01 0. -1.
         -5    1    3    3    0  502 -0.19620713157E+02 -0.65448198449E+01  0.13857474411E+02  0.25244980662E+02  0.41800000000E+01 0. -1.
        -11    1    4    4    0    0 -0.85019751798E+01  0.38128715676E+02  0.47107079402E+01  0.39348104279E+02  0.00000000000E+00 0.  1.
         11    1    4    4    0    0 -0.16788381802E+03  0.27568208514E+02 -0.19663281840E+02  0.17126478659E+03  0.00000000000E+00 0. -1.
</event>
<event>
 8    1  0.7103328E-009  0.1071890E+03  0.7561462E-02  0.1265866E+00
         -2   -1    0    0    0  501 -0.00000000000E+00  0.00000000000E+00  0.63966390130E+02  0.63966390130E+02  0.00000000000E+00 0.  1.
          2   -1    0    0  501    0  0.00000000000E+00 -0.00000000000E+00 -0.20160784171E+03  0.20160784171E+03  0.00000000000E+00 0. -1.
         25    2    1    2    0    0 -0.68999852196E+01 -0.20058321090E+02 -0.58274737335E+02  0.13962034831E+03  0.12509176875E+03 0.  0.
         23    2    1    2    0    0  0.68999852196E+01  0.20058321090E+02 -0.79366714243E+02  0.12595388353E+03  0.95474391357E+02 0.  0.
          5    1    3    3  502    0  0.19990251649E+02 -0.63411593929E+02 -0.58158399669E+02  0.88433660207E+02  0.41800000000E+01 0. -1.
         -5    1    3    3    0  502 -0.26890236869E+02  0.43353272839E+02 -0.11633766655E+00  0.51186688105E+02  0.41800000000E+01 0. -1.
        -11    1    4    4    0    0 -0.41501975386E+02 -0.54531492038E+01 -0.44403187887E+02  0.61022896454E+02  0.00000000000E+00 0. -1.
         11    1    4    4    0    0  0.48401960606E+02  0.25511470294E+02 -0.34963526356E+02  0.64930987073E+02  0.00000000000E+00 0.  1.
</event>
<event>
 8    1  0.7103328E-009  0.1046943E+03  0.7561462E-02  0.1270723E+00
         -2   -1    0    0    0  501 -0.00000000000E+00  0.00000000000E+00  0.17513374760E+02  0.17513374760E+02  0.00000000000E+00 0.  1.
          2   -1    0    0  501    0  0.00000000000E+00 -0.00000000000E+00 -0.14844982583E+04  0.14844982583E+04  0.00000000000E+00 0. -1.
         25    2    1    2    0    0  0.12091952885E+02 -0.44177482055E+02 -0.12626030829E+04  0.12696105750E+04  0.12508637840E+03 0.  0.
         23    2    1    2    0    0 -0.12091952885E+02  0.44177482055E+02 -0.20438180066E+03  0.23240105804E+03  0.10069988129E+03 0.  0.
          5    1    3    3  502    0 -0.28331859824E+02 -0.52225793043E+02 -0.28636251133E+03  0.29249134694E+03  0.41800000000E+01 0.  1.
         -5    1    3    3    0  502  0.40423812709E+02  0.80483109882E+01 -0.97624057156E+03  0.97711922809E+03  0.41800000000E+01 0.  1.
        -11    1    4    4    0    0 -0.52647078405E+02  0.65101171396E+01 -0.12331462972E+03  0.13424080748E+03  0.00000000000E+00 0.  1.
         11    1    4    4    0    0  0.40555125520E+02  0.37667364915E+02 -0.81067170939E+02  0.98160250558E+02  0.00000000000E+00 0. -1.
</event>
<event>
 8    1  0.7103328E-009  0.1142341E+03  0.7561462E-02  0.1252924E+00
          3   -1    0    0  501    0  0.00000000000E+00  0.00000000000E+00  0.41981123474E+03  0.41981123474E+03  0.00000000000E+00 0. -1.
         -3   -1    0    0    0  501 -0.00000000000E+00 -0.00000000000E+00 -0.44918962016E+02  0.44918962016E+02  0.00000000000E+00 0.  1.
         25    2    1    2    0    0 -0.20779400244E+02  0.27206919841E+02  0.32752038862E+03  0.35226239949E+03  0.12508874118E+03 0.  0.
         23    2    1    2    0    0  0.20779400244E+02 -0.27206919841E+02  0.47371884102E+02  0.11246779726E+03  0.96088032847E+02 0.  0.
          5    1    3    3  502    0  0.51162817732E+02  0.87092989697E+01  0.17469598230E+03  0.18229000093E+03  0.41800000000E+01 0. -1.
         -5    1    3    3    0  502 -0.71942217976E+02  0.18497620872E+02  0.15282440632E+03  0.16997239856E+03  0.41800000000E+01 0. -1.
        -11    1    4    4    0    0 -0.34965052913E+02  0.82644981613E+01  0.17083085463E+02  0.39783019794E+02  0.00000000000E+00 0.  1.
         11    1    4    4    0    0  0.55744453156E+02 -0.35471418003E+02  0.30288798639E+02  0.72684777470E+02  0.00000000000E+00 0. -1.
</event>
<event>
 8    1  0.7103328E-009  0.1091780E+03  0.7561462E-02  0.1262100E+00
          2   -1    0    0  501    0  0.00000000000E+00  0.00000000000E+00  0.78422034795E+02  0.78422034795E+02  0.00000000000E+00 0. -1.
         -2   -1    0    0    0  501 -0.00000000000E+00 -0.00000000000E+00 -0.35374228867E+03  0.35374228867E+03  0.00000000000E+00 0.  1.
         25    2    1    2    0    0  0.50494902951E+02  0.69333587688E+02 -0.31671552806E+02  0.15493999122E+03  0.12508569869E+03 0.  0.
         23    2    1    2    0    0 -0.50494902951E+02 -0.69333587688E+02 -0.24364870107E+03  0.27722433224E+03  0.10065664037E+03 0.  0.
          5    1    3    3  502    0  0.47658945706E+02  0.48507042530E+02 -0.78198443349E+02  0.10371488429E+03  0.41800000000E+01 0. -1.
         -5    1    3    3    0  502  0.28359572456E+01  0.20826545157E+02  0.46526890543E+02  0.51225106933E+02  0.41800000000E+01 0. -1.
        -11    1    4    4    0    0  0.11258117761E+02  0.18362033402E+02 -0.20969393077E+02  0.30060354825E+02  0.00000000000E+00 0. -1.
         11    1    4    4    0    0 -0.61753020713E+02 -0.87695621090E+02 -0.22267930799E+03  0.24716397742E+03  0.00000000000E+00 0.  1.
</event>
<event>
 8    1  0.7103328E-009  0.1361609E+03  0.7561462E-02  0.1218590E+00
         -2   -1    0    0    0  501 -0.00000000000E+00  0.00000000000E+00  0.40318121597E+02  0.40318121597E+02  0.00000000000E+00 0.  1.
          2   -1    0    0  501    0  0.00000000000E+00 -0.00000000000E+00 -0.58471059686E+03  0.58471059686E+03  0.00000000000E+00 0. -1.
         25    2    1    2    0    0 -0.44811955241E+02 -0.96994252841E+02 -0.33341405994E+03  0.37178833838E+03  0.12508251986E+03 0.  0.
         23    2    1    2    0    0  0.44811955241E+02  0.96994252841E+02 -0.21097841532E+03  0.25324038007E+03  0.90569321245E+02 0.  0.
          5    1    3    3  502    0  0.22202974828E+02 -0.36265626997E+02 -0.23175032198E+03  0.23565621556E+03  0.41800000000E+01 0. -1.
         -5    1    3    3    0  502 -0.67014930069E+02 -0.60728625844E+02 -0.10166373796E+03  0.13613212283E+03  0.41800000000E+01 0. -1.
        -11    1    4    4    0    0 -0.19711791522E+02  0.63239621623E+02 -0.85430336355E+02  0.10810248303E+03  0.00000000000E+00 0.  1.
         11    1    4    4    0    0  0.64523746762E+02  0.33754631217E+02 -0.12554807896E+03  0.14513789704E+03  0.00000000000E+00 0. -1.
</event>
<event>
 8    1  0.7103328E-009  0.1185999E+03  0.7561462E-02  0.1245425E+00
          1   -1    0    0  501    0  0.00000000000E+00  0.00000000000E+00  0.19895256483E+03  0.19895256483E+03  0.00000000000E+00 0. -1.
         -1   -1    0    0    0  501 -0.00000000000E+00 -0.00000000000E+00 -0.97611184163E+02  0.97611184163E+02  0.00000000000E+00 0.  1.
         25    2    1    2    0    0 -0.25217114101E+02  0.79049880404E+02  0.22001108959E+02  0.15169849299E+03  0.12507436805E+03 0.  0.
         23    2    1    2    0    0  0.25217114101E+02 -0.79049880404E+02  0.79340271713E+02  0.14486525601E+03  0.88353139432E+02 0.  0.
          5    1    3    3  502    0  0.19736300776E+02  0.82955129677E+02  0.49506210240E+02  0.98688461131E+02  0.41800000000E+01 0.  1.
         -5    1    3    3    0  502 -0.44953414877E+02 -0.39052492736E+01 -0.27505101281E+02  0.53010031857E+02  0.41800000000E+01 0.  1.
        -11    1    4    4    0    0 -0.23061869839E+02 -0.23834936533E+02 -0.45014382754E+01  0.33469642761E+02  0.00000000000E+00 0.  1.
         11    1    4    4    0    0  0.48278983941E+02 -0.55214943871E+02  0.83841709988E+02  0.11139561325E+03  0.00000000000E+00 0. -1.
</event>
<event>
 8    1  0.7103328E-009  0.1026231E+03  0.7561462E-02  0.1274875E+00
          2   -1    0    0  501    0  0.00000000000E+00  0.00000000000E+00  0.12020676009E+04  0.12020676009E+04  0.00000000000E+00 0. -1.
         -2   -1    0    0    0  501 -0.00000000000E+00 -0.00000000000E+00 -0.17245113396E+02  0.17245113396E+02  0.00000000000E+00 0.  1.
         25    2    1    2    0    0  0.62184329313E+02 -0.58425945697E+02  0.78948186516E+03  0.80387159883E+03  0.12508976793E+03 0.  0.
         23    2    1    2    0    0 -0.62184329313E+02  0.58425945697E+02  0.39534062234E+03  0.41544111547E+03  0.94955941386E+02 0.  0.
          5    1    3    3  502    0  0.12821429414E+02 -0.42061201848E+02  0.71818446701E+02  0.84314265933E+02  0.41800000000E+01 0.  1.
         -5    1    3    3    0  502  0.49362899899E+02 -0.16364743848E+02  0.71766341846E+03  0.71955733290E+03  0.41800000000E+01 0.  1.
        -11    1    4    4    0    0 -0.75878702693E+02  0.39504845160E+02  0.37447328524E+03  0.38412036092E+03  0.00000000000E+00 0.  1.
         11    1    4    4    0    0  0.13694373380E+02  0.18921100537E+02  0.20867337102E+02  0.31320754549E+02  0.00000000000E+00 0. -1.
</event>
<event>
 8    1  0.7103328E-009  0.1063083E+03  0.7561462E-02  0.1267563E+00
         -2   -1    0    0    0  501 -0.00000000000E+00  0.00000000000E+00  0.12539996920E+03  0.12539996920E+03  0.00000000000E+00 0.  1.
          2   -1    0    0  501    0  0.00000000000E+00 -0.00000000000E+00 -0.51021909256E+03  0.51021909256E+03  0.00000000000E+00 0. -1.
         25    2    1    2    0    0  0.49510398580E+02  0.35147204249E+02 -0.47381394389E+03  0.49379609631E+03  0.12509326830E+03 0.  0.
         23    2    1    2    0    0 -0.49510398580E+02 -0.35147204249E+02  0.88994820531E+02  0.14182296545E+03  0.92233778597E+02 0.  0.
          5    1    3    3  502    0 -0.34193691877E+02  0.60139614902E+01 -0.51422602890E+02  0.62186274892E+02  0.41800000000E+01 0.  1.
         -5    1    3    3    0  502  0.83704090457E+02  0.29133242759E+02 -0.42239134100E+03  0.43160982142E+03  0.41800000000E+01 0.  1.
        -11    1    4    4    0    0 -0.26871026179E+02 -0.53438774420E+02  0.94849425692E+02  0.11213459865E+03  0.00000000000E+00 0.  1.
         11    1    4    4    0    0 -0.22639372401E+02  0.18291570172E+02 -0.58546051605E+01  0.29688366807E+02  0.00000000000E+00 0. -1.
</event>
<event>
 8    1  0.7103328E-009  0.1834162E+03  0.7561462E-02  0.1164537E+00
         -2   -1    0    0    0  501 -0.00000000000E+00  0.00000000000E+00  0.46940548120E+02  0.46940548120E+02  0.00000000000E+00 0.  1.
          2   -1    0    0  501    0  0.00000000000E+00 -0.00000000000E+00 -0.96538503170E+03  0.96538503170E+03  0.00000000000E+00 0. -1.
         25    2    1    2    0    0 -0.15732726367E+03  0.21457912631E+02 -0.26239097819E+03  0.33122277486E+03  0.12508873347E+03 0.  0.
         23    2    1    2    0    0  0.15732726367E+03 -0.21457912631E+02 -0.65605350538E+03  0.68110280496E+03  0.91008346262E+02 0.  0.
          5    1    3    3  502    0 -0.15523067578E+03 -0.68683531475E+01 -0.25933549023E+03  0.30235096473E+03  0.41800000000E+01 0.  1.
         -5    1    3    3    0  502 -0.20965878864E+01  0.28326265779E+02 -0.30554879641E+01  0.28871810134E+02  0.41800000000E+01 0.  1.
        -11    1    4    4    0    0  0.25121241798E+02 -0.41952634001E+02 -0.19431941360E+03  0.20037748075E+03  0.00000000000E+00 0.  1.
         11    1    4    4    0    0  0.13220602187E+03  0.20494721370E+02 -0.46173409178E+03  0.48072532421E+03  0.00000000000E+00 0. -1.
</event>
<event>
 8    1  0.7103328E-009  0.1225065E+03  0.7561462E-02  0.1239018E+00
         -2   -1    0    0    0  501 -0.00000000000E+00  0.00000000000E+00  0.21780695507E+02  0.21780695507E+02  0.00000000000E+00 0.  1.
          2   -1    0    0  501    0  0.00000000000E+00 -0.00000000000E+00 -0.11626135811E+04  0.11626135811E+04  0.00000000000E+00 0. -1.
         25    2    1    2    0    0 -0.61678005445E+02 -0.95720528250E+02 -0.66510043597E+03  0.68627365265E+03  0.12508533294E+03 0.  0.
         23    2    1    2    0    0  0.61678005445E+02  0.95720528250E+02 -0.47573244964E+03  0.49812062397E+03  0.94001045205E+02 0.  0.
          5    1    3    3  502    0 -0.66781923461E+02 -0.56902581741E+02 -0.18751455973E+03  0.20706740839E+03  0.41800000000E+01 0. -1.
         -5    1    3    3    0  502  0.51039180160E+01 -0.38817946509E+02 -0.47758587624E+03  0.47920624426E+03  0.41800000000E+01 0.  1.
        -11    1    4    4    0    0  0.35273387893E+02  0.27741912151E+02 -0.54387617178E+02  0.70511264955E+02  0.00000000000E+00 0.  1.
         11    1    4    4    0    0  0.26404617553E+02  0.67978616099E+02 -0.42134483247E+03  0.42760935902E+03  0.00000000000E+00 0. -1.
</event>
<event>
 8    1  0.7103328E-009  0.1029891E+03  0.7561462E-02  0.1274133E+00
         -1   -1    0    0    0  501 -0.00000000000E+00  0.00000000000E+00  0.11562144017E+02  0.11562144017E+02  0.00000000000E+00 0.  1.
          1   -1    0    0  501    0  0.00000000000E+00 -0.00000000000E+00 -0.11387104669E+04  0.11387104669E+04  0.00000000000E+00 0. -1.
         25    2    1    2    0    0  0.21270150170E+02 -0.59211825361E+00 -0.80152369720E+03  0.81150461749E+03  0.12508691835E+03 0.  0.
         23    2    1    2    0    0 -0.21270150170E+02  0.59211825361E+00 -0.32562462565E+03  0.33876799339E+03  0.90992233875E+02 0.  0.
          5    1    3    3  502    0 -0.26327310075E+02  0.50125825913E+02 -0.39336175740E+03  0.39743763066E+03  0.41800000000E+01 0. -1.
         -5    1    3    3    0  502  0.47597460245E+02 -0.50717944166E+02 -0.40816193980E+03  0.41406698683E+03  0.41800000000E+01 0. -1.
        -11    1    4    4    0    0  0.18736234619E+02  0.26062806846E+02 -0.52339873419E+02  0.61398523907E+02  0.00000000000E+00 0.  1.
         11    1    4    4    0    0 -0.40006384789E+02 -0.25470688592E+02 -0.27328475223E+03  0.27736946949E+03  0.00000000000E+00 0. -1.
</event>
<event>
 8    1  0.7103328E-009  0.1397922E+03  0.7561462E-02  0.1213609E+00
          2   -1    0    0  501    0  0.00000000000E+00  0.00000000000E+00  0.15046462407E+03  0.15046462407E+03  0.00000000000E+00 0. -1.
         -2   -1    0    0    0  501 -0.00000000000E+00 -0.00000000000E+00 -0.16162923431E+03  0.16162923431E+03  0.00000000000E+00 0.  1.
         25    2    1    2    0    0 -0.71327262454E+02 -0.56221746499E+02  0.60390043806E+02  0.16595779872E+03  0.12508625191E+03 0.  0.
         23    2    1    2    0    0  0.71327262454E+02  0.56221746499E+02 -0.71554654052E+02  0.14613605965E+03  0.89371227279E+02 0.  0.
          5    1    3    3  502    0 -0.43131553227E+02  0.35609617484E+02  0.85983452428E+01  0.56743102507E+02  0.41800000000E+01 0. -1.
         -5    1    3    3    0  502 -0.28195709227E+02 -0.91831363983E+02  0.51791698564E+02  0.10921469622E+03  0.41800000000E+01 0. -1.
        -11    1    4    4    0    0 -0.44915749981E+01  0.51158640130E+02 -0.26386710591E+02  0.57737675756E+02  0.00000000000E+00 0. -1.
         11    1    4    4    0    0  0.75818837453E+02  0.50631063686E+01 -0.45167943461E+02  0.88398383895E+02  0.00000000000E+00 0.  1.
</event>
<event>
 8    1  0.7103328E-009  0.1756377E+03  0.7561462E-02  0.1172093E+00
         -2   -1    0    0    0  501 -0.00000000000E+00  0.00000000000E+00  0.13608865974E+03  0.13608865974E+03  0.00000000000E+00 0.  1.
          2   -1    0    0  501    0  0.00000000000E+00 -0.00000000000E+00 -0.36496739386E+03  0.36496739386E+03  0.00000000000E+00 0. -1.
         25    2    1    2    0    0 -0.61115855840E+02 -0.13963890524E+03  0.17185423994E+02  0.19793677616E+03  0.12509778922E+03 0.  0.
         23    2    1    2    0    0  0.61115855840E+02  0.13963890524E+03 -0.24606415811E+03  0.30311927745E+03  0.89997526428E+02 0.  0.
          5    1    3    3  502    0 -0.58115173776E+02 -0.28828498072E+02 -0.36657381068E+02  0.74630367216E+02  0.41800000000E+01 0.  1.
         -5    1    3    3    0  502 -0.30006820640E+01 -0.11081040716E+03  0.53842805062E+02  0.12330640894E+03  0.41800000000E+01 0.  1.
        -11    1    4    4    0    0  0.63496165760E+02  0.38676647235E+02 -0.84126918490E+02  0.11227192223E+03  0.00000000000E+00 0. -1.
         11    1    4    4    0    0 -0.23803099203E+01  0.10096225800E+03 -0.16193723962E+03  0.19084735521E+03  0.00000000000E+00 0.  1.
</event>
<event>
 8    1  0.7103328E-009  0.1048866E+03  0.7561462E-02  0.1270343E+00
          1   -1    0    0  501    0  0.00000000000E+00  0.00000000000E+00  0.14446442669E+03  0.14446442669E+03  0.00000000000E+00 0. -1.
         -1   -1    0    0    0  501 -0.00000000000E+00 -0.00000000000E+00 -0.89896207337E+02  0.89896207337E+02  0.00000000000E+00 0.  1.
         25    2    1    2    0    0  0.34206498859E+02 -0.34337832468E+01  0.56366384774E+02  0.14144490821E+03  0.12509043647E+03 0.  0.
         23    2    1    2    0    0 -0.34206498859E+02  0.34337832468E+01 -0.17981654258E+01  0.92915725807E+02  0.86303089584E+02 0.  0.
          5    1    3    3  502    0  0.87229260935E+01 -0.62161396867E+02  0.13659035502E+02  0.64375230881E+02  0.41800000000E+01 0.  1.
         -5    1    3    3    0  502  0.25483572766E+02  0.58727613620E+02  0.42707349272E+02  0.77069677334E+02  0.41800000000E+01 0.  1.
        -11    1    4    4    0    0 -0.16155590996E+02  0.39335995315E+02 -0.22066658338E+02  0.47908882872E+02  0.00000000000E+00 0.  1.
         11    1    4    4    0    0 -0.18050907864E+02 -0.35902212068E+02  0.20268492912E+02  0.45006842935E+02  0.00000000000E+00 0. -1.
</event>
<event>
 8    1  0.7103328E-009  0.2001393E+03  0.7561462E-02  0.1149622E+00
          1   -1    0    0  501    0  0.00000000000E+00  0.00000000000E+00  0.13643075317E+04  0.13643075317E+04  0.00000000000E+00 0. -1.
         -1   -1    0    0    0  501 -0.00000000000E+00 -0.00000000000E+00 -0.31763335064E+02  0.31763335064E+02  0.00000000000E+00 0.  1.
         25    2    1    2    0    0  0.16968530253E+03  0.45050539618E+02  0.61358826106E+03  0.65035516130E+03  0.12509447914E+03 0.  0.
         23    2    1    2    0    0 -0.16968530253E+03 -0.45050539618E+02  0.71895593556E+03  0.74571570544E+03  0.91496573976E+02 0.  0.
          5    1    3    3  502    0  0.14450239715E+03  0.80626954550E+02  0.41082846126E+03  0.44292115051E+03  0.41800000000E+01 0.  1.
         -5    1    3    3    0  502  0.25182905381E+02 -0.35576414932E+02  0.20275979979E+03  0.20743401080E+03  0.41800000000E+01 0.  1.
        -11    1    4    4    0    0 -0.10690361095E+02 -0.29302271177E+02  0.59490362451E+02  0.67171497982E+02  0.00000000000E+00 0.  1.
         11    1    4    4    0    0 -0.15899494144E+03 -0.15748268441E+02  0.65946557310E+03  0.67854420746E+03  0.00000000000E+00 0. -1.
</event>
<event>
 8    1  0.7103328E-009  0.1080424E+03  0.7561462E-02  0.1264239E+00
          1   -1    0    0  501    0  0.00000000000E+00  0.00000000000E+00  0.46413143166E+03  0.46413143166E+03  0.00000000000E+00 0. -1.
         -1   -1    0    0    0  501 -0.00000000000E+00 -0.00000000000E+00 -0.40516441592E+02  0.40516441592E+02  0.00000000000E+00 0.  1.
         25    2    1    2    0    0  0.39953732258E+02 -0.71007405641E+02  0.21545107841E+03  0.26211559011E+03  0.12508822092E+03 0.  0.
         23    2    1    2    0    0 -0.39953732258E+02  0.71007405641E+02  0.20816391166E+03  0.24253228314E+03  0.94081570314E+02 0.  0.
          5    1    3    3  502    0  0.34993228268E+02 -0.19478920398E+02 -0.23216412930E+00  0.40267613099E+02  0.41800000000E+01 0. -1.
         -5    1    3    3    0  502  0.49605039896E+01 -0.51528485243E+02  0.21568324254E+03  0.22184797701E+03  0.41800000000E+01 0. -1.
        -11    1    4    4    0    0  0.34702666571E+01  0.79550639764E+02  0.14468670371E+03  0.16515020214E+03  0.00000000000E+00 0. -1.
         11    1    4    4    0    0 -0.43423998915E+02 -0.85432341228E+01  0.63477207951E+02  0.77382081003E+02  0.00000000000E+00 0.  1.
</event>
<event>
 8    1  0.7103328E-009  0.1853782E+03  0.7561462E-02  0.1162697E+00
          1   -1    0    0  501    0  0.00000000000E+00  0.00000000000E+00  0.58006553215E+03  0.58006553215E+03  0.00000000000E+00 0. -1.
         -1   -1    0    0    0  501 -0.00000000000E+00 -0.00000000000E+00 -0.69287574747E+02  0.69287574747E+02  0.00000000000E+00 0.  1.
         25    2    1    2    0    0  0.16649732538E+03 -0.29564723753E+02  0.24352336261E+03  0.32178708033E+03  0.12509142528E+03 0.  0.
         23    2    1    2    0    0 -0.16649732538E+03  0.29564723753E+02  0.26725459480E+03  0.32756602657E+03  0.85317355049E+02 0.  0.
          5    1    3    3  502    0 -0.11753069145E+02  0.59817160273E+01  0.66884918153E+02  0.68300660592E+02  0.41800000000E+01 0. -1.
         -5    1    3    3    0  502  0.17825039453E+03 -0.35546439780E+02  0.17663844446E+03  0.25348641974E+03  0.41800000000E+01 0. -1.
        -11    1    4    4    0    0 -0.73608172538E+02 -0.97430565781E+01  0.54473743041E+02  0.92089515672E+02  0.00000000000E+00 0.  1.
         11    1    4    4    0    0 -0.92889152847E+02  0.39307780331E+02  0.21278085175E+03  0.23547651090E+03  0.00000000000E+00 0. -1.
</event>
<event>
 8    1  0.7103328E-009  0.1153431E+03  0.7561462E-02  0.1250983E+00
          1   -1    0    0  501    0  0.00000000000E+00  0.00000000000E+00  0.40600799757E+02  0.40600799757E+02  0.00000000000E+00 0. -1.
         -1   -1    0    0    0  501 -0.00000000000E+00 -0.00000000000E+00 -0.35630495577E+03  0.35630495577E+03  0.00000000000E+00 0.  1.
         25    2    1    2    0    0 -0.47960594018E+02 -0.18066710603E+02 -0.19661350357E+03  0.23860101502E+03  0.12508776908E+03 0.  0.
         23    2    1    2    0    0  0.47960594018E+02  0.18066710603E+02 -0.11909065245E+03  0.15830474051E+03  0.90836021251E+02 0.  0.
          5    1    3    3  502    0 -0.32386453735E+02  0.48237119168E+02 -0.49537511366E+02  0.76466590637E+02  0.41800000000E+01 0. -1.
         -5    1    3    3    0  502 -0.15574140283E+02 -0.66303829771E+02 -0.14707599220E+03  0.16213442438E+03  0.41800000000E+01 0. -1.
        -11    1    4    4    0    0  0.22291170762E+02  0.54928716772E+02 -0.64336671589E+02  0.87482955661E+02  0.00000000000E+00 0.  1.
         11    1    4    4    0    0  0.25669423257E+02 -0.36862006169E+02 -0.54753980856E+02  0.70821784846E+02  0.00000000000E+00 0. -1.
</event>
<event>
 8    1  0.7103328E-009  0.7023276E+02  0.7561462E-02  0.1359303E+00
          1   -1    0    0  501    0  0.00000000000E+00  0.00000000000E+00  0.34088817257E+03  0.34088817257E+03  0.00000000000E+00 0. -1.
         -1   -1    0    0    0  501 -0.00000000000E+00 -0.00000000000E+00 -0.36490460864E+02  0.36490460864E+02  0.00000000000E+00 0.  1.
         25    2    1    2    0    0  0.27846606873E+02 -0.52726729491E+01  0.19832272726E+03  0.23618476514E+03  0.12509238404E+03 0.  0.
         23    2    1    2    0    0 -0.27846606873E+02  0.52726729491E+01  0.10607498445E+03  0.14119386829E+03  0.88772583172E+02 0.  0.
          5    1    3    3  502    0  0.12688075574E+02 -0.22055405627E+02 -0.92104028300E+01  0.27381236265E+02  0.41800000000E+01 0. -1.
         -5    1    3    3    0  502  0.15158531299E+02  0.16782732678E+02  0.20753313009E+03  0.20880352888E+03  0.41800000000E+01 0. -1.
        -11    1    4    4    0    0  0.30998378611E+02 -0.64953422151E+01  0.49208035232E+02  0.58519395746E+02  0.00000000000E+00 0. -1.
         11    1    4    4    0    0 -0.58844985484E+02  0.11768015164E+02  0.56866949216E+02  0.82674472545E+02  0.00000000000E+00 0.  1.
</event>
<event>
 8    1  0.7103328E-009  0.1556683E+03  0.7561462E-02  0.1193676E+00
          2   -1    0    0  501    0  0.00000000000E+00  0.00000000000E+00  0.61839612593E+03  0.61839612593E+03  0.00000000000E+00 0. -1.
         -2   -1    0    0    0  501 -0.00000000000E+00 -0.00000000000E+00 -0.46844443885E+02  0.46844443885E+02  0.00000000000E+00 0.  1.
         25    2    1    2    0    0  0.11817643217E+03  0.92304460765E+01  0.19977059107E+03  0.26383393488E+03  0.12509670613E+03 0.  0.
         23    2    1    2    0    0 -0.11817643217E+03 -0.92304460765E+01  0.37178109098E+03  0.40140663494E+03  0.94102267280E+02 0.  0.
          5    1    3    3  502    0  0.11420298023E+03  0.49029718047E+02  0.18062967518E+03  0.21929611465E+03  0.41800000000E+01 0. -1.
         -5    1    3    3    0  502  0.39734519415E+01 -0.39799271971E+02  0.19140915885E+02  0.44537820228E+02  0.41800000000E+01 0. -1.
        -11    1    4    4    0    0 -0.15196468405E+02  0.32325969470E+02  0.53671609986E+02  0.64471254623E+02  0.00000000000E+00 0. -1.
         11    1    4    4    0    0 -0.10297996376E+03 -0.41556415547E+02  0.31810948099E+03  0.33693538031E+03  0.00000000000E+00 0.  1.
</event>
<event>
 8    1  0.7103328E-009  0.8809974E+02  0.7561462E-02  0.1307520E+00
         -1   -1    0    0    0  501 -0.00000000000E+00  0.00000000000E+00  0.33004029207E+03  0.33004029207E+03  0.00000000000E+00 0.  1.
          1   -1    0    0  501    0  0.00000000000E+00 -0.00000000000E+00 -0.41859193278E+02  0.41859193278E+02  0.00000000000E+00 0. -1.
         25    2    1    2    0    0 -0.23392464623E+02 -0.16821490098E+02  0.10742806892E+03  0.16738462709E+03  0.12508658388E+03 0.  0.
         23    2    1    2    0    0  0.23392464623E+02  0.16821490098E+02  0.18075302987E+03  0.20451485825E+03  0.91238695228E+02 0.  0.
          5    1    3    3  502    0  0.45717603287E+02  0.15773618307E+02  0.23919076999E+02  0.54115625555E+02  0.41800000000E+01 0. -1.
         -5    1    3    3    0  502 -0.69110067910E+02 -0.32595108404E+02  0.83508991917E+02  0.11326900154E+03  0.41800000000E+01 0. -1.
        -11    1    4    4    0    0 -0.82670654169E+01  0.17618992993E+02 -0.15102692129E+01  0.19520609565E+02  0.00000000000E+00 0. -1.
         11    1    4    4    0    0  0.31659530040E+02 -0.79750289537E+00  0.18226329909E+03  0.18499424869E+03  0.00000000000E+00 0.  1.
</event>
<event>
 8    1  0.7103328E-009  0.1528990E+03  0.7561462E-02  0.1196955E+00
         -1   -1    0    0    0  501 -0.00000000000E+00  0.00000000000E+00  0.26151996561E+03  0.26151996561E+03  0.00000000000E+00 0.  1.
          1   -1    0    0  501    0  0.00000000000E+00 -0.00000000000E+00 -0.12422572810E+03  0.12422572810E+03  0.00000000000E+00 0. -1.
         25    2    1    2    0    0  0.13323292043E+03 -0.50553807458E+02  0.93843517164E+02  0.21156042443E+03  0.12507801140E+03 0.  0.
         23    2    1    2    0    0 -0.13323292043E+03  0.50553807458E+02  0.43450720342E+02  0.17418526928E+03  0.90254331754E+02 0.  0.
          5    1    3    3  502    0  0.10508609586E+03 -0.43218165664E+02  0.12483275506E+03  0.16885374299E+03  0.41800000000E+01 0. -1.
         -5    1    3    3    0  502  0.28146824575E+02 -0.73356417939E+01 -0.30989237895E+02  0.42706681439E+02  0.41800000000E+01 0. -1.
        -11    1    4    4    0    0 -0.85977875654E+02 -0.92666204377E+01  0.45920376510E+02  0.97911931526E+02  0.00000000000E+00 0.  1.
         11    1    4    4    0    0 -0.47255044781E+02  0.59820427895E+02 -0.24696561678E+01  0.76273337756E+02  0.00000000000E+00 0. -1.
</event>
<event>
 8    1  0.7103328E-009  0.1007971E+03  0.7561462E-02  0.1278629E+00
          1   -1    0    0  501    0  0.00000000000E+00  0.00000000000E+00  0.37276030382E+02  0.37276030382E+02  0.00000000000E+00 0. -1.
         -1   -1    0    0    0  501 -0.00000000000E+00 -0.00000000000E+00 -0.43155836722E+03  0.43155836722E+03  0.00000000000E+00 0.  1.
         25    2    1    2    0    0  0.13614416162E+02  0.60063228801E+02 -0.26656794426E+03  0.30083161056E+03  0.12509294635E+03 0.  0.
         23    2    1    2    0    0 -0.13614416162E+02 -0.60063228801E+02 -0.12771439258E+03  0.16800278704E+03  0.90116738733E+02 0.  0.
          5    1    3    3  502    0 -0.28058860734E+02  0.47819481551E+02 -0.24669639840E+03  0.25288453465E+03  0.41800000000E+01 0. -1.
         -5    1    3    3    0  502  0.41673276896E+02  0.12243747250E+02 -0.19871545862E+02  0.47947075917E+02  0.41800000000E+01 0. -1.
        -11    1    4    4    0    0 -0.47007460302E+02 -0.47078949212E+02 -0.10869455322E+03  0.12743874875E+03  0.00000000000E+00 0.  1.
         11    1    4    4    0    0  0.33393044140E+02 -0.12984279590E+02 -0.19019839365E+02  0.40564038296E+02  0.00000000000E+00 0. -1.
</event>
<event>
 8    1  0.7103328E-009  0.1792845E+03  0.7561462E-02  0.1168497E+00
          2   -1    0    0  501    0  0.00000000000E+00  0.00000000000E+00  0.75990321254E+02  0.75990321254E+02  0.00000000000E+00 0. -1.
         -2   -1    0    0    0  501 -0.00000000000E+00 -0.00000000000E+00 -0.58311373105E+03  0.58311373105E+03  0.00000000000E+00 0.  1.
         25    2    1    2    0    0  0.13490433356E+03 -0.10909333892E+03 -0.18786674194E+03  0.28467561816E+03  0.12508300860E+03 0.  0.
         23    2    1    2    0    0 -0.13490433356E+03  0.10909333892E+03 -0.31925666786E+03  0.37442843415E+03  0.90395223951E+02 0.  0.
          5    1    3    3  502    0  0.13052284086E+03 -0.87380927537E+02 -0.20360425983E+03  0.25718438037E+03  0.41800000000E+01 0. -1.
         -5    1    3    3    0  502  0.43814927016E+01 -0.21712411378E+02  0.15737517891E+02  0.27491237795E+02  0.41800000000E+01 0. -1.
        -11    1    4    4    0    0 -0.62697663537E+02  0.23594622641E+02 -0.52379136229E+02  0.85036916352E+02  0.00000000000E+00 0. -1.
         11    1    4    4    0    0 -0.72206670028E+02  0.85498716274E+02 -0.26687753163E+03  0.28939151779E+03  0.00000000000E+00 0.  1.
</event>
<event>
 8    1  0.7103328E-009  0.7515027E+02  0.7561462E-02  0.1343406E+00
         -2   -1    0    0    0  501 -0.00000000000E+00  0.00000000000E+00  0.17119738278E+03  0.17119738278E+03  0.00000000000E+00 0.  1.
          2   -1    0    0  501    0  0.00000000000E+00 -0.00000000000E+00 -0.75360999328E+02  0.75360999328E+02  0.00000000000E+00 0. -1.
         25    2    1    2    0    0 -0.26168550375E+02 -0.24865071210E+02  0.61327636077E+02  0.14391346895E+03  0.12508774043E+03 0.  0.
         23    2    1    2    0    0  0.26168550375E+02  0.24865071210E+02  0.34508747377E+02  0.10264491315E+03  0.89677532057E+02 0.  0.
          5    1    3    3  502    0 -0.14400860916E+02  0.11974782403E+02 -0.35062449515E+02  0.39970338687E+02  0.41800000000E+01 0. -1.
         -5    1    3    3    0  502 -0.11767689459E+02 -0.36839853613E+02  0.96390085592E+02  0.10394313027E+03  0.41800000000E+01 0. -1.
        -11    1    4    4    0    0  0.37567508476E+02 -0.22300754154E+02  0.31818236339E+02  0.54046660329E+02  0.00000000000E+00 0.  1.
         11    1    4    4    0    0 -0.11398958101E+02  0.47165825364E+02  0.26905110375E+01  0.48598252825E+02  0.00000000000E+00 0. -1.
</event>
<event>
 8    1  0.7103328E-009  0.1799679E+03  0.7561462E-02  0.1167834E+00
         -1   -1    0    0    0  501 -0.00000000000E+00  0.00000000000E+00  0.13298978279E+03  0.13298978279E+03  0.00000000000E+00 0.  1.
          1   -1    0    0  501    0  0.00000000000E+00 -0.00000000000E+00 -0.27063126699E+03  0.27063126699E+03  0.00000000000E+00 0. -1.
         25    2    1    2    0    0  0.57161221100E+02  0.14204448346E+03 -0.94514393892E+02  0.21914506402E+03  0.12509015930E+03 0.  0.
         23    2    1    2    0    0 -0.57161221100E+02 -0.14204448346E+03 -0.43127090310E+02  0.18447598575E+03  0.93420570127E+02 0.  0.
          5    1    3    3  502    0 -0.10437663074E+02 -0.12701929266E+02  0.10777509370E+02  0.20097535315E+02  0.41800000000E+01 0. -1.
         -5    1    3    3    0  502  0.67598884174E+02  0.15474641272E+03 -0.10529190326E+03  0.19904752871E+03  0.41800000000E+01 0. -1.
        -11    1    4    4    0    0  0.80920365125E+01 -0.90599144503E+02 -0.44737673911E+02  0.10136639239E+03  0.00000000000E+00 0.  1.
         11    1    4    4    0    0 -0.65253257613E+02 -0.51445338955E+02  0.16105836014E+01  0.83109593362E+02  0.00000000000E+00 0. -1.
</event>
<event>
 8    1  0.7103328E-009  0.1024643E+03  0.7561462E-02  0.1275198E+00
         -2   -1    0    0    0  501 -0.00000000000E+00  0.00000000000E+00  0.51744059699E+02  0.51744059699E+02  0.00000000000E+00 0.  1.
          2   -1    0    0  501    0  0.00000000000E+00 -0.00000000000E+00 -0.39237329025E+03  0.39237329025E+03  0.00000000000E+00 0. -1.
         25    2    1    2    0    0  0.46844904428E+02  0.21324710639E+02 -0.30990906020E+03  0.33814301848E+03  0.12509151450E+03 0.  0.
         23    2    1    2    0    0 -0.46844904428E+02 -0.21324710639E+02 -0.30720170358E+02  0.10597433147E+03  0.87393602225E+02 0.  0.
          5    1    3    3  502    0  0.32549170582E+02  0.56488709748E+02 -0.28536495217E+03  0.29274741871E+03  0.41800000000E+01 0. -1.
         -5    1    3    3    0  502  0.14295733846E+02 -0.35163999109E+02 -0.24544108028E+02  0.45395599769E+02  0.41800000000E+01 0. -1.
        -11    1    4    4    0    0 -0.72541291427E+02 -0.96263920820E+01 -0.21409441208E+02  0.76244806769E+02  0.00000000000E+00 0. -1.
         11    1    4    4    0    0  0.25696386999E+02 -0.11698318557E+02 -0.93107291498E+01  0.29729524705E+02  0.00000000000E+00 0.  1.
</event>
<event>
 8    1  0.7103328E-009  0.1019731E+03  0.7561462E-02  0.1276201E+00
         -2   -1    0    0    0  501 -0.00000000000E+00  0.00000000000E+00  0.20351587977E+02  0.20351587977E+02  0.00000000000E+00 0.  1.
          2   -1    0    0  501    0  0.00000000000E+00 -0.00000000000E+00 -0.77831866629E+03  0.77831866629E+03  0.00000000000E+00 0. -1.
         25    2    1    2    0    0  0.20127800585E+01 -0.15721960493E+02 -0.63465424952E+03  0.64705919444E+03  0.12509337854E+03 0.  0.
         23    2    1    2    0    0 -0.20127800585E+01  0.15721960493E+02 -0.12331282880E+03  0.15161105983E+03  0.86767669041E+02 0.  0.
          5    1    3    3  502    0 -0.45929264510E+02  0.32285078697E+02 -0.23379508115E+03  0.24047751665E+03  0.41800000000E+01 0. -1.
         -5    1    3    3    0  502  0.47942044568E+02 -0.48007039190E+02 -0.40085916837E+03  0.40658167779E+03  0.41800000000E+01 0. -1.
        -11    1    4    4    0    0  0.17382433088E+02  0.42898881319E+02 -0.10197182534E+03  0.11198533905E+03  0.00000000000E+00 0. -1.
         11    1    4    4    0    0 -0.19395213147E+02 -0.27176920826E+02 -0.21341003452E+02  0.39625720775E+02  0.00000000000E+00 0.  1.
</event>
<event>
 8    1  0.7103328E-009  0.1937998E+03  0.7561462E-02  0.1155078E+00
         -2   -1    0    0    0  501 -0.00000000000E+00  0.00000000000E+00  0.35462949535E+02  0.35462949535E+02  0.00000000000E+00 0.  1.
          2   -1    0    0  501    0  0.00000000000E+00 -0.00000000000E+00 -0.14021868974E+04  0.14021868974E+04  0.00000000000E+00 0. -1.
         25    2    1    2    0    0  0.79222849461E+02 -0.17148628143E+03 -0.86074624694E+03  0.89006432486E+03  0.12508635487E+03 0.  0.
         23    2    1    2    0    0 -0.79222849461E+02  0.17148628143E+03 -0.50597770092E+03  0.54758552207E+03  0.90292112367E+02 0.  0.
          5    1    3    3  502    0  0.27987420416E+02 -0.10291661602E+03 -0.69818698438E+03  0.70629856513E+03  0.41800000000E+01 0. -1.
         -5    1    3    3    0  502  0.51235429045E+02 -0.68569665412E+02 -0.16255926256E+03  0.18376575973E+03  0.41800000000E+01 0. -1.
        -11    1    4    4    0    0 -0.76546463480E+02  0.11223694325E+03 -0.24692945648E+03  0.28183443540E+03  0.00000000000E+00 0.  1.
         11    1    4    4    0    0 -0.26763859809E+01  0.59249338179E+02 -0.25904824444E+03  0.26575108666E+03  0.00000000000E+00 0. -1.
</event>
<event>
 8    1  0.7103328E-009  0.2005662E+03  0.7561462E-02  0.1149262E+00
          1   -1    0    0  501    0  0.00000000000E+00  0.00000000000E+00  0.28584318589E+03  0.28584318589E+03  0.00000000000E+00 0. -1.
         -1   -1    0    0    0  501 -0.00000000000E+00 -0.00000000000E+00 -0.27870155358E+03  0.27870155358E+03  0.00000000000E+00 0.  1.
         25    2    1    2    0    0 -0.14280105577E+03  0.13811474027E+03  0.17264102785E+03  0.29140973127E+03  0.12508750528E+03 0.  0.
         23    2    1    2    0    0  0.14280105577E+03 -0.13811474027E+03 -0.16549939555E+03  0.27313500819E+03  0.88004884897E+02 0.  0.
          5    1    3    3  502    0 -0.12554932028E+03  0.13184108817E+03  0.83559757433E+02  0.20036069928E+03  0.41800000000E+01 0.  1.
         -5    1    3    3    0  502 -0.17251735487E+02  0.62736520960E+01  0.89081270420E+02  0.91049031997E+02  0.41800000000E+01 0.  1.
        -11    1    4    4    0    0  0.13980735434E+03 -0.12765030616E+03 -0.17565073902E+03  0.25825158104E+03  0.00000000000E+00 0.  1.
         11    1    4    4    0    0  0.29937014281E+01 -0.10464434110E+02  0.10151343475E+02  0.14883427154E+02  0.00000000000E+00 0. -1.
</event>
<event>
 8    1  0.7103328E-009  0.1153742E+03  0.7561462E-02  0.1250929E+00
          2   -1    0    0  501    0  0.00000000000E+00  0.00000000000E+00  0.63571929759E+02  0.63571929759E+02  0.00000000000E+00 0. -1.
         -2   -1    0    0    0  501 -0.00000000000E+00 -0.00000000000E+00 -0.24807382282E+03  0.24807382282E+03  0.00000000000E+00 0.  1.
         25    2    1    2    0    0 -0.45634560418E+02  0.40804062270E+02 -0.84955507364E+02  0.16313426480E+03  0.12509142864E+03 0.  0.
         23    2    1    2    0    0  0.45634560418E+02 -0.40804062270E+02 -0.99546385697E+02  0.14851148778E+03  0.91644391502E+02 0.  0.
          5    1    3    3  502    0 -0.73420510752E+02  0.58148867500E+02 -0.28950970257E+02  0.98119790407E+02  0.41800000000E+01 0.  1.
         -5    1    3    3    0  502  0.27785950334E+02 -0.17344805230E+02 -0.56004537107E+02  0.65014474396E+02  0.41800000000E+01 0.  1.
        -11    1    4    4    0    0  0.69177057515E+02 -0.18645409746E+02 -0.89523977603E+02  0.11466324240E+03  0.00000000000E+00 0.  1.
         11    1    4    4    0    0 -0.23542497097E+02 -0.22158652524E+02 -0.10022408094E+02  0.33848245379E+02  0.00000000000E+00 0. -1.
</event>
<event>
 8    1  0.7103328E-009  0.1303978E+03  0.7561462E-02  0.1226867E+00
         -1   -1    0    0    0  501 -0.00000000000E+00  0.00000000000E+00  0.99855708329E+02  0.99855708329E+02  0.00000000000E+00 0.  1.
          1   -1    0    0  501    0  0.00000000000E+00 -0.00000000000E+00 -0.20286810600E+03  0.20286810600E+03  0.00000000000E+00 0. -1.
         25    2    1    2    0    0 -0.60214178964E+01 -0.93929959172E+02 -0.86172977935E+02  0.17869539038E+03  0.12508863142E+03 0.  0.
         23    2    1    2    0    0  0.60214178964E+01  0.93929959172E+02 -0.16839419736E+02  0.12402842395E+03  0.78996134007E+02 0.  0.
          5    1    3    3  502    0 -0.53670253678E+02 -0.87122209084E+02 -0.80069378183E+02  0.12999751216E+03  0.41800000000E+01 0.  1.
         -5    1    3    3    0  502  0.47648835781E+02 -0.68077500879E+01 -0.61035997516E+01  0.48697878214E+02  0.41800000000E+01 0.  1.
        -11    1    4    4    0    0 -0.18232694221E+02  0.65302478019E+01  0.18406443817E+02  0.26718391585E+02  0.00000000000E+00 0.  1.
         11    1    4    4    0    0  0.24254112118E+02  0.87399711370E+02 -0.35245863552E+02  0.97310032369E+02  0.00000000000E+00 0. -1.
</event>
<event>
 8    1  0.7103328E-009  0.9558929E+02  0.7561462E-02  0.1289854E+00
         -2   -1    0    0    0  501 -0.00000000000E+00  0.00000000000E+00  0.25026094448E+02  0.25026094448E+02  0.00000000000E+00 0.  1.
          2   -1    0    0  501    0  0.00000000000E+00 -0.00000000000E+00 -0.56214986236E+03  0.56214986236E+03  0.00000000000E+00 0. -1.
         25    2    1    2    0    0 -0.35318399274E+02  0.20229350341E+02 -0.27147430811E+03  0.30166600918E+03  0.12508982849E+03 0.  0.
         23    2    1    2    0    0  0.35318399274E+02 -0.20229350341E+02 -0.26564945981E+03  0.28550994763E+03  0.96382979594E+02 0.  0.
          5    1    3    3  502    0 -0.27843972152E+02  0.51296482454E+02 -0.26144821185E+03  0.26791650897E+03  0.41800000000E+01 0. -1.
         -5    1    3    3    0  502 -0.74744271221E+01 -0.31067132113E+02 -0.10026096253E+02  0.33749500212E+02  0.41800000000E+01 0. -1.
        -11    1    4    4    0    0  0.41247143243E+01 -0.54177109257E+02 -0.10299636524E+03  0.11644923224E+03  0.00000000000E+00 0.  1.
         11    1    4    4    0    0  0.31193684950E+02  0.33947758916E+02 -0.16265309457E+03  0.16906071539E+03  0.00000000000E+00 0. -1.
</event>
<event>
 8    1  0.7103328E-009  0.1610507E+03  0.7561462E-02  0.1187516E+00
         -2   -1    0    0    0  501 -0.00000000000E+00  0.00000000000E+00  0.40811673459E+02  0.40811673459E+02  0.00000000000E+00 0.  1.
          2   -1    0    0  501    0  0.00000000000E+00 -0.00000000000E+00 -0.72913756947E+03  0.72913756947E+03  0.00000000000E+00 0. -1.
         25    2    1    2    0    0 -0.62719145402E+02 -0.10359271251E+03 -0.23646600990E+03  0.29364676278E+03  0.12508839341E+03 0.  0.
         23    2    1    2    0    0  0.62719145402E+02  0.10359271251E+03 -0.45185988611E+03  0.47630248015E+03  0.89563132123E+02 0.  0.
          5    1    3    3  502    0 -0.88089944198E+02 -0.28741902844E+02 -0.10413437929E+03  0.13945385114E+03  0.41800000000E+01 0. -1.
         -5    1    3    3    0  502  0.25370798796E+02 -0.74850809667E+02 -0.13233163061E+03  0.15419291164E+03  0.41800000000E+01 0. -1.
        -11    1    4    4    0    0  0.16982758071E+02 -0.15273791579E+02 -0.56814078405E+02  0.61233506235E+02  0.00000000000E+00 0.  1.
         11    1    4    4    0    0  0.45736387331E+02  0.11886650409E+03 -0.39504580770E+03  0.41506897391E+03  0.00000000000E+00 0. -1.
</event>
<event>
 8    1  0.7103328E-009  0.1210859E+03  0.7561462E-02  0.1241316E+00
         -1   -1    0    0    0  501 -0.00000000000E+00  0.00000000000E+00  0.72142406154E+02  0.72142406154E+02  0.00000000000E+00 0.  1.
          1   -1    0    0  501    0  0.00000000000E+00 -0.00000000000E+00 -0.26741091514E+03  0.26741091514E+03  0.00000000000E+00 0. -1.
         25    2    1    2    0    0  0.40412273928E+01  0.73469486069E+02 -0.56187482561E+02  0.15562383694E+03  0.12509056129E+03 0.  0.
         23    2    1    2    0    0 -0.40412273928E+01 -0.73469486069E+02 -0.13908102642E+03  0.18392948435E+03  0.95249285573E+02 0.  0.
          5    1    3    3  502    0 -0.40043340696E+02 -0.17236051160E+02 -0.11796905168E+02  0.45356256075E+02  0.41800000000E+01 0.  1.
         -5    1    3    3    0  502  0.44084568088E+02  0.90705537229E+02 -0.44390577393E+02  0.11026758086E+03  0.41800000000E+01 0.  1.
        -11    1    4    4    0    0 -0.31040593576E+02 -0.59334253299E+02 -0.35161361310E+02  0.75633282312E+02  0.00000000000E+00 0.  1.
         11    1    4    4    0    0  0.26999366184E+02 -0.14135232770E+02 -0.10391966511E+03  0.10829620204E+03  0.00000000000E+00 0. -1.
</event>
<event>
 8    1  0.7103328E-009  0.1071552E+03  0.7561462E-02  0.1265930E+00
          2   -1    0    0  501    0  0.00000000000E+00  0.00000000000E+00  0.18762114751E+03  0.18762114751E+03  0.00000000000E+00 0. -1.
         -2   -1    0    0    0  501 -0.00000000000E+00 -0.00000000000E+00 -0.68893282928E+02  0.68893282928E+02  0.00000000000E+00 0.  1.
         25    2    1    2    0    0  0.78752033379E+01  0.39895100738E+02  0.71771791490E+02  0.14984097247E+03  0.12508992400E+03 0.  0.
         23    2    1    2    0    0 -0.78752033379E+01 -0.39895100738E+02  0.46956073093E+02  0.10667345797E+03  0.86722061466E+02 0.  0.
          5    1    3    3  502    0 -0.13329845700E+02 -0.43181119954E+02  0.20002427940E+02  0.49597010297E+02  0.41800000000E+01 0.  1.
         -5    1    3    3    0  502  0.21205049038E+02  0.83076220692E+02  0.51769363550E+02  0.10024396217E+03  0.41800000000E+01 0.  1.
        -11    1    4    4    0    0 -0.73236176433E+01  0.20972326322E+02 -0.90225851486E+01  0.23976673862E+02  0.00000000000E+00 0.  1.
         11    1    4    4    0    0 -0.55158569458E+00 -0.60867427059E+02  0.55978658242E+02  0.82696784110E+02  0.00000000000E+00 0. -1.
</event>
<event>
 8    1  0.7103328E-009  0.1403175E+03  0.7561462E-02  0.1212902E+00
          2   -1    0    0  501    0  0.00000000000E+00  0.00000000000E+00  0.78314298339E+03  0.78314298339E+03  0.00000000000E+00 0. -1.
         -2   -1    0    0    0  501 -0.00000000000E+00 -0.00000000000E+00 -0.27940839725E+02  0.27940839725E+02  0.00000000000E+00 0.  1.
         25    2    1    2    0    0 -0.32876646743E+02 -0.92556126075E+02  0.47081860950E+03  0.49695598649E+03  0.12509028373E+03 0.  0.
         23    2    1    2    0    0  0.32876646743E+02  0.92556126075E+02  0.28438353417E+03  0.31412783663E+03  0.90303891739E+02 0.  0.
          5    1    3    3  502    0  0.31388238467E+02 -0.88535492716E+02  0.29810159953E+03  0.31257925560E+03  0.41800000000E+01 0.  1.
         -5    1    3    3    0  502 -0.64264885210E+02 -0.40206333595E+01  0.17271700997E+03  0.18437673089E+03  0.41800000000E+01 0.  1.
        -11    1    4    4    0    0  0.49732782101E+02  0.31800968485E+02  0.74925219304E+02  0.95385741596E+02  0.00000000000E+00 0.  1.
         11    1    4    4    0    0 -0.16856135358E+02  0.60755157591E+02  0.20945831486E+03  0.21874209503E+03  0.00000000000E+00 0. -1.
</event>
<event>
 8    1  0.7103328E-009  0.1606433E+03  0.7561462E-02  0.1187972E+00
         -1   -1    0    0    0  501 -0.00000000000E+00  0.00000000000E+00  0.76523132508E+02  0.76523132508E+02  0.00000000000E+00 0.  1.
          1   -1    0    0  501    0  0.00000000000E+00 -0.00000000000E+00 -0.34404350305E+03  0.34404350305E+03  0.00000000000E+00 0. -1.
         25    2    1    2    0    0  0.53886080361E+02 -0.10719531956E+03 -0.13685416114E+03  0.22083974966E+03  0.12508631987E+03 0.  0.
         23    2    1    2    0    0 -0.53886080361E+02  0.10719531956E+03 -0.13066620941E+03  0.19972688590E+03  0.91774857555E+02 0.  0.
          5    1    3    3  502    0  0.53818766934E+02  0.10196830352E+02 -0.54478143473E+02  0.77367793944E+02  0.41800000000E+01 0. -1.
         -5    1    3    3    0  502  0.67313427172E-01 -0.11739214991E+03 -0.82376017663E+02  0.14347195572E+03  0.41800000000E+01 0. -1.
        -11    1    4    4    0    0 -0.26075678758E+02 -0.10379427815E+02 -0.12482748748E+02  0.30716324011E+02  0.00000000000E+00 0.  1.
         11    1    4    4    0    0 -0.27810401603E+02  0.11757474737E+03 -0.11818346066E+03  0.16901056189E+03  0.00000000000E+00 0. -1.
</event>
<event>
 8    1  0.7103328E-009  0.8609676E+02  0.7561462E-02  0.1312589E+00
         -1   -1    0    0    0  501 -0.00000000000E+00  0.00000000000E+00  0.22137676726E+03  0.22137676726E+03  0.00000000000E+00 0.  1.
          1   -1    0    0  501    0  0.00000000000E+00 -0.00000000000E+00 -0.67554010638E+02  0.67554010638E+02  0.00000000000E+00 0. -1.
         25    2    1    2    0    0 -0.47482858494E+02  0.26064618490E+02  0.67428699951E+02  0.15207853145E+03  0.12508902415E+03 0.  0.
         23    2    1    2    0    0  0.47482858494E+02 -0.26064618490E+02  0.86394056671E+02  0.13685224645E+03  0.91272219989E+02 0.  0.
          5    1    3    3  502    0 -0.66429510155E+01 -0.91107524404E+01 -0.34590048104E+02  0.36620737787E+02  0.41800000000E+01 0. -1.
         -5    1    3    3    0  502 -0.40839907478E+02  0.35175370931E+02  0.10201874805E+03  0.11545779366E+03  0.41800000000E+01 0. -1.
        -11    1    4    4    0    0  0.49995287680E+02 -0.56570848200E+02  0.62895075698E+02  0.98262811905E+02  0.00000000000E+00 0. -1.
         11    1    4    4    0    0 -0.25124291865E+01  0.30506229710E+02  0.23498980973E+02  0.38589434542E+02  0.00000000000E+00 0.  1.
</event>
<event>
 8    1  0.7103328E-009  0.2558913E+03  0.7561462E-02  0.1109637E+00
          1   -1    0    0  501    0  0.00000000000E+00  0.00000000000E+00  0.77561458638E+03  0.77561458638E+03  0.00000000000E+00 0. -1.
         -1   -1    0    0    0  501 -0.00000000000E+00 -0.00000000000E+00 -0.90731370365E+02  0.90731370365E+02  0.00000000000E+00 0.  1.
         25    2    1    2    0    0 -0.14843532596E+03 -0.18909947345E+03  0.34781395690E+03  0.44092297109E+03  0.12508741332E+03 0.  0.
         23    2    1    2    0    0  0.14843532596E+03  0.18909947345E+03  0.33706925912E+03  0.42542298566E+03  0.97864060979E+02 0.  0.
          5    1    3    3  502    0 -0.11171601567E+01  0.17035680085E+02  0.21316218720E+02  0.27628174447E+02  0.41800000000E+01 0. -1.
         -5    1    3    3    0  502 -0.14731816580E+03 -0.20613515354E+03  0.32649773818E+03  0.41329479664E+03  0.41800000000E+01 0. -1.
        -11    1    4    4    0    0  0.28926700028E+02  0.46331241196E+02  0.20852521985E+02  0.58465079820E+02  0.00000000000E+00 0.  1.
         11    1    4    4    0    0  0.11950862593E+03  0.14276823225E+03  0.31621673714E+03  0.36695790584E+03  0.00000000000E+00 0. -1.
</event>
<event>
 8    1  0.7103328E-009  0.2050862E+03  0.7561462E-02  0.1145517E+00
         -1   -1    0    0    0  501 -0.00000000000E+00  0.00000000000E+00  0.85500915396E+03  0.85500915396E+03  0.00000000000E+00 0.  1.
          1   -1    0    0  501    0  0.00000000000E+00 -0.00000000000E+00 -0.63035422526E+02  0.63035422526E+02  0.00000000000E+00 0. -1.
         25    2    1    2    0    0 -0.34076693794E+02  0.17057421428E+03  0.19553538515E+03  0.29006619622E+03  0.12509007835E+03 0.  0.
         23    2    1    2    0    0  0.34076693794E+02 -0.17057421428E+03  0.59643834628E+03  0.62797838027E+03  0.91440480815E+02 0.  0.
          5    1    3    3  502    0 -0.39700508207E+02 -0.34390108035E+01  0.34670611571E+02  0.52985666495E+02  0.41800000000E+01 0. -1.
         -5    1    3    3    0  502  0.56238144135E+01  0.17401322509E+03  0.16086477358E+03  0.23708052972E+03  0.41800000000E+01 0. -1.
        -11    1    4    4    0    0  0.10707859580E+02  0.95311524909E+01  0.32613276865E+02  0.35624808104E+02  0.00000000000E+00 0. -1.
         11    1    4    4    0    0  0.23368834213E+02 -0.18010536678E+03  0.56382506942E+03  0.59235357217E+03  0.00000000000E+00 0.  1.
</event>
<event>
 8    1  0.7103328E-009  0.1012776E+03  0.7561462E-02  0.1277632E+00
         -2   -1    0    0    0  501 -0.00000000000E+00  0.00000000000E+00  0.83013953342E+02  0.83013953342E+02  0.00000000000E+00 0.  1.
          2   -1    0    0  501    0  0.00000000000E+00 -0.00000000000E+00 -0.19019731422E+03  0.19019731422E+03  0.00000000000E+00 0. -1.
         25    2    1    2    0    0  0.20876419622E+02 -0.14407824996E+02  0.34455122057E+01  0.12768552132E+03  0.12509320718E+03 0.  0.
         23    2    1    2    0    0 -0.20876419622E+02  0.14407824996E+02 -0.11062887308E+03  0.14552574624E+03  0.91080101796E+02 0.  0.
          5    1    3    3  502    0 -0.48629993516E+02 -0.10080373346E+02  0.23488900308E+02  0.55097105494E+02  0.41800000000E+01 0.  1.
         -5    1    3    3    0  502  0.69506413138E+02 -0.43274516501E+01 -0.20043388102E+02  0.72588415823E+02  0.41800000000E+01 0.  1.
        -11    1    4    4    0    0 -0.30574626455E+02 -0.26774408592E+02 -0.89369003600E+02  0.98175839914E+02  0.00000000000E+00 0. -1.
         11    1    4    4    0    0  0.96982068331E+01  0.41182233588E+02 -0.21259869481E+02  0.47349906330E+02  0.00000000000E+00 0.  1.
</event>
<event>
 8    1  0.7103328E-009  0.8575236E+02  0.7561462E-02  0.1313477E+00
         -2   -1    0    0    0  501 -0.00000000000E+00  0.00000000000E+00  0.41176436538E+02  0.41176436538E+02  0.00000000000E+00 0.  1.
          2   -1    0    0  501    0  0.00000000000E+00 -0.00000000000E+00 -0.29958036951E+03  0.29958036951E+03  0.00000000000E+00 0. -1.
         25    2    1    2    0    0 -0.10930614536E+02 -0.15634627073E+02 -0.17582204888E+03  0.21662319198E+03  0.12509314342E+03 0.  0.
         23    2    1    2    0    0  0.10930614536E+02  0.15634627073E+02 -0.82581884089E+02  0.12413361407E+03  0.90694358504E+02 0.  0.
          5    1    3    3  502    0 -0.35002383875E+02 -0.36013224398E+02 -0.14849399205E+02  0.52536618327E+02  0.41800000000E+01 0. -1.
         -5    1    3    3    0  502  0.24071769339E+02  0.20378597325E+02 -0.16097264968E+03  0.16408657365E+03  0.41800000000E+01 0. -1.
        -11    1    4    4    0    0  0.26285171500E+02 -0.30739361199E+02 -0.54233023385E+02  0.67653820241E+02  0.00000000000E+00 0. -1.
         11    1    4    4    0    0 -0.15354556964E+02  0.46373988272E+02 -0.28348860703E+02  0.56479793829E+02  0.00000000000E+00 0.  1.
</event>
<event>
 8    1  0.7103328E-009  0.1253792E+03  0.7561462E-02  0.1234478E+00
         -1   -1    0    0    0  501 -0.00000000000E+00  0.00000000000E+00  0.15778931297E+02  0.15778931297E+02  0.00000000000E+00 0.  1.
          1   -1    0    0  501    0  0.00000000000E+00 -0.00000000000E+00 -0.10365716723E+04  0.10365716723E+04  0.00000000000E+00 0. -1.
         25    2    1    2    0    0 -0.43723288756E+02 -0.46840353604E+02 -0.62293773643E+03  0.63859598669E+03  0.12509063131E+03 0.  0.
         23    2    1    2    0    0  0.43723288756E+02  0.46840353604E+02 -0.39785500456E+03  0.41375461690E+03  0.93800499161E+02 0.  0.
          5    1    3    3  502    0 -0.36976548500E+02 -0.88050811406E+02 -0.48831244229E+03  0.49758087204E+03  0.41800000000E+01 0. -1.
         -5    1    3    3    0  502 -0.67467402565E+01  0.41210457802E+02 -0.13462529414E+03  0.14101511464E+03  0.41800000000E+01 0. -1.
        -11    1    4    4    0    0  0.71952850128E+02  0.45094209677E+02 -0.28276096329E+03  0.29523628292E+03  0.00000000000E+00 0.  1.
         11    1    4    4    0    0 -0.28229561371E+02  0.17461439267E+01 -0.11509404127E+03  0.11851833398E+03  0.00000000000E+00 0. -1.
</event>
<event>
 8    1  0.7103328E-009  0.1286138E+03  0.7561462E-02  0.1229527E+00
          2   -1    0    0  501    0  0.00000000000E+00  0.00000000000E+00  0.75265625554E+03  0.75265625554E+03  0.00000000000E+00 0. -1.
         -2   -1    0    0    0  501 -0.00000000000E+00 -0.00000000000E+00 -0.26372393717E+02  0.26372393717E+02  0.00000000000E+00 0.  1.
         25    2    1    2    0    0  0.20586911205E+02 -0.83319419117E+02  0.46861317422E+03  0.49255631414E+03  0.12508984387E+03 0.  0.
         23    2    1    2    0    0 -0.20586911205E+02  0.83319419117E+02  0.25767068761E+03  0.28647233511E+03  0.91138735001E+02 0.  0.
          5    1    3    3  502    0 -0.17242185697E+02 -0.10544531126E+03  0.30871339478E+03  0.32670696221E+03  0.41800000000E+01 0.  1.
         -5    1    3    3    0  502  0.37829096903E+02  0.22125892148E+02  0.15989977943E+03  0.16584935194E+03  0.41800000000E+01 0.  1.
        -11    1    4    4    0    0  0.21219501532E+02  0.14317632689E+02  0.12733853863E+02  0.28590433458E+02  0.00000000000E+00 0.  1.
         11    1    4    4    0    0 -0.41806412738E+02  0.69001786427E+02  0.24493683374E+03  0.25788190165E+03  0.00000000000E+00 0. -1.
</event>
<event>
 8    1  0.7103328E-009  0.1344723E+03  0.7561462E-02  0.1220967E+00
          1   -1    0    0  501    0  0.00000000000E+00  0.00000000000E+00  0.33275663985E+03  0.33275663985E+03  0.00000000000E+00 0. -1.
         -1   -1    0    0    0  501 -0.00000000000E+00 -0.00000000000E+00 -0.85680177041E+02  0.85680177041E+02  0.00000000000E+00 0.  1.
         25    2    1    2    0    0 -0.65626733575E+02  0.55914783711E+02  0.12463508663E+02  0.15243652107E+03  0.12509285635E+03 0.  0.
         23    2    1    2    0    0  0.65626733575E+02 -0.55914783711E+02  0.23461295415E+03  0.26600029582E+03  0.90992241020E+02 0.  0.
          5    1    3    3  502    0 -0.10268326423E+03  0.33021413772E+02  0.51031682239E+01  0.10806378324E+03  0.41800000000E+01 0.  1.
         -5    1    3    3    0  502  0.37056530659E+02  0.22893369939E+02  0.73603404390E+01  0.44372737835E+02  0.41800000000E+01 0.  1.
        -11    1    4    4    0    0  0.83391492513E+02 -0.36806901263E+02  0.21447680188E+03  0.23304331690E+03  0.00000000000E+00 0. -1.
         11    1    4    4    0    0 -0.17764758939E+02 -0.19107882448E+02  0.20136152264E+02  0.32956978924E+02  0.00000000000E+00 0.  1.
</event>
<event>
 8    1  0.7103328E-009  0.1209327E+03  0.7561462E-02  0.1241566E+00
          4   -1    0    0  501    0  0.00000000000E+00  0.00000000000E+00  0.12148595790E+03  0.12148595790E+03  0.00000000000E+00 0.  1.
         -4   -1    0    0    0  501 -0.00000000000E+00 -0.00000000000E+00 -0.15063908331E+03  0.15063908331E+03  0.00000000000E+00 0. -1.
         25    2    1    2    0    0 -0.71380492051E+02 -0.22399977659E+02 -0.48849409717E+02  0.15372534215E+03  0.12509309471E+03 0.  0.
         23    2    1    2    0    0  0.71380492051E+02  0.22399977659E+02  0.19696284307E+02  0.11839969905E+03  0.89630416021E+02 0.  0.
          5    1    3    3  502    0  0.30451411934E+02  0.13618509085E+02 -0.27745562302E+02  0.43589458656E+02  0.41800000000E+01 0. -1.
         -5    1    3    3    0  502 -0.10183190398E+03 -0.36018486744E+02 -0.21103847415E+02  0.11013588349E+03  0.41800000000E+01 0. -1.
        -11    1    4    4    0    0  0.47303667457E+02  0.46324863805E+02  0.41422783151E+02  0.78099148046E+02  0.00000000000E+00 0.  1.
         11    1    4    4    0    0  0.24076824593E+02 -0.23924886146E+02 -0.21726498844E+02  0.40300551009E+02  0.00000000000E+00 0. -1.
</event>
<event>
 8    1  0.7103328E-009  0.1982945E+03  0.7561462E-02  0.1151186E+00
         -2   -1    0    0    0  501 -0.00000000000E+00  0.00000000000E+00  0.22799548858E+02  0.22799548858E+02  0.00000000000E+00 0.  1.
          2   -1    0    0  501    0  0.00000000000E+00 -0.00000000000E+00 -0.31403432459E+04  0.31403432459E+04  0.00000000000E+00 0. -1.
         25    2    1    2    0    0  0.55670086391E+02 -0.16980429413E+03 -0.25819819457E+04  0.25911795593E+04  0.12509230211E+03 0.  0.
         23    2    1    2    0    0 -0.55670086391E+02  0.16980429413E+03 -0.53556175135E+03  0.57196323541E+03  0.91558158225E+02 0.  0.
          5    1    3    3  502    0 -0.30774456800E+02 -0.22904314238E+02 -0.83666663188E+03  0.83755608774E+03  0.41800000000E+01 0.  1.
         -5    1    3    3    0  502  0.86444543192E+02 -0.14689997989E+03 -0.17453153138E+04  0.17536234716E+04  0.41800000000E+01 0.  1.
        -11    1    4    4    0    0 -0.53521652965E+01  0.10650219144E+03 -0.40133294629E+03  0.41525834879E+03  0.00000000000E+00 0. -1.
         11    1    4    4    0    0 -0.50317921095E+02  0.63302102681E+02 -0.13422880505E+03  0.15670488663E+03  0.00000000000E+00 0.  1.
</event>
<event>
 8    1  0.7103328E-009  0.1086341E+03  0.7561462E-02  0.1263120E+00
         -1   -1    0    0    0  501 -0.00000000000E+00  0.00000000000E+00  0.86485016829E+02  0.86485016829E+02  0.00000000000E+00 0. -1.
          1   -1    0    0  501    0  0.00000000000E+00 -0.00000000000E+00 -0.19505545338E+03  0.19505545338E+03  0.00000000000E+00 0.  1.
         25    2    1    2    0    0  0.70722980356E+02  0.70452452467E-01 -0.64090734303E+02  0.15734384233E+03  0.12509083732E+03 0.  0.
         23    2    1    2    0    0 -0.70722980356E+02 -0.70452452467E-01 -0.44479702252E+02  0.12419662788E+03  0.91894578462E+02 0.  0.
          5    1    3    3  502    0  0.72364232058E+02 -0.41814371639E+02 -0.76552654609E+02  0.11341430723E+03  0.41800000000E+01 0.  1.
         -5    1    3    3    0  502 -0.16412517020E+01  0.41884824092E+02  0.12461920307E+02  0.43929535099E+02  0.41800000000E+01 0.  1.
        -11    1    4    4    0    0 -0.69576278656E+01 -0.22745191826E+02 -0.50932549415E+02  0.56212782591E+02  0.00000000000E+00 0.  1.
         11    1    4    4    0    0 -0.63765352491E+02  0.22674739374E+02  0.64528471629E+01  0.67983845290E+02  0.00000000000E+00 0. -1.
</event>
<event>
 8    1  0.7103328E-009  0.1166630E+03  0.7561462E-02  0.1248706E+00
          1   -1    0    0  501    0  0.00000000000E+00  0.00000000000E+00  0.20422525223E+03  0.20422525223E+03  0.00000000000E+00 0. -1.
         -1   -1    0    0    0  501 -0.00000000000E+00 -0.00000000000E+00 -0.10497056539E+03  0.10497056539E+03  0.00000000000E+00 0.  1.
         25    2    1    2    0    0 -0.65016607677E+01 -0.86244224712E+02  0.30869910826E+01  0.15211197608E+03  0.12509270908E+03 0.  0.
         23    2    1    2    0    0  0.65016607677E+01  0.86244224712E+02  0.96167695759E+02  0.15708384154E+03  0.89144655902E+02 0.  0.
          5    1    3    3  502    0 -0.38858375295E+02 -0.68817587394E+02  0.49054444773E+02  0.93110926412E+02  0.41800000000E+01 0.  1.
         -5    1    3    3    0  502  0.32356714527E+02 -0.17426637318E+02 -0.45967453690E+02  0.59001049668E+02  0.41800000000E+01 0.  1.
        -11    1    4    4    0    0  0.90704271258E+01  0.10141015631E+03  0.60976569469E+02  0.11867786009E+03  0.00000000000E+00 0.  1.
         11    1    4    4    0    0 -0.25687663580E+01 -0.15165931595E+02  0.35191126289E+02  0.38405981451E+02  0.00000000000E+00 0. -1.
</event>
<event>
 8    1  0.7103328E-009  0.1021067E+03  0.7561462E-02  0.1275927E+00
         -2   -1    0    0    0  501 -0.00000000000E+00  0.00000000000E+00  0.43450030852E+03  0.43450030852E+03  0.00000000000E+00 0.  1.
          2   -1    0    0  501    0  0.00000000000E+00 -0.00000000000E+00 -0.29488898010E+02  0.29488898010E+02  0.00000000000E+00 0. -1.
         25    2    1    2    0    0 -0.32194584802E+01  0.22657295550E+02  0.27219255937E+03  0.30043308997E+03  0.12509010441E+03 0.  0.
         23    2    1    2    0    0  0.32194584802E+01 -0.22657295550E+02  0.13281885114E+03  0.16355611656E+03  0.92660876806E+02 0.  0.
          5    1    3    3  502    0 -0.36075481460E+02 -0.32123288282E+02  0.19090247210E+03  0.19696337799E+03  0.41800000000E+01 0.  1.
         -5    1    3    3    0  502  0.32856022979E+02  0.54780583831E+02  0.81290087267E+02  0.10346971199E+03  0.41800000000E+01 0.  1.
        -11    1    4    4    0    0  0.42896832611E+02  0.52319757688E+01  0.40267770296E+02  0.59067801238E+02  0.00000000000E+00 0. -1.
         11    1    4    4    0    0 -0.39677374131E+02 -0.27889271318E+02  0.92551080846E+02  0.10448831532E+03  0.00000000000E+00 0.  1.
</event>
<event>
 8    1  0.7103328E-009  0.2031382E+03  0.7561462E-02  0.1147118E+00
         -1   -1    0    0    0  501 -0.00000000000E+00  0.00000000000E+00  0.87543146173E+02  0.87543146173E+02  0.00000000000E+00 0.  1.
          1   -1    0    0  501    0  0.00000000000E+00 -0.00000000000E+00 -0.69191632145E+03  0.69191632145E+03  0.00000000000E+00 0. -1.
         25    2    1    2    0    0 -0.10970244779E+03  0.14111844348E+03 -0.10627831193E+03  0.24267541534E+03  0.12508891033E+03 0.  0.
         23    2    1    2    0    0  0.10970244779E+03 -0.14111844348E+03 -0.49809486335E+03  0.53678405228E+03  0.89942113306E+02 0.  0.
          5    1    3    3  502    0 -0.35302552861E+02  0.12813243743E+03 -0.10075647728E+03  0.16683384511E+03  0.41800000000E+01 0.  1.
         -5    1    3    3    0  502 -0.74399894925E+02  0.12986006045E+02 -0.55218346517E+01  0.75841570235E+02  0.41800000000E+01 0.  1.
        -11    1    4    4    0    0  0.84192622012E+02 -0.39694499424E+02 -0.27656179365E+03  0.29180554585E+03  0.00000000000E+00 0. -1.
         11    1    4    4    0    0  0.25509825774E+02 -0.10142394405E+03 -0.22153306970E+03  0.24497850643E+03  0.00000000000E+00 0.  1.
</event>
<event>
 8    1  0.7103328E-009  0.1610157E+03  0.7561462E-02  0.1187555E+00
          2   -1    0    0  501    0  0.00000000000E+00  0.00000000000E+00  0.11442023367E+04  0.11442023367E+04  0.00000000000E+00 0. -1.
         -2   -1    0    0    0  501 -0.00000000000E+00 -0.00000000000E+00 -0.27846824325E+02  0.27846824325E+02  0.00000000000E+00 0.  1.
         25    2    1    2    0    0 -0.29175304893E+02 -0.12891903253E+03  0.42640516642E+03  0.46361613041E+03  0.12508890863E+03 0.  0.
         23    2    1    2    0    0  0.29175304893E+02  0.12891903253E+03  0.68995034600E+03  0.70843303066E+03  0.91512641865E+02 0.  0.
          5    1    3    3  502    0  0.37026869100E+02 -0.33680712953E+02  0.23052109070E+03  0.23592970377E+03  0.41800000000E+01 0. -1.
         -5    1    3    3    0  502 -0.66202173994E+02 -0.95238319580E+02  0.19588407571E+03  0.22768642664E+03  0.41800000000E+01 0. -1.
        -11    1    4    4    0    0 -0.27493311908E+02  0.23996206540E+02  0.97608824184E+02  0.10420740226E+03  0.00000000000E+00 0.  1.
         11    1    4    4    0    0  0.56668616802E+02  0.10492282599E+03  0.59234152181E+03  0.60422562840E+03  0.00000000000E+00 0. -1.
</event>
<event>
 8    1  0.7103328E-009  0.1719214E+03  0.7561462E-02  0.1175859E+00
          1   -1    0    0  501    0  0.00000000000E+00  0.00000000000E+00  0.16380261457E+03  0.16380261457E+03  0.00000000000E+00 0. -1.
         -1   -1    0    0    0  501 -0.00000000000E+00 -0.00000000000E+00 -0.34775798989E+03  0.34775798989E+03  0.00000000000E+00 0.  1.
         25    2    1    2    0    0  0.35002326992E+02  0.13641324328E+03 -0.26413224409E+03  0.32441765987E+03  0.12508892769E+03 0.  0.
         23    2    1    2    0    0 -0.35002326992E+02 -0.13641324328E+03  0.80176868776E+02  0.18714294459E+03  0.93597091762E+02 0.  0.
          5    1    3    3  502    0 -0.96780755820E+01  0.13501545538E+03 -0.15171296701E+03  0.20336453746E+03  0.41800000000E+01 0.  1.
         -5    1    3    3    0  502  0.44680402574E+02  0.13977878991E+01 -0.11241927708E+03  0.12105312241E+03  0.41800000000E+01 0.  1.
        -11    1    4    4    0    0  0.18169388101E+02 -0.93334850599E+02  0.22660143875E+02  0.97749696270E+02  0.00000000000E+00 0. -1.
         11    1    4    4    0    0 -0.53171715093E+02 -0.43078392677E+02  0.57516724901E+02  0.89393248318E+02  0.00000000000E+00 0.  1.
</event>
<event>
 8    1  0.7103328E-009  0.1467562E+03  0.7561462E-02  0.1204517E+00
          1   -1    0    0  501    0  0.00000000000E+00  0.00000000000E+00  0.22791827779E+03  0.22791827779E+03  0.00000000000E+00 0. -1.
         -1   -1    0    0    0  501 -0.00000000000E+00 -0.00000000000E+00 -0.24206635625E+03  0.24206635625E+03  0.00000000000E+00 0.  1.
         25    2    1    2    0    0 -0.51307898602E+02 -0.12049726212E+03 -0.16950411905E+03  0.24805412476E+03  0.12508841592E+03 0.  0.
         23    2    1    2    0    0  0.51307898602E+02  0.12049726212E+03  0.15535604059E+03  0.22193050927E+03  0.89249991380E+02 0.  0.
          5    1    3    3  502    0 -0.78948513141E+02 -0.93788133279E+02 -0.69839438322E+02  0.14115275844E+03  0.41800000000E+01 0. -1.
         -5    1    3    3    0  502  0.27640614538E+02 -0.26709128844E+02 -0.99664680729E+02  0.10690136632E+03  0.41800000000E+01 0. -1.
        -11    1    4    4    0    0  0.86385635440E+00  0.17268550546E+02 -0.10453095718E+02  0.20204363288E+02  0.00000000000E+00 0.  1.
         11    1    4    4    0    0  0.50444042248E+02  0.10322871158E+03  0.16580913631E+03  0.20172614599E+03  0.00000000000E+00 0. -1.
</event>
<event>
 8    1  0.7103328E-009  0.1049172E+03  0.7561462E-02  0.1270283E+00
         -1   -1    0    0    0  501 -0.00000000000E+00  0.00000000000E+00  0.27897226938E+02  0.27897226938E+02  0.00000000000E+00 0.  1.
          1   -1    0    0  501    0  0.00000000000E+00 -0.00000000000E+00 -0.48524606770E+03  0.48524606770E+03  0.00000000000E+00 0. -1.
         25    2    1    2    0    0 -0.44609151159E+02  0.22058137844E+02 -0.30072107458E+03  0.32948167748E+03  0.12509385793E+03 0.  0.
         23    2    1    2    0    0  0.44609151159E+02 -0.22058137844E+02 -0.15662776619E+03  0.18366161716E+03  0.81992650059E+02 0.  0.
          5    1    3    3  502    0 -0.78803708597E+02  0.17324288441E+02 -0.27389768541E+03  0.28556535142E+03  0.41800000000E+01 0.  1.
         -5    1    3    3    0  502  0.34194557438E+02  0.47338494036E+01 -0.26823389167E+02  0.43916326064E+02  0.41800000000E+01 0.  1.
        -11    1    4    4    0    0 -0.45734990563E+00  0.27372902972E+02 -0.62035896293E+02  0.67808092547E+02  0.00000000000E+00 0.  1.
         11    1    4    4    0    0  0.45066501064E+02 -0.49431040817E+02 -0.94591869897E+02  0.11585352461E+03  0.00000000000E+00 0. -1.
</event>
<event>
 8    1  0.7103328E-009  0.1238465E+03  0.7561462E-02  0.1236883E+00
          1   -1    0    0  501    0  0.00000000000E+00  0.00000000000E+00  0.84644665186E+02  0.84644665186E+02  0.00000000000E+00 0. -1.
         -1   -1    0    0    0  501 -0.00000000000E+00 -0.00000000000E+00 -0.22209275214E+03  0.22209275214E+03  0.00000000000E+00 0.  1.
         25    2    1    2    0    0  0.43159002831E+02 -0.50222996208E+02 -0.21457161187E+02  0.14315201930E+03  0.12508813689E+03 0.  0.
         23    2    1    2    0    0 -0.43159002831E+02  0.50222996208E+02 -0.11599092577E+03  0.16358539803E+03  0.94452309199E+02 0.  0.
          5    1    3    3  502    0  0.37997886515E+02  0.33796252883E+02  0.12093774581E+02  0.52438133759E+02  0.41800000000E+01 0.  1.
         -5    1    3    3    0  502  0.51611163164E+01 -0.84019249091E+02 -0.33550935768E+02  0.90713885543E+02  0.41800000000E+01 0.  1.
        -11    1    4    4    0    0  0.17204615555E+02  0.49085063619E+02 -0.72278649962E+02  0.89047995526E+02  0.00000000000E+00 0. -1.
         11    1    4    4    0    0 -0.60363618386E+02  0.11379325894E+01 -0.43712275806E+02  0.74537402499E+02  0.00000000000E+00 0.  1.
</event>
<event>
 8    1  0.7103328E-009  0.2306979E+03  0.7561462E-02  0.1126150E+00
          1   -1    0    0  501    0  0.00000000000E+00  0.00000000000E+00  0.12979840550E+04  0.12979840550E+04  0.00000000000E+00 0. -1.
         -1   -1    0    0    0  501 -0.00000000000E+00 -0.00000000000E+00 -0.43461482321E+02  0.43461482321E+02  0.00000000000E+00 0.  1.
         25    2    1    2    0    0  0.56811376346E+02  0.20051605059E+03  0.54077262622E+03  0.59288619115E+03  0.12507910841E+03 0.  0.
         23    2    1    2    0    0 -0.56811376346E+02 -0.20051605059E+03  0.71374994642E+03  0.74855934613E+03  0.86416952279E+02 0.  0.
          5    1    3    3  502    0  0.89041181938E+02  0.12314533769E+03  0.41230093811E+03  0.43943445728E+03  0.41800000000E+01 0. -1.
         -5    1    3    3    0  502 -0.32229805591E+02  0.77370712897E+02  0.12847168811E+03  0.15345173387E+03  0.41800000000E+01 0. -1.
        -11    1    4    4    0    0 -0.76460182530E+02 -0.11781161239E+03  0.43084248950E+03  0.45315669065E+03  0.00000000000E+00 0.  1.
         11    1    4    4    0    0  0.19648806184E+02 -0.82704438201E+02  0.28290745692E+03  0.29540265548E+03  0.00000000000E+00 0. -1.
</event>
<event>
 8    1  0.7103328E-009  0.2194387E+03  0.7561462E-02  0.1134302E+00
          2   -1    0    0  501    0  0.00000000000E+00  0.00000000000E+00  0.75244633327E+03  0.75244633327E+03  0.00000000000E+00 0. -1.
         -2   -1    0    0    0  501 -0.00000000000E+00 -0.00000000000E+00 -0.91607732543E+02  0.91607732543E+02  0.00000000000E+00 0.  1.
         25    2    1    2    0    0  0.10916302134E+02  0.20814549079E+03  0.15288151902E+03  0.28716644953E+03  0.12509236544E+03 0.  0.
         23    2    1    2    0    0 -0.10916302134E+02 -0.20814549079E+03  0.50795708171E+03  0.55688761628E+03  0.93057559189E+02 0.  0.
          5    1    3    3  502    0  0.46659466717E+02  0.69410624572E+02  0.92381671511E+01  0.84248185559E+02  0.41800000000E+01 0. -1.
         -5    1    3    3    0  502 -0.35743164583E+02  0.13873486621E+03  0.14364335187E+03  0.20291826397E+03  0.41800000000E+01 0. -1.
        -11    1    4    4    0    0 -0.24854642251E+02 -0.14792654890E+03  0.24929988649E+03  0.29094750474E+03  0.00000000000E+00 0. -1.
         11    1    4    4    0    0  0.13938340117E+02 -0.60218941884E+02  0.25865719522E+03  0.26594011154E+03  0.00000000000E+00 0.  1.
</event>
<event>
 8    1  0.7103328E-009  0.9580300E+02  0.7561462E-02  0.1289378E+00
          2   -1    0    0  501    0  0.00000000000E+00  0.00000000000E+00  0.30158322332E+02  0.30158322332E+02  0.00000000000E+00 0. -1.
         -2   -1    0    0    0  501 -0.00000000000E+00 -0.00000000000E+00 -0.54143447935E+03  0.54143447935E+03  0.00000000000E+00 0.  1.
         25    2    1    2    0    0  0.23719868106E+02  0.15457993721E+01 -0.42671562820E+03  0.44530773208E+03  0.12509087600E+03 0.  0.
         23    2    1    2    0    0 -0.23719868106E+02 -0.15457993721E+01 -0.84560528813E+02  0.12628506960E+03  0.90732651963E+02 0.  0.
          5    1    3    3  502    0  0.43186224351E+02  0.46786182698E+02 -0.13361973622E+03  0.14807330338E+03  0.41800000000E+01 0.  1.
         -5    1    3    3    0  502 -0.19466356245E+02 -0.45240383326E+02 -0.29309589198E+03  0.29723442870E+03  0.41800000000E+01 0.  1.
        -11    1    4    4    0    0 -0.46310292299E+02 -0.18762734267E+02 -0.84164166448E+02  0.97878957309E+02  0.00000000000E+00 0.  1.
         11    1    4    4    0    0  0.22590424193E+02  0.17216934894E+02 -0.39636236466E+00  0.28406112292E+02  0.00000000000E+00 0. -1.
</event>
<event>
 8    1  0.7103328E-009  0.1068555E+03  0.7561462E-02  0.1266506E+00
          1   -1    0    0  501    0  0.00000000000E+00  0.00000000000E+00  0.10515913189E+03  0.10515913189E+03  0.00000000000E+00 0. -1.
         -1   -1    0    0    0  501 -0.00000000000E+00 -0.00000000000E+00 -0.14280570380E+03  0.14280570380E+03  0.00000000000E+00 0.  1.
         25    2    1    2    0    0  0.51670520850E+02 -0.22853792242E+02 -0.13671004753E+02  0.13794420549E+03  0.12509823705E+03 0.  0.
         23    2    1    2    0    0 -0.51670520850E+02  0.22853792242E+02 -0.23975567159E+02  0.11002063020E+03  0.91310309950E+02 0.  0.
          5    1    3    3  502    0  0.81262243004E+02 -0.30496025396E+02 -0.41591829466E+02  0.96337492086E+02  0.41800000000E+01 0. -1.
         -5    1    3    3    0  502 -0.29591722154E+02  0.76422331537E+01  0.27920824714E+02  0.41606713404E+02  0.41800000000E+01 0. -1.
        -11    1    4    4    0    0  0.13971287037E+02 -0.14750706001E+02  0.14680932355E+02  0.25066111860E+02  0.00000000000E+00 0. -1.
         11    1    4    4    0    0 -0.65641807888E+02  0.37604498243E+02 -0.38656499514E+02  0.84954518335E+02  0.00000000000E+00 0.  1.
</event>
<event>
 8    1  0.7103328E-009  0.1088302E+03  0.7561462E-02  0.1262752E+00
          2   -1    0    0  501    0  0.00000000000E+00  0.00000000000E+00  0.18026229052E+03  0.18026229052E+03  0.00000000000E+00 0.  1.
         -2   -1    0    0    0  501 -0.00000000000E+00 -0.00000000000E+00 -0.10802238558E+03  0.10802238558E+03  0.00000000000E+00 0. -1.
         25    2    1    2    0    0  0.86836130737E+02  0.39374953404E+01  0.45278102439E+02  0.15891142068E+03  0.12508683221E+03 0.  0.
         23    2    1    2    0    0 -0.86836130737E+02 -0.39374953404E+01  0.26961802498E+02  0.12937325542E+03  0.91948262367E+02 0.  0.
          5    1    3    3  502    0  0.51316808729E+02  0.33863600735E+02 -0.31402087201E+02  0.69164454697E+02  0.41800000000E+01 0.  1.
         -5    1    3    3    0  502  0.35519322008E+02 -0.29926105394E+02  0.76680189641E+02  0.89746965984E+02  0.41800000000E+01 0.  1.
        -11    1    4    4    0    0  0.30431089198E+01 -0.18152543024E+02  0.33414400115E+02  0.38148361238E+02  0.00000000000E+00 0.  1.
         11    1    4    4    0    0 -0.89879239657E+02  0.14215047683E+02 -0.64525976172E+01  0.91224894179E+02  0.00000000000E+00 0. -1.
</event>
<event>
 8    1  0.7103328E-009  0.7633310E+02  0.7561462E-02  0.1339792E+00
         -2   -1    0    0    0  501 -0.00000000000E+00  0.00000000000E+00  0.32746349851E+02  0.32746349851E+02  0.00000000000E+00 0.  1.
          2   -1    0    0  501    0  0.00000000000E+00 -0.00000000000E+00 -0.39380970854E+03  0.39380970854E+03  0.00000000000E+00 0. -1.
         25    2    1    2    0    0  0.29832786483E+02  0.13588323234E+00 -0.23504592914E+03  0.26792961741E+03  0.12509867092E+03 0.  0.
         23    2    1    2    0    0 -0.29832786483E+02 -0.13588323234E+00 -0.12601742955E+03  0.15862644098E+03  0.91607541258E+02 0.  0.
          5    1    3    3  502    0  0.30279761230E+02  0.29275447940E+02 -0.13484905091E+02  0.44421063219E+02  0.41800000000E+01 0. -1.
         -5    1    3    3    0  502 -0.44697474702E+00 -0.29139564708E+02 -0.22156102405E+03  0.22350855419E+03  0.41800000000E+01 0. -1.
        -11    1    4    4    0    0 -0.50102720438E+02  0.18457204289E+02 -0.11871168263E+03  0.13016687204E+03  0.00000000000E+00 0. -1.
         11    1    4    4    0    0  0.20269933955E+02 -0.18593087522E+02 -0.73057469206E+01  0.28459568939E+02  0.00000000000E+00 0.  1.
</event>
<event>
 8    1  0.7103328E-009  0.1135571E+03  0.7561462E-02  0.1254121E+00
         -2   -1    0    0    0  501 -0.00000000000E+00  0.00000000000E+00  0.25720901829E+02  0.25720901829E+02  0.00000000000E+00 0.  1.
          2   -1    0    0  501    0  0.00000000000E+00 -0.00000000000E+00 -0.56159954854E+03  0.56159954854E+03  0.00000000000E+00 0. -1.
         25    2    1    2    0    0 -0.75302067068E+01 -0.33047633039E+02 -0.39182490709E+03  0.41270279403E+03  0.12509191949E+03 0.  0.
         23    2    1    2    0    0  0.75302067068E+01  0.33047633039E+02 -0.14405373962E+03  0.17461765634E+03  0.92687625628E+02 0.  0.
          5    1    3    3  502    0 -0.32211407460E+02  0.40134496495E+02 -0.17708405561E+03  0.18445754994E+03  0.41800000000E+01 0. -1.
         -5    1    3    3    0  502  0.24681200753E+02 -0.73182129534E+02 -0.21474085148E+03  0.22824524408E+03  0.41800000000E+01 0. -1.
        -11    1    4    4    0    0  0.45350367892E+02  0.39047267924E+02 -0.78658459810E+02  0.98835713686E+02  0.00000000000E+00 0. -1.
         11    1    4    4    0    0 -0.37820161185E+02 -0.59996348849E+01 -0.65395279812E+02  0.75781942655E+02  0.00000000000E+00 0.  1.
</event>
<event>
 8    1  0.7103328E-009  0.9983572E+02  0.7561462E-02  0.1280642E+00
         -2   -1    0    0    0  501 -0.00000000000E+00  0.00000000000E+00  0.69830931887E+01  0.69830931887E+01  0.00000000000E+00 0.  1.
          2   -1    0    0  501    0  0.00000000000E+00 -0.00000000000E+00 -0.31830367454E+04  0.31830367454E+04  0.00000000000E+00 0. -1.
         25    2    1    2    0    0 -0.15723326353E+02  0.49584063195E+02 -0.27064788015E+04  0.27098672838E+04  0.12508952888E+03 0.  0.
         23    2    1    2    0    0  0.15723326353E+02 -0.49584063195E+02 -0.46957485073E+03  0.48015255486E+03  0.85674577249E+02 0.  0.
          5    1    3    3  502    0 -0.39570009619E+02  0.60920407367E+02 -0.82607142941E+03  0.82926989610E+03  0.41800000000E+01 0. -1.
         -5    1    3    3    0  502  0.23846683266E+02 -0.11336344171E+02 -0.18804073721E+04  0.18805973877E+04  0.41800000000E+01 0. -1.
        -11    1    4    4    0    0  0.52038493625E+00 -0.72594125648E+02 -0.34726075517E+03  0.35476782543E+03  0.00000000000E+00 0. -1.
         11    1    4    4    0    0  0.15202941416E+02  0.23010062453E+02 -0.12231409556E+03  0.12538472943E+03  0.00000000000E+00 0.  1.
</event>
<event>
 8    1  0.7103328E-009  0.1725707E+03  0.7561462E-02  0.1175193E+00
          1   -1    0    0  501    0  0.00000000000E+00  0.00000000000E+00  0.11486294308E+03  0.11486294308E+03  0.00000000000E+00 0. -1.
         -1   -1    0    0    0  501 -0.00000000000E+00 -0.00000000000E+00 -0.28750712255E+03  0.28750712255E+03  0.00000000000E+00 0.  1.
         25    2    1    2    0    0 -0.70873463337E+02 -0.11484500254E+03 -0.30952893703E+02  0.18659578816E+03  0.12508990414E+03 0.  0.
         23    2    1    2    0    0  0.70873463337E+02  0.11484500254E+03 -0.14169128577E+03  0.21577427746E+03  0.90937868557E+02 0.  0.
          5    1    3    3  502    0  0.12390339744E+01 -0.10995328632E+03 -0.67035694142E+01  0.11024368744E+03  0.41800000000E+01 0.  1.
         -5    1    3    3    0  502 -0.72112497312E+02 -0.48917162162E+01 -0.24249324289E+02  0.76352100721E+02  0.41800000000E+01 0.  1.
        -11    1    4    4    0    0  0.42984342840E+02  0.12564587333E+03 -0.11400779249E+03  0.17502090150E+03  0.00000000000E+00 0.  1.
         11    1    4    4    0    0  0.27889120498E+02 -0.10800870791E+02 -0.27683493283E+02  0.40753375962E+02  0.00000000000E+00 0. -1.
</event>
<event>
 8    1  0.7103328E-009  0.1115862E+03  0.7561462E-02  0.1257660E+00
          1   -1    0    0  501    0  0.00000000000E+00  0.00000000000E+00  0.54655189549E+03  0.54655189549E+03  0.00000000000E+00 0. -1.
         -1   -1    0    0    0  501 -0.00000000000E+00 -0.00000000000E+00 -0.34845247485E+02  0.34845247485E+02  0.00000000000E+00 0.  1.
         25    2    1    2    0    0 -0.47451497572E+02  0.51163166792E+02  0.17797493790E+03  0.22845946750E+03  0.12509730417E+03 0.  0.
         23    2    1    2    0    0  0.47451497572E+02 -0.51163166792E+02  0.33373171011E+03  0.35293767548E+03  0.91207643229E+02 0.  0.
          5    1    3    3  502    0  0.25110797665E+02  0.59860662501E+02  0.11394909725E+03  0.13120868965E+03  0.41800000000E+01 0. -1.
         -5    1    3    3    0  502 -0.72562295238E+02 -0.86974957090E+01  0.64025840648E+02  0.97250777850E+02  0.41800000000E+01 0. -1.
        -11    1    4    4    0    0  0.57591927963E+02 -0.42335901022E+02  0.33173213483E+03  0.33934549939E+03  0.00000000000E+00 0. -1.
         11    1    4    4    0    0 -0.10140430390E+02 -0.88272657702E+01  0.19995752823E+01  0.13592176087E+02  0.00000000000E+00 0.  1.
</event>
<event>
 8    1  0.7103328E-009  0.1399317E+03  0.7561462E-02  0.1213421E+00
          4   -1    0    0  501    0  0.00000000000E+00  0.00000000000E+00  0.38258526172E+02  0.38258526172E+02  0.00000000000E+00 0. -1.
         -4   -1    0    0    0  501 -0.00000000000E+00 -0.00000000000E+00 -0.70321676453E+03  0.70321676453E+03  0.00000000000E+00 0.  1.
         25    2    1    2    0    0 -0.11764473620E+03  0.65972119741E+01 -0.43421484201E+03  0.46698337159E+03  0.12508850130E+03 0.  0.
         23    2    1    2    0    0  0.11764473620E+03 -0.65972119741E+01 -0.23074339635E+03  0.27449191911E+03  0.90661411511E+02 0.  0.
          5    1    3    3  502    0 -0.29125792036E+02 -0.44640377011E+02 -0.66724435850E+02  0.85502618444E+02  0.41800000000E+01 0.  1.
         -5    1    3    3    0  502 -0.88518944167E+02  0.51237588985E+02 -0.36749040616E+03  0.38148075315E+03  0.41800000000E+01 0.  1.
        -11    1    4    4    0    0  0.48409523895E+02 -0.21892153935E+02 -0.28737572447E+02  0.60403613118E+02  0.00000000000E+00 0. -1.
         11    1    4    4    0    0  0.69235212309E+02  0.15294941960E+02 -0.20200582390E+03  0.21408830599E+03  0.00000000000E+00 0.  1.
</event>
<event>
 8    1  0.7103328E-009  0.1400926E+03  0.7561462E-02  0.1213204E+00
         -2   -1    0    0    0  501 -0.00000000000E+00  0.00000000000E+00  0.17730314947E+03  0.17730314947E+03  0.00000000000E+00 0.  1.
          2   -1    0    0  501    0  0.00000000000E+00 -0.00000000000E+00 -0.11623300475E+03  0.11623300475E+03  0.00000000000E+00 0. -1.
         25    2    1    2    0    0 -0.59658025093E+02 -0.68051783213E+02  0.56586769898E+02  0.16443497116E+03  0.12508665818E+03 0.  0.
         23    2    1    2    0    0  0.59658025093E+02  0.68051783213E+02  0.44833748205E+01  0.12910118307E+03  0.91961348753E+02 0.  0.
          5    1    3    3  502    0 -0.30943029303E+02 -0.10304074006E+03  0.29976561378E+02  0.11176283733E+03  0.41800000000E+01 0.  1.
         -5    1    3    3    0  502 -0.28714995789E+02  0.34988956850E+02  0.26610208519E+02  0.52672133829E+02  0.41800000000E+01 0.  1.
        -11    1    4    4    0    0  0.69735025810E+02  0.12802107845E+02  0.13634153298E+02  0.72199431619E+02  0.00000000000E+00 0.  1.
         11    1    4    4    0    0 -0.10077000717E+02  0.55249675367E+02 -0.91507784773E+01  0.56901751453E+02  0.00000000000E+00 0. -1.
</event>
<event>
 8    1  0.7103328E-009  0.2039736E+03  0.7561462E-02  0.1146429E+00
          2   -1    0    0  501    0  0.00000000000E+00  0.00000000000E+00  0.95442805385E+03  0.95442805385E+03  0.00000000000E+00 0. -1.
         -2   -1    0    0    0  501 -0.00000000000E+00 -0.00000000000E+00 -0.48086170170E+02  0.48086170170E+02  0.00000000000E+00 0.  1.
         25    2    1    2    0    0  0.16749480658E+03 -0.66107201860E+02  0.54965677654E+03  0.59177214513E+03  0.12508807853E+03 0.  0.
         23    2    1    2    0    0 -0.16749480658E+03  0.66107201860E+02  0.35668510714E+03  0.41074207888E+03  0.95184648666E+02 0.  0.
          5    1    3    3  502    0 -0.15911522605E+01  0.16919776675E+02  0.99726210152E+01  0.20142893987E+02  0.41800000000E+01 0. -1.
         -5    1    3    3    0  502  0.16908595884E+03 -0.83026978535E+02  0.53968415552E+03  0.57162925115E+03  0.41800000000E+01 0. -1.
        -11    1    4    4    0    0 -0.59211207269E+02 -0.21241859775E+02  0.13633248641E+03  0.15014569765E+03  0.00000000000E+00 0.  1.
         11    1    4    4    0    0 -0.10828359931E+03  0.87349061635E+02  0.22035262073E+03  0.26059638123E+03  0.00000000000E+00 0. -1.
</event>
<event>
 8    1  0.7103328E-009  0.1149001E+03  0.7561462E-02  0.1251756E+00
         -2   -1    0    0    0  501 -0.00000000000E+00  0.00000000000E+00  0.77071512729E+02  0.77071512729E+02  0.00000000000E+00 0.  1.
          2   -1    0    0  501    0  0.00000000000E+00 -0.00000000000E+00 -0.27504227768E+03  0.27504227768E+03  0.00000000000E+00 0. -1.
         25    2    1    2    0    0  0.74169233511E+02 -0.37728883321E+02 -0.16672187437E+03  0.22443091657E+03  0.12509400099E+03 0.  0.
         23    2    1    2    0    0 -0.74169233511E+02  0.37728883321E+02 -0.31248890578E+02  0.12768287384E+03  0.91661765598E+02 0.  0.
          5    1    3    3  502    0  0.58186041418E+02 -0.73729546492E+02 -0.15802384261E+03  0.18387677579E+03  0.41800000000E+01 0. -1.
         -5    1    3    3    0  502  0.15983192093E+02  0.36000663172E+02 -0.86980317668E+01  0.40554140786E+02  0.41800000000E+01 0. -1.
        -11    1    4    4    0    0 -0.14596443072E+02  0.33391761012E+02  0.26141714239E+02  0.44849248346E+02  0.00000000000E+00 0.  1.
         11    1    4    4    0    0 -0.59572790439E+02  0.43371223087E+01 -0.57390604817E+02  0.82833625490E+02  0.00000000000E+00 0. -1.
</event>
<event>
 8    1  0.7103328E-009  0.7248916E+02  0.7561462E-02  0.1351827E+00
          1   -1    0    0  501    0  0.00000000000E+00  0.00000000000E+00  0.11733450466E+03  0.11733450466E+03  0.00000000000E+00 0. -1.
         -1   -1    0    0    0  501 -0.00000000000E+00 -0.00000000000E+00 -0.14976169046E+03  0.14976169046E+03  0.00000000000E+00 0.  1.
         25    2    1    2    0    0  0.15615485462E+02  0.34344448036E+02 -0.84500061836E+02  0.15559947311E+03  0.12509017181E+03 0.  0.
         23    2    1    2    0    0 -0.15615485462E+02 -0.34344448036E+02  0.52072876032E+02  0.11149672201E+03  0.91085400055E+02 0.  0.
          5    1    3    3  502    0 -0.27975080025E+02 -0.38471964685E+01 -0.92629522035E+02  0.96928358985E+02  0.41800000000E+01 0. -1.
         -5    1    3    3    0  502  0.43590565487E+02  0.38191644504E+02  0.81294601989E+01  0.58671114124E+02  0.41800000000E+01 0. -1.
        -11    1    4    4    0    0  0.48009797321E+00  0.10587932623E+02 -0.21400959152E+02  0.23881705632E+02  0.00000000000E+00 0.  1.
         11    1    4    4    0    0 -0.16095583435E+02 -0.44932380659E+02  0.73473835184E+02  0.87615016375E+02  0.00000000000E+00 0. -1.
</event>
<event>
 8    1  0.7103328E-009  0.2745941E+03  0.7561462E-02  0.1098679E+00
         -1   -1    0    0    0  501 -0.00000000000E+00  0.00000000000E+00  0.10201661033E+03  0.10201661033E+03  0.00000000000E+00 0.  1.
          1   -1    0    0  501    0  0.00000000000E+00 -0.00000000000E+00 -0.79984656889E+03  0.79984656889E+03  0.00000000000E+00 0. -1.
         25    2    1    2    0    0 -0.25634566726E+03 -0.70601889590E+02 -0.35568744905E+03  0.46136871088E+03  0.12509915280E+03 0.  0.
         23    2    1    2    0    0  0.25634566726E+03  0.70601889590E+02 -0.34214250951E+03  0.44049446834E+03  0.79222167888E+02 0.  0.
          5    1    3    3  502    0 -0.22768418321E+03 -0.92108710387E+02 -0.25346726560E+03  0.35296916146E+03  0.41800000000E+01 0.  1.
         -5    1    3    3    0  502 -0.28661484045E+02  0.21506820797E+02 -0.10222018345E+03  0.10839954942E+03  0.41800000000E+01 0.  1.
        -11    1    4    4    0    0  0.16539283557E+03  0.59813413957E+02 -0.27693455897E+03  0.32806277525E+03  0.00000000000E+00 0.  1.
         11    1    4    4    0    0  0.90952831684E+02  0.10788475633E+02 -0.65207950537E+02  0.11243169309E+03  0.00000000000E+00 0. -1.
</event>
<event>
 8    1  0.7103328E-009  0.1110433E+03  0.7561462E-02  0.1258650E+00
         -1   -1    0    0    0  501 -0.00000000000E+00  0.00000000000E+00  0.15077764602E+02  0.15077764602E+02  0.00000000000E+00 0. -1.
          1   -1    0    0  501    0  0.00000000000E+00 -0.00000000000E+00 -0.95597714956E+03  0.95597714956E+03  0.00000000000E+00 0.  1.
         25    2    1    2    0    0 -0.40958477987E+02 -0.16226084935E+01 -0.63676672451E+03  0.65023045721E+03  0.12509019250E+03 0.  0.
         23    2    1    2    0    0  0.40958477987E+02  0.16226084935E+01 -0.30413266045E+03  0.32082445695E+03  0.93549063335E+02 0.  0.
          5    1    3    3  502    0 -0.82637296536E+02  0.18562358271E+02 -0.38851243241E+03  0.39765923410E+03  0.41800000000E+01 0.  1.
         -5    1    3    3    0  502  0.41678818550E+02 -0.20184966765E+02 -0.24825429210E+03  0.25257122311E+03  0.41800000000E+01 0.  1.
        -11    1    4    4    0    0 -0.10729580738E+01 -0.35014979055E+02 -0.52682760462E+02  0.63266683548E+02  0.00000000000E+00 0. -1.
         11    1    4    4    0    0  0.42031436061E+02  0.36637587548E+02 -0.25144989998E+03  0.25755777340E+03  0.00000000000E+00 0.  1.
</event>
<event>
 8    1  0.7103328E-009  0.1201589E+03  0.7561462E-02  0.1242835E+00
         -1   -1    0    0    0  501 -0.00000000000E+00  0.00000000000E+00  0.95809271500E+02  0.95809271500E+02  0.00000000000E+00 0.  1.
          1   -1    0    0  501    0  0.00000000000E+00 -0.00000000000E+00 -0.31221650200E+03  0.31221650200E+03  0.00000000000E+00 0. -1.
         25    2    1    2    0    0 -0.57729875203E+02  0.44245448948E+02  0.18133681070E+02  0.14582775406E+03  0.12508599130E+03 0.  0.
         23    2    1    2    0    0  0.57729875203E+02 -0.44245448948E+02 -0.23454091157E+03  0.26219801944E+03  0.91912806270E+02 0.  0.
          5    1    3    3  502    0  0.32629008393E+02  0.10737727602E+01  0.30457222297E+02  0.44843282291E+02  0.41800000000E+01 0. -1.
         -5    1    3    3    0  502 -0.90358883595E+02  0.43171676188E+02 -0.12323541227E+02  0.10098447177E+03  0.41800000000E+01 0. -1.
        -11    1    4    4    0    0 -0.13329258760E+02 -0.32532154198E+02 -0.33164476208E+02  0.48331073628E+02  0.00000000000E+00 0.  1.
         11    1    4    4    0    0  0.71059133962E+02 -0.11713294750E+02 -0.20137643536E+03  0.21386694582E+03  0.00000000000E+00 0. -1.
</event>
<event>
 8    1  0.7103328E-009  0.7591251E+02  0.7561462E-02  0.1341068E+00
         -1   -1    0    0    0  501 -0.00000000000E+00  0.00000000000E+00  0.17574147719E+03  0.17574147719E+03  0.00000000000E+00 0.  1.
          1   -1    0    0  501    0  0.00000000000E+00 -0.00000000000E+00 -0.79946721425E+02  0.79946721425E+02  0.00000000000E+00 0. -1.
         25    2    1    2    0    0  0.42421256846E+02  0.63848574477E+01  0.80395698161E+02  0.15476105590E+03  0.12508871533E+03 0.  0.
         23    2    1    2    0    0 -0.42421256846E+02 -0.63848574477E+01  0.15399057599E+02  0.10092714271E+03  0.90049029554E+02 0.  0.
          5    1    3    3  502    0  0.73028535562E+02 -0.33113694276E+01  0.94412863524E+02  0.11947967766E+03  0.41800000000E+01 0. -1.
         -5    1    3    3    0  502 -0.30607278716E+02  0.96962268753E+01 -0.14017165363E+02  0.35281378244E+02  0.41800000000E+01 0. -1.
        -11    1    4    4    0    0 -0.20547545687E+02  0.55809037763E+01  0.52257057488E+02  0.56428256911E+02  0.00000000000E+00 0.  1.
         11    1    4    4    0    0 -0.21873711160E+02 -0.11965761224E+02 -0.36857999889E+02  0.44498885799E+02  0.00000000000E+00 0. -1.
</event>
<event>
 8    1  0.7103328E-009  0.3428160E+03  0.7561462E-02  0.1065603E+00
          2   -1    0    0  501    0  0.00000000000E+00  0.00000000000E+00  0.14155688669E+04  0.14155688669E+04  0.00000000000E+00 0. -1.
         -2   -1    0    0    0  501 -0.00000000000E+00 -0.00000000000E+00 -0.94673222936E+02  0.94673222936E+02  0.00000000000E+00 0.  1.
         25    2    1    2    0    0 -0.28132213451E+02  0.32849635435E+03  0.90730751553E+03  0.97342466519E+03  0.12508946716E+03 0.  0.
         23    2    1    2    0    0  0.28132213451E+02 -0.32849635435E+03  0.41358812845E+03  0.53681742467E+03  0.91741654534E+02 0.  0.
          5    1    3    3  502    0  0.47741402965E+02  0.12207506022E+03  0.38360228800E+03  0.40540072724E+03  0.41800000000E+01 0. -1.
         -5    1    3    3    0  502 -0.75873616416E+02  0.20642129413E+03  0.52370522753E+03  0.56802393795E+03  0.41800000000E+01 0. -1.
        -11    1    4    4    0    0 -0.11878503427E+02 -0.18979120920E+03  0.28996099332E+03  0.34675521565E+03  0.00000000000E+00 0.  1.
         11    1    4    4    0    0  0.40010716878E+02 -0.13870514515E+03  0.12362713513E+03  0.19006220902E+03  0.00000000000E+00 0. -1.
</event>
<event>
 8    1  0.7103328E-009  0.1216765E+03  0.7561462E-02  0.1240357E+00
         -2   -1    0    0    0  501 -0.00000000000E+00  0.00000000000E+00  0.14567144373E+03  0.14567144373E+03  0.00000000000E+00 0.  1.
          2   -1    0    0  501    0  0.00000000000E+00 -0.00000000000E+00 -0.13548876484E+03  0.13548876484E+03  0.00000000000E+00 0. -1.
         25    2    1    2    0    0 -0.21190699128E+02  0.85263283265E+02  0.19676893631E+02  0.15412441781E+03  0.12509309661E+03 0.  0.
         23    2    1    2    0    0  0.21190699128E+02 -0.85263283265E+02 -0.94942147466E+01  0.12703579075E+03  0.91263786990E+02 0.  0.
          5    1    3    3  502    0 -0.15606975146E+02 -0.17101963415E+02  0.42898723619E+02  0.48926758670E+02  0.41800000000E+01 0. -1.
         -5    1    3    3    0  502 -0.55837239828E+01  0.10236524668E+03 -0.23221829988E+02  0.10519765914E+03  0.41800000000E+01 0. -1.
        -11    1    4    4    0    0  0.27176196175E+02 -0.98774867896E+02 -0.25170438043E+02  0.10549204291E+03  0.00000000000E+00 0. -1.
         11    1    4    4    0    0 -0.59854970470E+01  0.13511584631E+02  0.15676223297E+02  0.21543747840E+02  0.00000000000E+00 0.  1.
</event>
<event>
 8    1  0.7103328E-009  0.1229585E+03  0.7561462E-02  0.1238295E+00
          2   -1    0    0  501    0  0.00000000000E+00  0.00000000000E+00  0.70701478298E+03  0.70701478298E+03  0.00000000000E+00 0.  1.
         -2   -1    0    0    0  501 -0.00000000000E+00 -0.00000000000E+00 -0.32702286693E+02  0.32702286693E+02  0.00000000000E+00 0. -1.
         25    2    1    2    0    0 -0.78214821370E+02 -0.56468887909E+02  0.24475263780E+03  0.29130383550E+03  0.12509107595E+03 0.  0.
         23    2    1    2    0    0  0.78214821370E+02  0.56468887909E+02  0.42955985849E+03  0.44841323418E+03  0.85126159175E+02 0.  0.
          5    1    3    3  502    0 -0.90310032947E+02 -0.54539047067E+02  0.98233005588E+02  0.14421374932E+03  0.41800000000E+01 0. -1.
         -5    1    3    3    0  502  0.12095211576E+02 -0.19298408416E+01  0.14651963221E+03  0.14709008618E+03  0.41800000000E+01 0. -1.
        -11    1    4    4    0    0  0.71667421026E+02  0.77385714880E+02  0.32903888691E+03  0.34553054453E+03  0.00000000000E+00 0. -1.
         11    1    4    4    0    0  0.65474003447E+01 -0.20916826971E+02  0.10052097158E+03  0.10288268965E+03  0.00000000000E+00 0.  1.
</event>
<event>
 8    1  0.7103328E-009  0.8770382E+02  0.7561462E-02  0.1308509E+00
          2   -1    0    0  501    0  0.00000000000E+00  0.00000000000E+00  0.12156145176E+03  0.12156145176E+03  0.00000000000E+00 0.  1.
         -2   -1    0    0    0  501 -0.00000000000E+00 -0.00000000000E+00 -0.10725647703E+03  0.10725647703E+03  0.00000000000E+00 0. -1.
         25    2    1    2    0    0 -0.29690602155E+02 -0.17483936387E+02 -0.14472628043E+02  0.13056212295E+03  0.12509912509E+03 0.  0.
         23    2    1    2    0    0  0.29690602155E+02  0.17483936387E+02  0.28777602768E+02  0.98255805840E+02  0.87400418032E+02 0.  0.
          5    1    3    3  502    0  0.66361819185E+01  0.28951817590E+02 -0.52369474775E+02  0.60351312665E+02  0.41800000000E+01 0. -1.
         -5    1    3    3    0  502 -0.36326784074E+02 -0.46435753977E+02  0.37896846732E+02  0.70210810284E+02  0.41800000000E+01 0. -1.
        -11    1    4    4    0    0  0.85244334365E+01 -0.31666193023E+02  0.30400961996E+02  0.44717247637E+02  0.00000000000E+00 0.  1.
         11    1    4    4    0    0  0.21166168719E+02  0.49150129409E+02 -0.16233592285E+01  0.53538558202E+02  0.00000000000E+00 0. -1.
</event>
<event>
 8    1  0.7103328E-009  0.1146992E+03  0.7561462E-02  0.1252107E+00
          2   -1    0    0  501    0  0.00000000000E+00  0.00000000000E+00  0.24097386492E+03  0.24097386492E+03  0.00000000000E+00 0.  1.
         -2   -1    0    0    0  501 -0.00000000000E+00 -0.00000000000E+00 -0.68024604617E+02  0.68024604617E+02  0.00000000000E+00 0. -1.
         25    2    1    2    0    0  0.37639888432E+02  0.54352065065E+02  0.92386334436E+02  0.16897997587E+03  0.12509232301E+03 0.  0.
         23    2    1    2    0    0 -0.37639888432E+02 -0.54352065065E+02  0.80562925864E+02  0.14001849367E+03  0.93508744872E+02 0.  0.
          5    1    3    3  502    0  0.40155832477E+00 -0.27946548497E+02  0.70482440653E+02  0.75936932137E+02  0.41800000000E+01 0. -1.
         -5    1    3    3    0  502  0.37238330107E+02  0.82298613562E+02  0.21903893783E+02  0.93043043729E+02  0.41800000000E+01 0. -1.
        -11    1    4    4    0    0 -0.12887945742E+02  0.24707270166E+02  0.58779611289E+01  0.28479795848E+02  0.00000000000E+00 0.  1.
         11    1    4    4    0    0 -0.24751942690E+02 -0.79059335231E+02  0.74684964735E+02  0.11153869782E+03  0.00000000000E+00 0. -1.
</event>
<event>
 8    1  0.7103328E-009  0.1207555E+03  0.7561462E-02  0.1241856E+00
         -1   -1    0    0    0  501 -0.00000000000E+00  0.00000000000E+00  0.20885344467E+03  0.20885344467E+03  0.00000000000E+00 0.  1.
          1   -1    0    0  501    0  0.00000000000E+00 -0.00000000000E+00 -0.91429350501E+02  0.91429350501E+02  0.00000000000E+00 0. -1.
         25    2    1    2    0    0  0.46366664331E+01 -0.75180189224E+02  0.10658230939E+03  0.18078273431E+03  0.12509615830E+03 0.  0.
         23    2    1    2    0    0 -0.46366664331E+01  0.75180189224E+02  0.10841784774E+02  0.11950006086E+03  0.92136641575E+02 0.  0.
          5    1    3    3  502    0  0.10805077720E+02  0.33569562759E+02  0.15559722363E+02  0.38771672757E+02  0.41800000000E+01 0. -1.
         -5    1    3    3    0  502 -0.61684112874E+01 -0.10874975198E+03  0.91022587030E+02  0.14201106155E+03  0.41800000000E+01 0. -1.
        -11    1    4    4    0    0 -0.19567471135E+02 -0.77706061232E+00 -0.26984703889E+02  0.33341625542E+02  0.00000000000E+00 0. -1.
         11    1    4    4    0    0  0.14930804702E+02  0.75957249836E+02  0.37826488662E+02  0.86158435317E+02  0.00000000000E+00 0.  1.
</event>
<event>
 8    1  0.7103328E-009  0.1390631E+03  0.7561462E-02  0.1214595E+00
         -2   -1    0    0    0  501 -0.00000000000E+00  0.00000000000E+00  0.27188292148E+02  0.27188292148E+02  0.00000000000E+00 0.  1.
          2   -1    0    0  501    0  0.00000000000E+00 -0.00000000000E+00 -0.14687339664E+04  0.14687339664E+04  0.00000000000E+00 0. -1.
         25    2    1    2    0    0 -0.31057984159E+02 -0.97606517340E+02 -0.12503859409E+04  0.12607942609E+04  0.12508211896E+03 0.  0.
         23    2    1    2    0    0  0.31057984159E+02  0.97606517340E+02 -0.19115973331E+03  0.23512799762E+03  0.90837773074E+02 0.  0.
          5    1    3    3  502    0 -0.77876200596E+02 -0.75418262020E+02 -0.77022680744E+03  0.77782994553E+03  0.41800000000E+01 0. -1.
         -5    1    3    3    0  502  0.46818216437E+02 -0.22188255320E+02 -0.48015913345E+03  0.48296431535E+03  0.41800000000E+01 0. -1.
        -11    1    4    4    0    0  0.47233085216E+02  0.57499691488E+02 -0.55748747887E+02  0.92979039311E+02  0.00000000000E+00 0.  1.
         11    1    4    4    0    0 -0.16175101058E+02  0.40106825852E+02 -0.13541098542E+03  0.14214895831E+03  0.00000000000E+00 0. -1.
</event>
<event>
 8    1  0.7103328E-009  0.8969636E+02  0.7561462E-02  0.1303589E+00
          2   -1    0    0  501    0  0.00000000000E+00  0.00000000000E+00  0.40257959058E+03  0.40257959058E+03  0.00000000000E+00 0. -1.
         -2   -1    0    0    0  501 -0.00000000000E+00 -0.00000000000E+00 -0.53047337059E+02  0.53047337059E+02  0.00000000000E+00 0.  1.
         25    2    1    2    0    0  0.24513724134E+02  0.70283503246E+02  0.90303239458E+02  0.17129771373E+03  0.12509012020E+03 0.  0.
         23    2    1    2    0    0 -0.24513724134E+02 -0.70283503246E+02  0.25922901406E+03  0.28432921391E+03  0.90015146791E+02 0.  0.
          5    1    3    3  502    0 -0.10560840421E+02  0.41990908010E+02  0.11269901959E+03  0.12080276951E+03  0.41800000000E+01 0. -1.
         -5    1    3    3    0  502  0.35074564555E+02  0.28292595236E+02 -0.22395780128E+02  0.50494944217E+02  0.41800000000E+01 0. -1.
        -11    1    4    4    0    0 -0.31853213743E+02 -0.15610587366E+02  0.24268404260E+02  0.42979915181E+02  0.00000000000E+00 0.  1.
         11    1    4    4    0    0  0.73394896088E+01 -0.54672915880E+02  0.23496060980E+03  0.24134929873E+03  0.00000000000E+00 0. -1.
</event>
<event>
 8    1  0.7103328E-009  0.1053795E+03  0.7561462E-02  0.1269374E+00
          1   -1    0    0  501    0  0.00000000000E+00  0.00000000000E+00  0.28761038247E+03  0.28761038247E+03  0.00000000000E+00 0. -1.
         -1   -1    0    0    0  501 -0.00000000000E+00 -0.00000000000E+00 -0.11792995806E+03  0.11792995806E+03  0.00000000000E+00 0.  1.
         25    2    1    2    0    0  0.80124721412E+02 -0.16209832973E+02  0.22583100083E+03  0.27079333073E+03  0.12508659946E+03 0.  0.
         23    2    1    2    0    0 -0.80124721412E+02  0.16209832973E+02 -0.56150576420E+02  0.13474700980E+03  0.91220281474E+02 0.  0.
          5    1    3    3  502    0  0.34858079197E+02 -0.28044194888E+02  0.21871504025E+03  0.22328301275E+03  0.41800000000E+01 0. -1.
         -5    1    3    3    0  502  0.45266642215E+02  0.11834361915E+02  0.71159605812E+01  0.47510317978E+02  0.41800000000E+01 0. -1.
        -11    1    4    4    0    0  0.18417930406E+02 -0.23773284535E+01 -0.22047593619E+02  0.28826519655E+02  0.00000000000E+00 0.  1.
         11    1    4    4    0    0 -0.98542651819E+02  0.18587161426E+02 -0.34102982801E+02  0.10592049015E+03  0.00000000000E+00 0. -1.
</event>
<event>
 8    1  0.7103328E-009  0.1244967E+03  0.7561462E-02  0.1235858E+00
          2   -1    0    0  501    0  0.00000000000E+00  0.00000000000E+00  0.75840204038E+03  0.75840204038E+03  0.00000000000E+00 0. -1.
         -2   -1    0    0    0  501 -0.00000000000E+00 -0.00000000000E+00 -0.24915693651E+02  0.24915693651E+02  0.00000000000E+00 0.  1.
         25    2    1    2    0    0  0.32841891192E+02  0.72138824228E+02  0.48826721296E+03  0.51023024042E+03  0.12508967667E+03 0.  0.
         23    2    1    2    0    0 -0.32841891192E+02 -0.72138824228E+02  0.24521913377E+03  0.27308749361E+03  0.90342436446E+02 0.  0.
          5    1    3    3  502    0 -0.47783699057E+02  0.30476808911E+02  0.20663622623E+03  0.21430846966E+03  0.41800000000E+01 0. -1.
         -5    1    3    3    0  502  0.80625590249E+02  0.41662015317E+02  0.28163098673E+03  0.29592177076E+03  0.41800000000E+01 0. -1.
        -11    1    4    4    0    0  0.16030783729E+02 -0.39271936111E+02  0.35680286692E+02  0.55428817877E+02  0.00000000000E+00 0.  1.
         11    1    4    4    0    0 -0.48872674921E+02 -0.32866888117E+02  0.20953884708E+03  0.21765867574E+03  0.00000000000E+00 0. -1.
</event>
<event>
 8    1  0.7103328E-009  0.9947273E+02  0.7561462E-02  0.1281409E+00
          1   -1    0    0  501    0  0.00000000000E+00  0.00000000000E+00  0.82205755273E+02  0.82205755273E+02  0.00000000000E+00 0. -1.
         -1   -1    0    0    0  501 -0.00000000000E+00 -0.00000000000E+00 -0.20579987302E+03  0.20579987302E+03  0.00000000000E+00 0.  1.
         25    2    1    2    0    0  0.43028230637E+02  0.16458558206E+01 -0.59184378790E+01  0.13242160508E+03  0.12508523539E+03 0.  0.
         23    2    1    2    0    0 -0.43028230637E+02 -0.16458558206E+01 -0.11767567987E+03  0.15558402321E+03  0.92220849993E+02 0.  0.
          5    1    3    3  502    0 -0.22526586074E+02  0.18984223288E+02  0.40416275416E+02  0.50187603375E+02  0.41800000000E+01 0. -1.
         -5    1    3    3    0  502  0.65554816711E+02 -0.17338367467E+02 -0.46334713295E+02  0.82234001706E+02  0.41800000000E+01 0. -1.
        -11    1    4    4    0    0  0.25193527996E+02  0.17165719091E+02 -0.28425311702E+02  0.41681819900E+02  0.00000000000E+00 0. -1.
         11    1    4    4    0    0 -0.68221758633E+02 -0.18811574912E+02 -0.89250368166E+02  0.11390220331E+03  0.00000000000E+00 0.  1.
</event>
<event>
 8    1  0.7103328E-009  0.1308721E+03  0.7561462E-02  0.1226167E+00
         -2   -1    0    0    0  501 -0.00000000000E+00  0.00000000000E+00  0.19148960934E+02  0.19148960934E+02  0.00000000000E+00 0.  1.
          2   -1    0    0  501    0  0.00000000000E+00 -0.00000000000E+00 -0.12930011756E+04  0.12930011756E+04  0.00000000000E+00 0. -1.
         25    2    1    2    0    0 -0.10933289583E+03 -0.28909472932E+02 -0.64351045404E+03  0.66523946170E+03  0.12509355380E+03 0.  0.
         23    2    1    2    0    0  0.10933289583E+03  0.28909472932E+02 -0.63034176060E+03  0.64691067482E+03  0.91505444055E+02 0.  0.
          5    1    3    3  502    0 -0.53040407103E+02 -0.25744274823E+00 -0.68405389739E+02  0.86660953190E+02  0.41800000000E+01 0.  1.
         -5    1    3    3    0  502 -0.56292488731E+02 -0.28652030184E+02 -0.57510506430E+03  0.57857850851E+03  0.41800000000E+01 0.  1.
        -11    1    4    4    0    0  0.11063672897E+03 -0.55269157895E+01 -0.49598817490E+03  0.50820793209E+03  0.00000000000E+00 0.  1.
         11    1    4    4    0    0 -0.13038331324E+01  0.34436388722E+02 -0.13435358570E+03  0.13870274273E+03  0.00000000000E+00 0. -1.
</event>
<event>
 8    1  0.7103328E-009  0.1593011E+03  0.7561462E-02  0.1189488E+00
         -1   -1    0    0    0  501 -0.00000000000E+00  0.00000000000E+00  0.19634967146E+03  0.19634967146E+03  0.00000000000E+00 0.  1.
          1   -1    0    0  501    0  0.00000000000E+00 -0.00000000000E+00 -0.15279356995E+03  0.15279356995E+03  0.00000000000E+00 0. -1.
         25    2    1    2    0    0 -0.13152443527E+03 -0.29023112669E+02  0.34632814246E+02  0.18704954221E+03  0.12508829393E+03 0.  0.
         23    2    1    2    0    0  0.13152443527E+03  0.29023112669E+02  0.89232872693E+01  0.16209369919E+03  0.89742543532E+02 0.  0.
          5    1    3    3  502    0 -0.71068599819E+02 -0.57859343354E+02 -0.27314540167E+02  0.95718368133E+02  0.41800000000E+01 0.  1.
         -5    1    3    3    0  502 -0.60455835452E+02  0.28836230685E+02  0.61947354413E+02  0.91331174081E+02  0.41800000000E+01 0.  1.
        -11    1    4    4    0    0  0.43319557144E+02 -0.30819075648E+02 -0.92619629455E+01  0.53964649656E+02  0.00000000000E+00 0. -1.
         11    1    4    4    0    0  0.88204878127E+02  0.59842188318E+02  0.18185250215E+02  0.10812904953E+03  0.00000000000E+00 0.  1.
</event>
<event>
 8    1  0.7103328E-009  0.1113971E+03  0.7561462E-02  0.1258004E+00
         -2   -1    0    0    0  501 -0.00000000000E+00  0.00000000000E+00  0.13599056975E+02  0.13599056975E+02  0.00000000000E+00 0. -1.
          2   -1    0    0  501    0  0.00000000000E+00 -0.00000000000E+00 -0.15341737287E+04  0.15341737287E+04  0.00000000000E+00 0.  1.
         25    2    1    2    0    0 -0.29662964166E+02  0.88854563996E+02 -0.94706223148E+03  0.95986868182E+03  0.12508393606E+03 0.  0.
         23    2    1    2    0    0  0.29662964166E+02 -0.88854563996E+02 -0.57351244029E+03  0.58790410390E+03  0.89104945021E+02 0.  0.
          5    1    3    3  502    0 -0.32421764001E+01  0.27886980059E+02 -0.77280419795E+03  0.77332528481E+03  0.41800000000E+01 0. -1.
         -5    1    3    3    0  502 -0.26420787766E+02  0.60967583937E+02 -0.17425803353E+03  0.18654339701E+03  0.41800000000E+01 0. -1.
        -11    1    4    4    0    0 -0.23396185421E+02 -0.66065877039E+02 -0.35756821142E+03  0.36437221000E+03  0.00000000000E+00 0.  1.
         11    1    4    4    0    0  0.53059149588E+02 -0.22788686957E+02 -0.21594422887E+03  0.22353189390E+03  0.00000000000E+00 0. -1.
</event>
<event>
 8    1  0.7103328E-009  0.1011636E+03  0.7561462E-02  0.1277868E+00
         -2   -1    0    0    0  501 -0.00000000000E+00  0.00000000000E+00  0.58369841954E+02  0.58369841954E+02  0.00000000000E+00 0.  1.
          2   -1    0    0  501    0  0.00000000000E+00 -0.00000000000E+00 -0.28588640386E+03  0.28588640386E+03  0.00000000000E+00 0. -1.
         25    2    1    2    0    0 -0.54088820756E+02  0.86033055000E+01 -0.18836420823E+03  0.23265593183E+03  0.12509232701E+03 0.  0.
         23    2    1    2    0    0  0.54088820756E+02 -0.86033055000E+01 -0.39152353668E+02  0.11160031398E+03  0.89006212627E+02 0.  0.
          5    1    3    3  502    0  0.33034615573E+02  0.28788615451E+02 -0.86387039864E+02  0.96954954810E+02  0.41800000000E+01 0.  1.
         -5    1    3    3    0  502 -0.87123436329E+02 -0.20185309951E+02 -0.10197716837E+03  0.13570097702E+03  0.41800000000E+01 0.  1.
        -11    1    4    4    0    0  0.57981592005E+02  0.14505730237E+01  0.12081263890E+02  0.59244629383E+02  0.00000000000E+00 0.  1.
         11    1    4    4    0    0 -0.38927712492E+01 -0.10053878524E+02 -0.51233617559E+02  0.52355684596E+02  0.00000000000E+00 0. -1.
</event>
<event>
 8    1  0.7103328E-009  0.1003708E+03  0.7561462E-02  0.1279518E+00
         -4   -1    0    0    0  501 -0.00000000000E+00  0.00000000000E+00  0.64713232891E+02  0.64713232891E+02  0.00000000000E+00 0.  1.
          4   -1    0    0  501    0  0.00000000000E+00 -0.00000000000E+00 -0.18288690837E+03  0.18288690837E+03  0.00000000000E+00 0. -1.
         25    2    1    2    0    0  0.23212986088E+02  0.48361988518E+01 -0.59215403600E+02  0.14041340371E+03  0.12508888190E+03 0.  0.
         23    2    1    2    0    0 -0.23212986088E+02 -0.48361988518E+01 -0.58958271882E+02  0.10718673755E+03  0.86317364080E+02 0.  0.
          5    1    3    3  502    0  0.40198518627E+02 -0.47463896336E+02 -0.58157342823E+02  0.85255447213E+02  0.41800000000E+01 0. -1.
         -5    1    3    3    0  502 -0.16985532539E+02  0.52300095188E+02 -0.10580607771E+01  0.55157956497E+02  0.41800000000E+01 0. -1.
        -11    1    4    4    0    0 -0.30856950372E+02 -0.38154397439E+02 -0.53455123468E+02  0.72562798011E+02  0.00000000000E+00 0. -1.
         11    1    4    4    0    0  0.76439642833E+01  0.33318198587E+02 -0.55031484140E+01  0.34623939543E+02  0.00000000000E+00 0.  1.
</event>
<event>
 8    1  0.7103328E-009  0.1243152E+03  0.7561462E-02  0.1236143E+00
         -1   -1    0    0    0  501 -0.00000000000E+00  0.00000000000E+00  0.13053887591E+02  0.13053887591E+02  0.00000000000E+00 0.  1.
          1   -1    0    0  501    0  0.00000000000E+00 -0.00000000000E+00 -0.12731009639E+04  0.12731009639E+04  0.00000000000E+00 0. -1.
         25    2    1    2    0    0  0.17776043026E+02 -0.59995201747E+02 -0.85486652852E+03  0.86623281728E+03  0.12508836962E+03 0.  0.
         23    2    1    2    0    0 -0.17776043026E+02  0.59995201747E+02 -0.40518054782E+03  0.41992203424E+03  0.90817545498E+02 0.  0.
          5    1    3    3  502    0 -0.23191402695E+02 -0.86650565484E+02 -0.60084778511E+03  0.60752094197E+03  0.41800000000E+01 0. -1.
         -5    1    3    3    0  502  0.40967445722E+02  0.26655363737E+02 -0.25401874341E+03  0.25871187531E+03  0.41800000000E+01 0. -1.
        -11    1    4    4    0    0 -0.47257656916E+02  0.64494915857E+02 -0.31219473014E+03  0.32227073996E+03  0.00000000000E+00 0. -1.
         11    1    4    4    0    0  0.29481613889E+02 -0.44997141097E+01 -0.92985817681E+02  0.97651294279E+02  0.00000000000E+00 0.  1.
</event>
<event>
 8    1  0.7103328E-009  0.1178898E+03  0.7561462E-02  0.1246619E+00
          1   -1    0    0  501    0  0.00000000000E+00  0.00000000000E+00  0.54989039402E+02  0.54989039402E+02  0.00000000000E+00 0. -1.
         -1   -1    0    0    0  501 -0.00000000000E+00 -0.00000000000E+00 -0.40436184403E+03  0.40436184403E+03  0.00000000000E+00 0.  1.
         25    2    1    2    0    0 -0.11219642221E+02 -0.84015040980E+02 -0.27523049078E+03  0.31397809754E+03  0.12508403255E+03 0.  0.
         23    2    1    2    0    0  0.11219642221E+02  0.84015040980E+02 -0.74142313849E+02  0.14537278589E+03  0.91933436204E+02 0.  0.
          5    1    3    3  502    0 -0.46905839626E+02 -0.81302552889E+02 -0.25691829192E+03  0.27355939761E+03  0.41800000000E+01 0.  1.
         -5    1    3    3    0  502  0.35686197405E+02 -0.27124880914E+01 -0.18312198852E+02  0.40418699926E+02  0.41800000000E+01 0.  1.
        -11    1    4    4    0    0 -0.21421074009E+02  0.76556064659E+01  0.12001173286E+02  0.25719620571E+02  0.00000000000E+00 0. -1.
         11    1    4    4    0    0  0.32640716230E+02  0.76359434514E+02 -0.86143487135E+02  0.11965316532E+03  0.00000000000E+00 0.  1.
</event>
<event>
 8    1  0.7103328E-009  0.9742077E+02  0.7561462E-02  0.1285815E+00
          2   -1    0    0  501    0  0.00000000000E+00  0.00000000000E+00  0.19261613443E+03  0.19261613443E+03  0.00000000000E+00 0. -1.
         -2   -1    0    0    0  501 -0.00000000000E+00 -0.00000000000E+00 -0.62570430634E+02  0.62570430634E+02  0.00000000000E+00 0.  1.
         25    2    1    2    0    0  0.17339728272E+01  0.44140867418E+01  0.52412437355E+02  0.13571035809E+03  0.12509095443E+03 0.  0.
         23    2    1    2    0    0 -0.17339728272E+01 -0.44140867418E+01  0.77633266446E+02  0.11947620697E+03  0.90692608025E+02 0.  0.
          5    1    3    3  502    0 -0.30398386785E+02  0.46370316058E+02  0.60403330152E+02  0.82099347281E+02  0.41800000000E+01 0. -1.
         -5    1    3    3    0  502  0.32132359612E+02 -0.41956229316E+02 -0.79908927975E+01  0.53611010813E+02  0.41800000000E+01 0. -1.
        -11    1    4    4    0    0  0.41925323889E+02 -0.69302249185E+01  0.19563779032E+02  0.46781430617E+02  0.00000000000E+00 0.  1.
         11    1    4    4    0    0 -0.43659296716E+02  0.25161381768E+01  0.58069487414E+02  0.72694776357E+02  0.00000000000E+00 0. -1.
</event>
<event>
 8    1  0.7103328E-009  0.7957337E+02  0.7561462E-02  0.1330267E+00
         -1   -1    0    0    0  501 -0.00000000000E+00  0.00000000000E+00  0.19787145124E+02  0.19787145124E+02  0.00000000000E+00 0.  1.
          1   -1    0    0  501    0  0.00000000000E+00 -0.00000000000E+00 -0.12905396606E+04  0.12905396606E+04  0.00000000000E+00 0. -1.
         25    2    1    2    0    0  0.21155074307E+01 -0.63075078249E+02 -0.10879761637E+04  0.10969606671E+04  0.12509049307E+03 0.  0.
         23    2    1    2    0    0 -0.21155074307E+01  0.63075078249E+02 -0.18277635179E+03  0.21336613867E+03  0.90194087876E+02 0.  0.
          5    1    3    3  502    0  0.12089906018E+02 -0.10191940358E+01 -0.79427054065E+01  0.15091837303E+02  0.41800000000E+01 0. -1.
         -5    1    3    3    0  502 -0.99743985872E+01 -0.62055884213E+02 -0.10800334583E+04  0.10818688298E+04  0.41800000000E+01 0. -1.
        -11    1    4    4    0    0  0.26114188257E+02  0.27781081209E+02 -0.17373059203E+02  0.41899433022E+02  0.00000000000E+00 0.  1.
         11    1    4    4    0    0 -0.28229695688E+02  0.35293997040E+02 -0.16540329259E+03  0.17146670565E+03  0.00000000000E+00 0. -1.
</event>
<event>
 8    1  0.7103328E-009  0.8821654E+02  0.7561462E-02  0.1307229E+00
         -1   -1    0    0    0  501 -0.00000000000E+00  0.00000000000E+00  0.82260634587E+02  0.82260634587E+02  0.00000000000E+00 0.  1.
          1   -1    0    0  501    0  0.00000000000E+00 -0.00000000000E+00 -0.18309051092E+03  0.18309051092E+03  0.00000000000E+00 0. -1.
         25    2    1    2    0    0 -0.32120362900E+02 -0.62573774608E+01 -0.11093543075E+03  0.17036688643E+03  0.12508930293E+03 0.  0.
         23    2    1    2    0    0  0.32120362900E+02  0.62573774608E+01  0.10105554422E+02  0.94984259081E+02  0.88594665514E+02 0.  0.
          5    1    3    3  502    0 -0.64295857739E+02 -0.43264703308E+02 -0.51240631301E+02  0.92999282636E+02  0.41800000000E+01 0. -1.
         -5    1    3    3    0  502  0.32175494839E+02  0.37007325847E+02 -0.59694799452E+02  0.77367603789E+02  0.41800000000E+01 0. -1.
        -11    1    4    4    0    0  0.37895919893E+02 -0.37202441194E+01 -0.32985035459E+02  0.50378105612E+02  0.00000000000E+00 0. -1.
         11    1    4    4    0    0 -0.57755569933E+01  0.99776215802E+01  0.43090589881E+02  0.44606153468E+02  0.00000000000E+00 0.  1.
</event>
<event>
 8    1  0.7103328E-009  0.1023619E+03  0.7561462E-02  0.1275406E+00
          1   -1    0    0  501    0  0.00000000000E+00  0.00000000000E+00  0.11035628715E+03  0.11035628715E+03  0.00000000000E+00 0. -1.
         -1   -1    0    0    0  501 -0.00000000000E+00 -0.00000000000E+00 -0.11522389492E+03  0.11522389492E+03  0.00000000000E+00 0.  1.
         25    2    1    2    0    0  0.16089717159E+02  0.19482626507E+02  0.16298126376E+02  0.12864836943E+03  0.12508526012E+03 0.  0.
         23    2    1    2    0    0 -0.16089717159E+02 -0.19482626507E+02 -0.21165734150E+02  0.96931812650E+02  0.91155560816E+02 0.  0.
          5    1    3    3  502    0 -0.41745385538E+02  0.30579675088E+02  0.39479696099E+02  0.65222025009E+02  0.41800000000E+01 0.  1.
         -5    1    3    3    0  502  0.57835102698E+02 -0.11097048581E+02 -0.23181569722E+02  0.63426344417E+02  0.41800000000E+01 0.  1.
        -11    1    4    4    0    0 -0.53489035240E+02 -0.17648547025E+02 -0.18928243560E+02  0.59420758219E+02  0.00000000000E+00 0. -1.
         11    1    4    4    0    0  0.37399318081E+02 -0.18340794820E+01 -0.22374905894E+01  0.37511054432E+02  0.00000000000E+00 0.  1.
</event>
<event>
 8    1  0.7103328E-009  0.1386550E+03  0.7561462E-02  0.1215150E+00
          2   -1    0    0  501    0  0.00000000000E+00  0.00000000000E+00  0.19161775726E+03  0.19161775726E+03  0.00000000000E+00 0. -1.
         -2   -1    0    0    0  501 -0.00000000000E+00 -0.00000000000E+00 -0.11405508858E+03  0.11405508858E+03  0.00000000000E+00 0.  1.
         25    2    1    2    0    0 -0.56149603914E+02 -0.74345227756E+02  0.32885426521E+01  0.15600518871E+03  0.12508722349E+03 0.  0.
         23    2    1    2    0    0  0.56149603914E+02  0.74345227756E+02  0.74274126020E+02  0.14966765713E+03  0.90574670223E+02 0.  0.
          5    1    3    3  502    0  0.39998379046E+02 -0.15742215929E+02  0.34805112570E+01  0.43327520668E+02  0.41800000000E+01 0. -1.
         -5    1    3    3    0  502 -0.96147982960E+02 -0.58603011827E+02 -0.19196860493E+00  0.11267766804E+03  0.41800000000E+01 0. -1.
        -11    1    4    4    0    0  0.51881062032E+02  0.90728599416E+02  0.40876611805E+02  0.11222397579E+03  0.00000000000E+00 0.  1.
         11    1    4    4    0    0  0.42685418824E+01 -0.16383371660E+02  0.33397514215E+02  0.37443681343E+02  0.00000000000E+00 0. -1.
</event>
<event>
 8    1  0.7103328E-009  0.9608009E+02  0.7561462E-02  0.1288762E+00
         -3   -1    0    0    0  501 -0.00000000000E+00  0.00000000000E+00  0.55623991829E+03  0.55623991829E+03  0.00000000000E+00 0. -1.
          3   -1    0    0  501    0  0.00000000000E+00 -0.00000000000E+00 -0.32991308343E+02  0.32991308343E+02  0.00000000000E+00 0.  1.
         25    2    1    2    0    0 -0.58050102878E+02 -0.51833396926E+02  0.34081556542E+03  0.37129373160E+03  0.12508904835E+03 0.  0.
         23    2    1    2    0    0  0.58050102878E+02  0.51833396926E+02  0.18243304453E+03  0.21793749503E+03  0.90323975341E+02 0.  0.
          5    1    3    3  502    0 -0.61757713052E+02 -0.55541972435E+02  0.35009913264E+03  0.35984135518E+03  0.41800000000E+01 0. -1.
         -5    1    3    3    0  502  0.37076101746E+01  0.37085755095E+01 -0.92835672187E+01  0.11452376427E+02  0.41800000000E+01 0. -1.
        -11    1    4    4    0    0  0.37449416598E+01 -0.15408444048E+02  0.90012995566E+02  0.91399037778E+02  0.00000000000E+00 0.  1.
         11    1    4    4    0    0  0.54305161218E+02  0.67241840974E+02  0.92420048962E+02  0.12653845725E+03  0.00000000000E+00 0. -1.
</event>
<event>
 8    1  0.7103328E-009  0.2473083E+03  0.7561462E-02  0.1115018E+00
         -4   -1    0    0    0  501 -0.00000000000E+00  0.00000000000E+00  0.15559453515E+03  0.15559453515E+03  0.00000000000E+00 0.  1.
          4   -1    0    0  501    0  0.00000000000E+00 -0.00000000000E+00 -0.42157484405E+03  0.42157484405E+03  0.00000000000E+00 0. -1.
         25    2    1    2    0    0  0.19951693094E+03 -0.11395122863E+03 -0.10783230051E+03  0.28296154019E+03  0.12509012735E+03 0.  0.
         23    2    1    2    0    0 -0.19951693094E+03  0.11395122863E+03 -0.15814800840E+03  0.29420783901E+03  0.93571212109E+02 0.  0.
          5    1    3    3  502    0  0.14621381829E+03 -0.21236459250E+02 -0.93702791943E+02  0.17500615269E+03  0.41800000000E+01 0.  1.
         -5    1    3    3    0  502  0.53303112645E+02 -0.92714769382E+02 -0.14129508563E+02  0.10795538751E+03  0.41800000000E+01 0.  1.
        -11    1    4    4    0    0 -0.12649153309E+03  0.32927944822E+02 -0.48138512362E+02  0.13928989147E+03  0.00000000000E+00 0.  1.
         11    1    4    4    0    0 -0.73025397844E+02  0.81023283810E+02 -0.11000949604E+03  0.15491794753E+03  0.00000000000E+00 0. -1.
</event>
<event>
 8    1  0.7103328E-009  0.1200205E+03  0.7561462E-02  0.1243063E+00
         -1   -1    0    0    0  501 -0.00000000000E+00  0.00000000000E+00  0.35459611508E+03  0.35459611508E+03  0.00000000000E+00 0.  1.
          1   -1    0    0  501    0  0.00000000000E+00 -0.00000000000E+00 -0.58806455511E+02  0.58806455511E+02  0.00000000000E+00 0. -1.
         25    2    1    2    0    0  0.55879538258E+02  0.75245791907E+02  0.14078609582E+03  0.21036623191E+03  0.12509506288E+03 0.  0.
         23    2    1    2    0    0 -0.55879538258E+02 -0.75245791907E+02  0.15500356375E+03  0.20303633868E+03  0.91723486928E+02 0.  0.
          5    1    3    3  502    0  0.29608536980E+02  0.92675996123E+02  0.14855516895E+03  0.17762774654E+03  0.41800000000E+01 0. -1.
         -5    1    3    3    0  502  0.26271001278E+02 -0.17430204216E+02 -0.77690731269E+01  0.32738485371E+02  0.41800000000E+01 0. -1.
        -11    1    4    4    0    0  0.12755858293E+02 -0.12636028839E+02  0.84564528871E+02  0.86449642502E+02  0.00000000000E+00 0.  1.
         11    1    4    4    0    0 -0.68635396550E+02 -0.62609763068E+02  0.70439034874E+02  0.11658669618E+03  0.00000000000E+00 0. -1.
</event>
<event>
 8    1  0.7103328E-009  0.1324547E+03  0.7561462E-02  0.1223858E+00
          2   -1    0    0  501    0  0.00000000000E+00  0.00000000000E+00  0.10583907827E+03  0.10583907827E+03  0.00000000000E+00 0.  1.
         -2   -1    0    0    0  501 -0.00000000000E+00 -0.00000000000E+00 -0.45507553910E+03  0.45507553910E+03  0.00000000000E+00 0. -1.
         25    2    1    2    0    0  0.38446689320E+02  0.66651839545E+02 -0.40377640081E+03  0.42965541077E+03  0.12509106490E+03 0.  0.
         23    2    1    2    0    0 -0.38446689320E+02 -0.66651839545E+02  0.54539939979E+02  0.13125920661E+03  0.91289422351E+02 0.  0.
          5    1    3    3  502    0  0.40284016050E+02  0.10209847480E+03 -0.27838270906E+03  0.29926794952E+03  0.41800000000E+01 0.  1.
         -5    1    3    3    0  502 -0.18373267302E+01 -0.35446635255E+02 -0.12539369174E+03  0.13038746124E+03  0.41800000000E+01 0.  1.
        -11    1    4    4    0    0 -0.54119569722E+02 -0.34650758961E+01  0.26856348138E+02  0.60516097141E+02  0.00000000000E+00 0. -1.
         11    1    4    4    0    0  0.15672880402E+02 -0.63186763648E+02  0.27683591841E+02  0.70743109471E+02  0.00000000000E+00 0.  1.
</event>
<event>
 8    1  0.7103328E-009  0.1232028E+03  0.7561462E-02  0.1237905E+00
          1   -1    0    0  501    0  0.00000000000E+00  0.00000000000E+00  0.44356738123E+02  0.44356738123E+02  0.00000000000E+00 0. -1.
         -1   -1    0    0    0  501 -0.00000000000E+00 -0.00000000000E+00 -0.35703474829E+03  0.35703474829E+03  0.00000000000E+00 0.  1.
         25    2    1    2    0    0  0.60297282781E+02 -0.27901207249E+01 -0.16734757301E+03  0.21747714977E+03  0.12509018105E+03 0.  0.
         23    2    1    2    0    0 -0.60297282781E+02  0.27901207249E+01 -0.14533043716E+03  0.18391433664E+03  0.95184033188E+02 0.  0.
          5    1    3    3  502    0  0.10325526376E+02  0.55858314279E+02 -0.99871527636E+02  0.11497200616E+03  0.41800000000E+01 0. -1.
         -5    1    3    3    0  502  0.49971756404E+02 -0.58648435004E+02 -0.67476045372E+02  0.10250514361E+03  0.41800000000E+01 0. -1.
        -11    1    4    4    0    0  0.61935520753E+01  0.36995319407E+02 -0.41188112900E+02  0.55708835830E+02  0.00000000000E+00 0.  1.
         11    1    4    4    0    0 -0.66490834856E+02 -0.34205198682E+02 -0.10414232426E+03  0.12820550081E+03  0.00000000000E+00 0. -1.
</event>
<event>
 8    1  0.7103328E-009  0.1038801E+03  0.7561462E-02  0.1272342E+00
          4   -1    0    0  501    0  0.00000000000E+00  0.00000000000E+00  0.12131278842E+03  0.12131278842E+03  0.00000000000E+00 0.  1.
         -4   -1    0    0    0  501 -0.00000000000E+00 -0.00000000000E+00 -0.18327589937E+03  0.18327589937E+03  0.00000000000E+00 0. -1.
         25    2    1    2    0    0 -0.10851293128E+02 -0.93610063751E+02  0.12789030162E+02  0.15713584074E+03  0.12509004179E+03 0.  0.
         23    2    1    2    0    0  0.10851293128E+02  0.93610063751E+02 -0.74752141108E+02  0.14745284705E+03  0.85286956234E+02 0.  0.
          5    1    3    3  502    0 -0.24991801147E+02 -0.55246861536E+02 -0.52281572444E+02  0.80172570442E+02  0.41800000000E+01 0.  1.
         -5    1    3    3    0  502  0.14140508019E+02 -0.38363202215E+02  0.65070602606E+02  0.76963270297E+02  0.41800000000E+01 0.  1.
        -11    1    4    4    0    0  0.23027107968E+02  0.90402423930E+02 -0.88655107603E+02  0.12869566449E+03  0.00000000000E+00 0. -1.
         11    1    4    4    0    0 -0.12175814840E+02  0.32076398214E+01  0.13902966494E+02  0.18757182559E+02  0.00000000000E+00 0.  1.
</event>
<event>
 8    1  0.7103328E-009  0.1143627E+03  0.7561462E-02  0.1252698E+00
         -1   -1    0    0    0  501 -0.00000000000E+00  0.00000000000E+00  0.83863993338E+01  0.83863993338E+01  0.00000000000E+00 0.  1.
          1   -1    0    0  501    0  0.00000000000E+00 -0.00000000000E+00 -0.21544954928E+04  0.21544954928E+04  0.00000000000E+00 0. -1.
         25    2    1    2    0    0 -0.41332645374E+02  0.21502972891E+02 -0.17216376249E+04  0.17268046240E+04  0.12508929951E+03 0.  0.
         23    2    1    2    0    0  0.41332645374E+02 -0.21502972891E+02 -0.42447146858E+03  0.43607726806E+03  0.88411484950E+02 0.  0.
          5    1    3    3  502    0 -0.74539160592E+02  0.48286355121E+02 -0.10247416449E+04  0.10285915466E+04  0.41800000000E+01 0.  1.
         -5    1    3    3    0  502  0.33206515217E+02 -0.26783382229E+02 -0.69689597995E+03  0.69821307742E+03  0.41800000000E+01 0.  1.
        -11    1    4    4    0    0  0.92104585147E+01  0.32683443145E+02 -0.20305398305E+03  0.20587365065E+03  0.00000000000E+00 0.  1.
         11    1    4    4    0    0  0.32122186860E+02 -0.54186416037E+02 -0.22141748553E+03  0.23020361741E+03  0.00000000000E+00 0. -1.
</event>
<event>
 8    1  0.7103328E-009  0.1007234E+03  0.7561462E-02  0.1278782E+00
         -1   -1    0    0    0  501 -0.00000000000E+00  0.00000000000E+00  0.24948201064E+02  0.24948201064E+02  0.00000000000E+00 0.  1.
          1   -1    0    0  501    0  0.00000000000E+00 -0.00000000000E+00 -0.60864122010E+03  0.60864122010E+03  0.00000000000E+00 0. -1.
         25    2    1    2    0    0  0.54988169024E+02  0.13717925789E+02 -0.30069085228E+03  0.33056940816E+03  0.12509702132E+03 0.  0.
         23    2    1    2    0    0 -0.54988169024E+02 -0.13717925789E+02 -0.28300216676E+03  0.30302001301E+03  0.92298546435E+02 0.  0.
          5    1    3    3  502    0 -0.75519421513E+01  0.45360660205E+02 -0.41658144824E+02  0.62189185190E+02  0.41800000000E+01 0. -1.
         -5    1    3    3    0  502  0.62540111175E+02 -0.31642734416E+02 -0.25903270746E+03  0.26838022297E+03  0.41800000000E+01 0. -1.
        -11    1    4    4    0    0 -0.11881754476E+02 -0.35016264089E+02 -0.36805916247E+02  0.52172696988E+02  0.00000000000E+00 0.  1.
         11    1    4    4    0    0 -0.43106414547E+02  0.21298338300E+02 -0.24619625051E+03  0.25084731602E+03  0.00000000000E+00 0. -1.
</event>
<event>
 8    1  0.7103328E-009  0.1063136E+03  0.7561462E-02  0.1267553E+00
          1   -1    0    0  501    0  0.00000000000E+00  0.00000000000E+00  0.92717872260E+02  0.92717872260E+02  0.00000000000E+00 0. -1.
         -1   -1    0    0    0  501 -0.00000000000E+00 -0.00000000000E+00 -0.13120913493E+03  0.13120913493E+03  0.00000000000E+00 0.  1.
         25    2    1    2    0    0  0.96251982009E+01 -0.14677995915E+02 -0.11824456027E+02  0.12686942882E+03  0.12509175114E+03 0.  0.
         23    2    1    2    0    0 -0.96251982009E+01  0.14677995915E+02 -0.26666806642E+02  0.97057578373E+02  0.91656788830E+02 0.  0.
          5    1    3    3  502    0  0.64688674435E+01  0.52762285373E+02 -0.23422286170E+02  0.58238998044E+02  0.41800000000E+01 0. -1.
         -5    1    3    3    0  502  0.31563307573E+01 -0.67440281287E+02  0.11597830143E+02  0.68630430772E+02  0.41800000000E+01 0. -1.
        -11    1    4    4    0    0  0.39490829814E+02  0.15797861556E+02 -0.33181005142E+01  0.42662722137E+02  0.00000000000E+00 0. -1.
         11    1    4    4    0    0 -0.49116028015E+02 -0.11198656416E+01 -0.23348706128E+02  0.54394856235E+02  0.00000000000E+00 0.  1.
</event>
<event>
 8    1  0.7103328E-009  0.1510683E+03  0.7561462E-02  0.1199166E+00
          2   -1    0    0  501    0  0.00000000000E+00  0.00000000000E+00  0.35913616656E+03  0.35913616656E+03  0.00000000000E+00 0.  1.
         -2   -1    0    0    0  501 -0.00000000000E+00 -0.00000000000E+00 -0.83248450966E+02  0.83248450966E+02  0.00000000000E+00 0. -1.
         25    2    1    2    0    0 -0.28510201751E+02  0.10471217185E+03  0.45813586333E+02  0.17182587943E+03  0.12509107726E+03 0.  0.
         23    2    1    2    0    0  0.28510201751E+02 -0.10471217185E+03  0.23007412926E+03  0.27055873810E+03  0.92143666460E+02 0.  0.
          5    1    3    3  502    0 -0.54867318602E+02  0.12058144552E+03  0.26220315245E+02  0.13511212005E+03  0.41800000000E+01 0. -1.
         -5    1    3    3    0  502  0.26357116851E+02 -0.15869273664E+02  0.19593271089E+02  0.36713759373E+02  0.41800000000E+01 0. -1.
        -11    1    4    4    0    0 -0.28203671901E+02 -0.13814336028E+02  0.81843179129E+02  0.87661787334E+02  0.00000000000E+00 0.  1.
         11    1    4    4    0    0  0.56713873652E+02 -0.90897835826E+02  0.14823095013E+03  0.18289695076E+03  0.00000000000E+00 0. -1.
</event>
<event>
 8    1  0.7103328E-009  0.7309608E+02  0.7561462E-02  0.1349870E+00
          1   -1    0    0  501    0  0.00000000000E+00  0.00000000000E+00  0.78559292398E+02  0.78559292398E+02  0.00000000000E+00 0. -1.
         -1   -1    0    0    0  501 -0.00000000000E+00 -0.00000000000E+00 -0.32911062428E+03  0.32911062428E+03  0.00000000000E+00 0.  1.
         25    2    1    2    0    0  0.31546308241E+02 -0.20524839056E+02  0.83763127756E+01  0.13090207929E+03  0.12509497658E+03 0.  0.
         23    2    1    2    0    0 -0.31546308241E+02  0.20524839056E+02 -0.25892764465E+03  0.27676783738E+03  0.90224564627E+02 0.  0.
          5    1    3    3  502    0  0.17074619913E+02 -0.26882785665E+02  0.64710236158E+02  0.72243434815E+02  0.41800000000E+01 0. -1.
         -5    1    3    3    0  502  0.14471688327E+02  0.63579466093E+01 -0.56333923382E+02  0.58658644476E+02  0.41800000000E+01 0. -1.
        -11    1    4    4    0    0  0.30233246631E+02 -0.54207434749E+01 -0.84978752132E+02  0.90359404467E+02  0.00000000000E+00 0.  1.
         11    1    4    4    0    0 -0.61779554872E+02  0.25945582531E+02 -0.17394889252E+03  0.18640843292E+03  0.00000000000E+00 0. -1.
</event>
<event>
 8    1  0.7103328E-009  0.9507251E+02  0.7561462E-02  0.1291013E+00
         -2   -1    0    0    0  501 -0.00000000000E+00  0.00000000000E+00  0.47819503390E+02  0.47819503390E+02  0.00000000000E+00 0.  1.
          2   -1    0    0  501    0  0.00000000000E+00 -0.00000000000E+00 -0.54032134989E+03  0.54032134989E+03  0.00000000000E+00 0. -1.
         25    2    1    2    0    0 -0.37355879889E+02 -0.24359880558E+02 -0.64261639945E+02  0.14753529990E+03  0.12509292868E+03 0.  0.
         23    2    1    2    0    0  0.37355879889E+02  0.24359880558E+02 -0.42824020655E+03  0.44060555338E+03  0.93566626621E+02 0.  0.
          5    1    3    3  502    0  0.28321352022E+02 -0.73159147914E+01 -0.73228377664E+02  0.78965114353E+02  0.41800000000E+01 0.  1.
         -5    1    3    3    0  502 -0.65677231910E+02 -0.17043965766E+02  0.89667377183E+01  0.68570185546E+02  0.41800000000E+01 0.  1.
        -11    1    4    4    0    0 -0.25237850995E+02 -0.55871403306E+00 -0.45981730757E+02  0.52455513034E+02  0.00000000000E+00 0.  1.
         11    1    4    4    0    0  0.62593730884E+02  0.24918594591E+02 -0.38225847580E+03  0.38815004034E+03  0.00000000000E+00 0. -1.
</event>
<event>
 8    1  0.7103328E-009  0.8097088E+02  0.7561462E-02  0.1326319E+00
          1   -1    0    0  501    0  0.00000000000E+00  0.00000000000E+00  0.76102954976E+02  0.76102954976E+02  0.00000000000E+00 0. -1.
         -1   -1    0    0    0  501 -0.00000000000E+00 -0.00000000000E+00 -0.19669607813E+03  0.19669607813E+03  0.00000000000E+00 0.  1.
         25    2    1    2    0    0  0.29505751571E+02 -0.28013502365E+02 -0.10832366743E+03  0.17040182226E+03  0.12508964151E+03 0.  0.
         23    2    1    2    0    0 -0.29505751571E+02  0.28013502365E+02 -0.12269455730E+02  0.10239721085E+03  0.93162779887E+02 0.  0.
          5    1    3    3  502    0  0.71984328165E+02 -0.27187772142E+02 -0.10107269057E+03  0.12709870037E+03  0.41800000000E+01 0. -1.
         -5    1    3    3    0  502 -0.42478576594E+02 -0.82573022272E+00 -0.72509768536E+01  0.43303121887E+02  0.41800000000E+01 0. -1.
        -11    1    4    4    0    0 -0.13909429841E+02  0.20758873647E+02  0.40114894720E+02  0.47261060631E+02  0.00000000000E+00 0. -1.
         11    1    4    4    0    0 -0.15596321730E+02  0.72546287179E+01 -0.52384350450E+02  0.55136150223E+02  0.00000000000E+00 0.  1.
</event>
<event>
 8    1  0.7103328E-009  0.1172845E+03  0.7561462E-02  0.1247645E+00
         -2   -1    0    0    0  501 -0.00000000000E+00  0.00000000000E+00  0.19463980948E+02  0.19463980948E+02  0.00000000000E+00 0.  1.
          2   -1    0    0  501    0  0.00000000000E+00 -0.00000000000E+00 -0.10420619785E+04  0.10420619785E+04  0.00000000000E+00 0. -1.
         25    2    1    2    0    0  0.64079488486E+02 -0.41898746786E+02 -0.75262451075E+03  0.76677989176E+03  0.12508422122E+03 0.  0.
         23    2    1    2    0    0 -0.64079488486E+02  0.41898746786E+02 -0.26997348683E+03  0.29474606772E+03  0.90154728196E+02 0.  0.
          5    1    3    3  502    0  0.16854167342E+02  0.43121956469E+02 -0.31852963057E+03  0.32190396711E+03  0.41800000000E+01 0.  1.
         -5    1    3    3    0  502  0.47225321144E+02 -0.85020703256E+02 -0.43409488018E+03  0.44487592465E+03  0.41800000000E+01 0.  1.
        -11    1    4    4    0    0  0.24500946428E+01  0.20796111747E+02 -0.61181831468E+01  0.21815439316E+02  0.00000000000E+00 0.  1.
         11    1    4    4    0    0 -0.66529583129E+02  0.21102635039E+02 -0.26385530368E+03  0.27293062840E+03  0.00000000000E+00 0. -1.
</event>
<event>
 8    1  0.7103328E-009  0.1635167E+03  0.7561462E-02  0.1184783E+00
         -1   -1    0    0    0  501 -0.00000000000E+00  0.00000000000E+00  0.51486278751E+02  0.51486278751E+02  0.00000000000E+00 0.  1.
          1   -1    0    0  501    0  0.00000000000E+00 -0.00000000000E+00 -0.66370158698E+03  0.66370158698E+03  0.00000000000E+00 0. -1.
         25    2    1    2    0    0 -0.11609469994E+03 -0.82594582285E+02 -0.40820112812E+03  0.45008900732E+03  0.12510838954E+03 0.  0.
         23    2    1    2    0    0  0.11609469994E+03  0.82594582285E+02 -0.20401418011E+03  0.26509885842E+03  0.91409926541E+02 0.  0.
          5    1    3    3  502    0 -0.94432658409E+02 -0.10216645281E+03 -0.39298002660E+03  0.41690080926E+03  0.41800000000E+01 0. -1.
         -5    1    3    3    0  502 -0.21662041526E+02  0.19571870523E+02 -0.15221101516E+02  0.33188198056E+02  0.41800000000E+01 0. -1.
        -11    1    4    4    0    0  0.37038768853E+02  0.68754287749E+02 -0.14763150594E+03  0.16701522095E+03  0.00000000000E+00 0. -1.
         11    1    4    4    0    0  0.79055931083E+02  0.13840294536E+02 -0.56382674174E+02  0.98083637469E+02  0.00000000000E+00 0.  1.
</event>
<event>
 8    1  0.7103328E-009  0.1112655E+03  0.7561462E-02  0.1258244E+00
          1   -1    0    0  501    0  0.00000000000E+00  0.00000000000E+00  0.42515829744E+03  0.42515829744E+03  0.00000000000E+00 0. -1.
         -1   -1    0    0    0  501 -0.00000000000E+00 -0.00000000000E+00 -0.42818945289E+02  0.42818945289E+02  0.00000000000E+00 0.  1.
         25    2    1    2    0    0  0.31108704543E+02 -0.70381322472E+02  0.17558387079E+03  0.22890252029E+03  0.12508151767E+03 0.  0.
         23    2    1    2    0    0 -0.31108704543E+02  0.70381322472E+02  0.20675548136E+03  0.23907472244E+03  0.92128235547E+02 0.  0.
          5    1    3    3  502    0 -0.11141374329E+02 -0.85843104918E+02  0.61703837329E+02  0.10638611199E+03  0.41800000000E+01 0. -1.
         -5    1    3    3    0  502  0.42250078872E+02  0.15461782446E+02  0.11388003347E+03  0.12251640830E+03  0.41800000000E+01 0. -1.
        -11    1    4    4    0    0 -0.30390878946E+02  0.12603583186E+02  0.10569977873E+02  0.34556913411E+02  0.00000000000E+00 0.  1.
         11    1    4    4    0    0 -0.71782559651E+00  0.57777739285E+02  0.19618550349E+03  0.20451780903E+03  0.00000000000E+00 0. -1.
</event>
<event>
 8    1  0.7103328E-009  0.3896752E+03  0.7561462E-02  0.1047415E+00
         -2   -1    0    0    0  501 -0.00000000000E+00  0.00000000000E+00  0.21797966004E+03  0.21797966004E+03  0.00000000000E+00 0.  1.
          2   -1    0    0  501    0  0.00000000000E+00 -0.00000000000E+00 -0.86313286510E+03  0.86313286510E+03  0.00000000000E+00 0. -1.
         25    2    1    2    0    0  0.48046391579E+02  0.38166185515E+03 -0.11620878502E+03  0.42086338626E+03  0.12508909127E+03 0.  0.
         23    2    1    2    0    0 -0.48046391579E+02 -0.38166185515E+03 -0.52894442004E+03  0.66024913888E+03  0.90401872135E+02 0.  0.
          5    1    3    3  502    0  0.96133954003E+01  0.29719981014E+03 -0.13417563889E+03  0.32625253868E+03  0.41800000000E+01 0. -1.
         -5    1    3    3    0  502  0.38432996179E+02  0.84462045004E+02  0.17966853873E+02  0.94610847579E+02  0.41800000000E+01 0. -1.
        -11    1    4    4    0    0 -0.25619309435E+02 -0.34601127613E+03 -0.50205938500E+03  0.61028172043E+03  0.00000000000E+00 0.  1.
         11    1    4    4    0    0 -0.22427082144E+02 -0.35650579015E+02 -0.26885035042E+02  0.49967418452E+02  0.00000000000E+00 0. -1.
</event>
<event>
 8    1  0.7103328E-009  0.4233621E+03  0.7561462E-02  0.1035978E+00
         -2   -1    0    0    0  501 -0.00000000000E+00  0.00000000000E+00  0.99449920236E+02  0.99449920236E+02  0.00000000000E+00 0.  1.
          2   -1    0    0  501    0  0.00000000000E+00 -0.00000000000E+00 -0.18927301088E+04  0.18927301088E+04  0.00000000000E+00 0. -1.
         25    2    1    2    0    0 -0.52811633205E+02  0.41404840531E+03 -0.80627355432E+03  0.91648763054E+03  0.12508949592E+03 0.  0.
         23    2    1    2    0    0  0.52811633205E+02 -0.41404840531E+03 -0.98700663427E+03  0.10756923985E+04  0.93310715416E+02 0.  0.
          5    1    3    3  502    0 -0.51553890767E+02  0.21711669872E+03 -0.30533537009E+03  0.37821240744E+03  0.41800000000E+01 0.  1.
         -5    1    3    3    0  502 -0.12577424375E+01  0.19693170659E+03 -0.50093818423E+03  0.53827522310E+03  0.41800000000E+01 0.  1.
        -11    1    4    4    0    0 -0.24513658854E+01 -0.29806695997E+03 -0.72491577541E+03  0.78380661088E+03  0.00000000000E+00 0. -1.
         11    1    4    4    0    0  0.55262999090E+02 -0.11598144534E+03 -0.26209085885E+03  0.29188578764E+03  0.00000000000E+00 0.  1.
</event>
<event>
 8    1  0.7103328E-009  0.1410014E+03  0.7561462E-02  0.1211988E+00
         -3   -1    0    0    0  501 -0.00000000000E+00  0.00000000000E+00  0.33175594788E+03  0.33175594788E+03  0.00000000000E+00 0.  1.
          3   -1    0    0  501    0  0.00000000000E+00 -0.00000000000E+00 -0.71484428341E+02  0.71484428341E+02  0.00000000000E+00 0. -1.
         25    2    1    2    0    0  0.10778197766E+03 -0.39744090885E+01  0.15639689445E+03  0.22746354163E+03  0.12508766343E+03 0.  0.
         23    2    1    2    0    0 -0.10778197766E+03  0.39744090885E+01  0.10387462508E+03  0.17577683459E+03  0.92058716082E+02 0.  0.
          5    1    3    3  502    0  0.34220778938E+02 -0.47416596343E+02  0.12312463703E+02  0.59903793555E+02  0.41800000000E+01 0.  1.
         -5    1    3    3    0  502  0.73561198718E+02  0.43442187254E+02  0.14408443075E+03  0.16755974807E+03  0.41800000000E+01 0.  1.
        -11    1    4    4    0    0 -0.67551631855E+02 -0.39789632108E+02  0.79116759143E+02  0.11138177305E+03  0.00000000000E+00 0.  1.
         11    1    4    4    0    0 -0.40230345801E+02  0.43764041196E+02  0.24757865940E+02  0.64395061542E+02  0.00000000000E+00 0. -1.
</event>
<event>
 8    1  0.7103328E-009  0.8753570E+02  0.7561462E-02  0.1308932E+00
         -2   -1    0    0    0  501 -0.00000000000E+00  0.00000000000E+00  0.60909225752E+02  0.60909225752E+02  0.00000000000E+00 0. -1.
          2   -1    0    0  501    0  0.00000000000E+00 -0.00000000000E+00 -0.59765633980E+03  0.59765633980E+03  0.00000000000E+00 0.  1.
         25    2    1    2    0    0  0.70502705382E+02 -0.46200060006E+02 -0.50903512218E+03  0.53091400045E+03  0.12509133962E+03 0.  0.
         23    2    1    2    0    0 -0.70502705382E+02  0.46200060006E+02 -0.27711991862E+02  0.12765156510E+03  0.91770859037E+02 0.  0.
          5    1    3    3  502    0  0.23775549512E+02 -0.33334233870E+02 -0.33972251317E+02  0.53366976323E+02  0.41800000000E+01 0.  1.
         -5    1    3    3    0  502  0.46727155870E+02 -0.12865826136E+02 -0.47506287087E+03  0.47754702413E+03  0.41800000000E+01 0.  1.
        -11    1    4    4    0    0 -0.33976010274E+02  0.14641066515E+02  0.33353107196E+02  0.49811242330E+02  0.00000000000E+00 0. -1.
         11    1    4    4    0    0 -0.36526695109E+02  0.31558993492E+02 -0.61065099058E+02  0.77840322769E+02  0.00000000000E+00 0.  1.
</event>
<event>
 8    1  0.7103328E-009  0.4555062E+03  0.7561462E-02  0.1026093E+00
          1   -1    0    0  501    0  0.00000000000E+00  0.00000000000E+00  0.72517892099E+03  0.72517892099E+03  0.00000000000E+00 0. -1.
         -1   -1    0    0    0  501 -0.00000000000E+00 -0.00000000000E+00 -0.35861090963E+03  0.35861090963E+03  0.00000000000E+00 0.  1.
         25    2    1    2    0    0 -0.14484541542E+03  0.42661836282E+03 -0.41460357559E+02  0.46941503779E+03  0.12509234426E+03 0.  0.
         23    2    1    2    0    0  0.14484541542E+03 -0.42661836282E+03  0.40802836891E+03  0.61437479283E+03  0.89363383755E+02 0.  0.
          5    1    3    3  502    0 -0.38009041168E+02  0.21747285888E+03  0.32428591376E+02  0.22317754703E+03  0.41800000000E+01 0. -1.
         -5    1    3    3    0  502 -0.10683637426E+03  0.20914550395E+03 -0.73888948936E+02  0.24623749077E+03  0.41800000000E+01 0. -1.
        -11    1    4    4    0    0  0.10030354526E+03 -0.36954881376E+03  0.37054844251E+03  0.53285389666E+03  0.00000000000E+00 0.  1.
         11    1    4    4    0    0  0.44541870167E+02 -0.57069549059E+02  0.37479926405E+02  0.81520896163E+02  0.00000000000E+00 0. -1.
</event>
<event>
 8    1  0.7103328E-009  0.9514872E+02  0.7561462E-02  0.1290841E+00
          2   -1    0    0  501    0  0.00000000000E+00  0.00000000000E+00  0.23933192905E+03  0.23933192905E+03  0.00000000000E+00 0. -1.
         -2   -1    0    0    0  501 -0.00000000000E+00 -0.00000000000E+00 -0.83073498629E+02  0.83073498629E+02  0.00000000000E+00 0.  1.
         25    2    1    2    0    0 -0.16338770720E+02  0.68049971905E+02  0.14971415514E+03  0.20726568188E+03  0.12508789122E+03 0.  0.
         23    2    1    2    0    0  0.16338770720E+02 -0.68049971905E+02  0.65442752809E+01  0.11513974580E+03  0.91195281784E+02 0.  0.
          5    1    3    3  502    0 -0.16029322745E+01 -0.36043044195E+01  0.13168065794E+03  0.13180602596E+03  0.41800000000E+01 0. -1.
         -5    1    3    3    0  502 -0.14735838446E+02  0.71654276324E+02  0.18033497197E+02  0.75459655919E+02  0.41800000000E+01 0. -1.
        -11    1    4    4    0    0  0.30820224096E+02  0.96057341558E+01  0.15182464657E+02  0.35674410648E+02  0.00000000000E+00 0. -1.
         11    1    4    4    0    0 -0.14481453376E+02 -0.77655706060E+02 -0.86381893765E+01  0.79465335155E+02  0.00000000000E+00 0.  1.
</event>
<event>
 8    1  0.7103328E-009  0.1564446E+03  0.7561462E-02  0.1192770E+00
          2   -1    0    0  501    0  0.00000000000E+00  0.00000000000E+00  0.18696862840E+03  0.18696862840E+03  0.00000000000E+00 0. -1.
         -2   -1    0    0    0  501 -0.00000000000E+00 -0.00000000000E+00 -0.16013885299E+03  0.16013885299E+03  0.00000000000E+00 0.  1.
         25    2    1    2    0    0 -0.13382457271E+03 -0.13539051029E+02  0.12164949839E+02  0.18408459232E+03  0.12508728537E+03 0.  0.
         23    2    1    2    0    0  0.13382457271E+03  0.13539051029E+02  0.14664825576E+02  0.16302288907E+03  0.90934498890E+02 0.  0.
          5    1    3    3  502    0  0.20792748412E+02  0.29839432067E+01 -0.15038412087E+02  0.26169993154E+02  0.41800000000E+01 0.  1.
         -5    1    3    3    0  502 -0.15461732112E+03 -0.16522994235E+02  0.27203361926E+02  0.15791459917E+03  0.41800000000E+01 0.  1.
        -11    1    4    4    0    0  0.54932149444E+02 -0.40744559420E+01 -0.37664071154E+02  0.66728738109E+02  0.00000000000E+00 0.  1.
         11    1    4    4    0    0  0.78892423266E+02  0.17613506971E+02  0.52328896730E+02  0.96294150962E+02  0.00000000000E+00 0. -1.
</event>
<event>
 8    1  0.7103328E-009  0.1458348E+03  0.7561462E-02  0.1205687E+00
          1   -1    0    0  501    0  0.00000000000E+00  0.00000000000E+00  0.11522373124E+04  0.11522373124E+04  0.00000000000E+00 0. -1.
         -1   -1    0    0    0  501 -0.00000000000E+00 -0.00000000000E+00 -0.21884665205E+02  0.21884665205E+02  0.00000000000E+00 0.  1.
         25    2    1    2    0    0  0.10752126797E+03  0.29896270577E+02  0.48366985549E+03  0.51189769846E+03  0.12509242389E+03 0.  0.
         23    2    1    2    0    0 -0.10752126797E+03 -0.29896270577E+02  0.64668279175E+03  0.66222427919E+03  0.88813021246E+02 0.  0.
          5    1    3    3  502    0 -0.27265602794E+02 -0.24637211788E+01  0.10645288247E+03  0.10999623450E+03  0.41800000000E+01 0.  1.
         -5    1    3    3    0  502  0.13478687077E+03  0.32359991756E+02  0.37721697302E+03  0.40190146396E+03  0.41800000000E+01 0.  1.
        -11    1    4    4    0    0 -0.14493712678E+02  0.15977775066E+02  0.30413905475E+02  0.37287566956E+02  0.00000000000E+00 0.  1.
         11    1    4    4    0    0 -0.93027555297E+02 -0.45874045643E+02  0.61626888627E+03  0.62493671223E+03  0.00000000000E+00 0. -1.
</event>
<event>
 8    1  0.7103328E-009  0.9724633E+02  0.7561462E-02  0.1286195E+00
         -1   -1    0    0    0  501 -0.00000000000E+00  0.00000000000E+00  0.28150079751E+02  0.28150079751E+02  0.00000000000E+00 0.  1.
          1   -1    0    0  501    0  0.00000000000E+00 -0.00000000000E+00 -0.45868169429E+03  0.45868169429E+03  0.00000000000E+00 0. -1.
         25    2    1    2    0    0 -0.11609344271E+02  0.10916634267E+02 -0.30512888219E+03  0.33016575953E+03  0.12510733089E+03 0.  0.
         23    2    1    2    0    0  0.11609344271E+02 -0.10916634267E+02 -0.12540273235E+03  0.15666601451E+03  0.92544286932E+02 0.  0.
          5    1    3    3  502    0 -0.38389130045E+01  0.57606777303E+02 -0.25339143005E+03  0.25991915525E+03  0.41800000000E+01 0.  1.
         -5    1    3    3    0  502 -0.77704312668E+01 -0.46690143036E+02 -0.51737452142E+02  0.70246604281E+02  0.41800000000E+01 0.  1.
        -11    1    4    4    0    0  0.34026864951E+02 -0.39906653167E+02 -0.48298046057E+02  0.71295650346E+02  0.00000000000E+00 0.  1.
         11    1    4    4    0    0 -0.22417520680E+02  0.28990018900E+02 -0.77104686294E+02  0.85370364165E+02  0.00000000000E+00 0. -1.
</event>
<event>
 8    1  0.7103328E-009  0.1057910E+03  0.7561462E-02  0.1268569E+00
          1   -1    0    0  501    0  0.00000000000E+00  0.00000000000E+00  0.24125294199E+03  0.24125294199E+03  0.00000000000E+00 0. -1.
         -1   -1    0    0    0  501 -0.00000000000E+00 -0.00000000000E+00 -0.51383370834E+02  0.51383370834E+02  0.00000000000E+00 0.  1.
         25    2    1    2    0    0  0.17491080616E+02 -0.18449185257E+02  0.10491077473E+03  0.16522773340E+03  0.12509045884E+03 0.  0.
         23    2    1    2    0    0 -0.17491080616E+02  0.18449185257E+02  0.84958796426E+02  0.12740857942E+03  0.91480263897E+02 0.  0.
          5    1    3    3  502    0 -0.36840080206E+02  0.28721340371E+02  0.13464962549E+02  0.48794308262E+02  0.41800000000E+01 0. -1.
         -5    1    3    3    0  502  0.54331160822E+02 -0.47170525628E+02  0.91445812183E+02  0.11643342514E+03  0.41800000000E+01 0. -1.
        -11    1    4    4    0    0 -0.53395094946E+02  0.28709397396E+01  0.62620412770E+02  0.82344365652E+02  0.00000000000E+00 0. -1.
         11    1    4    4    0    0  0.35904014330E+02  0.15578245517E+02  0.22338383656E+02  0.45064213770E+02  0.00000000000E+00 0.  1.
</event>
<event>
 8    1  0.7103328E-009  0.1875514E+03  0.7561462E-02  0.1160689E+00
          1   -1    0    0  501    0  0.00000000000E+00  0.00000000000E+00  0.16342588628E+04  0.16342588628E+04  0.00000000000E+00 0. -1.
         -1   -1    0    0    0  501 -0.00000000000E+00 -0.00000000000E+00 -0.26645885588E+02  0.26645885588E+02  0.00000000000E+00 0.  1.
         25    2    1    2    0    0  0.91414321959E+02 -0.13126341937E+03  0.11601068986E+04  0.11777441884E+04  0.12508674342E+03 0.  0.
         23    2    1    2    0    0 -0.91414321959E+02  0.13126341937E+03  0.44750607860E+03  0.48316056007E+03  0.87153731428E+02 0.  0.
          5    1    3    3  502    0  0.11353427779E+03 -0.81837450261E+02  0.96921406185E+03  0.97927563565E+03  0.41800000000E+01 0.  1.
         -5    1    3    3    0  502 -0.22119955831E+02 -0.49425969113E+02  0.19089283680E+03  0.19846855270E+03  0.41800000000E+01 0.  1.
        -11    1    4    4    0    0 -0.10779661690E+03  0.11120788157E+03  0.40198464863E+03  0.43078876642E+03  0.00000000000E+00 0.  1.
         11    1    4    4    0    0  0.16382294942E+02  0.20055537801E+02  0.45521429972E+02  0.52371793656E+02  0.00000000000E+00 0. -1.
</event>
<event>
 8    1  0.7103328E-009  0.1383036E+03  0.7561462E-02  0.1215630E+00
          1   -1    0    0  501    0  0.00000000000E+00  0.00000000000E+00  0.78900575977E+03  0.78900575977E+03  0.00000000000E+00 0. -1.
         -1   -1    0    0    0  501 -0.00000000000E+00 -0.00000000000E+00 -0.35569150228E+02  0.35569150228E+02  0.00000000000E+00 0.  1.
         25    2    1    2    0    0 -0.56088867262E+02 -0.11449880757E+03  0.42557621592E+03  0.46154017676E+03  0.12509309028E+03 0.  0.
         23    2    1    2    0    0  0.56088867262E+02  0.11449880757E+03  0.32786039361E+03  0.36303473324E+03  0.89698616864E+02 0.  0.
          5    1    3    3  502    0 -0.69268682915E+01 -0.91329289834E+02  0.11935906932E+03  0.15050940341E+03  0.41800000000E+01 0.  1.
         -5    1    3    3    0  502 -0.49161998971E+02 -0.23169517740E+02  0.30621714661E+03  0.31103077335E+03  0.41800000000E+01 0.  1.
        -11    1    4    4    0    0  0.23888008844E+01  0.31277893845E+02  0.14807853890E+02  0.34688406563E+02  0.00000000000E+00 0.  1.
         11    1    4    4    0    0  0.53700066378E+02  0.83220913729E+02  0.31305253972E+03  0.32834632667E+03  0.00000000000E+00 0. -1.
</event>
<event>
 8    1  0.7103328E-009  0.1002024E+03  0.7561462E-02  0.1279871E+00
         -2   -1    0    0    0  501 -0.00000000000E+00  0.00000000000E+00  0.20726405380E+02  0.20726405380E+02  0.00000000000E+00 0. -1.
          2   -1    0    0  501    0  0.00000000000E+00 -0.00000000000E+00 -0.62563201063E+03  0.62563201063E+03  0.00000000000E+00 0.  1.
         25    2    1    2    0    0 -0.13756413872E+02 -0.59930156079E+01 -0.44680082637E+03  0.46422322315E+03  0.12508823809E+03 0.  0.
         23    2    1    2    0    0  0.13756413872E+02  0.59930156079E+01 -0.15810477888E+03  0.18213519286E+03  0.89168112096E+02 0.  0.
          5    1    3    3  502    0 -0.54553498864E+02 -0.36045297702E+02 -0.15907453503E+03  0.17203932056E+03  0.41800000000E+01 0.  1.
         -5    1    3    3    0  502  0.40797084992E+02  0.30052282094E+02 -0.28772629134E+03  0.29218390259E+03  0.41800000000E+01 0.  1.
        -11    1    4    4    0    0  0.34052237386E+02  0.34874875478E+02 -0.12320222288E+03  0.13249377168E+03  0.00000000000E+00 0.  1.
         11    1    4    4    0    0 -0.20295823514E+02 -0.28881859870E+02 -0.34902555996E+02  0.49641421180E+02  0.00000000000E+00 0. -1.
</event>
<event>
 8    1  0.7103328E-009  0.1154910E+03  0.7561462E-02  0.1250726E+00
          2   -1    0    0  501    0  0.00000000000E+00  0.00000000000E+00  0.92476857441E+02  0.92476857441E+02  0.00000000000E+00 0. -1.
         -2   -1    0    0    0  501 -0.00000000000E+00 -0.00000000000E+00 -0.22315511418E+03  0.22315511418E+03  0.00000000000E+00 0.  1.
         25    2    1    2    0    0 -0.42027721463E+02  0.61989053069E+02 -0.93465917516E+01  0.14609812613E+03  0.12509329163E+03 0.  0.
         23    2    1    2    0    0  0.42027721463E+02 -0.61989053069E+02 -0.12133166499E+03  0.16953384549E+03  0.91713574604E+02 0.  0.
          5    1    3    3  502    0  0.36980850194E+02  0.44104842015E+02 -0.25993122073E+02  0.63292457412E+02  0.41800000000E+01 0.  1.
         -5    1    3    3    0  502 -0.79008571657E+02  0.17884211054E+02  0.16646530321E+02  0.82805668719E+02  0.41800000000E+01 0.  1.
        -11    1    4    4    0    0  0.92409062815E+01 -0.58455617257E+02 -0.12301882834E+03  0.13651404933E+03  0.00000000000E+00 0.  1.
         11    1    4    4    0    0  0.32786815181E+02 -0.35334358127E+01  0.16871633539E+01  0.33019796162E+02  0.00000000000E+00 0. -1.
</event>
<event>
 8    1  0.7103328E-009  0.1003892E+03  0.7561462E-02  0.1279480E+00
          3   -1    0    0  501    0  0.00000000000E+00  0.00000000000E+00  0.56814036663E+02  0.56814036663E+02  0.00000000000E+00 0. -1.
         -3   -1    0    0    0  501 -0.00000000000E+00 -0.00000000000E+00 -0.24111170719E+03  0.24111170719E+03  0.00000000000E+00 0.  1.
         25    2    1    2    0    0  0.18948589112E+02 -0.13591971115E+02 -0.15224764620E+03  0.19842033915E+03  0.12508994568E+03 0.  0.
         23    2    1    2    0    0 -0.18948589112E+02  0.13591971115E+02 -0.32050024335E+02  0.99505404703E+02  0.91270645868E+02 0.  0.
          5    1    3    3  502    0 -0.52151804629E+02  0.46405620383E+01 -0.77092590204E+02  0.93284968813E+02  0.41800000000E+01 0.  1.
         -5    1    3    3    0  502  0.71100393741E+02 -0.18232533153E+02 -0.75155055993E+02  0.10513537034E+03  0.41800000000E+01 0.  1.
        -11    1    4    4    0    0 -0.18449863827E+01  0.41748842012E+02 -0.47373649105E+02  0.63171452521E+02  0.00000000000E+00 0.  1.
         11    1    4    4    0    0 -0.17103602729E+02 -0.28156870897E+02  0.15323624771E+02  0.36333952182E+02  0.00000000000E+00 0. -1.
</event>
<event>
 8    1  0.7103328E-009  0.1430549E+03  0.7561462E-02  0.1209277E+00
          2   -1    0    0  501    0  0.00000000000E+00  0.00000000000E+00  0.19415268343E+04  0.19415268343E+04  0.00000000000E+00 0. -1.
         -2   -1    0    0    0  501 -0.00000000000E+00 -0.00000000000E+00 -0.16776790463E+02  0.16776790463E+02  0.00000000000E+00 0.  1.
         25    2    1    2    0    0 -0.10518082469E+02  0.11889934183E+03  0.14923361158E+04  0.15023188351E+04  0.12508843434E+03 0.  0.
         23    2    1    2    0    0  0.10518082469E+02 -0.11889934183E+03  0.43241392806E+03  0.45598478963E+03  0.81808554840E+02 0.  0.
          5    1    3    3  502    0 -0.37991977018E+02  0.10650464843E+03  0.14101132297E+04  0.14146460417E+04  0.41800000000E+01 0.  1.
         -5    1    3    3    0  502  0.27473894549E+02  0.12394693402E+02  0.82222886109E+02  0.87672793421E+02  0.41800000000E+01 0.  1.
        -11    1    4    4    0    0  0.42582433210E+02 -0.44915495089E+02  0.14951704029E+03  0.16182092156E+03  0.00000000000E+00 0.  1.
         11    1    4    4    0    0 -0.32064350741E+02 -0.73983846742E+02  0.28289688777E+03  0.29416386807E+03  0.00000000000E+00 0. -1.
</event>
<event>
 8    1  0.7103328E-009  0.1406794E+03  0.7561462E-02  0.1212418E+00
         -2   -1    0    0    0  501 -0.00000000000E+00  0.00000000000E+00  0.24617289548E+03  0.24617289548E+03  0.00000000000E+00 0.  1.
          2   -1    0    0  501    0  0.00000000000E+00 -0.00000000000E+00 -0.32427167166E+03  0.32427167166E+03  0.00000000000E+00 0. -1.
         25    2    1    2    0    0 -0.97855358650E+02  0.62621896208E+02  0.19598768164E+03  0.25991668194E+03  0.12509331354E+03 0.  0.
         23    2    1    2    0    0  0.97855358650E+02 -0.62621896208E+02 -0.27408645783E+03  0.31052788520E+03  0.88357274867E+02 0.  0.
          5    1    3    3  502    0 -0.41682921536E+02 -0.33585504219E+02  0.96808461994E+02  0.11070141262E+03  0.41800000000E+01 0. -1.
         -5    1    3    3    0  502 -0.56172437114E+02  0.96207400427E+02  0.99179219648E+02  0.14921526932E+03  0.41800000000E+01 0. -1.
        -11    1    4    4    0    0  0.26740563749E+02 -0.17659065779E+02 -0.18590639098E+03  0.18864804945E+03  0.00000000000E+00 0. -1.
         11    1    4    4    0    0  0.71114794901E+02 -0.44962830429E+02 -0.88180066854E+02  0.12187983576E+03  0.00000000000E+00 0.  1.
</event>
<event>
 8    1  0.7103328E-009  0.1030177E+03  0.7561462E-02  0.1274075E+00
          2   -1    0    0  501    0  0.00000000000E+00  0.00000000000E+00  0.86352470613E+03  0.86352470613E+03  0.00000000000E+00 0. -1.
         -2   -1    0    0    0  501 -0.00000000000E+00 -0.00000000000E+00 -0.15615519643E+02  0.15615519643E+02  0.00000000000E+00 0.  1.
         25    2    1    2    0    0  0.24705580704E+01 -0.39554786391E+02  0.47881372056E+03  0.49646821621E+03  0.12508967153E+03 0.  0.
         23    2    1    2    0    0 -0.24705580704E+01  0.39554786391E+02  0.36909546593E+03  0.38267200957E+03  0.92928570173E+02 0.  0.
          5    1    3    3  502    0  0.52109492570E+02  0.11690764376E+01  0.33312388101E+03  0.33720284467E+03  0.41800000000E+01 0. -1.
         -5    1    3    3    0  502 -0.49638934499E+02 -0.40723862829E+02  0.14568983955E+03  0.15926537153E+03  0.41800000000E+01 0. -1.
        -11    1    4    4    0    0 -0.39286602763E+02  0.62940312456E+01  0.79978649588E+02  0.89328810448E+02  0.00000000000E+00 0. -1.
         11    1    4    4    0    0  0.36816044693E+02  0.33260755145E+02  0.28911681634E+03  0.29334319912E+03  0.00000000000E+00 0.  1.
</event>
<event>
 8    1  0.7103328E-009  0.1800793E+03  0.7561462E-02  0.1167726E+00
          3   -1    0    0  501    0  0.00000000000E+00  0.00000000000E+00  0.13543663958E+03  0.13543663958E+03  0.00000000000E+00 0. -1.
         -3   -1    0    0    0  501 -0.00000000000E+00 -0.00000000000E+00 -0.54968153335E+03  0.54968153335E+03  0.00000000000E+00 0.  1.
         25    2    1    2    0    0 -0.16981927559E+03  0.46967674529E+02 -0.43464433879E+03  0.48539443774E+03  0.12509000813E+03 0.  0.
         23    2    1    2    0    0  0.16981927559E+03 -0.46967674529E+02  0.20399445027E+02  0.19972373519E+03  0.91808955069E+02 0.  0.
          5    1    3    3  502    0 -0.69466561012E+02  0.43547941784E+02 -0.72370490545E+02  0.10943941993E+03  0.41800000000E+01 0. -1.
         -5    1    3    3    0  502 -0.10035271458E+03  0.34197327453E+01 -0.36227384825E+03  0.37595501781E+03  0.41800000000E+01 0. -1.
        -11    1    4    4    0    0  0.62330288545E+02 -0.63262518223E+01  0.51021817534E+02  0.80797971489E+02  0.00000000000E+00 0. -1.
         11    1    4    4    0    0  0.10748898704E+03 -0.40641422707E+02 -0.30622372507E+02  0.11892576371E+03  0.00000000000E+00 0.  1.
</event>
<event>
 8    1  0.7103328E-009  0.1114472E+03  0.7561462E-02  0.1257913E+00
          3   -1    0    0  501    0  0.00000000000E+00  0.00000000000E+00  0.22630849180E+02  0.22630849180E+02  0.00000000000E+00 0. -1.
         -3   -1    0    0    0  501 -0.00000000000E+00 -0.00000000000E+00 -0.58988001964E+03  0.58988001964E+03  0.00000000000E+00 0.  1.
         25    2    1    2    0    0 -0.21339396745E+02  0.15489153231E+02 -0.37142997902E+03  0.39281353804E+03  0.12508781967E+03 0.  0.
         23    2    1    2    0    0  0.21339396745E+02 -0.15489153231E+02 -0.19581919145E+03  0.21969733079E+03  0.96054555827E+02 0.  0.
          5    1    3    3  502    0 -0.69331569277E+02 -0.81028982391E+01 -0.25850279485E+03  0.26779412018E+03  0.41800000000E+01 0. -1.
         -5    1    3    3    0  502  0.47992172532E+02  0.23592051470E+02 -0.11292718417E+03  0.12501941785E+03  0.41800000000E+01 0. -1.
        -11    1    4    4    0    0  0.98123597754E+01 -0.56181502192E+02 -0.12053324152E+03  0.13334506329E+03  0.00000000000E+00 0.  1.
         11    1    4    4    0    0  0.11527036970E+02  0.40692348962E+02 -0.75285949923E+02  0.86352267493E+02  0.00000000000E+00 0. -1.
</event>
<event>
 8    1  0.7103328E-009  0.1503523E+03  0.7561462E-02  0.1200041E+00
         -2   -1    0    0    0  501 -0.00000000000E+00  0.00000000000E+00  0.70172902093E+02  0.70172902093E+02  0.00000000000E+00 0.  1.
          2   -1    0    0  501    0  0.00000000000E+00 -0.00000000000E+00 -0.38554368928E+03  0.38554368928E+03  0.00000000000E+00 0. -1.
         25    2    1    2    0    0 -0.13061051275E+02 -0.11639984619E+03 -0.10866330741E+03  0.20291611997E+03  0.12509085543E+03 0.  0.
         23    2    1    2    0    0  0.13061051275E+02  0.11639984619E+03 -0.20670747977E+03  0.25280047140E+03  0.86374654227E+02 0.  0.
          5    1    3    3  502    0 -0.53752091772E+02 -0.11102238161E+03 -0.54728350964E+02  0.13501081952E+03  0.41800000000E+01 0. -1.
         -5    1    3    3    0  502  0.40691040497E+02 -0.53774645833E+01 -0.53934956450E+02  0.67905300451E+02  0.41800000000E+01 0. -1.
        -11    1    4    4    0    0 -0.11354512817E+02  0.11027027902E+03 -0.12390278376E+03  0.16625389986E+03  0.00000000000E+00 0.  1.
         11    1    4    4    0    0  0.24415564092E+02  0.61295671775E+01 -0.82804696013E+02  0.86546571541E+02  0.00000000000E+00 0. -1.
</event>
<event>
 8    1  0.7103328E-009  0.8969695E+02  0.7561462E-02  0.1303587E+00
         -1   -1    0    0    0  501 -0.00000000000E+00  0.00000000000E+00  0.76978195931E+02  0.76978195931E+02  0.00000000000E+00 0.  1.
          1   -1    0    0  501    0  0.00000000000E+00 -0.00000000000E+00 -0.19918009410E+03  0.19918009410E+03  0.00000000000E+00 0. -1.
         25    2    1    2    0    0  0.19437354873E+01 -0.27055201285E+02 -0.12865385917E+03  0.18147842720E+03  0.12508733764E+03 0.  0.
         23    2    1    2    0    0 -0.19437354873E+01  0.27055201285E+02  0.64519609971E+01  0.94679862829E+02  0.90481415773E+02 0.  0.
          5    1    3    3  502    0 -0.16128239476E+02 -0.52169000278E+02 -0.13834285029E+03  0.14878824324E+03  0.41800000000E+01 0.  1.
         -5    1    3    3    0  502  0.18071974963E+02  0.25113798992E+02  0.96889911232E+01  0.32690183968E+02  0.41800000000E+01 0.  1.
        -11    1    4    4    0    0  0.42989139181E+02  0.47730340437E+01  0.10020065351E+02  0.44398757316E+02  0.00000000000E+00 0. -1.
         11    1    4    4    0    0 -0.44932874669E+02  0.22282167242E+02 -0.35681043539E+01  0.50281105513E+02  0.00000000000E+00 0.  1.
</event>
<event>
 8    1  0.7103328E-009  0.1509274E+03  0.7561462E-02  0.1199338E+00
          1   -1    0    0  501    0  0.00000000000E+00  0.00000000000E+00  0.12896795127E+03  0.12896795127E+03  0.00000000000E+00 0. -1.
         -1   -1    0    0    0  501 -0.00000000000E+00 -0.00000000000E+00 -0.26347763915E+03  0.26347763915E+03  0.00000000000E+00 0.  1.
         25    2    1    2    0    0  0.92004769576E+02  0.11265647272E+03 -0.10260752332E+03  0.21756033087E+03  0.12509130767E+03 0.  0.
         23    2    1    2    0    0 -0.92004769576E+02 -0.11265647272E+03 -0.31902164558E+02  0.17488525955E+03  0.91710127212E+02 0.  0.
          5    1    3    3  502    0  0.30133669784E+02  0.78732039570E+02 -0.11813497558E+03  0.14518993410E+03  0.41800000000E+01 0. -1.
         -5    1    3    3    0  502  0.61871099792E+02  0.33924433154E+02  0.15527452259E+02  0.72370396765E+02  0.41800000000E+01 0. -1.
        -11    1    4    4    0    0 -0.14996396637E+02 -0.31495123122E+02 -0.50593214464E+02  0.61453299687E+02  0.00000000000E+00 0.  1.
         11    1    4    4    0    0 -0.77008372939E+02 -0.81161349602E+02  0.18691049906E+02  0.11343195986E+03  0.00000000000E+00 0. -1.
</event>
<event>
 8    1  0.7103328E-009  0.1239807E+03  0.7561462E-02  0.1236671E+00
          1   -1    0    0  501    0  0.00000000000E+00  0.00000000000E+00  0.51880954393E+03  0.51880954393E+03  0.00000000000E+00 0. -1.
         -1   -1    0    0    0  501 -0.00000000000E+00 -0.00000000000E+00 -0.45705598481E+02  0.45705598481E+02  0.00000000000E+00 0.  1.
         25    2    1    2    0    0  0.38145756071E+00  0.95403730473E+02  0.34921435243E+03  0.38301482929E+03  0.12509067997E+03 0.  0.
         23    2    1    2    0    0 -0.38145756071E+00 -0.95403730473E+02  0.12388959301E+03  0.18150031312E+03  0.92150502476E+02 0.  0.
          5    1    3    3  502    0  0.34437157859E+02  0.77031547397E+02  0.32796518365E+03  0.33867153885E+03  0.41800000000E+01 0. -1.
         -5    1    3    3    0  502 -0.34055700298E+02  0.18372183076E+02  0.21249168781E+02  0.44343290447E+02  0.41800000000E+01 0. -1.
        -11    1    4    4    0    0  0.39822648705E+02 -0.49770043313E+02  0.32039522081E+02  0.71340251867E+02  0.00000000000E+00 0. -1.
         11    1    4    4    0    0 -0.40204106265E+02 -0.45633687159E+02  0.91850070932E+02  0.11016006125E+03  0.00000000000E+00 0.  1.
</event>
<event>
 8    1  0.7103328E-009  0.8238198E+02  0.7561462E-02  0.1322424E+00
         -3   -1    0    0    0  501 -0.00000000000E+00  0.00000000000E+00  0.11264528602E+03  0.11264528602E+03  0.00000000000E+00 0.  1.
          3   -1    0    0  501    0  0.00000000000E+00 -0.00000000000E+00 -0.11235917265E+03  0.11235917265E+03  0.00000000000E+00 0. -1.
         25    2    1    2    0    0 -0.50183575974E+01 -0.27330798980E+02 -0.61978794848E+01  0.12829238834E+03  0.12509343193E+03 0.  0.
         23    2    1    2    0    0  0.50183575974E+01  0.27330798980E+02  0.64839928506E+01  0.96712070320E+02  0.92406849835E+02 0.  0.
          5    1    3    3  502    0 -0.28881080762E+02 -0.50283433585E+02 -0.47583280919E+02  0.75127768116E+02  0.41800000000E+01 0.  1.
         -5    1    3    3    0  502  0.23862723165E+02  0.22952634605E+02  0.41385401434E+02  0.53164620228E+02  0.41800000000E+01 0.  1.
        -11    1    4    4    0    0 -0.40459012899E+01  0.49311535975E+02 -0.26441328632E+02  0.56099382860E+02  0.00000000000E+00 0. -1.
         11    1    4    4    0    0  0.90642588873E+01 -0.21980736995E+02  0.32925321483E+02  0.40612687460E+02  0.00000000000E+00 0.  1.
</event>
<event>
 8    1  0.7103328E-009  0.1120893E+03  0.7561462E-02  0.1256749E+00
         -2   -1    0    0    0  501 -0.00000000000E+00  0.00000000000E+00  0.29387491604E+02  0.29387491604E+02  0.00000000000E+00 0.  1.
          2   -1    0    0  501    0  0.00000000000E+00 -0.00000000000E+00 -0.58458364436E+03  0.58458364436E+03  0.00000000000E+00 0. -1.
         25    2    1    2    0    0 -0.17766158865E+02  0.66590176665E+02 -0.23435007959E+03  0.27444389337E+03  0.12509837240E+03 0.  0.
         23    2    1    2    0    0  0.17766158865E+02 -0.66590176665E+02 -0.32084607317E+03  0.33952724259E+03  0.87101422297E+02 0.  0.
          5    1    3    3  502    0 -0.47838422252E+02 -0.16421112110E+02 -0.11697451722E+03  0.12750951982E+03  0.41800000000E+01 0. -1.
         -5    1    3    3    0  502  0.30072263387E+02  0.83011288775E+02 -0.11737556238E+03  0.14693437356E+03  0.41800000000E+01 0. -1.
        -11    1    4    4    0    0  0.25107696344E+02 -0.85317032010E+01 -0.20458565307E+02  0.33492376291E+02  0.00000000000E+00 0.  1.
         11    1    4    4    0    0 -0.73415374782E+01 -0.58058473464E+02 -0.30038750786E+03  0.30603486630E+03  0.00000000000E+00 0. -1.
</event>
<event>
 8    1  0.7103328E-009  0.1306431E+03  0.7561462E-02  0.1226505E+00
         -4   -1    0    0    0  501 -0.00000000000E+00  0.00000000000E+00  0.12094616028E+03  0.12094616028E+03  0.00000000000E+00 0.  1.
          4   -1    0    0  501    0  0.00000000000E+00 -0.00000000000E+00 -0.25349085610E+03  0.25349085610E+03  0.00000000000E+00 0. -1.
         25    2    1    2    0    0 -0.46141174588E+02  0.95847321058E+02 -0.16297017797E+03  0.23134806304E+03  0.12508769092E+03 0.  0.
         23    2    1    2    0    0  0.46141174588E+02 -0.95847321058E+02  0.30425482143E+02  0.14308895334E+03  0.90735999782E+02 0.  0.
          5    1    3    3  502    0 -0.39934396867E+02 -0.15230891912E+02 -0.13586401555E+02  0.45042189432E+02  0.41800000000E+01 0. -1.
         -5    1    3    3    0  502 -0.62067777212E+01  0.11107821297E+03 -0.14938377641E+03  0.18630587361E+03  0.41800000000E+01 0. -1.
        -11    1    4    4    0    0  0.13751069470E+02 -0.41783872258E+02  0.59243901714E+02  0.73789049206E+02  0.00000000000E+00 0.  1.
         11    1    4    4    0    0  0.32390105118E+02 -0.54063448800E+02 -0.28818419571E+02  0.69299904129E+02  0.00000000000E+00 0. -1.
</event>
<event>
 8    1  0.7103328E-009  0.1583096E+03  0.7561462E-02  0.1190619E+00
         -1   -1    0    0    0  501 -0.00000000000E+00  0.00000000000E+00  0.33147805885E+03  0.33147805885E+03  0.00000000000E+00 0.  1.
          1   -1    0    0  501    0  0.00000000000E+00 -0.00000000000E+00 -0.13083581852E+03  0.13083581852E+03  0.00000000000E+00 0. -1.
         25    2    1    2    0    0  0.31905502015E+02  0.13904776000E+03 -0.13868234802E+02  0.19024154821E+03  0.12508908069E+03 0.  0.
         23    2    1    2    0    0 -0.31905502015E+02 -0.13904776000E+03  0.21451047513E+03  0.27207232917E+03  0.87500672794E+02 0.  0.
          5    1    3    3  502    0 -0.32436193186E+02  0.19939448445E+02 -0.36516145272E+02  0.52920596163E+02  0.41800000000E+01 0.  1.
         -5    1    3    3    0  502  0.64341695201E+02  0.11910831155E+03  0.22647910470E+02  0.13732095204E+03  0.41800000000E+01 0.  1.
        -11    1    4    4    0    0 -0.25230644307E+02 -0.93646242482E+02  0.20266896218E+03  0.22467957712E+03  0.00000000000E+00 0.  1.
         11    1    4    4    0    0 -0.66748577079E+01 -0.45401517514E+02  0.11841512953E+02  0.47392752051E+02  0.00000000000E+00 0. -1.
</event>
<event>
 8    1  0.7103328E-009  0.1187322E+03  0.7561462E-02  0.1245203E+00
         -3   -1    0    0    0  501 -0.00000000000E+00  0.00000000000E+00  0.34633445005E+03  0.34633445005E+03  0.00000000000E+00 0.  1.
          3   -1    0    0  501    0  0.00000000000E+00 -0.00000000000E+00 -0.60496863615E+02  0.60496863615E+02  0.00000000000E+00 0. -1.
         25    2    1    2    0    0 -0.35163261362E+01 -0.96735616546E+02  0.16864466438E+03  0.23120878273E+03  0.12508530819E+03 0.  0.
         23    2    1    2    0    0  0.35163261362E+01  0.96735616546E+02  0.11719292205E+03  0.17562253094E+03  0.87971292688E+02 0.  0.
          5    1    3    3  502    0 -0.31749752885E+02 -0.24075906455E+01 -0.40541638203E+01  0.32368996667E+02  0.41800000000E+01 0. -1.
         -5    1    3    3    0  502  0.28233426748E+02 -0.94328025900E+02  0.17269882821E+03  0.19883978606E+03  0.41800000000E+01 0. -1.
        -11    1    4    4    0    0 -0.19565429179E+02  0.27008275568E+02  0.92186897050E+02  0.98034060182E+02  0.00000000000E+00 0.  1.
         11    1    4    4    0    0  0.23081755315E+02  0.69727340978E+02  0.25006025001E+02  0.77588470758E+02  0.00000000000E+00 0. -1.
</event>
<event>
 8    1  0.7103328E-009  0.1206638E+03  0.7561462E-02  0.1242006E+00
         -2   -1    0    0    0  501 -0.00000000000E+00  0.00000000000E+00  0.13467279660E+03  0.13467279660E+03  0.00000000000E+00 0.  1.
          2   -1    0    0  501    0  0.00000000000E+00 -0.00000000000E+00 -0.27019051870E+03  0.27019051870E+03  0.00000000000E+00 0. -1.
         25    2    1    2    0    0 -0.48025572020E+02  0.24672943732E+02  0.84583487404E+02  0.16036810132E+03  0.12509337256E+03 0.  0.
         23    2    1    2    0    0  0.48025572020E+02 -0.24672943732E+02 -0.22010120950E+03  0.24449521398E+03  0.91750517782E+02 0.  0.
          5    1    3    3  502    0 -0.47745634792E+02 -0.45288965975E+02  0.45559402354E+02  0.80149033828E+02  0.41800000000E+01 0.  1.
         -5    1    3    3    0  502 -0.27993722819E+00  0.69961909708E+02  0.39024085051E+02  0.80219067489E+02  0.41800000000E+01 0.  1.
        -11    1    4    4    0    0  0.75130184001E+02 -0.15745307350E+02 -0.17539776337E+03  0.19145974681E+03  0.00000000000E+00 0. -1.
         11    1    4    4    0    0 -0.27104611981E+02 -0.89276363819E+01 -0.44703446132E+02  0.53035467171E+02  0.00000000000E+00 0.  1.
</event>
<event>
 8    1  0.7103328E-009  0.1128346E+03  0.7561462E-02  0.1255409E+00
          2   -1    0    0  501    0  0.00000000000E+00  0.00000000000E+00  0.11261354701E+04  0.11261354701E+04  0.00000000000E+00 0.  1.
         -2   -1    0    0    0  501 -0.00000000000E+00 -0.00000000000E+00 -0.14465865277E+02  0.14465865277E+02  0.00000000000E+00 0. -1.
         25    2    1    2    0    0 -0.51633545697E+02  0.42748517094E+02  0.62821841500E+03  0.64404771516E+03  0.12508246764E+03 0.  0.
         23    2    1    2    0    0  0.51633545697E+02 -0.42748517094E+02  0.48345118984E+03  0.49655362023E+03  0.91361841319E+02 0.  0.
          5    1    3    3  502    0  0.37101291100E+02  0.13672121222E+02  0.30514903293E+03  0.30772851249E+03  0.41800000000E+01 0. -1.
         -5    1    3    3    0  502 -0.88734836797E+02  0.29076395872E+02  0.32306938206E+03  0.33631920267E+03  0.41800000000E+01 0. -1.
        -11    1    4    4    0    0 -0.44457155445E+01  0.12772153539E+02  0.10654900790E+02  0.17216829080E+02  0.00000000000E+00 0. -1.
         11    1    4    4    0    0  0.56079261242E+02 -0.55520670633E+02  0.47279628905E+03  0.47933679115E+03  0.00000000000E+00 0.  1.
</event>
<event>
 8    1  0.7103328E-009  0.1850323E+03  0.7561462E-02  0.1163020E+00
         -2   -1    0    0    0  501 -0.00000000000E+00  0.00000000000E+00  0.48903085839E+02  0.48903085839E+02  0.00000000000E+00 0.  1.
          2   -1    0    0  501    0  0.00000000000E+00 -0.00000000000E+00 -0.89790198596E+03  0.89790198596E+03  0.00000000000E+00 0. -1.
         25    2    1    2    0    0 -0.63315732871E+02  0.14788535808E+03 -0.62327547278E+03  0.65574227550E+03  0.12508659299E+03 0.  0.
         23    2    1    2    0    0  0.63315732871E+02 -0.14788535808E+03 -0.22572342734E+03  0.29106279630E+03  0.88811736687E+02 0.  0.
          5    1    3    3  502    0  0.31686243229E+02  0.72670551762E+02 -0.30478270913E+03  0.31495237622E+03  0.41800000000E+01 0. -1.
         -5    1    3    3    0  502 -0.95001976100E+02  0.75214806323E+02 -0.31849276365E+03  0.34078989928E+03  0.41800000000E+01 0. -1.
        -11    1    4    4    0    0 -0.71984212129E+01 -0.39343910557E+02 -0.13002504830E+02  0.42057409546E+02  0.00000000000E+00 0.  1.
         11    1    4    4    0    0  0.70514154084E+02 -0.10854144753E+03 -0.21272092251E+03  0.24900538675E+03  0.00000000000E+00 0. -1.
</event>
<event>
 8    1  0.7103328E-009  0.2392287E+03  0.7561462E-02  0.1120308E+00
         -2   -1    0    0    0  501 -0.00000000000E+00  0.00000000000E+00  0.24399413554E+02  0.24399413554E+02  0.00000000000E+00 0.  1.
          2   -1    0    0  501    0  0.00000000000E+00 -0.00000000000E+00 -0.29726314253E+04  0.29726314253E+04  0.00000000000E+00 0. -1.
         25    2    1    2    0    0  0.15337206523E+02 -0.21920905119E+03 -0.21351440342E+04  0.21500638094E+04  0.12508597012E+03 0.  0.
         23    2    1    2    0    0 -0.15337206523E+02  0.21920905119E+03 -0.81308797760E+03  0.84696702945E+03  0.89181004915E+02 0.  0.
          5    1    3    3  502    0  0.65731695582E+02 -0.16459008857E+03 -0.15929815781E+04  0.16028157516E+04  0.41800000000E+01 0.  1.
         -5    1    3    3    0  502 -0.50394489060E+02 -0.54618962618E+02 -0.54216245605E+03  0.54724805779E+03  0.41800000000E+01 0.  1.
        -11    1    4    4    0    0 -0.33203762919E+02  0.83418326197E+02 -0.45081462116E+03  0.45966828221E+03  0.00000000000E+00 0. -1.
         11    1    4    4    0    0  0.17866556396E+02  0.13579072499E+03 -0.36227335644E+03  0.38729874724E+03  0.00000000000E+00 0.  1.
</event>
<event>
 8    1  0.7103328E-009  0.8658692E+02  0.7561462E-02  0.1311334E+00
          2   -1    0    0  501    0  0.00000000000E+00  0.00000000000E+00  0.62111307154E+02  0.62111307154E+02  0.00000000000E+00 0. -1.
         -2   -1    0    0    0  501 -0.00000000000E+00 -0.00000000000E+00 -0.24805384848E+03  0.24805384848E+03  0.00000000000E+00 0.  1.
         25    2    1    2    0    0  0.54984104348E+02 -0.23992409394E+02 -0.10416097963E+03  0.17348163227E+03  0.12508988616E+03 0.  0.
         23    2    1    2    0    0 -0.54984104348E+02  0.23992409394E+02 -0.81781561695E+02  0.13668352336E+03  0.91625729384E+02 0.  0.
          5    1    3    3  502    0  0.27228575287E+02 -0.32110303870E+02  0.19377970727E+02  0.46534342977E+02  0.41800000000E+01 0.  1.
         -5    1    3    3    0  502  0.27755529061E+02  0.81178944761E+01 -0.12353895036E+03  0.12694728929E+03  0.41800000000E+01 0.  1.
        -11    1    4    4    0    0 -0.11987647295E+02  0.49986624905E+02 -0.66731422041E+02  0.84234488451E+02  0.00000000000E+00 0.  1.
         11    1    4    4    0    0 -0.42996457054E+02 -0.25994215511E+02 -0.15050139654E+02  0.52449034908E+02  0.00000000000E+00 0. -1.
</event>
<event>
 8    1  0.7103328E-009  0.1151236E+03  0.7561462E-02  0.1251365E+00
          2   -1    0    0  501    0  0.00000000000E+00  0.00000000000E+00  0.77408556208E+02  0.77408556208E+02  0.00000000000E+00 0.  1.
         -2   -1    0    0    0  501 -0.00000000000E+00 -0.00000000000E+00 -0.25016911665E+03  0.25016911665E+03  0.00000000000E+00 0. -1.
         25    2    1    2    0    0 -0.58992895172E+02 -0.11075557684E+02 -0.16746979438E+03  0.21747571733E+03  0.12508687358E+03 0.  0.
         23    2    1    2    0    0  0.58992895172E+02  0.11075557684E+02 -0.52907660686E+01  0.11010195553E+03  0.92149979632E+02 0.  0.
          5    1    3    3  502    0 -0.36707605270E+02 -0.63630601408E+02 -0.57057437236E+02  0.93109211490E+02  0.41800000000E+01 0.  1.
         -5    1    3    3    0  502 -0.22285289902E+02  0.52555043724E+02 -0.11041235714E+03  0.12436650584E+03  0.41800000000E+01 0.  1.
        -11    1    4    4    0    0  0.13020383546E+02 -0.33164967100E+02  0.20703590871E+02  0.41207816071E+02  0.00000000000E+00 0.  1.
         11    1    4    4    0    0  0.45972511626E+02  0.44240524784E+02 -0.25994356940E+02  0.68894139454E+02  0.00000000000E+00 0. -1.
</event>
<event>
 8    1  0.7103328E-009  0.1520982E+03  0.7561462E-02  0.1197918E+00
          1   -1    0    0  501    0  0.00000000000E+00  0.00000000000E+00  0.59144714351E+03  0.59144714351E+03  0.00000000000E+00 0. -1.
         -1   -1    0    0    0  501 -0.00000000000E+00 -0.00000000000E+00 -0.47293015435E+02  0.47293015435E+02  0.00000000000E+00 0.  1.
         25    2    1    2    0    0 -0.12589631886E+03  0.22495330844E+02  0.29400767843E+03  0.34415560693E+03  0.12508654523E+03 0.  0.
         23    2    1    2    0    0  0.12589631886E+03 -0.22495330844E+02  0.25014644965E+03  0.29458455201E+03  0.88605242511E+02 0.  0.
          5    1    3    3  502    0 -0.81095728028E+02 -0.26192049381E+02  0.69445999365E+02  0.11001254375E+03  0.41800000000E+01 0.  1.
         -5    1    3    3    0  502 -0.44800590835E+02  0.48687380225E+02  0.22456167906E+03  0.23414306318E+03  0.41800000000E+01 0.  1.
        -11    1    4    4    0    0  0.96858915738E+02  0.22113700340E+02  0.18895776862E+03  0.21348466836E+03  0.00000000000E+00 0.  1.
         11    1    4    4    0    0  0.29037403124E+02 -0.44609031184E+02  0.61188681023E+02  0.81099883654E+02  0.00000000000E+00 0. -1.
</event>
<event>
 8    1  0.7103328E-009  0.1233869E+03  0.7561462E-02  0.1237612E+00
          1   -1    0    0  501    0  0.00000000000E+00  0.00000000000E+00  0.91830005928E+02  0.91830005928E+02  0.00000000000E+00 0. -1.
         -1   -1    0    0    0  501 -0.00000000000E+00 -0.00000000000E+00 -0.22827797054E+03  0.22827797054E+03  0.00000000000E+00 0.  1.
         25    2    1    2    0    0  0.61167965875E+01 -0.72248043983E+02 -0.14053878126E+03  0.20163291556E+03  0.12508992182E+03 0.  0.
         23    2    1    2    0    0 -0.61167965875E+01  0.72248043983E+02  0.40908166476E+01  0.11847506090E+03  0.93607746558E+02 0.  0.
          5    1    3    3  502    0 -0.10471582486E+02 -0.10601603111E+03 -0.10722190574E+03  0.15120536486E+03  0.41800000000E+01 0.  1.
         -5    1    3    3    0  502  0.16588379073E+02  0.33767987130E+02 -0.33316875515E+02  0.50427550696E+02  0.41800000000E+01 0.  1.
        -11    1    4    4    0    0  0.32040048797E+02  0.45738429389E+02  0.31913345920E+02  0.64319750447E+02  0.00000000000E+00 0.  1.
         11    1    4    4    0    0 -0.38156845384E+02  0.26509614595E+02 -0.27822529272E+02  0.54155310457E+02  0.00000000000E+00 0. -1.
</event>
<event>
 8    1  0.7103328E-009  0.8391270E+02  0.7561462E-02  0.1318301E+00
          1   -1    0    0  501    0  0.00000000000E+00  0.00000000000E+00  0.43522382872E+02  0.43522382872E+02  0.00000000000E+00 0. -1.
         -1   -1    0    0    0  501 -0.00000000000E+00 -0.00000000000E+00 -0.33906335302E+03  0.33906335302E+03  0.00000000000E+00 0.  1.
         25    2    1    2    0    0 -0.68047603590E+01 -0.29861082638E+02 -0.24272601570E+03  0.27477581029E+03  0.12509131946E+03 0.  0.
         23    2    1    2    0    0  0.68047603590E+01  0.29861082638E+02 -0.52814954454E+02  0.10780992561E+03  0.88857029128E+02 0.  0.
          5    1    3    3  502    0 -0.18607935796E+02  0.27161204788E+02 -0.19922420017E+03  0.20196965280E+03  0.41800000000E+01 0.  1.
         -5    1    3    3    0  502  0.11803175437E+02 -0.57022287426E+02 -0.43501815527E+02  0.72806157485E+02  0.41800000000E+01 0.  1.
        -11    1    4    4    0    0  0.37540022420E+02  0.25090652348E+02  0.15464215788E+01  0.45179481385E+02  0.00000000000E+00 0. -1.
         11    1    4    4    0    0 -0.30735262061E+02  0.47704302904E+01 -0.54361376033E+02  0.62630444221E+02  0.00000000000E+00 0.  1.
</event>
<event>
 8    1  0.7103328E-009  0.7927410E+02  0.7561462E-02  0.1331124E+00
          2   -1    0    0  501    0  0.00000000000E+00  0.00000000000E+00  0.76386504772E+02  0.76386504772E+02  0.00000000000E+00 0. -1.
         -2   -1    0    0    0  501 -0.00000000000E+00 -0.00000000000E+00 -0.16281563314E+03  0.16281563314E+03  0.00000000000E+00 0.  1.
         25    2    1    2    0    0 -0.25116735834E+02  0.51870425345E-01 -0.67355547584E+02  0.14426589873E+03  0.12508008089E+03 0.  0.
         23    2    1    2    0    0  0.25116735834E+02 -0.51870425345E-01 -0.19073580784E+02  0.94936239186E+02  0.89544597366E+02 0.  0.
          5    1    3    3  502    0  0.12152107002E+02  0.36132713840E+02 -0.81726568766E+02  0.90277079905E+02  0.41800000000E+01 0.  1.
         -5    1    3    3    0  502 -0.37268842837E+02 -0.36080843414E+02  0.14371021182E+02  0.53988818821E+02  0.41800000000E+01 0.  1.
        -11    1    4    4    0    0  0.43128286260E+02  0.13966493784E+02 -0.42564021005E+02  0.62183662713E+02  0.00000000000E+00 0. -1.
         11    1    4    4    0    0 -0.18011550425E+02 -0.14018364209E+02  0.23490440221E+02  0.32752576473E+02  0.00000000000E+00 0.  1.
</event>
<event>
 8    1  0.7103328E-009  0.1293380E+03  0.7561462E-02  0.1228441E+00
         -4   -1    0    0    0  501 -0.00000000000E+00  0.00000000000E+00  0.66923449458E+02  0.66923449458E+02  0.00000000000E+00 0.  1.
          4   -1    0    0  501    0  0.00000000000E+00 -0.00000000000E+00 -0.30926370648E+03  0.30926370648E+03  0.00000000000E+00 0. -1.
         25    2    1    2    0    0 -0.83477736150E+02  0.27959114195E+02 -0.87558693758E+02  0.17625244019E+03  0.12509257899E+03 0.  0.
         23    2    1    2    0    0  0.83477736150E+02 -0.27959114195E+02 -0.15478156327E+03  0.19993471576E+03  0.90919270442E+02 0.  0.
          5    1    3    3  502    0 -0.35686512308E+02 -0.38190622218E+02  0.51307176327E+01  0.52686311785E+02  0.41800000000E+01 0.  1.
         -5    1    3    3    0  502 -0.47791223842E+02  0.66149736413E+02 -0.92689411391E+02  0.12356612840E+03  0.41800000000E+01 0.  1.
        -11    1    4    4    0    0  0.28910951549E+02 -0.56113645982E+02 -0.60590977184E+02  0.87497719405E+02  0.00000000000E+00 0. -1.
         11    1    4    4    0    0  0.54566784601E+02  0.28154531787E+02 -0.94190586083E+02  0.11243699635E+03  0.00000000000E+00 0.  1.
</event>
<event>
 8    1  0.7103328E-009  0.1247800E+03  0.7561462E-02  0.1235413E+00
         -1   -1    0    0    0  501 -0.00000000000E+00  0.00000000000E+00  0.18623543921E+02  0.18623543921E+02  0.00000000000E+00 0.  1.
          1   -1    0    0  501    0  0.00000000000E+00 -0.00000000000E+00 -0.12733577567E+04  0.12733577567E+04  0.00000000000E+00 0. -1.
         25    2    1    2    0    0  0.29895178743E+02 -0.77601830128E+02 -0.97569037606E+03  0.98718560456E+03  0.12509173497E+03 0.  0.
         23    2    1    2    0    0 -0.29895178743E+02  0.77601830128E+02 -0.27904383676E+03  0.30479569611E+03  0.90106535715E+02 0.  0.
          5    1    3    3  502    0 -0.81678956204E+01  0.29113859246E+02 -0.34813626762E+03  0.34947197963E+03  0.41800000000E+01 0. -1.
         -5    1    3    3    0  502  0.38063074363E+02 -0.10671568937E+03 -0.62755410844E+03  0.63771362492E+03  0.41800000000E+01 0. -1.
        -11    1    4    4    0    0  0.15881576406E+02  0.37962300035E+00 -0.53613971071E+01  0.16766429605E+02  0.00000000000E+00 0.  1.
         11    1    4    4    0    0 -0.45776755149E+02  0.77222207128E+02 -0.27368243965E+03  0.28802926650E+03  0.00000000000E+00 0. -1.
</event>
<event>
 8    1  0.7103328E-009  0.1408213E+03  0.7561462E-02  0.1212228E+00
         -2   -1    0    0    0  501 -0.00000000000E+00  0.00000000000E+00  0.39871267072E+02  0.39871267072E+02  0.00000000000E+00 0.  1.
          2   -1    0    0  501    0  0.00000000000E+00 -0.00000000000E+00 -0.53526760483E+03  0.53526760483E+03  0.00000000000E+00 0. -1.
         25    2    1    2    0    0  0.69869097938E+02 -0.65363119175E+02 -0.30826784611E+03  0.34616565724E+03  0.12509024385E+03 0.  0.
         23    2    1    2    0    0 -0.69869097938E+02  0.65363119175E+02 -0.18712849164E+03  0.22897321466E+03  0.90871516189E+02 0.  0.
          5    1    3    3  502    0 -0.18338471645E+02  0.20503744721E+02 -0.25522860592E+02  0.37757011305E+02  0.41800000000E+01 0. -1.
         -5    1    3    3    0  502  0.88207569584E+02 -0.85866863897E+02 -0.28274498552E+03  0.30840864593E+03  0.41800000000E+01 0. -1.
        -11    1    4    4    0    0 -0.84377703549E+02  0.25378347144E+02 -0.11048224641E+03  0.14131519427E+03  0.00000000000E+00 0.  1.
         11    1    4    4    0    0  0.14508605611E+02  0.39984772031E+02 -0.76646245234E+02  0.87658020395E+02  0.00000000000E+00 0. -1.
</event>
<event>
 8    1  0.7103328E-009  0.9131331E+02  0.7561462E-02  0.1299702E+00
         -2   -1    0    0    0  501 -0.00000000000E+00  0.00000000000E+00  0.75577503573E+02  0.75577503573E+02  0.00000000000E+00 0.  1.
          2   -1    0    0  501    0  0.00000000000E+00 -0.00000000000E+00 -0.16863814448E+03  0.16863814448E+03  0.00000000000E+00 0. -1.
         25    2    1    2    0    0 -0.46437487627E+01  0.23106904467E+02 -0.32851832661E+02  0.13146357199E+03  0.12509170402E+03 0.  0.
         23    2    1    2    0    0  0.46437487627E+01 -0.23106904467E+02 -0.60208808242E+02  0.11275207606E+03  0.92371189390E+02 0.  0.
          5    1    3    3  502    0  0.45198907799E+02 -0.28900160217E+02 -0.47207880192E+01  0.54017763433E+02  0.41800000000E+01 0.  1.
         -5    1    3    3    0  502 -0.49842656562E+02  0.52007064683E+02 -0.28131044641E+02  0.77445808555E+02  0.41800000000E+01 0.  1.
        -11    1    4    4    0    0  0.12759410923E+02  0.13844433427E+02  0.17890599021E+02  0.25971993326E+02  0.00000000000E+00 0.  1.
         11    1    4    4    0    0 -0.81156621603E+01 -0.36951337894E+02 -0.78099407263E+02  0.86780082734E+02  0.00000000000E+00 0. -1.
</event>
<event>
 8    1  0.7103328E-009  0.1206920E+03  0.7561462E-02  0.1241960E+00
         -1   -1    0    0    0  501 -0.00000000000E+00  0.00000000000E+00  0.57359389143E+02  0.57359389143E+02  0.00000000000E+00 0.  1.
          1   -1    0    0  501    0  0.00000000000E+00 -0.00000000000E+00 -0.47715254366E+03  0.47715254366E+03  0.00000000000E+00 0. -1.
         25    2    1    2    0    0  0.28891623263E+02  0.45731719458E+02 -0.40521730073E+03  0.42752099707E+03  0.12508807323E+03 0.  0.
         23    2    1    2    0    0 -0.28891623263E+02 -0.45731719458E+02 -0.14575853793E+02  0.10699093574E+03  0.91150911991E+02 0.  0.
          5    1    3    3  502    0  0.62883481342E+02 -0.16462061242E+02 -0.18399816802E+03  0.19518742255E+03  0.41800000000E+01 0.  1.
         -5    1    3    3    0  502 -0.33991858079E+02  0.62193780700E+02 -0.22121913271E+03  0.23233357452E+03  0.41800000000E+01 0.  1.
        -11    1    4    4    0    0  0.32369093040E+02 -0.23807457085E+02  0.57045312254E+00  0.40185552303E+02  0.00000000000E+00 0.  1.
         11    1    4    4    0    0 -0.61260716304E+02 -0.21924262373E+02 -0.15146306915E+02  0.66805383434E+02  0.00000000000E+00 0. -1.
</event>
<event>
 8    1  0.7103328E-009  0.7763320E+02  0.7561462E-02  0.1335905E+00
          1   -1    0    0  501    0  0.00000000000E+00  0.00000000000E+00  0.76030428661E+02  0.76030428661E+02  0.00000000000E+00 0. -1.
         -1   -1    0    0    0  501 -0.00000000000E+00 -0.00000000000E+00 -0.20299225931E+03  0.20299225931E+03  0.00000000000E+00 0.  1.
         25    2    1    2    0    0 -0.35817450460E+02  0.41232743155E+02 -0.38690395056E+02  0.14186595295E+03  0.12508386415E+03 0.  0.
         23    2    1    2    0    0  0.35817450460E+02 -0.41232743155E+02 -0.88271435590E+02  0.13715673502E+03  0.89649845263E+02 0.  0.
          5    1    3    3  502    0 -0.10540002083E+02  0.54310037232E+02  0.33046190425E+02  0.64577046151E+02  0.41800000000E+01 0.  1.
         -5    1    3    3    0  502 -0.25277448377E+02 -0.13077294077E+02 -0.71736585481E+02  0.77288906794E+02  0.41800000000E+01 0.  1.
        -11    1    4    4    0    0  0.70246128522E+01 -0.41636079452E+02 -0.98042466734E+02  0.10674845939E+03  0.00000000000E+00 0.  1.
         11    1    4    4    0    0  0.28792837608E+02  0.40333629777E+00  0.97710311441E+01  0.30408275638E+02  0.00000000000E+00 0. -1.
</event>
<event>
 8    1  0.7103328E-009  0.8087867E+02  0.7561462E-02  0.1326576E+00
         -1   -1    0    0    0  501 -0.00000000000E+00  0.00000000000E+00  0.29460304087E+02  0.29460304087E+02  0.00000000000E+00 0.  1.
          1   -1    0    0  501    0  0.00000000000E+00 -0.00000000000E+00 -0.43071740525E+03  0.43071740525E+03  0.00000000000E+00 0. -1.
         25    2    1    2    0    0  0.13117196878E+02 -0.34117504085E+01 -0.17086765727E+03  0.21219454815E+03  0.12508824513E+03 0.  0.
         23    2    1    2    0    0 -0.13117196878E+02  0.34117504085E+01 -0.23038944389E+03  0.24798316118E+03  0.90733959898E+02 0.  0.
          5    1    3    3  502    0  0.44175696897E+02 -0.17197553277E+02 -0.17147123418E+03  0.17795253464E+03  0.41800000000E+01 0.  1.
         -5    1    3    3    0  502 -0.31058500019E+02  0.13785802869E+02  0.60357690730E+00  0.34242013511E+02  0.41800000000E+01 0.  1.
        -11    1    4    4    0    0  0.27653162613E+02 -0.18862137233E+02 -0.40747991784E+02  0.52734016137E+02  0.00000000000E+00 0.  1.
         11    1    4    4    0    0 -0.40770359491E+02  0.22273887642E+02 -0.18964145211E+03  0.19524914504E+03  0.00000000000E+00 0. -1.
</event>
<event>
 8    1  0.7103328E-009  0.1256535E+03  0.7561462E-02  0.1234052E+00
          1   -1    0    0  501    0  0.00000000000E+00  0.00000000000E+00  0.18149383996E+03  0.18149383996E+03  0.00000000000E+00 0. -1.
         -1   -1    0    0    0  501 -0.00000000000E+00 -0.00000000000E+00 -0.15091217485E+03  0.15091217485E+03  0.00000000000E+00 0.  1.
         25    2    1    2    0    0 -0.10646658987E+03  0.56005347750E+02 -0.13591269557E+02  0.17408796682E+03  0.12510061490E+03 0.  0.
         23    2    1    2    0    0  0.10646658987E+03 -0.56005347750E+02  0.44172934669E+02  0.15831804799E+03  0.92960327171E+02 0.  0.
          5    1    3    3  502    0 -0.79273948775E+02  0.24828328332E+02 -0.66715140007E+02  0.10662639049E+03  0.41800000000E+01 0. -1.
         -5    1    3    3    0  502 -0.27192641098E+02  0.31177019418E+02  0.53123870450E+02  0.67461576333E+02  0.41800000000E+01 0. -1.
        -11    1    4    4    0    0  0.74607143942E+02 -0.17608076847E+02  0.68505752218E+02  0.10280714170E+03  0.00000000000E+00 0. -1.
         11    1    4    4    0    0  0.31859445931E+02 -0.38397270903E+02 -0.24332817549E+02  0.55510906295E+02  0.00000000000E+00 0.  1.
</event>
<event>
 8    1  0.7103328E-009  0.1704976E+03  0.7561462E-02  0.1177330E+00
          1   -1    0    0  501    0  0.00000000000E+00  0.00000000000E+00  0.10461659068E+03  0.10461659068E+03  0.00000000000E+00 0. -1.
         -1   -1    0    0    0  501 -0.00000000000E+00 -0.00000000000E+00 -0.35306159832E+03  0.35306159832E+03  0.00000000000E+00 0.  1.
         25    2    1    2    0    0 -0.14475801286E+03  0.27976704006E+02 -0.20636861995E+03  0.28279510233E+03  0.12508990505E+03 0.  0.
         23    2    1    2    0    0  0.14475801286E+03 -0.27976704006E+02 -0.42076387679E+02  0.17488308667E+03  0.84119518242E+02 0.  0.
          5    1    3    3  502    0 -0.18479404234E+02 -0.42933220354E+02 -0.66670679482E+02  0.81530372828E+02  0.41800000000E+01 0. -1.
         -5    1    3    3    0  502 -0.12627860862E+03  0.70909924360E+02 -0.13969794047E+03  0.20126472950E+03  0.41800000000E+01 0. -1.
        -11    1    4    4    0    0  0.82376808696E+02 -0.44029202231E+01  0.18776835033E+02  0.84604337071E+02  0.00000000000E+00 0.  1.
         11    1    4    4    0    0  0.62381204163E+02 -0.23573783783E+02 -0.60853222712E+02  0.90278749599E+02  0.00000000000E+00 0. -1.
</event>
<event>
 8    1  0.7103328E-009  0.1653215E+03  0.7561462E-02  0.1182816E+00
          1   -1    0    0  501    0  0.00000000000E+00  0.00000000000E+00  0.66407991318E+03  0.66407991318E+03  0.00000000000E+00 0. -1.
         -1   -1    0    0    0  501 -0.00000000000E+00 -0.00000000000E+00 -0.58852779041E+02  0.58852779041E+02  0.00000000000E+00 0.  1.
         25    2    1    2    0    0 -0.13728795616E+01 -0.13887848667E+03  0.15438324762E+03  0.24242342968E+03  0.12508322532E+03 0.  0.
         23    2    1    2    0    0  0.13728795616E+01  0.13887848667E+03  0.45084388652E+03  0.48050926254E+03  0.91322628698E+02 0.  0.
          5    1    3    3  502    0 -0.50779601838E+02 -0.31002714761E+02  0.88271925018E+02  0.10653234923E+03  0.41800000000E+01 0.  1.
         -5    1    3    3    0  502  0.49406722277E+02 -0.10787577191E+03  0.66111322602E+02  0.13589108046E+03  0.41800000000E+01 0.  1.
        -11    1    4    4    0    0  0.31774036594E+02  0.63765544011E+02  0.30941781510E+03  0.31751380806E+03  0.00000000000E+00 0. -1.
         11    1    4    4    0    0 -0.30401157033E+02  0.75112942661E+02  0.14142607142E+03  0.16299545448E+03  0.00000000000E+00 0.  1.
</event>
<event>
 8    1  0.7103328E-009  0.9148646E+02  0.7561462E-02  0.1299291E+00
          1   -1    0    0  501    0  0.00000000000E+00  0.00000000000E+00  0.32010600175E+03  0.32010600175E+03  0.00000000000E+00 0. -1.
         -1   -1    0    0    0  501 -0.00000000000E+00 -0.00000000000E+00 -0.90978962831E+02  0.90978962831E+02  0.00000000000E+00 0.  1.
         25    2    1    2    0    0  0.23647221934E+02 -0.75331584026E+02 -0.41808345976E+01  0.14798222973E+03  0.12508885754E+03 0.  0.
         23    2    1    2    0    0 -0.23647221934E+02  0.75331584026E+02  0.23330787352E+03  0.26310273485E+03  0.92501062612E+02 0.  0.
          5    1    3    3  502    0  0.27379870039E+01 -0.67553828547E+02 -0.58251786778E+02  0.89340692784E+02  0.41800000000E+01 0.  1.
         -5    1    3    3    0  502  0.20909234930E+02 -0.77777554787E+01  0.54070952181E+02  0.58641536946E+02  0.41800000000E+01 0.  1.
        -11    1    4    4    0    0 -0.32565279726E+02  0.24042878164E+02  0.19317516808E+03  0.19737072477E+03  0.00000000000E+00 0. -1.
         11    1    4    4    0    0  0.89180577921E+01  0.51288705862E+02  0.40132705443E+02  0.65732010086E+02  0.00000000000E+00 0.  1.
</event>
<event>
 8    1  0.7103328E-009  0.7175597E+02  0.7561462E-02  0.1354222E+00
          2   -1    0    0  501    0  0.00000000000E+00  0.00000000000E+00  0.54029746891E+03  0.54029746891E+03  0.00000000000E+00 0.  1.
         -2   -1    0    0    0  501 -0.00000000000E+00 -0.00000000000E+00 -0.25439563894E+02  0.25439563894E+02  0.00000000000E+00 0. -1.
         25    2    1    2    0    0 -0.23996206967E+00 -0.39258139131E+02  0.34565812639E+03  0.36968717790E+03  0.12509120711E+03 0.  0.
         23    2    1    2    0    0  0.23996206967E+00  0.39258139131E+02  0.16919977863E+03  0.19604985490E+03  0.90916013167E+02 0.  0.
          5    1    3    3  502    0  0.20176501516E+02  0.13811903352E+02  0.28633456180E+03  0.28740705205E+03  0.41800000000E+01 0. -1.
         -5    1    3    3    0  502 -0.20416463586E+02 -0.53070042482E+02  0.59323564591E+02  0.82280125852E+02  0.41800000000E+01 0. -1.
        -11    1    4    4    0    0 -0.33019086646E+01 -0.10909547573E+02 -0.66181172589E+01  0.13180299888E+02  0.00000000000E+00 0. -1.
         11    1    4    4    0    0  0.35418707343E+01  0.50167686704E+02  0.17581789589E+03  0.18286955501E+03  0.00000000000E+00 0.  1.
</event>
<event>
 8    1  0.7103328E-009  0.7664457E+02  0.7561462E-02  0.1338853E+00
          2   -1    0    0  501    0  0.00000000000E+00  0.00000000000E+00  0.20895503616E+03  0.20895503616E+03  0.00000000000E+00 0. -1.
         -2   -1    0    0    0  501 -0.00000000000E+00 -0.00000000000E+00 -0.68993417396E+02  0.68993417396E+02  0.00000000000E+00 0.  1.
         25    2    1    2    0    0 -0.51400181265E+02  0.23130252659E+01  0.80731367034E+02  0.15752264719E+03  0.12509397281E+03 0.  0.
         23    2    1    2    0    0  0.51400181265E+02 -0.23130252659E+01  0.59230251735E+02  0.12042580637E+03  0.91360951180E+02 0.  0.
          5    1    3    3  502    0 -0.97824698879E+01 -0.19590015200E+01 -0.33815377853E+02  0.35503332005E+02  0.41800000000E+01 0. -1.
         -5    1    3    3    0  502 -0.41617711377E+02  0.42720267859E+01  0.11454674489E+03  0.12201931518E+03  0.41800000000E+01 0. -1.
        -11    1    4    4    0    0  0.47876017826E+02 -0.40115601430E+02  0.19411648041E+02  0.65407848463E+02  0.00000000000E+00 0.  1.
         11    1    4    4    0    0  0.35241634391E+01  0.37802576164E+02  0.39818603694E+02  0.55017957912E+02  0.00000000000E+00 0. -1.
</event>
<event>
 8    1  0.7103328E-009  0.1225696E+03  0.7561462E-02  0.1238917E+00
         -2   -1    0    0    0  501 -0.00000000000E+00  0.00000000000E+00  0.23476145325E+02  0.23476145325E+02  0.00000000000E+00 0.  1.
          2   -1    0    0  501    0  0.00000000000E+00 -0.00000000000E+00 -0.10729255819E+04  0.10729255819E+04  0.00000000000E+00 0. -1.
         25    2    1    2    0    0  0.51136858703E+02  0.72836016349E+02 -0.81330260367E+03  0.82766523164E+03  0.12509415231E+03 0.  0.
         23    2    1    2    0    0 -0.51136858703E+02 -0.72836016349E+02 -0.23614683295E+03  0.26873649563E+03  0.92379184740E+02 0.  0.
          5    1    3    3  502    0  0.57527922059E+02  0.95679771443E+01 -0.14519161425E+03  0.15652183634E+03  0.41800000000E+01 0. -1.
         -5    1    3    3    0  502 -0.63910633564E+01  0.63268039205E+02 -0.66811098942E+03  0.67114339530E+03  0.41800000000E+01 0. -1.
        -11    1    4    4    0    0  0.25087993311E+01 -0.69124678883E+02 -0.16970691278E+03  0.18326197519E+03  0.00000000000E+00 0.  1.
         11    1    4    4    0    0 -0.53645658034E+02 -0.37113374666E+01 -0.66439920169E+02  0.85474520436E+02  0.00000000000E+00 0. -1.
</event>
<event>
 8    1  0.7103328E-009  0.1283760E+03  0.7561462E-02  0.1229886E+00
         -1   -1    0    0    0  501 -0.00000000000E+00  0.00000000000E+00  0.70393504277E+03  0.70393504277E+03  0.00000000000E+00 0.  1.
          1   -1    0    0  501    0  0.00000000000E+00 -0.00000000000E+00 -0.29214858996E+02  0.29214858996E+02  0.00000000000E+00 0. -1.
         25    2    1    2    0    0 -0.35217253527E+02  0.84552439098E+02  0.30869608886E+03  0.34544230391E+03  0.12509092754E+03 0.  0.
         23    2    1    2    0    0  0.35217253527E+02 -0.84552439098E+02  0.36602409492E+03  0.38770759786E+03  0.89186173090E+02 0.  0.
          5    1    3    3  502    0  0.29133628148E+02  0.43469593053E+02  0.39775561750E+02  0.65863051264E+02  0.41800000000E+01 0. -1.
         -5    1    3    3    0  502 -0.64350881675E+02  0.41082846045E+02  0.26892052711E+03  0.27957925265E+03  0.41800000000E+01 0. -1.
        -11    1    4    4    0    0  0.58587373984E+02 -0.24773441701E+02  0.18746033108E+03  0.19795852983E+03  0.00000000000E+00 0.  1.
         11    1    4    4    0    0 -0.23370120458E+02 -0.59778997397E+02  0.17856376384E+03  0.18974906802E+03  0.00000000000E+00 0. -1.
</event>
<event>
 8    1  0.7103328E-009  0.9547692E+02  0.7561462E-02  0.1290106E+00
          1   -1    0    0  501    0  0.00000000000E+00  0.00000000000E+00  0.13162439488E+04  0.13162439488E+04  0.00000000000E+00 0. -1.
         -1   -1    0    0    0  501 -0.00000000000E+00 -0.00000000000E+00 -0.17226971663E+02  0.17226971663E+02  0.00000000000E+00 0.  1.
         25    2    1    2    0    0 -0.28608772899E+02 -0.52904631505E+02  0.10768512491E+04  0.10857594841E+04  0.12509069762E+03 0.  0.
         23    2    1    2    0    0  0.28608772899E+02  0.52904631505E+02  0.22216572809E+03  0.24771143645E+03  0.91575013447E+02 0.  0.
          5    1    3    3  502    0 -0.19672167166E+02  0.78387937498E+01  0.86195902284E+03  0.86222924463E+03  0.41800000000E+01 0. -1.
         -5    1    3    3    0  502 -0.89366057334E+01 -0.60743425255E+02  0.21489222626E+03  0.22353023943E+03  0.41800000000E+01 0. -1.
        -11    1    4    4    0    0  0.40618532851E+01  0.74815660832E+02  0.13276762157E+03  0.15245039552E+03  0.00000000000E+00 0.  1.
         11    1    4    4    0    0  0.24546919614E+02 -0.21911029327E+02  0.89398106517E+02  0.95261040922E+02  0.00000000000E+00 0. -1.
</event>
<event>
 8    1  0.7103328E-009  0.1430531E+03  0.7561462E-02  0.1209279E+00
          1   -1    0    0  501    0  0.00000000000E+00  0.00000000000E+00  0.74068225112E+02  0.74068225112E+02  0.00000000000E+00 0. -1.
         -1   -1    0    0    0  501 -0.00000000000E+00 -0.00000000000E+00 -0.55529446942E+03  0.55529446942E+03  0.00000000000E+00 0.  1.
         25    2    1    2    0    0  0.61649379372E+02  0.97683192637E+02 -0.44846842554E+03  0.47970220671E+03  0.12509047255E+03 0.  0.
         23    2    1    2    0    0 -0.61649379372E+02 -0.97683192637E+02 -0.32757818767E+02  0.14966048781E+03  0.89345032439E+02 0.  0.
          5    1    3    3  502    0 -0.34982394523E+02  0.24620113339E+02 -0.68508303660E+02  0.80875076369E+02  0.41800000000E+01 0. -1.
         -5    1    3    3    0  502  0.96631773895E+02  0.73063079298E+02 -0.37996012188E+03  0.39882713035E+03  0.41800000000E+01 0. -1.
        -11    1    4    4    0    0 -0.59187397143E+02 -0.60474791498E+02  0.18162675585E+02  0.86546121645E+02  0.00000000000E+00 0. -1.
         11    1    4    4    0    0 -0.24619822293E+01 -0.37208401139E+02 -0.50920494353E+02  0.63114366169E+02  0.00000000000E+00 0.  1.
</event>
<event>
 8    1  0.7103328E-009  0.1996392E+03  0.7561462E-02  0.1150044E+00
          1   -1    0    0  501    0  0.00000000000E+00  0.00000000000E+00  0.86532575093E+03  0.86532575093E+03  0.00000000000E+00 0. -1.
         -1   -1    0    0    0  501 -0.00000000000E+00 -0.00000000000E+00 -0.70459537589E+02  0.70459537589E+02  0.00000000000E+00 0.  1.
         25    2    1    2    0    0 -0.58087484619E+02 -0.16526323929E+03  0.66504700367E+03  0.69901426204E+03  0.12508927738E+03 0.  0.
         23    2    1    2    0    0  0.58087484619E+02  0.16526323929E+03  0.12981920967E+03  0.23677102648E+03  0.92311416673E+02 0.  0.
          5    1    3    3  502    0 -0.70643204822E+02 -0.50096687812E+02  0.17319267629E+03  0.19368354612E+03  0.41800000000E+01 0. -1.
         -5    1    3    3    0  502  0.12555720203E+02 -0.11516655148E+03  0.49185432738E+03  0.50533071592E+03  0.41800000000E+01 0. -1.
        -11    1    4    4    0    0  0.66921036217E+02  0.56653551367E+02  0.71745345611E+02  0.11329362113E+03  0.00000000000E+00 0. -1.
         11    1    4    4    0    0 -0.88335515984E+01  0.10860968793E+03  0.58073864058E+02  0.12347740535E+03  0.00000000000E+00 0.  1.
</event>
<event>
 8    1  0.7103328E-009  0.1440374E+03  0.7561462E-02  0.1207997E+00
         -2   -1    0    0    0  501 -0.00000000000E+00  0.00000000000E+00  0.33447871716E+03  0.33447871716E+03  0.00000000000E+00 0.  1.
          2   -1    0    0  501    0  0.00000000000E+00 -0.00000000000E+00 -0.10015332517E+03  0.10015332517E+03  0.00000000000E+00 0. -1.
         25    2    1    2    0    0  0.13345294495E+03 -0.13252661417E+02  0.52451676383E+02  0.19074191475E+03  0.12508388441E+03 0.  0.
         23    2    1    2    0    0 -0.13345294495E+03  0.13252661417E+02  0.18187371561E+03  0.24389012758E+03  0.91755241558E+02 0.  0.
          5    1    3    3  502    0  0.13418325611E+03 -0.80879426613E+01  0.83949956675E+02  0.15854219836E+03  0.41800000000E+01 0.  1.
         -5    1    3    3    0  502 -0.73031115818E+00 -0.51647187557E+01 -0.31498280292E+02  0.32199716389E+02  0.41800000000E+01 0.  1.
        -11    1    4    4    0    0 -0.92500978182E+02 -0.19411080444E+02  0.16259888549E+03  0.18807343930E+03  0.00000000000E+00 0. -1.
         11    1    4    4    0    0 -0.40951966768E+02  0.32663741861E+02  0.19274830117E+02  0.55816688281E+02  0.00000000000E+00 0.  1.
</event>
<event>
 8    1  0.7103328E-009  0.1278947E+03  0.7561462E-02  0.1230613E+00
         -2   -1    0    0    0  501 -0.00000000000E+00  0.00000000000E+00  0.85395029723E+02  0.85395029723E+02  0.00000000000E+00 0.  1.
          2   -1    0    0  501    0  0.00000000000E+00 -0.00000000000E+00 -0.26783143044E+03  0.26783143044E+03  0.00000000000E+00 0. -1.
         25    2    1    2    0    0 -0.86602021198E+02 -0.35353847360E+02 -0.15099141809E+03  0.21724543850E+03  0.12508943846E+03 0.  0.
         23    2    1    2    0    0  0.86602021198E+02  0.35353847360E+02 -0.31444982628E+02  0.13598102166E+03  0.93553443132E+02 0.  0.
          5    1    3    3  502    0 -0.36542289324E+02  0.27675116075E+02  0.67344531391E-01  0.46029641473E+02  0.41800000000E+01 0. -1.
         -5    1    3    3    0  502 -0.50059731874E+02 -0.63028963436E+02 -0.15105876262E+03  0.17121579703E+03  0.41800000000E+01 0. -1.
        -11    1    4    4    0    0  0.82997156851E+02  0.61164642695E+02 -0.12701789048E+02  0.10387962748E+03  0.00000000000E+00 0.  1.
         11    1    4    4    0    0  0.36048643467E+01 -0.25810795334E+02 -0.18743193580E+02  0.32101394180E+02  0.00000000000E+00 0. -1.
</event>
<event>
 8    1  0.7103328E-009  0.2205540E+03  0.7561462E-02  0.1133471E+00
          2   -1    0    0  501    0  0.00000000000E+00  0.00000000000E+00  0.17063023496E+03  0.17063023496E+03  0.00000000000E+00 0. -1.
         -2   -1    0    0    0  501 -0.00000000000E+00 -0.00000000000E+00 -0.53421569388E+03  0.53421569388E+03  0.00000000000E+00 0.  1.
         25    2    1    2    0    0 -0.18289426729E+03 -0.78000008959E+02  0.46952550510E+02  0.23955362452E+03  0.12508829928E+03 0.  0.
         23    2    1    2    0    0  0.18289426729E+03  0.78000008959E+02 -0.41053800943E+03  0.46529230432E+03  0.91766861461E+02 0.  0.
          5    1    3    3  502    0  0.75601457529E+01 -0.24196021679E+02  0.31999469410E+02  0.41037077277E+02  0.41800000000E+01 0. -1.
         -5    1    3    3    0  502 -0.19045441305E+03 -0.53803987280E+02  0.14953081100E+02  0.19851654724E+03  0.41800000000E+01 0. -1.
        -11    1    4    4    0    0  0.14646635963E+03  0.18406886273E+02 -0.30327482050E+03  0.33729338077E+03  0.00000000000E+00 0. -1.
         11    1    4    4    0    0  0.36427907667E+02  0.59593122686E+02 -0.10726318893E+03  0.12799892354E+03  0.00000000000E+00 0.  1.
</event>
<event>
 8    1  0.7103328E-009  0.1060169E+03  0.7561462E-02  0.1268129E+00
          1   -1    0    0  501    0  0.00000000000E+00  0.00000000000E+00  0.27158564613E+03  0.27158564613E+03  0.00000000000E+00 0. -1.
         -1   -1    0    0    0  501 -0.00000000000E+00 -0.00000000000E+00 -0.51858994360E+02  0.51858994360E+02  0.00000000000E+00 0.  1.
         25    2    1    2    0    0  0.37500854195E+02  0.19890630970E+02  0.10617355153E+03  0.16947350698E+03  0.12508595148E+03 0.  0.
         23    2    1    2    0    0 -0.37500854195E+02 -0.19890630970E+02  0.11355310024E+03  0.15397113351E+03  0.94925508242E+02 0.  0.
          5    1    3    3  502    0  0.72214652521E+02  0.32358368143E+01  0.20189422508E+02  0.75169886655E+02  0.41800000000E+01 0. -1.
         -5    1    3    3    0  502 -0.34713798326E+02  0.16654794155E+02  0.85984129025E+02  0.94303620327E+02  0.41800000000E+01 0. -1.
        -11    1    4    4    0    0 -0.20254369326E+02  0.36601204147E+02  0.29283737914E+02  0.51062950640E+02  0.00000000000E+00 0. -1.
         11    1    4    4    0    0 -0.17246484868E+02 -0.56491835117E+02  0.84269362326E+02  0.10290818287E+03  0.00000000000E+00 0.  1.
</event>
<event>
 8    1  0.7103328E-009  0.1412563E+03  0.7561462E-02  0.1211648E+00
         -4   -1    0    0    0  501 -0.00000000000E+00  0.00000000000E+00  0.17776552744E+03  0.17776552744E+03  0.00000000000E+00 0.  1.
          4   -1    0    0  501    0  0.00000000000E+00 -0.00000000000E+00 -0.12170145541E+03  0.12170145541E+03  0.00000000000E+00 0. -1.
         25    2    1    2    0    0  0.90075647830E+02 -0.30390420670E+02  0.63426720514E+02  0.16943412234E+03  0.12509105859E+03 0.  0.
         23    2    1    2    0    0 -0.90075647830E+02  0.30390420670E+02 -0.73626484839E+01  0.13003286050E+03  0.88414570157E+02 0.  0.
          5    1    3    3  502    0  0.80046691677E+02 -0.74674745805E+02  0.32255820145E+02  0.11420026639E+03  0.41800000000E+01 0. -1.
         -5    1    3    3    0  502  0.10028956153E+02  0.44284325135E+02  0.31170900369E+02  0.55233855958E+02  0.41800000000E+01 0. -1.
        -11    1    4    4    0    0 -0.17824151605E+02 -0.28863227903E+02  0.91688227452E+01  0.35140484003E+02  0.00000000000E+00 0.  1.
         11    1    4    4    0    0 -0.72251496224E+02  0.59253648573E+02 -0.16531471229E+02  0.94892376495E+02  0.00000000000E+00 0. -1.
</event>
<event>
 8    1  0.7103328E-009  0.1895543E+03  0.7561462E-02  0.1158864E+00
         -2   -1    0    0    0  501 -0.00000000000E+00  0.00000000000E+00  0.55870415337E+02  0.55870415337E+02  0.00000000000E+00 0.  1.
          2   -1    0    0  501    0  0.00000000000E+00 -0.00000000000E+00 -0.68808384542E+03  0.68808384542E+03  0.00000000000E+00 0. -1.
         25    2    1    2    0    0 -0.14051635425E+02 -0.16154837211E+03 -0.33006454282E+03  0.38843963392E+03  0.12508965497E+03 0.  0.
         23    2    1    2    0    0  0.14051635425E+02  0.16154837211E+03 -0.30214888726E+03  0.35551462684E+03  0.93815642803E+02 0.  0.
          5    1    3    3  502    0  0.31541365998E+02  0.44868868703E+01 -0.43145369981E+02  0.53795773752E+02  0.41800000000E+01 0.  1.
         -5    1    3    3    0  502 -0.45593001423E+02 -0.16603525898E+03 -0.28691917284E+03  0.33464386017E+03  0.41800000000E+01 0.  1.
        -11    1    4    4    0    0  0.24400734413E+02  0.16795769949E+02 -0.11464967460E+03  0.11841470185E+03  0.00000000000E+00 0. -1.
         11    1    4    4    0    0 -0.10349098988E+02  0.14475260216E+03 -0.18749921266E+03  0.23709992499E+03  0.00000000000E+00 0.  1.
</event>
<event>
 8    1  0.7103328E-009  0.1266944E+03  0.7561462E-02  0.1232445E+00
         -2   -1    0    0    0  501 -0.00000000000E+00  0.00000000000E+00  0.61449476449E+03  0.61449476449E+03  0.00000000000E+00 0.  1.
          2   -1    0    0  501    0  0.00000000000E+00 -0.00000000000E+00 -0.35003498927E+02  0.35003498927E+02  0.00000000000E+00 0. -1.
         25    2    1    2    0    0  0.40490868954E+02  0.80875176578E+02  0.38874040075E+03  0.41826540433E+03  0.12508614881E+03 0.  0.
         23    2    1    2    0    0 -0.40490868954E+02 -0.80875176578E+02  0.19075086481E+03  0.23123285909E+03  0.94352732034E+02 0.  0.
          5    1    3    3  502    0  0.42683710897E+02 -0.11577478012E+02  0.49003389121E+02  0.66141830322E+02  0.41800000000E+01 0. -1.
         -5    1    3    3    0  502 -0.21928419438E+01  0.92452654590E+02  0.33973701163E+03  0.35212357400E+03  0.41800000000E+01 0. -1.
        -11    1    4    4    0    0 -0.54938339662E+02 -0.28162906839E+02  0.47455844938E+02  0.77868014648E+02  0.00000000000E+00 0. -1.
         11    1    4    4    0    0  0.14447470708E+02 -0.52712269739E+02  0.14329501987E+03  0.15336484444E+03  0.00000000000E+00 0.  1.
</event>
<event>
 8    1  0.7103328E-009  0.1216273E+03  0.7561462E-02  0.1240436E+00
          2   -1    0    0  501    0  0.00000000000E+00  0.00000000000E+00  0.33383458006E+03  0.33383458006E+03  0.00000000000E+00 0. -1.
         -2   -1    0    0    0  501 -0.00000000000E+00 -0.00000000000E+00 -0.49037300880E+02  0.49037300880E+02  0.00000000000E+00 0.  1.
         25    2    1    2    0    0 -0.43817681979E+02  0.47290041845E+02  0.17424510665E+03  0.22397661007E+03  0.12509127608E+03 0.  0.
         23    2    1    2    0    0  0.43817681979E+02 -0.47290041845E+02  0.11055217253E+03  0.15889527088E+03  0.94178484506E+02 0.  0.
          5    1    3    3  502    0  0.39704390043E+02  0.18165703594E+02  0.97043977840E+02  0.10649618496E+03  0.41800000000E+01 0.  1.
         -5    1    3    3    0  502 -0.83522072022E+02  0.29124338251E+02  0.77201128813E+02  0.11748042511E+03  0.41800000000E+01 0.  1.
        -11    1    4    4    0    0  0.54423806573E+02  0.75838736169E+01  0.35890775736E+02  0.65632413059E+02  0.00000000000E+00 0. -1.
         11    1    4    4    0    0 -0.10606124594E+02 -0.54873915462E+02  0.74661396793E+02  0.93262857817E+02  0.00000000000E+00 0.  1.
</event>
<event>
 8    1  0.7103328E-009  0.1005661E+03  0.7561462E-02  0.1279110E+00
         -2   -1    0    0    0  501 -0.00000000000E+00  0.00000000000E+00  0.31421083359E+02  0.31421083359E+02  0.00000000000E+00 0.  1.
          2   -1    0    0  501    0  0.00000000000E+00 -0.00000000000E+00 -0.39947770662E+03  0.39947770662E+03  0.00000000000E+00 0. -1.
         25    2    1    2    0    0  0.19729663884E+02  0.25306373066E+02 -0.27661935725E+03  0.30527801952E+03  0.12508688278E+03 0.  0.
         23    2    1    2    0    0 -0.19729663884E+02 -0.25306373066E+02 -0.91437266010E+02  0.12562077046E+03  0.79938302457E+02 0.  0.
          5    1    3    3  502    0  0.54654245490E+02  0.58374157574E+02 -0.18844148147E+03  0.20474934227E+03  0.41800000000E+01 0.  1.
         -5    1    3    3    0  502 -0.34924581606E+02 -0.33067784508E+02 -0.88177875782E+02  0.10052867725E+03  0.41800000000E+01 0.  1.
        -11    1    4    4    0    0 -0.39727756762E+02 -0.32703882058E+02 -0.27758239712E+02  0.58466729265E+02  0.00000000000E+00 0.  1.
         11    1    4    4    0    0  0.19998092877E+02  0.73975089925E+01 -0.63679026298E+02  0.67154041191E+02  0.00000000000E+00 0. -1.
</event>
<event>
 8    1  0.7103328E-009  0.1420738E+03  0.7561462E-02  0.1210565E+00
          2   -1    0    0  501    0  0.00000000000E+00  0.00000000000E+00  0.77476678775E+03  0.77476678775E+03  0.00000000000E+00 0. -1.
         -2   -1    0    0    0  501 -0.00000000000E+00 -0.00000000000E+00 -0.26447742269E+02  0.26447742269E+02  0.00000000000E+00 0.  1.
         25    2    1    2    0    0 -0.40716623675E+02 -0.88066146823E+02  0.38177848185E+03  0.41329923125E+03  0.12509178904E+03 0.  0.
         23    2    1    2    0    0  0.40716623675E+02  0.88066146823E+02  0.36654056363E+03  0.38791529877E+03  0.81931706773E+02 0.  0.
          5    1    3    3  502    0 -0.47143863461E+02  0.18857826798E+02  0.13187274733E+03  0.14137204597E+03  0.41800000000E+01 0.  1.
         -5    1    3    3    0  502  0.64272397862E+01 -0.10692397362E+03  0.24990573453E+03  0.27192718528E+03  0.41800000000E+01 0.  1.
        -11    1    4    4    0    0 -0.13843200674E+02  0.65520998341E+02  0.17053545499E+03  0.18321292759E+03  0.00000000000E+00 0.  1.
         11    1    4    4    0    0  0.54559824348E+02  0.22545148483E+02  0.19600510865E+03  0.20470237118E+03  0.00000000000E+00 0. -1.
</event>
<event>
 8    1  0.7103328E-009  0.1048889E+03  0.7561462E-02  0.1270339E+00
          2   -1    0    0  501    0  0.00000000000E+00  0.00000000000E+00  0.51505550968E+02  0.51505550968E+02  0.00000000000E+00 0. -1.
         -2   -1    0    0    0  501 -0.00000000000E+00 -0.00000000000E+00 -0.27548910631E+03  0.27548910631E+03  0.00000000000E+00 0.  1.
         25    2    1    2    0    0  0.31049577952E+02  0.32709987087E+02 -0.15311723692E+03  0.20279520423E+03  0.12508791737E+03 0.  0.
         23    2    1    2    0    0 -0.31049577952E+02 -0.32709987087E+02 -0.70866318423E+02  0.12419945305E+03  0.91484695462E+02 0.  0.
          5    1    3    3  502    0 -0.89226839634E+01 -0.38223472325E+02 -0.94409514218E+02  0.10232925731E+03  0.41800000000E+01 0. -1.
         -5    1    3    3    0  502  0.39972261916E+02  0.70933459412E+02 -0.58707722698E+02  0.10046594692E+03  0.41800000000E+01 0. -1.
        -11    1    4    4    0    0 -0.54479101236E+02 -0.85927797506E+01 -0.12054996733E+02  0.56454683433E+02  0.00000000000E+00 0. -1.
         11    1    4    4    0    0  0.23429523283E+02 -0.24117207336E+02 -0.58811321690E+02  0.67744769613E+02  0.00000000000E+00 0.  1.
</event>
<event>
 8    1  0.7103328E-009  0.1174599E+03  0.7561462E-02  0.1247347E+00
         -1   -1    0    0    0  501 -0.00000000000E+00  0.00000000000E+00  0.30705004182E+02  0.30705004182E+02  0.00000000000E+00 0.  1.
          1   -1    0    0  501    0  0.00000000000E+00 -0.00000000000E+00 -0.72179761766E+03  0.72179761766E+03  0.00000000000E+00 0. -1.
         25    2    1    2    0    0  0.46878012117E+02  0.85577938943E+02 -0.44750304697E+03  0.47479262133E+03  0.12509166469E+03 0.  0.
         23    2    1    2    0    0 -0.46878012117E+02 -0.85577938943E+02 -0.24358956651E+03  0.27771000051E+03  0.90916642125E+02 0.  0.
          5    1    3    3  502    0  0.33419754038E+02  0.14634818640E+02 -0.21210892824E+02  0.42407926747E+02  0.41800000000E+01 0.  1.
         -5    1    3    3    0  502  0.13458258078E+02  0.70943120304E+02 -0.42629215414E+03  0.43238469459E+03  0.41800000000E+01 0.  1.
        -11    1    4    4    0    0 -0.63720496229E+02 -0.88213612747E+02 -0.16758167491E+03  0.19981381554E+03  0.00000000000E+00 0.  1.
         11    1    4    4    0    0  0.16842484112E+02  0.26356738037E+01 -0.76007891603E+02  0.77896184973E+02  0.00000000000E+00 0. -1.
</event>
<event>
 8    1  0.7103328E-009  0.9881792E+02  0.7561462E-02  0.1282802E+00
         -2   -1    0    0    0  501 -0.00000000000E+00  0.00000000000E+00  0.16681443868E+03  0.16681443868E+03  0.00000000000E+00 0. -1.
          2   -1    0    0  501    0  0.00000000000E+00 -0.00000000000E+00 -0.86847277223E+02  0.86847277223E+02  0.00000000000E+00 0.  1.
         25    2    1    2    0    0 -0.43719027938E+02  0.59503425289E+01  0.14785292008E+02  0.13346307101E+03  0.12508807490E+03 0.  0.
         23    2    1    2    0    0  0.43719027938E+02 -0.59503425289E+01  0.65181869446E+02  0.12019864489E+03  0.90842050554E+02 0.  0.
          5    1    3    3  502    0  0.24872621967E+02  0.25782260944E+02  0.43397832047E+02  0.56428862555E+02  0.41800000000E+01 0.  1.
         -5    1    3    3    0  502 -0.68591649906E+02 -0.19831918415E+02 -0.28612540038E+02  0.77034208455E+02  0.41800000000E+01 0.  1.
        -11    1    4    4    0    0  0.49553150299E+02  0.27103078333E+02  0.12683058680E+02  0.57887403960E+02  0.00000000000E+00 0.  1.
         11    1    4    4    0    0 -0.58341223609E+01 -0.33053420862E+02  0.52498810767E+02  0.62311240931E+02  0.00000000000E+00 0. -1.
</event>
<event>
 8    1  0.7103328E-009  0.2442420E+03  0.7561462E-02  0.1116999E+00
         -2   -1    0    0    0  501 -0.00000000000E+00  0.00000000000E+00  0.50426376377E+03  0.50426376377E+03  0.00000000000E+00 0.  1.
          2   -1    0    0  501    0  0.00000000000E+00 -0.00000000000E+00 -0.13633588277E+03  0.13633588277E+03  0.00000000000E+00 0. -1.
         25    2    1    2    0    0 -0.33164104384E+02  0.22588698718E+03  0.27376686971E+03  0.37778353036E+03  0.12508920044E+03 0.  0.
         23    2    1    2    0    0  0.33164104384E+02 -0.22588698718E+03  0.94161011292E+02  0.26281611618E+03  0.89895639956E+02 0.  0.
          5    1    3    3  502    0  0.37535999976E+02  0.15656441680E+03  0.17609253067E+03  0.23863658491E+03  0.41800000000E+01 0. -1.
         -5    1    3    3    0  502 -0.70700104360E+02  0.69322570377E+02  0.97674339043E+02  0.13914694545E+03  0.41800000000E+01 0. -1.
        -11    1    4    4    0    0  0.10622088081E+02 -0.81279727380E+02  0.82021031044E+02  0.11595978774E+03  0.00000000000E+00 0.  1.
         11    1    4    4    0    0  0.22542016303E+02 -0.14460725980E+03  0.12139980248E+02  0.14685632845E+03  0.00000000000E+00 0. -1.
</event>
<event>
 8    1  0.7103328E-009  0.1099051E+03  0.7561462E-02  0.1260746E+00
         -1   -1    0    0    0  501 -0.00000000000E+00  0.00000000000E+00  0.55532784786E+02  0.55532784786E+02  0.00000000000E+00 0.  1.
          1   -1    0    0  501    0  0.00000000000E+00 -0.00000000000E+00 -0.27671117080E+03  0.27671117080E+03  0.00000000000E+00 0. -1.
         25    2    1    2    0    0  0.24986068811E+01 -0.40325739163E+02 -0.65924683418E+02  0.14705760657E+03  0.12508983768E+03 0.  0.
         23    2    1    2    0    0 -0.24986068811E+01  0.40325739163E+02 -0.15525370259E+03  0.18518634902E+03  0.92508720768E+02 0.  0.
          5    1    3    3  502    0 -0.60291561109E+02 -0.19692445105E+02 -0.20643939914E+02  0.66831948874E+02  0.41800000000E+01 0. -1.
         -5    1    3    3    0  502  0.62790167990E+02 -0.20633294058E+02 -0.45280743504E+02  0.80225657692E+02  0.41800000000E+01 0. -1.
        -11    1    4    4    0    0 -0.39868304757E+02  0.33410768014E+02 -0.12872867278E+03  0.13884103262E+03  0.00000000000E+00 0. -1.
         11    1    4    4    0    0  0.37369697876E+02  0.69149711489E+01 -0.26525029815E+02  0.46345316398E+02  0.00000000000E+00 0.  1.
</event>
<event>
 8    1  0.7103328E-009  0.1296967E+03  0.7561462E-02  0.1227906E+00
          2   -1    0    0  501    0  0.00000000000E+00  0.00000000000E+00  0.12616550294E+03  0.12616550294E+03  0.00000000000E+00 0. -1.
         -2   -1    0    0    0  501 -0.00000000000E+00 -0.00000000000E+00 -0.29102861649E+03  0.29102861649E+03  0.00000000000E+00 0.  1.
         25    2    1    2    0    0  0.57308805407E+02  0.64781926489E+02  0.54458272246E+02  0.16153963083E+03  0.12509337206E+03 0.  0.
         23    2    1    2    0    0 -0.57308805407E+02 -0.64781926489E+02 -0.21932138580E+03  0.25565448861E+03  0.98875427186E+02 0.  0.
          5    1    3    3  502    0  0.86174812815E+02  0.61521219040E+02  0.71283845225E+02  0.12770989682E+03  0.41800000000E+01 0.  1.
         -5    1    3    3    0  502 -0.28866007408E+02  0.32607074494E+01 -0.16825572979E+02  0.33829734005E+02  0.41800000000E+01 0.  1.
        -11    1    4    4    0    0 -0.80011503509E+02 -0.61971525623E+02 -0.13771676186E+03  0.17090411692E+03  0.00000000000E+00 0. -1.
         11    1    4    4    0    0  0.22702698102E+02 -0.28104008662E+01 -0.81604623938E+02  0.84750371693E+02  0.00000000000E+00 0.  1.
</event>
<event>
 8    1  0.7103328E-009  0.1403404E+03  0.7561462E-02  0.1212872E+00
         -1   -1    0    0    0  501 -0.00000000000E+00  0.00000000000E+00  0.76383909608E+02  0.76383909608E+02  0.00000000000E+00 0.  1.
          1   -1    0    0  501    0  0.00000000000E+00 -0.00000000000E+00 -0.28559320217E+03  0.28559320217E+03  0.00000000000E+00 0. -1.
         25    2    1    2    0    0  0.89231027412E+01  0.97826966121E+02 -0.93692080868E+02  0.18459058934E+03  0.12508294286E+03 0.  0.
         23    2    1    2    0    0 -0.89231027412E+01 -0.97826966121E+02 -0.11551721170E+03  0.17738652244E+03  0.92043549913E+02 0.  0.
          5    1    3    3  502    0  0.34843882687E+01 -0.29635265941E+02 -0.27541063423E+02  0.40821226384E+02  0.41800000000E+01 0.  1.
         -5    1    3    3    0  502  0.54387144725E+01  0.12746223206E+03 -0.66151017444E+02  0.14376936296E+03  0.41800000000E+01 0.  1.
        -11    1    4    4    0    0  0.32668684174E+02 -0.39343637921E+02 -0.13920009711E+02  0.52999353212E+02  0.00000000000E+00 0.  1.
         11    1    4    4    0    0 -0.41591786915E+02 -0.58483328200E+02 -0.10159720199E+03  0.12438716922E+03  0.00000000000E+00 0. -1.
</event>
<event>
 8    1  0.7103328E-009  0.8590383E+02  0.7561462E-02  0.1313086E+00
         -2   -1    0    0    0  501 -0.00000000000E+00  0.00000000000E+00  0.21703579916E+02  0.21703579916E+02  0.00000000000E+00 0.  1.
          2   -1    0    0  501    0  0.00000000000E+00 -0.00000000000E+00 -0.64661123449E+03  0.64661123449E+03  0.00000000000E+00 0. -1.
         25    2    1    2    0    0  0.38401641119E+02  0.24943883514E+02 -0.30257294854E+03  0.33059617117E+03  0.12508619365E+03 0.  0.
         23    2    1    2    0    0 -0.38401641119E+02 -0.24943883514E+02 -0.32233470604E+03  0.33771864323E+03  0.89762664319E+02 0.  0.
          5    1    3    3  502    0  0.30636964836E+02  0.47140388988E+02 -0.45584016135E+02  0.72499757347E+02  0.41800000000E+01 0. -1.
         -5    1    3    3    0  502  0.77646762832E+01 -0.22196505474E+02 -0.25698893240E+03  0.25809641383E+03  0.41800000000E+01 0. -1.
        -11    1    4    4    0    0 -0.59874528314E+02 -0.16941644644E+01 -0.13447858082E+03  0.14721520993E+03  0.00000000000E+00 0.  1.
         11    1    4    4    0    0  0.21472887195E+02 -0.23249719050E+02 -0.18785612522E+03  0.19050343331E+03  0.00000000000E+00 0. -1.
</event>
<event>
 8    1  0.7103328E-009  0.9100913E+02  0.7561462E-02  0.1300426E+00
         -2   -1    0    0    0  501 -0.00000000000E+00  0.00000000000E+00  0.11300662063E+03  0.11300662063E+03  0.00000000000E+00 0.  1.
          2   -1    0    0  501    0  0.00000000000E+00 -0.00000000000E+00 -0.13079337628E+03  0.13079337628E+03  0.00000000000E+00 0. -1.
         25    2    1    2    0    0 -0.13629546257E+02 -0.37626530943E+00 -0.61424275005E+02  0.14002033120E+03  0.12508735141E+03 0.  0.
         23    2    1    2    0    0  0.13629546257E+02  0.37626530943E+00  0.43637519358E+02  0.10377966571E+03  0.93166945922E+02 0.  0.
          5    1    3    3  502    0  0.47481194915E+01 -0.61520601650E+02 -0.30080941255E+02  0.68772556248E+02  0.41800000000E+01 0. -1.
         -5    1    3    3    0  502 -0.18377665749E+02  0.61144336341E+02 -0.31343333750E+02  0.71247774951E+02  0.41800000000E+01 0. -1.
        -11    1    4    4    0    0  0.18108131991E+02 -0.24750467841E+02  0.64105560943E+02  0.71063443812E+02  0.00000000000E+00 0.  1.
         11    1    4    4    0    0 -0.44785857333E+01  0.25126733151E+02 -0.20468041585E+02  0.32716221898E+02  0.00000000000E+00 0. -1.
</event>
<event>
 8    1  0.7103328E-009  0.1439203E+03  0.7561462E-02  0.1208149E+00
         -2   -1    0    0    0  501 -0.00000000000E+00  0.00000000000E+00  0.61367221420E+02  0.61367221420E+02  0.00000000000E+00 0.  1.
          2   -1    0    0  501    0  0.00000000000E+00 -0.00000000000E+00 -0.68419635179E+03  0.68419635179E+03  0.00000000000E+00 0. -1.
         25    2    1    2    0    0  0.45838247926E+02 -0.10268384829E+03 -0.56550208631E+03  0.58998788554E+03  0.12509187741E+03 0.  0.
         23    2    1    2    0    0 -0.45838247926E+02  0.10268384829E+03 -0.57327044063E+02  0.15557568767E+03  0.90952113455E+02 0.  0.
          5    1    3    3  502    0  0.17916970061E+02  0.26200291912E+02 -0.17203234009E+03  0.17498591815E+03  0.41800000000E+01 0. -1.
         -5    1    3    3    0  502  0.27921277864E+02 -0.12888414020E+03 -0.39346974622E+03  0.41500196739E+03  0.41800000000E+01 0. -1.
        -11    1    4    4    0    0 -0.24500922109E+02  0.99304637792E+02 -0.90458662397E+01  0.10268171194E+03  0.00000000000E+00 0.  1.
         11    1    4    4    0    0 -0.21337325816E+02  0.33792104940E+01 -0.48281177823E+02  0.52893975730E+02  0.00000000000E+00 0. -1.
</event>
<event>
 8    1  0.7103328E-009  0.7753146E+02  0.7561462E-02  0.1336206E+00
         -3   -1    0    0    0  501 -0.00000000000E+00  0.00000000000E+00  0.34295797180E+03  0.34295797180E+03  0.00000000000E+00 0.  1.
          3   -1    0    0  501    0  0.00000000000E+00 -0.00000000000E+00 -0.40995418976E+02  0.40995418976E+02  0.00000000000E+00 0. -1.
         25    2    1    2    0    0 -0.22352092729E+02 -0.25854052047E+02  0.23096587296E+03  0.26487773820E+03  0.12508770391E+03 0.  0.
         23    2    1    2    0    0  0.22352092729E+02  0.25854052047E+02  0.70996679868E+02  0.11907565257E+03  0.89277289537E+02 0.  0.
          5    1    3    3  502    0 -0.51138818158E+02 -0.22836601108E+02  0.22875640424E+03  0.23554968469E+03  0.41800000000E+01 0. -1.
         -5    1    3    3    0  502  0.28786725429E+02 -0.30174509396E+01  0.22094687116E+01  0.29328053517E+02  0.41800000000E+01 0. -1.
        -11    1    4    4    0    0 -0.19317805601E+02 -0.21702523927E+01 -0.11434466864E+02  0.22552929769E+02  0.00000000000E+00 0. -1.
         11    1    4    4    0    0  0.41669898330E+02  0.28024304440E+02  0.82431146733E+02  0.96522722806E+02  0.00000000000E+00 0.  1.
</event>
<event>
 8    1  0.7103328E-009  0.2445101E+03  0.7561462E-02  0.1116824E+00
         -2   -1    0    0    0  501 -0.00000000000E+00  0.00000000000E+00  0.13239971187E+03  0.13239971187E+03  0.00000000000E+00 0.  1.
          2   -1    0    0  501    0  0.00000000000E+00 -0.00000000000E+00 -0.63392109581E+03  0.63392109581E+03  0.00000000000E+00 0. -1.
         25    2    1    2    0    0 -0.21761632953E+03 -0.51082333687E+02 -0.60191269852E+02  0.26312451332E+03  0.12508096918E+03 0.  0.
         23    2    1    2    0    0  0.21761632953E+03  0.51082333687E+02 -0.44133011409E+03  0.50319629436E+03  0.92021570096E+02 0.  0.
          5    1    3    3  502    0 -0.51024767437E+02  0.38646678826E+02  0.11848277017E+01  0.64155817297E+02  0.41800000000E+01 0.  1.
         -5    1    3    3    0  502 -0.16659156209E+03 -0.89729012513E+02 -0.61376097554E+02  0.19896869602E+03  0.41800000000E+01 0.  1.
        -11    1    4    4    0    0  0.43580301667E+02 -0.19578242421E+02 -0.50192553793E+02  0.69295329756E+02  0.00000000000E+00 0.  1.
         11    1    4    4    0    0  0.17403602786E+03  0.70660576108E+02 -0.39113756029E+03  0.43390096460E+03  0.00000000000E+00 0. -1.
</event>
<event>
 8    1  0.7103328E-009  0.1589065E+03  0.7561462E-02  0.1189937E+00
          1   -1    0    0  501    0  0.00000000000E+00  0.00000000000E+00  0.43366293927E+03  0.43366293927E+03  0.00000000000E+00 0. -1.
         -1   -1    0    0    0  501 -0.00000000000E+00 -0.00000000000E+00 -0.88598599535E+02  0.88598599535E+02  0.00000000000E+00 0.  1.
         25    2    1    2    0    0  0.98361944466E+02  0.10672347280E+03  0.85218977083E+02  0.20970230525E+03  0.12509121075E+03 0.  0.
         23    2    1    2    0    0 -0.98361944466E+02 -0.10672347280E+03  0.25984536265E+03  0.31255923355E+03  0.95439458413E+02 0.  0.
          5    1    3    3  502    0  0.69533120538E+02  0.10179579980E+03  0.41500354461E+01  0.12341772523E+03  0.41800000000E+01 0.  1.
         -5    1    3    3    0  502  0.28828823928E+02  0.49276730056E+01  0.81068941636E+02  0.86284580015E+02  0.41800000000E+01 0.  1.
        -11    1    4    4    0    0 -0.80211220504E+01 -0.64856046364E+02  0.57513917863E+02  0.87054557014E+02  0.00000000000E+00 0.  1.
         11    1    4    4    0    0 -0.90340822416E+02 -0.41867426437E+02  0.20233144478E+03  0.22550467654E+03  0.00000000000E+00 0. -1.
</event>
<event>
 8    1  0.7103328E-009  0.1194638E+03  0.7561462E-02  0.1243984E+00
         -1   -1    0    0    0  501 -0.00000000000E+00  0.00000000000E+00  0.13786009594E+02  0.13786009594E+02  0.00000000000E+00 0.  1.
          1   -1    0    0  501    0  0.00000000000E+00 -0.00000000000E+00 -0.11398820273E+04  0.11398820273E+04  0.00000000000E+00 0. -1.
         25    2    1    2    0    0 -0.55476649401E+02 -0.16548727463E+02 -0.52315198143E+03  0.54100541389E+03  0.12508934078E+03 0.  0.
         23    2    1    2    0    0  0.55476649401E+02  0.16548727463E+02 -0.60294403624E+03  0.61266262296E+03  0.91991628602E+02 0.  0.
          5    1    3    3  502    0 -0.24084462538E+01  0.47179598736E+02 -0.11328183781E+03  0.12280864109E+03  0.41800000000E+01 0.  1.
         -5    1    3    3    0  502 -0.53068203148E+02 -0.63728326199E+02 -0.40987014362E+03  0.41819677280E+03  0.41800000000E+01 0.  1.
        -11    1    4    4    0    0  0.46557574733E+02  0.53228671197E+02 -0.41155157571E+03  0.41758304404E+03  0.00000000000E+00 0.  1.
         11    1    4    4    0    0  0.89190746683E+01 -0.36679943734E+02 -0.19139246053E+03  0.19507957892E+03  0.00000000000E+00 0. -1.
</event>
<event>
 8    1  0.7103328E-009  0.1257796E+03  0.7561462E-02  0.1233856E+00
          1   -1    0    0  501    0  0.00000000000E+00  0.00000000000E+00  0.12054403460E+04  0.12054403460E+04  0.00000000000E+00 0. -1.
         -1   -1    0    0    0  501 -0.00000000000E+00 -0.00000000000E+00 -0.17515411768E+02  0.17515411768E+02  0.00000000000E+00 0.  1.
         25    2    1    2    0    0 -0.94966367051E+02 -0.16831709761E+02  0.67156732171E+03  0.68989201196E+03  0.12508558368E+03 0.  0.
         23    2    1    2    0    0  0.94966367051E+02  0.16831709761E+02  0.51635761248E+03  0.53306374578E+03  0.90718552491E+02 0.  0.
          5    1    3    3  502    0 -0.10440530666E+03 -0.23200572283E+02  0.66898147591E+03  0.67748979485E+03  0.41800000000E+01 0.  1.
         -5    1    3    3    0  502  0.94389396050E+01  0.63688625214E+01  0.25858458015E+01  0.12402217108E+02  0.41800000000E+01 0.  1.
        -11    1    4    4    0    0 -0.11200553511E+02 -0.17533413173E+02  0.83764052989E+02  0.86309266882E+02  0.00000000000E+00 0.  1.
         11    1    4    4    0    0  0.10616692056E+03  0.34365122934E+02  0.43259355949E+03  0.44675447889E+03  0.00000000000E+00 0. -1.
</event>
<event>
 8    1  0.7103328E-009  0.9334417E+02  0.7561462E-02  0.1294950E+00
          2   -1    0    0  501    0  0.00000000000E+00  0.00000000000E+00  0.11904893373E+03  0.11904893373E+03  0.00000000000E+00 0. -1.
         -2   -1    0    0    0  501 -0.00000000000E+00 -0.00000000000E+00 -0.13803495558E+03  0.13803495558E+03  0.00000000000E+00 0.  1.
         25    2    1    2    0    0 -0.52494250150E+02 -0.55943361587E+01  0.34533370609E+02  0.14010033063E+03  0.12509438861E+03 0.  0.
         23    2    1    2    0    0  0.52494250150E+02  0.55943361587E+01 -0.53519392459E+02  0.11698355867E+03  0.89631940369E+02 0.  0.
          5    1    3    3  502    0 -0.53735644701E+02  0.29539274679E+02 -0.28544110847E+02  0.67766709556E+02  0.41800000000E+01 0. -1.
         -5    1    3    3    0  502  0.12413945517E+01 -0.35133610838E+02  0.63077481457E+02  0.72333621075E+02  0.41800000000E+01 0. -1.
        -11    1    4    4    0    0  0.62093200067E+02 -0.17751758272E+02 -0.62808110028E+02  0.90086342481E+02  0.00000000000E+00 0.  1.
         11    1    4    4    0    0 -0.95989499178E+01  0.23346094430E+02  0.92887175690E+01  0.26897216190E+02  0.00000000000E+00 0. -1.
</event>
<event>
 8    1  0.7103328E-009  0.1192377E+03  0.7561462E-02  0.1244360E+00
          2   -1    0    0  501    0  0.00000000000E+00  0.00000000000E+00  0.87984143560E+03  0.87984143560E+03  0.00000000000E+00 0. -1.
         -2   -1    0    0    0  501 -0.00000000000E+00 -0.00000000000E+00 -0.20473229838E+02  0.20473229838E+02  0.00000000000E+00 0.  1.
         25    2    1    2    0    0 -0.18197430858E+02  0.67491422597E+02  0.60427916728E+03  0.62103663942E+03  0.12508779669E+03 0.  0.
         23    2    1    2    0    0  0.18197430858E+02 -0.67491422597E+02  0.25508903848E+03  0.27927802602E+03  0.89663591543E+02 0.  0.
          5    1    3    3  502    0  0.38312461238E+02 -0.14523023552E+02  0.12896711700E+03  0.13538372342E+03  0.41800000000E+01 0.  1.
         -5    1    3    3    0  502 -0.56509892095E+02  0.82014446148E+02  0.47531205027E+03  0.48565291600E+03  0.41800000000E+01 0.  1.
        -11    1    4    4    0    0 -0.18577488186E+02 -0.56114828837E+02  0.76978196978E+02  0.97054829311E+02  0.00000000000E+00 0.  1.
         11    1    4    4    0    0  0.36774919044E+02 -0.11376593760E+02  0.17811084150E+03  0.18222319670E+03  0.00000000000E+00 0. -1.
</event>
<event>
 8    1  0.7103328E-009  0.9058151E+02  0.7561462E-02  0.1301450E+00
          2   -1    0    0  501    0  0.00000000000E+00  0.00000000000E+00  0.69675746654E+02  0.69675746654E+02  0.00000000000E+00 0. -1.
         -2   -1    0    0    0  501 -0.00000000000E+00 -0.00000000000E+00 -0.18893940865E+03  0.18893940865E+03  0.00000000000E+00 0.  1.
         25    2    1    2    0    0 -0.22790040143E+02  0.26928106012E+02 -0.85393682029E+02  0.15551478583E+03  0.12509300084E+03 0.  0.
         23    2    1    2    0    0  0.22790040143E+02 -0.26928106012E+02 -0.33869979966E+02  0.10310036947E+03  0.90763438776E+02 0.  0.
          5    1    3    3  502    0 -0.23804680883E+02 -0.30668788660E+02 -0.89464131503E+02  0.97614244122E+02  0.41800000000E+01 0. -1.
         -5    1    3    3    0  502  0.10146407400E+01  0.57596894673E+02  0.40704494741E+01  0.57900541713E+02  0.41800000000E+01 0. -1.
        -11    1    4    4    0    0 -0.10030823194E+02  0.22723725758E+02 -0.35772884627E+02  0.43550940298E+02  0.00000000000E+00 0.  1.
         11    1    4    4    0    0  0.32820863337E+02 -0.49651831771E+02  0.19029046609E+01  0.59549429170E+02  0.00000000000E+00 0. -1.
</event>
<event>
 8    1  0.7103328E-009  0.1726575E+03  0.7561462E-02  0.1175104E+00
          2   -1    0    0  501    0  0.00000000000E+00  0.00000000000E+00  0.81478448624E+03  0.81478448624E+03  0.00000000000E+00 0. -1.
         -2   -1    0    0    0  501 -0.00000000000E+00 -0.00000000000E+00 -0.51929801464E+02  0.51929801464E+02  0.00000000000E+00 0.  1.
         25    2    1    2    0    0  0.17111801735E+03 -0.20090226365E+02  0.45332599456E+03  0.50083691873E+03  0.12509264070E+03 0.  0.
         23    2    1    2    0    0 -0.17111801735E+03  0.20090226365E+02  0.30952869021E+03  0.36587736898E+03  0.91505442499E+02 0.  0.
          5    1    3    3  502    0  0.43663993146E+02 -0.32351132108E+01  0.19085427480E+02  0.47945137366E+02  0.41800000000E+01 0.  1.
         -5    1    3    3    0  502  0.12745402420E+03 -0.16855113154E+02  0.43424056708E+03  0.45289178136E+03  0.41800000000E+01 0.  1.
        -11    1    4    4    0    0 -0.74207540460E+02  0.28031808995E+01  0.53354326301E+02  0.91440149931E+02  0.00000000000E+00 0.  1.
         11    1    4    4    0    0 -0.96910476889E+02  0.17287045465E+02  0.25617436391E+03  0.27443721904E+03  0.00000000000E+00 0. -1.
</event>
<event>
 8    1  0.7103328E-009  0.9696861E+02  0.7561462E-02  0.1286803E+00
         -2   -1    0    0    0  501 -0.00000000000E+00  0.00000000000E+00  0.28345084706E+02  0.28345084706E+02  0.00000000000E+00 0.  1.
          2   -1    0    0  501    0  0.00000000000E+00 -0.00000000000E+00 -0.43103441945E+03  0.43103441945E+03  0.00000000000E+00 0. -1.
         25    2    1    2    0    0 -0.17663305254E+02 -0.17689577923E+02 -0.21428982935E+03  0.24938074011E+03  0.12508280879E+03 0.  0.
         23    2    1    2    0    0  0.17663305254E+02  0.17689577923E+02 -0.18839950539E+03  0.20999876404E+03  0.89331930174E+02 0.  0.
          5    1    3    3  502    0  0.18508456640E+02 -0.49406525295E+02 -0.18607005170E+03  0.19345052145E+03  0.41800000000E+01 0. -1.
         -5    1    3    3    0  502 -0.36171761894E+02  0.31716947372E+02 -0.28219777655E+02  0.55930218666E+02  0.41800000000E+01 0. -1.
        -11    1    4    4    0    0  0.20362405041E+02 -0.34716626739E+02 -0.84860178207E+02  0.93920826000E+02  0.00000000000E+00 0.  1.
         11    1    4    4    0    0 -0.26990997872E+01  0.52406204662E+02 -0.10353932718E+03  0.11607793804E+03  0.00000000000E+00 0. -1.
</event>
<event>
 8    1  0.7103328E-009  0.1023887E+03  0.7561462E-02  0.1275352E+00
         -2   -1    0    0    0  501 -0.00000000000E+00  0.00000000000E+00  0.96865330531E+02  0.96865330531E+02  0.00000000000E+00 0.  1.
          2   -1    0    0  501    0  0.00000000000E+00 -0.00000000000E+00 -0.14471998499E+03  0.14471998499E+03  0.00000000000E+00 0. -1.
         25    2    1    2    0    0 -0.45482693830E+02  0.78709602097E+01 -0.29496515514E+02  0.13656160821E+03  0.12509356880E+03 0.  0.
         23    2    1    2    0    0  0.45482693830E+02 -0.78709602097E+01 -0.18358138948E+02  0.10502370732E+03  0.92532861085E+02 0.  0.
          5    1    3    3  502    0 -0.80779919977E+02 -0.39692998249E+00  0.11470205503E+02  0.81698170354E+02  0.41800000000E+01 0.  1.
         -5    1    3    3    0  502  0.35297226147E+02  0.82678901922E+01 -0.40966721018E+02  0.54863437851E+02  0.41800000000E+01 0.  1.
        -11    1    4    4    0    0  0.40465443523E+02  0.29254402234E+02  0.17748657309E+02  0.52993273213E+02  0.00000000000E+00 0.  1.
         11    1    4    4    0    0  0.50172503075E+01 -0.37125362444E+02 -0.36106796257E+02  0.52030434105E+02  0.00000000000E+00 0. -1.
</event>
<event>
 8    1  0.7103328E-009  0.7863267E+02  0.7561462E-02  0.1332977E+00
         -1   -1    0    0    0  501 -0.00000000000E+00  0.00000000000E+00  0.41297203321E+02  0.41297203321E+02  0.00000000000E+00 0.  1.
          1   -1    0    0  501    0  0.00000000000E+00 -0.00000000000E+00 -0.29745611765E+03  0.29745611765E+03  0.00000000000E+00 0. -1.
         25    2    1    2    0    0  0.49326895927E+01 -0.53152873147E+01 -0.11272709676E+03  0.16854610366E+03  0.12509119478E+03 0.  0.
         23    2    1    2    0    0 -0.49326895927E+01  0.53152873147E+01 -0.14343181757E+03  0.17020721730E+03  0.91352213028E+02 0.  0.
          5    1    3    3  502    0 -0.49030205404E+02  0.12491330311E+02 -0.96926198532E+02  0.10941734203E+03  0.41800000000E+01 0.  1.
         -5    1    3    3    0  502  0.53962894997E+02 -0.17806617626E+02 -0.15800898223E+02  0.59128761634E+02  0.41800000000E+01 0.  1.
        -11    1    4    4    0    0  0.15583024749E+02 -0.14288396108E+02  0.27288804245E+01  0.21317497790E+02  0.00000000000E+00 0.  1.
         11    1    4    4    0    0 -0.20515714341E+02  0.19603683423E+02 -0.14616069799E+03  0.14888971951E+03  0.00000000000E+00 0. -1.
</event>
<event>
 8    1  0.7103328E-009  0.1017235E+03  0.7561462E-02  0.1276713E+00
         -2   -1    0    0    0  501 -0.00000000000E+00  0.00000000000E+00  0.24334928435E+02  0.24334928435E+02  0.00000000000E+00 0. -1.
          2   -1    0    0  501    0  0.00000000000E+00 -0.00000000000E+00 -0.60250941282E+03  0.60250941282E+03  0.00000000000E+00 0.  1.
         25    2    1    2    0    0 -0.23052278638E+02  0.26609041157E+02 -0.43018538632E+03  0.44938445239E+03  0.12508985102E+03 0.  0.
         23    2    1    2    0    0  0.23052278638E+02 -0.26609041157E+02 -0.14798909807E+03  0.17745988886E+03  0.91388130449E+02 0.  0.
          5    1    3    3  502    0  0.30154217815E+02 -0.33585516609E+02 -0.10444905458E+03  0.11386106086E+03  0.41800000000E+01 0.  1.
         -5    1    3    3    0  502 -0.53206496452E+02  0.60194557766E+02 -0.32573633174E+03  0.33552339153E+03  0.41800000000E+01 0.  1.
        -11    1    4    4    0    0 -0.24629378666E+02 -0.41984315396E+01 -0.10923558989E+03  0.11205644658E+03  0.00000000000E+00 0.  1.
         11    1    4    4    0    0  0.47681657304E+02 -0.22410609618E+02 -0.38753508173E+02  0.65403442282E+02  0.00000000000E+00 0. -1.
</event>
<event>
 8    1  0.7103328E-009  0.1165871E+03  0.7561462E-02  0.1248836E+00
         -1   -1    0    0    0  501 -0.00000000000E+00  0.00000000000E+00  0.28624452328E+03  0.28624452328E+03  0.00000000000E+00 0.  1.
          1   -1    0    0  501    0  0.00000000000E+00 -0.00000000000E+00 -0.22086975363E+03  0.22086975363E+03  0.00000000000E+00 0. -1.
         25    2    1    2    0    0 -0.23359020968E+02 -0.55995243390E+02  0.25377287715E+03  0.28935608671E+03  0.12508061637E+03 0.  0.
         23    2    1    2    0    0  0.23359020968E+02  0.55995243390E+02 -0.18839810750E+03  0.21775819021E+03  0.90794665874E+02 0.  0.
          5    1    3    3  502    0 -0.10434329782E+02 -0.92332257144E+02  0.13145649512E+03  0.16103541057E+03  0.41800000000E+01 0.  1.
         -5    1    3    3    0  502 -0.12924691186E+02  0.36337013755E+02  0.12231638203E+03  0.12832067614E+03  0.41800000000E+01 0.  1.
        -11    1    4    4    0    0 -0.24237836438E+02  0.47065640541E+02 -0.57353329843E+02  0.78051596260E+02  0.00000000000E+00 0.  1.
         11    1    4    4    0    0  0.47596857406E+02  0.89296028490E+01 -0.13104477766E+03  0.13970659395E+03  0.00000000000E+00 0. -1.
</event>
<event>
 8    1  0.7103328E-009  0.1569830E+03  0.7561462E-02  0.1192146E+00
          1   -1    0    0  501    0  0.00000000000E+00  0.00000000000E+00  0.58752031796E+03  0.58752031796E+03  0.00000000000E+00 0. -1.
         -1   -1    0    0    0  501 -0.00000000000E+00 -0.00000000000E+00 -0.59986895175E+02  0.59986895175E+02  0.00000000000E+00 0.  1.
         25    2    1    2    0    0  0.10363242576E+03 -0.80493596553E+02  0.41422615528E+03  0.45216189173E+03  0.12509264511E+03 0.  0.
         23    2    1    2    0    0 -0.10363242576E+03  0.80493596553E+02  0.11330726751E+03  0.19534532141E+03  0.90013104444E+02 0.  0.
          5    1    3    3  502    0  0.27008699692E+02 -0.98685702867E+02  0.23793310152E+03  0.25903276049E+03  0.41800000000E+01 0.  1.
         -5    1    3    3    0  502  0.76623726066E+02  0.18192106314E+02  0.17629305376E+03  0.19312913124E+03  0.41800000000E+01 0. -1.
        -11    1    4    4    0    0 -0.96693195763E+02  0.67346406283E+02  0.12832121384E+03  0.17421666529E+03  0.00000000000E+00 0. -1.
         11    1    4    4    0    0 -0.69392299949E+01  0.13147190270E+02 -0.15013946326E+02  0.21128656115E+02  0.00000000000E+00 0.  1.
</event>
<event>
 8    1  0.7103328E-009  0.1096660E+03  0.7561462E-02  0.1261190E+00
          1   -1    0    0  501    0  0.00000000000E+00  0.00000000000E+00  0.61394844526E+02  0.61394844526E+02  0.00000000000E+00 0. -1.
         -1   -1    0    0    0  501 -0.00000000000E+00 -0.00000000000E+00 -0.28139321271E+03  0.28139321271E+03  0.00000000000E+00 0.  1.
         25    2    1    2    0    0  0.11227356500E+02  0.29778112721E+02 -0.34824946602E+02  0.13368978756E+03  0.12508953937E+03 0.  0.
         23    2    1    2    0    0 -0.11227356500E+02 -0.29778112721E+02 -0.18517342159E+03  0.20909826968E+03  0.91761107185E+02 0.  0.
          5    1    3    3  502    0 -0.51578298958E+02 -0.10630436719E+02 -0.24318616250E+02  0.58156638525E+02  0.41800000000E+01 0. -1.
         -5    1    3    3    0  502  0.62805655457E+02  0.40408549440E+02 -0.10506330353E+02  0.75533149032E+02  0.41800000000E+01 0. -1.
        -11    1    4    4    0    0 -0.48853190801E+02 -0.13315526280E+02 -0.13546066065E+03  0.14461510321E+03  0.00000000000E+00 0.  1.
         11    1    4    4    0    0  0.37625834301E+02 -0.16462586441E+02 -0.49712760933E+02  0.64483166476E+02  0.00000000000E+00 0. -1.
</event>
<event>
 8    1  0.7103328E-009  0.1401581E+03  0.7561462E-02  0.1213116E+00
          2   -1    0    0  501    0  0.00000000000E+00  0.00000000000E+00  0.75314331994E+03  0.75314331994E+03  0.00000000000E+00 0. -1.
         -2   -1    0    0    0  501 -0.00000000000E+00 -0.00000000000E+00 -0.39893021769E+02  0.39893021769E+02  0.00000000000E+00 0.  1.
         25    2    1    2    0    0 -0.86092039773E+02 -0.87429628075E+02  0.26215998833E+03  0.31532673719E+03  0.12508921828E+03 0.  0.
         23    2    1    2    0    0  0.86092039773E+02  0.87429628075E+02  0.45109030984E+03  0.47770960452E+03  0.98327104279E+02 0.  0.
          5    1    3    3  502    0 -0.62567937394E+02 -0.87672680986E+02  0.26956065488E+03  0.29031304628E+03  0.41800000000E+01 0. -1.
         -5    1    3    3    0  502 -0.23524102379E+02  0.24305291084E+00 -0.74006665546E+01  0.25013690910E+02  0.41800000000E+01 0. -1.
        -11    1    4    4    0    0 -0.14203747152E+01  0.55436976773E+02  0.25006148111E+03  0.25613672168E+03  0.00000000000E+00 0. -1.
         11    1    4    4    0    0  0.87512414488E+02  0.31992651302E+02  0.20102882873E+03  0.22157288284E+03  0.00000000000E+00 0.  1.
</event>
<event>
 8    1  0.7103328E-009  0.1214141E+03  0.7561462E-02  0.1240782E+00
          1   -1    0    0  501    0  0.00000000000E+00  0.00000000000E+00  0.11452775727E+04  0.11452775727E+04  0.00000000000E+00 0. -1.
         -1   -1    0    0    0  501 -0.00000000000E+00 -0.00000000000E+00 -0.20176133738E+02  0.20176133738E+02  0.00000000000E+00 0.  1.
         25    2    1    2    0    0 -0.47145437682E+02  0.75347695313E+02  0.85782122901E+03  0.87143869181E+03  0.12509262636E+03 0.  0.
         23    2    1    2    0    0  0.47145437682E+02 -0.75347695313E+02  0.26728020995E+03  0.29401501462E+03  0.84297987574E+02 0.  0.
          5    1    3    3  502    0  0.40887916050E+02  0.67773525791E+01  0.21730674993E+03  0.22126330503E+03  0.41800000000E+01 0. -1.
         -5    1    3    3    0  502 -0.88033353732E+02  0.68570342734E+02  0.64051447908E+03  0.65017538679E+03  0.41800000000E+01 0. -1.
        -11    1    4    4    0    0  0.43577768040E+02 -0.62638349891E+02  0.26996705861E+03  0.28054375323E+03  0.00000000000E+00 0. -1.
         11    1    4    4    0    0  0.35676696416E+01 -0.12709345422E+02 -0.26868486571E+01  0.13471261390E+02  0.00000000000E+00 0.  1.
</event>
<event>
 8    1  0.7103328E-009  0.1084306E+03  0.7561462E-02  0.1263504E+00
          1   -1    0    0  501    0  0.00000000000E+00  0.00000000000E+00  0.76834607494E+02  0.76834607494E+02  0.00000000000E+00 0. -1.
         -1   -1    0    0    0  501 -0.00000000000E+00 -0.00000000000E+00 -0.15410865179E+03  0.15410865179E+03  0.00000000000E+00 0.  1.
         25    2    1    2    0    0  0.27934443722E+02  0.18275421348E+02 -0.55166538970E+02  0.14072682595E+03  0.12508544420E+03 0.  0.
         23    2    1    2    0    0 -0.27934443722E+02 -0.18275421348E+02 -0.22107505330E+02  0.90216433333E+02  0.80845153720E+02 0.  0.
          5    1    3    3  502    0 -0.35780123021E+02 -0.31955250302E+02 -0.22736301654E+02  0.53251920512E+02  0.41800000000E+01 0. -1.
         -5    1    3    3    0  502  0.63714566743E+02  0.50230671650E+02 -0.32430237316E+02  0.87474905442E+02  0.41800000000E+01 0. -1.
        -11    1    4    4    0    0 -0.55947718400E+02 -0.19960718914E+02 -0.14980335771E+02  0.61261635251E+02  0.00000000000E+00 0.  1.
         11    1    4    4    0    0  0.28013274679E+02  0.16852975666E+01 -0.71271695588E+01  0.28954798083E+02  0.00000000000E+00 0. -1.
</event>
<event>
 8    1  0.7103328E-009  0.1139095E+03  0.7561462E-02  0.1253497E+00
          2   -1    0    0  501    0  0.00000000000E+00  0.00000000000E+00  0.61184432122E+02  0.61184432122E+02  0.00000000000E+00 0. -1.
         -2   -1    0    0    0  501 -0.00000000000E+00 -0.00000000000E+00 -0.24794035286E+03  0.24794035286E+03  0.00000000000E+00 0.  1.
         25    2    1    2    0    0  0.22145027775E+00 -0.54368516358E+02 -0.10089710792E+03  0.16965663105E+03  0.12508861443E+03 0.  0.
         23    2    1    2    0    0 -0.22145027775E+00  0.54368516358E+02 -0.85858812814E+02  0.13946815393E+03  0.95517776418E+02 0.  0.
          5    1    3    3  502    0 -0.34782551365E+02 -0.81228636914E+02 -0.84693617080E+02  0.12246794890E+03  0.41800000000E+01 0. -1.
         -5    1    3    3    0  502  0.35004001643E+02  0.26860120557E+02 -0.16203490843E+02  0.47188682148E+02  0.41800000000E+01 0. -1.
        -11    1    4    4    0    0 -0.12209450909E+02  0.72379754633E+02 -0.91310467674E+02  0.11715588367E+03  0.00000000000E+00 0.  1.
         11    1    4    4    0    0  0.11988000631E+02 -0.18011238276E+02  0.54516548592E+01  0.22312270258E+02  0.00000000000E+00 0. -1.
</event>
<event>
 8    1  0.7103328E-009  0.1168684E+03  0.7561462E-02  0.1248354E+00
          2   -1    0    0  501    0  0.00000000000E+00  0.00000000000E+00  0.23907215788E+03  0.23907215788E+03  0.00000000000E+00 0. -1.
         -2   -1    0    0    0  501 -0.00000000000E+00 -0.00000000000E+00 -0.73991635821E+02  0.73991635821E+02  0.00000000000E+00 0.  1.
         25    2    1    2    0    0  0.51591119140E+01 -0.72273120267E+02  0.11824968089E+03  0.18676728378E+03  0.12509600677E+03 0.  0.
         23    2    1    2    0    0 -0.51591119140E+01  0.72273120267E+02  0.46830841173E+02  0.12629650993E+03  0.92236979490E+02 0.  0.
          5    1    3    3  502    0  0.29978969362E+02 -0.84526518286E+02  0.30756233950E+02  0.94904632260E+02  0.41800000000E+01 0. -1.
         -5    1    3    3    0  502 -0.24819857448E+02  0.12253398019E+02  0.87493446936E+02  0.91862651516E+02  0.41800000000E+01 0. -1.
        -11    1    4    4    0    0 -0.47631078526E+02  0.44716081850E+02  0.35734603750E+02  0.74466163610E+02  0.00000000000E+00 0.  1.
         11    1    4    4    0    0  0.42471966612E+02  0.27557038417E+02  0.11096237423E+02  0.51830346315E+02  0.00000000000E+00 0. -1.
</event>
<event>
 8    1  0.7103328E-009  0.9975777E+02  0.7561462E-02  0.1280806E+00
          2   -1    0    0  501    0  0.00000000000E+00  0.00000000000E+00  0.25746801144E+03  0.25746801144E+03  0.00000000000E+00 0. -1.
         -2   -1    0    0    0  501 -0.00000000000E+00 -0.00000000000E+00 -0.10046370470E+03  0.10046370470E+03  0.00000000000E+00 0.  1.
         25    2    1    2    0    0  0.33931827399E+02  0.21676767320E+02  0.20870997448E+03  0.24663450005E+03  0.12508985577E+03 0.  0.
         23    2    1    2    0    0 -0.33931827399E+02 -0.21676767320E+02 -0.51705667745E+02  0.11129721608E+03  0.89957451491E+02 0.  0.
          5    1    3    3  502    0  0.49113136098E+02 -0.40736208172E+02  0.77414493322E+02  0.10040923747E+03  0.41800000000E+01 0. -1.
         -5    1    3    3    0  502 -0.15181308699E+02  0.62412975491E+02  0.13129548116E+03  0.14622526258E+03  0.41800000000E+01 0. -1.
        -11    1    4    4    0    0  0.15685031168E+02 -0.13941370640E+02  0.16432831251E+02  0.26653704452E+02  0.00000000000E+00 0. -1.
         11    1    4    4    0    0 -0.49616858567E+02 -0.77353966793E+01 -0.68138498996E+02  0.84643511631E+02  0.00000000000E+00 0.  1.
</event>
<event>
 8    1  0.7103328E-009  0.5867680E+02  0.7561462E-02  0.1403470E+00
          2   -1    0    0  501    0  0.00000000000E+00  0.00000000000E+00  0.52093434758E+03  0.52093434758E+03  0.00000000000E+00 0. -1.
         -2   -1    0    0    0  501 -0.00000000000E+00 -0.00000000000E+00 -0.25858873038E+02  0.25858873038E+02  0.00000000000E+00 0.  1.
         25    2    1    2    0    0 -0.10405635284E+02 -0.38555095314E+02  0.30623091021E+03  0.33319605597E+03  0.12508984262E+03 0.  0.
         23    2    1    2    0    0  0.10405635284E+02  0.38555095314E+02  0.18884456432E+03  0.21359716464E+03  0.91469703438E+02 0.  0.
          5    1    3    3  502    0 -0.36349933136E+01 -0.37904624379E+02  0.31726908571E+03  0.31957333880E+03  0.41800000000E+01 0.  1.
         -5    1    3    3    0  502 -0.67706419700E+01 -0.65047093525E+00 -0.11038175491E+02  0.13622717177E+02  0.41800000000E+01 0.  1.
        -11    1    4    4    0    0  0.34999483814E+02  0.24667672849E+02  0.17842758110E+03  0.18349348666E+03  0.00000000000E+00 0. -1.
         11    1    4    4    0    0 -0.24593848530E+02  0.13887422465E+02  0.10416983227E+02  0.30103677978E+02  0.00000000000E+00 0.  1.
</event>
<event>
 8    1  0.7103328E-009  0.1280464E+03  0.7561462E-02  0.1230384E+00
          4   -1    0    0  501    0  0.00000000000E+00  0.00000000000E+00  0.76101592147E+03  0.76101592147E+03  0.00000000000E+00 0. -1.
         -4   -1    0    0    0  501 -0.00000000000E+00 -0.00000000000E+00 -0.25028101122E+02  0.25028101122E+02  0.00000000000E+00 0.  1.
         25    2    1    2    0    0 -0.55376622513E+02  0.63577209245E+02  0.42425198313E+03  0.45027135767E+03  0.12508364598E+03 0.  0.
         23    2    1    2    0    0  0.55376622513E+02 -0.63577209245E+02  0.31173583722E+03  0.33577266493E+03  0.91953349295E+02 0.  0.
          5    1    3    3  502    0  0.27904399316E+02  0.30861175606E+02  0.48719727183E+02  0.64203986463E+02  0.41800000000E+01 0.  1.
         -5    1    3    3    0  502 -0.83281021829E+02  0.32716033640E+02  0.37553225595E+03  0.38606737121E+03  0.41800000000E+01 0.  1.
        -11    1    4    4    0    0  0.58845123618E+01 -0.73910003623E+02  0.18052371636E+03  0.19515667626E+03  0.00000000000E+00 0.  1.
         11    1    4    4    0    0  0.49492110151E+02  0.10332794377E+02  0.13121212086E+03  0.14061598866E+03  0.00000000000E+00 0. -1.
</event>
<event>
 8    1  0.7103328E-009  0.1233173E+03  0.7561462E-02  0.1237723E+00
          1   -1    0    0  501    0  0.00000000000E+00  0.00000000000E+00  0.11767008510E+03  0.11767008510E+03  0.00000000000E+00 0. -1.
         -1   -1    0    0    0  501 -0.00000000000E+00 -0.00000000000E+00 -0.23987189897E+03  0.23987189897E+03  0.00000000000E+00 0.  1.
         25    2    1    2    0    0 -0.90210019120E+02  0.46698243376E+01 -0.16085274956E+03  0.22289335276E+03  0.12509270504E+03 0.  0.
         23    2    1    2    0    0  0.90210019120E+02 -0.46698243376E+01  0.38650935686E+02  0.13464863131E+03  0.92069019090E+02 0.  0.
          5    1    3    3  502    0 -0.73937206262E+02  0.60533177690E+02 -0.92926695325E+02  0.13335598665E+03  0.41800000000E+01 0.  1.
         -5    1    3    3    0  502 -0.16272812858E+02 -0.55863353353E+02 -0.67926054233E+02  0.89537366110E+02  0.41800000000E+01 0.  1.
        -11    1    4    4    0    0  0.25031527511E+02 -0.10643272280E+02 -0.29521918833E+02  0.40142250883E+02  0.00000000000E+00 0.  1.
         11    1    4    4    0    0  0.65178491609E+02  0.59734479422E+01  0.68172854520E+02  0.94506380430E+02  0.00000000000E+00 0. -1.
</event>
<event>
 8    1  0.7103328E-009  0.6509104E+02  0.7561462E-02  0.1377629E+00
         -2   -1    0    0    0  501 -0.00000000000E+00  0.00000000000E+00  0.46325795897E+02  0.46325795897E+02  0.00000000000E+00 0.  1.
          2   -1    0    0  501    0  0.00000000000E+00 -0.00000000000E+00 -0.40699694272E+03  0.40699694272E+03  0.00000000000E+00 0. -1.
         25    2    1    2    0    0  0.35929422297E+02 -0.37944894475E+02 -0.30684983006E+03  0.33546211505E+03  0.12508906435E+03 0.  0.
         23    2    1    2    0    0 -0.35929422297E+02  0.37944894475E+02 -0.53821316761E+02  0.11786062357E+03  0.90904642603E+02 0.  0.
          5    1    3    3  502    0  0.16031386963E+02 -0.15700245339E+02 -0.30436869107E+03  0.30522332082E+03  0.41800000000E+01 0. -1.
         -5    1    3    3    0  502  0.19898035334E+02 -0.22244649135E+02 -0.24811389894E+01  0.30238794222E+02  0.41800000000E+01 0. -1.
        -11    1    4    4    0    0 -0.42523668005E+02  0.48670156568E+02 -0.21375160674E+01  0.64665411588E+02  0.00000000000E+00 0.  1.
         11    1    4    4    0    0  0.65942457079E+01 -0.10725262094E+02 -0.51683800694E+02  0.53195211980E+02  0.00000000000E+00 0. -1.
</event>
<event>
 8    1  0.7103328E-009  0.2257112E+03  0.7561462E-02  0.1129695E+00
          1   -1    0    0  501    0  0.00000000000E+00  0.00000000000E+00  0.10709589128E+04  0.10709589128E+04  0.00000000000E+00 0. -1.
         -1   -1    0    0    0  501 -0.00000000000E+00 -0.00000000000E+00 -0.77053772284E+02  0.77053772284E+02  0.00000000000E+00 0.  1.
         25    2    1    2    0    0 -0.35219584854E+02  0.21411274932E+03  0.81634455123E+03  0.85390362272E+03  0.12509309335E+03 0.  0.
         23    2    1    2    0    0  0.35219584854E+02 -0.21411274932E+03  0.17756058934E+03  0.29410906241E+03  0.88812663101E+02 0.  0.
          5    1    3    3  502    0  0.24462696235E+02  0.56137835420E+02  0.39858835272E+03  0.40328653262E+03  0.41800000000E+01 0.  1.
         -5    1    3    3    0  502 -0.59682281088E+02  0.15797491390E+03  0.41775619851E+03  0.45061709010E+03  0.41800000000E+01 0.  1.
        -11    1    4    4    0    0  0.37931265582E+02 -0.99664018786E+02  0.37106442008E+02  0.11290963461E+03  0.00000000000E+00 0.  1.
         11    1    4    4    0    0 -0.27116807277E+01 -0.11444873053E+03  0.14045414733E+03  0.18119942780E+03  0.00000000000E+00 0. -1.
</event>
<event>
 8    1  0.7103328E-009  0.8707040E+02  0.7561462E-02  0.1310105E+00
          1   -1    0    0  501    0  0.00000000000E+00  0.00000000000E+00  0.31236558980E+03  0.31236558980E+03  0.00000000000E+00 0. -1.
         -1   -1    0    0    0  501 -0.00000000000E+00 -0.00000000000E+00 -0.40384857888E+02  0.40384857888E+02  0.00000000000E+00 0.  1.
         25    2    1    2    0    0  0.26532758652E+02  0.10915326253E+02  0.13632566517E+03  0.18722069576E+03  0.12507505869E+03 0.  0.
         23    2    1    2    0    0 -0.26532758652E+02 -0.10915326253E+02  0.13565506675E+03  0.16552975193E+03  0.90413881746E+02 0.  0.
          5    1    3    3  502    0 -0.90653568323E+01 -0.26075253241E+02  0.13267843425E+03  0.13558443436E+03  0.41800000000E+01 0.  1.
         -5    1    3    3    0  502  0.35598115485E+02  0.36990579495E+02  0.36472309177E+01  0.51636261394E+02  0.41800000000E+01 0.  1.
        -11    1    4    4    0    0 -0.25796960203E+02  0.37924861731E+02  0.70258052272E+02  0.83904542202E+02  0.00000000000E+00 0.  1.
         11    1    4    4    0    0 -0.73579844905E+00 -0.48840187984E+02  0.65397014474E+02  0.81625209732E+02  0.00000000000E+00 0. -1.
</event>
<event>
 8    1  0.7103328E-009  0.1411684E+03  0.7561462E-02  0.1211765E+00
          1   -1    0    0  501    0  0.00000000000E+00  0.00000000000E+00  0.11176647305E+04  0.11176647305E+04  0.00000000000E+00 0. -1.
         -1   -1    0    0    0  501 -0.00000000000E+00 -0.00000000000E+00 -0.30562497637E+02  0.30562497637E+02  0.00000000000E+00 0.  1.
         25    2    1    2    0    0 -0.21422730788E+02 -0.92883214088E+02  0.93760908645E+03  0.95070814729E+03  0.12509579320E+03 0.  0.
         23    2    1    2    0    0  0.21422730788E+02  0.92883214088E+02  0.14949314644E+03  0.19751908088E+03  0.87059529193E+02 0.  0.
          5    1    3    3  502    0 -0.62724501532E+02 -0.89988397985E+01  0.35717940632E+03  0.36278084694E+03  0.41800000000E+01 0.  1.
         -5    1    3    3    0  502  0.41301770744E+02 -0.83884374289E+02  0.58042968013E+03  0.58792730035E+03  0.41800000000E+01 0.  1.
        -11    1    4    4    0    0  0.44330343380E+02  0.92219210570E+02  0.10045550004E+03  0.14339061905E+03  0.00000000000E+00 0.  1.
         11    1    4    4    0    0 -0.22907612592E+02  0.66400351776E+00  0.49037646403E+02  0.54128461830E+02  0.00000000000E+00 0. -1.
</event>
<event>
 8    1  0.7103328E-009  0.8987245E+02  0.7561462E-02  0.1303161E+00
         -1   -1    0    0    0  501 -0.00000000000E+00  0.00000000000E+00  0.10409184144E+03  0.10409184144E+03  0.00000000000E+00 0.  1.
          1   -1    0    0  501    0  0.00000000000E+00 -0.00000000000E+00 -0.14546594346E+03  0.14546594346E+03  0.00000000000E+00 0. -1.
         25    2    1    2    0    0 -0.38703087631E+02  0.72049932362E+01  0.17480560196E+02  0.13229973938E+03  0.12509120727E+03 0.  0.
         23    2    1    2    0    0  0.38703087631E+02 -0.72049932362E+01 -0.58854662209E+02  0.11725804552E+03  0.93465164929E+02 0.  0.
          5    1    3    3  502    0 -0.56152489141E+02 -0.15787716232E+02 -0.37915469571E+02  0.69695116424E+02  0.41800000000E+01 0. -1.
         -5    1    3    3    0  502  0.17449401510E+02  0.22992709468E+02  0.55396029767E+02  0.62604622957E+02  0.41800000000E+01 0. -1.
        -11    1    4    4    0    0  0.62116268446E+02 -0.20205381436E+02 -0.62288782013E+02  0.90258410186E+02  0.00000000000E+00 0. -1.
         11    1    4    4    0    0 -0.23413180815E+02  0.13000388200E+02  0.34341198033E+01  0.26999635332E+02  0.00000000000E+00 0.  1.
</event>
<event>
 8    1  0.7103328E-009  0.1066571E+03  0.7561462E-02  0.1266889E+00
         -1   -1    0    0    0  501 -0.00000000000E+00  0.00000000000E+00  0.36639792802E+02  0.36639792802E+02  0.00000000000E+00 0.  1.
          1   -1    0    0  501    0  0.00000000000E+00 -0.00000000000E+00 -0.38382702337E+03  0.38382702337E+03  0.00000000000E+00 0. -1.
         25    2    1    2    0    0  0.40412330880E+02 -0.21807927757E+02 -0.21799537638E+03  0.25549571780E+03  0.12508931006E+03 0.  0.
         23    2    1    2    0    0 -0.40412330880E+02  0.21807927757E+02 -0.12919185418E+03  0.16497109837E+03  0.91739772777E+02 0.  0.
          5    1    3    3  502    0 -0.28402782247E+02 -0.46975659956E+02 -0.60861694954E+02  0.82067344177E+02  0.41800000000E+01 0. -1.
         -5    1    3    3    0  502  0.68815113128E+02  0.25167732199E+02 -0.15713368143E+03  0.17342837363E+03  0.41800000000E+01 0. -1.
        -11    1    4    4    0    0  0.12052872937E+02 -0.16121252446E+02  0.37312640436E+00  0.20132206778E+02  0.00000000000E+00 0.  1.
         11    1    4    4    0    0 -0.52465203817E+02  0.37929180202E+02 -0.12956498058E+03  0.14483889159E+03  0.00000000000E+00 0. -1.
</event>
<event>
 8    1  0.7103328E-009  0.1135428E+03  0.7561462E-02  0.1254146E+00
          2   -1    0    0  501    0  0.00000000000E+00  0.00000000000E+00  0.35794690757E+03  0.35794690757E+03  0.00000000000E+00 0. -1.
         -2   -1    0    0    0  501 -0.00000000000E+00 -0.00000000000E+00 -0.10352341240E+03  0.10352341240E+03  0.00000000000E+00 0.  1.
         25    2    1    2    0    0 -0.97318159527E+02 -0.33368779596E+02  0.27544958158E+03  0.31953822018E+03  0.12509157661E+03 0.  0.
         23    2    1    2    0    0  0.97318159527E+02  0.33368779596E+02 -0.21026086410E+02  0.14193209978E+03  0.95489921006E+02 0.  0.
          5    1    3    3  502    0 -0.40634944496E+02  0.15011470077E+02  0.22565417656E+03  0.22981258178E+03  0.41800000000E+01 0. -1.
         -5    1    3    3    0  502 -0.56683215031E+02 -0.48380249673E+02  0.49795405025E+02  0.89725638400E+02  0.41800000000E+01 0. -1.
        -11    1    4    4    0    0  0.70543690691E+02  0.62559175670E+01 -0.55941571144E+02  0.90249699074E+02  0.00000000000E+00 0.  1.
         11    1    4    4    0    0  0.26774468836E+02  0.27112862029E+02  0.34915484734E+02  0.51682400709E+02  0.00000000000E+00 0. -1.
</event>
<event>
 8    1  0.7103328E-009  0.1031877E+03  0.7561462E-02  0.1273732E+00
          1   -1    0    0  501    0  0.00000000000E+00  0.00000000000E+00  0.28141818857E+03  0.28141818857E+03  0.00000000000E+00 0. -1.
         -1   -1    0    0    0  501 -0.00000000000E+00 -0.00000000000E+00 -0.69555706455E+02  0.69555706455E+02  0.00000000000E+00 0.  1.
         25    2    1    2    0    0  0.46280672579E+02 -0.39235970602E+02  0.19465184149E+03  0.23920382755E+03  0.12509104554E+03 0.  0.
         23    2    1    2    0    0 -0.46280672579E+02  0.39235970602E+02  0.17210640624E+02  0.11177006748E+03  0.92276648127E+02 0.  0.
          5    1    3    3  502    0  0.82953287752E+02 -0.19475488142E+01  0.92277643324E+02  0.12416793770E+03  0.41800000000E+01 0. -1.
         -5    1    3    3    0  502 -0.36672615173E+02 -0.37288421788E+02  0.10237419817E+03  0.11503588985E+03  0.41800000000E+01 0. -1.
        -11    1    4    4    0    0 -0.48912157103E+02  0.22418607370E+02 -0.29986667757E+02  0.61597023565E+02  0.00000000000E+00 0.  1.
         11    1    4    4    0    0  0.26314845243E+01  0.16817363232E+02  0.47197308382E+02  0.50173043911E+02  0.00000000000E+00 0. -1.
</event>
<event>
 8    1  0.7103328E-009  0.1091360E+03  0.7561462E-02  0.1262178E+00
         -2   -1    0    0    0  501 -0.00000000000E+00  0.00000000000E+00  0.26012387244E+03  0.26012387244E+03  0.00000000000E+00 0.  1.
          2   -1    0    0  501    0  0.00000000000E+00 -0.00000000000E+00 -0.97006207963E+02  0.97006207963E+02  0.00000000000E+00 0. -1.
         25    2    1    2    0    0  0.98401485904E+02  0.48452483047E+01  0.18830801295E+02  0.16033740544E+03  0.12508859120E+03 0.  0.
         23    2    1    2    0    0 -0.98401485904E+02 -0.48452483047E+01  0.14428686318E+03  0.19679267496E+03  0.90566711168E+02 0.  0.
          5    1    3    3  502    0  0.47186013022E+02 -0.31132657676E+02 -0.43844770927E+02  0.71663090476E+02  0.41800000000E+01 0.  1.
         -5    1    3    3    0  502  0.51215472882E+02  0.35977905981E+02  0.62675572223E+02  0.88674314966E+02  0.41800000000E+01 0.  1.
        -11    1    4    4    0    0 -0.61751511893E+02  0.91203685034E+00  0.16778625266E+02  0.63996900691E+02  0.00000000000E+00 0. -1.
         11    1    4    4    0    0 -0.36649974011E+02 -0.57572851550E+01  0.12750823791E+03  0.13279577427E+03  0.00000000000E+00 0.  1.
</event>
<event>
 8    1  0.7103328E-009  0.9230769E+02  0.7561462E-02  0.1297358E+00
         -2   -1    0    0    0  501 -0.00000000000E+00  0.00000000000E+00  0.17232509889E+03  0.17232509889E+03  0.00000000000E+00 0.  1.
          2   -1    0    0  501    0  0.00000000000E+00 -0.00000000000E+00 -0.99214859741E+02  0.99214859741E+02  0.00000000000E+00 0. -1.
         25    2    1    2    0    0 -0.17838931063E+02  0.69090158388E+02  0.22033741695E+02  0.14569043530E+03  0.12509412343E+03 0.  0.
         23    2    1    2    0    0  0.17838931063E+02 -0.69090158388E+02  0.51076497456E+02  0.12584952333E+03  0.90208738398E+02 0.  0.
          5    1    3    3  502    0 -0.35844936128E+02  0.68671433223E+02 -0.35460130836E+02  0.85296649793E+02  0.41800000000E+01 0. -1.
         -5    1    3    3    0  502  0.18006005065E+02  0.41872516447E+00  0.57493872531E+02  0.60393785506E+02  0.41800000000E+01 0. -1.
        -11    1    4    4    0    0 -0.84073965742E+01 -0.60280625596E+02 -0.72417293886E+01  0.61293399187E+02  0.00000000000E+00 0. -1.
         11    1    4    4    0    0  0.26246327637E+02 -0.88095327919E+01  0.58318226845E+02  0.64556124146E+02  0.00000000000E+00 0.  1.
</event>
<event>
 8    1  0.7103328E-009  0.1122334E+03  0.7561462E-02  0.1256489E+00
          2   -1    0    0  501    0  0.00000000000E+00  0.00000000000E+00  0.18602229666E+02  0.18602229666E+02  0.00000000000E+00 0. -1.
         -2   -1    0    0    0  501 -0.00000000000E+00 -0.00000000000E+00 -0.72964546816E+03  0.72964546816E+03  0.00000000000E+00 0.  1.
         25    2    1    2    0    0  0.37389674820E+02 -0.23276497835E+02 -0.40907148502E+03  0.43002874653E+03  0.12508181263E+03 0.  0.
         23    2    1    2    0    0 -0.37389674820E+02  0.23276497835E+02 -0.30197175348E+03  0.31821895130E+03  0.90202981847E+02 0.  0.
          5    1    3    3  502    0 -0.25645693467E+02  0.35610555385E+02 -0.10372540651E+03  0.11270423951E+03  0.41800000000E+01 0.  1.
         -5    1    3    3    0  502  0.63035368287E+02 -0.58887053219E+02 -0.30534607851E+03  0.31732450702E+03  0.41800000000E+01 0.  1.
        -11    1    4    4    0    0  0.68879398648E+00 -0.29186865632E+02 -0.15289512836E+03  0.15565753383E+03  0.00000000000E+00 0.  1.
         11    1    4    4    0    0 -0.38078468806E+02  0.52463363467E+02 -0.14907662512E+03  0.16256141747E+03  0.00000000000E+00 0. -1.
</event>
<event>
 8    1  0.7103328E-009  0.1213075E+03  0.7561462E-02  0.1240956E+00
          1   -1    0    0  501    0  0.00000000000E+00  0.00000000000E+00  0.45414975069E+03  0.45414975069E+03  0.00000000000E+00 0. -1.
         -1   -1    0    0    0  501 -0.00000000000E+00 -0.00000000000E+00 -0.50575791145E+02  0.50575791145E+02  0.00000000000E+00 0.  1.
         25    2    1    2    0    0  0.68504445209E+02  0.76362414501E+02  0.25994218439E+03  0.30617066047E+03  0.12508579753E+03 0.  0.
         23    2    1    2    0    0 -0.68504445209E+02 -0.76362414501E+02  0.14363177516E+03  0.19855488137E+03  0.90938862530E+02 0.  0.
          5    1    3    3  502    0  0.57843710504E+02  0.78589108575E+02  0.27223387139E+03  0.28922464619E+03  0.41800000000E+01 0. -1.
         -5    1    3    3    0  502  0.10660734706E+02 -0.22266940738E+01 -0.12291686994E+02  0.16946014285E+02  0.41800000000E+01 0. -1.
        -11    1    4    4    0    0 -0.34653011672E+02  0.13547584544E+02  0.20839366981E+02  0.42645603303E+02  0.00000000000E+00 0.  1.
         11    1    4    4    0    0 -0.33851433538E+02 -0.89909999046E+02  0.12279240818E+03  0.15590927806E+03  0.00000000000E+00 0. -1.
</event>
<event>
 8    1  0.7103328E-009  0.1406710E+03  0.7561462E-02  0.1212429E+00
          1   -1    0    0  501    0  0.00000000000E+00  0.00000000000E+00  0.27407999427E+03  0.27407999427E+03  0.00000000000E+00 0. -1.
         -1   -1    0    0    0  501 -0.00000000000E+00 -0.00000000000E+00 -0.85495342261E+02  0.85495342261E+02  0.00000000000E+00 0.  1.
         25    2    1    2    0    0  0.21644456128E+02 -0.10558788667E+03  0.11183729146E+03  0.19943057663E+03  0.12509073044E+03 0.  0.
         23    2    1    2    0    0 -0.21644456128E+02  0.10558788667E+03  0.76747360552E+02  0.16014475990E+03  0.90215866005E+02 0.  0.
          5    1    3    3  502    0 -0.36811850870E+02 -0.21675925748E+02 -0.60091119080E+01  0.43342126706E+02  0.41800000000E+01 0.  1.
         -5    1    3    3    0  502  0.58456306999E+02 -0.83911960924E+02  0.11784640337E+03  0.15608844993E+03  0.41800000000E+01 0.  1.
        -11    1    4    4    0    0 -0.19577683817E+02 -0.89386587683E+01 -0.12621845664E+01  0.21558720604E+02  0.00000000000E+00 0. -1.
         11    1    4    4    0    0 -0.20667723112E+01  0.11452654544E+03  0.78009545119E+02  0.13858603930E+03  0.00000000000E+00 0.  1.
</event>
<event>
 8    1  0.7103328E-009  0.1085182E+03  0.7561462E-02  0.1263339E+00
          3   -1    0    0  501    0  0.00000000000E+00  0.00000000000E+00  0.21158977857E+03  0.21158977857E+03  0.00000000000E+00 0. -1.
         -3   -1    0    0    0  501 -0.00000000000E+00 -0.00000000000E+00 -0.65550173715E+02  0.65550173715E+02  0.00000000000E+00 0.  1.
         25    2    1    2    0    0  0.11048393076E+02 -0.40524337218E+02  0.10646013064E+03  0.16954379787E+03  0.12508817323E+03 0.  0.
         23    2    1    2    0    0 -0.11048393076E+02  0.40524337218E+02  0.39579474211E+02  0.10759615442E+03  0.90808087580E+02 0.  0.
          5    1    3    3  502    0  0.44513288487E+02 -0.64530281106E+02  0.10079701386E+03  0.12776188960E+03  0.41800000000E+01 0.  1.
         -5    1    3    3    0  502 -0.33464895411E+02  0.24005943888E+02  0.56631167874E+01  0.41781908269E+02  0.41800000000E+01 0.  1.
        -11    1    4    4    0    0 -0.39192771267E+02  0.53355665254E+02  0.14494815221E+02  0.67771675518E+02  0.00000000000E+00 0. -1.
         11    1    4    4    0    0  0.28144378191E+02 -0.12831328036E+02  0.25084658990E+02  0.39824478898E+02  0.00000000000E+00 0.  1.
</event>
<event>
 8    1  0.7103328E-009  0.1862128E+03  0.7561462E-02  0.1161922E+00
          1   -1    0    0  501    0  0.00000000000E+00  0.00000000000E+00  0.93236643423E+02  0.93236643423E+02  0.00000000000E+00 0. -1.
         -1   -1    0    0    0  501 -0.00000000000E+00 -0.00000000000E+00 -0.39739128283E+03  0.39739128283E+03  0.00000000000E+00 0.  1.
         25    2    1    2    0    0 -0.81682985088E+02  0.13245092908E+03 -0.19795613552E+03  0.28115523167E+03  0.12508506722E+03 0.  0.
         23    2    1    2    0    0  0.81682985088E+02 -0.13245092908E+03 -0.10619850389E+03  0.20947269458E+03  0.91571441397E+02 0.  0.
          5    1    3    3  502    0  0.31908784476E+02  0.13332842795E+02 -0.30275141800E+02  0.46151834576E+02  0.41800000000E+01 0.  1.
         -5    1    3    3    0  502 -0.11359176956E+03  0.11911808629E+03 -0.16768099372E+03  0.23500339710E+03  0.41800000000E+01 0.  1.
        -11    1    4    4    0    0  0.58270414453E+02 -0.25757710338E+02 -0.69400930888E+02  0.94209288557E+02  0.00000000000E+00 0. -1.
         11    1    4    4    0    0  0.23412570634E+02 -0.10669321874E+03 -0.36797573002E+02  0.11526340602E+03  0.00000000000E+00 0.  1.
</event>
<event>
 8    1  0.7103328E-009  0.1934985E+03  0.7561462E-02  0.1155343E+00
          2   -1    0    0  501    0  0.00000000000E+00  0.00000000000E+00  0.21275830285E+03  0.21275830285E+03  0.00000000000E+00 0. -1.
         -2   -1    0    0    0  501 -0.00000000000E+00 -0.00000000000E+00 -0.25496495495E+03  0.25496495495E+03  0.00000000000E+00 0.  1.
         25    2    1    2    0    0  0.12588116137E+03 -0.13418896446E+03  0.70601525137E+02  0.23342275704E+03  0.12509541631E+03 0.  0.
         23    2    1    2    0    0 -0.12588116137E+03  0.13418896446E+03 -0.11280817724E+03  0.23430050075E+03  0.91204686448E+02 0.  0.
          5    1    3    3  502    0  0.11214325234E+03 -0.13294478990E+03  0.13465844212E+02  0.17449707037E+03  0.41800000000E+01 0. -1.
         -5    1    3    3    0  502  0.13737909034E+02 -0.12441745567E+01  0.57135680925E+02  0.58925686672E+02  0.41800000000E+01 0. -1.
        -11    1    4    4    0    0 -0.34292645646E+02  0.91193911388E+02 -0.25625665355E+02  0.10074219446E+03  0.00000000000E+00 0.  1.
         11    1    4    4    0    0 -0.91588515727E+02  0.42995053070E+02 -0.87182511882E+02  0.13355830629E+03  0.00000000000E+00 0. -1.
</event>
<event>
 8    1  0.7103328E-009  0.9778125E+02  0.7561462E-02  0.1285032E+00
          2   -1    0    0  501    0  0.00000000000E+00  0.00000000000E+00  0.34867379226E+03  0.34867379226E+03  0.00000000000E+00 0. -1.
         -2   -1    0    0    0  501 -0.00000000000E+00 -0.00000000000E+00 -0.39345734504E+02  0.39345734504E+02  0.00000000000E+00 0.  1.
         25    2    1    2    0    0 -0.20077053463E+02 -0.12475140405E+02  0.10808867757E+03  0.16700039639E+03  0.12508898021E+03 0.  0.
         23    2    1    2    0    0  0.20077053463E+02  0.12475140405E+02  0.20123938019E+03  0.22101913038E+03  0.88280522488E+02 0.  0.
          5    1    3    3  502    0 -0.58151031712E+02  0.30059481985E+02  0.79351361171E+02  0.10295254181E+03  0.41800000000E+01 0.  1.
         -5    1    3    3    0  502  0.38073978249E+02 -0.42534622390E+02  0.28737316397E+02  0.64047854572E+02  0.41800000000E+01 0.  1.
        -11    1    4    4    0    0 -0.18517256328E+02 -0.16235863410E+02  0.15378098339E+02  0.29034082577E+02  0.00000000000E+00 0.  1.
         11    1    4    4    0    0  0.38594309791E+02  0.28711003815E+02  0.18586128185E+03  0.19198504780E+03  0.00000000000E+00 0. -1.
</event>
<event>
 8    1  0.7103328E-009  0.1095322E+03  0.7561462E-02  0.1261439E+00
         -3   -1    0    0    0  501 -0.00000000000E+00  0.00000000000E+00  0.19326775796E+02  0.19326775796E+02  0.00000000000E+00 0.  1.
          3   -1    0    0  501    0  0.00000000000E+00 -0.00000000000E+00 -0.88021889287E+03  0.88021889287E+03  0.00000000000E+00 0. -1.
         25    2    1    2    0    0 -0.41156305454E+02  0.14630333150E+02 -0.64445335529E+03  0.65793618362E+03  0.12510797914E+03 0.  0.
         23    2    1    2    0    0  0.41156305454E+02 -0.14630333150E+02 -0.21643876178E+03  0.24160948505E+03  0.98089334463E+02 0.  0.
          5    1    3    3  502    0 -0.73511716798E+02 -0.71976342088E+01 -0.22948337788E+03  0.24111381455E+03  0.41800000000E+01 0.  1.
         -5    1    3    3    0  502  0.32355411344E+02  0.21827967359E+02 -0.41496997741E+03  0.41682236907E+03  0.41800000000E+01 0.  1.
        -11    1    4    4    0    0 -0.71975569328E+01 -0.47060547156E+02 -0.77354914361E+02  0.90831066823E+02  0.00000000000E+00 0.  1.
         11    1    4    4    0    0  0.48353862387E+02  0.32430214006E+02 -0.13908384742E+03  0.15077841822E+03  0.00000000000E+00 0. -1.
</event>
<event>
 8    1  0.7103328E-009  0.1394817E+03  0.7561462E-02  0.1214028E+00
         -1   -1    0    0    0  501 -0.00000000000E+00  0.00000000000E+00  0.97295638305E+02  0.97295638305E+02  0.00000000000E+00 0.  1.
          1   -1    0    0  501    0  0.00000000000E+00 -0.00000000000E+00 -0.25285855230E+03  0.25285855230E+03  0.00000000000E+00 0. -1.
         25    2    1    2    0    0 -0.42436611749E+02 -0.92178194393E+02 -0.29000129433E+02  0.16366394912E+03  0.12508874928E+03 0.  0.
         23    2    1    2    0    0  0.42436611749E+02  0.92178194393E+02 -0.12656278456E+03  0.18649024148E+03  0.91993402993E+02 0.  0.
          5    1    3    3  502    0 -0.13199934319E+01  0.24815507409E+02  0.18014486343E+02  0.30976538038E+02  0.41800000000E+01 0.  1.
         -5    1    3    3    0  502 -0.41116618317E+02 -0.11699370180E+03 -0.47014615776E+02  0.13268741108E+03  0.41800000000E+01 0.  1.
        -11    1    4    4    0    0 -0.74068465773E+01  0.77319987860E+02 -0.45035955113E+02  0.89785740248E+02  0.00000000000E+00 0. -1.
         11    1    4    4    0    0  0.49843458327E+02  0.14858206532E+02 -0.81526829445E+02  0.96704501233E+02  0.00000000000E+00 0.  1.
</event>
<event>
 8    1  0.7103328E-009  0.8626101E+02  0.7561462E-02  0.1312167E+00
         -3   -1    0    0    0  501 -0.00000000000E+00  0.00000000000E+00  0.34806493061E+03  0.34806493061E+03  0.00000000000E+00 0.  1.
          3   -1    0    0  501    0  0.00000000000E+00 -0.00000000000E+00 -0.43977034762E+02  0.43977034762E+02  0.00000000000E+00 0. -1.
         25    2    1    2    0    0 -0.22365889411E+02  0.54787376652E+02  0.18607429333E+03  0.23189094998E+03  0.12509148810E+03 0.  0.
         23    2    1    2    0    0  0.22365889411E+02 -0.54787376652E+02  0.11801360251E+03  0.16015101539E+03  0.90660066745E+02 0.  0.
          5    1    3    3  502    0  0.96441567915E+01  0.16490961854E+01 -0.16698442495E+02  0.19799991419E+02  0.41800000000E+01 0.  1.
         -5    1    3    3    0  502 -0.32010046203E+02  0.53138280466E+02  0.20277273583E+03  0.21209095856E+03  0.41800000000E+01 0.  1.
        -11    1    4    4    0    0  0.77736654582E+00 -0.72056781366E+02  0.52845193273E+02  0.89361056908E+02  0.00000000000E+00 0. -1.
         11    1    4    4    0    0  0.21588522866E+02  0.17269404715E+02  0.65168409240E+02  0.70789958480E+02  0.00000000000E+00 0.  1.
</event>
<event>
 8    1  0.7103328E-009  0.9936382E+02  0.7561462E-02  0.1281639E+00
         -1   -1    0    0    0  501 -0.00000000000E+00  0.00000000000E+00  0.14637958145E+03  0.14637958145E+03  0.00000000000E+00 0.  1.
          1   -1    0    0  501    0  0.00000000000E+00 -0.00000000000E+00 -0.10292625191E+03  0.10292625191E+03  0.00000000000E+00 0. -1.
         25    2    1    2    0    0  0.38305842301E+02  0.19006985851E+01  0.66855301151E+02  0.14693090444E+03  0.12509240256E+03 0.  0.
         23    2    1    2    0    0 -0.38305842301E+02 -0.19006985851E+01 -0.23401971610E+02  0.10237492892E+03  0.91989257995E+02 0.  0.
          5    1    3    3  502    0 -0.25674041033E+02  0.42997301762E+02  0.45613345284E+02  0.67867326526E+02  0.41800000000E+01 0.  1.
         -5    1    3    3    0  502  0.63979883334E+02 -0.41096603177E+02  0.21241955867E+02  0.79063577918E+02  0.41800000000E+01 0.  1.
        -11    1    4    4    0    0 -0.22488559205E+02 -0.31531500392E+02 -0.47314320526E+02  0.61144220814E+02  0.00000000000E+00 0. -1.
         11    1    4    4    0    0 -0.15817283096E+02  0.29630801807E+02  0.23912348916E+02  0.41230708106E+02  0.00000000000E+00 0.  1.
</event>
<event>
 8    1  0.7103328E-009  0.1253036E+03  0.7561462E-02  0.1234596E+00
          2   -1    0    0  501    0  0.00000000000E+00  0.00000000000E+00  0.19962988686E+03  0.19962988686E+03  0.00000000000E+00 0. -1.
         -2   -1    0    0    0  501 -0.00000000000E+00 -0.00000000000E+00 -0.94599267644E+02  0.94599267644E+02  0.00000000000E+00 0.  1.
         25    2    1    2    0    0  0.17802494489E+02  0.82763565604E+02  0.59569105006E+02  0.16236729314E+03  0.12509165843E+03 0.  0.
         23    2    1    2    0    0 -0.17802494489E+02 -0.82763565604E+02  0.45461514211E+02  0.13186186137E+03  0.90299859397E+02 0.  0.
          5    1    3    3  502    0  0.48957217693E+02  0.85685345409E+02  0.77958549957E+02  0.12583241035E+03  0.41800000000E+01 0. -1.
         -5    1    3    3    0  502 -0.31154723204E+02 -0.29217798049E+01 -0.18389444950E+02  0.36534882793E+02  0.41800000000E+01 0. -1.
        -11    1    4    4    0    0  0.13459735268E+01 -0.96619090579E+02  0.23158808274E+02  0.99364937023E+02  0.00000000000E+00 0.  1.
         11    1    4    4    0    0 -0.19148468016E+02  0.13855524974E+02  0.22302705937E+02  0.32496924343E+02  0.00000000000E+00 0. -1.
</event>
<event>
 8    1  0.7103328E-009  0.1177662E+03  0.7561462E-02  0.1246828E+00
          2   -1    0    0  501    0  0.00000000000E+00  0.00000000000E+00  0.16555284274E+04  0.16555284274E+04  0.00000000000E+00 0. -1.
         -2   -1    0    0    0  501 -0.00000000000E+00 -0.00000000000E+00 -0.16476870079E+02  0.16476870079E+02  0.00000000000E+00 0.  1.
         25    2    1    2    0    0 -0.11935804794E+02 -0.68452169789E+02  0.13974053825E+04  0.14047124269E+04  0.12508811361E+03 0.  0.
         23    2    1    2    0    0  0.11935804794E+02  0.68452169789E+02  0.24164617485E+03  0.26729287064E+03  0.90688708732E+02 0.  0.
          5    1    3    3  502    0 -0.60441080691E+02 -0.48382655370E+01  0.48402032563E+03  0.48782136184E+03  0.41800000000E+01 0. -1.
         -5    1    3    3    0  502  0.48505275897E+02 -0.63613904252E+02  0.91338505686E+03  0.91689106502E+03  0.41800000000E+01 0. -1.
        -11    1    4    4    0    0  0.38637862245E+02  0.41759156856E+02  0.63794566554E+02  0.85477823451E+02  0.00000000000E+00 0.  1.
         11    1    4    4    0    0 -0.26702057450E+02  0.26693012933E+02  0.17785160829E+03  0.18181504719E+03  0.00000000000E+00 0. -1.
</event>
<event>
 8    1  0.7103328E-009  0.1070584E+03  0.7561462E-02  0.1266116E+00
          1   -1    0    0  501    0  0.00000000000E+00  0.00000000000E+00  0.31120235442E+03  0.31120235442E+03  0.00000000000E+00 0. -1.
         -1   -1    0    0    0  501 -0.00000000000E+00 -0.00000000000E+00 -0.47417581449E+02  0.47417581449E+02  0.00000000000E+00 0.  1.
         25    2    1    2    0    0  0.21855249767E+02  0.29082389611E+02  0.87421181886E+02  0.15688366005E+03  0.12508629989E+03 0.  0.
         23    2    1    2    0    0 -0.21855249767E+02 -0.29082389611E+02  0.17636359109E+03  0.20173627583E+03  0.90939383076E+02 0.  0.
          5    1    3    3  502    0  0.63245256006E+02  0.46656435819E+02  0.30937432996E+02  0.84565847545E+02  0.41800000000E+01 0.  1.
         -5    1    3    3    0  502 -0.41390006239E+02 -0.17574046208E+02  0.56483748890E+02  0.72317812503E+02  0.41800000000E+01 0.  1.
        -11    1    4    4    0    0 -0.19621854665E+02 -0.58010222533E+02  0.77911420140E+02  0.99097893454E+02  0.00000000000E+00 0.  1.
         11    1    4    4    0    0 -0.22333951023E+01  0.28927832922E+02  0.98452170949E+02  0.10263838237E+03  0.00000000000E+00 0. -1.
</event>
<event>
 8    1  0.7103328E-009  0.1447907E+03  0.7561462E-02  0.1207024E+00
          1   -1    0    0  501    0  0.00000000000E+00  0.00000000000E+00  0.36194213763E+03  0.36194213763E+03  0.00000000000E+00 0. -1.
         -1   -1    0    0    0  501 -0.00000000000E+00 -0.00000000000E+00 -0.80235924297E+02  0.80235924297E+02  0.00000000000E+00 0.  1.
         25    2    1    2    0    0 -0.10117337504E+03 -0.53274556860E+02  0.22765576351E+03  0.28381036446E+03  0.12508775355E+03 0.  0.
         23    2    1    2    0    0  0.10117337504E+03  0.53274556860E+02  0.54050449820E+02  0.15836769747E+03  0.95313410646E+02 0.  0.
          5    1    3    3  502    0 -0.15105069992E+02 -0.52301329220E+02  0.17383778003E+03  0.18221042326E+03  0.41800000000E+01 0.  1.
         -5    1    3    3    0  502 -0.86068305052E+02 -0.97322764019E+00  0.53817983485E+02  0.10159994121E+03  0.41800000000E+01 0.  1.
        -11    1    4    4    0    0  0.12954840642E+02 -0.26736160924E+02  0.91353430634E+01  0.31082224661E+02  0.00000000000E+00 0.  1.
         11    1    4    4    0    0  0.88218534403E+02  0.80010717785E+02  0.44915106757E+02  0.12728547281E+03  0.00000000000E+00 0. -1.
</event>
<event>
 8    1  0.7103328E-009  0.1588938E+03  0.7561462E-02  0.1189951E+00
          1   -1    0    0  501    0  0.00000000000E+00  0.00000000000E+00  0.22722223997E+03  0.22722223997E+03  0.00000000000E+00 0. -1.
         -1   -1    0    0    0  501 -0.00000000000E+00 -0.00000000000E+00 -0.13739051235E+03  0.13739051235E+03  0.00000000000E+00 0.  1.
         25    2    1    2    0    0  0.56106270633E+02  0.12216583042E+03  0.13132636547E+02  0.18409884752E+03  0.12509003073E+03 0.  0.
         23    2    1    2    0    0 -0.56106270633E+02 -0.12216583042E+03  0.76699091071E+02  0.18051390480E+03  0.92898415105E+02 0.  0.
          5    1    3    3  502    0  0.39146338000E+02  0.12980651095E+03  0.48388851459E+02  0.14401777463E+03  0.41800000000E+01 0. -1.
         -5    1    3    3    0  502  0.16959932633E+02 -0.76406805314E+01 -0.35256214912E+02  0.40081072887E+02  0.41800000000E+01 0. -1.
        -11    1    4    4    0    0  0.12264423435E+02 -0.83769377000E+02  0.45560039745E+02  0.96142819944E+02  0.00000000000E+00 0. -1.
         11    1    4    4    0    0 -0.68370694068E+02 -0.38396453421E+02  0.31139051325E+02  0.84371084858E+02  0.00000000000E+00 0.  1.
</event>
<event>
 8    1  0.7103328E-009  0.1238980E+03  0.7561462E-02  0.1236802E+00
          4   -1    0    0  501    0  0.00000000000E+00  0.00000000000E+00  0.12376910156E+03  0.12376910156E+03  0.00000000000E+00 0.  1.
         -4   -1    0    0    0  501 -0.00000000000E+00 -0.00000000000E+00 -0.17917898080E+03  0.17917898080E+03  0.00000000000E+00 0. -1.
         25    2    1    2    0    0  0.45472837658E+02 -0.87852325052E+02 -0.51211785745E+02  0.16749909626E+03  0.12508992872E+03 0.  0.
         23    2    1    2    0    0 -0.45472837658E+02  0.87852325052E+02 -0.41980934968E+01  0.13544898610E+03  0.92428317445E+02 0.  0.
          5    1    3    3  502    0  0.35122638927E+02 -0.10398664082E+03  0.29667823505E+01  0.10987763845E+03  0.41800000000E+01 0. -1.
         -5    1    3    3    0  502  0.10350198731E+02  0.16134315769E+02 -0.54178568096E+02  0.57621457809E+02  0.41800000000E+01 0. -1.
        -11    1    4    4    0    0  0.95727812110E+01  0.51479250652E+02  0.30815515515E+02  0.60756459610E+02  0.00000000000E+00 0.  1.
         11    1    4    4    0    0 -0.55045618869E+02  0.36373074400E+02 -0.35013609012E+02  0.74692526494E+02  0.00000000000E+00 0. -1.
</event>
<event>
 8    1  0.7103328E-009  0.1137943E+03  0.7561462E-02  0.1253701E+00
          1   -1    0    0  501    0  0.00000000000E+00  0.00000000000E+00  0.31520832665E+02  0.31520832665E+02  0.00000000000E+00 0. -1.
         -1   -1    0    0    0  501 -0.00000000000E+00 -0.00000000000E+00 -0.44873101575E+03  0.44873101575E+03  0.00000000000E+00 0.  1.
         25    2    1    2    0    0  0.41685940872E+02 -0.25048692263E+02 -0.25650508091E+03  0.28948898104E+03  0.12507541308E+03 0.  0.
         23    2    1    2    0    0 -0.41685940872E+02  0.25048692263E+02 -0.16070510218E+03  0.19076286738E+03  0.90549362535E+02 0.  0.
          5    1    3    3  502    0  0.73730588835E+02 -0.48637550190E+02 -0.21166847359E+03  0.22939665676E+03  0.41800000000E+01 0.  1.
         -5    1    3    3    0  502 -0.32044647964E+02  0.23588857928E+02 -0.44836607318E+02  0.60092324279E+02  0.41800000000E+01 0.  1.
        -11    1    4    4    0    0  0.19174537611E+02 -0.16635604807E+02 -0.66034690088E+02  0.70745929458E+02  0.00000000000E+00 0. -1.
         11    1    4    4    0    0 -0.60860478483E+02  0.41684297070E+02 -0.94670412092E+02  0.12001693793E+03  0.00000000000E+00 0.  1.
</event>
<event>
 8    1  0.7103328E-009  0.8900054E+02  0.7561462E-02  0.1305290E+00
         -1   -1    0    0    0  501 -0.00000000000E+00  0.00000000000E+00  0.36706647020E+02  0.36706647020E+02  0.00000000000E+00 0.  1.
          1   -1    0    0  501    0  0.00000000000E+00 -0.00000000000E+00 -0.51272103788E+03  0.51272103788E+03  0.00000000000E+00 0. -1.
         25    2    1    2    0    0 -0.61842479121E+02  0.41023969266E+02 -0.35009895790E+03  0.37911210392E+03  0.12509695733E+03 0.  0.
         23    2    1    2    0    0  0.61842479121E+02 -0.41023969266E+02 -0.12591543296E+03  0.17031558099E+03  0.87437077899E+02 0.  0.
          5    1    3    3  502    0  0.16392031770E+02  0.57398717134E+01  0.76482872533E+00  0.17880218002E+02  0.41800000000E+01 0.  1.
         -5    1    3    3    0  502 -0.78234510890E+02  0.35284097552E+02 -0.35086378663E+03  0.36123188591E+03  0.41800000000E+01 0.  1.
        -11    1    4    4    0    0  0.41791891415E+02 -0.27644198695E+02 -0.89604646423E+01  0.50902395191E+02  0.00000000000E+00 0.  1.
         11    1    4    4    0    0  0.20050587706E+02 -0.13379770570E+02 -0.11695496832E+03  0.11941318580E+03  0.00000000000E+00 0. -1.
</event>
<event>
 8    1  0.7103328E-009  0.1378567E+03  0.7561462E-02  0.1216242E+00
          2   -1    0    0  501    0  0.00000000000E+00  0.00000000000E+00  0.25183646401E+03  0.25183646401E+03  0.00000000000E+00 0. -1.
         -2   -1    0    0    0  501 -0.00000000000E+00 -0.00000000000E+00 -0.98712984541E+02  0.98712984541E+02  0.00000000000E+00 0.  1.
         25    2    1    2    0    0  0.10374461636E+03  0.25860256746E+02  0.12065286020E+03  0.20404948324E+03  0.12508949049E+03 0.  0.
         23    2    1    2    0    0 -0.10374461636E+03 -0.25860256746E+02  0.32470619263E+02  0.14649996531E+03  0.94742811959E+02 0.  0.
          5    1    3    3  502    0  0.12009592703E+03  0.51300316026E+02  0.11257807591E+03  0.17247043135E+03  0.41800000000E+01 0.  1.
         -5    1    3    3    0  502 -0.16351310672E+02 -0.25440059280E+02  0.80747842936E+01  0.31579051889E+02  0.41800000000E+01 0.  1.
        -11    1    4    4    0    0 -0.86090160083E+02 -0.36717190230E+01  0.61543133034E+02  0.10588934983E+03  0.00000000000E+00 0. -1.
         11    1    4    4    0    0 -0.17654456278E+02 -0.22188537723E+02 -0.29072513771E+02  0.40610615481E+02  0.00000000000E+00 0.  1.
</event>
<event>
 8    1  0.7103328E-009  0.1220431E+03  0.7561462E-02  0.1239764E+00
          1   -1    0    0  501    0  0.00000000000E+00  0.00000000000E+00  0.58594570024E+02  0.58594570024E+02  0.00000000000E+00 0.  1.
         -1   -1    0    0    0  501 -0.00000000000E+00 -0.00000000000E+00 -0.44594539777E+03  0.44594539777E+03  0.00000000000E+00 0. -1.
         25    2    1    2    0    0  0.63193882523E+02  0.64182581557E+02 -0.32691002555E+03  0.36142740800E+03  0.12508691333E+03 0.  0.
         23    2    1    2    0    0 -0.63193882523E+02 -0.64182581557E+02 -0.60440802193E+02  0.14311255979E+03  0.93355469236E+02 0.  0.
          5    1    3    3  502    0 -0.45768509092E+00 -0.27901236863E+02 -0.14555990987E+03  0.14826951222E+03  0.41800000000E+01 0. -1.
         -5    1    3    3    0  502  0.63651567614E+02  0.92083818420E+02 -0.18135011568E+03  0.21315789578E+03  0.41800000000E+01 0. -1.
        -11    1    4    4    0    0 -0.19134737923E+02 -0.55814619210E+02  0.97643244964E+01  0.59805952428E+02  0.00000000000E+00 0.  1.
         11    1    4    4    0    0 -0.44059144600E+02 -0.83679623468E+01 -0.70205126689E+02  0.83306607362E+02  0.00000000000E+00 0. -1.
</event>
<event>
 8    1  0.7103328E-009  0.1705972E+03  0.7561462E-02  0.1177226E+00
         -1   -1    0    0    0  501 -0.00000000000E+00  0.00000000000E+00  0.41007348565E+02  0.41007348565E+02  0.00000000000E+00 0.  1.
          1   -1    0    0  501    0  0.00000000000E+00 -0.00000000000E+00 -0.75229294069E+03  0.75229294069E+03  0.00000000000E+00 0. -1.
         25    2    1    2    0    0  0.12834842749E+03  0.52341802040E+02 -0.37904709360E+03  0.42253666121E+03  0.12509015876E+03 0.  0.
         23    2    1    2    0    0 -0.12834842749E+03 -0.52341802040E+02 -0.33223849852E+03  0.37076362804E+03  0.88714513465E+02 0.  0.
          5    1    3    3  502    0  0.55116558945E+02  0.85223749235E+02 -0.16346493478E+03  0.19245565672E+03  0.41800000000E+01 0.  1.
         -5    1    3    3    0  502  0.73231868544E+02 -0.32881947195E+02 -0.21558215882E+03  0.23008100449E+03  0.41800000000E+01 0.  1.
        -11    1    4    4    0    0 -0.69915221591E+02  0.13492024755E+02 -0.10309980823E+03  0.12529861690E+03  0.00000000000E+00 0.  1.
         11    1    4    4    0    0 -0.58433205898E+02 -0.65833826795E+02 -0.22913869029E+03  0.24546501114E+03  0.00000000000E+00 0. -1.
</event>
<event>
 8    1  0.7103328E-009  0.7516171E+02  0.7561462E-02  0.1343371E+00
         -1   -1    0    0    0  501 -0.00000000000E+00  0.00000000000E+00  0.51492841240E+02  0.51492841240E+02  0.00000000000E+00 0.  1.
          1   -1    0    0  501    0  0.00000000000E+00 -0.00000000000E+00 -0.25185224885E+03  0.25185224885E+03  0.00000000000E+00 0. -1.
         25    2    1    2    0    0  0.47660976727E+02 -0.55238750917E+01 -0.10755914995E+03  0.17180950993E+03  0.12508978801E+03 0.  0.
         23    2    1    2    0    0 -0.47660976727E+02  0.55238750917E+01 -0.92800257667E+02  0.13153558017E+03  0.79922707215E+02 0.  0.
          5    1    3    3  502    0  0.18778796810E+02 -0.19183621085E+02  0.24067951616E+02  0.36295911926E+02  0.41800000000E+01 0.  1.
         -5    1    3    3    0  502  0.28882179917E+02  0.13659745993E+02 -0.13162710156E+03  0.13551359800E+03  0.41800000000E+01 0.  1.
        -11    1    4    4    0    0 -0.65128651373E+02  0.20124540731E+02 -0.81085926748E+02  0.10593236468E+03  0.00000000000E+00 0.  1.
         11    1    4    4    0    0  0.17467674646E+02 -0.14600665639E+02 -0.11714330919E+02  0.25603215492E+02  0.00000000000E+00 0. -1.
</event>
<event>
 8    1  0.7103328E-009  0.1124085E+03  0.7561462E-02  0.1256174E+00
          1   -1    0    0  501    0  0.00000000000E+00  0.00000000000E+00  0.71169743139E+03  0.71169743139E+03  0.00000000000E+00 0. -1.
         -1   -1    0    0    0  501 -0.00000000000E+00 -0.00000000000E+00 -0.21761754821E+02  0.21761754821E+02  0.00000000000E+00 0.  1.
         25    2    1    2    0    0  0.57543168567E+02 -0.19412257660E+02  0.42374557527E+03  0.44597768108E+03  0.12509087684E+03 0.  0.
         23    2    1    2    0    0 -0.57543168567E+02  0.19412257660E+02  0.26619010130E+03  0.28748150513E+03  0.90002187544E+02 0.  0.
          5    1    3    3  502    0  0.72128668663E+02  0.19230460646E+02  0.37297494322E+03  0.38039471096E+03  0.41800000000E+01 0.  1.
         -5    1    3    3    0  502 -0.14585500096E+02 -0.38642718306E+02  0.50770632047E+02  0.65582970119E+02  0.41800000000E+01 0.  1.
        -11    1    4    4    0    0 -0.50819141504E+02 -0.29770305948E+02  0.14067300942E+03  0.15250492398E+03  0.00000000000E+00 0.  1.
         11    1    4    4    0    0 -0.67240270629E+01  0.49182563608E+02  0.12551709188E+03  0.13497658114E+03  0.00000000000E+00 0. -1.
</event>
<event>
 8    1  0.7103328E-009  0.1152002E+03  0.7561462E-02  0.1251232E+00
          3   -1    0    0  501    0  0.00000000000E+00  0.00000000000E+00  0.31868378122E+02  0.31868378122E+02  0.00000000000E+00 0. -1.
         -3   -1    0    0    0  501 -0.00000000000E+00 -0.00000000000E+00 -0.45538953633E+03  0.45538953633E+03  0.00000000000E+00 0.  1.
         25    2    1    2    0    0 -0.42880489080E+02 -0.15859820641E+02 -0.18842952032E+03  0.23074538655E+03  0.12508988382E+03 0.  0.
         23    2    1    2    0    0  0.42880489080E+02  0.15859820641E+02 -0.23509163790E+03  0.25651252790E+03  0.91871260514E+02 0.  0.
          5    1    3    3  502    0 -0.27448526477E+02  0.53233919094E+02 -0.10757375675E+03  0.12319438822E+03  0.41800000000E+01 0. -1.
         -5    1    3    3    0  502 -0.15431962603E+02 -0.69093739734E+02 -0.80855763569E+02  0.10755099833E+03  0.41800000000E+01 0. -1.
        -11    1    4    4    0    0  0.46310586292E+02 -0.28875214700E+02 -0.15984808405E+03  0.16890783996E+03  0.00000000000E+00 0.  1.
         11    1    4    4    0    0 -0.34300972126E+01  0.44735035340E+02 -0.75243553851E+02  0.87604687945E+02  0.00000000000E+00 0. -1.
</event>
<event>
 8    1  0.7103328E-009  0.9824314E+02  0.7561462E-02  0.1284034E+00
          2   -1    0    0  501    0  0.00000000000E+00  0.00000000000E+00  0.31774040979E+02  0.31774040979E+02  0.00000000000E+00 0. -1.
         -2   -1    0    0    0  501 -0.00000000000E+00 -0.00000000000E+00 -0.44584768276E+03  0.44584768276E+03  0.00000000000E+00 0.  1.
         25    2    1    2    0    0  0.19684941981E+02  0.21529025556E+02 -0.15323972433E+03  0.19995234737E+03  0.12509009643E+03 0.  0.
         23    2    1    2    0    0 -0.19684941981E+02 -0.21529025556E+02 -0.26083391745E+03  0.27766937636E+03  0.90636384498E+02 0.  0.
          5    1    3    3  502    0 -0.39787444423E+02  0.46774495071E+02 -0.56523827993E+02  0.83566199230E+02  0.41800000000E+01 0.  1.
         -5    1    3    3    0  502  0.59472386404E+02 -0.25245469514E+02 -0.96715896333E+02  0.11638614814E+03  0.41800000000E+01 0.  1.
        -11    1    4    4    0    0  0.12903069065E+02  0.15957573060E+02 -0.11680249652E+02  0.23612741501E+02  0.00000000000E+00 0. -1.
         11    1    4    4    0    0 -0.32588011046E+02 -0.37486598617E+02 -0.24915366780E+03  0.25405663486E+03  0.00000000000E+00 0.  1.
</event>
<event>
 8    1  0.7103328E-009  0.1582784E+03  0.7561462E-02  0.1190654E+00
         -1   -1    0    0    0  501 -0.00000000000E+00  0.00000000000E+00  0.11880512696E+03  0.11880512696E+03  0.00000000000E+00 0.  1.
          1   -1    0    0  501    0  0.00000000000E+00 -0.00000000000E+00 -0.25947485116E+03  0.25947485116E+03  0.00000000000E+00 0. -1.
         25    2    1    2    0    0 -0.13801272270E+03 -0.15326813567E+02 -0.91980768992E+02  0.20830442209E+03  0.12509135685E+03 0.  0.
         23    2    1    2    0    0  0.13801272270E+03  0.15326813567E+02 -0.48688955209E+02  0.16997555604E+03  0.85080270627E+02 0.  0.
          5    1    3    3  502    0  0.93370816940E+01  0.22000929548E+02 -0.41518397854E+02  0.48088166485E+02  0.41800000000E+01 0. -1.
         -5    1    3    3    0  502 -0.14734980439E+03 -0.37327743114E+02 -0.50462371138E+02  0.16021625561E+03  0.41800000000E+01 0. -1.
        -11    1    4    4    0    0  0.31779358733E+02  0.11928309820E+02 -0.53745966594E+02  0.63567610792E+02  0.00000000000E+00 0. -1.
         11    1    4    4    0    0  0.10623336396E+03  0.33985037466E+01  0.50570113855E+01  0.10640794524E+03  0.00000000000E+00 0.  1.
</event>
<event>
 8    1  0.7103328E-009  0.1071163E+03  0.7561462E-02  0.1266005E+00
          1   -1    0    0  501    0  0.00000000000E+00  0.00000000000E+00  0.15792573104E+03  0.15792573104E+03  0.00000000000E+00 0. -1.
         -1   -1    0    0    0  501 -0.00000000000E+00 -0.00000000000E+00 -0.93116799223E+02  0.93116799223E+02  0.00000000000E+00 0.  1.
         25    2    1    2    0    0 -0.35887522576E+02 -0.40777133826E+02  0.22798422184E+02  0.13826280773E+03  0.12508455951E+03 0.  0.
         23    2    1    2    0    0  0.35887522576E+02  0.40777133826E+02  0.42010509636E+02  0.11277972253E+03  0.89463366666E+02 0.  0.
          5    1    3    3  502    0 -0.69489195854E+02 -0.13232848823E+02  0.50095899100E+02  0.86780920340E+02  0.41800000000E+01 0.  1.
         -5    1    3    3    0  502  0.33601673278E+02 -0.27544285003E+02 -0.27297476916E+02  0.51481887391E+02  0.41800000000E+01 0.  1.
        -11    1    4    4    0    0 -0.24476245477E+02  0.29469626188E+02  0.33285962432E+02  0.50749391675E+02  0.00000000000E+00 0.  1.
         11    1    4    4    0    0  0.60363768054E+02  0.11307507638E+02  0.87245472036E+01  0.62030330859E+02  0.00000000000E+00 0. -1.
</event>
<event>
 8    1  0.7103328E-009  0.9966862E+02  0.7561462E-02  0.1280994E+00
         -2   -1    0    0    0  501 -0.00000000000E+00  0.00000000000E+00  0.40190833030E+02  0.40190833030E+02  0.00000000000E+00 0.  1.
          2   -1    0    0  501    0  0.00000000000E+00 -0.00000000000E+00 -0.53697049708E+03  0.53697049708E+03  0.00000000000E+00 0. -1.
         25    2    1    2    0    0  0.35318091562E+02 -0.53737711972E+02 -0.40323363434E+03  0.42706029284E+03  0.12509204843E+03 0.  0.
         23    2    1    2    0    0 -0.35318091562E+02  0.53737711972E+02 -0.93546029710E+02  0.15010103727E+03  0.98205663961E+02 0.  0.
          5    1    3    3  502    0  0.20248720386E+02 -0.91629220928E+02 -0.21853473259E+03  0.23786724565E+03  0.41800000000E+01 0.  1.
         -5    1    3    3    0  502  0.15069371177E+02  0.37891508956E+02 -0.18469890175E+03  0.18919304719E+03  0.41800000000E+01 0.  1.
        -11    1    4    4    0    0 -0.14463045526E+02  0.18737673797E+02 -0.10511572835E+03  0.10774783734E+03  0.00000000000E+00 0. -1.
         11    1    4    4    0    0 -0.20855046036E+02  0.35000038175E+02  0.11569698638E+02  0.42353199926E+02  0.00000000000E+00 0.  1.
</event>
<event>
 8    1  0.7103328E-009  0.1759113E+03  0.7561462E-02  0.1171820E+00
         -1   -1    0    0    0  501 -0.00000000000E+00  0.00000000000E+00  0.32915957826E+02  0.32915957826E+02  0.00000000000E+00 0.  1.
          1   -1    0    0  501    0  0.00000000000E+00 -0.00000000000E+00 -0.18107130529E+04  0.18107130529E+04  0.00000000000E+00 0. -1.
         25    2    1    2    0    0 -0.11467369583E+03  0.92093194297E+02 -0.15267218128E+04  0.15388823842E+04  0.12509310831E+03 0.  0.
         23    2    1    2    0    0  0.11467369583E+03 -0.92093194297E+02 -0.25107528230E+03  0.30474662656E+03  0.90556590414E+02 0.  0.
          5    1    3    3  502    0 -0.58702885741E+02  0.10926970683E+03 -0.12412112783E+04  0.12474008206E+04  0.41800000000E+01 0. -1.
         -5    1    3    3    0  502 -0.55970810084E+02 -0.17176512530E+02 -0.28551053455E+03  0.29148156357E+03  0.41800000000E+01 0. -1.
        -11    1    4    4    0    0  0.27001179564E+02 -0.74974055366E+02 -0.15001214955E+03  0.16986411536E+03  0.00000000000E+00 0. -1.
         11    1    4    4    0    0  0.87672516261E+02 -0.17119138931E+02 -0.10106313275E+03  0.13488251120E+03  0.00000000000E+00 0.  1.
</event>
<event>
 8    1  0.7103328E-009  0.9864418E+02  0.7561462E-02  0.1283173E+00
          2   -1    0    0  501    0  0.00000000000E+00  0.00000000000E+00  0.20179890730E+03  0.20179890730E+03  0.00000000000E+00 0. -1.
         -2   -1    0    0    0  501 -0.00000000000E+00 -0.00000000000E+00 -0.96202679657E+02  0.96202679657E+02  0.00000000000E+00 0.  1.
         25    2    1    2    0    0 -0.40973109181E+02  0.65575682400E+01 -0.24545080352E+02  0.13405653859E+03  0.12508755811E+03 0.  0.
         23    2    1    2    0    0  0.40973109181E+02 -0.65575682400E+01  0.13014130799E+03  0.16394504836E+03  0.90661025030E+02 0.  0.
          5    1    3    3  502    0 -0.30727544129E+02 -0.41474971364E+02  0.30553749495E+02  0.60127857321E+02  0.41800000000E+01 0.  1.
         -5    1    3    3    0  502 -0.10245565052E+02  0.48032539604E+02 -0.55098829847E+02  0.73928681271E+02  0.41800000000E+01 0.  1.
        -11    1    4    4    0    0  0.32247882239E+02  0.38554597362E+02  0.46296885064E+02  0.68335821158E+02  0.00000000000E+00 0.  1.
         11    1    4    4    0    0  0.87252269417E+01 -0.45112165602E+02  0.83844422928E+02  0.95609227204E+02  0.00000000000E+00 0. -1.
</event>
<event>
 8    1  0.7103328E-009  0.9934473E+02  0.7561462E-02  0.1281680E+00
          1   -1    0    0  501    0  0.00000000000E+00  0.00000000000E+00  0.27654410824E+02  0.27654410824E+02  0.00000000000E+00 0. -1.
         -1   -1    0    0    0  501 -0.00000000000E+00 -0.00000000000E+00 -0.47386453150E+03  0.47386453150E+03  0.00000000000E+00 0.  1.
         25    2    1    2    0    0 -0.16850456377E+02  0.25224329025E+02 -0.20905713347E+03  0.24550369571E+03  0.12508786872E+03 0.  0.
         23    2    1    2    0    0  0.16850456377E+02 -0.25224329025E+02 -0.23715298721E+03  0.25601524661E+03  0.91553604517E+02 0.  0.
          5    1    3    3  502    0 -0.55964398127E+02  0.42372349889E+02 -0.18113851542E+03  0.19430919706E+03  0.41800000000E+01 0. -1.
         -5    1    3    3    0  502  0.39113941749E+02 -0.17148020864E+02 -0.27918618045E+02  0.51194498653E+02  0.41800000000E+01 0. -1.
        -11    1    4    4    0    0  0.29387786657E+02 -0.49825173296E+02 -0.95159709412E+02  0.11136229251E+03  0.00000000000E+00 0. -1.
         11    1    4    4    0    0 -0.12537330280E+02  0.24600844271E+02 -0.14199327779E+03  0.14465295409E+03  0.00000000000E+00 0.  1.
</event>
<event>
 8    1  0.7103328E-009  0.9605963E+02  0.7561462E-02  0.1288807E+00
         -3   -1    0    0    0  501 -0.00000000000E+00  0.00000000000E+00  0.57480366445E+03  0.57480366445E+03  0.00000000000E+00 0.  1.
          3   -1    0    0  501    0  0.00000000000E+00 -0.00000000000E+00 -0.26428522394E+02  0.26428522394E+02  0.00000000000E+00 0. -1.
         25    2    1    2    0    0  0.11682531329E+02  0.21892520263E+02  0.43344272361E+03  0.45181379376E+03  0.12508935044E+03 0.  0.
         23    2    1    2    0    0 -0.11682531329E+02 -0.21892520263E+02  0.11493241844E+03  0.14941839309E+03  0.92198868769E+02 0.  0.
          5    1    3    3  502    0  0.53695588040E+02 -0.17602873153E+02  0.11541264792E+03  0.12857149380E+03  0.41800000000E+01 0. -1.
         -5    1    3    3    0  502 -0.42013056710E+02  0.39495393416E+02  0.31803007569E+03  0.32324229996E+03  0.41800000000E+01 0. -1.
        -11    1    4    4    0    0 -0.36720141555E+02 -0.33809633250E+02  0.11061478285E+03  0.12135522354E+03  0.00000000000E+00 0.  1.
         11    1    4    4    0    0  0.25037610226E+02  0.11917112987E+02  0.43176355916E+01  0.28063169544E+02  0.00000000000E+00 0. -1.
</event>
<event>
 8    1  0.7103328E-009  0.1104720E+03  0.7561462E-02  0.1259698E+00
         -2   -1    0    0    0  501 -0.00000000000E+00  0.00000000000E+00  0.48273494439E+02  0.48273494439E+02  0.00000000000E+00 0.  1.
          2   -1    0    0  501    0  0.00000000000E+00 -0.00000000000E+00 -0.29148741920E+03  0.29148741920E+03  0.00000000000E+00 0. -1.
         25    2    1    2    0    0 -0.36395932801E+02 -0.14653400199E+02 -0.94385851607E+02  0.16154587312E+03  0.12509593948E+03 0.  0.
         23    2    1    2    0    0  0.36395932801E+02  0.14653400199E+02 -0.14882807316E+03  0.17821504053E+03  0.89841077733E+02 0.  0.
          5    1    3    3  502    0 -0.34505621095E+02 -0.67410388160E+02 -0.70133820285E+02  0.10330064601E+03  0.41800000000E+01 0. -1.
         -5    1    3    3    0  502 -0.18903117063E+01  0.52756987960E+02 -0.24252031322E+02  0.58245227103E+02  0.41800000000E+01 0. -1.
        -11    1    4    4    0    0  0.28341713493E+02 -0.33180357887E+02 -0.40554508727E+02  0.59572284255E+02  0.00000000000E+00 0.  1.
         11    1    4    4    0    0  0.80542193086E+01  0.47833758086E+02 -0.10827356443E+03  0.11864275627E+03  0.00000000000E+00 0. -1.
</event>
<event>
 8    1  0.7103328E-009  0.1701456E+03  0.7561462E-02  0.1177696E+00
         -2   -1    0    0    0  501 -0.00000000000E+00  0.00000000000E+00  0.62119435069E+02  0.62119435069E+02  0.00000000000E+00 0.  1.
          2   -1    0    0  501    0  0.00000000000E+00 -0.00000000000E+00 -0.53274285511E+03  0.53274285511E+03  0.00000000000E+00 0. -1.
         25    2    1    2    0    0 -0.12956593052E+03  0.61512987502E+02 -0.19918705679E+03  0.27549015414E+03  0.12509261950E+03 0.  0.
         23    2    1    2    0    0  0.12956593052E+03 -0.61512987502E+02 -0.27143636325E+03  0.31937213604E+03  0.88032289522E+02 0.  0.
          5    1    3    3  502    0 -0.62662606951E+02 -0.28527581916E+02 -0.11897188823E+03  0.13752166313E+03  0.41800000000E+01 0.  1.
         -5    1    3    3    0  502 -0.66903323569E+02  0.90040569418E+02 -0.80215168555E+02  0.13796849101E+03  0.41800000000E+01 0.  1.
        -11    1    4    4    0    0  0.11280451477E+03 -0.76725732692E+02 -0.26087600148E+03  0.29439426754E+03  0.00000000000E+00 0. -1.
         11    1    4    4    0    0  0.16761415746E+02  0.15212745190E+02 -0.10560361771E+02  0.24977868499E+02  0.00000000000E+00 0.  1.
</event>
<event>
 8    1  0.7103328E-009  0.9102153E+02  0.7561462E-02  0.1300397E+00
          1   -1    0    0  501    0  0.00000000000E+00  0.00000000000E+00  0.10575787762E+03  0.10575787762E+03  0.00000000000E+00 0. -1.
         -1   -1    0    0    0  501 -0.00000000000E+00 -0.00000000000E+00 -0.12442732077E+03  0.12442732077E+03  0.00000000000E+00 0.  1.
         25    2    1    2    0    0 -0.33729567124E+02 -0.27263541381E+01  0.72430729131E+01  0.12978863514E+03  0.12509001160E+03 0.  0.
         23    2    1    2    0    0  0.33729567124E+02  0.27263541381E+01 -0.25912516068E+02  0.10039656325E+03  0.90900465999E+02 0.  0.
          5    1    3    3  502    0  0.32688845942E+02 -0.11130232220E+02  0.41761182039E+02  0.54349898285E+02  0.41800000000E+01 0. -1.
         -5    1    3    3    0  502 -0.66418413066E+02  0.84038780823E+01 -0.34518109126E+02  0.75438736857E+02  0.41800000000E+01 0. -1.
        -11    1    4    4    0    0  0.49658111033E+02  0.22727588090E+02 -0.43114560555E+02  0.69579713880E+02  0.00000000000E+00 0.  1.
         11    1    4    4    0    0 -0.15928543910E+02 -0.20001233952E+02  0.17202044487E+02  0.30816849372E+02  0.00000000000E+00 0. -1.
</event>
<event>
 8    1  0.7103328E-009  0.8594520E+02  0.7561462E-02  0.1312979E+00
         -1   -1    0    0    0  501 -0.00000000000E+00  0.00000000000E+00  0.43995008336E+03  0.43995008336E+03  0.00000000000E+00 0.  1.
          1   -1    0    0  501    0  0.00000000000E+00 -0.00000000000E+00 -0.42018228781E+02  0.42018228781E+02  0.00000000000E+00 0. -1.
         25    2    1    2    0    0  0.11940627050E+02 -0.26393967672E+02  0.35199338833E+03  0.37467897978E+03  0.12508306183E+03 0.  0.
         23    2    1    2    0    0 -0.11940627050E+02  0.26393967672E+02  0.45938466255E+02  0.10728933237E+03  0.92528039286E+02 0.  0.
          5    1    3    3  502    0 -0.29162313348E+02 -0.64848443536E+02  0.17639342915E+03  0.19023111048E+03  0.41800000000E+01 0. -1.
         -5    1    3    3    0  502  0.41102940398E+02  0.38454475864E+02  0.17559995918E+03  0.18444786929E+03  0.41800000000E+01 0. -1.
        -11    1    4    4    0    0 -0.21681265869E+02  0.74588750524E+01  0.70879024474E+02  0.74495289899E+02  0.00000000000E+00 0.  1.
         11    1    4    4    0    0  0.97406388192E+01  0.18935092619E+02 -0.24940558219E+02  0.32794042468E+02  0.00000000000E+00 0. -1.
</event>
<event>
 8    1  0.7103328E-009  0.1206753E+03  0.7561462E-02  0.1241987E+00
         -1   -1    0    0    0  501 -0.00000000000E+00  0.00000000000E+00  0.75976732391E+02  0.75976732391E+02  0.00000000000E+00 0.  1.
          1   -1    0    0  501    0  0.00000000000E+00 -0.00000000000E+00 -0.27518024939E+03  0.27518024939E+03  0.00000000000E+00 0. -1.
         25    2    1    2    0    0  0.28676408294E+02  0.83423966873E+02 -0.15428935349E+03  0.21733223582E+03  0.12508477719E+03 0.  0.
         23    2    1    2    0    0 -0.28676408294E+02 -0.83423966873E+02 -0.44914163504E+02  0.13382474596E+03  0.90054904953E+02 0.  0.
          5    1    3    3  502    0 -0.37999876886E+02 -0.81447389399E+01 -0.48455231320E+02  0.62255194627E+02  0.41800000000E+01 0.  1.
         -5    1    3    3    0  502  0.66676285179E+02  0.91568705813E+02 -0.10583412217E+03  0.15507704120E+03  0.41800000000E+01 0.  1.
        -11    1    4    4    0    0 -0.19182566037E+02 -0.38692794921E+02  0.25286002528E+02  0.50044831326E+02  0.00000000000E+00 0.  1.
         11    1    4    4    0    0 -0.94938422569E+01 -0.44731171951E+02 -0.70200166032E+02  0.83779914632E+02  0.00000000000E+00 0. -1.
</event>
<event>
 8    1  0.7103328E-009  0.2935841E+03  0.7561462E-02  0.1088493E+00
         -3   -1    0    0    0  501 -0.00000000000E+00  0.00000000000E+00  0.60448366201E+03  0.60448366201E+03  0.00000000000E+00 0.  1.
          3   -1    0    0  501    0  0.00000000000E+00 -0.00000000000E+00 -0.17587386020E+03  0.17587386020E+03  0.00000000000E+00 0. -1.
         25    2    1    2    0    0  0.27393075095E+03 -0.14018222261E+02  0.51906032026E+02  0.30590214407E+03  0.12508924302E+03 0.  0.
         23    2    1    2    0    0 -0.27393075095E+03  0.14018222261E+02  0.37670376978E+03  0.47445537814E+03  0.89261463184E+02 0.  0.
          5    1    3    3  502    0  0.11068859038E+03 -0.64135778719E+02  0.22415051732E+01  0.12801507294E+03  0.41800000000E+01 0. -1.
         -5    1    3    3    0  502  0.16324216056E+03  0.50117556458E+02  0.49664526853E+02  0.17788707114E+03  0.41800000000E+01 0. -1.
        -11    1    4    4    0    0 -0.20121279778E+03 -0.29878662786E+02  0.26033276535E+03  0.33038231369E+03  0.00000000000E+00 0.  1.
         11    1    4    4    0    0 -0.72717953162E+02  0.43896885046E+02  0.11637100444E+03  0.14407306446E+03  0.00000000000E+00 0. -1.
</event>
<event>
 8    1  0.7103328E-009  0.2619273E+03  0.7561462E-02  0.1105991E+00
         -2   -1    0    0    0  501 -0.00000000000E+00  0.00000000000E+00  0.63100631742E+02  0.63100631742E+02  0.00000000000E+00 0.  1.
          2   -1    0    0  501    0  0.00000000000E+00 -0.00000000000E+00 -0.13092812678E+04  0.13092812678E+04  0.00000000000E+00 0. -1.
         25    2    1    2    0    0  0.20174427908E+03  0.14985937215E+03 -0.43100278772E+03  0.51436200233E+03  0.12508509447E+03 0.  0.
         23    2    1    2    0    0 -0.20174427908E+03 -0.14985937215E+03 -0.81517784835E+03  0.85801989722E+03  0.92328944696E+02 0.  0.
          5    1    3    3  502    0  0.68154005830E+01  0.23133984010E+02  0.17357214729E+00  0.24477202221E+02  0.41800000000E+01 0.  1.
         -5    1    3    3    0  502  0.19492887849E+03  0.12672538814E+03 -0.43117635987E+03  0.48988480011E+03  0.41800000000E+01 0.  1.
        -11    1    4    4    0    0 -0.92331774358E+02 -0.15593658636E+02 -0.25336253843E+03  0.27011274428E+03  0.00000000000E+00 0.  1.
         11    1    4    4    0    0 -0.10941250472E+03 -0.13426571352E+03 -0.56181530992E+03  0.58790715294E+03  0.00000000000E+00 0. -1.
</event>
<event>
 8    1  0.7103328E-009  0.1200124E+03  0.7561462E-02  0.1243077E+00
         -1   -1    0    0    0  501 -0.00000000000E+00  0.00000000000E+00  0.67488492595E+03  0.67488492595E+03  0.00000000000E+00 0.  1.
          1   -1    0    0  501    0  0.00000000000E+00 -0.00000000000E+00 -0.32996400633E+02  0.32996400633E+02  0.00000000000E+00 0. -1.
         25    2    1    2    0    0 -0.83787799454E+02 -0.58749238764E+02  0.36973454551E+03  0.40351306042E+03  0.12508911779E+03 0.  0.
         23    2    1    2    0    0  0.83787799454E+02  0.58749238764E+02  0.27215397980E+03  0.30436826616E+03  0.90002135152E+02 0.  0.
          5    1    3    3  502    0 -0.31036510372E+02  0.19675297181E+02  0.24062679470E+03  0.24345247795E+03  0.41800000000E+01 0. -1.
         -5    1    3    3    0  502 -0.52751289083E+02 -0.78424535945E+02  0.12910775081E+03  0.16006058246E+03  0.41800000000E+01 0. -1.
        -11    1    4    4    0    0  0.78165758673E+02  0.37957725429E+02  0.26889285161E+03  0.28258457212E+03  0.00000000000E+00 0.  1.
         11    1    4    4    0    0  0.56220407816E+01  0.20791513335E+02  0.32611281889E+01  0.21783694048E+02  0.00000000000E+00 0. -1.
</event>
<event>
 8    1  0.7103328E-009  0.7170922E+02  0.7561462E-02  0.1354375E+00
         -2   -1    0    0    0  501 -0.00000000000E+00  0.00000000000E+00  0.89763988998E+02  0.89763988998E+02  0.00000000000E+00 0.  1.
          2   -1    0    0  501    0  0.00000000000E+00 -0.00000000000E+00 -0.17502413538E+03  0.17502413538E+03  0.00000000000E+00 0. -1.
         25    2    1    2    0    0  0.10243143377E+02 -0.18328844606E+02 -0.11018042348E+03  0.16799937258E+03  0.12507275858E+03 0.  0.
         23    2    1    2    0    0 -0.10243143377E+02  0.18328844606E+02  0.24920277095E+02  0.96788751798E+02  0.91138212257E+02 0.  0.
          5    1    3    3  502    0  0.70864134674E+01 -0.39923835753E+02  0.13035050646E+02  0.42796201495E+02  0.41800000000E+01 0.  1.
         -5    1    3    3    0  502  0.31567299100E+01  0.21594991147E+02 -0.12321547413E+03  0.12520317109E+03  0.41800000000E+01 0.  1.
        -11    1    4    4    0    0 -0.92456815964E+01 -0.30359402040E+02  0.34800296107E+02  0.47098158452E+02  0.00000000000E+00 0.  1.
         11    1    4    4    0    0 -0.99746178096E+00  0.48688246646E+02 -0.98800190125E+01  0.49690593347E+02  0.00000000000E+00 0. -1.
</event>
<event>
 8    1  0.7103328E-009  0.9986390E+02  0.7561462E-02  0.1280582E+00
          1   -1    0    0  501    0  0.00000000000E+00  0.00000000000E+00  0.16266584206E+02  0.16266584206E+02  0.00000000000E+00 0. -1.
         -1   -1    0    0    0  501 -0.00000000000E+00 -0.00000000000E+00 -0.81288463528E+03  0.81288463528E+03  0.00000000000E+00 0.  1.
         25    2    1    2    0    0 -0.25659572635E+02  0.20581598532E+02 -0.52230376815E+03  0.53808060698E+03  0.12508995773E+03 0.  0.
         23    2    1    2    0    0  0.25659572635E+02 -0.20581598532E+02 -0.27431428293E+03  0.29107061250E+03  0.91606548775E+02 0.  0.
          5    1    3    3  502    0  0.46989935142E+02  0.28727022959E+02 -0.25618540116E+03  0.26207199015E+03  0.41800000000E+01 0. -1.
         -5    1    3    3    0  502 -0.72649507777E+02 -0.81454244273E+01 -0.26611836698E+03  0.27600861683E+03  0.41800000000E+01 0. -1.
        -11    1    4    4    0    0  0.20264501647E+02  0.21091556447E+02 -0.25717277967E+02  0.38947171481E+02  0.00000000000E+00 0. -1.
         11    1    4    4    0    0  0.53950709884E+01 -0.41673154980E+02 -0.24859700496E+03  0.25212344102E+03  0.00000000000E+00 0.  1.
</event>
<event>
 8    1  0.7103328E-009  0.1066427E+03  0.7561462E-02  0.1266916E+00
         -1   -1    0    0    0  501 -0.00000000000E+00  0.00000000000E+00  0.32474205799E+03  0.32474205799E+03  0.00000000000E+00 0.  1.
          1   -1    0    0  501    0  0.00000000000E+00 -0.00000000000E+00 -0.55391363184E+02  0.55391363184E+02  0.00000000000E+00 0. -1.
         25    2    1    2    0    0 -0.14556027828E+02  0.77103222740E+02  0.13596703190E+03  0.20073230647E+03  0.12509852194E+03 0.  0.
         23    2    1    2    0    0  0.14556027828E+02 -0.77103222740E+02  0.13338366291E+03  0.17940111471E+03  0.90756672076E+02 0.  0.
          5    1    3    3  502    0 -0.36389023532E+02  0.19959138293E+02  0.13295256092E+03  0.13934268581E+03  0.41800000000E+01 0. -1.
         -5    1    3    3    0  502  0.21832995704E+02  0.57144084447E+02  0.30144709872E+01  0.61389620654E+02  0.41800000000E+01 0. -1.
        -11    1    4    4    0    0 -0.31676799324E+02 -0.39695904093E+02  0.97525115966E+02  0.10995604877E+03  0.00000000000E+00 0.  1.
         11    1    4    4    0    0  0.46232827151E+02 -0.37407318647E+02  0.35858546939E+02  0.69445065939E+02  0.00000000000E+00 0. -1.
</event>
<event>
 8    1  0.7103328E-009  0.1214864E+03  0.7561462E-02  0.1240665E+00
          3   -1    0    0  501    0  0.00000000000E+00  0.00000000000E+00  0.39484148846E+03  0.39484148846E+03  0.00000000000E+00 0. -1.
         -3   -1    0    0    0  501 -0.00000000000E+00 -0.00000000000E+00 -0.55344664372E+02  0.55344664372E+02  0.00000000000E+00 0.  1.
         25    2    1    2    0    0  0.60251681691E+02  0.40808221122E+02  0.81783166914E+02  0.16622831353E+03  0.12509112586E+03 0.  0.
         23    2    1    2    0    0 -0.60251681691E+02 -0.40808221122E+02  0.25771365718E+03  0.28395783931E+03  0.94446542297E+02 0.  0.
          5    1    3    3  502    0  0.55793825689E+02 -0.25509313489E+02  0.78272162257E+02  0.99537328898E+02  0.41800000000E+01 0. -1.
         -5    1    3    3    0  502  0.44578560014E+01  0.66317534611E+02  0.35110046565E+01  0.66690984628E+02  0.41800000000E+01 0. -1.
        -11    1    4    4    0    0 -0.75180780957E+02 -0.41426129647E+01  0.12979730732E+03  0.15005549658E+03  0.00000000000E+00 0. -1.
         11    1    4    4    0    0  0.14929099267E+02 -0.36665608158E+02  0.12791634986E+03  0.13390234273E+03  0.00000000000E+00 0.  1.
</event>
<event>
 8    1  0.7103328E-009  0.1720062E+03  0.7561462E-02  0.1175772E+00
          2   -1    0    0  501    0  0.00000000000E+00  0.00000000000E+00  0.11838708957E+03  0.11838708957E+03  0.00000000000E+00 0. -1.
         -2   -1    0    0    0  501 -0.00000000000E+00 -0.00000000000E+00 -0.36261187507E+03  0.36261187507E+03  0.00000000000E+00 0.  1.
         25    2    1    2    0    0 -0.53280715776E+02  0.12939337837E+03 -0.25051531712E+03  0.31302408593E+03  0.12507866813E+03 0.  0.
         23    2    1    2    0    0  0.53280715776E+02 -0.12939337837E+03  0.62905316098E+01  0.16797487871E+03  0.92706569631E+02 0.  0.
          5    1    3    3  502    0 -0.86153006749E+02  0.72666568363E+02 -0.20200938608E+03  0.23136126554E+03  0.41800000000E+01 0.  1.
         -5    1    3    3    0  502  0.32872290973E+02  0.56726810003E+02 -0.48505931037E+02  0.81662820382E+02  0.41800000000E+01 0.  1.
        -11    1    4    4    0    0 -0.16800808605E+02 -0.74889660530E+02  0.16817249404E+02  0.78571930749E+02  0.00000000000E+00 0. -1.
         11    1    4    4    0    0  0.70081524381E+02 -0.54503717836E+02 -0.10526717795E+02  0.89402947966E+02  0.00000000000E+00 0.  1.
</event>
<event>
 8    1  0.7103328E-009  0.1198602E+03  0.7561462E-02  0.1243328E+00
         -1   -1    0    0    0  501 -0.00000000000E+00  0.00000000000E+00  0.37180473061E+03  0.37180473061E+03  0.00000000000E+00 0.  1.
          1   -1    0    0  501    0  0.00000000000E+00 -0.00000000000E+00 -0.67531028920E+02  0.67531028920E+02  0.00000000000E+00 0. -1.
         25    2    1    2    0    0  0.92847636007E+02  0.51958329371E+02  0.22708500493E+03  0.28023935111E+03  0.12508454318E+03 0.  0.
         23    2    1    2    0    0 -0.92847636007E+02 -0.51958329371E+02  0.77188696763E+02  0.15909640843E+03  0.89628236414E+02 0.  0.
          5    1    3    3  502    0  0.83724827367E+02  0.67142455214E+02  0.84933560064E+02  0.13692749189E+03  0.41800000000E+01 0.  1.
         -5    1    3    3    0  502  0.91228086404E+01 -0.15184125843E+02  0.14215144486E+03  0.14331185922E+03  0.41800000000E+01 0.  1.
        -11    1    4    4    0    0 -0.51335132607E+02 -0.52124498982E+01 -0.92471188796E+01  0.52421128196E+02  0.00000000000E+00 0. -1.
         11    1    4    4    0    0 -0.41512503400E+02 -0.46745879473E+02  0.86435815643E+02  0.10667528023E+03  0.00000000000E+00 0.  1.
</event>
<event>
 8    1  0.7103328E-009  0.1368479E+03  0.7561462E-02  0.1217634E+00
         -2   -1    0    0    0  501 -0.00000000000E+00  0.00000000000E+00  0.35105228301E+02  0.35105228301E+02  0.00000000000E+00 0. -1.
          2   -1    0    0  501    0  0.00000000000E+00 -0.00000000000E+00 -0.67683273195E+03  0.67683273195E+03  0.00000000000E+00 0.  1.
         25    2    1    2    0    0 -0.52292170000E+02 -0.93510933475E+02 -0.38659997522E+03  0.42022087842E+03  0.12508908867E+03 0.  0.
         23    2    1    2    0    0  0.52292170000E+02  0.93510933475E+02 -0.25512752844E+03  0.29171708183E+03  0.92358185031E+02 0.  0.
          5    1    3    3  502    0  0.17672096800E+02 -0.78503941411E+02 -0.28296108693E+03  0.29421016457E+03  0.41800000000E+01 0.  1.
         -5    1    3    3    0  502 -0.69964266800E+02 -0.15006992064E+02 -0.10363888829E+03  0.12601071385E+03  0.41800000000E+01 0.  1.
        -11    1    4    4    0    0 -0.12176574038E+02  0.89697149249E+01  0.21468881485E+00  0.15125172145E+02  0.00000000000E+00 0. -1.
         11    1    4    4    0    0  0.64468744038E+02  0.84541218550E+02 -0.25534221725E+03  0.27659190968E+03  0.00000000000E+00 0.  1.
</event>
<event>
 8    1  0.7103328E-009  0.1079277E+03  0.7561462E-02  0.1264456E+00
          2   -1    0    0  501    0  0.00000000000E+00  0.00000000000E+00  0.27044157334E+03  0.27044157334E+03  0.00000000000E+00 0. -1.
         -2   -1    0    0    0  501 -0.00000000000E+00 -0.00000000000E+00 -0.67933562907E+02  0.67933562907E+02  0.00000000000E+00 0.  1.
         25    2    1    2    0    0  0.55673381725E+02 -0.51004252428E+02  0.14703015683E+03  0.20728301917E+03  0.12508966313E+03 0.  0.
         23    2    1    2    0    0 -0.55673381725E+02  0.51004252428E+02  0.55477853605E+02  0.13109211708E+03  0.91686376965E+02 0.  0.
          5    1    3    3  502    0  0.42189708469E+02 -0.65626222734E+02  0.22781913791E+02  0.81383417273E+02  0.41800000000E+01 0. -1.
         -5    1    3    3    0  502  0.13483673256E+02  0.14621970306E+02  0.12424824304E+03  0.12589960190E+03  0.41800000000E+01 0. -1.
        -11    1    4    4    0    0 -0.38805713012E+02 -0.20532351947E+02  0.30531720314E+02  0.53475665346E+02  0.00000000000E+00 0. -1.
         11    1    4    4    0    0 -0.16867668712E+02  0.71536604375E+02  0.24946133291E+02  0.77616451732E+02  0.00000000000E+00 0.  1.
</event>
<event>
 8    1  0.7103328E-009  0.2399772E+03  0.7561462E-02  0.1119808E+00
         -1   -1    0    0    0  501 -0.00000000000E+00  0.00000000000E+00  0.66300609298E+02  0.66300609298E+02  0.00000000000E+00 0.  1.
          1   -1    0    0  501    0  0.00000000000E+00 -0.00000000000E+00 -0.11468120044E+04  0.11468120044E+04  0.00000000000E+00 0. -1.
         25    2    1    2    0    0  0.19470777284E+03 -0.11527917106E+03 -0.80286244948E+03  0.84346674629E+03  0.12509050816E+03 0.  0.
         23    2    1    2    0    0 -0.19470777284E+03  0.11527917106E+03 -0.27764894563E+03  0.36964586741E+03  0.91371364226E+02 0.  0.
          5    1    3    3  502    0  0.28405255170E+02 -0.57703592912E+02 -0.10059014153E+03  0.11946720106E+03  0.41800000000E+01 0.  1.
         -5    1    3    3    0  502  0.16630251767E+03 -0.57575578144E+02 -0.70227230794E+03  0.72399954523E+03  0.41800000000E+01 0.  1.
        -11    1    4    4    0    0 -0.70606004847E+02  0.87247202642E+02 -0.16595527612E+03  0.20034579097E+03  0.00000000000E+00 0. -1.
         11    1    4    4    0    0 -0.12410176800E+03  0.28031968414E+02 -0.11169366951E+03  0.16930007644E+03  0.00000000000E+00 0.  1.
</event>
<event>
 8    1  0.7103328E-009  0.1020054E+03  0.7561462E-02  0.1276135E+00
         -2   -1    0    0    0  501 -0.00000000000E+00  0.00000000000E+00  0.22016493626E+03  0.22016493626E+03  0.00000000000E+00 0.  1.
          2   -1    0    0  501    0  0.00000000000E+00 -0.00000000000E+00 -0.58161478561E+02  0.58161478561E+02  0.00000000000E+00 0. -1.
         25    2    1    2    0    0  0.28333682142E+02  0.69456265998E+00  0.71579098654E+02  0.14688237480E+03  0.12509030619E+03 0.  0.
         23    2    1    2    0    0 -0.28333682142E+02 -0.69456265998E+00  0.90424359045E+02  0.13144404002E+03  0.91091662550E+02 0.  0.
          5    1    3    3  502    0  0.68021891084E+02 -0.52200701852E+01  0.80460527124E+02  0.10557270303E+03  0.41800000000E+01 0. -1.
         -5    1    3    3    0  502 -0.39688208941E+02  0.59146328452E+01 -0.88814284705E+01  0.41309671777E+02  0.41800000000E+01 0. -1.
        -11    1    4    4    0    0 -0.42258373690E+02  0.36350506079E+02  0.55547196213E+02  0.78693204575E+02  0.00000000000E+00 0.  1.
         11    1    4    4    0    0  0.13924691548E+02 -0.37045068739E+02  0.34877162832E+02  0.52750835442E+02  0.00000000000E+00 0. -1.
</event>
<event>
 8    1  0.7103328E-009  0.1131644E+03  0.7561462E-02  0.1254820E+00
         -1   -1    0    0    0  501 -0.00000000000E+00  0.00000000000E+00  0.12322960101E+03  0.12322960101E+03  0.00000000000E+00 0.  1.
          1   -1    0    0  501    0  0.00000000000E+00 -0.00000000000E+00 -0.17129221692E+03  0.17129221692E+03  0.00000000000E+00 0. -1.
         25    2    1    2    0    0 -0.55285256108E+02  0.76466359441E+02 -0.47163551241E+02  0.16363956939E+03  0.12509973796E+03 0.  0.
         23    2    1    2    0    0  0.55285256108E+02 -0.76466359441E+02 -0.89906467031E+00  0.13088224854E+03  0.90696146543E+02 0.  0.
          5    1    3    3  502    0 -0.26984954843E+02  0.52490721146E+02  0.38229989064E+02  0.70444787302E+02  0.41800000000E+01 0. -1.
         -5    1    3    3    0  502 -0.28300301265E+02  0.23975638295E+02 -0.85393540304E+02  0.93194782091E+02  0.41800000000E+01 0. -1.
        -11    1    4    4    0    0 -0.19347534121E+02 -0.44728317680E+02  0.76567888130E+01  0.49331287171E+02  0.00000000000E+00 0.  1.
         11    1    4    4    0    0  0.74632790228E+02 -0.31738041761E+02 -0.85558534833E+01  0.81550961373E+02  0.00000000000E+00 0. -1.
</event>
<event>
 8    1  0.7103328E-009  0.1192180E+03  0.7561462E-02  0.1244393E+00
         -1   -1    0    0    0  501 -0.00000000000E+00  0.00000000000E+00  0.95788871203E+01  0.95788871203E+01  0.00000000000E+00 0.  1.
          1   -1    0    0  501    0  0.00000000000E+00 -0.00000000000E+00 -0.16819460220E+04  0.16819460220E+04  0.00000000000E+00 0. -1.
         25    2    1    2    0    0  0.10595557685E+02  0.57889403309E+02 -0.12012039618E+04  0.12091326051E+04  0.12508896787E+03 0.  0.
         23    2    1    2    0    0 -0.10595557685E+02 -0.57889403309E+02 -0.47116317310E+03  0.48239230410E+03  0.85112575488E+02 0.  0.
          5    1    3    3  502    0 -0.55490320596E+02  0.32531817366E+02 -0.69569857135E+03  0.69867837336E+03  0.41800000000E+01 0.  1.
         -5    1    3    3    0  502  0.66085878282E+02  0.25357585942E+02 -0.50550539047E+03  0.51045423171E+03  0.41800000000E+01 0.  1.
        -11    1    4    4    0    0  0.36635657479E+02 -0.16146393202E+02 -0.20428524273E+03  0.20817141448E+03  0.00000000000E+00 0. -1.
         11    1    4    4    0    0 -0.47231215164E+02 -0.41743010106E+02 -0.26687793038E+03  0.27422088961E+03  0.00000000000E+00 0.  1.
</event>
<event>
 8    1  0.7103328E-009  0.1418923E+03  0.7561462E-02  0.1210805E+00
          1   -1    0    0  501    0  0.00000000000E+00  0.00000000000E+00  0.76533373933E+03  0.76533373933E+03  0.00000000000E+00 0. -1.
         -1   -1    0    0    0  501 -0.00000000000E+00 -0.00000000000E+00 -0.36024569124E+02  0.36024569124E+02  0.00000000000E+00 0.  1.
         25    2    1    2    0    0 -0.11951092460E+02  0.10351236231E+03  0.56183021231E+03  0.58494351063E+03  0.12509230752E+03 0.  0.
         23    2    1    2    0    0  0.11951092460E+02 -0.10351236231E+03  0.16747895790E+03  0.21641479783E+03  0.89042268706E+02 0.  0.
          5    1    3    3  502    0 -0.48085944130E+02  0.41963584710E+01  0.27496787166E+03  0.27920363589E+03  0.41800000000E+01 0.  1.
         -5    1    3    3    0  502  0.36134851670E+02  0.99316003844E+02  0.28686234064E+03  0.30573987473E+03  0.41800000000E+01 0.  1.
        -11    1    4    4    0    0  0.41829838032E+02 -0.33998071714E+02  0.36326628920E+02  0.65001755351E+02  0.00000000000E+00 0.  1.
         11    1    4    4    0    0 -0.29878745572E+02 -0.69514290601E+02  0.13115232898E+03  0.15141304248E+03  0.00000000000E+00 0. -1.
</event>
<event>
 8    1  0.7103328E-009  0.1233817E+03  0.7561462E-02  0.1237620E+00
         -3   -1    0    0    0  501 -0.00000000000E+00  0.00000000000E+00  0.32672884684E+03  0.32672884684E+03  0.00000000000E+00 0.  1.
          3   -1    0    0  501    0  0.00000000000E+00 -0.00000000000E+00 -0.66930890819E+02  0.66930890819E+02  0.00000000000E+00 0. -1.
         25    2    1    2    0    0  0.21642580476E+02 -0.77139842079E+02  0.58873510187E+02  0.15978961494E+03  0.12509066438E+03 0.  0.
         23    2    1    2    0    0 -0.21642580476E+02  0.77139842079E+02  0.20092444584E+03  0.23387012272E+03  0.88913693224E+02 0.  0.
          5    1    3    3  502    0  0.23874537432E+02 -0.11127405010E+03  0.48688003271E+02  0.12385435732E+03  0.41800000000E+01 0.  1.
         -5    1    3    3    0  502 -0.22319569554E+01  0.34134208023E+02  0.10185506916E+02  0.35935257622E+02  0.41800000000E+01 0.  1.
        -11    1    4    4    0    0  0.11216212656E+02  0.60604969258E+02  0.52523816171E+02  0.80978497086E+02  0.00000000000E+00 0. -1.
         11    1    4    4    0    0 -0.32858793132E+02  0.16534872821E+02  0.14840062967E+03  0.15289162564E+03  0.00000000000E+00 0.  1.
</event>
<event>
 8    1  0.7103328E-009  0.9520757E+02  0.7561462E-02  0.1290709E+00
          1   -1    0    0  501    0  0.00000000000E+00  0.00000000000E+00  0.98219210553E+03  0.98219210553E+03  0.00000000000E+00 0. -1.
         -1   -1    0    0    0  501 -0.00000000000E+00 -0.00000000000E+00 -0.15533393379E+02  0.15533393379E+02  0.00000000000E+00 0.  1.
         25    2    1    2    0    0 -0.20824419041E+02 -0.52183069825E+02  0.62237828947E+03  0.63730559526E+03  0.12508779856E+03 0.  0.
         23    2    1    2    0    0  0.20824419041E+02  0.52183069825E+02  0.34428042268E+03  0.36041990364E+03  0.90646391524E+02 0.  0.
          5    1    3    3  502    0  0.24582844590E+02 -0.30987524981E+02  0.55935492484E+02  0.68635229088E+02  0.41800000000E+01 0.  1.
         -5    1    3    3    0  502 -0.45407263631E+02 -0.21195544845E+02  0.56644279698E+03  0.56867036618E+03  0.41800000000E+01 0.  1.
        -11    1    4    4    0    0 -0.29190885564E+02  0.38848981631E+02  0.22827774658E+03  0.23339254649E+03  0.00000000000E+00 0. -1.
         11    1    4    4    0    0  0.50015304604E+02  0.13334088195E+02  0.11600267610E+03  0.12702735715E+03  0.00000000000E+00 0.  1.
</event>
<event>
 8    1  0.7103328E-009  0.1405605E+03  0.7561462E-02  0.1212577E+00
         -1   -1    0    0    0  501 -0.00000000000E+00  0.00000000000E+00  0.18290777768E+03  0.18290777768E+03  0.00000000000E+00 0.  1.
          1   -1    0    0  501    0  0.00000000000E+00 -0.00000000000E+00 -0.15052712216E+03  0.15052712216E+03  0.00000000000E+00 0. -1.
         25    2    1    2    0    0 -0.12157506897E+03 -0.15600624808E+02  0.41233177568E+02  0.17992097585E+03  0.12508999052E+03 0.  0.
         23    2    1    2    0    0  0.12157506897E+03  0.15600624808E+02 -0.88525220472E+01  0.15351392399E+03  0.92001526202E+02 0.  0.
          5    1    3    3  502    0 -0.27645013991E+02  0.23173651739E+02 -0.36822009249E+02  0.51716512823E+02  0.41800000000E+01 0.  1.
         -5    1    3    3    0  502 -0.93930054981E+02 -0.38774276546E+02  0.78055186817E+02  0.12820446302E+03  0.41800000000E+01 0.  1.
        -11    1    4    4    0    0  0.48150149095E+02 -0.29941491849E+02 -0.30581259320E+02  0.64421605177E+02  0.00000000000E+00 0.  1.
         11    1    4    4    0    0  0.73424919878E+02  0.45542116657E+02  0.21728737273E+02  0.89092318817E+02  0.00000000000E+00 0. -1.
</event>
<event>
 8    1  0.7103328E-009  0.1581695E+03  0.7561462E-02  0.1190779E+00
          3   -1    0    0  501    0  0.00000000000E+00  0.00000000000E+00  0.48880330104E+02  0.48880330104E+02  0.00000000000E+00 0. -1.
         -3   -1    0    0    0  501 -0.00000000000E+00 -0.00000000000E+00 -0.75424620443E+03  0.75424620443E+03  0.00000000000E+00 0.  1.
         25    2    1    2    0    0  0.49314685828E+01  0.15727506920E+03 -0.38833560381E+03  0.43727943321E+03  0.12509594215E+03 0.  0.
         23    2    1    2    0    0 -0.49314685828E+01 -0.15727506920E+03 -0.31703027051E+03  0.36584710133E+03  0.92607463813E+02 0.  0.
          5    1    3    3  502    0  0.89961142919E+00  0.41815711532E+02 -0.12184380298E+02  0.43764078362E+02  0.41800000000E+01 0. -1.
         -5    1    3    3    0  502  0.40318571536E+01  0.11545935767E+03 -0.37615122352E+03  0.39351535484E+03  0.41800000000E+01 0. -1.
        -11    1    4    4    0    0  0.81414124903E+01 -0.58876103194E+02 -0.21673011925E+03  0.22473233572E+03  0.00000000000E+00 0.  1.
         11    1    4    4    0    0 -0.13072881073E+02 -0.98398966007E+02 -0.10030015126E+03  0.14111476561E+03  0.00000000000E+00 0. -1.
</event>
<event>
 8    1  0.7103328E-009  0.1216816E+03  0.7561462E-02  0.1240348E+00
          1   -1    0    0  501    0  0.00000000000E+00  0.00000000000E+00  0.47275407345E+02  0.47275407345E+02  0.00000000000E+00 0. -1.
         -1   -1    0    0    0  501 -0.00000000000E+00 -0.00000000000E+00 -0.47202046551E+03  0.47202046551E+03  0.00000000000E+00 0.  1.
         25    2    1    2    0    0 -0.39040693570E+02  0.64719119114E+02 -0.34962683200E+03  0.37894502476E+03  0.12509064716E+03 0.  0.
         23    2    1    2    0    0  0.39040693570E+02 -0.64719119114E+02 -0.75118226172E+02  0.14035084810E+03  0.91339326276E+02 0.  0.
          5    1    3    3  502    0  0.29611063662E+02 -0.17289024542E+02 -0.49971447365E+02  0.60748196784E+02  0.41800000000E+01 0.  1.
         -5    1    3    3    0  502 -0.68651757232E+02  0.82008143657E+02 -0.29965538463E+03  0.31819682798E+03  0.41800000000E+01 0.  1.
        -11    1    4    4    0    0  0.17385437222E+02  0.12614645253E+02 -0.52795206153E+02  0.56997513060E+02  0.00000000000E+00 0.  1.
         11    1    4    4    0    0  0.21655256348E+02 -0.77333764368E+02 -0.22323020019E+02  0.83353335035E+02  0.00000000000E+00 0. -1.
</event>
<event>
 8    1  0.7103328E-009  0.1128342E+03  0.7561462E-02  0.1255410E+00
          1   -1    0    0  501    0  0.00000000000E+00  0.00000000000E+00  0.42955778088E+03  0.42955778088E+03  0.00000000000E+00 0. -1.
         -1   -1    0    0    0  501 -0.00000000000E+00 -0.00000000000E+00 -0.52256415353E+02  0.52256415353E+02  0.00000000000E+00 0.  1.
         25    2    1    2    0    0 -0.61274199548E+02 -0.71055457992E+02  0.13896917918E+03  0.20919699220E+03  0.12509014007E+03 0.  0.
         23    2    1    2    0    0  0.61274199548E+02  0.71055457992E+02  0.23833218634E+03  0.27261720403E+03  0.93351503709E+02 0.  0.
          5    1    3    3  502    0 -0.45916199283E+02 -0.16516802925E+02 -0.98021312205E+01  0.49946534534E+02  0.41800000000E+01 0. -1.
         -5    1    3    3    0  502 -0.15358000264E+02 -0.54538655067E+02  0.14877131040E+03  0.15925045767E+03  0.41800000000E+01 0. -1.
        -11    1    4    4    0    0  0.77663822280E+02  0.47022611064E+02  0.22059259757E+03  0.23854536119E+03  0.00000000000E+00 0. -1.
         11    1    4    4    0    0 -0.16389622732E+02  0.24032846928E+02  0.17739588777E+02  0.34071842843E+02  0.00000000000E+00 0.  1.
</event>
<event>
 8    1  0.7103328E-009  0.1008002E+03  0.7561462E-02  0.1278622E+00
          1   -1    0    0  501    0  0.00000000000E+00  0.00000000000E+00  0.59416642760E+02  0.59416642760E+02  0.00000000000E+00 0. -1.
         -1   -1    0    0    0  501 -0.00000000000E+00 -0.00000000000E+00 -0.21670872131E+03  0.21670872131E+03  0.00000000000E+00 0.  1.
         25    2    1    2    0    0 -0.18994367179E+02  0.26147970058E+02 -0.66823910162E+02  0.14545608277E+03  0.12509010641E+03 0.  0.
         23    2    1    2    0    0  0.18994367179E+02 -0.26147970058E+02 -0.90468168393E+02  0.13066928131E+03  0.88574653614E+02 0.  0.
          5    1    3    3  502    0 -0.32099115635E+02 -0.37855867018E+02  0.28015023395E+01  0.49887280018E+02  0.41800000000E+01 0.  1.
         -5    1    3    3    0  502  0.13104748456E+02  0.64003837076E+02 -0.69625412501E+02  0.95568802747E+02  0.41800000000E+01 0.  1.
        -11    1    4    4    0    0  0.64540543347E+01 -0.54732762950E+02 -0.30314839042E+02  0.62899281583E+02  0.00000000000E+00 0. -1.
         11    1    4    4    0    0  0.12540312844E+02  0.28584792892E+02 -0.60153329351E+02  0.67769999726E+02  0.00000000000E+00 0.  1.
</event>
<event>
 8    1  0.7103328E-009  0.1720727E+03  0.7561462E-02  0.1175703E+00
         -1   -1    0    0    0  501 -0.00000000000E+00  0.00000000000E+00  0.61574336960E+02  0.61574336960E+02  0.00000000000E+00 0.  1.
          1   -1    0    0  501    0  0.00000000000E+00 -0.00000000000E+00 -0.63750655449E+03  0.63750655449E+03  0.00000000000E+00 0. -1.
         25    2    1    2    0    0  0.15594148364E+03 -0.14507641318E+02 -0.20954897586E+03  0.28997665250E+03  0.12508983866E+03 0.  0.
         23    2    1    2    0    0 -0.15594148364E+03  0.14507641318E+02 -0.36638324167E+03  0.40910423895E+03  0.92743628191E+02 0.  0.
          5    1    3    3  502    0 -0.35586637508E+01  0.22825291918E+02 -0.72980940008E+02  0.76663863999E+02  0.41800000000E+01 0.  1.
         -5    1    3    3    0  502  0.15950014739E+03 -0.37332933237E+02 -0.13656803585E+03  0.21331278850E+03  0.41800000000E+01 0.  1.
        -11    1    4    4    0    0 -0.10688218178E+03  0.13537284616E+02 -0.13573743784E+03  0.17329659803E+03  0.00000000000E+00 0.  1.
         11    1    4    4    0    0 -0.49059301866E+02  0.97035670263E+00 -0.23064580383E+03  0.23580764092E+03  0.00000000000E+00 0. -1.
</event>
<event>
 8    1  0.7103328E-009  0.1038169E+03  0.7561462E-02  0.1272468E+00
          1   -1    0    0  501    0  0.00000000000E+00  0.00000000000E+00  0.17500017585E+03  0.17500017585E+03  0.00000000000E+00 0. -1.
         -1   -1    0    0    0  501 -0.00000000000E+00 -0.00000000000E+00 -0.71553105733E+02  0.71553105733E+02  0.00000000000E+00 0.  1.
         25    2    1    2    0    0  0.31829215279E+02  0.84653975704E+01  0.50425123925E+02  0.13883161132E+03  0.12508701483E+03 0.  0.
         23    2    1    2    0    0 -0.31829215279E+02 -0.84653975704E+01  0.53021946189E+02  0.10772167026E+03  0.87794473424E+02 0.  0.
          5    1    3    3  502    0  0.63965992632E+02  0.43630089235E+02  0.14180358964E+02  0.78827583246E+02  0.41800000000E+01 0. -1.
         -5    1    3    3    0  502 -0.32136777353E+02 -0.35164691665E+02  0.36244764961E+02  0.60004028078E+02  0.41800000000E+01 0. -1.
        -11    1    4    4    0    0 -0.45424623310E+02  0.20831819317E+02  0.56273958996E+02  0.75260345203E+02  0.00000000000E+00 0. -1.
         11    1    4    4    0    0  0.13595408031E+02 -0.29297216888E+02 -0.32520128068E+01  0.32461325053E+02  0.00000000000E+00 0.  1.
</event>
<event>
 8    1  0.7103328E-009  0.9372931E+02  0.7561462E-02  0.1294064E+00
          2   -1    0    0  501    0  0.00000000000E+00  0.00000000000E+00  0.29953179814E+03  0.29953179814E+03  0.00000000000E+00 0. -1.
         -2   -1    0    0    0  501 -0.00000000000E+00 -0.00000000000E+00 -0.50705580821E+02  0.50705580821E+02  0.00000000000E+00 0.  1.
         25    2    1    2    0    0 -0.15615956633E+02  0.35262572141E+02  0.19147080969E+03  0.23193416151E+03  0.12508028308E+03 0.  0.
         23    2    1    2    0    0  0.15615956633E+02 -0.35262572141E+02  0.57355407624E+02  0.11830321745E+03  0.96014068652E+02 0.  0.
          5    1    3    3  502    0  0.46866186312E+02  0.46534104281E+02  0.82678648817E+02  0.10590133923E+03  0.41800000000E+01 0. -1.
         -5    1    3    3    0  502 -0.62482142945E+02 -0.11271532140E+02  0.10879216087E+03  0.12603282228E+03  0.41800000000E+01 0. -1.
        -11    1    4    4    0    0  0.30592777061E+02 -0.22483061009E+02  0.79846005685E+02  0.88412615980E+02  0.00000000000E+00 0. -1.
         11    1    4    4    0    0 -0.14976820428E+02 -0.12779511132E+02 -0.22490598061E+02  0.29890601467E+02  0.00000000000E+00 0.  1.
</event>
<event>
 8    1  0.7103328E-009  0.1736947E+03  0.7561462E-02  0.1174049E+00
         -2   -1    0    0    0  501 -0.00000000000E+00  0.00000000000E+00  0.25215895743E+03  0.25215895743E+03  0.00000000000E+00 0.  1.
          2   -1    0    0  501    0  0.00000000000E+00 -0.00000000000E+00 -0.30173034959E+03  0.30173034959E+03  0.00000000000E+00 0. -1.
         25    2    1    2    0    0  0.15737430692E+03  0.19337291226E+02 -0.22413081997E+03  0.30170477100E+03  0.12510212259E+03 0.  0.
         23    2    1    2    0    0 -0.15737430692E+03 -0.19337291226E+02  0.17455942781E+03  0.25218453602E+03  0.89361306295E+02 0.  0.
          5    1    3    3  502    0  0.88614423716E+02  0.49288698734E+02 -0.52293017753E+02  0.11416621225E+03  0.41800000000E+01 0.  1.
         -5    1    3    3    0  502  0.68759883202E+02 -0.29951407508E+02 -0.17183780221E+03  0.18753855875E+03  0.41800000000E+01 0.  1.
        -11    1    4    4    0    0 -0.85764647959E+02 -0.42242562317E+02  0.13977745756E+03  0.16934505175E+03  0.00000000000E+00 0.  1.
         11    1    4    4    0    0 -0.71609658959E+02  0.22905271091E+02  0.34781970246E+02  0.82839484270E+02  0.00000000000E+00 0. -1.
</event>
<event>
 8    1  0.7103328E-009  0.9168680E+02  0.7561462E-02  0.1298818E+00
         -1   -1    0    0    0  501 -0.00000000000E+00  0.00000000000E+00  0.11480752581E+03  0.11480752581E+03  0.00000000000E+00 0.  1.
          1   -1    0    0  501    0  0.00000000000E+00 -0.00000000000E+00 -0.14064689720E+03  0.14064689720E+03  0.00000000000E+00 0. -1.
         25    2    1    2    0    0 -0.48994060682E+02 -0.29734788096E+02  0.18700524316E+02  0.13885906152E+03  0.12509018248E+03 0.  0.
         23    2    1    2    0    0  0.48994060682E+02  0.29734788096E+02 -0.44539895709E+02  0.11659536148E+03  0.91247467936E+02 0.  0.
          5    1    3    3  502    0 -0.26534365962E+02  0.14084131547E+02 -0.47433701454E+02  0.56301543247E+02  0.41800000000E+01 0.  1.
         -5    1    3    3    0  502 -0.22459694720E+02 -0.43818919643E+02  0.66134225769E+02  0.82557518275E+02  0.41800000000E+01 0.  1.
        -11    1    4    4    0    0 -0.19421144457E+02 -0.12620881645E+02  0.26508090219E+01  0.23312964075E+02  0.00000000000E+00 0.  1.
         11    1    4    4    0    0  0.68415205139E+02  0.42355669741E+02 -0.47190704731E+02  0.93282397409E+02  0.00000000000E+00 0. -1.
</event>
<event>
 8    1  0.7103328E-009  0.1186439E+03  0.7561462E-02  0.1245351E+00
          1   -1    0    0  501    0  0.00000000000E+00  0.00000000000E+00  0.78929492804E+03  0.78929492804E+03  0.00000000000E+00 0. -1.
         -1   -1    0    0    0  501 -0.00000000000E+00 -0.00000000000E+00 -0.30113584712E+02  0.30113584712E+02  0.00000000000E+00 0.  1.
         25    2    1    2    0    0 -0.68748559554E+02  0.77680385040E+02  0.50463330467E+03  0.53015348220E+03  0.12508931150E+03 0.  0.
         23    2    1    2    0    0  0.68748559554E+02 -0.77680385040E+02  0.25454803866E+03  0.28925503055E+03  0.90073092828E+02 0.  0.
          5    1    3    3  502    0 -0.75523452315E+02  0.65249157291E+02  0.50558705921E+03  0.51536102997E+03  0.41800000000E+01 0.  1.
         -5    1    3    3    0  502  0.67748927608E+01  0.12431227749E+02 -0.95375453900E+00  0.14792452230E+02  0.41800000000E+01 0.  1.
        -11    1    4    4    0    0  0.25404827069E+02  0.79816646180E+01  0.13633090788E+02  0.29916105577E+02  0.00000000000E+00 0.  1.
         11    1    4    4    0    0  0.43343732485E+02 -0.85662049658E+02  0.24091494787E+03  0.25933892497E+03  0.00000000000E+00 0. -1.
</event>
<event>
 8    1  0.7103328E-009  0.8291906E+02  0.7561462E-02  0.1320966E+00
          3   -1    0    0  501    0  0.00000000000E+00  0.00000000000E+00  0.13396030441E+03  0.13396030441E+03  0.00000000000E+00 0. -1.
         -3   -1    0    0    0  501 -0.00000000000E+00 -0.00000000000E+00 -0.12450218085E+03  0.12450218085E+03  0.00000000000E+00 0.  1.
         25    2    1    2    0    0 -0.68561485988E+02  0.31615248156E+02  0.51607935142E+01  0.14620103613E+03  0.12509159803E+03 0.  0.
         23    2    1    2    0    0  0.68561485988E+02 -0.31615248156E+02  0.42973300389E+01  0.11226144913E+03  0.82969660954E+02 0.  0.
          5    1    3    3  502    0  0.67897945078E+01  0.68992530223E+01 -0.48971979106E+02  0.50094192670E+02  0.41800000000E+01 0.  1.
         -5    1    3    3    0  502 -0.75351280496E+02  0.24715995134E+02  0.54132772620E+02  0.96106843457E+02  0.41800000000E+01 0.  1.
        -11    1    4    4    0    0  0.37581623903E+02 -0.21480975342E+02 -0.38864566967E+02  0.58174438737E+02  0.00000000000E+00 0.  1.
         11    1    4    4    0    0  0.30979862085E+02 -0.10134272814E+02  0.43161897006E+02  0.54087010395E+02  0.00000000000E+00 0. -1.
</event>
<event>
 8    1  0.7103328E-009  0.1405392E+03  0.7561462E-02  0.1212605E+00
         -1   -1    0    0    0  501 -0.00000000000E+00  0.00000000000E+00  0.32357771801E+03  0.32357771801E+03  0.00000000000E+00 0.  1.
          1   -1    0    0  501    0  0.00000000000E+00 -0.00000000000E+00 -0.72160372628E+02  0.72160372628E+02  0.00000000000E+00 0. -1.
         25    2    1    2    0    0 -0.51351229748E+02 -0.92181689181E+02  0.15070242755E+03  0.22247096878E+03  0.12509075770E+03 0.  0.
         23    2    1    2    0    0  0.51351229748E+02  0.92181689181E+02  0.10071491782E+03  0.17326712186E+03  0.93507156022E+02 0.  0.
          5    1    3    3  502    0 -0.90955661641E+02 -0.76514260332E+02  0.94937300021E+02  0.15217729053E+03  0.41800000000E+01 0.  1.
         -5    1    3    3    0  502  0.39604431893E+02 -0.15667428849E+02  0.55765127534E+02  0.70293678245E+02  0.41800000000E+01 0.  1.
        -11    1    4    4    0    0  0.96562001687E+01  0.72683410981E+02  0.13362684067E+02  0.74529737414E+02  0.00000000000E+00 0.  1.
         11    1    4    4    0    0  0.41695029580E+02  0.19498278200E+02  0.87352233755E+02  0.98737384442E+02  0.00000000000E+00 0. -1.
</event>
<event>
 8    1  0.7103328E-009  0.1787130E+03  0.7561462E-02  0.1169054E+00
         -2   -1    0    0    0  501 -0.00000000000E+00  0.00000000000E+00  0.12994932561E+03  0.12994932561E+03  0.00000000000E+00 0.  1.
          2   -1    0    0  501    0  0.00000000000E+00 -0.00000000000E+00 -0.47291742325E+03  0.47291742325E+03  0.00000000000E+00 0. -1.
         25    2    1    2    0    0 -0.69029547075E+02  0.15886018026E+03 -0.71096843468E+01  0.21377422580E+03  0.12508891543E+03 0.  0.
         23    2    1    2    0    0  0.69029547075E+02 -0.15886018026E+03 -0.33585841330E+03  0.38909252306E+03  0.92684855704E+02 0.  0.
          5    1    3    3  502    0  0.78385301529E+01  0.21569554506E+01  0.33329932258E+02  0.34560841947E+02  0.41800000000E+01 0. -1.
         -5    1    3    3    0  502 -0.76868077228E+02  0.15670322481E+03 -0.40439616605E+02  0.17921338385E+03  0.41800000000E+01 0. -1.
        -11    1    4    4    0    0  0.31741119542E+02 -0.57298461365E+02 -0.22438034709E+03  0.23374591442E+03  0.00000000000E+00 0. -1.
         11    1    4    4    0    0  0.37288427532E+02 -0.10156171889E+03 -0.11147806620E+03  0.15534660864E+03  0.00000000000E+00 0.  1.
</event>
<event>
 8    1  0.7103328E-009  0.1017107E+03  0.7561462E-02  0.1276739E+00
         -2   -1    0    0    0  501 -0.00000000000E+00  0.00000000000E+00  0.91002369052E+02  0.91002369052E+02  0.00000000000E+00 0. -1.
          2   -1    0    0  501    0  0.00000000000E+00 -0.00000000000E+00 -0.18231642208E+03  0.18231642208E+03  0.00000000000E+00 0.  1.
         25    2    1    2    0    0 -0.43238019094E+02 -0.39153317635E+02 -0.92771391731E+02  0.16630337741E+03  0.12509106138E+03 0.  0.
         23    2    1    2    0    0  0.43238019094E+02  0.39153317635E+02  0.14573386987E+01  0.10701541373E+03  0.89708786425E+02 0.  0.
          5    1    3    3  502    0  0.35467451691E+02  0.17121898485E+02 -0.38757953233E+02  0.55414356226E+02  0.41800000000E+01 0.  1.
         -5    1    3    3    0  502 -0.78705470785E+02 -0.56275216120E+02 -0.54013438498E+02  0.11088902118E+03  0.41800000000E+01 0.  1.
        -11    1    4    4    0    0  0.44061566124E+02  0.21018833446E+02 -0.39122513749E+02  0.62560243372E+02  0.00000000000E+00 0.  1.
         11    1    4    4    0    0 -0.82354702959E+00  0.18134484189E+02  0.40579852448E+02  0.44455170354E+02  0.00000000000E+00 0. -1.
</event>
<event>
 8    1  0.7103328E-009  0.1161429E+03  0.7561462E-02  0.1249599E+00
         -1   -1    0    0    0  501 -0.00000000000E+00  0.00000000000E+00  0.25890324599E+03  0.25890324599E+03  0.00000000000E+00 0.  1.
          1   -1    0    0  501    0  0.00000000000E+00 -0.00000000000E+00 -0.69963001357E+02  0.69963001357E+02  0.00000000000E+00 0. -1.
         25    2    1    2    0    0  0.43104381068E+02  0.25456109247E+02  0.18095728793E+03  0.22560661914E+03  0.12508719109E+03 0.  0.
         23    2    1    2    0    0 -0.43104381068E+02 -0.25456109247E+02  0.79829566991E+01  0.10325962821E+03  0.89960113694E+02 0.  0.
          5    1    3    3  502    0  0.87454757165E+02  0.13489880712E+02  0.12076421563E+03  0.14977242606E+03  0.41800000000E+01 0. -1.
         -5    1    3    3    0  502 -0.44350376097E+02  0.11966228535E+02  0.60193072309E+02  0.75834193075E+02  0.41800000000E+01 0. -1.
        -11    1    4    4    0    0 -0.62711351968E+02 -0.38901926553E+02 -0.85653525633E+01  0.74292925771E+02  0.00000000000E+00 0.  1.
         11    1    4    4    0    0  0.19606970900E+02  0.13445817306E+02  0.16548309262E+02  0.28966702442E+02  0.00000000000E+00 0. -1.
</event>
<event>
 8    1  0.7103328E-009  0.7099363E+02  0.7561462E-02  0.1356746E+00
          2   -1    0    0  501    0  0.00000000000E+00  0.00000000000E+00  0.36145860707E+03  0.36145860707E+03  0.00000000000E+00 0. -1.
         -2   -1    0    0    0  501 -0.00000000000E+00 -0.00000000000E+00 -0.41594506447E+02  0.41594506447E+02  0.00000000000E+00 0.  1.
         25    2    1    2    0    0  0.48739750461E+01 -0.16630624288E+02  0.27170928821E+03  0.29962331469E+03  0.12509140703E+03 0.  0.
         23    2    1    2    0    0 -0.48739750461E+01  0.16630624288E+02  0.48154812420E+02  0.10342979883E+03  0.89880498603E+02 0.  0.
          5    1    3    3  502    0 -0.14207287348E+02  0.22277349124E+02  0.24916402431E+03  0.25059591120E+03  0.41800000000E+01 0.  1.
         -5    1    3    3    0  502  0.19081262394E+02 -0.38907973412E+02  0.22545263894E+02  0.49027403496E+02  0.41800000000E+01 0.  1.
        -11    1    4    4    0    0 -0.32453094880E+02  0.27020334299E+02 -0.51282638248E+01  0.42539404354E+02  0.00000000000E+00 0.  1.
         11    1    4    4    0    0  0.27579119834E+02 -0.10389710011E+02  0.53283076245E+02  0.60890394472E+02  0.00000000000E+00 0. -1.
</event>
<event>
 8    1  0.7103328E-009  0.1070003E+03  0.7561462E-02  0.1266228E+00
         -2   -1    0    0    0  501 -0.00000000000E+00  0.00000000000E+00  0.18354538812E+03  0.18354538812E+03  0.00000000000E+00 0.  1.
          2   -1    0    0  501    0  0.00000000000E+00 -0.00000000000E+00 -0.79536656990E+02  0.79536656990E+02  0.00000000000E+00 0. -1.
         25    2    1    2    0    0  0.20910418268E+02  0.40972174385E+02  0.66959065929E+02  0.14915467648E+03  0.12509051258E+03 0.  0.
         23    2    1    2    0    0 -0.20910418268E+02 -0.40972174385E+02  0.37049665197E+02  0.11392736863E+03  0.97420752234E+02 0.  0.
          5    1    3    3  502    0  0.71075287067E+02  0.74759793821E+01  0.26191711098E+02  0.76230340611E+02  0.41800000000E+01 0. -1.
         -5    1    3    3    0  502 -0.50164868800E+02  0.33496195003E+02  0.40767354831E+02  0.72924335864E+02  0.41800000000E+01 0. -1.
        -11    1    4    4    0    0 -0.32372282177E+02 -0.55007031679E+02  0.57989810671E+02  0.86235470249E+02  0.00000000000E+00 0.  1.
         11    1    4    4    0    0  0.11461863910E+02  0.14034857294E+02 -0.20940145473E+02  0.27691898382E+02  0.00000000000E+00 0. -1.
</event>
<event>
 8    1  0.7103328E-009  0.1167959E+03  0.7561462E-02  0.1248478E+00
         -1   -1    0    0    0  501 -0.00000000000E+00  0.00000000000E+00  0.43942674864E+02  0.43942674864E+02  0.00000000000E+00 0.  1.
          1   -1    0    0  501    0  0.00000000000E+00 -0.00000000000E+00 -0.44763860625E+03  0.44763860625E+03  0.00000000000E+00 0. -1.
         25    2    1    2    0    0 -0.20608388039E+01 -0.87385771343E+02 -0.23714444172E+03  0.28200160370E+03  0.12508756197E+03 0.  0.
         23    2    1    2    0    0  0.20608388039E+01  0.87385771343E+02 -0.16655148967E+03  0.20957967742E+03  0.92432258363E+02 0.  0.
          5    1    3    3  502    0 -0.41186530699E+02 -0.66758624729E+02 -0.22130922288E+03  0.23483672800E+03  0.41800000000E+01 0.  1.
         -5    1    3    3    0  502  0.39125691895E+02 -0.20627146614E+02 -0.15835218839E+02  0.47164875696E+02  0.41800000000E+01 0.  1.
        -11    1    4    4    0    0  0.30363170930E+02  0.17112229873E+02 -0.10900946405E+03  0.11444568062E+03  0.00000000000E+00 0. -1.
         11    1    4    4    0    0 -0.28302332126E+02  0.70273541469E+02 -0.57542025618E+02  0.95133996797E+02  0.00000000000E+00 0.  1.
</event>
<event>
 8    1  0.7103328E-009  0.6012106E+02  0.7561462E-02  0.1397324E+00
          3   -1    0    0  501    0  0.00000000000E+00  0.00000000000E+00  0.50798814371E+03  0.50798814371E+03  0.00000000000E+00 0. -1.
         -3   -1    0    0    0  501 -0.00000000000E+00 -0.00000000000E+00 -0.29105097268E+02  0.29105097268E+02  0.00000000000E+00 0.  1.
         25    2    1    2    0    0 -0.38610711489E+01  0.24796393786E+02  0.15779848518E+03  0.20292550039E+03  0.12509447537E+03 0.  0.
         23    2    1    2    0    0  0.38610711489E+01 -0.24796393786E+02  0.32108456126E+03  0.33416774059E+03  0.89123590332E+02 0.  0.
          5    1    3    3  502    0 -0.11322972770E+02  0.14187204890E+02  0.17777244138E+03  0.17874562878E+03  0.41800000000E+01 0. -1.
         -5    1    3    3    0  502  0.74619016214E+01  0.10609188896E+02 -0.19973956198E+02  0.24179871609E+02  0.41800000000E+01 0. -1.
        -11    1    4    4    0    0 -0.81254825977E+01 -0.54945638313E+02  0.14822946339E+03  0.15829409481E+03  0.00000000000E+00 0.  1.
         11    1    4    4    0    0  0.11986553747E+02  0.30149244527E+02  0.17285509788E+03  0.17587364578E+03  0.00000000000E+00 0. -1.
</event>
<event>
 8    1  0.7103328E-009  0.1217946E+03  0.7561462E-02  0.1240165E+00
         -2   -1    0    0    0  501 -0.00000000000E+00  0.00000000000E+00  0.22839427552E+03  0.22839427552E+03  0.00000000000E+00 0.  1.
          2   -1    0    0  501    0  0.00000000000E+00 -0.00000000000E+00 -0.83036507662E+02  0.83036507662E+02  0.00000000000E+00 0. -1.
         25    2    1    2    0    0 -0.78788829568E+02  0.27955427289E+02  0.74250782452E+02  0.16778568855E+03  0.12509865310E+03 0.  0.
         23    2    1    2    0    0  0.78788829568E+02 -0.27955427289E+02  0.71106985407E+02  0.14364509464E+03  0.92674291258E+02 0.  0.
          5    1    3    3  502    0 -0.94198491082E+02  0.60554930276E+02  0.67629274219E+02  0.13088715152E+03  0.41800000000E+01 0. -1.
         -5    1    3    3    0  502  0.15409661514E+02 -0.32599502987E+02  0.66215082335E+01  0.36898537021E+02  0.41800000000E+01 0. -1.
        -11    1    4    4    0    0  0.44781418550E+02  0.82732004595E+01  0.81053281041E+02  0.92970186946E+02  0.00000000000E+00 0.  1.
         11    1    4    4    0    0  0.34007411018E+02 -0.36228627748E+02 -0.99462956349E+01  0.50674907691E+02  0.00000000000E+00 0. -1.
</event>
<event>
 8    1  0.7103328E-009  0.1051120E+03  0.7561462E-02  0.1269899E+00
         -1   -1    0    0    0  501 -0.00000000000E+00  0.00000000000E+00  0.15956462172E+03  0.15956462172E+03  0.00000000000E+00 0.  1.
          1   -1    0    0  501    0  0.00000000000E+00 -0.00000000000E+00 -0.14042670034E+03  0.14042670034E+03  0.00000000000E+00 0. -1.
         25    2    1    2    0    0  0.25710179505E+02  0.93717448308E+02 -0.20538466651E+02  0.15973108890E+03  0.12509284033E+03 0.  0.
         23    2    1    2    0    0 -0.25710179505E+02 -0.93717448308E+02  0.39676388032E+02  0.14026023317E+03  0.93030875481E+02 0.  0.
          5    1    3    3  502    0 -0.84597963167E+01  0.49721031593E+02 -0.69141289126E+02  0.85683950646E+02  0.41800000000E+01 0. -1.
         -5    1    3    3    0  502  0.34169975822E+02  0.43996416715E+02  0.48602822475E+02  0.74047138257E+02  0.41800000000E+01 0. -1.
        -11    1    4    4    0    0 -0.30732836855E+02 -0.43373306322E+02  0.64765228299E+02  0.83787145548E+02  0.00000000000E+00 0.  1.
         11    1    4    4    0    0  0.50226573501E+01 -0.50344141986E+02 -0.25088840266E+02  0.56473087618E+02  0.00000000000E+00 0. -1.
</event>
<event>
 8    1  0.7103328E-009  0.7473043E+02  0.7561462E-02  0.1344708E+00
         -1   -1    0    0    0  501 -0.00000000000E+00  0.00000000000E+00  0.11583716237E+03  0.11583716237E+03  0.00000000000E+00 0.  1.
          1   -1    0    0  501    0  0.00000000000E+00 -0.00000000000E+00 -0.12555536063E+03  0.12555536063E+03  0.00000000000E+00 0. -1.
         25    2    1    2    0    0  0.48480518438E+02 -0.42339259059E+01 -0.15500162937E+02  0.13511767199E+03  0.12509293920E+03 0.  0.
         23    2    1    2    0    0 -0.48480518438E+02  0.42339259059E+01  0.57819646743E+01  0.10627485100E+03  0.94300721331E+02 0.  0.
          5    1    3    3  502    0  0.61187187270E+02 -0.24290999114E+02  0.38218761629E+02  0.76236937664E+02  0.41800000000E+01 0.  1.
         -5    1    3    3    0  502 -0.12706668832E+02  0.20057073208E+02 -0.53718924566E+02  0.58880734328E+02  0.41800000000E+01 0.  1.
        -11    1    4    4    0    0 -0.27771046312E+01  0.12619064402E+02  0.44158360767E+02  0.46009932864E+02  0.00000000000E+00 0.  1.
         11    1    4    4    0    0 -0.45703413806E+02 -0.83851384964E+01 -0.38376396093E+02  0.60264918138E+02  0.00000000000E+00 0. -1.
</event>
<event>
 8    1  0.7103328E-009  0.1064998E+03  0.7561462E-02  0.1267192E+00
          1   -1    0    0  501    0  0.00000000000E+00  0.00000000000E+00  0.48607586738E+02  0.48607586738E+02  0.00000000000E+00 0. -1.
         -1   -1    0    0    0  501 -0.00000000000E+00 -0.00000000000E+00 -0.30019636247E+03  0.30019636247E+03  0.00000000000E+00 0.  1.
         25    2    1    2    0    0 -0.51761641139E+02  0.16630260009E+02 -0.14340990247E+03  0.19791299869E+03  0.12508925567E+03 0.  0.
         23    2    1    2    0    0  0.51761641139E+02 -0.16630260009E+02 -0.10817887326E+03  0.15089095051E+03  0.90053191420E+02 0.  0.
          5    1    3    3  502    0  0.66279484159E+01  0.61762690719E+02 -0.60007968231E+02  0.86469580294E+02  0.41800000000E+01 0.  1.
         -5    1    3    3    0  502 -0.58389589555E+02 -0.45132430709E+02 -0.83401934235E+02  0.11144341840E+03  0.41800000000E+01 0.  1.
        -11    1    4    4    0    0  0.47368729277E+02 -0.34385944464E+02 -0.21585542875E+02  0.62386900478E+02  0.00000000000E+00 0. -1.
         11    1    4    4    0    0  0.43929118621E+01  0.17755684455E+02 -0.86593330387E+02  0.88504050035E+02  0.00000000000E+00 0.  1.
</event>
<event>
 8    1  0.7103328E-009  0.1013472E+03  0.7561462E-02  0.1277488E+00
          1   -1    0    0  501    0  0.00000000000E+00  0.00000000000E+00  0.34253337252E+03  0.34253337252E+03  0.00000000000E+00 0. -1.
         -1   -1    0    0    0  501 -0.00000000000E+00 -0.00000000000E+00 -0.54867382996E+02  0.54867382996E+02  0.00000000000E+00 0.  1.
         25    2    1    2    0    0 -0.50166303819E+02  0.47744770635E+02  0.89254122604E+02  0.16855025697E+03  0.12508664821E+03 0.  0.
         23    2    1    2    0    0  0.50166303819E+02 -0.47744770635E+02  0.19841186692E+03  0.22885049855E+03  0.90603866301E+02 0.  0.
          5    1    3    3  502    0 -0.14966275423E+02 -0.23230556551E+02 -0.19395104240E+02  0.34018974503E+02  0.41800000000E+01 0.  1.
         -5    1    3    3    0  502 -0.35200028396E+02  0.70975327187E+02  0.10864922684E+03  0.13453128247E+03  0.41800000000E+01 0.  1.
        -11    1    4    4    0    0  0.46090618201E+02  0.13859977918E+01  0.34233287504E+02  0.57429818469E+02  0.00000000000E+00 0.  1.
         11    1    4    4    0    0  0.40756856182E+01 -0.49130768427E+02  0.16417857942E+03  0.17142068008E+03  0.00000000000E+00 0. -1.
</event>
<event>
 8    1  0.7103328E-009  0.1378977E+03  0.7561462E-02  0.1216186E+00
          2   -1    0    0  501    0  0.00000000000E+00  0.00000000000E+00  0.17879831818E+03  0.17879831818E+03  0.00000000000E+00 0. -1.
         -2   -1    0    0    0  501 -0.00000000000E+00 -0.00000000000E+00 -0.14828090003E+03  0.14828090003E+03  0.00000000000E+00 0.  1.
         25    2    1    2    0    0 -0.10638324708E+03 -0.12389146006E+02 -0.40990266542E+02  0.16969641080E+03  0.12508310713E+03 0.  0.
         23    2    1    2    0    0  0.10638324708E+03  0.12389146006E+02  0.71507684690E+02  0.15738280741E+03  0.90471613783E+02 0.  0.
          5    1    3    3  502    0 -0.87857982522E+02 -0.61118518583E+02 -0.47168552768E+02  0.11703351305E+03  0.41800000000E+01 0. -1.
         -5    1    3    3    0  502 -0.18525264555E+02  0.48729372577E+02  0.61782862263E+01  0.52662897749E+02  0.41800000000E+01 0. -1.
        -11    1    4    4    0    0  0.68786807304E+02 -0.14331961000E+02 -0.23524427729E+01  0.70303370845E+02  0.00000000000E+00 0.  1.
         11    1    4    4    0    0  0.37596439773E+02  0.26721107007E+02  0.73860127463E+02  0.87079436563E+02  0.00000000000E+00 0. -1.
</event>
<event>
 8    1  0.7103328E-009  0.1317576E+03  0.7561462E-02  0.1224871E+00
         -3   -1    0    0    0  501 -0.00000000000E+00  0.00000000000E+00  0.35873458232E+03  0.35873458232E+03  0.00000000000E+00 0.  1.
          3   -1    0    0  501    0  0.00000000000E+00 -0.00000000000E+00 -0.61421366052E+02  0.61421366052E+02  0.00000000000E+00 0. -1.
         25    2    1    2    0    0  0.17591161996E+02  0.97371552755E+02  0.16494216515E+03  0.22944304587E+03  0.12509006830E+03 0.  0.
         23    2    1    2    0    0 -0.17591161996E+02 -0.97371552755E+02  0.13237105112E+03  0.19071290251E+03  0.95176928616E+02 0.  0.
          5    1    3    3  502    0  0.69150660356E+02  0.32539881833E+02  0.80754007831E+02  0.11126248208E+03  0.41800000000E+01 0.  1.
         -5    1    3    3    0  502 -0.51559498360E+02  0.64831670922E+02  0.84188157319E+02  0.11818056379E+03  0.41800000000E+01 0.  1.
        -11    1    4    4    0    0 -0.20780341167E+02 -0.29464566140E+02  0.11503841163E+03  0.12055629137E+03  0.00000000000E+00 0.  1.
         11    1    4    4    0    0  0.31891791706E+01 -0.67906986616E+02  0.17332639489E+02  0.70156611140E+02  0.00000000000E+00 0. -1.
</event>
<event>
 8    1  0.7103328E-009  0.3205302E+03  0.7561462E-02  0.1075406E+00
         -2   -1    0    0    0  501 -0.00000000000E+00  0.00000000000E+00  0.26039516549E+03  0.26039516549E+03  0.00000000000E+00 0.  1.
          2   -1    0    0  501    0  0.00000000000E+00 -0.00000000000E+00 -0.46461986042E+03  0.46461986042E+03  0.00000000000E+00 0. -1.
         25    2    1    2    0    0  0.30452009555E+03 -0.46891262119E+02 -0.22756739375E+03  0.40294545858E+03  0.12508734881E+03 0.  0.
         23    2    1    2    0    0 -0.30452009555E+03  0.46891262119E+02  0.23342698828E+02  0.32206956733E+03  0.90844072755E+02 0.  0.
          5    1    3    3  502    0  0.18512439835E+03  0.25541199746E+02 -0.92261575756E+02  0.20845399135E+03  0.41800000000E+01 0. -1.
         -5    1    3    3    0  502  0.11939569721E+03 -0.72432461864E+02 -0.13530581800E+03  0.19449146723E+03  0.41800000000E+01 0. -1.
        -11    1    4    4    0    0 -0.32107480015E+02  0.25813476869E+02  0.26209113663E+02  0.48827691938E+02  0.00000000000E+00 0.  1.
         11    1    4    4    0    0 -0.27241261554E+03  0.21077785250E+02 -0.28664148354E+01  0.27324187539E+03  0.00000000000E+00 0. -1.
</event>
<event>
 8    1  0.7103328E-009  0.1333815E+03  0.7561462E-02  0.1222523E+00
          1   -1    0    0  501    0  0.00000000000E+00  0.00000000000E+00  0.38399765467E+03  0.38399765467E+03  0.00000000000E+00 0. -1.
         -1   -1    0    0    0  501 -0.00000000000E+00 -0.00000000000E+00 -0.10850683844E+03  0.10850683844E+03  0.00000000000E+00 0.  1.
         25    2    1    2    0    0 -0.67809262975E+02 -0.92481649199E+02  0.29798138086E+03  0.34291589043E+03  0.12508977970E+03 0.  0.
         23    2    1    2    0    0  0.67809262975E+02  0.92481649199E+02 -0.22490564633E+02  0.14958860268E+03  0.93380795520E+02 0.  0.
          5    1    3    3  502    0 -0.28748151339E+02 -0.98056387294E+02  0.28229667935E+03  0.30025056014E+03  0.41800000000E+01 0. -1.
         -5    1    3    3    0  502 -0.39061111636E+02  0.55747380946E+01  0.15684701512E+02  0.42665330288E+02  0.41800000000E+01 0. -1.
        -11    1    4    4    0    0  0.37657775069E+02  0.13050979882E+02 -0.46555842684E+02  0.61285255870E+02  0.00000000000E+00 0.  1.
         11    1    4    4    0    0  0.30151487906E+02  0.79430669317E+02  0.24065278051E+02  0.88303346815E+02  0.00000000000E+00 0. -1.
</event>
<event>
 8    1  0.7103328E-009  0.1327677E+03  0.7561462E-02  0.1223406E+00
         -1   -1    0    0    0  501 -0.00000000000E+00  0.00000000000E+00  0.91588539690E+02  0.91588539690E+02  0.00000000000E+00 0.  1.
          1   -1    0    0  501    0  0.00000000000E+00 -0.00000000000E+00 -0.19641814911E+03  0.19641814911E+03  0.00000000000E+00 0. -1.
         25    2    1    2    0    0  0.64017200783E+02 -0.42545226423E+02 -0.43625286210E+02  0.15316384223E+03  0.12509076178E+03 0.  0.
         23    2    1    2    0    0 -0.64017200783E+02  0.42545226423E+02 -0.61204323212E+02  0.13484284657E+03  0.92348935044E+02 0.  0.
          5    1    3    3  502    0  0.57792565624E+02 -0.85226247304E+02 -0.35991101708E+02  0.10916192410E+03  0.41800000000E+01 0. -1.
         -5    1    3    3    0  502  0.62246351587E+01  0.42681020881E+02 -0.76341845019E+01  0.44001918133E+02  0.41800000000E+01 0. -1.
        -11    1    4    4    0    0 -0.44818927926E+02 -0.23329728652E+02 -0.17411155382E+02  0.53443061955E+02  0.00000000000E+00 0. -1.
         11    1    4    4    0    0 -0.19198272857E+02  0.65874955075E+02 -0.43793167830E+02  0.81399784615E+02  0.00000000000E+00 0.  1.
</event>
<event>
 8    1  0.7103328E-009  0.8981693E+02  0.7561462E-02  0.1303296E+00
         -1   -1    0    0    0  501 -0.00000000000E+00  0.00000000000E+00  0.93465774280E+02  0.93465774280E+02  0.00000000000E+00 0.  1.
          1   -1    0    0  501    0  0.00000000000E+00 -0.00000000000E+00 -0.13062490091E+03  0.13062490091E+03  0.00000000000E+00 0. -1.
         25    2    1    2    0    0  0.62625553568E+01 -0.17057889030E+02 -0.24331420028E+02  0.12872465574E+03  0.12509127794E+03 0.  0.
         23    2    1    2    0    0 -0.62625553568E+01  0.17057889030E+02 -0.12827706603E+02  0.95366019449E+02  0.92735842214E+02 0.  0.
          5    1    3    3  502    0  0.40428546745E+02  0.29927678079E+02 -0.44294807204E+02  0.67153820832E+02  0.41800000000E+01 0. -1.
         -5    1    3    3    0  502 -0.34165991388E+02 -0.46985567108E+02  0.19963387176E+02  0.61570834910E+02  0.41800000000E+01 0. -1.
        -11    1    4    4    0    0 -0.35885471630E+02  0.20109366547E+02 -0.38279769194E+02  0.56191586795E+02  0.00000000000E+00 0. -1.
         11    1    4    4    0    0  0.29622916274E+02 -0.30514775174E+01  0.25452062591E+02  0.39174432654E+02  0.00000000000E+00 0.  1.
</event>
<event>
 8    1  0.7103328E-009  0.1653120E+03  0.7561462E-02  0.1182827E+00
          1   -1    0    0  501    0  0.00000000000E+00  0.00000000000E+00  0.47611476547E+03  0.47611476547E+03  0.00000000000E+00 0. -1.
         -1   -1    0    0    0  501 -0.00000000000E+00 -0.00000000000E+00 -0.58396128932E+02  0.58396128932E+02  0.00000000000E+00 0.  1.
         25    2    1    2    0    0  0.44800999881E+02  0.11682220132E+03  0.20178036617E+03  0.26836013593E+03  0.12508912853E+03 0.  0.
         23    2    1    2    0    0 -0.44800999881E+02 -0.11682220132E+03  0.21593827037E+03  0.26615075847E+03  0.92478826300E+02 0.  0.
          5    1    3    3  502    0 -0.35446372229E+02  0.30320435131E+01  0.57964091485E+02  0.68139172975E+02  0.41800000000E+01 0.  1.
         -5    1    3    3    0  502  0.80247372110E+02  0.11379015780E+03  0.14381627468E+03  0.20022096296E+03  0.41800000000E+01 0.  1.
        -11    1    4    4    0    0  0.10727660475E+02 -0.95371142382E+02  0.13752378617E+03  0.16770071336E+03  0.00000000000E+00 0.  1.
         11    1    4    4    0    0 -0.55528660356E+02 -0.21451058934E+02  0.78414484199E+02  0.98450045112E+02  0.00000000000E+00 0. -1.
</event>
<event>
 8    1  0.7103328E-009  0.9033465E+02  0.7561462E-02  0.1302043E+00
         -2   -1    0    0    0  501 -0.00000000000E+00  0.00000000000E+00  0.24307816107E+02  0.24307816107E+02  0.00000000000E+00 0.  1.
          2   -1    0    0  501    0  0.00000000000E+00 -0.00000000000E+00 -0.63714514178E+03  0.63714514178E+03  0.00000000000E+00 0. -1.
         25    2    1    2    0    0  0.25893785253E+02 -0.29576797875E+02 -0.46945343256E+03  0.48742125163E+03  0.12509067159E+03 0.  0.
         23    2    1    2    0    0 -0.25893785253E+02  0.29576797875E+02 -0.14338389312E+03  0.17403170625E+03  0.90458934821E+02 0.  0.
          5    1    3    3  502    0  0.41354419751E+02  0.37377749756E+02 -0.28740538919E+03  0.29279107628E+03  0.41800000000E+01 0. -1.
         -5    1    3    3    0  502 -0.15460634497E+02 -0.66954547631E+02 -0.18204804336E+03  0.19463017536E+03  0.41800000000E+01 0. -1.
        -11    1    4    4    0    0 -0.36415033227E+02  0.19276150613E+02 -0.15164891673E+03  0.15714648762E+03  0.00000000000E+00 0. -1.
         11    1    4    4    0    0  0.10521247974E+02  0.10300647262E+02  0.82650236104E+01  0.16885218632E+02  0.00000000000E+00 0.  1.
</event>
<event>
 8    1  0.7103328E-009  0.8491963E+02  0.7561462E-02  0.1315643E+00
          2   -1    0    0  501    0  0.00000000000E+00  0.00000000000E+00  0.15701498639E+04  0.15701498639E+04  0.00000000000E+00 0. -1.
         -2   -1    0    0    0  501 -0.00000000000E+00 -0.00000000000E+00 -0.12070151344E+02  0.12070151344E+02  0.00000000000E+00 0.  1.
         25    2    1    2    0    0  0.48255930861E+02  0.15050209216E+02  0.12398785852E+04  0.12471973514E+04  0.12508870336E+03 0.  0.
         23    2    1    2    0    0 -0.48255930861E+02 -0.15050209216E+02  0.31820112734E+03  0.33502266380E+03  0.91831825413E+02 0.  0.
          5    1    3    3  502    0  0.13228931965E+02  0.36759943479E+02  0.11444453739E+03  0.12100133315E+03  0.41800000000E+01 0.  1.
         -5    1    3    3    0  502  0.35026998896E+02 -0.21709734263E+02  0.11254340478E+04  0.11261960183E+04  0.41800000000E+01 0.  1.
        -11    1    4    4    0    0  0.14270917238E+01  0.25166878851E+02  0.27201580652E+02  0.37085500831E+02  0.00000000000E+00 0.  1.
         11    1    4    4    0    0 -0.49683022585E+02 -0.40217088067E+02  0.29099954669E+03  0.29793716297E+03  0.00000000000E+00 0. -1.
</event>
<event>
 8    1  0.7103328E-009  0.1609741E+03  0.7561462E-02  0.1187601E+00
         -4   -1    0    0    0  501 -0.00000000000E+00  0.00000000000E+00  0.46724442853E+03  0.46724442853E+03  0.00000000000E+00 0.  1.
          4   -1    0    0  501    0  0.00000000000E+00 -0.00000000000E+00 -0.93210306530E+02  0.93210306530E+02  0.00000000000E+00 0. -1.
         25    2    1    2    0    0  0.13555903103E+03 -0.25961438082E+02  0.34395787034E+03  0.39115874940E+03  0.12509158049E+03 0.  0.
         23    2    1    2    0    0 -0.13555903103E+03  0.25961438082E+02  0.30076251667E+02  0.16929598566E+03  0.93307570360E+02 0.  0.
          5    1    3    3  502    0  0.13584805857E+03 -0.60134057560E+02  0.30420961827E+03  0.33857312968E+03  0.41800000000E+01 0.  1.
         -5    1    3    3    0  502 -0.28902754616E+00  0.34172619478E+02  0.39748252068E+02  0.52585619720E+02  0.41800000000E+01 0.  1.
        -11    1    4    4    0    0 -0.94633183628E+02  0.10770476930E+02 -0.25525068019E+02  0.98605130263E+02  0.00000000000E+00 0. -1.
         11    1    4    4    0    0 -0.40925847398E+02  0.15190961152E+02  0.55601319686E+02  0.70690855398E+02  0.00000000000E+00 0.  1.
</event>
<event>
 8    1  0.7103328E-009  0.9673332E+02  0.7561462E-02  0.1287319E+00
         -2   -1    0    0    0  501 -0.00000000000E+00  0.00000000000E+00  0.67156646985E+03  0.67156646985E+03  0.00000000000E+00 0.  1.
          2   -1    0    0  501    0  0.00000000000E+00 -0.00000000000E+00 -0.22301318034E+02  0.22301318034E+02  0.00000000000E+00 0. -1.
         25    2    1    2    0    0  0.21786379311E+02 -0.44894202693E+02  0.28483415500E+03  0.31506770540E+03  0.12508807846E+03 0.  0.
         23    2    1    2    0    0 -0.21786379311E+02  0.44894202693E+02  0.36443099682E+03  0.37880008248E+03  0.90495388227E+02 0.  0.
          5    1    3    3  502    0 -0.69371003427E+01 -0.58364093500E+02  0.27550596972E+03  0.28173658357E+03  0.41800000000E+01 0.  1.
         -5    1    3    3    0  502  0.28723479654E+02  0.13469890807E+02  0.93281852821E+01  0.33331121830E+02  0.41800000000E+01 0.  1.
        -11    1    4    4    0    0 -0.48996491841E+02 -0.12074223247E+01  0.19777204836E+03  0.20375450226E+03  0.00000000000E+00 0. -1.
         11    1    4    4    0    0  0.27210112530E+02  0.46101625018E+02  0.16665894846E+03  0.17504558022E+03  0.00000000000E+00 0.  1.
</event>
<event>
 8    1  0.7103328E-009  0.1432423E+03  0.7561462E-02  0.1209032E+00
         -1   -1    0    0    0  501 -0.00000000000E+00  0.00000000000E+00  0.88727037659E+02  0.88727037659E+02  0.00000000000E+00 0.  1.
          1   -1    0    0  501    0  0.00000000000E+00 -0.00000000000E+00 -0.24620871076E+03  0.24620871076E+03  0.00000000000E+00 0. -1.
         25    2    1    2    0    0  0.53287534478E+02 -0.81078648839E+02 -0.58507288699E+02  0.16877430598E+03  0.12509338471E+03 0.  0.
         23    2    1    2    0    0 -0.53287534478E+02  0.81078648839E+02 -0.98974384400E+02  0.16616144244E+03  0.91653628173E+02 0.  0.
          5    1    3    3  502    0 -0.36114153018E+02 -0.61985393671E+01 -0.32639434951E+02  0.49248949759E+02  0.41800000000E+01 0.  1.
         -5    1    3    3    0  502  0.89401687496E+02 -0.74880109472E+02 -0.25867853748E+02  0.11952535622E+03  0.41800000000E+01 0.  1.
        -11    1    4    4    0    0 -0.77783817558E+02  0.74127397224E+02 -0.85736451753E+02  0.13746247652E+03  0.00000000000E+00 0.  1.
         11    1    4    4    0    0  0.24496283079E+02  0.69512516145E+01 -0.13237932647E+02  0.28698965913E+02  0.00000000000E+00 0. -1.
</event>
<event>
 8    1  0.7103328E-009  0.8378695E+02  0.7561462E-02  0.1318636E+00
         -1   -1    0    0    0  501 -0.00000000000E+00  0.00000000000E+00  0.12280023175E+03  0.12280023175E+03  0.00000000000E+00 0.  1.
          1   -1    0    0  501    0  0.00000000000E+00 -0.00000000000E+00 -0.99709588792E+02  0.99709588792E+02  0.00000000000E+00 0. -1.
         25    2    1    2    0    0  0.11829923480E+02  0.16381852274E+02  0.29328399853E+02  0.13006243272E+03  0.12509104362E+03 0.  0.
         23    2    1    2    0    0 -0.11829923480E+02 -0.16381852274E+02 -0.62377568966E+01  0.92447387822E+02  0.89996098419E+02 0.  0.
          5    1    3    3  502    0 -0.42446981016E+01 -0.52236478731E+02 -0.24675466293E+01  0.52632958862E+02  0.41800000000E+01 0. -1.
         -5    1    3    3    0  502  0.16074621582E+02  0.68618331006E+02  0.31795946482E+02  0.77429473857E+02  0.41800000000E+01 0. -1.
        -11    1    4    4    0    0  0.96387543405E+01  0.75536907437E+01  0.36766414545E+02  0.38752200810E+02  0.00000000000E+00 0.  1.
         11    1    4    4    0    0 -0.21468677821E+02 -0.23935543018E+02 -0.43004171442E+02  0.53695187013E+02  0.00000000000E+00 0. -1.
</event>
<event>
 8    1  0.7103328E-009  0.1388877E+03  0.7561462E-02  0.1214833E+00
          2   -1    0    0  501    0  0.00000000000E+00  0.00000000000E+00  0.74210471803E+03  0.74210471803E+03  0.00000000000E+00 0. -1.
         -2   -1    0    0    0  501 -0.00000000000E+00 -0.00000000000E+00 -0.33420224898E+02  0.33420224898E+02  0.00000000000E+00 0.  1.
         25    2    1    2    0    0 -0.10142563152E+03 -0.49306542715E+02  0.33796047067E+03  0.37760278265E+03  0.12509311672E+03 0.  0.
         23    2    1    2    0    0  0.10142563152E+03  0.49306542715E+02  0.37072402247E+03  0.39792216028E+03  0.90484534155E+02 0.  0.
          5    1    3    3  502    0 -0.51037996096E+02 -0.79067886179E+02  0.27879514020E+03  0.29428015609E+03  0.41800000000E+01 0. -1.
         -5    1    3    3    0  502 -0.50387635421E+02  0.29761343464E+02  0.59165330471E+02  0.83322626566E+02  0.41800000000E+01 0. -1.
        -11    1    4    4    0    0  0.49854896356E+02  0.53542059594E+02  0.30819680769E+03  0.31676100630E+03  0.00000000000E+00 0. -1.
         11    1    4    4    0    0  0.51570735161E+02 -0.42355168786E+01  0.62527214775E+02  0.81161153982E+02  0.00000000000E+00 0.  1.
</event>
<event>
 8    1  0.7103328E-009  0.1655817E+03  0.7561462E-02  0.1182535E+00
          1   -1    0    0  501    0  0.00000000000E+00  0.00000000000E+00  0.41835657950E+03  0.41835657950E+03  0.00000000000E+00 0. -1.
         -1   -1    0    0    0  501 -0.00000000000E+00 -0.00000000000E+00 -0.89607156600E+02  0.89607156600E+02  0.00000000000E+00 0.  1.
         25    2    1    2    0    0  0.13761905021E+03  0.66912148645E+02  0.23600789418E+03  0.30783517754E+03  0.12508609754E+03 0.  0.
         23    2    1    2    0    0 -0.13761905021E+03 -0.66912148645E+02  0.92741528725E+02  0.20012855856E+03  0.89633755832E+02 0.  0.
          5    1    3    3  502    0  0.76596045082E+02  0.81828404166E+02  0.74923814645E+02  0.13488473691E+03  0.41800000000E+01 0. -1.
         -5    1    3    3    0  502  0.61023005132E+02 -0.14916255521E+02  0.16108407953E+03  0.17295044063E+03  0.41800000000E+01 0. -1.
        -11    1    4    4    0    0 -0.99663539395E+02 -0.32552186539E+02  0.13393608363E+02  0.10569699465E+03  0.00000000000E+00 0.  1.
         11    1    4    4    0    0 -0.37955510820E+02 -0.34359962106E+02  0.79347920362E+02  0.94431563914E+02  0.00000000000E+00 0. -1.
</event>
<event>
 8    1  0.7103328E-009  0.9285743E+02  0.7561462E-02  0.1296076E+00
          2   -1    0    0  501    0  0.00000000000E+00  0.00000000000E+00  0.28258128973E+03  0.28258128973E+03  0.00000000000E+00 0.  1.
         -2   -1    0    0    0  501 -0.00000000000E+00 -0.00000000000E+00 -0.67986605393E+02  0.67986605393E+02  0.00000000000E+00 0. -1.
         25    2    1    2    0    0 -0.54904564941E+02 -0.74058141836E+01  0.34209017364E+02  0.14103034825E+03  0.12509973990E+03 0.  0.
         23    2    1    2    0    0  0.54904564941E+02  0.74058141836E+01  0.18038566698E+03  0.20953754688E+03  0.91091368229E+02 0.  0.
          5    1    3    3  502    0  0.65264823229E+01 -0.16858053941E+02 -0.40028150383E+02  0.44119317507E+02  0.41800000000E+01 0.  1.
         -5    1    3    3    0  502 -0.61431047264E+02  0.94522397579E+01  0.74237167747E+02  0.96911030742E+02  0.41800000000E+01 0.  1.
        -11    1    4    4    0    0  0.36675425349E+02 -0.39884810527E+02  0.74212451283E+02  0.91887827599E+02  0.00000000000E+00 0. -1.
         11    1    4    4    0    0  0.18229139592E+02  0.47290624711E+02  0.10617321569E+03  0.11764971928E+03  0.00000000000E+00 0.  1.
</event>
<event>
 8    1  0.7103328E-009  0.1265097E+03  0.7561462E-02  0.1232729E+00
         -1   -1    0    0    0  501 -0.00000000000E+00  0.00000000000E+00  0.53435394591E+02  0.53435394591E+02  0.00000000000E+00 0.  1.
          1   -1    0    0  501    0  0.00000000000E+00 -0.00000000000E+00 -0.34174770345E+03  0.34174770345E+03  0.00000000000E+00 0. -1.
         25    2    1    2    0    0 -0.56161796754E+02 -0.55293597068E+02 -0.20763700820E+03  0.25489538366E+03  0.12508796963E+03 0.  0.
         23    2    1    2    0    0  0.56161796754E+02  0.55293597068E+02 -0.80675300654E+02  0.14028771438E+03  0.83430266559E+02 0.  0.
          5    1    3    3  502    0 -0.93554032898E+02 -0.19756829132E+02 -0.14335908827E+03  0.17237166228E+03  0.41800000000E+01 0.  1.
         -5    1    3    3    0  502  0.37392236144E+02 -0.35536767936E+02 -0.64277919935E+02  0.82523721380E+02  0.41800000000E+01 0.  1.
        -11    1    4    4    0    0  0.41532716035E+02 -0.65144865877E+01 -0.60446088032E+02  0.73628354560E+02  0.00000000000E+00 0.  1.
         11    1    4    4    0    0  0.14629080719E+02  0.61808083656E+02 -0.20229212621E+02  0.66659359817E+02  0.00000000000E+00 0. -1.
</event>
<event>
 8    1  0.7103328E-009  0.8197504E+02  0.7561462E-02  0.1323538E+00
          1   -1    0    0  501    0  0.00000000000E+00  0.00000000000E+00  0.11900666114E+03  0.11900666114E+03  0.00000000000E+00 0. -1.
         -1   -1    0    0    0  501 -0.00000000000E+00 -0.00000000000E+00 -0.16761252946E+03  0.16761252946E+03  0.00000000000E+00 0.  1.
         25    2    1    2    0    0 -0.57263160210E+02 -0.51717916861E+02  0.24486710111E+02  0.14900138106E+03  0.12509196674E+03 0.  0.
         23    2    1    2    0    0  0.57263160210E+02  0.51717916861E+02 -0.73092578426E+02  0.13761780954E+03  0.87420386875E+02 0.  0.
          5    1    3    3  502    0 -0.85461522578E+01  0.24190752697E+01 -0.46314230526E+02  0.47343098682E+02  0.41800000000E+01 0.  1.
         -5    1    3    3    0  502 -0.48717007952E+02 -0.54136992131E+02  0.70800940636E+02  0.10165828238E+03  0.41800000000E+01 0.  1.
        -11    1    4    4    0    0  0.49932027369E+02  0.29974456252E+02  0.28266959513E+01  0.58306651377E+02  0.00000000000E+00 0. -1.
         11    1    4    4    0    0  0.73311328409E+01  0.21743460609E+02 -0.75919274377E+02  0.79311158168E+02  0.00000000000E+00 0.  1.
</event>
<event>
 8    1  0.7103328E-009  0.1752714E+03  0.7561462E-02  0.1172459E+00
          3   -1    0    0  501    0  0.00000000000E+00  0.00000000000E+00  0.35529910924E+03  0.35529910924E+03  0.00000000000E+00 0. -1.
         -3   -1    0    0    0  501 -0.00000000000E+00 -0.00000000000E+00 -0.11634856906E+03  0.11634856906E+03  0.00000000000E+00 0.  1.
         25    2    1    2    0    0 -0.83897160806E+02 -0.10926899671E+03  0.67613138779E+01  0.18620220915E+03  0.12508836915E+03 0.  0.
         23    2    1    2    0    0  0.83897160806E+02  0.10926899671E+03  0.23218922630E+03  0.28544546915E+03  0.92675950567E+02 0.  0.
          5    1    3    3  502    0 -0.21214826196E+02 -0.11905781523E+03  0.15616323199E+02  0.12200891020E+03  0.41800000000E+01 0. -1.
         -5    1    3    3    0  502 -0.62682334610E+02  0.97888185263E+01 -0.88550093209E+01  0.64193298952E+02  0.41800000000E+01 0. -1.
        -11    1    4    4    0    0  0.17288674973E+02  0.96625436036E+02  0.13306488797E+03  0.16535306947E+03  0.00000000000E+00 0.  1.
         11    1    4    4    0    0  0.66608485833E+02  0.12643560670E+02  0.99124338333E+02  0.12009239968E+03  0.00000000000E+00 0. -1.
</event>
<event>
 8    1  0.7103328E-009  0.1008219E+03  0.7561462E-02  0.1278577E+00
          1   -1    0    0  501    0  0.00000000000E+00  0.00000000000E+00  0.33144289879E+03  0.33144289879E+03  0.00000000000E+00 0. -1.
         -1   -1    0    0    0  501 -0.00000000000E+00 -0.00000000000E+00 -0.46029793891E+02  0.46029793891E+02  0.00000000000E+00 0.  1.
         25    2    1    2    0    0  0.43925663382E+02  0.36095749952E+02  0.13265948427E+03  0.19099299710E+03  0.12508964428E+03 0.  0.
         23    2    1    2    0    0 -0.43925663382E+02 -0.36095749952E+02  0.15275362063E+03  0.18647969558E+03  0.90601551759E+02 0.  0.
          5    1    3    3  502    0  0.42490216077E+02 -0.34209824265E+02  0.98566615079E+02  0.11273234029E+03  0.41800000000E+01 0. -1.
         -5    1    3    3    0  502  0.14354473046E+01  0.70305574216E+02  0.34092869192E+02  0.78260656812E+02  0.41800000000E+01 0. -1.
        -11    1    4    4    0    0  0.56270747414E+01 -0.25110762488E+02  0.23197932088E+00  0.25734571636E+02  0.00000000000E+00 0.  1.
         11    1    4    4    0    0 -0.49552738123E+02 -0.10984987463E+02  0.15252164131E+03  0.16074512395E+03  0.00000000000E+00 0. -1.
</event>
<event>
 8    1  0.7103328E-009  0.1035827E+03  0.7561462E-02  0.1272938E+00
         -1   -1    0    0    0  501 -0.00000000000E+00  0.00000000000E+00  0.65587527051E+02  0.65587527051E+02  0.00000000000E+00 0.  1.
          1   -1    0    0  501    0  0.00000000000E+00 -0.00000000000E+00 -0.39298517216E+03  0.39298517216E+03  0.00000000000E+00 0. -1.
         25    2    1    2    0    0 -0.68319473554E+02  0.28825712811E+02 -0.31000599584E+03  0.34241777640E+03  0.12509094272E+03 0.  0.
         23    2    1    2    0    0  0.68319473554E+02 -0.28825712811E+02 -0.17391649271E+02  0.11615492282E+03  0.87698485986E+02 0.  0.
          5    1    3    3  502    0 -0.68428781421E+02  0.57209076872E+02 -0.29839396894E+03  0.31146718880E+03  0.41800000000E+01 0.  1.
         -5    1    3    3    0  502  0.10930786726E+00 -0.28383364061E+02 -0.11612026904E+02  0.30950587594E+02  0.41800000000E+01 0.  1.
        -11    1    4    4    0    0  0.62894955549E+02 -0.31838906249E+01  0.23807703862E+02  0.67325473309E+02  0.00000000000E+00 0.  1.
         11    1    4    4    0    0  0.54245180051E+01 -0.25641822186E+02 -0.41199353133E+02  0.48829449508E+02  0.00000000000E+00 0. -1.
</event>
<event>
 8    1  0.7103328E-009  0.1010024E+03  0.7561462E-02  0.1278202E+00
          2   -1    0    0  501    0  0.00000000000E+00  0.00000000000E+00  0.18105020429E+03  0.18105020429E+03  0.00000000000E+00 0. -1.
         -2   -1    0    0    0  501 -0.00000000000E+00 -0.00000000000E+00 -0.73053259104E+02  0.73053259104E+02  0.00000000000E+00 0.  1.
         25    2    1    2    0    0 -0.11612706515E+02  0.28435944599E+02  0.35766877704E+02  0.13367643987E+03  0.12508662254E+03 0.  0.
         23    2    1    2    0    0  0.11612706515E+02 -0.28435944599E+02  0.72230067483E+02  0.12042702353E+03  0.91334700136E+02 0.  0.
          5    1    3    3  502    0  0.82274485362E+01 -0.39917866454E+02 -0.17627325909E+02  0.44601815999E+02  0.41800000000E+01 0.  1.
         -5    1    3    3    0  502 -0.19840155052E+02  0.68353811054E+02  0.53394203613E+02  0.89074623869E+02  0.41800000000E+01 0.  1.
        -11    1    4    4    0    0 -0.19952574191E+02  0.22337371257E+02  0.46564679828E+02  0.55365447519E+02  0.00000000000E+00 0. -1.
         11    1    4    4    0    0  0.31565280706E+02 -0.50773315856E+02  0.25665387655E+02  0.65061576008E+02  0.00000000000E+00 0.  1.
</event>
<event>
 8    1  0.7103328E-009  0.1091910E+03  0.7561462E-02  0.1262075E+00
         -1   -1    0    0    0  501 -0.00000000000E+00  0.00000000000E+00  0.17878051597E+02  0.17878051597E+02  0.00000000000E+00 0.  1.
          1   -1    0    0  501    0  0.00000000000E+00 -0.00000000000E+00 -0.94498946214E+03  0.94498946214E+03  0.00000000000E+00 0. -1.
         25    2    1    2    0    0 -0.56705525790E+02  0.37204592125E+02 -0.66902994181E+03  0.68399616839E+03  0.12509994804E+03 0.  0.
         23    2    1    2    0    0  0.56705525790E+02 -0.37204592125E+02 -0.25808146873E+03  0.27887134535E+03  0.81015334498E+02 0.  0.
          5    1    3    3  502    0 -0.13215797817E+01  0.54644303921E+02 -0.12047720891E+03  0.13236304919E+03  0.41800000000E+01 0. -1.
         -5    1    3    3    0  502 -0.55383946008E+02 -0.17439711795E+02 -0.54855273291E+03  0.55163311920E+03  0.41800000000E+01 0. -1.
        -11    1    4    4    0    0  0.10741182103E+02  0.25459610449E+02 -0.58671522251E+02  0.64853005177E+02  0.00000000000E+00 0. -1.
         11    1    4    4    0    0  0.45964343687E+02 -0.62664202574E+02 -0.19940994648E+03  0.21401834017E+03  0.00000000000E+00 0.  1.
</event>
<event>
 8    1  0.7103328E-009  0.8414701E+02  0.7561462E-02  0.1317678E+00
         -2   -1    0    0    0  501 -0.00000000000E+00  0.00000000000E+00  0.37316137447E+03  0.37316137447E+03  0.00000000000E+00 0.  1.
          2   -1    0    0  501    0  0.00000000000E+00 -0.00000000000E+00 -0.40696154065E+02  0.40696154065E+02  0.00000000000E+00 0. -1.
         25    2    1    2    0    0  0.14048685278E+02 -0.23718703779E+01  0.92213189201E+02  0.15605764748E+03  0.12509086997E+03 0.  0.
         23    2    1    2    0    0 -0.14048685278E+02  0.23718703779E+01  0.24025203120E+03  0.25779988105E+03  0.92394528219E+02 0.  0.
          5    1    3    3  502    0 -0.21795976751E+02 -0.31475017171E+02 -0.13351707508E+02  0.40761278217E+02  0.41800000000E+01 0.  1.
         -5    1    3    3    0  502  0.35844662029E+02  0.29103146793E+02  0.10556489671E+03  0.11529636927E+03  0.41800000000E+01 0.  1.
        -11    1    4    4    0    0 -0.43472676013E+02  0.21324629608E+02  0.19309570842E+03  0.19907427256E+03  0.00000000000E+00 0.  1.
         11    1    4    4    0    0  0.29423990736E+02 -0.18952759230E+02  0.47156322783E+02  0.58725608482E+02  0.00000000000E+00 0. -1.
</event>
<event>
 8    1  0.7103328E-009  0.1073487E+03  0.7561462E-02  0.1265560E+00
          1   -1    0    0  501    0  0.00000000000E+00  0.00000000000E+00  0.14832604902E+03  0.14832604902E+03  0.00000000000E+00 0. -1.
         -1   -1    0    0    0  501 -0.00000000000E+00 -0.00000000000E+00 -0.10048640791E+03  0.10048640791E+03  0.00000000000E+00 0.  1.
         25    2    1    2    0    0 -0.10158071740E+02  0.23351033972E+02  0.81262439669E+02  0.15132277935E+03  0.12508613928E+03 0.  0.
         23    2    1    2    0    0  0.10158071740E+02 -0.23351033972E+02 -0.33422798565E+02  0.97489677587E+02  0.87969861675E+02 0.  0.
          5    1    3    3  502    0 -0.39301730252E+02 -0.38160024870E+02  0.56406763943E+02  0.78740135366E+02  0.41800000000E+01 0.  1.
         -5    1    3    3    0  502  0.29143658512E+02  0.61511058842E+02  0.24855675726E+02  0.72582643980E+02  0.41800000000E+01 0.  1.
        -11    1    4    4    0    0 -0.39187779721E+02 -0.10726047802E+02 -0.15762701067E+02  0.43579730677E+02  0.00000000000E+00 0.  1.
         11    1    4    4    0    0  0.49345851461E+02 -0.12624986170E+02 -0.17660097498E+02  0.53909946910E+02  0.00000000000E+00 0. -1.
</event>
<event>
 8    1  0.7103328E-009  0.2491094E+03  0.7561462E-02  0.1113869E+00
          1   -1    0    0  501    0  0.00000000000E+00  0.00000000000E+00  0.66088977406E+02  0.66088977406E+02  0.00000000000E+00 0. -1.
         -1   -1    0    0    0  501 -0.00000000000E+00 -0.00000000000E+00 -0.14648731337E+04  0.14648731337E+04  0.00000000000E+00 0.  1.
         25    2    1    2    0    0 -0.24030012790E+03 -0.31173200936E+02 -0.11155486713E+04  0.11483954032E+04  0.12508894429E+03 0.  0.
         23    2    1    2    0    0  0.24030012790E+03  0.31173200936E+02 -0.28323548502E+03  0.38256670799E+03  0.86133769018E+02 0.  0.
          5    1    3    3  502    0 -0.61070464503E+02 -0.10359157617E+02 -0.10601854005E+03  0.12285893136E+03  0.41800000000E+01 0.  1.
         -5    1    3    3    0  502 -0.17922966340E+03 -0.20814043319E+02 -0.10095301313E+04  0.10255364718E+04  0.41800000000E+01 0.  1.
        -11    1    4    4    0    0  0.18560063068E+03  0.58372961311E+02 -0.23240602184E+03  0.30309661118E+03  0.00000000000E+00 0. -1.
         11    1    4    4    0    0  0.54699497221E+02 -0.27199760374E+02 -0.50829463182E+02  0.79470096817E+02  0.00000000000E+00 0.  1.
</event>
<event>
 8    1  0.7103328E-009  0.1166835E+03  0.7561462E-02  0.1248671E+00
          2   -1    0    0  501    0  0.00000000000E+00  0.00000000000E+00  0.11450224247E+03  0.11450224247E+03  0.00000000000E+00 0. -1.
         -2   -1    0    0    0  501 -0.00000000000E+00 -0.00000000000E+00 -0.16502236183E+03  0.16502236183E+03  0.00000000000E+00 0.  1.
         25    2    1    2    0    0  0.32147965065E+02 -0.53263770389E+02  0.30087032462E+02  0.14291101027E+03  0.12509119250E+03 0.  0.
         23    2    1    2    0    0 -0.32147965065E+02  0.53263770389E+02 -0.80607151826E+02  0.13661359403E+03  0.91078209551E+02 0.  0.
          5    1    3    3  502    0  0.27090403428E+02  0.33600340161E+02 -0.13617279728E+02  0.45450803338E+02  0.41800000000E+01 0.  1.
         -5    1    3    3    0  502  0.50575616367E+01 -0.86864110550E+02  0.43704312190E+02  0.97460206933E+02  0.41800000000E+01 0.  1.
        -11    1    4    4    0    0 -0.25164716741E+02 -0.18220108678E+02 -0.49277452238E+02  0.58253777800E+02  0.00000000000E+00 0. -1.
         11    1    4    4    0    0 -0.69832483244E+01  0.71483879067E+02 -0.31329699587E+02  0.78359816232E+02  0.00000000000E+00 0.  1.
</event>
<event>
 8    1  0.7103328E-009  0.8527742E+02  0.7561462E-02  0.1314709E+00
          1   -1    0    0  501    0  0.00000000000E+00  0.00000000000E+00  0.28957289890E+03  0.28957289890E+03  0.00000000000E+00 0. -1.
         -1   -1    0    0    0  501 -0.00000000000E+00 -0.00000000000E+00 -0.87884826387E+02  0.87884826387E+02  0.00000000000E+00 0.  1.
         25    2    1    2    0    0  0.14836985639E+02 -0.30111387642E+02  0.24392630509E+03  0.27617950585E+03  0.12509294676E+03 0.  0.
         23    2    1    2    0    0 -0.14836985639E+02  0.30111387642E+02 -0.42238232573E+02  0.10127821944E+03  0.85711012322E+02 0.  0.
          5    1    3    3  502    0 -0.28903666906E+02 -0.16497801113E+02  0.62836016854E+01  0.34125583545E+02  0.41800000000E+01 0. -1.
         -5    1    3    3    0  502  0.43740652545E+02 -0.13613586529E+02  0.23764270340E+03  0.24205392231E+03  0.41800000000E+01 0. -1.
        -11    1    4    4    0    0  0.29000502267E+01 -0.29078063343E+02 -0.66391819178E+01  0.29967028475E+02  0.00000000000E+00 0. -1.
         11    1    4    4    0    0 -0.17737035866E+02  0.59189450985E+02 -0.35599050655E+02  0.71311190964E+02  0.00000000000E+00 0.  1.
</event>
<event>
 8    1  0.7103328E-009  0.8656160E+02  0.7561462E-02  0.1311399E+00
         -2   -1    0    0    0  501 -0.00000000000E+00  0.00000000000E+00  0.11475982666E+03  0.11475982666E+03  0.00000000000E+00 0.  1.
          2   -1    0    0  501    0  0.00000000000E+00 -0.00000000000E+00 -0.12701154439E+03  0.12701154439E+03  0.00000000000E+00 0. -1.
         25    2    1    2    0    0  0.21065707936E+02  0.17912298452E+02 -0.53143086522E+02  0.13869637960E+03  0.12509150084E+03 0.  0.
         23    2    1    2    0    0 -0.21065707936E+02 -0.17912298452E+02  0.40891368794E+02  0.10307499144E+03  0.90486105742E+02 0.  0.
          5    1    3    3  502    0  0.70066635918E+02 -0.30783690415E+00 -0.10233836856E+02  0.70933997838E+02  0.41800000000E+01 0. -1.
         -5    1    3    3    0  502 -0.49000927982E+02  0.18220135357E+02 -0.42909249667E+02  0.67762381765E+02  0.41800000000E+01 0. -1.
        -11    1    4    4    0    0  0.76970320141E+00  0.12788603964E+02 -0.24477034198E+02  0.27627269817E+02  0.00000000000E+00 0. -1.
         11    1    4    4    0    0 -0.21835411137E+02 -0.30700902417E+02  0.65368402993E+02  0.75447721626E+02  0.00000000000E+00 0.  1.
</event>
<event>
 8    1  0.7103328E-009  0.1057147E+03  0.7561462E-02  0.1268718E+00
          2   -1    0    0  501    0  0.00000000000E+00  0.00000000000E+00  0.17362053591E+04  0.17362053591E+04  0.00000000000E+00 0. -1.
         -2   -1    0    0    0  501 -0.00000000000E+00 -0.00000000000E+00 -0.15097653408E+02  0.15097653408E+02  0.00000000000E+00 0.  1.
         25    2    1    2    0    0 -0.25003498458E+02 -0.72799153597E+02  0.14205996933E+04  0.14281722231E+04  0.12509004163E+03 0.  0.
         23    2    1    2    0    0  0.25003498458E+02  0.72799153597E+02  0.30050801241E+03  0.32313078943E+03  0.90462975059E+02 0.  0.
          5    1    3    3  502    0  0.53633827423E+00 -0.68467571606E+02  0.13646722483E+04  0.13663952260E+04  0.41800000000E+01 0. -1.
         -5    1    3    3    0  502 -0.25539836733E+02 -0.43315819908E+01  0.55927445006E+02  0.61776997076E+02  0.41800000000E+01 0. -1.
        -11    1    4    4    0    0 -0.29268144370E+02  0.49554918487E+02  0.11755312490E+03  0.13088564244E+03  0.00000000000E+00 0.  1.
         11    1    4    4    0    0  0.54271642829E+02  0.23244235110E+02  0.18295488750E+03  0.19224514699E+03  0.00000000000E+00 0. -1.
</event>
<event>
 8    1  0.7103328E-009  0.1534326E+03  0.7561462E-02  0.1196317E+00
          2   -1    0    0  501    0  0.00000000000E+00  0.00000000000E+00  0.14005526451E+04  0.14005526451E+04  0.00000000000E+00 0. -1.
         -2   -1    0    0    0  501 -0.00000000000E+00 -0.00000000000E+00 -0.21247842161E+02  0.21247842161E+02  0.00000000000E+00 0.  1.
         25    2    1    2    0    0 -0.12585917699E+03 -0.27363605243E+02  0.87879430065E+03  0.89694814751E+03  0.12508899687E+03 0.  0.
         23    2    1    2    0    0  0.12585917699E+03  0.27363605243E+02  0.50051050227E+03  0.52485233973E+03  0.91487246754E+02 0.  0.
          5    1    3    3  502    0 -0.42986638276E+01  0.24498831263E+02  0.36672844231E+02  0.44508888415E+02  0.41800000000E+01 0. -1.
         -5    1    3    3    0  502 -0.12156051316E+03 -0.51862436506E+02  0.84212145642E+03  0.85243925910E+03  0.41800000000E+01 0. -1.
        -11    1    4    4    0    0  0.83351845117E+02 -0.20058096692E+02  0.19886458006E+03  0.21655710224E+03  0.00000000000E+00 0.  1.
         11    1    4    4    0    0  0.42507331870E+02  0.47421701935E+02  0.30164592221E+03  0.30829523749E+03  0.00000000000E+00 0. -1.
</event>
<event>
 8    1  0.7103328E-009  0.1144943E+03  0.7561462E-02  0.1252466E+00
          2   -1    0    0  501    0  0.00000000000E+00  0.00000000000E+00  0.13762593316E+03  0.13762593316E+03  0.00000000000E+00 0.  1.
         -2   -1    0    0    0  501 -0.00000000000E+00 -0.00000000000E+00 -0.19646416215E+03  0.19646416215E+03  0.00000000000E+00 0. -1.
         25    2    1    2    0    0  0.87838601943E+02 -0.27848117179E+02 -0.11136568374E+03  0.19115626685E+03  0.12508902917E+03 0.  0.
         23    2    1    2    0    0 -0.87838601943E+02  0.27848117179E+02  0.52527454751E+02  0.14293382847E+03  0.95811315595E+02 0.  0.
          5    1    3    3  502    0  0.24371893433E+02 -0.23969261908E+02  0.23705581069E+02  0.41808392456E+02  0.41800000000E+01 0.  1.
         -5    1    3    3    0  502  0.63466708510E+02 -0.38788552704E+01 -0.13507126481E+03  0.14934787439E+03  0.41800000000E+01 0.  1.
        -11    1    4    4    0    0 -0.49786191498E+02  0.62125772088E+02  0.19412760239E+02  0.81945907046E+02  0.00000000000E+00 0.  1.
         11    1    4    4    0    0 -0.38052410445E+02 -0.34277654910E+02  0.33114694512E+02  0.60987921422E+02  0.00000000000E+00 0. -1.
</event>
<event>
 8    1  0.7103328E-009  0.1818539E+03  0.7561462E-02  0.1166021E+00
          2   -1    0    0  501    0  0.00000000000E+00  0.00000000000E+00  0.77590878070E+03  0.77590878070E+03  0.00000000000E+00 0. -1.
         -2   -1    0    0    0  501 -0.00000000000E+00 -0.00000000000E+00 -0.57158013414E+02  0.57158013414E+02  0.00000000000E+00 0.  1.
         25    2    1    2    0    0 -0.20117658666E+02  0.17753386354E+03  0.42033104173E+03  0.47354882553E+03  0.12508921865E+03 0.  0.
         23    2    1    2    0    0  0.20117658666E+02 -0.17753386354E+03  0.29841972555E+03  0.35951796858E+03  0.90971667262E+02 0.  0.
          5    1    3    3  502    0 -0.13623298492E+02  0.14882356186E+02  0.19199950751E+03  0.19310194736E+03  0.41800000000E+01 0. -1.
         -5    1    3    3    0  502 -0.64943601734E+01  0.16265150735E+03  0.22833153422E+03  0.28044687817E+03  0.41800000000E+01 0. -1.
        -11    1    4    4    0    0  0.17325524083E+02 -0.54174313990E+02  0.17893261559E+03  0.18775492272E+03  0.00000000000E+00 0.  1.
         11    1    4    4    0    0  0.27921345828E+01 -0.12335954954E+03  0.11948710996E+03  0.17176304587E+03  0.00000000000E+00 0. -1.
</event>
<event>
 8    1  0.7103328E-009  0.6836749E+02  0.7561462E-02  0.1365734E+00
          2   -1    0    0  501    0  0.00000000000E+00  0.00000000000E+00  0.72100291331E+02  0.72100291331E+02  0.00000000000E+00 0. -1.
         -2   -1    0    0    0  501 -0.00000000000E+00 -0.00000000000E+00 -0.29320972716E+03  0.29320972716E+03  0.00000000000E+00 0.  1.
         25    2    1    2    0    0 -0.13394458127E+02  0.16488402464E+01 -0.13302940998E+01  0.12583263516E+03  0.12509976901E+03 0.  0.
         23    2    1    2    0    0  0.13394458127E+02 -0.16488402464E+01 -0.21977914173E+03  0.23947738334E+03  0.94151026577E+02 0.  0.
          5    1    3    3  502    0  0.82068439573E+01  0.20611872953E+02  0.56650452955E+02  0.60983176487E+02  0.41800000000E+01 0.  1.
         -5    1    3    3    0  502 -0.21601302084E+02 -0.18963032707E+02 -0.57980747055E+02  0.64849458673E+02  0.41800000000E+01 0.  1.
        -11    1    4    4    0    0 -0.17862530504E+02  0.33568366031E+02 -0.15372268065E+03  0.15835582635E+03  0.00000000000E+00 0.  1.
         11    1    4    4    0    0  0.31256988631E+02 -0.35217206277E+02 -0.66056461083E+02  0.81121556981E+02  0.00000000000E+00 0. -1.
</event>
<event>
 8    1  0.7103328E-009  0.1889742E+03  0.7561462E-02  0.1159390E+00
          2   -1    0    0  501    0  0.00000000000E+00  0.00000000000E+00  0.31432346005E+03  0.31432346005E+03  0.00000000000E+00 0. -1.
         -2   -1    0    0    0  501 -0.00000000000E+00 -0.00000000000E+00 -0.33162382104E+03  0.33162382104E+03  0.00000000000E+00 0.  1.
         25    2    1    2    0    0 -0.17250931890E+03  0.58109512721E+02 -0.25255059329E+03  0.33550735153E+03  0.12508876922E+03 0.  0.
         23    2    1    2    0    0  0.17250931890E+03 -0.58109512721E+02  0.23525023230E+03  0.31043992955E+03  0.88848733744E+02 0.  0.
          5    1    3    3  502    0 -0.89345870518E+02  0.16961747120E+02 -0.21828413747E+03  0.23650755277E+03  0.41800000000E+01 0.  1.
         -5    1    3    3    0  502 -0.83163448387E+02  0.41147765600E+02 -0.34266455816E+02  0.98999798766E+02  0.41800000000E+01 0.  1.
        -11    1    4    4    0    0  0.10145349790E+03 -0.68222464733E+02  0.18886872026E+03  0.22498557826E+03  0.00000000000E+00 0.  1.
         11    1    4    4    0    0  0.71055821002E+02  0.10112952012E+02  0.46381512036E+02  0.85454351296E+02  0.00000000000E+00 0. -1.
</event>
<event>
 8    1  0.7103328E-009  0.1076861E+03  0.7561462E-02  0.1264916E+00
         -2   -1    0    0    0  501 -0.00000000000E+00  0.00000000000E+00  0.11362621482E+02  0.11362621482E+02  0.00000000000E+00 0.  1.
          2   -1    0    0  501    0  0.00000000000E+00 -0.00000000000E+00 -0.16381753518E+04  0.16381753518E+04  0.00000000000E+00 0. -1.
         25    2    1    2    0    0 -0.23584047007E+02 -0.26588226447E+01 -0.13711515281E+04  0.13770502041E+04  0.12508986768E+03 0.  0.
         23    2    1    2    0    0  0.23584047007E+02  0.26588226447E+01 -0.25566120218E+03  0.27248776914E+03  0.91234080368E+02 0.  0.
          5    1    3    3  502    0 -0.80363541406E+01  0.58660981363E+02 -0.48192830209E+03  0.48556982451E+03  0.41800000000E+01 0.  1.
         -5    1    3    3    0  502 -0.15547692867E+02 -0.61319804008E+02 -0.88922322605E+03  0.89148037963E+03  0.41800000000E+01 0.  1.
        -11    1    4    4    0    0  0.23988739192E+02 -0.41780001571E+02 -0.10742760932E+03  0.11773580332E+03  0.00000000000E+00 0.  1.
         11    1    4    4    0    0 -0.40469218411E+00  0.44438824216E+02 -0.14823359286E+03  0.15475196582E+03  0.00000000000E+00 0. -1.
</event>
<event>
 8    1  0.7103328E-009  0.9915693E+02  0.7561462E-02  0.1282079E+00
          2   -1    0    0  501    0  0.00000000000E+00  0.00000000000E+00  0.19111996422E+03  0.19111996422E+03  0.00000000000E+00 0.  1.
         -2   -1    0    0    0  501 -0.00000000000E+00 -0.00000000000E+00 -0.95059069767E+02  0.95059069767E+02  0.00000000000E+00 0. -1.
         25    2    1    2    0    0 -0.70101797889E+02  0.20301863847E+00  0.94278964269E+02  0.17162101249E+03  0.12510373911E+03 0.  0.
         23    2    1    2    0    0  0.70101797889E+02 -0.20301863847E+00  0.17819301785E+01  0.11455802150E+03  0.90587315502E+02 0.  0.
          5    1    3    3  502    0 -0.25605091067E+02 -0.29680568330E+02 -0.20822385866E+02  0.44582518750E+02  0.41800000000E+01 0.  1.
         -5    1    3    3    0  502 -0.44496706822E+02  0.29883586969E+02  0.11510135013E+03  0.12703849374E+03  0.41800000000E+01 0.  1.
        -11    1    4    4    0    0  0.25817614880E+02  0.38473924912E+02  0.23407981321E+02  0.51910747690E+02  0.00000000000E+00 0.  1.
         11    1    4    4    0    0  0.44284183008E+02 -0.38676943551E+02 -0.21626051142E+02  0.62647273805E+02  0.00000000000E+00 0. -1.
</event>
<event>
 8    1  0.7103328E-009  0.1209123E+03  0.7561462E-02  0.1241600E+00
          2   -1    0    0  501    0  0.00000000000E+00  0.00000000000E+00  0.21304619901E+03  0.21304619901E+03  0.00000000000E+00 0. -1.
         -2   -1    0    0    0  501 -0.00000000000E+00 -0.00000000000E+00 -0.11176291276E+03  0.11176291276E+03  0.00000000000E+00 0.  1.
         25    2    1    2    0    0 -0.90070761109E+02 -0.56928375568E+01 -0.10853267396E+02  0.15463147608E+03  0.12509176462E+03 0.  0.
         23    2    1    2    0    0  0.90070761109E+02  0.56928375568E+01  0.11213655364E+03  0.17017763569E+03  0.90778139543E+02 0.  0.
          5    1    3    3  502    0  0.27096841465E+02  0.64502619589E+01  0.17813520439E+02  0.33326245020E+02  0.41800000000E+01 0. -1.
         -5    1    3    3    0  502 -0.11716760257E+03 -0.12143099516E+02 -0.28666787836E+02  0.12130523106E+03  0.41800000000E+01 0. -1.
        -11    1    4    4    0    0  0.48636674757E+02  0.19081418193E+02  0.11523337499E+03  0.12652413748E+03  0.00000000000E+00 0. -1.
         11    1    4    4    0    0  0.41434086352E+02 -0.13388580636E+02 -0.30968213548E+01  0.43653498208E+02  0.00000000000E+00 0.  1.
</event>
<event>
 8    1  0.7103328E-009  0.1062281E+03  0.7561462E-02  0.1267719E+00
         -1   -1    0    0    0  501 -0.00000000000E+00  0.00000000000E+00  0.26087626454E+03  0.26087626454E+03  0.00000000000E+00 0.  1.
          1   -1    0    0  501    0  0.00000000000E+00 -0.00000000000E+00 -0.54263040807E+02  0.54263040807E+02  0.00000000000E+00 0. -1.
         25    2    1    2    0    0  0.26147971555E+02 -0.41128211010E+02  0.12661275860E+03  0.18452977859E+03  0.12508078346E+03 0.  0.
         23    2    1    2    0    0 -0.26147971555E+02  0.41128211010E+02  0.80000465141E+02  0.13060952676E+03  0.91013888503E+02 0.  0.
          5    1    3    3  502    0  0.68321542839E+02 -0.17112595485E+01  0.36935877474E+02  0.77797770340E+02  0.41800000000E+01 0.  1.
         -5    1    3    3    0  502 -0.42173571284E+02 -0.39416951462E+02  0.89676881123E+02  0.10673200825E+03  0.41800000000E+01 0.  1.
        -11    1    4    4    0    0  0.83845342654E+01 -0.16738443411E+02  0.56048054802E+02  0.59091965188E+02  0.00000000000E+00 0.  1.
         11    1    4    4    0    0 -0.34532505820E+02  0.57866654421E+02  0.23952410338E+02  0.71517561572E+02  0.00000000000E+00 0. -1.
</event>
<event>
 8    1  0.7103328E-009  0.1488894E+03  0.7561462E-02  0.1201844E+00
          3   -1    0    0  501    0  0.00000000000E+00  0.00000000000E+00  0.11389679588E+03  0.11389679588E+03  0.00000000000E+00 0. -1.
         -3   -1    0    0    0  501 -0.00000000000E+00 -0.00000000000E+00 -0.24012557012E+03  0.24012557012E+03  0.00000000000E+00 0.  1.
         25    2    1    2    0    0 -0.70134292916E+02  0.99593831273E+02 -0.87070771082E+02  0.19510553150E+03  0.12508836466E+03 0.  0.
         23    2    1    2    0    0  0.70134292916E+02 -0.99593831273E+02 -0.39158003164E+02  0.15891683450E+03  0.94252113005E+02 0.  0.
          5    1    3    3  502    0 -0.81797866118E+02  0.12318164233E+03 -0.72485676732E+02  0.16473085212E+03  0.41800000000E+01 0.  1.
         -5    1    3    3    0  502  0.11663573202E+02 -0.23587811056E+02 -0.14585094349E+02  0.30374679380E+02  0.41800000000E+01 0.  1.
        -11    1    4    4    0    0  0.49528436846E+02 -0.83413166681E+02 -0.69120424227E+02  0.11911530329E+03  0.00000000000E+00 0.  1.
         11    1    4    4    0    0  0.20605856070E+02 -0.16180664592E+02  0.29962421063E+02  0.39801531214E+02  0.00000000000E+00 0. -1.
</event>
<event>
 8    1  0.7103328E-009  0.1724689E+03  0.7561462E-02  0.1175297E+00
          2   -1    0    0  501    0  0.00000000000E+00  0.00000000000E+00  0.97042948751E+03  0.97042948751E+03  0.00000000000E+00 0.  1.
         -2   -1    0    0    0  501 -0.00000000000E+00 -0.00000000000E+00 -0.35304834359E+02  0.35304834359E+02  0.00000000000E+00 0. -1.
         25    2    1    2    0    0  0.11913540737E+03 -0.88169453850E+02  0.43473132597E+03  0.47603112446E+03  0.12508879963E+03 0.  0.
         23    2    1    2    0    0 -0.11913540737E+03  0.88169453850E+02  0.50039332718E+03  0.52970319741E+03  0.90691221058E+02 0.  0.
          5    1    3    3  502    0  0.96836559845E+02 -0.39714421106E+01  0.15343927106E+03  0.18153284546E+03  0.41800000000E+01 0. -1.
         -5    1    3    3    0  502  0.22298847529E+02 -0.84198011739E+02  0.28129205491E+03  0.29449827901E+03  0.41800000000E+01 0. -1.
        -11    1    4    4    0    0 -0.82632424708E+02  0.22573864886E+02  0.16386462526E+03  0.18490352188E+03  0.00000000000E+00 0. -1.
         11    1    4    4    0    0 -0.36502982666E+02  0.65595588963E+02  0.33652870192E+03  0.34479967553E+03  0.00000000000E+00 0.  1.
</event>
<event>
 8    1  0.7103328E-009  0.2211996E+03  0.7561462E-02  0.1132992E+00
          4   -1    0    0  501    0  0.00000000000E+00  0.00000000000E+00  0.16247673830E+03  0.16247673830E+03  0.00000000000E+00 0. -1.
         -4   -1    0    0    0  501 -0.00000000000E+00 -0.00000000000E+00 -0.43144825323E+03  0.43144825323E+03  0.00000000000E+00 0.  1.
         25    2    1    2    0    0  0.18580271451E+03 -0.76862697162E+02 -0.28697293192E+03  0.37206595839E+03  0.12509632612E+03 0.  0.
         23    2    1    2    0    0 -0.18580271451E+03  0.76862697162E+02  0.18001416991E+02  0.22185903313E+03  0.92015523882E+02 0.  0.
          5    1    3    3  502    0  0.12181716461E+03  0.16369740455E+02 -0.16343645095E+03  0.20453932604E+03  0.41800000000E+01 0.  1.
         -5    1    3    3    0  502  0.63985549899E+02 -0.93232437617E+02 -0.12353648096E+03  0.16752663236E+03  0.41800000000E+01 0.  1.
        -11    1    4    4    0    0 -0.12069102426E+03  0.72966749707E+02 -0.25684352948E+02  0.14335325558E+03  0.00000000000E+00 0.  1.
         11    1    4    4    0    0 -0.65111690245E+02  0.38959474549E+01  0.43685769939E+02  0.78505777548E+02  0.00000000000E+00 0. -1.
</event>
<event>
 8    1  0.7103328E-009  0.7691121E+02  0.7561462E-02  0.1338053E+00
          2   -1    0    0  501    0  0.00000000000E+00  0.00000000000E+00  0.23844281002E+03  0.23844281002E+03  0.00000000000E+00 0. -1.
         -2   -1    0    0    0  501 -0.00000000000E+00 -0.00000000000E+00 -0.53344691824E+02  0.53344691824E+02  0.00000000000E+00 0.  1.
         25    2    1    2    0    0 -0.24175583247E+02  0.20422260494E+02  0.10095674235E+03  0.16383697074E+03  0.12509501032E+03 0.  0.
         23    2    1    2    0    0  0.24175583247E+02 -0.20422260494E+02  0.84141375852E+02  0.12795053111E+03  0.91049655308E+02 0.  0.
          5    1    3    3  502    0 -0.35340440405E+02  0.31593110243E+02 -0.12506768092E+02  0.49203282319E+02  0.41800000000E+01 0.  1.
         -5    1    3    3    0  502  0.11164857158E+02 -0.11170849749E+02  0.11346351044E+03  0.11463368842E+03  0.41800000000E+01 0.  1.
        -11    1    4    4    0    0 -0.24459861115E+02 -0.31633244869E+02  0.60994890775E+02  0.72933693773E+02  0.00000000000E+00 0. -1.
         11    1    4    4    0    0  0.48635444363E+02  0.11210984374E+02  0.23146485077E+02  0.55016837336E+02  0.00000000000E+00 0.  1.
</event>
<event>
 8    1  0.7103328E-009  0.7899157E+02  0.7561462E-02  0.1331938E+00
          2   -1    0    0  501    0  0.00000000000E+00  0.00000000000E+00  0.42544485209E+03  0.42544485209E+03  0.00000000000E+00 0. -1.
         -2   -1    0    0    0  501 -0.00000000000E+00 -0.00000000000E+00 -0.54888054107E+02  0.54888054107E+02  0.00000000000E+00 0.  1.
         25    2    1    2    0    0 -0.42327152386E+02 -0.15926581919E+02  0.35897854829E+03  0.38282935439E+03  0.12508985812E+03 0.  0.
         23    2    1    2    0    0  0.42327152386E+02  0.15926581919E+02  0.11578249685E+02  0.97503551805E+02  0.85601652484E+02 0.  0.
          5    1    3    3  502    0 -0.27880198506E+02 -0.59053712772E+02  0.97708590493E+02  0.11759714077E+03  0.41800000000E+01 0.  1.
         -5    1    3    3    0  502 -0.14446953880E+02  0.43127130853E+02  0.26126995780E+03  0.26523221362E+03  0.41800000000E+01 0.  1.
        -11    1    4    4    0    0  0.13095142140E+02 -0.92809589139E+00 -0.36486830142E+02  0.38776705423E+02  0.00000000000E+00 0.  1.
         11    1    4    4    0    0  0.29232010246E+02  0.16854677811E+02  0.48065079827E+02  0.58726846382E+02  0.00000000000E+00 0. -1.
</event>
<event>
 8    1  0.7103328E-009  0.1689599E+03  0.7561462E-02  0.1178937E+00
         -2   -1    0    0    0  501 -0.00000000000E+00  0.00000000000E+00  0.84871793663E+02  0.84871793663E+02  0.00000000000E+00 0.  1.
          2   -1    0    0  501    0  0.00000000000E+00 -0.00000000000E+00 -0.41478244733E+03  0.41478244733E+03  0.00000000000E+00 0. -1.
         25    2    1    2    0    0  0.48983661974E+02 -0.12524591259E+03 -0.26823171455E+03  0.32508670674E+03  0.12508867434E+03 0.  0.
         23    2    1    2    0    0 -0.48983661974E+02  0.12524591259E+03 -0.61678939115E+02  0.17456753425E+03  0.92647691404E+02 0.  0.
          5    1    3    3  502    0  0.13577619232E+02 -0.13747746840E+03 -0.16527608099E+03  0.21544851220E+03  0.41800000000E+01 0. -1.
         -5    1    3    3    0  502  0.35406042742E+02  0.12231555811E+02 -0.10295563357E+03  0.10963819454E+03  0.41800000000E+01 0. -1.
        -11    1    4    4    0    0 -0.34150180948E+02  0.13818032975E+03 -0.46591743016E+02  0.14976925220E+03  0.00000000000E+00 0.  1.
         11    1    4    4    0    0 -0.14833481026E+02 -0.12934417154E+02 -0.15087196099E+02  0.24798282050E+02  0.00000000000E+00 0. -1.
</event>
<event>
 8    1  0.7103328E-009  0.1096955E+03  0.7561462E-02  0.1261135E+00
          1   -1    0    0  501    0  0.00000000000E+00  0.00000000000E+00  0.47377899721E+03  0.47377899721E+03  0.00000000000E+00 0. -1.
         -1   -1    0    0    0  501 -0.00000000000E+00 -0.00000000000E+00 -0.26710106676E+02  0.26710106676E+02  0.00000000000E+00 0.  1.
         25    2    1    2    0    0  0.22947501638E+02  0.16981459009E+02  0.22390508272E+03  0.25806248624E+03  0.12509117856E+03 0.  0.
         23    2    1    2    0    0 -0.22947501638E+02 -0.16981459009E+02  0.22316380782E+03  0.24242661765E+03  0.90297408857E+02 0.  0.
          5    1    3    3  502    0  0.73237825429E+02  0.16247958280E+02  0.15887671881E+03  0.17574714621E+03  0.41800000000E+01 0.  1.
         -5    1    3    3    0  502 -0.50290323791E+02  0.73350072887E+00  0.65028363908E+02  0.82315340021E+02  0.41800000000E+01 0.  1.
        -11    1    4    4    0    0 -0.57326064147E+02 -0.15463622062E+02  0.15692840983E+03  0.16778536006E+03  0.00000000000E+00 0.  1.
         11    1    4    4    0    0  0.34378562508E+02 -0.15178369467E+01  0.66235397985E+02  0.74641257595E+02  0.00000000000E+00 0. -1.
</event>
<event>
 8    1  0.7103328E-009  0.1043361E+03  0.7561462E-02  0.1271433E+00
         -2   -1    0    0    0  501 -0.00000000000E+00  0.00000000000E+00  0.30448028600E+02  0.30448028600E+02  0.00000000000E+00 0. -1.
          2   -1    0    0  501    0  0.00000000000E+00 -0.00000000000E+00 -0.46340850743E+03  0.46340850743E+03  0.00000000000E+00 0.  1.
         25    2    1    2    0    0 -0.27007011113E+01 -0.43272438361E+02 -0.31510152643E+03  0.34178458403E+03  0.12509169522E+03 0.  0.
         23    2    1    2    0    0  0.27007011113E+01  0.43272438361E+02 -0.11785895240E+03  0.15207195200E+03  0.85763326755E+02 0.  0.
          5    1    3    3  502    0 -0.48618723392E+02 -0.60750836729E+02 -0.14414401894E+03  0.16385791108E+03  0.41800000000E+01 0.  1.
         -5    1    3    3    0  502  0.45918022281E+02  0.17478398367E+02 -0.17095750749E+03  0.17792667295E+03  0.41800000000E+01 0.  1.
        -11    1    4    4    0    0  0.34089516657E+02  0.35260480884E+02 -0.10733647449E+03  0.11801065805E+03  0.00000000000E+00 0.  1.
         11    1    4    4    0    0 -0.31388815546E+02  0.80119574770E+01 -0.10522477909E+02  0.34061293947E+02  0.00000000000E+00 0. -1.
</event>
<event>
 8    1  0.7103328E-009  0.1139662E+03  0.7561462E-02  0.1253397E+00
          1   -1    0    0  501    0  0.00000000000E+00  0.00000000000E+00  0.48088922245E+02  0.48088922245E+02  0.00000000000E+00 0. -1.
         -1   -1    0    0    0  501 -0.00000000000E+00 -0.00000000000E+00 -0.31138723455E+03  0.31138723455E+03  0.00000000000E+00 0.  1.
         25    2    1    2    0    0  0.30067677320E+01 -0.45142201709E+02 -0.19148216612E+03  0.23315517452E+03  0.12509618875E+03 0.  0.
         23    2    1    2    0    0 -0.30067677320E+01  0.45142201709E+02 -0.71816146192E+02  0.12632098227E+03  0.93555185220E+02 0.  0.
          5    1    3    3  502    0 -0.37285618196E+02  0.23854479104E+02 -0.32163028431E+02  0.54874277175E+02  0.41800000000E+01 0.  1.
         -5    1    3    3    0  502  0.40292385928E+02 -0.68996680813E+02 -0.15931913769E+03  0.17828089735E+03  0.41800000000E+01 0.  1.
        -11    1    4    4    0    0 -0.47096509208E+02  0.33701935783E+02 -0.34282286957E+02  0.67299159387E+02  0.00000000000E+00 0. -1.
         11    1    4    4    0    0  0.44089741476E+02  0.11440265925E+02 -0.37533859235E+02  0.59021822888E+02  0.00000000000E+00 0.  1.
</event>
<event>
 8    1  0.7103328E-009  0.1254145E+03  0.7561462E-02  0.1234423E+00
          2   -1    0    0  501    0  0.00000000000E+00  0.00000000000E+00  0.60102733066E+03  0.60102733066E+03  0.00000000000E+00 0.  1.
         -2   -1    0    0    0  501 -0.00000000000E+00 -0.00000000000E+00 -0.30122285850E+02  0.30122285850E+02  0.00000000000E+00 0. -1.
         25    2    1    2    0    0 -0.63807463820E+02 -0.10249537712E+02  0.20484693761E+03  0.24856705696E+03  0.12508744340E+03 0.  0.
         23    2    1    2    0    0  0.63807463820E+02  0.10249537712E+02  0.36605810720E+03  0.38258255954E+03  0.90523099605E+02 0.  0.
          5    1    3    3  502    0  0.10462899799E+02 -0.53549904121E+02  0.79330289732E+02  0.96373397639E+02  0.41800000000E+01 0. -1.
         -5    1    3    3    0  502 -0.74270363619E+02  0.43300366409E+02  0.12551664788E+03  0.15219365932E+03  0.41800000000E+01 0. -1.
        -11    1    4    4    0    0  0.59528191308E+02  0.45249250079E+02  0.22126385567E+03  0.23355683253E+03  0.00000000000E+00 0.  1.
         11    1    4    4    0    0  0.42792725118E+01 -0.34999712368E+02  0.14479425152E+03  0.14902572702E+03  0.00000000000E+00 0. -1.
</event>
<event>
 8    1  0.7103328E-009  0.1296402E+03  0.7561462E-02  0.1227991E+00
          2   -1    0    0  501    0  0.00000000000E+00  0.00000000000E+00  0.33506803635E+03  0.33506803635E+03  0.00000000000E+00 0. -1.
         -2   -1    0    0    0  501 -0.00000000000E+00 -0.00000000000E+00 -0.56128691873E+02  0.56128691873E+02  0.00000000000E+00 0.  1.
         25    2    1    2    0    0 -0.81241490659E+02 -0.13033839284E+01  0.17912184442E+03  0.23309909052E+03  0.12509465313E+03 0.  0.
         23    2    1    2    0    0  0.81241490659E+02  0.13033839284E+01  0.99817500062E+02  0.15809763770E+03  0.91812042312E+02 0.  0.
          5    1    3    3  502    0 -0.22809718702E+02  0.57570917096E+02  0.10399627780E+03  0.12110900857E+03  0.41800000000E+01 0. -1.
         -5    1    3    3    0  502 -0.58431771957E+02 -0.58874301024E+02  0.75125566620E+02  0.11199008195E+03  0.41800000000E+01 0. -1.
        -11    1    4    4    0    0 -0.25278365535E+01 -0.25947589331E+02  0.15355648924E+01  0.26115614281E+02  0.00000000000E+00 0.  1.
         11    1    4    4    0    0  0.83769327212E+02  0.27250973259E+02  0.98281935170E+02  0.13198202342E+03  0.00000000000E+00 0. -1.
</event>
<event>
 8    1  0.7103328E-009  0.1379148E+03  0.7561462E-02  0.1216163E+00
         -1   -1    0    0    0  501 -0.00000000000E+00  0.00000000000E+00  0.27874791764E+02  0.27874791764E+02  0.00000000000E+00 0.  1.
          1   -1    0    0  501    0  0.00000000000E+00 -0.00000000000E+00 -0.86370519206E+03  0.86370519206E+03  0.00000000000E+00 0. -1.
         25    2    1    2    0    0  0.51377786296E+01 -0.99563911010E+02 -0.59151839007E+03  0.61276470909E+03  0.12508882353E+03 0.  0.
         23    2    1    2    0    0 -0.51377786296E+01  0.99563911010E+02 -0.24431201023E+03  0.27881527473E+03  0.90056815057E+02 0.  0.
          5    1    3    3  502    0 -0.57338021681E+02 -0.33622084390E+02 -0.19893149287E+03  0.20978394730E+03  0.41800000000E+01 0.  1.
         -5    1    3    3    0  502  0.62475800310E+02 -0.65941826620E+02 -0.39258689719E+03  0.40298076179E+03  0.41800000000E+01 0.  1.
        -11    1    4    4    0    0  0.22730773906E+02  0.82598117124E+02 -0.22533636895E+03  0.24107180716E+03  0.00000000000E+00 0. -1.
         11    1    4    4    0    0 -0.27868552536E+02  0.16965793886E+02 -0.18975641276E+02  0.37743467573E+02  0.00000000000E+00 0.  1.
</event>
<event>
 8    1  0.7103328E-009  0.1088638E+03  0.7561462E-02  0.1262689E+00
          2   -1    0    0  501    0  0.00000000000E+00  0.00000000000E+00  0.14882744347E+03  0.14882744347E+03  0.00000000000E+00 0. -1.
         -2   -1    0    0    0  501 -0.00000000000E+00 -0.00000000000E+00 -0.12117742243E+03  0.12117742243E+03  0.00000000000E+00 0.  1.
         25    2    1    2    0    0 -0.77960971678E+02 -0.74851897915E+01  0.55823862519E+01  0.14769308473E+03  0.12509253803E+03 0.  0.
         23    2    1    2    0    0  0.77960971678E+02  0.74851897915E+01  0.22067634790E+02  0.12231178117E+03  0.91319494826E+02 0.  0.
          5    1    3    3  502    0 -0.14796483826E+02  0.23334693476E+02 -0.50475910844E+02  0.57695180291E+02  0.41800000000E+01 0.  1.
         -5    1    3    3    0  502 -0.63164487853E+02 -0.30819883268E+02  0.56058297096E+02  0.89997904440E+02  0.41800000000E+01 0.  1.
        -11    1    4    4    0    0  0.64853788671E+02 -0.35849458467E+02  0.62952137011E+01  0.74369532020E+02  0.00000000000E+00 0.  1.
         11    1    4    4    0    0  0.13107183007E+02  0.43334648258E+02  0.15772421089E+02  0.47942249145E+02  0.00000000000E+00 0. -1.
</event>
<event>
 8    1  0.7103328E-009  0.1150344E+03  0.7561462E-02  0.1251521E+00
          1   -1    0    0  501    0  0.00000000000E+00  0.00000000000E+00  0.66963421691E+02  0.66963421691E+02  0.00000000000E+00 0. -1.
         -1   -1    0    0    0  501 -0.00000000000E+00 -0.00000000000E+00 -0.43503211863E+03  0.43503211863E+03  0.00000000000E+00 0.  1.
         25    2    1    2    0    0  0.11080093850E+03  0.26299439429E+02 -0.29511967872E+03  0.34016346197E+03  0.12508815933E+03 0.  0.
         23    2    1    2    0    0 -0.11080093850E+03 -0.26299439429E+02 -0.72949018223E+02  0.16183207836E+03  0.88879434282E+02 0.  0.
          5    1    3    3  502    0  0.74218624802E+02  0.24626073287E+02 -0.29295593462E+03  0.30324165245E+03  0.41800000000E+01 0.  1.
         -5    1    3    3    0  502  0.36582313698E+02  0.16733661419E+01 -0.21637441037E+01  0.36921809521E+02  0.41800000000E+01 0.  1.
        -11    1    4    4    0    0 -0.86843720996E+02 -0.13978378694E+02 -0.93181546220E+02  0.12814065515E+03  0.00000000000E+00 0.  1.
         11    1    4    4    0    0 -0.23957217504E+02 -0.12321060734E+02  0.20232527997E+02  0.33691423201E+02  0.00000000000E+00 0. -1.
</event>
<event>
 8    1  0.7103328E-009  0.1024463E+03  0.7561462E-02  0.1275234E+00
         -1   -1    0    0    0  501 -0.00000000000E+00  0.00000000000E+00  0.36348058429E+03  0.36348058429E+03  0.00000000000E+00 0.  1.
          1   -1    0    0  501    0  0.00000000000E+00 -0.00000000000E+00 -0.53074366565E+02  0.53074366565E+02  0.00000000000E+00 0. -1.
         25    2    1    2    0    0 -0.71016491875E+02  0.22990456407E+02  0.10645637358E+03  0.18042195732E+03  0.12508884844E+03 0.  0.
         23    2    1    2    0    0  0.71016491875E+02 -0.22990456407E+02  0.20394984415E+03  0.23613299353E+03  0.92689527470E+02 0.  0.
          5    1    3    3  502    0 -0.79430154348E+01  0.21520152508E+02  0.11434922777E+03  0.11670229967E+03  0.41800000000E+01 0. -1.
         -5    1    3    3    0  502 -0.63073476440E+02  0.14703038994E+01 -0.78928541893E+01  0.63719657650E+02  0.41800000000E+01 0. -1.
        -11    1    4    4    0    0  0.89693705178E+02 -0.34845807467E+02  0.15538140923E+03  0.18276370915E+03  0.00000000000E+00 0. -1.
         11    1    4    4    0    0 -0.18677213303E+02  0.11855351060E+02  0.48568434915E+02  0.53369284384E+02  0.00000000000E+00 0.  1.
</event>
<event>
 8    1  0.7103328E-009  0.1059520E+03  0.7561462E-02  0.1268255E+00
         -2   -1    0    0    0  501 -0.00000000000E+00  0.00000000000E+00  0.95318393347E+01  0.95318393347E+01  0.00000000000E+00 0.  1.
          2   -1    0    0  501    0  0.00000000000E+00 -0.00000000000E+00 -0.12871795943E+04  0.12871795943E+04  0.00000000000E+00 0. -1.
         25    2    1    2    0    0  0.17424736037E+02  0.41093422956E+01 -0.86136083989E+03  0.87058068349E+03  0.12509085434E+03 0.  0.
         23    2    1    2    0    0 -0.17424736037E+02 -0.41093422956E+01 -0.41628691504E+03  0.42613075011E+03  0.89286686801E+02 0.  0.
          5    1    3    3  502    0  0.40423734817E+02 -0.48979940760E+02 -0.33151343178E+03  0.33756738702E+03  0.41800000000E+01 0. -1.
         -5    1    3    3    0  502 -0.22998998780E+02  0.53089283055E+02 -0.52984740812E+03  0.53301329646E+03  0.41800000000E+01 0. -1.
        -11    1    4    4    0    0 -0.37741270576E+02  0.31563030580E+02 -0.19832835040E+03  0.20433982230E+03  0.00000000000E+00 0.  1.
         11    1    4    4    0    0  0.20316534540E+02 -0.35672372875E+02 -0.21795856464E+03  0.22179092781E+03  0.00000000000E+00 0. -1.
</event>
<event>
 8    1  0.7103328E-009  0.1277630E+03  0.7561462E-02  0.1230813E+00
         -1   -1    0    0    0  501 -0.00000000000E+00  0.00000000000E+00  0.53240957166E+02  0.53240957166E+02  0.00000000000E+00 0.  1.
          1   -1    0    0  501    0  0.00000000000E+00 -0.00000000000E+00 -0.48207159156E+03  0.48207159156E+03  0.00000000000E+00 0. -1.
         25    2    1    2    0    0 -0.11675999281E+02 -0.11647309793E+03 -0.22695836727E+03  0.28435915787E+03  0.12509084176E+03 0.  0.
         23    2    1    2    0    0  0.11675999281E+02  0.11647309793E+03 -0.20187226713E+03  0.25095339086E+03  0.92319448909E+02 0.  0.
          5    1    3    3  502    0 -0.42181571339E+02 -0.80662473811E+02 -0.21801557513E+03  0.23629215612E+03  0.41800000000E+01 0.  1.
         -5    1    3    3    0  502  0.30505572058E+02 -0.35810624118E+02 -0.89427921337E+01  0.48067001752E+02  0.41800000000E+01 0.  1.
        -11    1    4    4    0    0  0.53665692513E+01  0.30220888989E+02  0.69047757632E+00  0.30701448763E+02  0.00000000000E+00 0.  1.
         11    1    4    4    0    0  0.63094300302E+01  0.86252208940E+02 -0.20256274470E+03  0.22025194209E+03  0.00000000000E+00 0. -1.
</event>
<event>
 8    1  0.7103328E-009  0.5357123E+02  0.7561462E-02  0.1426979E+00
          1   -1    0    0  501    0  0.00000000000E+00  0.00000000000E+00  0.67037324555E+02  0.67037324555E+02  0.00000000000E+00 0. -1.
         -1   -1    0    0    0  501 -0.00000000000E+00 -0.00000000000E+00 -0.17983183620E+03  0.17983183620E+03  0.00000000000E+00 0.  1.
         25    2    1    2    0    0 -0.10141772584E+02 -0.14556333517E+02 -0.51089973302E+02  0.13627663174E+03  0.12508554109E+03 0.  0.
         23    2    1    2    0    0  0.10141772584E+02  0.14556333517E+02 -0.61704538339E+02  0.11059252901E+03  0.90047293267E+02 0.  0.
          5    1    3    3  502    0 -0.48017705732E+01 -0.62228743298E+01  0.41815154196E+02  0.42752317902E+02  0.41800000000E+01 0.  1.
         -5    1    3    3    0  502 -0.53400020107E+01 -0.83334591871E+01 -0.92905127498E+02  0.93524313838E+02  0.41800000000E+01 0.  1.
        -11    1    4    4    0    0 -0.27176073739E+02  0.35496061667E+02 -0.14775308619E+02  0.47083108675E+02  0.00000000000E+00 0.  1.
         11    1    4    4    0    0  0.37317846322E+02 -0.20939728151E+02 -0.46929229720E+02  0.63509420335E+02  0.00000000000E+00 0. -1.
</event>
<event>
 8    1  0.7103328E-009  0.1214655E+03  0.7561462E-02  0.1240699E+00
          2   -1    0    0  501    0  0.00000000000E+00  0.00000000000E+00  0.12046816025E+03  0.12046816025E+03  0.00000000000E+00 0.  1.
         -2   -1    0    0    0  501 -0.00000000000E+00 -0.00000000000E+00 -0.19086238533E+03  0.19086238533E+03  0.00000000000E+00 0. -1.
         25    2    1    2    0    0  0.80551338072E+02 -0.22288722430E+02 -0.10531339031E+03  0.18364032838E+03  0.12509018674E+03 0.  0.
         23    2    1    2    0    0 -0.80551338072E+02  0.22288722430E+02  0.34919165230E+02  0.12769021720E+03  0.90000768077E+02 0.  0.
          5    1    3    3  502    0  0.17385051323E+02 -0.57065670726E+02 -0.92705666849E+02  0.11032018787E+03  0.41800000000E+01 0.  1.
         -5    1    3    3    0  502  0.63166286749E+02  0.34776948296E+02 -0.12607723456E+02  0.73320140515E+02  0.41800000000E+01 0.  1.
        -11    1    4    4    0    0 -0.94293774440E+02  0.23274670749E+02  0.48311672641E+02  0.10847600615E+03  0.00000000000E+00 0.  1.
         11    1    4    4    0    0  0.13742436368E+02 -0.98594831895E+00 -0.13392507412E+02  0.19214211047E+02  0.00000000000E+00 0. -1.
</event>
<event>
 8    1  0.7103328E-009  0.1089425E+03  0.7561462E-02  0.1262541E+00
          1   -1    0    0  501    0  0.00000000000E+00  0.00000000000E+00  0.76708944800E+02  0.76708944800E+02  0.00000000000E+00 0. -1.
         -1   -1    0    0    0  501 -0.00000000000E+00 -0.00000000000E+00 -0.16929856496E+03  0.16929856496E+03  0.00000000000E+00 0.  1.
         25    2    1    2    0    0 -0.33908850692E+02 -0.14390097697E+02 -0.48074574919E+02  0.13898256415E+03  0.12509237914E+03 0.  0.
         23    2    1    2    0    0  0.33908850692E+02  0.14390097697E+02 -0.44515045239E+02  0.10702494560E+03  0.90088093897E+02 0.  0.
          5    1    3    3  502    0  0.45407452600E+02 -0.10337243133E+02 -0.14193997679E+01  0.46778012388E+02  0.41800000000E+01 0. -1.
         -5    1    3    3    0  502 -0.79316303292E+02 -0.40528545640E+01 -0.46655175151E+02  0.92204551766E+02  0.41800000000E+01 0. -1.
        -11    1    4    4    0    0  0.34254944050E+02 -0.31004628696E+02 -0.40519540818E+02  0.61453408210E+02  0.00000000000E+00 0.  1.
         11    1    4    4    0    0 -0.34609335832E+00  0.45394726393E+02 -0.39955044213E+01  0.45571537395E+02  0.00000000000E+00 0. -1.
</event>
<event>
 8    1  0.7103328E-009  0.7937983E+02  0.7561462E-02  0.1330821E+00
          1   -1    0    0  501    0  0.00000000000E+00  0.00000000000E+00  0.16800522419E+03  0.16800522419E+03  0.00000000000E+00 0. -1.
         -1   -1    0    0    0  501 -0.00000000000E+00 -0.00000000000E+00 -0.81516281631E+02  0.81516281631E+02  0.00000000000E+00 0.  1.
         25    2    1    2    0    0 -0.14579729678E+02  0.31229187190E+02  0.14824258225E+02  0.13059551416E+03  0.12509036348E+03 0.  0.
         23    2    1    2    0    0  0.14579729678E+02 -0.31229187190E+02  0.71664684330E+02  0.11892599166E+03  0.88429259079E+02 0.  0.
          5    1    3    3  502    0  0.18540639651E+02  0.11888476588E+01 -0.48990984776E+02  0.52561941238E+02  0.41800000000E+01 0.  1.
         -5    1    3    3    0  502 -0.33120369329E+02  0.30040339532E+02  0.63815243001E+02  0.78033572922E+02  0.41800000000E+01 0.  1.
        -11    1    4    4    0    0 -0.23240021741E+02 -0.48080862562E+02  0.43078773236E+02  0.68612306904E+02  0.00000000000E+00 0. -1.
         11    1    4    4    0    0  0.37819751420E+02  0.16851675371E+02  0.28585911094E+02  0.50313684752E+02  0.00000000000E+00 0.  1.
</event>
<event>
 8    1  0.7103328E-009  0.2759810E+03  0.7561462E-02  0.1097905E+00
          2   -1    0    0  501    0  0.00000000000E+00  0.00000000000E+00  0.13474702718E+03  0.13474702718E+03  0.00000000000E+00 0. -1.
         -2   -1    0    0    0  501 -0.00000000000E+00 -0.00000000000E+00 -0.58873987696E+03  0.58873987696E+03  0.00000000000E+00 0.  1.
         25    2    1    2    0    0  0.14253797531E+03 -0.21132121367E+03 -0.29059320649E+03  0.40628175372E+03  0.12508685781E+03 0.  0.
         23    2    1    2    0    0 -0.14253797531E+03  0.21132121367E+03 -0.16339964330E+03  0.31720515042E+03  0.94582949151E+02 0.  0.
          5    1    3    3  502    0  0.15014941475E+03 -0.12470234854E+03 -0.22060024836E+03  0.29458014946E+03  0.41800000000E+01 0. -1.
         -5    1    3    3    0  502 -0.76114394394E+01 -0.86618865125E+02 -0.69992958127E+02  0.11170160426E+03  0.41800000000E+01 0. -1.
        -11    1    4    4    0    0 -0.10331293941E+03  0.20552734575E+03 -0.12407692328E+03  0.26136207872E+03  0.00000000000E+00 0.  1.
         11    1    4    4    0    0 -0.39225035904E+02  0.57938679132E+01 -0.39322720021E+02  0.55843071700E+02  0.00000000000E+00 0. -1.
</event>
<event>
 8    1  0.7103328E-009  0.3397062E+03  0.7561462E-02  0.1066921E+00
         -2   -1    0    0    0  501 -0.00000000000E+00  0.00000000000E+00  0.62925773359E+02  0.62925773359E+02  0.00000000000E+00 0.  1.
          2   -1    0    0  501    0  0.00000000000E+00 -0.00000000000E+00 -0.19965236850E+04  0.19965236850E+04  0.00000000000E+00 0. -1.
         25    2    1    2    0    0  0.18803595209E+03  0.27441304680E+03 -0.11298674537E+04  0.11844448046E+04  0.12509593379E+03 0.  0.
         23    2    1    2    0    0 -0.18803595209E+03 -0.27441304680E+03 -0.80373045794E+03  0.87500465377E+03  0.94818012881E+02 0.  0.
          5    1    3    3  502    0  0.14150042195E+03  0.25744031931E+03 -0.82950340467E+03  0.87999503304E+03  0.41800000000E+01 0.  1.
         -5    1    3    3    0  502  0.46535530147E+02  0.16972727489E+02 -0.30036404906E+03  0.30444977158E+03  0.41800000000E+01 0.  1.
        -11    1    4    4    0    0 -0.74389330221E+02 -0.14980276567E+03 -0.50471604607E+03  0.53170755892E+03  0.00000000000E+00 0.  1.
         11    1    4    4    0    0 -0.11364662187E+03 -0.12461028113E+03 -0.29901441186E+03  0.34329709484E+03  0.00000000000E+00 0. -1.
</event>
<event>
 8    1  0.7103328E-009  0.1168228E+03  0.7561462E-02  0.1248432E+00
         -1   -1    0    0    0  501 -0.00000000000E+00  0.00000000000E+00  0.24322931932E+03  0.24322931932E+03  0.00000000000E+00 0.  1.
          1   -1    0    0  501    0  0.00000000000E+00 -0.00000000000E+00 -0.77291240664E+02  0.77291240664E+02  0.00000000000E+00 0. -1.
         25    2    1    2    0    0  0.50915915267E+02  0.28764404605E+02  0.20132772584E+02  0.13954000548E+03  0.12508502388E+03 0.  0.
         23    2    1    2    0    0 -0.50915915267E+02 -0.28764404605E+02  0.14580530607E+03  0.18098055450E+03  0.89860739086E+02 0.  0.
          5    1    3    3  502    0  0.25290675019E+02  0.77319182333E+02  0.22239275211E+02  0.84438924446E+02  0.41800000000E+01 0.  1.
         -5    1    3    3    0  502  0.25625240248E+02 -0.48554777728E+02 -0.21065026277E+01  0.55101081036E+02  0.41800000000E+01 0.  1.
        -11    1    4    4    0    0 -0.54488494100E+02  0.12339490061E+02  0.11986255250E+03  0.13224330038E+03  0.00000000000E+00 0.  1.
         11    1    4    4    0    0  0.35725788329E+01 -0.41103894666E+02  0.25942753574E+02  0.48737254121E+02  0.00000000000E+00 0. -1.
</event>
<event>
 8    1  0.7103328E-009  0.8641180E+02  0.7561462E-02  0.1311781E+00
         -2   -1    0    0    0  501 -0.00000000000E+00  0.00000000000E+00  0.26465913458E+02  0.26465913458E+02  0.00000000000E+00 0.  1.
          2   -1    0    0  501    0  0.00000000000E+00 -0.00000000000E+00 -0.65094417931E+03  0.65094417931E+03  0.00000000000E+00 0. -1.
         25    2    1    2    0    0  0.66898584086E+02 -0.38008496928E+01 -0.42316916611E+03  0.44632868295E+03  0.12508910050E+03 0.  0.
         23    2    1    2    0    0 -0.66898584086E+02  0.38008496928E+01 -0.20130909974E+03  0.23108140982E+03  0.91560894028E+02 0.  0.
          5    1    3    3  502    0  0.46623659535E+02  0.12786345376E+02 -0.41824805861E+02  0.64062805447E+02  0.41800000000E+01 0.  1.
         -5    1    3    3    0  502  0.20274924551E+02 -0.16587195069E+02 -0.38134436025E+03  0.38226587750E+03  0.41800000000E+01 0.  1.
        -11    1    4    4    0    0 -0.66748516179E+01 -0.28611061724E+02 -0.12588023870E+03  0.12926322367E+03  0.00000000000E+00 0. -1.
         11    1    4    4    0    0 -0.60223732468E+02  0.32411911417E+02 -0.75428861041E+02  0.10181818616E+03  0.00000000000E+00 0.  1.
</event>
<event>
 8    1  0.7103328E-009  0.1039620E+03  0.7561462E-02  0.1272178E+00
          1   -1    0    0  501    0  0.00000000000E+00  0.00000000000E+00  0.39107392319E+03  0.39107392319E+03  0.00000000000E+00 0. -1.
         -1   -1    0    0    0  501 -0.00000000000E+00 -0.00000000000E+00 -0.51676687015E+02  0.51676687015E+02  0.00000000000E+00 0.  1.
         25    2    1    2    0    0 -0.77046054944E+02  0.53758236908E+01  0.26298784438E+03  0.30128898542E+03  0.12508977727E+03 0.  0.
         23    2    1    2    0    0  0.77046054944E+02 -0.53758236908E+01  0.76409391787E+02  0.14146162478E+03  0.90598024648E+02 0.  0.
          5    1    3    3  502    0 -0.10876108977E+02  0.31568374988E+02  0.54770945736E+01  0.34092858649E+02  0.41800000000E+01 0.  1.
         -5    1    3    3    0  502 -0.66169945967E+02 -0.26192551298E+02  0.25751074981E+03  0.26719612677E+03  0.41800000000E+01 0.  1.
        -11    1    4    4    0    0  0.25790104916E+02  0.30857862165E+02  0.66784199723E+02  0.77958107350E+02  0.00000000000E+00 0.  1.
         11    1    4    4    0    0  0.51255950028E+02 -0.36233685856E+02  0.96251920638E+01  0.63503517432E+02  0.00000000000E+00 0. -1.
</event>
<event>
 8    1  0.7103328E-009  0.1024733E+03  0.7561462E-02  0.1275179E+00
          1   -1    0    0  501    0  0.00000000000E+00  0.00000000000E+00  0.17139539085E+03  0.17139539085E+03  0.00000000000E+00 0. -1.
         -1   -1    0    0    0  501 -0.00000000000E+00 -0.00000000000E+00 -0.94729427730E+02  0.94729427730E+02  0.00000000000E+00 0.  1.
         25    2    1    2    0    0 -0.20915902238E+02  0.31233036091E+01 -0.23128707357E+02  0.12895731568E+03  0.12509125538E+03 0.  0.
         23    2    1    2    0    0  0.20915902238E+02 -0.31233036091E+01  0.99794670476E+02  0.13716750290E+03  0.91699059991E+02 0.  0.
          5    1    3    3  502    0 -0.68864032218E+02  0.19808256096E+02 -0.29533002457E+02  0.77616316435E+02  0.41800000000E+01 0.  1.
         -5    1    3    3    0  502  0.47948129980E+02 -0.16684952487E+02  0.64042950998E+01  0.51340999248E+02  0.41800000000E+01 0.  1.
        -11    1    4    4    0    0  0.19102725206E+02  0.37224596680E+02  0.83918713188E+02  0.93770651760E+02  0.00000000000E+00 0.  1.
         11    1    4    4    0    0  0.18131770311E+01 -0.40347900289E+02  0.15875957288E+02  0.43396851135E+02  0.00000000000E+00 0. -1.
</event>
<event>
 8    1  0.7103328E-009  0.2573983E+03  0.7561462E-02  0.1108717E+00
         -2   -1    0    0    0  501 -0.00000000000E+00  0.00000000000E+00  0.88199142750E+03  0.88199142750E+03  0.00000000000E+00 0.  1.
          2   -1    0    0  501    0  0.00000000000E+00 -0.00000000000E+00 -0.10197149028E+03  0.10197149028E+03  0.00000000000E+00 0. -1.
         25    2    1    2    0    0  0.20305652263E+03 -0.12508234708E+03  0.15940087751E+03  0.31294240897E+03  0.12508703627E+03 0.  0.
         23    2    1    2    0    0 -0.20305652263E+03  0.12508234708E+03  0.62061905971E+03  0.67102050881E+03  0.90680543837E+02 0.  0.
          5    1    3    3  502    0  0.20860758995E+03 -0.88405599058E+02  0.11248652421E+03  0.25298886746E+03  0.41800000000E+01 0. -1.
         -5    1    3    3    0  502 -0.55510673158E+01 -0.36676748025E+02  0.46914353296E+02  0.59953541507E+02  0.41800000000E+01 0. -1.
        -11    1    4    4    0    0 -0.11840490443E+03  0.11594304862E+03  0.46476370873E+03  0.49342458073E+03  0.00000000000E+00 0. -1.
         11    1    4    4    0    0 -0.84651618206E+02  0.91392984662E+01  0.15585535098E+03  0.17759592808E+03  0.00000000000E+00 0.  1.
</event>
<event>
 8    1  0.7103328E-009  0.1082506E+03  0.7561462E-02  0.1263844E+00
          2   -1    0    0  501    0  0.00000000000E+00  0.00000000000E+00  0.77696070743E+03  0.77696070743E+03  0.00000000000E+00 0. -1.
         -2   -1    0    0    0  501 -0.00000000000E+00 -0.00000000000E+00 -0.18592807174E+02  0.18592807174E+02  0.00000000000E+00 0.  1.
         25    2    1    2    0    0  0.37290731427E+02  0.31791174131E+02  0.35941979148E+03  0.38370843214E+03  0.12509315325E+03 0.  0.
         23    2    1    2    0    0 -0.37290731427E+02 -0.31791174131E+02  0.39894810878E+03  0.41184508246E+03  0.89752443116E+02 0.  0.
          5    1    3    3  502    0  0.25366589315E+01  0.66555502005E+02  0.10401557462E+03  0.12358309613E+03  0.41800000000E+01 0. -1.
         -5    1    3    3    0  502  0.34754072495E+02 -0.34764327874E+02  0.25540421686E+03  0.26012533601E+03  0.41800000000E+01 0. -1.
        -11    1    4    4    0    0  0.23624196564E+01  0.28320958795E+02  0.15100273838E+03  0.15365378203E+03  0.00000000000E+00 0. -1.
         11    1    4    4    0    0 -0.39653151083E+02 -0.60112132926E+02  0.24794537040E+03  0.25819130043E+03  0.00000000000E+00 0.  1.
</event>
<event>
 8    1  0.7103328E-009  0.1072970E+03  0.7561462E-02  0.1265659E+00
         -2   -1    0    0    0  501 -0.00000000000E+00  0.00000000000E+00  0.83118767026E+02  0.83118767026E+02  0.00000000000E+00 0. -1.
          2   -1    0    0  501    0  0.00000000000E+00 -0.00000000000E+00 -0.17771539696E+03  0.17771539696E+03  0.00000000000E+00 0.  1.
         25    2    1    2    0    0 -0.18574886221E+01 -0.35052387994E+02 -0.98426052698E+01  0.13029729578E+03  0.12509351798E+03 0.  0.
         23    2    1    2    0    0  0.18574886221E+01  0.35052387994E+02 -0.84754024666E+02  0.13053686821E+03  0.92868235134E+02 0.  0.
          5    1    3    3  502    0  0.30588009599E+01 -0.79900477934E+02  0.10269748234E+02  0.80724115147E+02  0.41800000000E+01 0. -1.
         -5    1    3    3    0  502 -0.49162895820E+01  0.44848089940E+02 -0.20112353504E+02  0.49573180632E+02  0.41800000000E+01 0. -1.
        -11    1    4    4    0    0  0.41874494275E+02  0.20616630472E+02 -0.72572329312E+02  0.86285929934E+02  0.00000000000E+00 0.  1.
         11    1    4    4    0    0 -0.40017005653E+02  0.14435757522E+02 -0.12181695355E+02  0.44250938276E+02  0.00000000000E+00 0. -1.
</event>
<event>
 8    1  0.7103328E-009  0.9401438E+02  0.7561462E-02  0.1293411E+00
          1   -1    0    0  501    0  0.00000000000E+00  0.00000000000E+00  0.40938067129E+03  0.40938067129E+03  0.00000000000E+00 0. -1.
         -1   -1    0    0    0  501 -0.00000000000E+00 -0.00000000000E+00 -0.34044007424E+02  0.34044007424E+02  0.00000000000E+00 0.  1.
         25    2    1    2    0    0 -0.45699212708E+02  0.62539991661E+01  0.22639158776E+03  0.26273244713E+03  0.12509059605E+03 0.  0.
         23    2    1    2    0    0  0.45699212708E+02 -0.62539991661E+01  0.14894507611E+03  0.18069223159E+03  0.91310001155E+02 0.  0.
          5    1    3    3  502    0  0.10898930709E+02  0.24699561050E+02  0.19184294395E+03  0.19377833354E+03  0.41800000000E+01 0. -1.
         -5    1    3    3    0  502 -0.56598143417E+02 -0.18445561884E+02  0.34548643803E+02  0.68954113583E+02  0.41800000000E+01 0. -1.
        -11    1    4    4    0    0  0.38414622662E+02 -0.46397362635E+02  0.74549118796E+02  0.95843464081E+02  0.00000000000E+00 0.  1.
         11    1    4    4    0    0  0.72845900457E+01  0.40143363468E+02  0.74395957315E+02  0.84848767508E+02  0.00000000000E+00 0. -1.
</event>
<event>
 8    1  0.7103328E-009  0.1096526E+03  0.7561462E-02  0.1261215E+00
          1   -1    0    0  501    0  0.00000000000E+00  0.00000000000E+00  0.20461094587E+02  0.20461094587E+02  0.00000000000E+00 0. -1.
         -1   -1    0    0    0  501 -0.00000000000E+00 -0.00000000000E+00 -0.67866753345E+03  0.67866753345E+03  0.00000000000E+00 0.  1.
         25    2    1    2    0    0 -0.36505550251E+02  0.25265749820E+02 -0.33646244143E+03  0.36169672675E+03  0.12508610769E+03 0.  0.
         23    2    1    2    0    0  0.36505550251E+02 -0.25265749820E+02 -0.32174399744E+03  0.33743190129E+03  0.91488112935E+02 0.  0.
          5    1    3    3  502    0  0.44731234588E+02 -0.41145431601E+01 -0.93868767616E+02  0.10414715909E+03  0.41800000000E+01 0. -1.
         -5    1    3    3    0  502 -0.81236784839E+02  0.29380292980E+02 -0.24259367381E+03  0.25754956766E+03  0.41800000000E+01 0. -1.
        -11    1    4    4    0    0  0.27080594063E+02 -0.52397259151E+02 -0.28368336565E+03  0.28975003588E+03  0.00000000000E+00 0.  1.
         11    1    4    4    0    0  0.94249561878E+01  0.27131509330E+02 -0.38060631785E+02  0.47681865416E+02  0.00000000000E+00 0. -1.
</event>
<event>
 8    1  0.7103328E-009  0.1553857E+03  0.7561462E-02  0.1194007E+00
         -1   -1    0    0    0  501 -0.00000000000E+00  0.00000000000E+00  0.79423436608E+02  0.79423436608E+02  0.00000000000E+00 0.  1.
          1   -1    0    0  501    0  0.00000000000E+00 -0.00000000000E+00 -0.34669027926E+03  0.34669027926E+03  0.00000000000E+00 0. -1.
         25    2    1    2    0    0  0.23380379069E+02 -0.12280075598E+03 -0.13835866621E+03  0.22453183411E+03  0.12507899992E+03 0.  0.
         23    2    1    2    0    0 -0.23380379069E+02  0.12280075598E+03 -0.12890817645E+03  0.20158188175E+03  0.91603871659E+02 0.  0.
          5    1    3    3  502    0  0.56720272453E+02 -0.12774342219E+03 -0.12649241756E+03  0.18855602700E+03  0.41800000000E+01 0.  1.
         -5    1    3    3    0  502 -0.33339893384E+02  0.49426662134E+01 -0.11866248650E+02  0.35975807110E+02  0.41800000000E+01 0.  1.
        -11    1    4    4    0    0 -0.17841763383E+02  0.43079474580E+01  0.83528629132E+01  0.20165744489E+02  0.00000000000E+00 0.  1.
         11    1    4    4    0    0 -0.55386156852E+01  0.11849280852E+03 -0.13726103936E+03  0.18141613727E+03  0.00000000000E+00 0. -1.
</event>
<event>
 8    1  0.7103328E-009  0.1405069E+03  0.7561462E-02  0.1212649E+00
          1   -1    0    0  501    0  0.00000000000E+00  0.00000000000E+00  0.11541897629E+03  0.11541897629E+03  0.00000000000E+00 0. -1.
         -1   -1    0    0    0  501 -0.00000000000E+00 -0.00000000000E+00 -0.26771622655E+03  0.26771622655E+03  0.00000000000E+00 0.  1.
         25    2    1    2    0    0  0.56834055879E+02 -0.86633127610E+02  0.18503854316E+02  0.16347763956E+03  0.12508851787E+03 0.  0.
         23    2    1    2    0    0 -0.56834055879E+02  0.86633127610E+02 -0.17080110458E+03  0.21965756328E+03  0.91329179765E+02 0.  0.
          5    1    3    3  502    0  0.65647379716E+02 -0.90689751581E+01  0.45809495266E+02  0.80670980102E+02  0.41800000000E+01 0.  1.
         -5    1    3    3    0  502 -0.88133238374E+01 -0.77564152451E+02 -0.27305640950E+02  0.82806659456E+02  0.41800000000E+01 0.  1.
        -11    1    4    4    0    0 -0.24066516413E+02 -0.15866658643E+02 -0.51312340835E+02  0.58854943639E+02  0.00000000000E+00 0.  1.
         11    1    4    4    0    0 -0.32767539465E+02  0.10249978625E+03 -0.11948876374E+03  0.16080261965E+03  0.00000000000E+00 0. -1.
</event>
<event>
 8    1  0.7103328E-009  0.1260354E+03  0.7561462E-02  0.1233460E+00
         -2   -1    0    0    0  501 -0.00000000000E+00  0.00000000000E+00  0.87434293794E+02  0.87434293794E+02  0.00000000000E+00 0. -1.
          2   -1    0    0  501    0  0.00000000000E+00 -0.00000000000E+00 -0.21508027047E+03  0.21508027047E+03  0.00000000000E+00 0.  1.
         25    2    1    2    0    0  0.30403598292E+02 -0.57820767604E+02 -0.12931438104E+03  0.19140518084E+03  0.12508442810E+03 0.  0.
         23    2    1    2    0    0 -0.30403598292E+02  0.57820767604E+02  0.16684043615E+01  0.11110938343E+03  0.89860400386E+02 0.  0.
          5    1    3    3  502    0 -0.41512578766E+02 -0.54981501072E+02 -0.63846502274E+02  0.94021848038E+02  0.41800000000E+01 0.  1.
         -5    1    3    3    0  502  0.71916177058E+02 -0.28392665321E+01 -0.65467878766E+02  0.97383332799E+02  0.41800000000E+01 0.  1.
        -11    1    4    4    0    0 -0.27091019651E+02 -0.19617754026E+02 -0.20497846316E+01  0.33510912189E+02  0.00000000000E+00 0.  1.
         11    1    4    4    0    0 -0.33125786408E+01  0.77438521629E+02  0.37181889931E+01  0.77598471240E+02  0.00000000000E+00 0. -1.
</event>
<event>
 8    1  0.7103328E-009  0.2891877E+03  0.7561462E-02  0.1090774E+00
          1   -1    0    0  501    0  0.00000000000E+00  0.00000000000E+00  0.10263179427E+04  0.10263179427E+04  0.00000000000E+00 0. -1.
         -1   -1    0    0    0  501 -0.00000000000E+00 -0.00000000000E+00 -0.16175272330E+03  0.16175272330E+03  0.00000000000E+00 0.  1.
         25    2    1    2    0    0 -0.23686550276E+03  0.13458644143E+03  0.25005122103E+02  0.30082005834E+03  0.12509466318E+03 0.  0.
         23    2    1    2    0    0  0.23686550276E+03 -0.13458644143E+03  0.83956009726E+03  0.88725060761E+03  0.90187067710E+02 0.  0.
          5    1    3    3  502    0 -0.24301397945E+03  0.98392020213E+02  0.15505803334E+02  0.26266839587E+03  0.41800000000E+01 0.  1.
         -5    1    3    3    0  502  0.61484766905E+01  0.36194421215E+02  0.94993187696E+01  0.38151662477E+02  0.41800000000E+01 0.  1.
        -11    1    4    4    0    0  0.16483946293E+03 -0.59712795114E+02  0.42222124234E+03  0.45717441303E+03  0.00000000000E+00 0.  1.
         11    1    4    4    0    0  0.72026039826E+02 -0.74873646313E+02  0.41733885491E+03  0.43007619458E+03  0.00000000000E+00 0. -1.
</event>
<event>
 8    1  0.7103328E-009  0.1536058E+03  0.7561462E-02  0.1196111E+00
         -2   -1    0    0    0  501 -0.00000000000E+00  0.00000000000E+00  0.33624227667E+02  0.33624227667E+02  0.00000000000E+00 0.  1.
          2   -1    0    0  501    0  0.00000000000E+00 -0.00000000000E+00 -0.97291940411E+03  0.97291940411E+03  0.00000000000E+00 0. -1.
         25    2    1    2    0    0 -0.10696271607E+03 -0.13376068460E+02 -0.23064680225E+03  0.28366420518E+03  0.12508993594E+03 0.  0.
         23    2    1    2    0    0  0.10696271607E+03  0.13376068460E+02 -0.70864837419E+03  0.72287942660E+03  0.93553221860E+02 0.  0.
          5    1    3    3  502    0 -0.13458941304E+03 -0.20708252078E+02 -0.18953974258E+03  0.23342221022E+03  0.41800000000E+01 0. -1.
         -5    1    3    3    0  502  0.27626696976E+02  0.73321836181E+01 -0.41107059674E+02  0.50241994959E+02  0.41800000000E+01 0. -1.
        -11    1    4    4    0    0  0.42560042207E+02  0.51839902455E+02 -0.30045569484E+03  0.30785119334E+03  0.00000000000E+00 0.  1.
         11    1    4    4    0    0  0.64402673858E+02 -0.38463833996E+02 -0.40819267935E+03  0.41502823326E+03  0.00000000000E+00 0. -1.
</event>
<event>
 8    1  0.7103328E-009  0.6752946E+02  0.7561462E-02  0.1368702E+00
         -2   -1    0    0    0  501 -0.00000000000E+00  0.00000000000E+00  0.26955506443E+03  0.26955506443E+03  0.00000000000E+00 0. -1.
          2   -1    0    0  501    0  0.00000000000E+00 -0.00000000000E+00 -0.45357902947E+02  0.45357902947E+02  0.00000000000E+00 0.  1.
         25    2    1    2    0    0 -0.12231237785E+02 -0.20563794104E+02  0.13790724837E+03  0.18771756551E+03  0.12508797881E+03 0.  0.
         23    2    1    2    0    0  0.12231237785E+02  0.20563794104E+02  0.86289913117E+02  0.12719540187E+03  0.90334092928E+02 0.  0.
          5    1    3    3  502    0 -0.34921873784E+02  0.17172757184E+02  0.13804495279E+03  0.14348631380E+03  0.41800000000E+01 0.  1.
         -5    1    3    3    0  502  0.22690635999E+02 -0.37736551288E+02 -0.13770442173E+00  0.44231251708E+02  0.41800000000E+01 0.  1.
        -11    1    4    4    0    0  0.21758891243E+02 -0.67326993530E+01  0.94447502716E+02  0.97155078909E+02  0.00000000000E+00 0. -1.
         11    1    4    4    0    0 -0.95276534578E+01  0.27296493457E+02 -0.81575895981E+01  0.30040322960E+02  0.00000000000E+00 0.  1.
</event>
<event>
 8    1  0.7103328E-009  0.1173255E+03  0.7561462E-02  0.1247576E+00
          2   -1    0    0  501    0  0.00000000000E+00  0.00000000000E+00  0.62805176220E+02  0.62805176220E+02  0.00000000000E+00 0. -1.
         -2   -1    0    0    0  501 -0.00000000000E+00 -0.00000000000E+00 -0.37475929692E+03  0.37475929692E+03  0.00000000000E+00 0.  1.
         25    2    1    2    0    0 -0.15689081366E+02  0.97718102762E+02 -0.22855120659E+03  0.27871484967E+03  0.12510530968E+03 0.  0.
         23    2    1    2    0    0  0.15689081366E+02 -0.97718102762E+02 -0.83402914105E+02  0.15884962347E+03  0.92098761735E+02 0.  0.
          5    1    3    3  502    0 -0.23013299966E+01  0.60852788116E+01 -0.16758585219E+03  0.16776417077E+03  0.41800000000E+01 0.  1.
         -5    1    3    3    0  502 -0.13387751370E+02  0.91632823951E+02 -0.60965354400E+02  0.11095067890E+03  0.41800000000E+01 0.  1.
        -11    1    4    4    0    0  0.53362341514E+02 -0.47509338775E+02 -0.53860597299E+02  0.89474246038E+02  0.00000000000E+00 0. -1.
         11    1    4    4    0    0 -0.37673260147E+02 -0.50208763987E+02 -0.29542316806E+02  0.69375377430E+02  0.00000000000E+00 0.  1.
</event>
<event>
 8    1  0.7103328E-009  0.1061060E+03  0.7561462E-02  0.1267956E+00
         -2   -1    0    0    0  501 -0.00000000000E+00  0.00000000000E+00  0.69934045676E+02  0.69934045676E+02  0.00000000000E+00 0.  1.
          2   -1    0    0  501    0  0.00000000000E+00 -0.00000000000E+00 -0.23668541128E+03  0.23668541128E+03  0.00000000000E+00 0. -1.
         25    2    1    2    0    0  0.11073133012E+02  0.18960309248E+02 -0.13989714786E+02  0.12777068377E+03  0.12509007918E+03 0.  0.
         23    2    1    2    0    0 -0.11073133012E+02 -0.18960309248E+02 -0.15276165082E+03  0.17884877319E+03  0.90380606921E+02 0.  0.
          5    1    3    3  502    0 -0.53693712449E+02  0.74572484658E+01  0.14027089500E+02  0.56150306777E+02  0.41800000000E+01 0.  1.
         -5    1    3    3    0  502  0.64766845462E+02  0.11503060782E+02 -0.28016804286E+02  0.71620376994E+02  0.41800000000E+01 0.  1.
        -11    1    4    4    0    0  0.28257938084E+02  0.21496239343E+02 -0.72644670065E+02  0.80856956779E+02  0.00000000000E+00 0. -1.
         11    1    4    4    0    0 -0.39331071096E+02 -0.40456548591E+02 -0.80116980756E+02  0.97991816408E+02  0.00000000000E+00 0.  1.
</event>
<event>
 8    1  0.7103328E-009  0.1019213E+03  0.7561462E-02  0.1276307E+00
         -1   -1    0    0    0  501 -0.00000000000E+00  0.00000000000E+00  0.27492943805E+02  0.27492943805E+02  0.00000000000E+00 0.  1.
          1   -1    0    0  501    0  0.00000000000E+00 -0.00000000000E+00 -0.52381828981E+03  0.52381828981E+03  0.00000000000E+00 0. -1.
         25    2    1    2    0    0 -0.67035214415E+01 -0.54390738228E+02 -0.29772228852E+03  0.32755025202E+03  0.12508923580E+03 0.  0.
         23    2    1    2    0    0  0.67035214415E+01  0.54390738228E+02 -0.19860305749E+03  0.22376098160E+03  0.87307003367E+02 0.  0.
          5    1    3    3  502    0  0.18982917729E+02 -0.74070595097E+02 -0.94061167869E+02  0.12129212639E+03  0.41800000000E+01 0. -1.
         -5    1    3    3    0  502 -0.25686439170E+02  0.19679856869E+02 -0.20366112065E+03  0.20625812563E+03  0.41800000000E+01 0. -1.
        -11    1    4    4    0    0  0.28910215570E+02 -0.66642508557E+01 -0.10975122162E+03  0.11369056008E+03  0.00000000000E+00 0.  1.
         11    1    4    4    0    0 -0.22206694128E+02  0.61054989084E+02 -0.88851835865E+02  0.11007042152E+03  0.00000000000E+00 0. -1.
</event>
<event>
 8    1  0.7103328E-009  0.7258159E+02  0.7561462E-02  0.1351528E+00
         -1   -1    0    0    0  501 -0.00000000000E+00  0.00000000000E+00  0.17977611231E+02  0.17977611231E+02  0.00000000000E+00 0.  1.
          1   -1    0    0  501    0  0.00000000000E+00 -0.00000000000E+00 -0.79749263690E+03  0.79749263690E+03  0.00000000000E+00 0. -1.
         25    2    1    2    0    0  0.27205436899E+02  0.34475441006E+02 -0.52705422186E+03  0.54347190297E+03  0.12508742825E+03 0.  0.
         23    2    1    2    0    0 -0.27205436899E+02 -0.34475441006E+02 -0.25246080381E+03  0.27199834516E+03  0.91202798653E+02 0.  0.
          5    1    3    3  502    0  0.44770603928E+01  0.58327371233E+00 -0.48387360164E+03  0.48391271841E+03  0.41800000000E+01 0.  1.
         -5    1    3    3    0  502  0.22728376506E+02  0.33892167293E+02 -0.43180620223E+02  0.59559184559E+02  0.41800000000E+01 0.  1.
        -11    1    4    4    0    0 -0.49550453680E+02 -0.50301108485E+02 -0.20925833179E+03  0.22084949264E+03  0.00000000000E+00 0. -1.
         11    1    4    4    0    0  0.22345016781E+02  0.15825667479E+02 -0.43202472016E+02  0.51148852523E+02  0.00000000000E+00 0.  1.
</event>
