<event>
 7    1  0.2841804E-009  0.2173421E+03  0.7561462E-02  0.1135880E+00
         -2   -1    0    0    0  501 -0.00000000000E+00  0.00000000000E+00  0.11107706453E+03  0.11107706453E+03  0.00000000000E+00 0. -1.
          2   -1    0    0  501    0  0.00000000000E+00 -0.00000000000E+00 -0.98408834428E+03  0.98408834428E+03  0.00000000000E+00 0.  1.
         25    2    1    2    0    0  0.12790122349E+02  0.20632507225E+03 -0.56950777177E+02  0.24824140340E+03  0.12508709234E+03 0.  0.
          5    1    3    3  502    0  0.48395278987E+02  0.82463467538E+02 -0.70091738338E+02  0.11862820360E+03  0.41800000000E+01 0.  1.
         -5    1    3    3    0  502 -0.35605156638E+02  0.12386160471E+03  0.13140961161E+02  0.12961319979E+03  0.41800000000E+01 0.  1.
        -11    1    1    2    0    0 -0.10046898964E+02 -0.11842599717E+02 -0.11870947805E+02  0.19547550962E+02  0.00000000000E+00 0. -1.
         11    1    1    2    0    0 -0.27432233850E+01 -0.19448247253E+03 -0.80418955476E+03  0.82737645445E+03  0.00000000000E+00 0.  1.
</event>
<event>
 7    1  0.2841804E-009  0.1055371E+03  0.7561462E-02  0.1269065E+00
         -2   -1    0    0    0  501 -0.00000000000E+00  0.00000000000E+00  0.26777000203E+02  0.26777000203E+02  0.00000000000E+00 0.  1.
          2   -1    0    0  501    0  0.00000000000E+00 -0.00000000000E+00 -0.51307806278E+03  0.51307806278E+03  0.00000000000E+00 0. -1.
         25    2    1    2    0    0 -0.19182529908E+02 -0.55094288911E+01 -0.19284861794E+03  0.23072997163E+03  0.12508959631E+03 0.  0.
          5    1    3    3  502    0  0.50381692223E+02 -0.13558049725E+02 -0.11240424859E+03  0.12399323822E+03  0.41800000000E+01 0.  1.
         -5    1    3    3    0  502 -0.69564222131E+02  0.80486208343E+01 -0.80444369355E+02  0.10673673341E+03  0.41800000000E+01 0.  1.
        -11    1    1    2    0    0  0.52959435927E+02 -0.50278786534E+01 -0.10875043444E+03  0.12106460428E+03  0.00000000000E+00 0.  1.
         11    1    1    2    0    0 -0.33776906019E+02  0.10537307544E+02 -0.18470201019E+03  0.18806048708E+03  0.00000000000E+00 0. -1.
</event>
<event>
 7    1  0.2841804E-009  0.1418285E+03  0.7561462E-02  0.1210890E+00
         -1   -1    0    0    0  501 -0.00000000000E+00  0.00000000000E+00  0.25963382123E+02  0.25963382123E+02  0.00000000000E+00 0.  1.
          1   -1    0    0  501    0  0.00000000000E+00 -0.00000000000E+00 -0.83072205135E+03  0.83072205135E+03  0.00000000000E+00 0. -1.
         25    2    1    2    0    0 -0.14458653753E+02 -0.96165577025E+02 -0.52132771951E+03  0.54487281502E+03  0.12508765942E+03 0.  0.
          5    1    3    3  502    0 -0.20542898845E+02  0.25546673921E+02 -0.16448364929E+03  0.16777063666E+03  0.41800000000E+01 0. -1.
         -5    1    3    3    0  502  0.60842450922E+01 -0.12171225095E+03 -0.35684407022E+03  0.37710217836E+03  0.41800000000E+01 0. -1.
        -11    1    1    2    0    0  0.34560286171E+02  0.10203816318E+03 -0.21900341935E+03  0.24406699452E+03  0.00000000000E+00 0.  1.
         11    1    1    2    0    0 -0.20101632418E+02 -0.58725861577E+01 -0.64427530359E+02  0.67745623934E+02  0.00000000000E+00 0. -1.
</event>
<event>
 7    1  0.2841804E-009  0.7725729E+02  0.7561462E-02  0.1337020E+00
         -1   -1    0    0    0  501 -0.00000000000E+00  0.00000000000E+00  0.63099995290E+02  0.63099995290E+02  0.00000000000E+00 0.  1.
          1   -1    0    0  501    0  0.00000000000E+00 -0.00000000000E+00 -0.20564584325E+03  0.20564584325E+03  0.00000000000E+00 0. -1.
         25    2    1    2    0    0  0.31445340598E+02  0.20130175962E+01 -0.77945336717E+02  0.15071213653E+03  0.12508321588E+03 0.  0.
          5    1    3    3  502    0  0.41678695700E+02 -0.14984858838E+02 -0.10665673865E+03  0.11556293510E+03  0.41800000000E+01 0. -1.
         -5    1    3    3    0  502 -0.10233355102E+02  0.16997876434E+02  0.28711401933E+02  0.35149201426E+02  0.41800000000E+01 0. -1.
        -11    1    1    2    0    0 -0.23332219594E+02 -0.42486919178E+02 -0.98449890973E+01  0.49461647595E+02  0.00000000000E+00 0.  1.
         11    1    1    2    0    0 -0.81131210033E+01  0.40473901582E+02 -0.54755522146E+02  0.68572054418E+02  0.00000000000E+00 0. -1.
</event>
<event>
 7    1  0.2841804E-009  0.9897097E+02  0.7561462E-02  0.1282475E+00
         -2   -1    0    0    0  501 -0.00000000000E+00  0.00000000000E+00  0.50751941395E+02  0.50751941395E+02  0.00000000000E+00 0.  1.
          2   -1    0    0  501    0  0.00000000000E+00 -0.00000000000E+00 -0.28980317584E+03  0.28980317584E+03  0.00000000000E+00 0. -1.
         25    2    1    2    0    0  0.49102558173E+02 -0.96435158894E+01 -0.10234379928E+03  0.16918764562E+03  0.12508456165E+03 0.  0.
          5    1    3    3  502    0  0.11321083343E+02 -0.53574743601E+02 -0.41215519114E+01  0.55071586777E+02  0.41800000000E+01 0. -1.
         -5    1    3    3    0  502  0.37781474830E+02  0.43931227712E+02 -0.98222247365E+02  0.11411605884E+03  0.41800000000E+01 0. -1.
        -11    1    1    2    0    0 -0.51497325253E+02 -0.19960570251E+02 -0.34939825231E+02  0.65354343851E+02  0.00000000000E+00 0.  1.
         11    1    1    2    0    0  0.23947670800E+01  0.29604086140E+02 -0.10176760994E+03  0.10601312777E+03  0.00000000000E+00 0. -1.
</event>
<event>
 7    1  0.2841804E-009  0.1115477E+03  0.7561462E-02  0.1257730E+00
         -2   -1    0    0    0  501 -0.00000000000E+00  0.00000000000E+00  0.97554164505E+02  0.97554164505E+02  0.00000000000E+00 0.  1.
          2   -1    0    0  501    0  0.00000000000E+00 -0.00000000000E+00 -0.14773483777E+03  0.14773483777E+03  0.00000000000E+00 0. -1.
         25    2    1    2    0    0 -0.28232880271E+02 -0.33614431090E+02  0.30071171675E+01  0.13258250751E+03  0.12506819355E+03 0.  0.
          5    1    3    3  502    0 -0.74071218032E+02 -0.12137971998E+02  0.22042432778E+02  0.78340391547E+02  0.41800000000E+01 0.  1.
         -5    1    3    3    0  502  0.45838337761E+02 -0.21476459092E+02 -0.19035315611E+02  0.54242115964E+02  0.41800000000E+01 0.  1.
        -11    1    1    2    0    0  0.56632942852E+02  0.50664188099E+01 -0.42663600056E+02  0.71085452699E+02  0.00000000000E+00 0. -1.
         11    1    1    2    0    0 -0.28400062581E+02  0.28548012280E+02 -0.10524190379E+02  0.41621042069E+02  0.00000000000E+00 0.  1.
</event>
<event>
 7    1  0.2841804E-009  0.1017056E+03  0.7561462E-02  0.1276750E+00
          1   -1    0    0  501    0  0.00000000000E+00  0.00000000000E+00  0.18734051845E+02  0.18734051845E+02  0.00000000000E+00 0. -1.
         -1   -1    0    0    0  501 -0.00000000000E+00 -0.00000000000E+00 -0.66573693668E+03  0.66573693668E+03  0.00000000000E+00 0.  1.
         25    2    1    2    0    0  0.71229471222E+01 -0.26288696359E+02 -0.36370783376E+03  0.38557894865E+03  0.12508359353E+03 0.  0.
          5    1    3    3  502    0 -0.44946917773E+02 -0.51612625112E+02 -0.16834609413E+03  0.18177449848E+03  0.41800000000E+01 0.  1.
         -5    1    3    3    0  502  0.52069864895E+02  0.25323928752E+02 -0.19536173963E+03  0.20380445017E+03  0.41800000000E+01 0.  1.
        -11    1    1    2    0    0  0.28839181443E+02 -0.48222160921E+01 -0.32873153631E+02  0.43995413215E+02  0.00000000000E+00 0.  1.
         11    1    1    2    0    0 -0.35962128565E+02  0.31110912452E+02 -0.25042189744E+03  0.25489662666E+03  0.00000000000E+00 0. -1.
</event>
<event>
 7    1  0.2841804E-009  0.1073606E+03  0.7561462E-02  0.1265537E+00
          2   -1    0    0  501    0  0.00000000000E+00  0.00000000000E+00  0.95841764743E+02  0.95841764743E+02  0.00000000000E+00 0. -1.
         -2   -1    0    0    0  501 -0.00000000000E+00 -0.00000000000E+00 -0.14269012538E+03  0.14269012538E+03  0.00000000000E+00 0.  1.
         25    2    1    2    0    0 -0.43122793935E+02  0.18165413269E+02 -0.48143575873E+02  0.14196905266E+03  0.12509136829E+03 0.  0.
          5    1    3    3  502    0  0.24873789206E+02  0.44553456513E+02  0.52706627336E+01  0.51468127636E+02  0.41800000000E+01 0.  1.
         -5    1    3    3    0  502 -0.67996583141E+02 -0.26388043243E+02 -0.53414238607E+02  0.90500925029E+02  0.41800000000E+01 0.  1.
        -11    1    1    2    0    0  0.34399791339E+02  0.27459369753E+02 -0.16234592503E+02  0.46914013100E+02  0.00000000000E+00 0.  1.
         11    1    1    2    0    0  0.87230025960E+01 -0.45624783022E+02  0.17529807745E+02  0.49648824354E+02  0.00000000000E+00 0. -1.
</event>
<event>
 7    1  0.2841804E-009  0.1110142E+03  0.7561462E-02  0.1258703E+00
         -2   -1    0    0    0  501 -0.00000000000E+00  0.00000000000E+00  0.33758201136E+02  0.33758201136E+02  0.00000000000E+00 0.  1.
          2   -1    0    0  501    0  0.00000000000E+00 -0.00000000000E+00 -0.40194143862E+03  0.40194143862E+03  0.00000000000E+00 0. -1.
         25    2    1    2    0    0 -0.63350219890E+01  0.29943359150E+02 -0.16994182578E+03  0.21321624686E+03  0.12507680246E+03 0.  0.
          5    1    3    3  502    0  0.76301982442E+01 -0.44682740172E+02 -0.31794548961E+02  0.55525966341E+02  0.41800000000E+01 0. -1.
         -5    1    3    3    0  502 -0.13965220233E+02  0.74626099322E+02 -0.13814727682E+03  0.15769028052E+03  0.41800000000E+01 0. -1.
        -11    1    1    2    0    0  0.54310674403E+01 -0.65087799507E+02 -0.11779692520E+03  0.13469236699E+03  0.00000000000E+00 0.  1.
         11    1    1    2    0    0  0.90395454864E+00  0.35144440357E+02 -0.80444486502E+02  0.87791025911E+02  0.00000000000E+00 0. -1.
</event>
<event>
 7    1  0.2841804E-009  0.9048708E+02  0.7561462E-02  0.1301676E+00
         -1   -1    0    0    0  501 -0.00000000000E+00  0.00000000000E+00  0.26103035352E+03  0.26103035352E+03  0.00000000000E+00 0.  1.
          1   -1    0    0  501    0  0.00000000000E+00 -0.00000000000E+00 -0.65234729837E+02  0.65234729837E+02  0.00000000000E+00 0. -1.
         25    2    1    2    0    0 -0.61772453642E+02  0.42441866554E+02  0.98143293233E+02  0.17578089981E+03  0.12509864374E+03 0.  0.
          5    1    3    3  502    0 -0.11978079348E+02 -0.17904518193E+02 -0.22821028481E+02  0.31659404567E+02  0.41800000000E+01 0. -1.
         -5    1    3    3    0  502 -0.49794374294E+02  0.60346384747E+02  0.12096432171E+03  0.14412149524E+03  0.41800000000E+01 0. -1.
        -11    1    1    2    0    0  0.37911884156E+02 -0.79433827282E+01  0.10122803346E+03  0.10838599101E+03  0.00000000000E+00 0.  1.
         11    1    1    2    0    0  0.23860569487E+02 -0.34498483825E+02 -0.35757030127E+01  0.42098192533E+02  0.00000000000E+00 0. -1.
</event>
<event>
 7    1  0.4457430E-009  0.1395860E+03  0.7561462E-02  0.1213887E+00
          1   -1    0    0  501    0  0.00000000000E+00  0.00000000000E+00  0.33722532254E+03  0.33722532254E+03  0.00000000000E+00 0. -1.
         -1   -1    0    0    0  501 -0.00000000000E+00 -0.00000000000E+00 -0.76282235983E+02  0.76282235983E+02  0.00000000000E+00 0.  1.
         25    2    1    2    0    0 -0.91558318769E+02  0.20929542425E+02  0.48743578992E+02  0.16384192771E+03  0.12508904548E+03 0.  0.
          5    1    3    3  502    0 -0.11108322991E+03 -0.13758738680E+02  0.52380016886E+02  0.12365243801E+03  0.41800000000E+01 0.  1.
         -5    1    3    3    0  502  0.19524911144E+02  0.34688281105E+02 -0.36364378937E+01  0.40189489693E+02  0.41800000000E+01 0.  1.
        -11    1    1    2    0    0  0.66544401718E+02  0.27991729353E+02  0.87774500060E+02  0.11364883269E+03  0.00000000000E+00 0.  1.
         11    1    1    2    0    0  0.25013917052E+02 -0.48921271778E+02  0.12442500751E+03  0.13601679812E+03  0.00000000000E+00 0. -1.
</event>
<event>
 7    1  0.2841804E-009  0.2082124E+03  0.7561462E-02  0.1142989E+00
         -2   -1    0    0    0  501 -0.00000000000E+00  0.00000000000E+00  0.23183114732E+03  0.23183114732E+03  0.00000000000E+00 0. -1.
          2   -1    0    0  501    0  0.00000000000E+00 -0.00000000000E+00 -0.21357140985E+03  0.21357140985E+03  0.00000000000E+00 0.  1.
         25    2    1    2    0    0  0.94913135493E+02 -0.15820892441E+03 -0.25327036533E+02  0.22434089718E+03  0.12509521299E+03 0.  0.
          5    1    3    3  502    0  0.10284068616E+03 -0.50222100305E+02 -0.14650471832E+02  0.11545810848E+03  0.41800000000E+01 0.  1.
         -5    1    3    3    0  502 -0.79275506684E+01 -0.10798682411E+03 -0.10676564701E+02  0.10888278870E+03  0.41800000000E+01 0.  1.
        -11    1    1    2    0    0 -0.60494109701E+02  0.45501763739E+02 -0.30777933096E+02  0.81714313174E+02  0.00000000000E+00 0.  1.
         11    1    1    2    0    0 -0.34419025792E+02  0.11270716067E+03  0.74364707093E+02  0.13934734682E+03  0.00000000000E+00 0. -1.
</event>
<event>
 7    1  0.2841804E-009  0.1063961E+03  0.7561462E-02  0.1267393E+00
          2   -1    0    0  501    0  0.00000000000E+00  0.00000000000E+00  0.94733819196E+02  0.94733819196E+02  0.00000000000E+00 0. -1.
         -2   -1    0    0    0  501 -0.00000000000E+00 -0.00000000000E+00 -0.15975052158E+03  0.15975052158E+03  0.00000000000E+00 0.  1.
         25    2    1    2    0    0 -0.52284035307E+02  0.15675447173E+02 -0.18841998660E+02  0.13777524653E+03  0.12509059777E+03 0.  0.
          5    1    3    3  502    0 -0.82450332630E+02 -0.22479725151E+02 -0.32562624184E+00  0.85562689451E+02  0.41800000000E+01 0. -1.
         -5    1    3    3    0  502  0.30166297323E+02  0.38155172324E+02 -0.18516372418E+02  0.52212557080E+02  0.41800000000E+01 0. -1.
        -11    1    1    2    0    0  0.63732634843E+02 -0.71407916077E+01  0.42785378820E+01  0.64273988014E+02  0.00000000000E+00 0. -1.
         11    1    1    2    0    0 -0.11448599536E+02 -0.85346555653E+01 -0.50453241609E+02  0.52435106235E+02  0.00000000000E+00 0.  1.
</event>
<event>
 7    1  0.2841804E-009  0.9980818E+02  0.7561462E-02  0.1280700E+00
          1   -1    0    0  501    0  0.00000000000E+00  0.00000000000E+00  0.78756027105E+02  0.78756027105E+02  0.00000000000E+00 0. -1.
         -1   -1    0    0    0  501 -0.00000000000E+00 -0.00000000000E+00 -0.18131608974E+03  0.18131608974E+03  0.00000000000E+00 0.  1.
         25    2    1    2    0    0  0.49144374302E+02 -0.25480108152E+02 -0.37942363414E+02  0.14196223663E+03  0.12509695540E+03 0.  0.
          5    1    3    3  502    0  0.38109169410E+02 -0.73856837932E+02 -0.39563814373E+02  0.92140702788E+02  0.41800000000E+01 0. -1.
         -5    1    3    3    0  502  0.11035204892E+02  0.48376729780E+02  0.16214509584E+01  0.49821533843E+02  0.41800000000E+01 0. -1.
        -11    1    1    2    0    0 -0.33651142185E+02  0.34894997662E+02 -0.80524872177E+02  0.93991038250E+02  0.00000000000E+00 0.  1.
         11    1    1    2    0    0 -0.15493232118E+02 -0.94148895101E+01  0.15907172961E+02  0.24118841961E+02  0.00000000000E+00 0. -1.
</event>
<event>
 6    1  0.2967192E-009  0.9768473E+02  0.7561462E-02  0.1285241E+00
         -2   -1    0    0    0  501 -0.00000000000E+00  0.00000000000E+00  0.10709036219E+03  0.10709036219E+03  0.00000000000E+00 0. -1.
          2   -1    0    0  501    0  0.00000000000E+00 -0.00000000000E+00 -0.18456172241E+03  0.18456172241E+03  0.00000000000E+00 0.  1.
          5    1    1    2  502    0  0.38885471696E+02  0.50926751503E+02  0.97114802601E+01  0.64941505807E+02  0.41800000000E+01 0.  1.
         -5    1    1    2    0  502  0.36338922637E+02 -0.26608267228E+02 -0.97011882739E+02  0.10703875455E+03  0.41800000000E+01 0.  1.
        -11    1    1    2    0    0 -0.59938656824E+02 -0.34235442902E+01  0.45688056457E+02  0.75443765416E+02  0.00000000000E+00 0. -1.
         11    1    1    2    0    0 -0.15285737508E+02 -0.20894939985E+02 -0.35859014202E+02  0.44228058827E+02  0.00000000000E+00 0.  1.
</event>
<event>
 7    1  0.2841804E-009  0.1426572E+03  0.7561462E-02  0.1209798E+00
          1   -1    0    0  501    0  0.00000000000E+00  0.00000000000E+00  0.96034727865E+03  0.96034727865E+03  0.00000000000E+00 0.  1.
         -1   -1    0    0    0  501 -0.00000000000E+00 -0.00000000000E+00 -0.25297276772E+02  0.25297276772E+02  0.00000000000E+00 0. -1.
         25    2    1    2    0    0  0.94404687384E+02  0.45180825770E+02  0.62707510677E+03  0.64793979643E+03  0.12509691542E+03 0.  0.
          5    1    3    3  502    0  0.74929065007E+02 -0.33221986133E+02  0.30239193149E+03  0.31333116311E+03  0.41800000000E+01 0. -1.
         -5    1    3    3    0  502  0.19475622377E+02  0.78402811903E+02  0.32468317528E+03  0.33460863332E+03  0.41800000000E+01 0. -1.
        -11    1    1    2    0    0 -0.73165103060E+02 -0.82292285879E+00  0.99499790668E+02  0.12350715708E+03  0.00000000000E+00 0. -1.
         11    1    1    2    0    0 -0.21239584324E+02 -0.44357902911E+02  0.20847510444E+03  0.21419760191E+03  0.00000000000E+00 0.  1.
</event>
<event>
 7    1  0.2841804E-009  0.8887579E+02  0.7561462E-02  0.1305597E+00
         -1   -1    0    0    0  501 -0.00000000000E+00  0.00000000000E+00  0.17340354129E+03  0.17340354129E+03  0.00000000000E+00 0.  1.
          1   -1    0    0  501    0  0.00000000000E+00 -0.00000000000E+00 -0.75039632773E+02  0.75039632773E+02  0.00000000000E+00 0. -1.
         25    2    1    2    0    0  0.82892333401E+01 -0.24313234290E+02  0.84994284826E+02  0.15340155562E+03  0.12509262194E+03 0.  0.
          5    1    3    3  502    0 -0.36092869984E+02 -0.45224202420E+02  0.86485097652E+02  0.10413965750E+03  0.41800000000E+01 0. -1.
         -5    1    3    3    0  502  0.44382103324E+02  0.20910968130E+02 -0.14908128263E+01  0.49261898121E+02  0.41800000000E+01 0. -1.
        -11    1    1    2    0    0 -0.36927783971E+02  0.18398260046E+02 -0.23891473041E+02  0.47675566968E+02  0.00000000000E+00 0. -1.
         11    1    1    2    0    0  0.28638550631E+02  0.59149742448E+01  0.37261096732E+02  0.47366051474E+02  0.00000000000E+00 0.  1.
</event>
<event>
 7    1  0.2841804E-009  0.2139334E+03  0.7561462E-02  0.1138488E+00
         -3   -1    0    0    0  501 -0.00000000000E+00  0.00000000000E+00  0.39560448215E+03  0.39560448215E+03  0.00000000000E+00 0.  1.
          3   -1    0    0  501    0  0.00000000000E+00 -0.00000000000E+00 -0.13744049956E+03  0.13744049956E+03  0.00000000000E+00 0. -1.
         25    2    1    2    0    0 -0.93955692492E+02  0.17914660772E+03  0.18106061065E+03  0.29891806663E+03  0.12509151297E+03 0.  0.
          5    1    3    3  502    0 -0.90606874155E+02  0.18814520263E+03  0.19204807261E+03  0.28373959454E+03  0.41800000000E+01 0.  1.
         -5    1    3    3    0  502 -0.33488183370E+01 -0.89985949078E+01 -0.10987461958E+02  0.15178472086E+02  0.41800000000E+01 0.  1.
        -11    1    1    2    0    0 -0.52753402341E+01 -0.22384985163E+02  0.38160465233E+02  0.44554886176E+02  0.00000000000E+00 0.  1.
         11    1    1    2    0    0  0.99231032726E+02 -0.15676162256E+03  0.38942906699E+02  0.18957202891E+03  0.00000000000E+00 0. -1.
</event>
<event>
 7    1  0.2841804E-009  0.1485680E+03  0.7561462E-02  0.1202244E+00
          1   -1    0    0  501    0  0.00000000000E+00  0.00000000000E+00  0.98874476675E+02  0.98874476675E+02  0.00000000000E+00 0. -1.
         -1   -1    0    0    0  501 -0.00000000000E+00 -0.00000000000E+00 -0.29930373605E+03  0.29930373605E+03  0.00000000000E+00 0.  1.
         25    2    1    2    0    0  0.99112935462E+02  0.70577155858E+02 -0.16854849802E+03  0.24261186289E+03  0.12508961157E+03 0.  0.
          5    1    3    3  502    0 -0.28386832699E+01  0.39170475084E+02 -0.11810432189E+03  0.12453307789E+03  0.41800000000E+01 0. -1.
         -5    1    3    3    0  502  0.10195161873E+03  0.31406680774E+02 -0.50444176136E+02  0.11807878499E+03  0.41800000000E+01 0. -1.
        -11    1    1    2    0    0  0.13955656939E+02 -0.25672680301E+02 -0.14668565714E+02  0.32695774873E+02  0.00000000000E+00 0.  1.
         11    1    1    2    0    0 -0.11306859240E+03 -0.44904475556E+02 -0.17212195632E+02  0.12287057496E+03  0.00000000000E+00 0. -1.
</event>
<event>
 7    1  0.2841804E-009  0.1794509E+03  0.7561462E-02  0.1168336E+00
         -2   -1    0    0    0  501 -0.00000000000E+00  0.00000000000E+00  0.72806195999E+02  0.72806195999E+02  0.00000000000E+00 0.  1.
          2   -1    0    0  501    0  0.00000000000E+00 -0.00000000000E+00 -0.49007979786E+03  0.49007979786E+03  0.00000000000E+00 0. -1.
         25    2    1    2    0    0 -0.12730276449E+03  0.78371236528E+02 -0.16263972573E+03  0.25386454416E+03  0.12508989501E+03 0.  0.
          5    1    3    3  502    0 -0.13944024091E+03  0.93447034880E+02 -0.11857788178E+03  0.20555805885E+03  0.41800000000E+01 0. -1.
         -5    1    3    3    0  502  0.12137476422E+02 -0.15075798352E+02 -0.44061843957E+02  0.48306485308E+02  0.41800000000E+01 0. -1.
        -11    1    1    2    0    0 -0.17743904877E+01 -0.34967888997E+02 -0.81845249472E+02  0.89019922397E+02  0.00000000000E+00 0. -1.
         11    1    1    2    0    0  0.12907715497E+03 -0.43403347531E+02 -0.17278862665E+03  0.22000152730E+03  0.00000000000E+00 0.  1.
</event>
<event>
 7    1  0.2841804E-009  0.2373994E+03  0.7561462E-02  0.1121537E+00
          2   -1    0    0  501    0  0.00000000000E+00  0.00000000000E+00  0.27295355773E+03  0.27295355773E+03  0.00000000000E+00 0. -1.
         -2   -1    0    0    0  501 -0.00000000000E+00 -0.00000000000E+00 -0.23170064134E+03  0.23170064134E+03  0.00000000000E+00 0.  1.
         25    2    1    2    0    0  0.13077089699E+03  0.18316154830E+03  0.50180243058E+02  0.26233178048E+03  0.12510286161E+03 0.  0.
          5    1    3    3  502    0  0.48719202552E+01 -0.36659382389E+01  0.35789626254E+02  0.36545101690E+02  0.41800000000E+01 0.  1.
         -5    1    3    3    0  502  0.12589897673E+03  0.18682748654E+03  0.14390616804E+02  0.22578667879E+03  0.41800000000E+01 0.  1.
        -11    1    1    2    0    0 -0.62225361055E+02 -0.20419015795E+02  0.33552483678E+00  0.65490795852E+02  0.00000000000E+00 0.  1.
         11    1    1    2    0    0 -0.68545535930E+02 -0.16274253250E+03 -0.92628515117E+01  0.17683162274E+03  0.00000000000E+00 0. -1.
</event>
<event>
 7    1  0.2841804E-009  0.1111450E+03  0.7561462E-02  0.1258464E+00
          1   -1    0    0  501    0  0.00000000000E+00  0.00000000000E+00  0.13266493604E+03  0.13266493604E+03  0.00000000000E+00 0. -1.
         -1   -1    0    0    0  501 -0.00000000000E+00 -0.00000000000E+00 -0.12685443554E+03  0.12685443554E+03  0.00000000000E+00 0.  1.
         25    2    1    2    0    0 -0.52247554113E+02  0.22228126705E+02 -0.38333649486E+02  0.14262756022E+03  0.12509698527E+03 0.  0.
          5    1    3    3  502    0  0.32974442999E+02 -0.22393210527E+02 -0.34912815266E+01  0.40229730492E+02  0.41800000000E+01 0.  1.
         -5    1    3    3    0  502 -0.85221997112E+02  0.44621337232E+02 -0.34842367959E+02  0.10239782973E+03  0.41800000000E+01 0.  1.
        -11    1    1    2    0    0  0.19330912377E+02 -0.42900572957E+02 -0.12041855891E+02  0.48571078089E+02  0.00000000000E+00 0.  1.
         11    1    1    2    0    0  0.32916641736E+02  0.20672446252E+02  0.56186005883E+02  0.68320733268E+02  0.00000000000E+00 0. -1.
</event>
<event>
 7    1  0.2841804E-009  0.9890795E+02  0.7561462E-02  0.1282609E+00
          2   -1    0    0  501    0  0.00000000000E+00  0.00000000000E+00  0.17782524550E+03  0.17782524550E+03  0.00000000000E+00 0. -1.
         -2   -1    0    0    0  501 -0.00000000000E+00 -0.00000000000E+00 -0.10557187860E+03  0.10557187860E+03  0.00000000000E+00 0.  1.
         25    2    1    2    0    0 -0.81106617548E+01 -0.29839542323E+02  0.11721107060E+03  0.17418903917E+03  0.12508878917E+03 0.  0.
          5    1    3    3  502    0  0.12459777287E+02  0.41546984455E+02  0.11771378648E+02  0.45137963208E+02  0.41800000000E+01 0. -1.
         -5    1    3    3    0  502 -0.20570439042E+02 -0.71386526777E+02  0.10543969195E+03  0.12905107596E+03  0.41800000000E+01 0. -1.
        -11    1    1    2    0    0 -0.13135195233E+02  0.49299985004E+02 -0.58287459981E+02  0.77462570744E+02  0.00000000000E+00 0.  1.
         11    1    1    2    0    0  0.21245856988E+02 -0.19460442681E+02  0.13329756287E+02  0.31745514190E+02  0.00000000000E+00 0. -1.
</event>
<event>
 7    1  0.2841804E-009  0.1126624E+03  0.7561462E-02  0.1255718E+00
          2   -1    0    0  501    0  0.00000000000E+00  0.00000000000E+00  0.21547961185E+03  0.21547961185E+03  0.00000000000E+00 0. -1.
         -2   -1    0    0    0  501 -0.00000000000E+00 -0.00000000000E+00 -0.63063415724E+02  0.63063415724E+02  0.00000000000E+00 0.  1.
         25    2    1    2    0    0 -0.30083333923E+02 -0.31155701180E+02  0.91207583840E+02  0.16075389366E+03  0.12508919330E+03 0.  0.
          5    1    3    3  502    0  0.27020575692E+02 -0.57689473823E+02  0.68625892617E+02  0.93729250708E+02  0.41800000000E+01 0. -1.
         -5    1    3    3    0  502 -0.57103909615E+02  0.26533772644E+02  0.22581691223E+02  0.67024642949E+02  0.41800000000E+01 0. -1.
        -11    1    1    2    0    0  0.51156710314E+01  0.60006139660E+02  0.25058666082E+02  0.65229162442E+02  0.00000000000E+00 0.  1.
         11    1    1    2    0    0  0.24967662892E+02 -0.28850438481E+02  0.36149946200E+02  0.52559971471E+02  0.00000000000E+00 0. -1.
</event>
<event>
 7    1  0.2841804E-009  0.1048309E+03  0.7561462E-02  0.1270453E+00
         -4   -1    0    0    0  501 -0.00000000000E+00  0.00000000000E+00  0.33860241416E+02  0.33860241416E+02  0.00000000000E+00 0.  1.
          4   -1    0    0  501    0  0.00000000000E+00 -0.00000000000E+00 -0.35802869888E+03  0.35802869888E+03  0.00000000000E+00 0. -1.
         25    2    1    2    0    0  0.35675742665E+01 -0.13429776137E+02 -0.20176586342E+03  0.23780278671E+03  0.12509042830E+03 0.  0.
          5    1    3    3  502    0 -0.59686906134E+02 -0.81891861249E+01 -0.77981208087E+02  0.98631286862E+02  0.41800000000E+01 0.  1.
         -5    1    3    3    0  502  0.63254480401E+02 -0.52405900120E+01 -0.12378465533E+03  0.13917149985E+03  0.41800000000E+01 0.  1.
        -11    1    1    2    0    0  0.26863143874E+02  0.38009819546E+02 -0.96589817821E+02  0.10721925101E+03  0.00000000000E+00 0. -1.
         11    1    1    2    0    0 -0.30430718141E+02 -0.24580043409E+02 -0.25812776223E+02  0.46866902574E+02  0.00000000000E+00 0.  1.
</event>
<event>
 7    1  0.2971282E-009  0.9812755E+02  0.7561462E-02  0.1284283E+00
          2   -1    0    0  501    0  0.00000000000E+00  0.00000000000E+00  0.58004834232E+03  0.58004834232E+03  0.00000000000E+00 0. -1.
         -2   -1    0    0    0  501 -0.00000000000E+00 -0.00000000000E+00 -0.32325833781E+02  0.32325833781E+02  0.00000000000E+00 0.  1.
         25    2    1    2    0    0 -0.69049647653E+02 -0.39776622515E+02  0.24927494915E+03  0.29006202882E+03  0.12509175332E+03 0.  0.
          5    1    3    3  502    0 -0.28768737012E+02 -0.28613504955E+02  0.24439074419E+03  0.24777142922E+03  0.41800000000E+01 0. -1.
         -5    1    3    3    0  502 -0.40280910642E+02 -0.11163117560E+02  0.48842049597E+01  0.42290599592E+02  0.41800000000E+01 0. -1.
        -11    1    1    2    0    0  0.42564621247E+01  0.47960703030E+02  0.18737439057E+03  0.19346190516E+03  0.00000000000E+00 0.  1.
         11    1    1    2    0    0  0.64793185529E+02 -0.81840805144E+01  0.11107316882E+03  0.12885024213E+03  0.00000000000E+00 0. -1.
</event>
<event>
 7    1  0.2841804E-009  0.1067948E+03  0.7561462E-02  0.1266623E+00
          1   -1    0    0  501    0  0.00000000000E+00  0.00000000000E+00  0.15410268514E+03  0.15410268514E+03  0.00000000000E+00 0. -1.
         -1   -1    0    0    0  501 -0.00000000000E+00 -0.00000000000E+00 -0.23509116359E+03  0.23509116359E+03  0.00000000000E+00 0.  1.
         25    2    1    2    0    0  0.66061928899E+02 -0.87792038712E+01  0.10140928256E+03  0.17427905169E+03  0.12509233548E+03 0.  0.
          5    1    3    3  502    0  0.27544207491E+02  0.33243324724E+02 -0.13928636223E+02  0.45555255592E+02  0.41800000000E+01 0. -1.
         -5    1    3    3    0  502  0.38517721408E+02 -0.42022528595E+02  0.11533791878E+03  0.12872379609E+03  0.41800000000E+01 0. -1.
        -11    1    1    2    0    0 -0.73705410922E+02  0.37950854695E+02 -0.12348498949E+03  0.14873230181E+03  0.00000000000E+00 0.  1.
         11    1    1    2    0    0  0.76434820226E+01 -0.29171650824E+02 -0.58912771504E+02  0.66182495235E+02  0.00000000000E+00 0. -1.
</event>
<event>
 7    1  0.2841804E-009  0.2377287E+03  0.7561462E-02  0.1121315E+00
         -1   -1    0    0    0  501 -0.00000000000E+00  0.00000000000E+00  0.58594979951E+02  0.58594979951E+02  0.00000000000E+00 0.  1.
          1   -1    0    0  501    0  0.00000000000E+00 -0.00000000000E+00 -0.13481876476E+04  0.13481876476E+04  0.00000000000E+00 0. -1.
         25    2    1    2    0    0 -0.16664454408E+03 -0.15530550960E+03 -0.35252580069E+03  0.43796517111E+03  0.12509534590E+03 0.  0.
          5    1    3    3  502    0 -0.87432090571E+02 -0.10761932520E+03 -0.30242227620E+03  0.33272059623E+03  0.41800000000E+01 0.  1.
         -5    1    3    3    0  502 -0.79212453512E+02 -0.47686184398E+02 -0.50103524494E+02  0.10524457487E+03  0.41800000000E+01 0.  1.
        -11    1    1    2    0    0  0.12036999746E+03  0.52262854250E+02 -0.44456291044E+03  0.46352618433E+03  0.00000000000E+00 0.  1.
         11    1    1    2    0    0  0.46274546622E+02  0.10304265535E+03 -0.49250395657E+03  0.50529127216E+03  0.00000000000E+00 0. -1.
</event>
<event>
 7    1  0.2841804E-009  0.1328259E+03  0.7561462E-02  0.1223322E+00
         -4   -1    0    0    0  501 -0.00000000000E+00  0.00000000000E+00  0.31476359972E+03  0.31476359972E+03  0.00000000000E+00 0.  1.
          4   -1    0    0  501    0  0.00000000000E+00 -0.00000000000E+00 -0.11503494607E+03  0.11503494607E+03  0.00000000000E+00 0. -1.
         25    2    1    2    0    0 -0.86448137448E+02 -0.59345546558E+02  0.23547895240E+03  0.28651804799E+03  0.12508829055E+03 0.  0.
          5    1    3    3  502    0 -0.39628327241E+02 -0.89243280226E+02  0.19343644720E+03  0.21672539973E+03  0.41800000000E+01 0.  1.
         -5    1    3    3    0  502 -0.46819810207E+02  0.29897733668E+02  0.42042505209E+02  0.69792648256E+02  0.41800000000E+01 0.  1.
        -11    1    1    2    0    0  0.27571130309E+02  0.43041348021E+02 -0.58865731798E+02  0.77960882795E+02  0.00000000000E+00 0. -1.
         11    1    1    2    0    0  0.58877007139E+02  0.16304198537E+02  0.23115433048E+02  0.65319615006E+02  0.00000000000E+00 0.  1.
</event>
<event>
 7    1  0.2841804E-009  0.1089312E+03  0.7561462E-02  0.1262562E+00
         -2   -1    0    0    0  501 -0.00000000000E+00  0.00000000000E+00  0.10531540093E+03  0.10531540093E+03  0.00000000000E+00 0.  1.
          2   -1    0    0  501    0  0.00000000000E+00 -0.00000000000E+00 -0.16401114753E+03  0.16401114753E+03  0.00000000000E+00 0. -1.
         25    2    1    2    0    0 -0.53713984377E+02 -0.48848091546E+02 -0.15812976645E+01  0.14464288004E+03  0.12509090326E+03 0.  0.
          5    1    3    3  502    0  0.56259994721E+01 -0.65359975715E+02 -0.34968517648E+02  0.74457020637E+02  0.41800000000E+01 0.  1.
         -5    1    3    3    0  502 -0.59339983849E+02  0.16511884170E+02  0.33387219984E+02  0.70185859404E+02  0.41800000000E+01 0.  1.
        -11    1    1    2    0    0  0.31997425022E+02  0.58459247788E+02 -0.43073652824E+01  0.66782275012E+02  0.00000000000E+00 0.  1.
         11    1    1    2    0    0  0.21716559354E+02 -0.96111562428E+01 -0.52807083656E+02  0.57901393410E+02  0.00000000000E+00 0. -1.
</event>
<event>
 7    1  0.2841804E-009  0.1065216E+03  0.7561462E-02  0.1267150E+00
          2   -1    0    0  501    0  0.00000000000E+00  0.00000000000E+00  0.12217516964E+03  0.12217516964E+03  0.00000000000E+00 0. -1.
         -2   -1    0    0    0  501 -0.00000000000E+00 -0.00000000000E+00 -0.11534779576E+03  0.11534779576E+03  0.00000000000E+00 0.  1.
         25    2    1    2    0    0  0.38250302965E+02 -0.45390049415E+02 -0.37882638270E+01  0.13851173139E+03  0.12509119284E+03 0.  0.
          5    1    3    3  502    0  0.77270412671E+02 -0.31019046859E+02  0.25841409715E+02  0.87282007301E+02  0.41800000000E+01 0. -1.
         -5    1    3    3    0  502 -0.39020109706E+02 -0.14371002556E+02 -0.29629673542E+02  0.51229724088E+02  0.41800000000E+01 0. -1.
        -11    1    1    2    0    0  0.18005770849E+02  0.51891622038E+01 -0.16277913293E+02  0.24821475569E+02  0.00000000000E+00 0.  1.
         11    1    1    2    0    0 -0.56256073813E+02  0.40200887211E+02  0.26893550998E+02  0.74189758449E+02  0.00000000000E+00 0. -1.
</event>
<event>
 7    1  0.2841804E-009  0.1561506E+03  0.7561462E-02  0.1193113E+00
          1   -1    0    0  501    0  0.00000000000E+00  0.00000000000E+00  0.34890144742E+03  0.34890144742E+03  0.00000000000E+00 0. -1.
         -1   -1    0    0    0  501 -0.00000000000E+00 -0.00000000000E+00 -0.14073229390E+03  0.14073229390E+03  0.00000000000E+00 0.  1.
         25    2    1    2    0    0 -0.79611731424E+02  0.10098075793E+03 -0.52617395815E+02  0.18695354784E+03  0.12509155629E+03 0.  0.
          5    1    3    3  502    0  0.15022744243E+02  0.70940045456E+02  0.37021554099E+01  0.72727926194E+02  0.41800000000E+01 0. -1.
         -5    1    3    3    0  502 -0.94634475667E+02  0.30040712474E+02 -0.56319551225E+02  0.11422562165E+03  0.41800000000E+01 0. -1.
        -11    1    1    2    0    0  0.32925050418E+02 -0.84655406940E+02  0.10303190217E+03  0.13735417625E+03  0.00000000000E+00 0.  1.
         11    1    1    2    0    0  0.46686681005E+02 -0.16325350990E+02  0.15775464717E+03  0.16532601722E+03  0.00000000000E+00 0. -1.
</event>
<event>
 7    1  0.2841804E-009  0.1114635E+03  0.7561462E-02  0.1257884E+00
          1   -1    0    0  501    0  0.00000000000E+00  0.00000000000E+00  0.38898565996E+03  0.38898565996E+03  0.00000000000E+00 0. -1.
         -1   -1    0    0    0  501 -0.00000000000E+00 -0.00000000000E+00 -0.44942198169E+02  0.44942198169E+02  0.00000000000E+00 0.  1.
         25    2    1    2    0    0 -0.50662217878E+02  0.56417146768E+02  0.19641942090E+03  0.24490246893E+03  0.12508827128E+03 0.  0.
          5    1    3    3  502    0  0.32926622126E+02  0.49045371258E+02  0.57439904487E+02  0.82501066138E+02  0.41800000000E+01 0. -1.
         -5    1    3    3    0  502 -0.83588840003E+02  0.73717755095E+01  0.13897951641E+03  0.16240140279E+03  0.41800000000E+01 0. -1.
        -11    1    1    2    0    0  0.20153632249E+02 -0.64798626243E+01  0.12420141615E+03  0.12599265568E+03  0.00000000000E+00 0. -1.
         11    1    1    2    0    0  0.30508585629E+02 -0.49937284144E+02  0.23422624746E+02  0.63032733518E+02  0.00000000000E+00 0.  1.
</event>
<event>
 7    1  0.2841804E-009  0.1748082E+03  0.7561462E-02  0.1172924E+00
          1   -1    0    0  501    0  0.00000000000E+00  0.00000000000E+00  0.82898908001E+02  0.82898908001E+02  0.00000000000E+00 0. -1.
         -1   -1    0    0    0  501 -0.00000000000E+00 -0.00000000000E+00 -0.52933928023E+03  0.52933928023E+03  0.00000000000E+00 0.  1.
         25    2    1    2    0    0  0.16962345845E+03  0.38547681394E+01 -0.14159860670E+03  0.25393823613E+03  0.12508990948E+03 0.  0.
          5    1    3    3  502    0  0.14311718977E+03  0.59414878920E+00 -0.16480356809E+03  0.21831301261E+03  0.41800000000E+01 0.  1.
         -5    1    3    3    0  502  0.26506268673E+02  0.32606193502E+01  0.23204961386E+02  0.35625223514E+02  0.41800000000E+01 0.  1.
        -11    1    1    2    0    0 -0.91878247046E+02  0.26997439592E+02 -0.10752242681E+03  0.14398453491E+03  0.00000000000E+00 0. -1.
         11    1    1    2    0    0 -0.77745211399E+02 -0.30852207732E+02 -0.19731933871E+03  0.21431541719E+03  0.00000000000E+00 0.  1.
</event>
<event>
 7    1  0.2841804E-009  0.1185664E+03  0.7561462E-02  0.1245481E+00
          1   -1    0    0  501    0  0.00000000000E+00  0.00000000000E+00  0.11181469599E+04  0.11181469599E+04  0.00000000000E+00 0. -1.
         -1   -1    0    0    0  501 -0.00000000000E+00 -0.00000000000E+00 -0.18430491121E+02  0.18430491121E+02  0.00000000000E+00 0.  1.
         25    2    1    2    0    0 -0.43504668407E+02 -0.72965259817E+02  0.74838684891E+03  0.76351095825E+03  0.12509805131E+03 0.  0.
          5    1    3    3  502    0  0.14732305071E+02 -0.69009303162E+02  0.20223988136E+03  0.21423764083E+03  0.41800000000E+01 0. -1.
         -5    1    3    3    0  502 -0.58236973478E+02 -0.39559566554E+01  0.54614696755E+03  0.54927331743E+03  0.41800000000E+01 0. -1.
        -11    1    1    2    0    0  0.17851572858E+02 -0.10428148213E+02  0.14839514784E+02  0.25448695992E+02  0.00000000000E+00 0.  1.
         11    1    1    2    0    0  0.25653095549E+02  0.83393408031E+02  0.33649010513E+03  0.34761779682E+03  0.00000000000E+00 0. -1.
</event>
<event>
 7    1  0.2841804E-009  0.1313901E+03  0.7561462E-02  0.1225408E+00
          1   -1    0    0  501    0  0.00000000000E+00  0.00000000000E+00  0.38375722785E+02  0.38375722785E+02  0.00000000000E+00 0. -1.
         -1   -1    0    0    0  501 -0.00000000000E+00 -0.00000000000E+00 -0.71426712600E+03  0.71426712600E+03  0.00000000000E+00 0.  1.
         25    2    1    2    0    0  0.72069448653E+02  0.29790772721E+02 -0.14149507526E+03  0.20432633397E+03  0.12508756478E+03 0.  0.
          5    1    3    3  502    0  0.76277260190E+02  0.70553417647E+02 -0.11643305187E+03  0.15610936273E+03  0.41800000000E+01 0. -1.
         -5    1    3    3    0  502 -0.42078115378E+01 -0.40762644926E+02 -0.25062023391E+02  0.48216971242E+02  0.41800000000E+01 0. -1.
        -11    1    1    2    0    0  0.15852751133E+01 -0.42779850382E+02 -0.12454439479E+03  0.13169637417E+03  0.00000000000E+00 0. -1.
         11    1    1    2    0    0 -0.73654723766E+02  0.12989077661E+02 -0.40985193317E+03  0.41662014065E+03  0.00000000000E+00 0.  1.
</event>
<event>
 7    1  0.2841804E-009  0.8323749E+02  0.7561462E-02  0.1320107E+00
         -4   -1    0    0    0  501 -0.00000000000E+00  0.00000000000E+00  0.54805354437E+03  0.54805354437E+03  0.00000000000E+00 0.  1.
          4   -1    0    0  501    0  0.00000000000E+00 -0.00000000000E+00 -0.29216130576E+02  0.29216130576E+02  0.00000000000E+00 0. -1.
         25    2    1    2    0    0  0.50081522213E+02  0.40910728592E+02  0.30493483678E+03  0.33587999425E+03  0.12509304247E+03 0.  0.
          5    1    3    3  502    0  0.11466740993E+02 -0.34811904454E+01  0.26347831545E+03  0.26378381290E+03  0.41800000000E+01 0.  1.
         -5    1    3    3    0  502  0.38614781220E+02  0.44391919038E+02  0.41456521331E+02  0.72096181351E+02  0.41800000000E+01 0.  1.
        -11    1    1    2    0    0 -0.20329529174E+02  0.19051222095E+02  0.15247676334E+02  0.31760517208E+02  0.00000000000E+00 0. -1.
         11    1    1    2    0    0 -0.29751993039E+02 -0.59961950687E+02  0.19865490068E+03  0.20962916349E+03  0.00000000000E+00 0.  1.
</event>
<event>
 7    1  0.2841804E-009  0.9070699E+02  0.7561462E-02  0.1301149E+00
          3   -1    0    0  501    0  0.00000000000E+00  0.00000000000E+00  0.18318503109E+03  0.18318503109E+03  0.00000000000E+00 0. -1.
         -3   -1    0    0    0  501 -0.00000000000E+00 -0.00000000000E+00 -0.66607271254E+02  0.66607271254E+02  0.00000000000E+00 0.  1.
         25    2    1    2    0    0 -0.12623024393E+02 -0.35084262799E+02  0.72659366212E+02  0.14939120338E+03  0.12509237350E+03 0.  0.
          5    1    3    3  502    0 -0.38549434273E+02  0.29122752901E+02  0.62769060460E+02  0.79319738844E+02  0.41800000000E+01 0. -1.
         -5    1    3    3    0  502  0.25926409880E+02 -0.64207015700E+02  0.98903057526E+01  0.70071464536E+02  0.41800000000E+01 0. -1.
        -11    1    1    2    0    0  0.26625840545E+02  0.93601695066E+00  0.55629209050E+02  0.61679983885E+02  0.00000000000E+00 0. -1.
         11    1    1    2    0    0 -0.14002816151E+02  0.34148245849E+02 -0.11710815429E+02  0.38721115076E+02  0.00000000000E+00 0.  1.
</event>
<event>
 7    1  0.2841804E-009  0.3403190E+03  0.7561462E-02  0.1066660E+00
         -2   -1    0    0    0  501 -0.00000000000E+00  0.00000000000E+00  0.14898210328E+03  0.14898210328E+03  0.00000000000E+00 0.  1.
          2   -1    0    0  501    0  0.00000000000E+00 -0.00000000000E+00 -0.86734726727E+03  0.86734726727E+03  0.00000000000E+00 0. -1.
         25    2    1    2    0    0  0.53399908740E+02  0.32232419068E+03 -0.51014406118E+03  0.61857823431E+03  0.12509050586E+03 0.  0.
          5    1    3    3  502    0  0.86151146268E+02  0.17884260397E+03 -0.33852798952E+03  0.39246065929E+03  0.41800000000E+01 0. -1.
         -5    1    3    3    0  502 -0.32751237529E+02  0.14348158671E+03 -0.17161607166E+03  0.22611757503E+03  0.41800000000E+01 0. -1.
        -11    1    1    2    0    0 -0.71953232468E+02 -0.24620263540E+03 -0.18424355357E+03  0.31581433212E+03  0.00000000000E+00 0. -1.
         11    1    1    2    0    0  0.18553323728E+02 -0.76121555278E+02 -0.23977549237E+02  0.81936804104E+02  0.00000000000E+00 0.  1.
</event>
<event>
 7    1  0.2841804E-009  0.4880765E+02  0.7561462E-02  0.1451881E+00
          4   -1    0    0  501    0  0.00000000000E+00  0.00000000000E+00  0.97563891519E+02  0.97563891519E+02  0.00000000000E+00 0.  1.
         -4   -1    0    0    0  501 -0.00000000000E+00 -0.00000000000E+00 -0.13537979232E+03  0.13537979232E+03  0.00000000000E+00 0. -1.
         25    2    1    2    0    0  0.21264168981E+02 -0.34089133577E+02 -0.17588034623E+02  0.13255855052E+03  0.12509275136E+03 0.  0.
          5    1    3    3  502    0  0.18999616094E+02 -0.35196844048E+02 -0.69565065724E+02  0.80352809607E+02  0.41800000000E+01 0.  1.
         -5    1    3    3    0  502  0.22645528875E+01  0.11077104712E+01  0.51977031101E+02  0.52205740913E+02  0.41800000000E+01 0.  1.
        -11    1    1    2    0    0 -0.69409209475E+01  0.37216235541E+02  0.29846790190E+02  0.48208458346E+02  0.00000000000E+00 0.  1.
         11    1    1    2    0    0 -0.14323248034E+02 -0.31271019642E+01 -0.50074656366E+02  0.52176674972E+02  0.00000000000E+00 0. -1.
</event>
<event>
 7    1  0.2841804E-009  0.8019965E+02  0.7561462E-02  0.1328486E+00
          2   -1    0    0  501    0  0.00000000000E+00  0.00000000000E+00  0.51317140950E+03  0.51317140950E+03  0.00000000000E+00 0. -1.
         -2   -1    0    0    0  501 -0.00000000000E+00 -0.00000000000E+00 -0.32265997258E+02  0.32265997258E+02  0.00000000000E+00 0.  1.
         25    2    1    2    0    0 -0.31165868229E+02 -0.34881990862E+02  0.37584072647E+03  0.39886249707E+03  0.12508787018E+03 0.  0.
          5    1    3    3  502    0  0.16305833218E+02  0.14305927358E+02  0.28106180540E+03  0.28192862680E+03  0.41800000000E+01 0.  1.
         -5    1    3    3    0  502 -0.47471701446E+02 -0.49187918220E+02  0.94778921074E+02  0.11693387027E+03  0.41800000000E+01 0.  1.
        -11    1    1    2    0    0 -0.86468964144E+01  0.28143859327E+02  0.10190451016E+03  0.10607249797E+03  0.00000000000E+00 0. -1.
         11    1    1    2    0    0  0.39812764643E+02  0.67381315345E+01  0.31601756153E+01  0.40502411718E+02  0.00000000000E+00 0.  1.
</event>
<event>
 7    1  0.2841804E-009  0.1002518E+03  0.7561462E-02  0.1279767E+00
         -3   -1    0    0    0  501 -0.00000000000E+00  0.00000000000E+00  0.32796897719E+03  0.32796897719E+03  0.00000000000E+00 0.  1.
          3   -1    0    0  501    0  0.00000000000E+00 -0.00000000000E+00 -0.42241271925E+02  0.42241271925E+02  0.00000000000E+00 0. -1.
         25    2    1    2    0    0  0.36918100307E+01  0.36621399144E+02  0.12472842313E+03  0.18044261326E+03  0.12509037056E+03 0.  0.
          5    1    3    3  502    0 -0.16190114502E+02 -0.43462651807E+02  0.33524877048E+02  0.57380412083E+02  0.41800000000E+01 0. -1.
         -5    1    3    3    0  502  0.19881924533E+02  0.80084050951E+02  0.91203546080E+02  0.12306220117E+03  0.41800000000E+01 0. -1.
        -11    1    1    2    0    0  0.28707930983E+02 -0.15323298327E+02  0.14365042868E+03  0.14729017086E+03  0.00000000000E+00 0.  1.
         11    1    1    2    0    0 -0.32399741013E+02 -0.21298100817E+02  0.17348853454E+02  0.42477464994E+02  0.00000000000E+00 0. -1.
</event>
<event>
 7    1  0.2841804E-009  0.1095020E+03  0.7561462E-02  0.1261495E+00
          2   -1    0    0  501    0  0.00000000000E+00  0.00000000000E+00  0.92338470299E+03  0.92338470299E+03  0.00000000000E+00 0. -1.
         -2   -1    0    0    0  501 -0.00000000000E+00 -0.00000000000E+00 -0.28224082939E+02  0.28224082939E+02  0.00000000000E+00 0.  1.
         25    2    1    2    0    0 -0.60392922422E+02  0.56411651948E+02  0.73411291987E+03  0.74926523881E+03  0.12508812661E+03 0.  0.
          5    1    3    3  502    0 -0.84257179711E+02  0.52107669535E+02  0.70117151540E+03  0.70814789978E+03  0.41800000000E+01 0. -1.
         -5    1    3    3    0  502  0.23864257289E+02  0.43039824127E+01  0.32941404471E+02  0.41117339032E+02  0.41800000000E+01 0. -1.
        -11    1    1    2    0    0 -0.46834152126E+01 -0.20265813787E+02  0.11031506026E+03  0.11225885313E+03  0.00000000000E+00 0. -1.
         11    1    1    2    0    0  0.65076337635E+02 -0.36145838161E+02  0.50732639917E+02  0.90084693979E+02  0.00000000000E+00 0.  1.
</event>
<event>
 7    1  0.2841804E-009  0.8019491E+02  0.7561462E-02  0.1328499E+00
         -2   -1    0    0    0  501 -0.00000000000E+00  0.00000000000E+00  0.20502907816E+02  0.20502907816E+02  0.00000000000E+00 0.  1.
          2   -1    0    0  501    0  0.00000000000E+00 -0.00000000000E+00 -0.68560334601E+03  0.68560334601E+03  0.00000000000E+00 0. -1.
         25    2    1    2    0    0  0.41218377251E+02  0.25901140873E+02 -0.42631756074E+03  0.44694956773E+03  0.12508968693E+03 0.  0.
          5    1    3    3  502    0 -0.12181680380E+02  0.11998849023E+02 -0.56038118945E+00  0.17611136870E+02  0.41800000000E+01 0.  1.
         -5    1    3    3    0  502  0.53400057631E+02  0.13902291850E+02 -0.42575717955E+03  0.42933843086E+03  0.41800000000E+01 0.  1.
        -11    1    1    2    0    0 -0.50755931900E+02  0.87544421167E+01 -0.19892738366E+03  0.20548700409E+03  0.00000000000E+00 0. -1.
         11    1    1    2    0    0  0.95375546488E+01 -0.34655582990E+02 -0.39855493790E+02  0.53669682003E+02  0.00000000000E+00 0.  1.
</event>
<event>
 7    1  0.2841804E-009  0.1052391E+03  0.7561462E-02  0.1269649E+00
         -1   -1    0    0    0  501 -0.00000000000E+00  0.00000000000E+00  0.54607846749E+02  0.54607846749E+02  0.00000000000E+00 0.  1.
          1   -1    0    0  501    0  0.00000000000E+00 -0.00000000000E+00 -0.22224821914E+03  0.22224821914E+03  0.00000000000E+00 0. -1.
         25    2    1    2    0    0 -0.62998044619E+01  0.22299246114E+02 -0.85089377539E+02  0.15305119396E+03  0.12509005511E+03 0.  0.
          5    1    3    3  502    0 -0.61718085559E+02  0.15720352050E+02 -0.70738472199E+02  0.95276730646E+02  0.41800000000E+01 0. -1.
         -5    1    3    3    0  502  0.55418281097E+02  0.65788940639E+01 -0.14350905340E+02  0.57774463312E+02  0.41800000000E+01 0. -1.
        -11    1    1    2    0    0  0.34184223029E+02  0.20312846533E+02 -0.25055337094E+02  0.46999391010E+02  0.00000000000E+00 0.  1.
         11    1    1    2    0    0 -0.27884418567E+02 -0.42612092647E+02 -0.57495657756E+02  0.76805480920E+02  0.00000000000E+00 0. -1.
</event>
<event>
 7    1  0.2841804E-009  0.1167439E+03  0.7561462E-02  0.1248567E+00
         -2   -1    0    0    0  501 -0.00000000000E+00  0.00000000000E+00  0.39266767133E+03  0.39266767133E+03  0.00000000000E+00 0.  1.
          2   -1    0    0  501    0  0.00000000000E+00 -0.00000000000E+00 -0.43800418630E+02  0.43800418630E+02  0.00000000000E+00 0. -1.
         25    2    1    2    0    0 -0.13232447473E+02 -0.54571082794E+02  0.26647274943E+03  0.29968588439E+03  0.12510316690E+03 0.  0.
          5    1    3    3  502    0  0.16312463698E+02  0.37044114079E+02  0.74415501603E+02  0.84814516084E+02  0.41800000000E+01 0.  1.
         -5    1    3    3    0  502 -0.29544911172E+02 -0.91615196873E+02  0.19205724783E+03  0.21487136831E+03  0.41800000000E+01 0.  1.
        -11    1    1    2    0    0 -0.31958847243E+02  0.34401796519E+02  0.72402173413E+02  0.86295574833E+02  0.00000000000E+00 0.  1.
         11    1    1    2    0    0  0.45191294717E+02  0.20169286275E+02  0.99923298524E+01  0.50486630734E+02  0.00000000000E+00 0. -1.
</event>
<event>
 7    1  0.2841804E-009  0.1506492E+03  0.7561462E-02  0.1199677E+00
          1   -1    0    0  501    0  0.00000000000E+00  0.00000000000E+00  0.16970550283E+04  0.16970550283E+04  0.00000000000E+00 0. -1.
         -1   -1    0    0    0  501 -0.00000000000E+00 -0.00000000000E+00 -0.15623201862E+02  0.15623201862E+02  0.00000000000E+00 0.  1.
         25    2    1    2    0    0 -0.42310151585E+02  0.11279902652E+03  0.90938892856E+03  0.92582388526E+03  0.12509146177E+03 0.  0.
          5    1    3    3  502    0  0.15610961622E+02  0.92822883663E+02  0.32992353121E+03  0.34311339045E+03  0.41800000000E+01 0. -1.
         -5    1    3    3    0  502 -0.57921113207E+02  0.19976142855E+02  0.57946539735E+03  0.58271049481E+03  0.41800000000E+01 0. -1.
        -11    1    1    2    0    0  0.17570222435E+02 -0.11889631890E+03  0.70423265340E+03  0.71441491969E+03  0.00000000000E+00 0.  1.
         11    1    1    2    0    0  0.24739929150E+02  0.60972923852E+01  0.67810244433E+02  0.72439425169E+02  0.00000000000E+00 0. -1.
</event>
<event>
 7    1  0.2841804E-009  0.1279172E+03  0.7561462E-02  0.1230579E+00
         -1   -1    0    0    0  501 -0.00000000000E+00  0.00000000000E+00  0.33295276040E+02  0.33295276040E+02  0.00000000000E+00 0.  1.
          1   -1    0    0  501    0  0.00000000000E+00 -0.00000000000E+00 -0.53874525102E+03  0.53874525102E+03  0.00000000000E+00 0. -1.
         25    2    1    2    0    0 -0.75468334129E+02 -0.18798767185E+02 -0.25734948885E+03  0.29652099066E+03  0.12508827037E+03 0.  0.
          5    1    3    3  502    0  0.23937951226E+02 -0.38357126912E+02 -0.68743084052E+02  0.82385549089E+02  0.41800000000E+01 0. -1.
         -5    1    3    3    0  502 -0.99406285354E+02  0.19558359726E+02 -0.18860640480E+03  0.21413544157E+03  0.41800000000E+01 0. -1.
        -11    1    1    2    0    0  0.74590390635E+02 -0.14274894174E+02 -0.21778182181E+03  0.23064349306E+03  0.00000000000E+00 0. -1.
         11    1    1    2    0    0  0.87794349341E+00  0.33073661360E+02 -0.30318664316E+02  0.44876043346E+02  0.00000000000E+00 0.  1.
</event>
<event>
 7    1  0.2841804E-009  0.1371679E+03  0.7561462E-02  0.1217191E+00
          2   -1    0    0  501    0  0.00000000000E+00  0.00000000000E+00  0.87578347013E+03  0.87578347013E+03  0.00000000000E+00 0. -1.
         -2   -1    0    0    0  501 -0.00000000000E+00 -0.00000000000E+00 -0.27545143561E+02  0.27545143561E+02  0.00000000000E+00 0.  1.
         25    2    1    2    0    0  0.87011065060E+02 -0.57400505963E+02  0.56224681347E+03  0.58535302935E+03  0.12510374170E+03 0.  0.
          5    1    3    3  502    0 -0.77923068431E+01  0.30091401931E+02  0.74859893829E+02  0.81164577373E+02  0.41800000000E+01 0.  1.
         -5    1    3    3    0  502  0.94803371903E+02 -0.87491907894E+02  0.48738691964E+03  0.50418845198E+03  0.41800000000E+01 0.  1.
        -11    1    1    2    0    0 -0.30426706506E+02 -0.36654797959E+01  0.18297926855E+03  0.18552798422E+03  0.00000000000E+00 0. -1.
         11    1    1    2    0    0 -0.56584358553E+02  0.61065985759E+02  0.10301224455E+03  0.13244760012E+03  0.00000000000E+00 0.  1.
</event>
<event>
 7    1  0.2841804E-009  0.1769290E+03  0.7561462E-02  0.1170809E+00
         -2   -1    0    0    0  501 -0.00000000000E+00  0.00000000000E+00  0.15225437900E+03  0.15225437900E+03  0.00000000000E+00 0.  1.
          2   -1    0    0  501    0  0.00000000000E+00 -0.00000000000E+00 -0.25320951979E+03  0.25320951979E+03  0.00000000000E+00 0. -1.
         25    2    1    2    0    0  0.10182692258E+02  0.15180560725E+03  0.90448813303E+01  0.19717498461E+03  0.12509010778E+03 0.  0.
          5    1    3    3  502    0  0.59320022519E+02  0.84006001623E+02  0.36113674676E+02  0.10907586020E+03  0.41800000000E+01 0. -1.
         -5    1    3    3    0  502 -0.49137330261E+02  0.67799605629E+02 -0.27068793345E+02  0.88099124410E+02  0.41800000000E+01 0. -1.
        -11    1    1    2    0    0 -0.32264387659E+02 -0.32613624838E+02 -0.19734874933E+01  0.45918774907E+02  0.00000000000E+00 0.  1.
         11    1    1    2    0    0  0.22081695402E+02 -0.11919198241E+03 -0.10802653463E+03  0.16237013928E+03  0.00000000000E+00 0. -1.
</event>
<event>
 7    1  0.2841804E-009  0.1112693E+03  0.7561462E-02  0.1258237E+00
          2   -1    0    0  501    0  0.00000000000E+00  0.00000000000E+00  0.40413001619E+03  0.40413001619E+03  0.00000000000E+00 0. -1.
         -2   -1    0    0    0  501 -0.00000000000E+00 -0.00000000000E+00 -0.42060312320E+02  0.42060312320E+02  0.00000000000E+00 0.  1.
         25    2    1    2    0    0  0.18554664563E+02 -0.63933939090E+02  0.17082435882E+03  0.22194744541E+03  0.12509149776E+03 0.  0.
          5    1    3    3  502    0 -0.50661557931E+02 -0.28287069623E+02  0.10442966928E+03  0.11953986777E+03  0.41800000000E+01 0. -1.
         -5    1    3    3    0  502  0.69216222495E+02 -0.35646869467E+02  0.66394689537E+02  0.10240757764E+03  0.41800000000E+01 0. -1.
        -11    1    1    2    0    0 -0.24630609349E+02  0.26061643207E+01  0.14524082442E+03  0.14733755831E+03  0.00000000000E+00 0. -1.
         11    1    1    2    0    0  0.60759447851E+01  0.61327774769E+02  0.46004520626E+02  0.76905324791E+02  0.00000000000E+00 0.  1.
</event>
<event>
 7    1  0.2841804E-009  0.1258584E+03  0.7561462E-02  0.1233734E+00
          2   -1    0    0  501    0  0.00000000000E+00  0.00000000000E+00  0.90910910297E+03  0.90910910297E+03  0.00000000000E+00 0. -1.
         -2   -1    0    0    0  501 -0.00000000000E+00 -0.00000000000E+00 -0.21384067036E+02  0.21384067036E+02  0.00000000000E+00 0.  1.
         25    2    1    2    0    0  0.40426310206E+02 -0.70319420056E+02  0.58978590535E+03  0.60833711912E+03  0.12509008336E+03 0.  0.
          5    1    3    3  502    0  0.85703857108E+02 -0.46672484495E+02  0.37337292638E+03  0.38593818998E+03  0.41800000000E+01 0. -1.
         -5    1    3    3    0  502 -0.45277546902E+02 -0.23646935562E+02  0.21641297898E+03  0.22239892914E+03  0.41800000000E+01 0. -1.
        -11    1    1    2    0    0 -0.49136203732E+02  0.22256321726E+02  0.24178997633E+03  0.24773393596E+03  0.00000000000E+00 0. -1.
         11    1    1    2    0    0  0.87098935259E+01  0.48063098331E+02  0.56149154255E+02  0.74422114925E+02  0.00000000000E+00 0.  1.
</event>
<event>
 7    1  0.2841804E-009  0.1457634E+03  0.7561462E-02  0.1205778E+00
         -2   -1    0    0    0  501 -0.00000000000E+00  0.00000000000E+00  0.14707143465E+03  0.14707143465E+03  0.00000000000E+00 0.  1.
          2   -1    0    0  501    0  0.00000000000E+00 -0.00000000000E+00 -0.29726434357E+03  0.29726434357E+03  0.00000000000E+00 0. -1.
         25    2    1    2    0    0 -0.11491196146E+02  0.98826773994E+02 -0.23530642606E+03  0.28444614732E+03  0.12506685306E+03 0.  0.
          5    1    3    3  502    0 -0.61624398592E+02  0.89238388696E+02 -0.15583815143E+03  0.18990539318E+03  0.41800000000E+01 0.  1.
         -5    1    3    3    0  502  0.50133202446E+02  0.95883852983E+01 -0.79468274629E+02  0.94540754136E+02  0.41800000000E+01 0.  1.
        -11    1    1    2    0    0 -0.20879649718E+02  0.62822869188E+01  0.17296848773E+01  0.21872784712E+02  0.00000000000E+00 0. -1.
         11    1    1    2    0    0  0.32370845864E+02 -0.10510906091E+03  0.83383832262E+02  0.13801684618E+03  0.00000000000E+00 0.  1.
</event>
<event>
 7    1  0.2841804E-009  0.1037992E+03  0.7561462E-02  0.1272504E+00
         -2   -1    0    0    0  501 -0.00000000000E+00  0.00000000000E+00  0.18214444192E+02  0.18214444192E+02  0.00000000000E+00 0.  1.
          2   -1    0    0  501    0  0.00000000000E+00 -0.00000000000E+00 -0.94470529465E+03  0.94470529465E+03  0.00000000000E+00 0. -1.
         25    2    1    2    0    0  0.25817477123E+02 -0.39758832322E+02 -0.71626379757E+03  0.72864857030E+03  0.12509038502E+03 0.  0.
          5    1    3    3  502    0  0.54945893035E+02 -0.67468860790E+02 -0.58035737686E+03  0.58685880381E+03  0.41800000000E+01 0.  1.
         -5    1    3    3    0  502 -0.29128415912E+02  0.27710028469E+02 -0.13590642071E+03  0.14178976649E+03  0.41800000000E+01 0.  1.
        -11    1    1    2    0    0 -0.17855288302E+02 -0.15858759069E+02 -0.92859509215E+01  0.25623045176E+02  0.00000000000E+00 0.  1.
         11    1    1    2    0    0 -0.79621888206E+01  0.55617591390E+02 -0.20094110197E+03  0.20864812336E+03  0.00000000000E+00 0. -1.
</event>
<event>
 7    1  0.2841804E-009  0.1807080E+03  0.7561462E-02  0.1167120E+00
          1   -1    0    0  501    0  0.00000000000E+00  0.00000000000E+00  0.79121582709E+03  0.79121582709E+03  0.00000000000E+00 0. -1.
         -1   -1    0    0    0  501 -0.00000000000E+00 -0.00000000000E+00 -0.44551375604E+02  0.44551375604E+02  0.00000000000E+00 0.  1.
         25    2    1    2    0    0 -0.13634840664E+03 -0.56599298262E+02  0.47782247826E+03  0.51551519168E+03  0.12508886270E+03 0.  0.
          5    1    3    3  502    0 -0.57719719513E+02 -0.86890314384E+02  0.31940863212E+03  0.33603696140E+03  0.41800000000E+01 0. -1.
         -5    1    3    3    0  502 -0.78628687132E+02  0.30291016122E+02  0.15841384614E+03  0.17947823029E+03  0.41800000000E+01 0. -1.
        -11    1    1    2    0    0  0.12207634847E+03  0.83777994085E+01  0.20793227875E+03  0.24126469888E+03  0.00000000000E+00 0.  1.
         11    1    1    2    0    0  0.14272058172E+02  0.48221498853E+02  0.60909694479E+02  0.78987312130E+02  0.00000000000E+00 0. -1.
</event>
<event>
 7    1  0.2841804E-009  0.9791895E+02  0.7561462E-02  0.1284734E+00
         -1   -1    0    0    0  501 -0.00000000000E+00  0.00000000000E+00  0.27927796427E+02  0.27927796427E+02  0.00000000000E+00 0.  1.
          1   -1    0    0  501    0  0.00000000000E+00 -0.00000000000E+00 -0.62383561525E+03  0.62383561525E+03  0.00000000000E+00 0. -1.
         25    2    1    2    0    0  0.37754501603E+02 -0.25412319893E+02 -0.47647279291E+03  0.49471643586E+03  0.12508733404E+03 0.  0.
          5    1    3    3  502    0 -0.27390985858E+02  0.20675043876E+02 -0.49790313183E+02  0.60615767193E+02  0.41800000000E+01 0.  1.
         -5    1    3    3    0  502  0.65145487461E+02 -0.46087363769E+02 -0.42668247973E+03  0.43410066867E+03  0.41800000000E+01 0.  1.
        -11    1    1    2    0    0 -0.56265518338E+02  0.97390264827E+01 -0.30244529035E+02  0.64617247908E+02  0.00000000000E+00 0.  1.
         11    1    1    2    0    0  0.18511016735E+02  0.15673293410E+02 -0.89190496876E+02  0.92429727901E+02  0.00000000000E+00 0. -1.
</event>
<event>
 7    1  0.2841804E-009  0.2385002E+03  0.7561462E-02  0.1120796E+00
         -2   -1    0    0    0  501 -0.00000000000E+00  0.00000000000E+00  0.18662170755E+03  0.18662170755E+03  0.00000000000E+00 0. -1.
          2   -1    0    0  501    0  0.00000000000E+00 -0.00000000000E+00 -0.42444114771E+03  0.42444114771E+03  0.00000000000E+00 0.  1.
         25    2    1    2    0    0 -0.99621645617E+02 -0.19761762620E+03  0.25029619201E+02  0.25544271577E+03  0.12508917115E+03 0.  0.
          5    1    3    3  502    0 -0.22633877784E+02  0.13387218144E+02  0.15017444580E+02  0.30569692097E+02  0.41800000000E+01 0.  1.
         -5    1    3    3    0  502 -0.76987767833E+02 -0.21100484435E+03  0.10012174621E+02  0.22487302367E+03  0.41800000000E+01 0.  1.
        -11    1    1    2    0    0  0.92422670692E+02  0.14062100146E+03 -0.13597587485E+03  0.21634614545E+03  0.00000000000E+00 0. -1.
         11    1    1    2    0    0  0.71989749250E+01  0.56996624741E+02 -0.12687318451E+03  0.13927399405E+03  0.00000000000E+00 0.  1.
</event>
<event>
 7    1  0.2841804E-009  0.8763458E+02  0.7561462E-02  0.1308683E+00
         -3   -1    0    0    0  501 -0.00000000000E+00  0.00000000000E+00  0.10469240658E+03  0.10469240658E+03  0.00000000000E+00 0.  1.
          3   -1    0    0  501    0  0.00000000000E+00 -0.00000000000E+00 -0.13277760616E+03  0.13277760616E+03  0.00000000000E+00 0. -1.
         25    2    1    2    0    0 -0.40296898802E+02 -0.70385877460E+01 -0.40239569511E+01  0.13166802526E+03  0.12508754885E+03 0.  0.
          5    1    3    3  502    0 -0.16208009196E+02 -0.39176040637E+02 -0.53123994349E+02  0.68096203255E+02  0.41800000000E+01 0.  1.
         -5    1    3    3    0  502 -0.24088889606E+02  0.32137452891E+02  0.49100037398E+02  0.63571822007E+02  0.41800000000E+01 0.  1.
        -11    1    1    2    0    0  0.31997091730E+02 -0.36168113615E+02  0.11019461798E+02  0.49531554184E+02  0.00000000000E+00 0.  1.
         11    1    1    2    0    0  0.82998070723E+01  0.43206701361E+02 -0.35080704432E+02  0.56270433296E+02  0.00000000000E+00 0. -1.
</event>
<event>
 7    1  0.2841804E-009  0.1119994E+03  0.7561462E-02  0.1256911E+00
         -1   -1    0    0    0  501 -0.00000000000E+00  0.00000000000E+00  0.77022622715E+02  0.77022622715E+02  0.00000000000E+00 0. -1.
          1   -1    0    0  501    0  0.00000000000E+00 -0.00000000000E+00 -0.16491122542E+03  0.16491122542E+03  0.00000000000E+00 0.  1.
         25    2    1    2    0    0  0.16713477103E+02  0.10105829020E+02 -0.45994341165E+02  0.13469951539E+03  0.12508801674E+03 0.  0.
          5    1    3    3  502    0  0.12628631042E+02 -0.56713908497E+02 -0.30924532701E+02  0.65952625890E+02  0.41800000000E+01 0.  1.
         -5    1    3    3    0  502  0.40848460601E+01  0.66819737517E+02 -0.15069808464E+02  0.68746889503E+02  0.41800000000E+01 0.  1.
        -11    1    1    2    0    0  0.37103988146E+02  0.14057654179E+02 -0.15331761815E+02  0.42536883968E+02  0.00000000000E+00 0.  1.
         11    1    1    2    0    0 -0.53817465249E+02 -0.24163483199E+02 -0.26562499722E+02  0.64697448772E+02  0.00000000000E+00 0. -1.
</event>
<event>
 7    1  0.2841804E-009  0.1147164E+03  0.7561462E-02  0.1252077E+00
          3   -1    0    0  501    0  0.00000000000E+00  0.00000000000E+00  0.37145953130E+02  0.37145953130E+02  0.00000000000E+00 0.  1.
         -3   -1    0    0    0  501 -0.00000000000E+00 -0.00000000000E+00 -0.55019184164E+03  0.55019184164E+03  0.00000000000E+00 0. -1.
         25    2    1    2    0    0  0.65253525750E+02 -0.59752857514E+02 -0.22085256976E+03  0.26879552918E+03  0.12508697908E+03 0.  0.
          5    1    3    3  502    0  0.43826736727E+02  0.17977401760E+02 -0.16213218690E+03  0.16896238710E+03  0.41800000000E+01 0. -1.
         -5    1    3    3    0  502  0.21426789023E+02 -0.77730259274E+02 -0.58720382859E+02  0.99833142081E+02  0.41800000000E+01 0. -1.
        -11    1    1    2    0    0 -0.63904139355E+02  0.28690891247E+02 -0.27335836410E+03  0.28219089548E+03  0.00000000000E+00 0. -1.
         11    1    1    2    0    0 -0.13493863948E+01  0.31061966267E+02 -0.18834954647E+02  0.36351370106E+02  0.00000000000E+00 0.  1.
</event>
<event>
 7    1  0.2841804E-009  0.7590477E+02  0.7561462E-02  0.1341092E+00
          1   -1    0    0  501    0  0.00000000000E+00  0.00000000000E+00  0.10272546041E+04  0.10272546041E+04  0.00000000000E+00 0. -1.
         -1   -1    0    0    0  501 -0.00000000000E+00 -0.00000000000E+00 -0.23134002709E+02  0.23134002709E+02  0.00000000000E+00 0.  1.
         25    2    1    2    0    0  0.37945035749E+02  0.32099663473E+02  0.88202606374E+03  0.89223764297E+03  0.12509124780E+03 0.  0.
          5    1    3    3  502    0 -0.27013459966E+02  0.35761755490E+01  0.49298784699E+02  0.56483259676E+02  0.41800000000E+01 0. -1.
         -5    1    3    3    0  502  0.64958495716E+02  0.28523487924E+02  0.83272727905E+03  0.83575438329E+03  0.41800000000E+01 0. -1.
        -11    1    1    2    0    0 -0.25378318901E+02 -0.31691006357E+02  0.13449616742E+03  0.14049056197E+03  0.00000000000E+00 0. -1.
         11    1    1    2    0    0 -0.12566716849E+02 -0.40865711591E+00 -0.12401629771E+02  0.17660401863E+02  0.00000000000E+00 0.  1.
</event>
<event>
 7    1  0.2841804E-009  0.1434884E+03  0.7561462E-02  0.1208711E+00
          2   -1    0    0  501    0  0.00000000000E+00  0.00000000000E+00  0.71467663693E+03  0.71467663693E+03  0.00000000000E+00 0. -1.
         -2   -1    0    0    0  501 -0.00000000000E+00 -0.00000000000E+00 -0.30722316275E+02  0.30722316275E+02  0.00000000000E+00 0.  1.
         25    2    1    2    0    0 -0.88026051794E+02  0.44137217086E+02  0.41688989188E+03  0.44625241776E+03  0.12508940273E+03 0.  0.
          5    1    3    3  502    0 -0.41038456006E+02  0.85425315995E+02  0.28146573084E+03  0.29702200175E+03  0.41800000000E+01 0.  1.
         -5    1    3    3    0  502 -0.46987595788E+02 -0.41288098909E+02  0.13542416104E+03  0.14923041601E+03  0.41800000000E+01 0.  1.
        -11    1    1    2    0    0  0.96139394165E+02 -0.12722062167E+02  0.23157404168E+03  0.25106009391E+03  0.00000000000E+00 0. -1.
         11    1    1    2    0    0 -0.81133423714E+01 -0.31415154919E+02  0.35490387090E+02  0.48086441528E+02  0.00000000000E+00 0.  1.
</event>
<event>
 7    1  0.2841804E-009  0.1315347E+03  0.7561462E-02  0.1225196E+00
          2   -1    0    0  501    0  0.00000000000E+00  0.00000000000E+00  0.26580956157E+03  0.26580956157E+03  0.00000000000E+00 0. -1.
         -2   -1    0    0    0  501 -0.00000000000E+00 -0.00000000000E+00 -0.98226993152E+02  0.98226993152E+02  0.00000000000E+00 0.  1.
         25    2    1    2    0    0 -0.48589821781E+02  0.10468485046E+03  0.12281217516E+03  0.20987437505E+03  0.12507811255E+03 0.  0.
          5    1    3    3  502    0 -0.49265355602E+02  0.48231994720E+02 -0.58395444699E+01  0.69317914401E+02  0.41800000000E+01 0.  1.
         -5    1    3    3    0  502  0.67553382075E+00  0.56452855738E+02  0.12865171963E+03  0.14055646065E+03  0.41800000000E+01 0.  1.
        -11    1    1    2    0    0  0.61278366882E+02 -0.44125635237E+02  0.52265476796E+02  0.91835668438E+02  0.00000000000E+00 0. -1.
         11    1    1    2    0    0 -0.12688545101E+02 -0.60559215222E+02 -0.74950835374E+01  0.62326511231E+02  0.00000000000E+00 0.  1.
</event>
<event>
 7    1  0.2841804E-009  0.9786043E+02  0.7561462E-02  0.1284861E+00
          2   -1    0    0  501    0  0.00000000000E+00  0.00000000000E+00  0.43743231288E+02  0.43743231288E+02  0.00000000000E+00 0.  1.
         -2   -1    0    0    0  501 -0.00000000000E+00 -0.00000000000E+00 -0.37408823987E+03  0.37408823987E+03  0.00000000000E+00 0. -1.
         25    2    1    2    0    0  0.55916099799E+00 -0.19928298898E+02 -0.28994178754E+03  0.31640307775E+03  0.12508883921E+03 0.  0.
          5    1    3    3  502    0 -0.50129394584E+02 -0.15163025327E+02 -0.55354115951E+02  0.76317914615E+02  0.41800000000E+01 0. -1.
         -5    1    3    3    0  502  0.50688555582E+02 -0.47652735714E+01 -0.23458767158E+03  0.24008516314E+03  0.41800000000E+01 0. -1.
        -11    1    1    2    0    0  0.22002394920E+02  0.49928408982E+02 -0.16808995042E+02  0.57091975968E+02  0.00000000000E+00 0.  1.
         11    1    1    2    0    0 -0.22561555918E+02 -0.30000110083E+02 -0.23594226006E+02  0.44336417438E+02  0.00000000000E+00 0. -1.
</event>
<event>
 7    1  0.2841804E-009  0.1361173E+03  0.7561462E-02  0.1218651E+00
         -2   -1    0    0    0  501 -0.00000000000E+00  0.00000000000E+00  0.50233436571E+02  0.50233436571E+02  0.00000000000E+00 0.  1.
          2   -1    0    0  501    0  0.00000000000E+00 -0.00000000000E+00 -0.49698443036E+03  0.49698443036E+03  0.00000000000E+00 0. -1.
         25    2    1    2    0    0  0.62907306981E+02 -0.88771316867E+02 -0.16712378809E+03  0.23540520998E+03  0.12509027289E+03 0.  0.
          5    1    3    3  502    0  0.46061311931E+02 -0.11120634944E+03 -0.16836934070E+03  0.20701256943E+03  0.41800000000E+01 0.  1.
         -5    1    3    3    0  502  0.16845995050E+02  0.22435032578E+02  0.12455526157E+01  0.28392640548E+02  0.41800000000E+01 0.  1.
        -11    1    1    2    0    0 -0.34630604545E+02  0.49703279314E+01 -0.15557776442E+03  0.15946292269E+03  0.00000000000E+00 0. -1.
         11    1    1    2    0    0 -0.28276702436E+02  0.83800988935E+02 -0.12404944128E+03  0.15234973426E+03  0.00000000000E+00 0.  1.
</event>
<event>
 7    1  0.2841804E-009  0.8519856E+02  0.7561462E-02  0.1314914E+00
         -1   -1    0    0    0  501 -0.00000000000E+00  0.00000000000E+00  0.21626729483E+03  0.21626729483E+03  0.00000000000E+00 0.  1.
          1   -1    0    0  501    0  0.00000000000E+00 -0.00000000000E+00 -0.60103269209E+02  0.60103269209E+02  0.00000000000E+00 0. -1.
         25    2    1    2    0    0 -0.18060985494E+02  0.46543392219E+01  0.12496110874E+03  0.17779283787E+03  0.12508857833E+03 0.  0.
          5    1    3    3  502    0 -0.46406564094E+01  0.60682760009E+02  0.33441952878E+02  0.69568453099E+02  0.41800000000E+01 0. -1.
         -5    1    3    3    0  502 -0.13420329084E+02 -0.56028420787E+02  0.91519155866E+02  0.10822438477E+03  0.41800000000E+01 0. -1.
        -11    1    1    2    0    0 -0.45543436604E+01 -0.22415197672E+02  0.56073157227E+02  0.60558914242E+02  0.00000000000E+00 0.  1.
         11    1    1    2    0    0  0.22615329154E+02  0.17760858450E+02 -0.24870240347E+02  0.38018811930E+02  0.00000000000E+00 0. -1.
</event>
<event>
 7    1  0.3854373E-009  0.1077997E+03  0.7561462E-02  0.1264700E+00
         -4   -1    0    0    0  501 -0.00000000000E+00  0.00000000000E+00  0.14290388138E+03  0.14290388138E+03  0.00000000000E+00 0.  1.
          4   -1    0    0  501    0  0.00000000000E+00 -0.00000000000E+00 -0.12137498880E+03  0.12137498880E+03  0.00000000000E+00 0. -1.
         25    2    1    2    0    0  0.34605136396E+02  0.10409453166E+02 -0.53403920488E+02  0.14072973766E+03  0.12508800166E+03 0.  0.
          5    1    3    3  502    0 -0.51451603430E+01  0.63443021157E+02 -0.26845209168E+02  0.69207133041E+02  0.41800000000E+01 0.  1.
         -5    1    3    3    0  502  0.39750296739E+02 -0.53033567990E+02 -0.26558711320E+02  0.71522604620E+02  0.41800000000E+01 0.  1.
        -11    1    1    2    0    0 -0.45755175647E+02  0.22259883880E+02  0.72989551019E+02  0.88974789052E+02  0.00000000000E+00 0. -1.
         11    1    1    2    0    0  0.11150039251E+02 -0.32669337047E+02  0.19432620470E+01  0.34574343461E+02  0.00000000000E+00 0.  1.
</event>
<event>
 7    1  0.2841804E-009  0.1329642E+03  0.7561462E-02  0.1223123E+00
         -1   -1    0    0    0  501 -0.00000000000E+00  0.00000000000E+00  0.12300973578E+03  0.12300973578E+03  0.00000000000E+00 0.  1.
          1   -1    0    0  501    0  0.00000000000E+00 -0.00000000000E+00 -0.18046977035E+03  0.18046977035E+03  0.00000000000E+00 0. -1.
         25    2    1    2    0    0 -0.57695736305E+02 -0.66806268474E+02 -0.84279715653E+02  0.17476470182E+03  0.12509098703E+03 0.  0.
          5    1    3    3  502    0 -0.58383990125E+02  0.15613872053E+02 -0.57642899420E+01  0.60853781657E+02  0.41800000000E+01 0. -1.
         -5    1    3    3    0  502  0.68825381964E+00 -0.82420140527E+02 -0.78515425711E+02  0.11391092016E+03  0.41800000000E+01 0. -1.
        -11    1    1    2    0    0  0.74474981402E+02  0.73609413689E+02  0.12157589799E+02  0.10541667623E+03  0.00000000000E+00 0. -1.
         11    1    1    2    0    0 -0.16779245097E+02 -0.68031452153E+01  0.14662091286E+02  0.23298128074E+02  0.00000000000E+00 0.  1.
</event>
<event>
 7    1  0.2841804E-009  0.8528586E+02  0.7561462E-02  0.1314687E+00
          2   -1    0    0  501    0  0.00000000000E+00  0.00000000000E+00  0.26201634783E+03  0.26201634783E+03  0.00000000000E+00 0. -1.
         -2   -1    0    0    0  501 -0.00000000000E+00 -0.00000000000E+00 -0.52118897019E+02  0.52118897019E+02  0.00000000000E+00 0.  1.
         25    2    1    2    0    0 -0.57333201082E+01  0.16364062178E+02  0.18321399027E+03  0.22251956754E+03  0.12508772209E+03 0.  0.
          5    1    3    3  502    0  0.30508543960E+02  0.59617184413E+02  0.76699306017E+02  0.10190797749E+03  0.41800000000E+01 0.  1.
         -5    1    3    3    0  502 -0.36241864068E+02 -0.43253122235E+02  0.10651468425E+03  0.12061159005E+03  0.41800000000E+01 0.  1.
        -11    1    1    2    0    0 -0.16558707950E+02  0.36190380549E+01  0.50558295425E+02  0.53323817209E+02  0.00000000000E+00 0. -1.
         11    1    1    2    0    0  0.22292028059E+02 -0.19983100233E+02 -0.23874834876E+02  0.38291860104E+02  0.00000000000E+00 0.  1.
</event>
<event>
 7    1  0.2841804E-009  0.1448573E+03  0.7561462E-02  0.1206939E+00
          1   -1    0    0  501    0  0.00000000000E+00  0.00000000000E+00  0.60742929076E+03  0.60742929076E+03  0.00000000000E+00 0. -1.
         -1   -1    0    0    0  501 -0.00000000000E+00 -0.00000000000E+00 -0.69145503612E+02  0.69145503612E+02  0.00000000000E+00 0.  1.
         25    2    1    2    0    0  0.12269030225E+03 -0.26358889384E+02  0.47861259764E+03  0.51035793251E+03  0.12508996499E+03 0.  0.
          5    1    3    3  502    0  0.11671710770E+03 -0.41624870512E+02  0.47757637232E+03  0.49340873206E+03  0.41800000000E+01 0. -1.
         -5    1    3    3    0  502  0.59731945514E+01  0.15265981128E+02  0.10362253175E+01  0.16949200449E+02  0.41800000000E+01 0. -1.
        -11    1    1    2    0    0 -0.28055046702E+02 -0.28029941066E+02 -0.39884599951E+01  0.39858136620E+02  0.00000000000E+00 0.  1.
         11    1    1    2    0    0 -0.94635255544E+02  0.54388830450E+02  0.63659649502E+02  0.12635872524E+03  0.00000000000E+00 0. -1.
</event>
<event>
 7    1  0.2841804E-009  0.1597664E+03  0.7561462E-02  0.1188961E+00
          1   -1    0    0  501    0  0.00000000000E+00  0.00000000000E+00  0.82079615191E+02  0.82079615191E+02  0.00000000000E+00 0. -1.
         -1   -1    0    0    0  501 -0.00000000000E+00 -0.00000000000E+00 -0.35137679391E+03  0.35137679391E+03  0.00000000000E+00 0.  1.
         25    2    1    2    0    0  0.49829616162E+02  0.11901643693E+03 -0.16404053858E+03  0.24332145088E+03  0.12509247483E+03 0.  0.
          5    1    3    3  502    0 -0.24434357194E+02  0.46062806483E+01  0.53756462212E+01  0.25780333690E+02  0.41800000000E+01 0. -1.
         -5    1    3    3    0  502  0.74263973356E+02  0.11441015628E+03 -0.16941618480E+03  0.21754111719E+03  0.41800000000E+01 0. -1.
        -11    1    1    2    0    0  0.12910531821E+02 -0.85989984454E+02 -0.50536206211E+02  0.10057269707E+03  0.00000000000E+00 0.  1.
         11    1    1    2    0    0 -0.62740147983E+02 -0.33026452473E+02 -0.54720433934E+02  0.89562261147E+02  0.00000000000E+00 0. -1.
</event>
<event>
 7    1  0.2841804E-009  0.7115591E+02  0.7561462E-02  0.1356206E+00
         -2   -1    0    0    0  501 -0.00000000000E+00  0.00000000000E+00  0.54613610626E+02  0.54613610626E+02  0.00000000000E+00 0.  1.
          2   -1    0    0  501    0  0.00000000000E+00 -0.00000000000E+00 -0.22691877170E+03  0.22691877170E+03  0.00000000000E+00 0. -1.
         25    2    1    2    0    0 -0.10946607581E+02  0.33118039042E+02 -0.12384977672E+03  0.17944925578E+03  0.12508651198E+03 0.  0.
          5    1    3    3  502    0 -0.67704863553E+01 -0.36419054730E+02  0.14288641795E-01  0.37278138863E+02  0.41800000000E+01 0.  1.
         -5    1    3    3    0  502 -0.41761212258E+01  0.69537093772E+02 -0.12386406536E+03  0.14217111692E+03  0.41800000000E+01 0.  1.
        -11    1    1    2    0    0  0.72690046476E+01 -0.13970008194E+02  0.23078522916E+02  0.27939537890E+02  0.00000000000E+00 0.  1.
         11    1    1    2    0    0  0.36776029335E+01 -0.19148030847E+02 -0.71533907278E+02  0.74143588658E+02  0.00000000000E+00 0. -1.
</event>
<event>
 7    1  0.2841804E-009  0.1512654E+03  0.7561462E-02  0.1198927E+00
         -1   -1    0    0    0  501 -0.00000000000E+00  0.00000000000E+00  0.22907594555E+04  0.22907594555E+04  0.00000000000E+00 0.  1.
          1   -1    0    0  501    0  0.00000000000E+00 -0.00000000000E+00 -0.16104627135E+02  0.16104627135E+02  0.00000000000E+00 0. -1.
         25    2    1    2    0    0  0.11501611894E+03 -0.38645376344E+02  0.17937015295E+04  0.18021473810E+04  0.12509130004E+03 0.  0.
          5    1    3    3  502    0  0.13369370414E+03 -0.17878974893E+02  0.16610561304E+04  0.16665289091E+04  0.41800000000E+01 0. -1.
         -5    1    3    3    0  502 -0.18677585204E+02 -0.20766401450E+02  0.13264539909E+03  0.13561847189E+03  0.41800000000E+01 0. -1.
        -11    1    1    2    0    0 -0.87592050413E+02 -0.50665254687E+01  0.39359831442E+03  0.40325881278E+03  0.00000000000E+00 0. -1.
         11    1    1    2    0    0 -0.27424068527E+02  0.43711901812E+02  0.87354984503E+02  0.10145788886E+03  0.00000000000E+00 0.  1.
</event>
<event>
 7    1  0.2841804E-009  0.9800620E+02  0.7561462E-02  0.1284545E+00
          1   -1    0    0  501    0  0.00000000000E+00  0.00000000000E+00  0.12487338825E+03  0.12487338825E+03  0.00000000000E+00 0. -1.
         -1   -1    0    0    0  501 -0.00000000000E+00 -0.00000000000E+00 -0.10134527441E+03  0.10134527441E+03  0.00000000000E+00 0.  1.
         25    2    1    2    0    0 -0.12934438498E+02  0.10088274788E+02 -0.80584505873E+01  0.12641244221E+03  0.12508434727E+03 0.  0.
          5    1    3    3  502    0 -0.58059204136E+02 -0.21942495364E+02  0.18485122375E+02  0.64896197399E+02  0.41800000000E+01 0. -1.
         -5    1    3    3    0  502  0.45124765638E+02  0.32030770152E+02 -0.26543572962E+02  0.61516244814E+02  0.41800000000E+01 0. -1.
        -11    1    1    2    0    0 -0.26776825646E+02 -0.24272943783E+02 -0.13027453107E+02  0.38417297224E+02  0.00000000000E+00 0.  1.
         11    1    1    2    0    0  0.39711264144E+02  0.14184668995E+02  0.44614017532E+02  0.61388923225E+02  0.00000000000E+00 0. -1.
</event>
<event>
 7    1  0.2841804E-009  0.9711612E+02  0.7561462E-02  0.1286480E+00
         -2   -1    0    0    0  501 -0.00000000000E+00  0.00000000000E+00  0.69551974194E+02  0.69551974194E+02  0.00000000000E+00 0.  1.
          2   -1    0    0  501    0  0.00000000000E+00 -0.00000000000E+00 -0.20617623067E+03  0.20617623067E+03  0.00000000000E+00 0. -1.
         25    2    1    2    0    0  0.47801334081E+02 -0.50391642985E+01 -0.90455775533E+02  0.16168098540E+03  0.12509249775E+03 0.  0.
          5    1    3    3  502    0  0.88312451076E+02  0.12713188758E+02 -0.65105821750E+02  0.11053033343E+03  0.41800000000E+01 0. -1.
         -5    1    3    3    0  502 -0.40511116995E+02 -0.17752353056E+02 -0.25349953783E+02  0.51150651961E+02  0.41800000000E+01 0. -1.
        -11    1    1    2    0    0 -0.25408427558E+02  0.21018121444E+02 -0.70174682797E+02  0.77536028565E+02  0.00000000000E+00 0. -1.
         11    1    1    2    0    0 -0.22392906523E+02 -0.15978957146E+02  0.24006201852E+02  0.36511190906E+02  0.00000000000E+00 0.  1.
</event>
<event>
 7    1  0.2841804E-009  0.9603682E+02  0.7561462E-02  0.1288858E+00
          1   -1    0    0  501    0  0.00000000000E+00  0.00000000000E+00  0.61176923518E+03  0.61176923518E+03  0.00000000000E+00 0. -1.
         -1   -1    0    0    0  501 -0.00000000000E+00 -0.00000000000E+00 -0.19785801435E+02  0.19785801435E+02  0.00000000000E+00 0.  1.
         25    2    1    2    0    0 -0.10858212411E+02  0.16088050777E+02  0.33046434031E+03  0.35387925693E+03  0.12508845716E+03 0.  0.
          5    1    3    3  502    0 -0.51298052894E+02  0.49630337063E+02  0.22307280019E+03  0.23425116259E+03  0.41800000000E+01 0. -1.
         -5    1    3    3    0  502  0.40439840483E+02 -0.33542286286E+02  0.10739154012E+03  0.11962809434E+03  0.41800000000E+01 0. -1.
        -11    1    1    2    0    0 -0.27127384596E+02 -0.14704770019E+01  0.22669279172E+02  0.35382955159E+02  0.00000000000E+00 0.  1.
         11    1    1    2    0    0  0.37985597007E+02 -0.14617573775E+02  0.23884981427E+03  0.24229282453E+03  0.00000000000E+00 0. -1.
</event>
<event>
 7    1  0.2841804E-009  0.9979086E+02  0.7561462E-02  0.1280736E+00
          2   -1    0    0  501    0  0.00000000000E+00  0.00000000000E+00  0.17446805999E+03  0.17446805999E+03  0.00000000000E+00 0. -1.
         -2   -1    0    0    0  501 -0.00000000000E+00 -0.00000000000E+00 -0.10728949631E+03  0.10728949631E+03  0.00000000000E+00 0.  1.
         25    2    1    2    0    0 -0.66680124141E+02  0.15182123118E+02  0.89360756856E+02  0.16825686887E+03  0.12509313825E+03 0.  0.
          5    1    3    3  502    0  0.61931169087E+01  0.22150356150E+02  0.91961225348E+02  0.94885891165E+02  0.41800000000E+01 0. -1.
         -5    1    3    3    0  502 -0.72873241050E+02 -0.69682330323E+01 -0.26004684920E+01  0.73370977703E+02  0.41800000000E+01 0. -1.
        -11    1    1    2    0    0  0.52237997613E+01  0.27541472448E+02 -0.26436775100E+02  0.38532114739E+02  0.00000000000E+00 0.  1.
         11    1    1    2    0    0  0.61456324380E+02 -0.42723595566E+02  0.42545819205E+01  0.74968572693E+02  0.00000000000E+00 0. -1.
</event>
<event>
 7    1  0.2841804E-009  0.1531040E+03  0.7561462E-02  0.1196710E+00
         -1   -1    0    0    0  501 -0.00000000000E+00  0.00000000000E+00  0.22252209121E+02  0.22252209121E+02  0.00000000000E+00 0.  1.
          1   -1    0    0  501    0  0.00000000000E+00 -0.00000000000E+00 -0.11057626285E+04  0.11057626285E+04  0.00000000000E+00 0. -1.
         25    2    1    2    0    0 -0.67081566820E+02 -0.91356635104E+02 -0.62278757567E+03  0.64525838128E+03  0.12509213729E+03 0.  0.
          5    1    3    3  502    0  0.30294613067E+02 -0.34031412608E+01 -0.20593739882E+03  0.20822350872E+03  0.41800000000E+01 0.  1.
         -5    1    3    3    0  502 -0.97376179887E+02 -0.87953493843E+02 -0.41685017685E+03  0.43703487256E+03  0.41800000000E+01 0.  1.
        -11    1    1    2    0    0 -0.13834094367E+02 -0.80283929394E+01 -0.48230555637E+02  0.50813617832E+02  0.00000000000E+00 0. -1.
         11    1    1    2    0    0  0.80915661187E+02  0.99385028043E+02 -0.41249228806E+03  0.43194283851E+03  0.00000000000E+00 0.  1.
</event>
<event>
 7    1  0.2841804E-009  0.1340882E+03  0.7561462E-02  0.1221513E+00
          2   -1    0    0  501    0  0.00000000000E+00  0.00000000000E+00  0.51043731926E+03  0.51043731926E+03  0.00000000000E+00 0. -1.
         -2   -1    0    0    0  501 -0.00000000000E+00 -0.00000000000E+00 -0.57256636844E+02  0.57256636844E+02  0.00000000000E+00 0.  1.
         25    2    1    2    0    0  0.86124238174E+02 -0.10056729514E+03  0.26324089241E+03  0.32010669964E+03  0.12506544871E+03 0.  0.
          5    1    3    3  502    0  0.20358309537E+02 -0.35435248144E+02  0.20846070358E+03  0.21246989178E+03  0.41800000000E+01 0. -1.
         -5    1    3    3    0  502  0.65765928638E+02 -0.65132047001E+02  0.54780188835E+02  0.10763680785E+03  0.41800000000E+01 0. -1.
        -11    1    1    2    0    0 -0.25263586441E+02  0.47024089335E+02  0.14584962080E+03  0.15531138293E+03  0.00000000000E+00 0.  1.
         11    1    1    2    0    0 -0.60860651733E+02  0.53543205810E+02  0.44090169201E+02  0.92275873542E+02  0.00000000000E+00 0. -1.
</event>
<event>
 7    1  0.2841804E-009  0.1137790E+03  0.7561462E-02  0.1253728E+00
         -1   -1    0    0    0  501 -0.00000000000E+00  0.00000000000E+00  0.75329574261E+02  0.75329574261E+02  0.00000000000E+00 0.  1.
          1   -1    0    0  501    0  0.00000000000E+00 -0.00000000000E+00 -0.21204773684E+03  0.21204773684E+03  0.00000000000E+00 0. -1.
         25    2    1    2    0    0  0.49177900161E+02 -0.71657697528E+01 -0.28501119668E+02  0.13759231656E+03  0.12509803210E+03 0.  0.
          5    1    3    3  502    0 -0.12860632552E+02 -0.51847553599E+02 -0.29197595974E+02  0.61020789035E+02  0.41800000000E+01 0. -1.
         -5    1    3    3    0  502  0.62038532713E+02  0.44681783846E+02  0.69647630589E+00  0.76571527529E+02  0.41800000000E+01 0. -1.
        -11    1    1    2    0    0  0.23899125678E+02 -0.69289817639E+00 -0.74142144169E+01  0.25032356890E+02  0.00000000000E+00 0.  1.
         11    1    1    2    0    0 -0.73077025839E+02  0.78586679292E+01 -0.10080282849E+03  0.12475263764E+03  0.00000000000E+00 0. -1.
</event>
<event>
 7    1  0.2841804E-009  0.1291502E+03  0.7561462E-02  0.1228722E+00
          1   -1    0    0  501    0  0.00000000000E+00  0.00000000000E+00  0.19607658394E+03  0.19607658394E+03  0.00000000000E+00 0. -1.
         -1   -1    0    0    0  501 -0.00000000000E+00 -0.00000000000E+00 -0.99604344509E+02  0.99604344509E+02  0.00000000000E+00 0.  1.
         25    2    1    2    0    0 -0.46858745008E+02  0.64671420930E+02  0.15566421445E+02  0.14923587897E+03  0.12510355482E+03 0.  0.
          5    1    3    3  502    0 -0.46246667033E+02 -0.28397583879E+02 -0.18290137479E+01  0.54460946312E+02  0.41800000000E+01 0.  1.
         -5    1    3    3    0  502 -0.61207797493E+00  0.93069004810E+02  0.17395435193E+02  0.94774932663E+02  0.41800000000E+01 0.  1.
        -11    1    1    2    0    0  0.21727300916E+02 -0.78892205260E+02  0.28573421955E+02  0.86674656607E+02  0.00000000000E+00 0.  1.
         11    1    1    2    0    0  0.25131444092E+02  0.14220784329E+02  0.52332396031E+02  0.59770392867E+02  0.00000000000E+00 0. -1.
</event>
<event>
 7    1  0.2841804E-009  0.1246231E+03  0.7561462E-02  0.1235660E+00
         -3   -1    0    0    0  501 -0.00000000000E+00  0.00000000000E+00  0.31816392320E+03  0.31816392320E+03  0.00000000000E+00 0.  1.
          3   -1    0    0  501    0  0.00000000000E+00 -0.00000000000E+00 -0.50446245366E+02  0.50446245366E+02  0.00000000000E+00 0. -1.
         25    2    1    2    0    0  0.57687501212E+02  0.28820755721E+02  0.15840438063E+03  0.21189391644E+03  0.12509436543E+03 0.  0.
          5    1    3    3  502    0 -0.38583668633E+02  0.14745130821E+02  0.32511641489E+02  0.52731372071E+02  0.41800000000E+01 0. -1.
         -5    1    3    3    0  502  0.96271169845E+02  0.14075624899E+02  0.12589273915E+03  0.15916254437E+03  0.41800000000E+01 0. -1.
        -11    1    1    2    0    0  0.14697629890E+02 -0.34737632576E+02  0.24138372780E+02  0.44781519423E+02  0.00000000000E+00 0. -1.
         11    1    1    2    0    0 -0.72385131102E+02  0.59168768555E+01  0.85174924421E+02  0.11193473271E+03  0.00000000000E+00 0.  1.
</event>
<event>
 7    1  0.4488994E-009  0.1498856E+03  0.7561462E-02  0.1200614E+00
          2   -1    0    0  501    0  0.00000000000E+00  0.00000000000E+00  0.71496408359E+03  0.71496408359E+03  0.00000000000E+00 0.  1.
         -2   -1    0    0    0  501 -0.00000000000E+00 -0.00000000000E+00 -0.35401842428E+02  0.35401842428E+02  0.00000000000E+00 0. -1.
         25    2    1    2    0    0 -0.68366711669E+00 -0.10616224286E+03  0.25418662504E+03  0.30253761492E+03  0.12508908381E+03 0.  0.
          5    1    3    3  502    0  0.30157807192E+02  0.15529944241E+02  0.29612134898E+02  0.45221935341E+02  0.41800000000E+01 0. -1.
         -5    1    3    3    0  502 -0.30841474309E+02 -0.12169218710E+03  0.22457449014E+03  0.25731567958E+03  0.41800000000E+01 0. -1.
        -11    1    1    2    0    0  0.44064913280E+02  0.33485105258E+02  0.16318491172E+03  0.17231449234E+03  0.00000000000E+00 0.  1.
         11    1    1    2    0    0 -0.43381246164E+02  0.72677137601E+02  0.26219070441E+03  0.27551381876E+03  0.00000000000E+00 0. -1.
</event>
<event>
 7    1  0.2841804E-009  0.1379928E+03  0.7561462E-02  0.1216056E+00
         -1   -1    0    0    0  501 -0.00000000000E+00  0.00000000000E+00  0.20261534942E+02  0.20261534942E+02  0.00000000000E+00 0.  1.
          1   -1    0    0  501    0  0.00000000000E+00 -0.00000000000E+00 -0.96653647905E+03  0.96653647905E+03  0.00000000000E+00 0. -1.
         25    2    1    2    0    0  0.84933110837E+02  0.10891839192E+02 -0.58794893522E+03  0.60717715125E+03  0.12509147492E+03 0.  0.
          5    1    3    3  502    0  0.18444379765E+02  0.63285883242E+02 -0.22725164902E+03  0.23665604269E+03  0.41800000000E+01 0.  1.
         -5    1    3    3    0  502  0.66488731072E+02 -0.52394044050E+02 -0.36069728620E+03  0.37052110856E+03  0.41800000000E+01 0.  1.
        -11    1    1    2    0    0  0.10510226912E+02 -0.26463689698E+02 -0.73309612336E+02  0.78645349532E+02  0.00000000000E+00 0.  1.
         11    1    1    2    0    0 -0.95443337748E+02  0.15571850506E+02 -0.28501639655E+03  0.30097551321E+03  0.00000000000E+00 0. -1.
</event>
<event>
 7    1  0.2841804E-009  0.9788140E+02  0.7561462E-02  0.1284815E+00
         -2   -1    0    0    0  501 -0.00000000000E+00  0.00000000000E+00  0.55659094484E+03  0.55659094484E+03  0.00000000000E+00 0.  1.
          2   -1    0    0  501    0  0.00000000000E+00 -0.00000000000E+00 -0.23132009068E+02  0.23132009068E+02  0.00000000000E+00 0. -1.
         25    2    1    2    0    0 -0.19484337926E+02  0.19958381947E+02  0.25118255989E+03  0.28199224407E+03  0.12509584681E+03 0.  0.
          5    1    3    3  502    0  0.33658199220E+02 -0.30680402526E+02  0.15067179197E+03  0.15745990845E+03  0.41800000000E+01 0. -1.
         -5    1    3    3    0  502 -0.53142537146E+02  0.50638784473E+02  0.10051076792E+03  0.12453233562E+03  0.41800000000E+01 0. -1.
        -11    1    1    2    0    0  0.12673027427E+02 -0.46968383733E+02  0.25174161103E+03  0.25639905112E+03  0.00000000000E+00 0.  1.
         11    1    1    2    0    0  0.68113104988E+01  0.27010001787E+02  0.30534764861E+02  0.41331658718E+02  0.00000000000E+00 0. -1.
</event>
<event>
 7    1  0.2841804E-009  0.7083541E+02  0.7561462E-02  0.1357275E+00
          4   -1    0    0  501    0  0.00000000000E+00  0.00000000000E+00  0.35519616581E+03  0.35519616581E+03  0.00000000000E+00 0.  1.
         -4   -1    0    0    0  501 -0.00000000000E+00 -0.00000000000E+00 -0.88806433868E+02  0.88806433868E+02  0.00000000000E+00 0. -1.
         25    2    1    2    0    0  0.18554117377E+02 -0.46491565351E+02  0.30452206463E+03  0.33300017105E+03  0.12509878159E+03 0.  0.
          5    1    3    3  502    0  0.31523103922E+02 -0.14713488461E+02  0.99745093501E+01  0.36430153175E+02  0.41800000000E+01 0. -1.
         -5    1    3    3    0  502 -0.12968986545E+02 -0.31778076890E+02  0.29454755528E+03  0.29657001788E+03  0.41800000000E+01 0. -1.
        -11    1    1    2    0    0 -0.33820611527E+02  0.14875257682E+02  0.20803442958E+02  0.42401536459E+02  0.00000000000E+00 0.  1.
         11    1    1    2    0    0  0.15266494151E+02  0.31616307669E+02 -0.58935775649E+02  0.68600892163E+02  0.00000000000E+00 0. -1.
</event>
<event>
 7    1  0.2909534E-009  0.1051064E+03  0.7561462E-02  0.1269910E+00
         -3   -1    0    0    0  501 -0.00000000000E+00  0.00000000000E+00  0.17059716614E+03  0.17059716614E+03  0.00000000000E+00 0.  1.
          3   -1    0    0  501    0  0.00000000000E+00 -0.00000000000E+00 -0.18552805298E+03  0.18552805298E+03  0.00000000000E+00 0. -1.
         25    2    1    2    0    0  0.14857594963E+01  0.98984992310E+02 -0.10802625257E+03  0.19264944217E+03  0.12507557772E+03 0.  0.
          5    1    3    3  502    0  0.25321420707E+02  0.46291866085E+02 -0.12201561739E+03  0.13300148307E+03  0.41800000000E+01 0. -1.
         -5    1    3    3    0  502 -0.23835661211E+02  0.52693126225E+02  0.13989364823E+02  0.59647959100E+02  0.41800000000E+01 0. -1.
        -11    1    1    2    0    0 -0.34007341879E+01 -0.19769742719E+02 -0.18044111186E+02  0.26981431925E+02  0.00000000000E+00 0. -1.
         11    1    1    2    0    0  0.19149746916E+01 -0.79215249591E+02  0.11113947691E+03  0.13649434503E+03  0.00000000000E+00 0.  1.
</event>
<event>
 7    1  0.2841804E-009  0.1095504E+03  0.7561462E-02  0.1261405E+00
          1   -1    0    0  501    0  0.00000000000E+00  0.00000000000E+00  0.11434488944E+03  0.11434488944E+03  0.00000000000E+00 0. -1.
         -1   -1    0    0    0  501 -0.00000000000E+00 -0.00000000000E+00 -0.24798430003E+03  0.24798430003E+03  0.00000000000E+00 0.  1.
         25    2    1    2    0    0 -0.15938520734E+02  0.64149934038E+02 -0.18956191463E+03  0.23653515315E+03  0.12508360691E+03 0.  0.
          5    1    3    3  502    0  0.50752564293E+02  0.36651305035E+02 -0.12398324928E+03  0.13895488277E+03  0.41800000000E+01 0. -1.
         -5    1    3    3    0  502 -0.66691085026E+02  0.27498629003E+02 -0.65578665355E+02  0.97580270387E+02  0.41800000000E+01 0. -1.
        -11    1    1    2    0    0 -0.10431513732E+02 -0.55313246552E+02  0.73737386791E+02  0.92766232723E+02  0.00000000000E+00 0. -1.
         11    1    1    2    0    0  0.26370034465E+02 -0.88366874862E+01 -0.17814882745E+02  0.33027803600E+02  0.00000000000E+00 0.  1.
</event>
<event>
 7    1  0.2841804E-009  0.9644221E+02  0.7561462E-02  0.1287961E+00
          1   -1    0    0  501    0  0.00000000000E+00  0.00000000000E+00  0.60410674781E+03  0.60410674781E+03  0.00000000000E+00 0. -1.
         -1   -1    0    0    0  501 -0.00000000000E+00 -0.00000000000E+00 -0.22472439941E+02  0.22472439941E+02  0.00000000000E+00 0.  1.
         25    2    1    2    0    0 -0.19203415304E+01  0.39512920469E+02  0.39085040662E+03  0.41228144569E+03  0.12508793510E+03 0.  0.
          5    1    3    3  502    0 -0.45224478327E+02 -0.10054340528E+02  0.65642320812E+02  0.80453277653E+02  0.41800000000E+01 0.  1.
         -5    1    3    3    0  502  0.43304136797E+02  0.49567260997E+02  0.32520808581E+03  0.33182816804E+03  0.41800000000E+01 0.  1.
        -11    1    1    2    0    0 -0.15055505312E+02  0.16234466216E+02  0.98910619308E+01  0.24249932776E+02  0.00000000000E+00 0.  1.
         11    1    1    2    0    0  0.16975846843E+02 -0.55747386685E+02  0.18089283932E+03  0.19004780929E+03  0.00000000000E+00 0. -1.
</event>
<event>
 7    1  0.2841804E-009  0.1118078E+03  0.7561462E-02  0.1257258E+00
         -2   -1    0    0    0  501 -0.00000000000E+00  0.00000000000E+00  0.35188785643E+02  0.35188785643E+02  0.00000000000E+00 0.  1.
          2   -1    0    0  501    0  0.00000000000E+00 -0.00000000000E+00 -0.41921754839E+03  0.41921754839E+03  0.00000000000E+00 0. -1.
         25    2    1    2    0    0 -0.48766428606E+02  0.46104729908E+01 -0.25255923094E+03  0.28606709194E+03  0.12509514354E+03 0.  0.
          5    1    3    3  502    0 -0.72772044176E+02  0.45957084129E+02 -0.16923247149E+03  0.18990767705E+03  0.41800000000E+01 0.  1.
         -5    1    3    3    0  502  0.24005615570E+02 -0.41346611139E+02 -0.83326759448E+02  0.96159414889E+02  0.41800000000E+01 0.  1.
        -11    1    1    2    0    0  0.58369678210E+02  0.21053887934E+02 -0.42409277222E+02  0.75158714239E+02  0.00000000000E+00 0.  1.
         11    1    1    2    0    0 -0.96032496045E+01 -0.25664360924E+02 -0.89060254587E+02  0.93180527857E+02  0.00000000000E+00 0. -1.
</event>
<event>
 7    1  0.2948043E-009  0.6359869E+02  0.7561462E-02  0.1383322E+00
         -2   -1    0    0    0  501 -0.00000000000E+00  0.00000000000E+00  0.20471701316E+02  0.20471701316E+02  0.00000000000E+00 0. -1.
          2   -1    0    0  501    0  0.00000000000E+00 -0.00000000000E+00 -0.60143362554E+03  0.60143362554E+03  0.00000000000E+00 0.  1.
         25    2    1    2    0    0 -0.38136143265E+00  0.87217618450E+01 -0.27138925961E+03  0.29895892510E+03  0.12509234230E+03 0.  0.
          5    1    3    3  502    0 -0.22357626403E+02  0.11031859426E+02 -0.27501926270E+03  0.27617862451E+03  0.41800000000E+01 0.  1.
         -5    1    3    3    0  502  0.21976264970E+02 -0.23100975812E+01  0.36300030889E+01  0.22780300597E+02  0.41800000000E+01 0.  1.
        -11    1    1    2    0    0  0.65776004976E+01 -0.43555017008E+02 -0.24843269919E+03  0.25230757095E+03  0.00000000000E+00 0.  1.
         11    1    1    2    0    0 -0.61962390649E+01  0.34833255163E+02 -0.61139965430E+02  0.70638830799E+02  0.00000000000E+00 0. -1.
</event>
<event>
 7    1  0.2841804E-009  0.9525701E+02  0.7561462E-02  0.1290598E+00
          1   -1    0    0  501    0  0.00000000000E+00  0.00000000000E+00  0.39444462072E+03  0.39444462072E+03  0.00000000000E+00 0. -1.
         -1   -1    0    0    0  501 -0.00000000000E+00 -0.00000000000E+00 -0.56077323961E+02  0.56077323961E+02  0.00000000000E+00 0.  1.
         25    2    1    2    0    0  0.67793247419E+02 -0.57642528863E+02  0.11232728016E+03  0.19022118072E+03  0.12509234268E+03 0.  0.
          5    1    3    3  502    0  0.31348953659E+02 -0.55663660592E+02  0.13333053936E+03  0.14790437834E+03  0.41800000000E+01 0. -1.
         -5    1    3    3    0  502  0.36444293760E+02 -0.19788682708E+01 -0.21003259196E+02  0.42316802386E+02  0.41800000000E+01 0. -1.
        -11    1    1    2    0    0 -0.41381419610E+02  0.42470163055E+02  0.22174914042E+03  0.22954044941E+03  0.00000000000E+00 0. -1.
         11    1    1    2    0    0 -0.26411827809E+02  0.15172365807E+02  0.42908761732E+01  0.30760314542E+02  0.00000000000E+00 0.  1.
</event>
<event>
 7    1  0.2841804E-009  0.1241214E+03  0.7561462E-02  0.1236449E+00
          2   -1    0    0  501    0  0.00000000000E+00  0.00000000000E+00  0.71461486865E+02  0.71461486865E+02  0.00000000000E+00 0. -1.
         -2   -1    0    0    0  501 -0.00000000000E+00 -0.00000000000E+00 -0.32371058534E+03  0.32371058534E+03  0.00000000000E+00 0.  1.
         25    2    1    2    0    0 -0.10200657686E+03  0.32292194597E+02 -0.16499729840E+03  0.23306727151E+03  0.12509243387E+03 0.  0.
          5    1    3    3  502    0 -0.23754470726E+02 -0.29607128137E+02 -0.11542507555E+03  0.12157827676E+03  0.41800000000E+01 0.  1.
         -5    1    3    3    0  502 -0.78252106139E+02  0.61899322734E+02 -0.49572222853E+02  0.11148899474E+03  0.41800000000E+01 0.  1.
        -11    1    1    2    0    0  0.87412400371E+01 -0.11830161565E+02  0.15820488566E+02  0.21602079958E+02  0.00000000000E+00 0. -1.
         11    1    1    2    0    0  0.93265336828E+02 -0.20462033032E+02 -0.10307228864E+03  0.14050272074E+03  0.00000000000E+00 0.  1.
</event>
<event>
 7    1  0.2841804E-009  0.9650986E+02  0.7561462E-02  0.1287811E+00
         -2   -1    0    0    0  501 -0.00000000000E+00  0.00000000000E+00  0.13568132358E+03  0.13568132358E+03  0.00000000000E+00 0.  1.
          2   -1    0    0  501    0  0.00000000000E+00 -0.00000000000E+00 -0.11056245143E+03  0.11056245143E+03  0.00000000000E+00 0. -1.
         25    2    1    2    0    0  0.25470430832E+02 -0.37838625181E+02  0.49599033331E+02  0.14208227345E+03  0.12508718527E+03 0.  0.
          5    1    3    3  502    0  0.40045925574E+02 -0.72214088139E+02  0.61081377927E+02  0.10279570910E+03  0.41800000000E+01 0. -1.
         -5    1    3    3    0  502 -0.14575494742E+02  0.34375462959E+02 -0.11482344596E+02  0.39286564345E+02  0.41800000000E+01 0. -1.
        -11    1    1    2    0    0 -0.43333280407E+02  0.20739556533E+02 -0.49503292943E+02  0.68981725176E+02  0.00000000000E+00 0. -1.
         11    1    1    2    0    0  0.17862849576E+02  0.17099068648E+02  0.25023131763E+02  0.35179776390E+02  0.00000000000E+00 0.  1.
</event>
<event>
 6    1  0.2841804E-009  0.1269327E+03  0.7561462E-02  0.1232079E+00
         -2   -1    0    0    0  501 -0.00000000000E+00  0.00000000000E+00  0.27529265177E+02  0.27529265177E+02  0.00000000000E+00 0.  1.
          2   -1    0    0  501    0  0.00000000000E+00 -0.00000000000E+00 -0.91240125387E+03  0.91240125387E+03  0.00000000000E+00 0. -1.
          5    1    1    2  502    0 -0.15206813093E+02  0.11736196248E+01 -0.20723992072E+03  0.20784244438E+03  0.41800000000E+01 0.  1.
         -5    1    1    2    0  502 -0.18768761268E+02 -0.99130750993E+02 -0.11519124818E+03  0.15318507842E+03  0.41800000000E+01 0.  1.
        -11    1    1    2    0    0  0.59112839325E+02  0.33633070109E+02 -0.27988360735E+03  0.28802837506E+03  0.00000000000E+00 0.  1.
         11    1    1    2    0    0 -0.25137264963E+02  0.64324061259E+02 -0.28255721244E+03  0.29087462119E+03  0.00000000000E+00 0. -1.
</event>
<event>
 7    1  0.2841804E-009  0.7271273E+02  0.7561462E-02  0.1351104E+00
         -1   -1    0    0    0  501 -0.00000000000E+00  0.00000000000E+00  0.74565706936E+02  0.74565706936E+02  0.00000000000E+00 0.  1.
          1   -1    0    0  501    0  0.00000000000E+00 -0.00000000000E+00 -0.16038484633E+03  0.16038484633E+03  0.00000000000E+00 0. -1.
         25    2    1    2    0    0  0.13375197207E+02  0.23398814611E+02 -0.69296932192E+02  0.14551582428E+03  0.12508553025E+03 0.  0.
          5    1    3    3  502    0 -0.15484608009E+02 -0.17811524946E+02  0.27417967770E+02  0.36417590019E+02  0.41800000000E+01 0. -1.
         -5    1    3    3    0  502  0.28859805216E+02  0.41210339557E+02 -0.96714899962E+02  0.10909823426E+03  0.41800000000E+01 0. -1.
        -11    1    1    2    0    0  0.21008418161E+02  0.97960108177E+01  0.18930764196E+02  0.29928068675E+02  0.00000000000E+00 0. -1.
         11    1    1    2    0    0 -0.34383615368E+02 -0.33194825429E+02 -0.35452971401E+02  0.59506660318E+02  0.00000000000E+00 0.  1.
</event>
<event>
 7    1  0.2841804E-009  0.2299715E+03  0.7561462E-02  0.1126660E+00
          2   -1    0    0  501    0  0.00000000000E+00  0.00000000000E+00  0.89404001313E+03  0.89404001313E+03  0.00000000000E+00 0. -1.
         -2   -1    0    0    0  501 -0.00000000000E+00 -0.00000000000E+00 -0.69856678155E+02  0.69856678155E+02  0.00000000000E+00 0.  1.
         25    2    1    2    0    0 -0.20511968679E+03  0.75027789160E+02  0.32755409736E+03  0.41308839392E+03  0.12508828658E+03 0.  0.
          5    1    3    3  502    0 -0.89385500992E+02  0.87160825178E+02  0.22760857907E+03  0.25963419440E+03  0.41800000000E+01 0.  1.
         -5    1    3    3    0  502 -0.11573418580E+03 -0.12133036018E+02  0.99945518282E+02  0.15345419952E+03  0.41800000000E+01 0.  1.
        -11    1    1    2    0    0  0.33636626456E+02 -0.15765757779E+02  0.23184705537E+02  0.43789408862E+02  0.00000000000E+00 0.  1.
         11    1    1    2    0    0  0.17148306033E+03 -0.59262031381E+02  0.47344453209E+03  0.50701888851E+03  0.00000000000E+00 0. -1.
</event>
<event>
 7    1  0.2841804E-009  0.9986965E+02  0.7561462E-02  0.1280570E+00
         -3   -1    0    0    0  501 -0.00000000000E+00  0.00000000000E+00  0.39564111677E+02  0.39564111677E+02  0.00000000000E+00 0.  1.
          3   -1    0    0  501    0  0.00000000000E+00 -0.00000000000E+00 -0.34664259804E+03  0.34664259804E+03  0.00000000000E+00 0. -1.
         25    2    1    2    0    0 -0.30069332728E+02 -0.14980333215E+02 -0.21960299646E+03  0.25495979573E+03  0.12510174351E+03 0.  0.
          5    1    3    3  502    0  0.12929872556E+02 -0.63113358383E+02 -0.10107991198E+03  0.11993789483E+03  0.41800000000E+01 0. -1.
         -5    1    3    3    0  502 -0.42999205284E+02  0.48133025169E+02 -0.11852308448E+03  0.13502190090E+03  0.41800000000E+01 0. -1.
        -11    1    1    2    0    0  0.48281154235E+02  0.18942619595E+02 -0.97239576754E+02  0.11020629736E+03  0.00000000000E+00 0. -1.
         11    1    1    2    0    0 -0.18211821508E+02 -0.39622863798E+01  0.97640868498E+01  0.21040616626E+02  0.00000000000E+00 0.  1.
</event>
<event>
 7    1  0.2841804E-009  0.1117779E+03  0.7561462E-02  0.1257313E+00
          2   -1    0    0  501    0  0.00000000000E+00  0.00000000000E+00  0.13478319936E+03  0.13478319936E+03  0.00000000000E+00 0. -1.
         -2   -1    0    0    0  501 -0.00000000000E+00 -0.00000000000E+00 -0.14943705885E+03  0.14943705885E+03  0.00000000000E+00 0.  1.
         25    2    1    2    0    0 -0.19060017785E+02  0.17511178770E+02  0.78181121370E+02  0.14976904647E+03  0.12509418005E+03 0.  0.
          5    1    3    3  502    0  0.37517495308E+02 -0.33153859980E+02  0.42259980470E+02  0.65651498346E+02  0.41800000000E+01 0.  1.
         -5    1    3    3    0  502 -0.56577513093E+02  0.50665038750E+02  0.35921140900E+02  0.84117548127E+02  0.41800000000E+01 0.  1.
        -11    1    1    2    0    0  0.11276037344E+02  0.38800120675E+02 -0.37957959625E+02  0.55438299771E+02  0.00000000000E+00 0.  1.
         11    1    1    2    0    0  0.77839804411E+01 -0.56311299445E+02 -0.54877021233E+02  0.79012911958E+02  0.00000000000E+00 0. -1.
</event>
<event>
 7    1  0.2841804E-009  0.7463755E+02  0.7561462E-02  0.1344997E+00
         -2   -1    0    0    0  501 -0.00000000000E+00  0.00000000000E+00  0.28271790198E+02  0.28271790198E+02  0.00000000000E+00 0.  1.
          2   -1    0    0  501    0  0.00000000000E+00 -0.00000000000E+00 -0.56906887285E+03  0.56906887285E+03  0.00000000000E+00 0. -1.
         25    2    1    2    0    0 -0.11537012484E+02 -0.22611729001E+02 -0.44300210271E+03  0.46102389821E+03  0.12509108190E+03 0.  0.
          5    1    3    3  502    0  0.21428905740E+02 -0.31397508828E+01 -0.40915771655E+03  0.40975183398E+03  0.41800000000E+01 0.  1.
         -5    1    3    3    0  502 -0.32965918224E+02 -0.19471978118E+02 -0.33844386166E+02  0.51272064237E+02  0.41800000000E+01 0.  1.
        -11    1    1    2    0    0  0.16800752200E+02 -0.30772381887E+02 -0.16089744712E+02  0.38575700206E+02  0.00000000000E+00 0.  1.
         11    1    1    2    0    0 -0.52637397153E+01  0.53384110888E+02 -0.81705235226E+02  0.97741064627E+02  0.00000000000E+00 0. -1.
</event>
<event>
 7    1  0.2841804E-009  0.3696470E+03  0.7561462E-02  0.1054828E+00
          1   -1    0    0  501    0  0.00000000000E+00  0.00000000000E+00  0.15931124407E+04  0.15931124407E+04  0.00000000000E+00 0. -1.
         -1   -1    0    0    0  501 -0.00000000000E+00 -0.00000000000E+00 -0.11104438685E+03  0.11104438685E+03  0.00000000000E+00 0.  1.
         25    2    1    2    0    0 -0.91646891074E+02 -0.34788588608E+03  0.11301341523E+04  0.11925893290E+04  0.12506943323E+03 0.  0.
          5    1    3    3  502    0  0.15878418133E+02 -0.13507192531E+03  0.51999845690E+03  0.53750573648E+03  0.41800000000E+01 0. -1.
         -5    1    3    3    0  502 -0.10752530921E+03 -0.21281396077E+03  0.61013569537E+03  0.65508359252E+03  0.41800000000E+01 0. -1.
        -11    1    1    2    0    0  0.42016112864E+02  0.63969559528E+02  0.38197032796E+02  0.85536375892E+02  0.00000000000E+00 0.  1.
         11    1    1    2    0    0  0.49630778210E+02  0.28391632656E+03  0.31373686874E+03  0.42603112262E+03  0.00000000000E+00 0. -1.
</event>
<event>
 7    1  0.2841804E-009  0.1087174E+03  0.7561462E-02  0.1262964E+00
         -2   -1    0    0    0  501 -0.00000000000E+00  0.00000000000E+00  0.16559260092E+02  0.16559260092E+02  0.00000000000E+00 0. -1.
          2   -1    0    0  501    0  0.00000000000E+00 -0.00000000000E+00 -0.10357440239E+04  0.10357440239E+04  0.00000000000E+00 0.  1.
         25    2    1    2    0    0  0.44227860457E+02 -0.50435229776E+02 -0.46049629217E+03  0.48187551436E+03  0.12508940883E+03 0.  0.
          5    1    3    3  502    0  0.68031987966E+02 -0.44131926395E+02 -0.44529194175E+03  0.45263491260E+03  0.41800000000E+01 0. -1.
         -5    1    3    3    0  502 -0.23804127510E+02 -0.63033033805E+01 -0.15204350414E+02  0.29240601764E+02  0.41800000000E+01 0. -1.
        -11    1    1    2    0    0  0.22629810478E+02  0.36526894247E+02 -0.14841989978E+03  0.15451468855E+03  0.00000000000E+00 0. -1.
         11    1    1    2    0    0 -0.66857670935E+02  0.13908335529E+02 -0.41026857188E+03  0.41591308110E+03  0.00000000000E+00 0.  1.
</event>
<event>
 7    1  0.2841804E-009  0.1491014E+03  0.7561462E-02  0.1201582E+00
         -2   -1    0    0    0  501 -0.00000000000E+00  0.00000000000E+00  0.23181194094E+02  0.23181194094E+02  0.00000000000E+00 0. -1.
          2   -1    0    0  501    0  0.00000000000E+00 -0.00000000000E+00 -0.13511975263E+04  0.13511975263E+04  0.00000000000E+00 0.  1.
         25    2    1    2    0    0 -0.12777105690E+03 -0.30412752239E+02 -0.88166925300E+03  0.90013269950E+03  0.12509127287E+03 0.  0.
          5    1    3    3  502    0 -0.37736078793E+02 -0.50460239717E+02 -0.60876148699E+03  0.61202799600E+03  0.41800000000E+01 0. -1.
         -5    1    3    3    0  502 -0.90034978104E+02  0.20047487478E+02 -0.27290776601E+03  0.28810470351E+03  0.41800000000E+01 0. -1.
        -11    1    1    2    0    0  0.48143846012E+02  0.39900948444E+02 -0.30847955517E+03  0.31475315972E+03  0.00000000000E+00 0.  1.
         11    1    1    2    0    0  0.79627210885E+02 -0.94881962047E+01 -0.13786752402E+03  0.15949286116E+03  0.00000000000E+00 0. -1.
</event>
<event>
 7    1  0.2841804E-009  0.1115547E+03  0.7561462E-02  0.1257718E+00
          2   -1    0    0  501    0  0.00000000000E+00  0.00000000000E+00  0.69244018653E+03  0.69244018653E+03  0.00000000000E+00 0. -1.
         -2   -1    0    0    0  501 -0.00000000000E+00 -0.00000000000E+00 -0.19944457003E+02  0.19944457003E+02  0.00000000000E+00 0.  1.
         25    2    1    2    0    0  0.32064656738E+02 -0.11064812263E+02  0.46792503694E+03  0.48554100029E+03  0.12508257468E+03 0.  0.
          5    1    3    3  502    0  0.57029640188E+02 -0.54710722024E+02  0.28354711216E+03  0.29438423901E+03  0.41800000000E+01 0.  1.
         -5    1    3    3    0  502 -0.24964983451E+02  0.43645909761E+02  0.18437792478E+03  0.19115676128E+03  0.41800000000E+01 0.  1.
        -11    1    1    2    0    0 -0.51592905016E+02  0.35208730542E+02  0.16576667911E+03  0.17714421937E+03  0.00000000000E+00 0. -1.
         11    1    1    2    0    0  0.19528248278E+02 -0.24143918279E+02  0.38804013485E+02  0.49699423872E+02  0.00000000000E+00 0.  1.
</event>
<event>
 7    1  0.2841804E-009  0.1131633E+03  0.7561462E-02  0.1254822E+00
         -1   -1    0    0    0  501 -0.00000000000E+00  0.00000000000E+00  0.26812332782E+03  0.26812332782E+03  0.00000000000E+00 0.  1.
          1   -1    0    0  501    0  0.00000000000E+00 -0.00000000000E+00 -0.55952545238E+02  0.55952545238E+02  0.00000000000E+00 0. -1.
         25    2    1    2    0    0 -0.24395563727E+02  0.37974617690E+02  0.74365641969E+02  0.15236694678E+03  0.12509285610E+03 0.  0.
          5    1    3    3  502    0 -0.14036627229E+02 -0.43202643723E+02  0.67191192015E+01  0.46109806890E+02  0.41800000000E+01 0.  1.
         -5    1    3    3    0  502 -0.10358936498E+02  0.81177261412E+02  0.67646522767E+02  0.10625713989E+03  0.41800000000E+01 0.  1.
        -11    1    1    2    0    0 -0.19718242106E+02 -0.49406281943E+02  0.96565141849E+02  0.11024797680E+03  0.00000000000E+00 0.  1.
         11    1    1    2    0    0  0.44113805833E+02  0.11431664253E+02  0.41239998759E+02  0.61460949474E+02  0.00000000000E+00 0. -1.
</event>
<event>
 7    1  0.2841804E-009  0.1118830E+03  0.7561462E-02  0.1257122E+00
         -1   -1    0    0    0  501 -0.00000000000E+00  0.00000000000E+00  0.28330992727E+02  0.28330992727E+02  0.00000000000E+00 0.  1.
          1   -1    0    0  501    0  0.00000000000E+00 -0.00000000000E+00 -0.57571849050E+03  0.57571849050E+03  0.00000000000E+00 0. -1.
         25    2    1    2    0    0 -0.46318441763E+02 -0.54870850863E+02 -0.42579069753E+03  0.44955736022E+03  0.12509154129E+03 0.  0.
          5    1    3    3  502    0 -0.48927904281E+02 -0.85469001503E+02 -0.38975902195E+03  0.40203041878E+03  0.41800000000E+01 0. -1.
         -5    1    3    3    0  502  0.26094625178E+01  0.30598150640E+02 -0.36031675586E+02  0.47526941441E+02  0.41800000000E+01 0. -1.
        -11    1    1    2    0    0 -0.15126561334E+02  0.10890343337E+02 -0.34276518574E+02  0.39016562654E+02  0.00000000000E+00 0.  1.
         11    1    1    2    0    0  0.61445003097E+02  0.43980507527E+02 -0.87320281661E+02  0.11547556035E+03  0.00000000000E+00 0. -1.
</event>
<event>
 7    1  0.2841804E-009  0.2073072E+03  0.7561462E-02  0.1143716E+00
         -2   -1    0    0    0  501 -0.00000000000E+00  0.00000000000E+00  0.64016152876E+02  0.64016152876E+02  0.00000000000E+00 0.  1.
          2   -1    0    0  501    0  0.00000000000E+00 -0.00000000000E+00 -0.87423833487E+03  0.87423833487E+03  0.00000000000E+00 0. -1.
         25    2    1    2    0    0 -0.67580874003E+00  0.19730635611E+03 -0.56457427847E+03  0.61100061627E+03  0.12508949716E+03 0.  0.
          5    1    3    3  502    0 -0.41926830713E+02  0.11927759958E+03 -0.44300184203E+03  0.46070935451E+03  0.41800000000E+01 0.  1.
         -5    1    3    3    0  502  0.41251021973E+02  0.78028756533E+02 -0.12157243644E+03  0.15029126176E+03  0.41800000000E+01 0.  1.
        -11    1    1    2    0    0  0.14087246491E+02 -0.53540719193E+02 -0.13318611104E+03  0.14423452881E+03  0.00000000000E+00 0. -1.
         11    1    1    2    0    0 -0.13411437751E+02 -0.14376563692E+03 -0.11246179248E+03  0.18301934266E+03  0.00000000000E+00 0.  1.
</event>
<event>
 7    1  0.2841804E-009  0.7576685E+02  0.7561462E-02  0.1341513E+00
          3   -1    0    0  501    0  0.00000000000E+00  0.00000000000E+00  0.14726488317E+03  0.14726488317E+03  0.00000000000E+00 0. -1.
         -3   -1    0    0    0  501 -0.00000000000E+00 -0.00000000000E+00 -0.15115046630E+03  0.15115046630E+03  0.00000000000E+00 0.  1.
         25    2    1    2    0    0  0.54468404818E+02 -0.10831939791E+02 -0.87568912036E+02  0.16248142513E+03  0.12509101132E+03 0.  0.
          5    1    3    3  502    0  0.45305198278E+02  0.69451606108E+01  0.22008014332E+02  0.51015893031E+02  0.41800000000E+01 0. -1.
         -5    1    3    3    0  502  0.91632065397E+01 -0.17777100402E+02 -0.10957692637E+03  0.11146553209E+03  0.41800000000E+01 0. -1.
        -11    1    1    2    0    0  0.12023374929E+02  0.14068905411E+02 -0.99778365818E+01  0.21025053317E+02  0.00000000000E+00 0.  1.
         11    1    1    2    0    0 -0.66491779747E+02 -0.32369656195E+01  0.93661165489E+02  0.11490887103E+03  0.00000000000E+00 0. -1.
</event>
<event>
 7    1  0.2841804E-009  0.1037540E+03  0.7561462E-02  0.1272594E+00
         -1   -1    0    0    0  501 -0.00000000000E+00  0.00000000000E+00  0.47364209131E+02  0.47364209131E+02  0.00000000000E+00 0.  1.
          1   -1    0    0  501    0  0.00000000000E+00 -0.00000000000E+00 -0.29267087924E+03  0.29267087924E+03  0.00000000000E+00 0. -1.
         25    2    1    2    0    0  0.18650840387E+02  0.13706310836E+02 -0.19777892689E+03  0.23515947403E+03  0.12509099689E+03 0.  0.
          5    1    3    3  502    0 -0.49595265885E+02 -0.14381321539E+02 -0.64239896240E+02  0.82527265048E+02  0.41800000000E+01 0.  1.
         -5    1    3    3    0  502  0.68246106271E+02  0.28087632374E+02 -0.13353903065E+03  0.15263220899E+03  0.41800000000E+01 0.  1.
        -11    1    1    2    0    0  0.30312822667E+02 -0.12541719555E+02  0.48554951392E+01  0.33162294560E+02  0.00000000000E+00 0.  1.
         11    1    1    2    0    0 -0.48963663054E+02 -0.11645912800E+01 -0.52383238365E+02  0.71713319781E+02  0.00000000000E+00 0. -1.
</event>
<event>
 7    1  0.2841804E-009  0.1433177E+03  0.7561462E-02  0.1208933E+00
         -1   -1    0    0    0  501 -0.00000000000E+00  0.00000000000E+00  0.18798151928E+03  0.18798151928E+03  0.00000000000E+00 0.  1.
          1   -1    0    0  501    0  0.00000000000E+00 -0.00000000000E+00 -0.17017380864E+03  0.17017380864E+03  0.00000000000E+00 0. -1.
         25    2    1    2    0    0 -0.63175827596E+01  0.11898620956E+03  0.86126972892E+02  0.19303526932E+03  0.12508848798E+03 0.  0.
          5    1    3    3  502    0 -0.56423488693E+02  0.46808975110E+02  0.73980819182E+02  0.10423686600E+03  0.41800000000E+01 0.  1.
         -5    1    3    3    0  502  0.50105905934E+02  0.72177234451E+02  0.12146153710E+02  0.88798403321E+02  0.41800000000E+01 0.  1.
        -11    1    1    2    0    0  0.14567351926E+02 -0.14936796297E+02 -0.56315372691E+02  0.60056113986E+02  0.00000000000E+00 0. -1.
         11    1    1    2    0    0 -0.82497691664E+01 -0.10404941326E+03 -0.12003889559E+02  0.10506394461E+03  0.00000000000E+00 0.  1.
</event>
<event>
 7    1  0.3232621E-009  0.3606263E+03  0.7561462E-02  0.1058336E+00
         -2   -1    0    0    0  501 -0.00000000000E+00  0.00000000000E+00  0.16190550685E+03  0.16190550685E+03  0.00000000000E+00 0.  1.
          2   -1    0    0  501    0  0.00000000000E+00 -0.00000000000E+00 -0.85592711703E+03  0.85592711703E+03  0.00000000000E+00 0. -1.
         25    2    1    2    0    0  0.19721901654E+03 -0.29441329306E+03 -0.39499012069E+03  0.54519606292E+03  0.12508806486E+03 0.  0.
          5    1    3    3  502    0  0.92883419986E+02 -0.11623222752E+03 -0.81231027345E+02  0.16956772283E+03  0.41800000000E+01 0. -1.
         -5    1    3    3    0  502  0.10433559655E+03 -0.17818106554E+03 -0.31375909334E+03  0.37562834009E+03  0.41800000000E+01 0. -1.
        -11    1    1    2    0    0 -0.73360816399E+02  0.19074826340E+03 -0.16080162189E+03  0.26004590167E+03  0.00000000000E+00 0.  1.
         11    1    1    2    0    0 -0.12385820014E+03  0.10366502966E+03 -0.13822986760E+03  0.21259065928E+03  0.00000000000E+00 0. -1.
</event>
<event>
 7    1  0.2903909E-009  0.1242355E+03  0.7561462E-02  0.1236269E+00
         -4   -1    0    0    0  501 -0.00000000000E+00  0.00000000000E+00  0.40926053318E+02  0.40926053318E+02  0.00000000000E+00 0.  1.
          4   -1    0    0  501    0  0.00000000000E+00 -0.00000000000E+00 -0.45583587090E+03  0.45583587090E+03  0.00000000000E+00 0. -1.
         25    2    1    2    0    0  0.23748905149E+02  0.77773608279E+02 -0.20133073688E+03  0.25058736162E+03  0.12508883064E+03 0.  0.
          5    1    3    3  502    0 -0.18767201745E+02  0.87503482555E+02 -0.18167697461E+03  0.20256619369E+03  0.41800000000E+01 0. -1.
         -5    1    3    3    0  502  0.42516106894E+02 -0.97298742760E+01 -0.19653762272E+02  0.48021167939E+02  0.41800000000E+01 0. -1.
        -11    1    1    2    0    0  0.30232282479E+02 -0.34562422249E+02 -0.12899444178E+03  0.13692376691E+03  0.00000000000E+00 0. -1.
         11    1    1    2    0    0 -0.53981187627E+02 -0.43211186029E+02 -0.84584638929E+02  0.10925079569E+03  0.00000000000E+00 0.  1.
</event>
<event>
 7    1  0.2841804E-009  0.7456609E+02  0.7561462E-02  0.1345220E+00
          2   -1    0    0  501    0  0.00000000000E+00  0.00000000000E+00  0.47964571466E+03  0.47964571466E+03  0.00000000000E+00 0. -1.
         -2   -1    0    0    0  501 -0.00000000000E+00 -0.00000000000E+00 -0.29984122810E+02  0.29984122810E+02  0.00000000000E+00 0.  1.
         25    2    1    2    0    0 -0.26595067477E+02  0.43838987558E+02  0.23866113917E+03  0.27429457921E+03  0.12509685205E+03 0.  0.
          5    1    3    3  502    0  0.14405331057E+02  0.14349061392E+02 -0.81753806901E+01  0.22309602756E+02  0.41800000000E+01 0.  1.
         -5    1    3    3    0  502 -0.41000398533E+02  0.29489926166E+02  0.24683651986E+03  0.25198497646E+03  0.41800000000E+01 0.  1.
        -11    1    1    2    0    0  0.33287353151E+02  0.63934070089E-01  0.17508100137E+03  0.17821730838E+03  0.00000000000E+00 0. -1.
         11    1    1    2    0    0 -0.66922856741E+01 -0.43902921628E+02  0.35919451318E+02  0.57117949876E+02  0.00000000000E+00 0.  1.
</event>
<event>
 7    1  0.2841804E-009  0.1792415E+03  0.7561462E-02  0.1168539E+00
          3   -1    0    0  501    0  0.00000000000E+00  0.00000000000E+00  0.62308435256E+02  0.62308435256E+02  0.00000000000E+00 0. -1.
         -3   -1    0    0    0  501 -0.00000000000E+00 -0.00000000000E+00 -0.57447073664E+03  0.57447073664E+03  0.00000000000E+00 0.  1.
         25    2    1    2    0    0  0.89293482424E+02  0.12585655969E+03 -0.26259487451E+03  0.32926698449E+03  0.12508988502E+03 0.  0.
          5    1    3    3  502    0  0.11589317792E+03  0.85525857048E+02 -0.22792971481E+03  0.26965779834E+03  0.41800000000E+01 0.  1.
         -5    1    3    3    0  502 -0.26599695500E+02  0.40330702639E+02 -0.34665159702E+02  0.59609186148E+02  0.41800000000E+01 0.  1.
        -11    1    1    2    0    0 -0.88364867741E+02 -0.77517863651E+02 -0.11468053625E+03  0.16422239321E+03  0.00000000000E+00 0. -1.
         11    1    1    2    0    0 -0.92861468332E+00 -0.48338696036E+02 -0.13488689062E+03  0.14328979420E+03  0.00000000000E+00 0.  1.
</event>
<event>
 7    1  0.2841804E-009  0.1261426E+03  0.7561462E-02  0.1233294E+00
         -2   -1    0    0    0  501 -0.00000000000E+00  0.00000000000E+00  0.61350995764E+02  0.61350995764E+02  0.00000000000E+00 0. -1.
          2   -1    0    0  501    0  0.00000000000E+00 -0.00000000000E+00 -0.39135299615E+03  0.39135299615E+03  0.00000000000E+00 0.  1.
         25    2    1    2    0    0 -0.61176771795E+02  0.86918962010E+02 -0.20192609347E+03  0.26022691547E+03  0.12508555850E+03 0.  0.
          5    1    3    3  502    0 -0.32314721023E+02  0.26061386621E+02  0.55129521084E+01  0.42086840085E+02  0.41800000000E+01 0.  1.
         -5    1    3    3    0  502 -0.28862050772E+02  0.60857575389E+02 -0.20743904558E+03  0.21814007538E+03  0.41800000000E+01 0.  1.
        -11    1    1    2    0    0  0.79459088971E+02 -0.32817170335E+02 -0.85479952698E+02  0.12123339392E+03  0.00000000000E+00 0.  1.
         11    1    1    2    0    0 -0.18282317176E+02 -0.54101791675E+02 -0.42595954218E+02  0.71243682523E+02  0.00000000000E+00 0. -1.
</event>
<event>
 7    1  0.2841804E-009  0.1251665E+03  0.7561462E-02  0.1234809E+00
          2   -1    0    0  501    0  0.00000000000E+00  0.00000000000E+00  0.10563952144E+03  0.10563952144E+03  0.00000000000E+00 0.  1.
         -2   -1    0    0    0  501 -0.00000000000E+00 -0.00000000000E+00 -0.18566844955E+03  0.18566844955E+03  0.00000000000E+00 0. -1.
         25    2    1    2    0    0  0.72630439018E+02 -0.48470215825E+02 -0.20734715602E+02  0.15395539598E+03  0.12509113888E+03 0.  0.
          5    1    3    3  502    0  0.57906048415E+02  0.20933765351E+02 -0.47637377313E+02  0.77962331238E+02  0.41800000000E+01 0.  1.
         -5    1    3    3    0  502  0.14724390603E+02 -0.69403981176E+02  0.26902661711E+02  0.75993064742E+02  0.41800000000E+01 0.  1.
        -11    1    1    2    0    0 -0.81686435524E+02  0.15230023354E+02 -0.20730393776E+02  0.85640974925E+02  0.00000000000E+00 0.  1.
         11    1    1    2    0    0  0.90559965060E+01  0.33240192471E+02 -0.38563818736E+02  0.51711600088E+02  0.00000000000E+00 0. -1.
</event>
<event>
 7    1  0.2841804E-009  0.1170514E+03  0.7561462E-02  0.1248042E+00
         -2   -1    0    0    0  501 -0.00000000000E+00  0.00000000000E+00  0.80977774539E+03  0.80977774539E+03  0.00000000000E+00 0. -1.
          2   -1    0    0  501    0  0.00000000000E+00 -0.00000000000E+00 -0.20680386196E+02  0.20680386196E+02  0.00000000000E+00 0.  1.
         25    2    1    2    0    0  0.89557774765E+01 -0.67929002250E+02  0.49494294560E+03  0.51508376148E+03  0.12509279215E+03 0.  0.
          5    1    3    3  502    0  0.36789220951E+02  0.17568695062E+02  0.73671112022E+02  0.84303089925E+02  0.41800000000E+01 0. -1.
         -5    1    3    3    0  502 -0.27833443475E+02 -0.85497697312E+02  0.42127183358E+03  0.43078067156E+03  0.41800000000E+01 0. -1.
        -11    1    1    2    0    0  0.19440867213E+02  0.71858263359E+02  0.26165418633E+03  0.27203762709E+03  0.00000000000E+00 0.  1.
         11    1    1    2    0    0 -0.28396644690E+02 -0.39292611093E+01  0.32500227271E+02  0.43336743015E+02  0.00000000000E+00 0. -1.
</event>
<event>
 7    1  0.2841804E-009  0.1784580E+03  0.7561462E-02  0.1169304E+00
          2   -1    0    0  501    0  0.00000000000E+00  0.00000000000E+00  0.12998861802E+04  0.12998861802E+04  0.00000000000E+00 0. -1.
         -2   -1    0    0    0  501 -0.00000000000E+00 -0.00000000000E+00 -0.50644461395E+02  0.50644461395E+02  0.00000000000E+00 0.  1.
         25    2    1    2    0    0  0.14096200881E+03 -0.61738077676E+02  0.18447413202E+03  0.27085067110E+03  0.12508997756E+03 0.  0.
          5    1    3    3  502    0  0.15350635758E+03 -0.54039726282E+02  0.11401528094E+03  0.19874971829E+03  0.41800000000E+01 0.  1.
         -5    1    3    3    0  502 -0.12544348765E+02 -0.76983513940E+01  0.70458851080E+02  0.72100952807E+02  0.41800000000E+01 0.  1.
        -11    1    1    2    0    0 -0.50510643737E+02  0.71827113396E+02  0.51892478312E+03  0.52630161494E+03  0.00000000000E+00 0. -1.
         11    1    1    2    0    0 -0.90451365076E+02 -0.10089035720E+02  0.54584280371E+03  0.55337835560E+03  0.00000000000E+00 0.  1.
</event>
<event>
 7    1  0.2841804E-009  0.9949259E+02  0.7561462E-02  0.1281367E+00
         -2   -1    0    0    0  501 -0.00000000000E+00  0.00000000000E+00  0.56129665810E+02  0.56129665810E+02  0.00000000000E+00 0. -1.
          2   -1    0    0  501    0  0.00000000000E+00 -0.00000000000E+00 -0.46590703006E+03  0.46590703006E+03  0.00000000000E+00 0.  1.
         25    2    1    2    0    0  0.73975810388E+02  0.48629039705E+02 -0.98427192996E+02  0.18213273967E+03  0.12508884248E+03 0.  0.
          5    1    3    3  502    0  0.50795169108E+02  0.24277591279E+02  0.19273514302E+02  0.59653092095E+02  0.41800000000E+01 0.  1.
         -5    1    3    3    0  502  0.23180641281E+02  0.24351448426E+02 -0.11770070730E+03  0.12247964757E+03  0.41800000000E+01 0.  1.
        -11    1    1    2    0    0  0.82027115832E+01 -0.20021460690E+02 -0.60804883347E+01  0.22474779284E+02  0.00000000000E+00 0. -1.
         11    1    1    2    0    0 -0.82178521971E+02 -0.28607579015E+02 -0.30526968291E+03  0.31742917692E+03  0.00000000000E+00 0.  1.
</event>
<event>
 7    1  0.2841804E-009  0.1270693E+03  0.7561462E-02  0.1231870E+00
          1   -1    0    0  501    0  0.00000000000E+00  0.00000000000E+00  0.85306669150E+02  0.85306669150E+02  0.00000000000E+00 0. -1.
         -1   -1    0    0    0  501 -0.00000000000E+00 -0.00000000000E+00 -0.27300356816E+03  0.27300356816E+03  0.00000000000E+00 0.  1.
         25    2    1    2    0    0  0.11317794396E+02 -0.99572218065E+02 -0.13765963878E+03  0.21128299653E+03  0.12509040487E+03 0.  0.
          5    1    3    3  502    0 -0.12347413029E+02  0.18470437663E+02 -0.69037288804E+02  0.72644582189E+02  0.41800000000E+01 0.  1.
         -5    1    3    3    0  502  0.23665207424E+02 -0.11804265573E+03 -0.68622349975E+02  0.13863841434E+03  0.41800000000E+01 0.  1.
        -11    1    1    2    0    0 -0.14751380942E+02  0.37991510206E+01  0.22265396289E+02  0.26977484317E+02  0.00000000000E+00 0. -1.
         11    1    1    2    0    0  0.34335865460E+01  0.95773067045E+02 -0.72302656515E+02  0.12004975646E+03  0.00000000000E+00 0.  1.
</event>
<event>
 6    1  0.2841804E-009  0.1405581E+03  0.7561462E-02  0.1212580E+00
          2   -1    0    0  501    0  0.00000000000E+00  0.00000000000E+00  0.10532573173E+04  0.10532573173E+04  0.00000000000E+00 0. -1.
         -2   -1    0    0    0  501 -0.00000000000E+00 -0.00000000000E+00 -0.32296730073E+02  0.32296730073E+02  0.00000000000E+00 0.  1.
          5    1    1    2  502    0  0.36718360441E+02 -0.69631906206E+02  0.14837922660E+03  0.16801996203E+03  0.41800000000E+01 0.  1.
         -5    1    1    2    0  502  0.50467648455E+02 -0.32277816003E+02  0.57911801740E+03  0.58222331748E+03  0.41800000000E+01 0.  1.
        -11    1    1    2    0    0 -0.40448388797E+02  0.81995550614E+02  0.25699279501E+03  0.27277213781E+03  0.00000000000E+00 0. -1.
         11    1    1    2    0    0 -0.46737620099E+02  0.19914171594E+02  0.36470548256E+02  0.62538630085E+02  0.00000000000E+00 0.  1.
</event>
<event>
 7    1  0.2841804E-009  0.1047464E+03  0.7561462E-02  0.1270620E+00
         -1   -1    0    0    0  501 -0.00000000000E+00  0.00000000000E+00  0.68127889766E+02  0.68127889766E+02  0.00000000000E+00 0.  1.
          1   -1    0    0  501    0  0.00000000000E+00 -0.00000000000E+00 -0.17716884494E+03  0.17716884494E+03  0.00000000000E+00 0. -1.
         25    2    1    2    0    0  0.13893379988E+01 -0.18428992541E+02 -0.73647566898E+02  0.14634499826E+03  0.12510530117E+03 0.  0.
          5    1    3    3  502    0 -0.45815299362E+02 -0.46532668090E+02 -0.17620545564E+02  0.67766414109E+02  0.41800000000E+01 0.  1.
         -5    1    3    3    0  502  0.47204637361E+02  0.28103675548E+02 -0.56027021334E+02  0.78578584152E+02  0.41800000000E+01 0.  1.
        -11    1    1    2    0    0 -0.73559232876E+01  0.53187796111E+02 -0.34207171974E+02  0.63664604585E+02  0.00000000000E+00 0. -1.
         11    1    1    2    0    0  0.59665852888E+01 -0.34758803569E+02 -0.11862162982E+01  0.35287131857E+02  0.00000000000E+00 0.  1.
</event>
<event>
 7    1  0.2841804E-009  0.1114031E+03  0.7561462E-02  0.1257993E+00
          2   -1    0    0  501    0  0.00000000000E+00  0.00000000000E+00  0.74820752673E+03  0.74820752673E+03  0.00000000000E+00 0. -1.
         -2   -1    0    0    0  501 -0.00000000000E+00 -0.00000000000E+00 -0.58075671833E+02  0.58075671833E+02  0.00000000000E+00 0.  1.
         25    2    1    2    0    0  0.83960023122E+02  0.42853482736E+02  0.64816884106E+03  0.66682469123E+03  0.12508643354E+03 0.  0.
          5    1    3    3  502    0  0.43390190777E+02  0.10518463311E+02  0.57654946011E+03  0.57829067006E+03  0.41800000000E+01 0. -1.
         -5    1    3    3    0  502  0.40569832345E+02  0.32335019424E+02  0.71619380946E+02  0.88534021171E+02  0.41800000000E+01 0. -1.
        -11    1    1    2    0    0  0.98788390997E+01  0.13294085930E+02  0.23201642962E+02  0.28506848630E+02  0.00000000000E+00 0.  1.
         11    1    1    2    0    0 -0.93838862221E+02 -0.56147568666E+02  0.18761370872E+02  0.11095165869E+03  0.00000000000E+00 0. -1.
</event>
<event>
 7    1  0.2841804E-009  0.1398551E+03  0.7561462E-02  0.1213524E+00
          1   -1    0    0  501    0  0.00000000000E+00  0.00000000000E+00  0.15201788290E+03  0.15201788290E+03  0.00000000000E+00 0. -1.
         -1   -1    0    0    0  501 -0.00000000000E+00 -0.00000000000E+00 -0.26447462359E+03  0.26447462359E+03  0.00000000000E+00 0.  1.
         25    2    1    2    0    0  0.48420670708E+02 -0.10406938354E+03  0.68348148831E+02  0.18301288032E+03  0.12508895623E+03 0.  0.
          5    1    3    3  502    0  0.51250698267E+02 -0.24783711819E+02  0.84468812025E+02  0.10194762895E+03  0.41800000000E+01 0.  1.
         -5    1    3    3    0  502 -0.28300275587E+01 -0.79285671724E+02 -0.16120663193E+02  0.81065251362E+02  0.41800000000E+01 0.  1.
        -11    1    1    2    0    0 -0.63250188914E+02  0.11025897516E+03 -0.17521254931E+03  0.21646492888E+03  0.00000000000E+00 0.  1.
         11    1    1    2    0    0  0.14829518206E+02 -0.61895916206E+01 -0.55923402111E+01  0.17014697284E+02  0.00000000000E+00 0. -1.
</event>
<event>
 7    1  0.2841804E-009  0.1090509E+03  0.7561462E-02  0.1262338E+00
         -2   -1    0    0    0  501 -0.00000000000E+00  0.00000000000E+00  0.23628147214E+02  0.23628147214E+02  0.00000000000E+00 0.  1.
          2   -1    0    0  501    0  0.00000000000E+00 -0.00000000000E+00 -0.86059337304E+03  0.86059337304E+03  0.00000000000E+00 0. -1.
         25    2    1    2    0    0  0.84691072459E+02 -0.34473452511E+02 -0.49455796251E+03  0.51826246614E+03  0.12508960326E+03 0.  0.
          5    1    3    3  502    0  0.20533726703E+02 -0.38424173949E+02 -0.40813427894E+03  0.41047425391E+03  0.41800000000E+01 0.  1.
         -5    1    3    3    0  502  0.64157345756E+02  0.39507214385E+01 -0.86423683577E+02  0.10778821224E+03  0.41800000000E+01 0.  1.
        -11    1    1    2    0    0 -0.93577723359E+02  0.24849251860E+02 -0.33881274611E+03  0.35237530071E+03  0.00000000000E+00 0. -1.
         11    1    1    2    0    0  0.88866508994E+01  0.96242006509E+01 -0.35945172009E+01  0.13583753395E+02  0.00000000000E+00 0.  1.
</event>
<event>
 7    1  0.2841804E-009  0.1286298E+03  0.7561462E-02  0.1229503E+00
         -1   -1    0    0    0  501 -0.00000000000E+00  0.00000000000E+00  0.77302632519E+03  0.77302632519E+03  0.00000000000E+00 0.  1.
          1   -1    0    0  501    0  0.00000000000E+00 -0.00000000000E+00 -0.29756167617E+02  0.29756167617E+02  0.00000000000E+00 0. -1.
         25    2    1    2    0    0 -0.10910853339E+03  0.22649577208E+02  0.35104551513E+03  0.38896940065E+03  0.12508623242E+03 0.  0.
          5    1    3    3  502    0 -0.50733262394E+02 -0.22655169728E+02  0.38366321979E+02  0.67650334003E+02  0.41800000000E+01 0.  1.
         -5    1    3    3    0  502 -0.58375270999E+02  0.45304746936E+02  0.31267919315E+03  0.32131906665E+03  0.41800000000E+01 0.  1.
        -11    1    1    2    0    0  0.42769480152E+02  0.21472839725E+02  0.99049641478E+02  0.11000519422E+03  0.00000000000E+00 0. -1.
         11    1    1    2    0    0  0.66339053241E+02 -0.44122416933E+02  0.29317500096E+03  0.30380789794E+03  0.00000000000E+00 0.  1.
</event>
<event>
 7    1  0.2841804E-009  0.1133568E+03  0.7561462E-02  0.1254477E+00
          4   -1    0    0  501    0  0.00000000000E+00  0.00000000000E+00  0.65355807124E+03  0.65355807124E+03  0.00000000000E+00 0. -1.
         -4   -1    0    0    0  501 -0.00000000000E+00 -0.00000000000E+00 -0.20959555008E+02  0.20959555008E+02  0.00000000000E+00 0.  1.
         25    2    1    2    0    0  0.41800918784E+02 -0.15271813963E+02  0.35995287112E+03  0.38365948575E+03  0.12509191205E+03 0.  0.
          5    1    3    3  502    0 -0.39556545958E+01 -0.63509304291E+02  0.13999866557E+03  0.15383815423E+03  0.41800000000E+01 0.  1.
         -5    1    3    3    0  502  0.45756573380E+02  0.48237490327E+02  0.21995420555E+03  0.22982133152E+03  0.41800000000E+01 0.  1.
        -11    1    1    2    0    0 -0.68423933630E+02  0.12533323687E+02  0.23190293987E+03  0.24211132237E+03  0.00000000000E+00 0. -1.
         11    1    1    2    0    0  0.26623014846E+02  0.27384902764E+01  0.40742705235E+02  0.48746818136E+02  0.00000000000E+00 0.  1.
</event>
<event>
 7    1  0.2841804E-009  0.1026285E+03  0.7561462E-02  0.1274864E+00
          2   -1    0    0  501    0  0.00000000000E+00  0.00000000000E+00  0.41894675917E+03  0.41894675917E+03  0.00000000000E+00 0.  1.
         -2   -1    0    0    0  501 -0.00000000000E+00 -0.00000000000E+00 -0.43300501536E+02  0.43300501536E+02  0.00000000000E+00 0. -1.
         25    2    1    2    0    0  0.51604789066E+02  0.45902237948E+02  0.15352813446E+03  0.20974357662E+03  0.12510559603E+03 0.  0.
          5    1    3    3  502    0 -0.47377813387E+01  0.63958105527E+02  0.26439034875E+02  0.69495185443E+02  0.41800000000E+01 0.  1.
         -5    1    3    3    0  502  0.56342570405E+02 -0.18055867579E+02  0.12708909959E+03  0.14024839118E+03  0.41800000000E+01 0.  1.
        -11    1    1    2    0    0 -0.20572128585E+02 -0.46273206848E+02  0.21470442949E+03  0.22059558969E+03  0.00000000000E+00 0.  1.
         11    1    1    2    0    0 -0.31032660481E+02  0.37096890020E+00  0.74136936884E+01  0.31908094405E+02  0.00000000000E+00 0. -1.
</event>
<event>
 7    1  0.2841804E-009  0.1016508E+03  0.7561462E-02  0.1276862E+00
         -1   -1    0    0    0  501 -0.00000000000E+00  0.00000000000E+00  0.51959607474E+03  0.51959607474E+03  0.00000000000E+00 0.  1.
          1   -1    0    0  501    0  0.00000000000E+00 -0.00000000000E+00 -0.28914110662E+02  0.28914110662E+02  0.00000000000E+00 0. -1.
         25    2    1    2    0    0  0.41519857212E+02  0.16830335542E+02  0.20298715668E+03  0.24260758780E+03  0.12508995621E+03 0.  0.
          5    1    3    3  502    0  0.23716723612E+02  0.56067439013E+02  0.18659396354E+03  0.19631816097E+03  0.41800000000E+01 0.  1.
         -5    1    3    3    0  502  0.17803133600E+02 -0.39237103471E+02  0.16393193132E+02  0.46289426825E+02  0.41800000000E+01 0.  1.
        -11    1    1    2    0    0  0.21442427537E+02 -0.27771183457E+02  0.15077298396E+03  0.15480151492E+03  0.00000000000E+00 0. -1.
         11    1    1    2    0    0 -0.62962284749E+02  0.10940847915E+02  0.13692182344E+03  0.15110108269E+03  0.00000000000E+00 0.  1.
</event>
<event>
 7    1  0.2841804E-009  0.7036000E+02  0.7561462E-02  0.1358873E+00
          2   -1    0    0  501    0  0.00000000000E+00  0.00000000000E+00  0.12096619460E+03  0.12096619460E+03  0.00000000000E+00 0.  1.
         -2   -1    0    0    0  501 -0.00000000000E+00 -0.00000000000E+00 -0.99805123900E+02  0.99805123900E+02  0.00000000000E+00 0. -1.
         25    2    1    2    0    0 -0.90219739464E+01 -0.52731177194E+01  0.25653748143E+02  0.12811910444E+03  0.12508872189E+03 0.  0.
          5    1    3    3  502    0  0.17830265776E+02 -0.15673108235E+02  0.70585793292E+02  0.74588144594E+02  0.41800000000E+01 0. -1.
         -5    1    3    3    0  502 -0.26852239722E+02  0.10399990516E+02 -0.44932045149E+02  0.53530959846E+02  0.41800000000E+01 0. -1.
        -11    1    1    2    0    0 -0.39146494590E+02  0.37401832695E+01  0.12946548824E+02  0.41401088585E+02  0.00000000000E+00 0. -1.
         11    1    1    2    0    0  0.48168468536E+02  0.15329344499E+01 -0.17439226271E+02  0.51251125471E+02  0.00000000000E+00 0.  1.
</event>
<event>
 7    1  0.3442465E-009  0.2285888E+03  0.7561462E-02  0.1127637E+00
          2   -1    0    0  501    0  0.00000000000E+00  0.00000000000E+00  0.90378044253E+03  0.90378044253E+03  0.00000000000E+00 0. -1.
         -2   -1    0    0    0  501 -0.00000000000E+00 -0.00000000000E+00 -0.64597647178E+02  0.64597647178E+02  0.00000000000E+00 0.  1.
         25    2    1    2    0    0 -0.55089694063E+01 -0.21165119075E+03  0.51231708303E+03  0.56827968650E+03  0.12508570353E+03 0.  0.
          5    1    3    3  502    0 -0.61662376777E+02 -0.14156519698E+03  0.29235168430E+03  0.33065077259E+03  0.41800000000E+01 0. -1.
         -5    1    3    3    0  502  0.56153407370E+02 -0.70085993777E+02  0.21996539874E+03  0.23762891391E+03  0.41800000000E+01 0. -1.
        -11    1    1    2    0    0  0.13815980655E+02  0.12874926835E+03  0.26934455242E+03  0.29885405023E+03  0.00000000000E+00 0.  1.
         11    1    1    2    0    0 -0.83070112485E+01  0.82901922404E+02  0.57521159903E+02  0.10124435298E+03  0.00000000000E+00 0. -1.
</event>
<event>
 7    1  0.2841804E-009  0.1007756E+03  0.7561462E-02  0.1278673E+00
         -2   -1    0    0    0  501 -0.00000000000E+00  0.00000000000E+00  0.78810082341E+02  0.78810082341E+02  0.00000000000E+00 0. -1.
          2   -1    0    0  501    0  0.00000000000E+00 -0.00000000000E+00 -0.18286475382E+03  0.18286475382E+03  0.00000000000E+00 0.  1.
         25    2    1    2    0    0  0.44031478537E+02  0.35644221244E+00 -0.25644130672E+02  0.13507593889E+03  0.12509592189E+03 0.  0.
          5    1    3    3  502    0 -0.68585699163E+00 -0.43819580119E+02 -0.50818087278E+02  0.67235231807E+02  0.41800000000E+01 0. -1.
         -5    1    3    3    0  502  0.44717335528E+02  0.44176022331E+02  0.25173956605E+02  0.67840707079E+02  0.41800000000E+01 0. -1.
        -11    1    1    2    0    0  0.12980571334E+02 -0.28228340602E+02 -0.45544433759E+02  0.55132838597E+02  0.00000000000E+00 0.  1.
         11    1    1    2    0    0 -0.57012049870E+02  0.27871898389E+02 -0.32866107044E+02  0.71466058675E+02  0.00000000000E+00 0. -1.
</event>
<event>
 7    1  0.2841804E-009  0.2211766E+03  0.7561462E-02  0.1133009E+00
         -1   -1    0    0    0  501 -0.00000000000E+00  0.00000000000E+00  0.12361552337E+03  0.12361552337E+03  0.00000000000E+00 0.  1.
          1   -1    0    0  501    0  0.00000000000E+00 -0.00000000000E+00 -0.71515967388E+03  0.71515967388E+03  0.00000000000E+00 0. -1.
         25    2    1    2    0    0  0.12827819546E+03  0.17702221400E+03 -0.59291195486E+02  0.25875717172E+03  0.12509064063E+03 0.  0.
          5    1    3    3  502    0  0.12729504944E+02  0.45164127621E+02 -0.68508241978E+02  0.83142590402E+02  0.41800000000E+01 0.  1.
         -5    1    3    3    0  502  0.11554869052E+03  0.13185808638E+03  0.92170464917E+01  0.17561458132E+03  0.41800000000E+01 0.  1.
        -11    1    1    2    0    0 -0.62187880367E+02 -0.10568698032E+03 -0.20757958830E+03  0.24109408071E+03  0.00000000000E+00 0.  1.
         11    1    1    2    0    0 -0.66090315096E+02 -0.71335233685E+02 -0.32467336672E+03  0.33892394482E+03  0.00000000000E+00 0. -1.
</event>
<event>
 7    1  0.2841804E-009  0.1811622E+03  0.7561462E-02  0.1166683E+00
          1   -1    0    0  501    0  0.00000000000E+00  0.00000000000E+00  0.34094417348E+03  0.34094417348E+03  0.00000000000E+00 0. -1.
         -1   -1    0    0    0  501 -0.00000000000E+00 -0.00000000000E+00 -0.10401403037E+03  0.10401403037E+03  0.00000000000E+00 0.  1.
         25    2    1    2    0    0 -0.14339309500E+03 -0.36736927086E+02  0.12229098636E+03  0.22913290378E+03  0.12504247576E+03 0.  0.
          5    1    3    3  502    0  0.72811402125E+01 -0.28372222100E+02 -0.69611591779E+01  0.30396186057E+02  0.41800000000E+01 0. -1.
         -5    1    3    3    0  502 -0.15067423521E+03 -0.83647049861E+01  0.12925214553E+03  0.19873671772E+03  0.41800000000E+01 0. -1.
        -11    1    1    2    0    0  0.15956873549E+03  0.41560961334E+02  0.11034678662E+03  0.19840843775E+03  0.00000000000E+00 0. -1.
         11    1    1    2    0    0 -0.16175640488E+02 -0.48240342479E+01  0.42923701346E+01  0.17416862318E+02  0.00000000000E+00 0.  1.
</event>
<event>
 7    1  0.2841804E-009  0.9112305E+02  0.7561462E-02  0.1300155E+00
          2   -1    0    0  501    0  0.00000000000E+00  0.00000000000E+00  0.38356519960E+02  0.38356519960E+02  0.00000000000E+00 0. -1.
         -2   -1    0    0    0  501 -0.00000000000E+00 -0.00000000000E+00 -0.32406045170E+03  0.32406045170E+03  0.00000000000E+00 0.  1.
         25    2    1    2    0    0 -0.44977151874E+01 -0.34060811536E+02 -0.18427987260E+03  0.22536873242E+03  0.12510645780E+03 0.  0.
          5    1    3    3  502    0 -0.15900178851E+02 -0.65284168541E+02 -0.42342448087E+02  0.79531086121E+02  0.41800000000E+01 0. -1.
         -5    1    3    3    0  502  0.11402463664E+02  0.31223357005E+02 -0.14193742452E+03  0.14583764630E+03  0.41800000000E+01 0. -1.
        -11    1    1    2    0    0 -0.31788881732E+02  0.31955142358E+02 -0.86923216947E+02  0.97914808734E+02  0.00000000000E+00 0.  1.
         11    1    1    2    0    0  0.36286596919E+02  0.21056691777E+01 -0.14500842186E+02  0.39133430501E+02  0.00000000000E+00 0. -1.
</event>
<event>
 7    1  0.2841804E-009  0.6750456E+02  0.7561462E-02  0.1368791E+00
          1   -1    0    0  501    0  0.00000000000E+00  0.00000000000E+00  0.52151635427E+03  0.52151635427E+03  0.00000000000E+00 0. -1.
         -1   -1    0    0    0  501 -0.00000000000E+00 -0.00000000000E+00 -0.24345988716E+02  0.24345988716E+02  0.00000000000E+00 0.  1.
         25    2    1    2    0    0 -0.30286272018E+02  0.42577417692E+01  0.28685606415E+03  0.31444037739E+03  0.12510380792E+03 0.  0.
          5    1    3    3  502    0 -0.19243442384E+02  0.14911636183E+02  0.29537016331E+03  0.29640120233E+03  0.41800000000E+01 0. -1.
         -5    1    3    3    0  502 -0.11042829633E+02 -0.10653894414E+02 -0.85140991572E+01  0.18039175063E+02  0.41800000000E+01 0. -1.
        -11    1    1    2    0    0  0.29957332589E+02 -0.44782397772E+02  0.95290257786E+02  0.10946752101E+03  0.00000000000E+00 0. -1.
         11    1    1    2    0    0  0.32893942835E+00  0.40524656003E+02  0.11502404361E+03  0.12195444458E+03  0.00000000000E+00 0.  1.
</event>
<event>
 7    1  0.2841804E-009  0.4093366E+03  0.7561462E-02  0.1040594E+00
         -1   -1    0    0    0  501 -0.00000000000E+00  0.00000000000E+00  0.34863286835E+03  0.34863286835E+03  0.00000000000E+00 0.  1.
          1   -1    0    0  501    0  0.00000000000E+00 -0.00000000000E+00 -0.50395182850E+03  0.50395182850E+03  0.00000000000E+00 0. -1.
         25    2    1    2    0    0  0.18631095636E+03  0.35875829564E+03 -0.65459483632E+02  0.42819419416E+03  0.12508411877E+03 0.  0.
          5    1    3    3  502    0  0.69728246543E+02  0.13274762067E+03 -0.86199479960E+02  0.17300804000E+03  0.41800000000E+01 0. -1.
         -5    1    3    3    0  502  0.11658270982E+03  0.22601067497E+03  0.20739996328E+02  0.25518615416E+03  0.41800000000E+01 0. -1.
        -11    1    1    2    0    0 -0.87147177596E+02 -0.26064684718E+03 -0.50319834808E+02  0.27939845255E+03  0.00000000000E+00 0.  1.
         11    1    1    2    0    0 -0.99163778768E+02 -0.98111448455E+02 -0.39539641715E+02  0.14499205014E+03  0.00000000000E+00 0. -1.
</event>
<event>
 7    1  0.2841804E-009  0.8361942E+02  0.7561462E-02  0.1319083E+00
         -2   -1    0    0    0  501 -0.00000000000E+00  0.00000000000E+00  0.21679948192E+02  0.21679948192E+02  0.00000000000E+00 0.  1.
          2   -1    0    0  501    0  0.00000000000E+00 -0.00000000000E+00 -0.88218434778E+03  0.88218434778E+03  0.00000000000E+00 0. -1.
         25    2    1    2    0    0 -0.13090819488E+02  0.54760294071E+02 -0.67508803260E+03  0.68888467219E+03  0.12509268747E+03 0.  0.
          5    1    3    3  502    0 -0.14948747625E+02  0.35992768741E+02 -0.50163006762E+02  0.63661166378E+02  0.41800000000E+01 0. -1.
         -5    1    3    3    0  502  0.18579281374E+01  0.18767525331E+02 -0.62492502584E+03  0.62522350581E+03  0.41800000000E+01 0. -1.
        -11    1    1    2    0    0 -0.35174272599E+02  0.72881800329E+00 -0.63733441394E+02  0.72799122113E+02  0.00000000000E+00 0.  1.
         11    1    1    2    0    0  0.48265092087E+02 -0.55489112075E+02 -0.12168292559E+03  0.14218050167E+03  0.00000000000E+00 0. -1.
</event>
<event>
 7    1  0.2841804E-009  0.1632465E+03  0.7561462E-02  0.1185079E+00
          1   -1    0    0  501    0  0.00000000000E+00  0.00000000000E+00  0.45118278934E+02  0.45118278934E+02  0.00000000000E+00 0. -1.
         -1   -1    0    0    0  501 -0.00000000000E+00 -0.00000000000E+00 -0.72138119087E+03  0.72138119087E+03  0.00000000000E+00 0.  1.
         25    2    1    2    0    0 -0.13786800347E+03 -0.40695856873E+02 -0.33457233431E+03  0.38501752046E+03  0.12504441222E+03 0.  0.
          5    1    3    3  502    0 -0.15326921688E+03 -0.47273016427E+02 -0.33034235814E+03  0.36724615302E+03  0.41800000000E+01 0. -1.
         -5    1    3    3    0  502  0.15401213408E+02  0.65771595533E+01 -0.42299761653E+01  0.17771367437E+02  0.41800000000E+01 0. -1.
        -11    1    1    2    0    0  0.24353417135E+02 -0.74701424150E+01 -0.95752926215E+01  0.27213566150E+02  0.00000000000E+00 0. -1.
         11    1    1    2    0    0  0.11351458634E+03  0.48165999288E+02 -0.33211528500E+03  0.35426838320E+03  0.00000000000E+00 0.  1.
</event>
<event>
 7    1  0.2841804E-009  0.9066210E+02  0.7561462E-02  0.1301256E+00
         -1   -1    0    0    0  501 -0.00000000000E+00  0.00000000000E+00  0.21508293843E+02  0.21508293843E+02  0.00000000000E+00 0.  1.
          1   -1    0    0  501    0  0.00000000000E+00 -0.00000000000E+00 -0.62823532189E+03  0.62823532189E+03  0.00000000000E+00 0. -1.
         25    2    1    2    0    0  0.16215903648E+02 -0.86412576290E+01 -0.45428404560E+03  0.47154841272E+03  0.12508510935E+03 0.  0.
          5    1    3    3  502    0  0.45768399759E+02  0.18035718440E+02 -0.40526203251E+03  0.40825827725E+03  0.41800000000E+01 0.  1.
         -5    1    3    3    0  502 -0.29552496110E+02 -0.26676976069E+02 -0.49022013098E+02  0.63290135462E+02  0.41800000000E+01 0.  1.
        -11    1    1    2    0    0  0.36400375596E+02 -0.69212524740E+01 -0.53922284708E+02  0.65425559742E+02  0.00000000000E+00 0.  1.
         11    1    1    2    0    0 -0.52616279244E+02  0.15562510103E+02 -0.98520697731E+02  0.11276964327E+03  0.00000000000E+00 0. -1.
</event>
<event>
 7    1  0.2841804E-009  0.9158979E+02  0.7561462E-02  0.1299047E+00
         -2   -1    0    0    0  501 -0.00000000000E+00  0.00000000000E+00  0.26535737887E+02  0.26535737887E+02  0.00000000000E+00 0.  1.
          2   -1    0    0  501    0  0.00000000000E+00 -0.00000000000E+00 -0.51976665867E+03  0.51976665867E+03  0.00000000000E+00 0. -1.
         25    2    1    2    0    0 -0.33206909701E+02  0.17506103206E+02 -0.21317210868E+03  0.24999560390E+03  0.12508513721E+03 0.  0.
          5    1    3    3  502    0  0.25529454197E+02  0.68579583290E+01  0.18260587919E+01  0.26825202977E+02  0.41800000000E+01 0. -1.
         -5    1    3    3    0  502 -0.58736363898E+02  0.10648144877E+02 -0.21499816747E+03  0.22317040093E+03  0.41800000000E+01 0. -1.
        -11    1    1    2    0    0  0.21359898445E+02  0.35953652766E+02 -0.11202926200E+03  0.11958037445E+03  0.00000000000E+00 0. -1.
         11    1    1    2    0    0  0.11847011256E+02 -0.53459755972E+02 -0.16802955010E+03  0.17672641821E+03  0.00000000000E+00 0.  1.
</event>
<event>
 7    1  0.2841804E-009  0.2424802E+03  0.7561462E-02  0.1118152E+00
          2   -1    0    0  501    0  0.00000000000E+00  0.00000000000E+00  0.31124401946E+03  0.31124401946E+03  0.00000000000E+00 0.  1.
         -2   -1    0    0    0  501 -0.00000000000E+00 -0.00000000000E+00 -0.20328763372E+03  0.20328763372E+03  0.00000000000E+00 0. -1.
         25    2    1    2    0    0  0.63643131736E+02 -0.21659961048E+03  0.48867919907E+02  0.26268304605E+03  0.12509384321E+03 0.  0.
          5    1    3    3  502    0 -0.34378321194E+02 -0.24628614358E+02  0.90129566115E+01  0.43441263796E+02  0.41800000000E+01 0. -1.
         -5    1    3    3    0  502  0.98021452931E+02 -0.19197099612E+03  0.39854963296E+02  0.21924178225E+03  0.41800000000E+01 0. -1.
        -11    1    1    2    0    0 -0.71436172589E+01  0.59457375338E+02  0.60117584479E+02  0.84854786036E+02  0.00000000000E+00 0.  1.
         11    1    1    2    0    0 -0.56499514478E+02  0.15714223514E+03 -0.10291186442E+01  0.16699382110E+03  0.00000000000E+00 0. -1.
</event>
<event>
 7    1  0.2841804E-009  0.1054509E+03  0.7561462E-02  0.1269234E+00
          2   -1    0    0  501    0  0.00000000000E+00  0.00000000000E+00  0.10911139193E+03  0.10911139193E+03  0.00000000000E+00 0. -1.
         -2   -1    0    0    0  501 -0.00000000000E+00 -0.00000000000E+00 -0.14649668453E+03  0.14649668453E+03  0.00000000000E+00 0.  1.
         25    2    1    2    0    0  0.31384602563E+02  0.39816263759E+02 -0.60113384616E+02  0.14775059493E+03  0.12508513563E+03 0.  0.
          5    1    3    3  502    0 -0.46798445395E+02  0.21408211782E+02 -0.88824541693E+01  0.52390613808E+02  0.41800000000E+01 0. -1.
         -5    1    3    3    0  502  0.78183047957E+02  0.18408051977E+02 -0.51230930447E+02  0.95359981124E+02  0.41800000000E+01 0. -1.
        -11    1    1    2    0    0  0.25960008169E+01  0.14521680741E+02  0.39033103189E+02  0.41727707538E+02  0.00000000000E+00 0. -1.
         11    1    1    2    0    0 -0.33980603380E+02 -0.54337944500E+02 -0.16305011168E+02  0.66129773988E+02  0.00000000000E+00 0.  1.
</event>
<event>
 7    1  0.2841804E-009  0.1040307E+03  0.7561462E-02  0.1272041E+00
          1   -1    0    0  501    0  0.00000000000E+00  0.00000000000E+00  0.68002180702E+03  0.68002180702E+03  0.00000000000E+00 0.  1.
         -1   -1    0    0    0  501 -0.00000000000E+00 -0.00000000000E+00 -0.19608281249E+02  0.19608281249E+02  0.00000000000E+00 0. -1.
         25    2    1    2    0    0 -0.42041815983E+01  0.22781495812E+02  0.47800072525E+03  0.49464016261E+03  0.12509006928E+03 0.  0.
          5    1    3    3  502    0  0.29021887621E+02 -0.43125749089E+02  0.16589857095E+03  0.17390200815E+03  0.41800000000E+01 0. -1.
         -5    1    3    3    0  502 -0.33226069220E+02  0.65907244901E+02  0.31210215430E+03  0.32073815446E+03  0.41800000000E+01 0. -1.
        -11    1    1    2    0    0 -0.30167361107E+02 -0.34352041092E+02  0.50222335547E+02  0.67914765634E+02  0.00000000000E+00 0. -1.
         11    1    1    2    0    0  0.34371542705E+02  0.11570545280E+02  0.13219046498E+03  0.13707516003E+03  0.00000000000E+00 0.  1.
</event>
<event>
 7    1  0.3904653E-009  0.6824006E+02  0.7561462E-02  0.1366182E+00
          2   -1    0    0  501    0  0.00000000000E+00  0.00000000000E+00  0.32652222175E+03  0.32652222175E+03  0.00000000000E+00 0. -1.
         -2   -1    0    0    0  501 -0.00000000000E+00 -0.00000000000E+00 -0.48519700745E+02  0.48519700745E+02  0.00000000000E+00 0.  1.
         25    2    1    2    0    0  0.54059015538E+01  0.23741477685E+02  0.66932903428E+02  0.14393459083E+03  0.12507706161E+03 0.  0.
          5    1    3    3  502    0  0.13170066893E+02 -0.12037809880E+02 -0.32821779355E+02  0.37591237393E+02  0.41800000000E+01 0.  1.
         -5    1    3    3    0  502 -0.77641653391E+01  0.35779287565E+02  0.99754682783E+02  0.10634335343E+03  0.41800000000E+01 0.  1.
        -11    1    1    2    0    0  0.35909640360E+02 -0.62987314373E+01  0.39414516786E+02  0.53690599009E+02  0.00000000000E+00 0.  1.
         11    1    1    2    0    0 -0.41315541913E+02 -0.17442746248E+02  0.17165510079E+03  0.17741673266E+03  0.00000000000E+00 0. -1.
</event>
<event>
 7    1  0.2841804E-009  0.1209425E+03  0.7561462E-02  0.1241550E+00
          2   -1    0    0  501    0  0.00000000000E+00  0.00000000000E+00  0.45729579602E+03  0.45729579602E+03  0.00000000000E+00 0. -1.
         -2   -1    0    0    0  501 -0.00000000000E+00 -0.00000000000E+00 -0.76340504553E+02  0.76340504553E+02  0.00000000000E+00 0.  1.
         25    2    1    2    0    0 -0.59356494083E+02  0.67894075806E+02  0.26121704758E+02  0.15641152395E+03  0.12509765163E+03 0.  0.
          5    1    3    3  502    0  0.15759264239E+02  0.99694489560E+01  0.54141615006E+02  0.57415426475E+02  0.41800000000E+01 0. -1.
         -5    1    3    3    0  502 -0.75115758322E+02  0.57924626850E+02 -0.28019910248E+02  0.98996097470E+02  0.41800000000E+01 0. -1.
        -11    1    1    2    0    0  0.64689623770E+01 -0.74274295829E+02  0.21734568802E+03  0.22977742839E+03  0.00000000000E+00 0.  1.
         11    1    1    2    0    0  0.52887531706E+02  0.63802200228E+01  0.13748789869E+03  0.14744734824E+03  0.00000000000E+00 0. -1.
</event>
<event>
 7    1  0.2841804E-009  0.1647223E+03  0.7561462E-02  0.1183466E+00
          2   -1    0    0  501    0  0.00000000000E+00  0.00000000000E+00  0.13034895795E+04  0.13034895795E+04  0.00000000000E+00 0. -1.
         -2   -1    0    0    0  501 -0.00000000000E+00 -0.00000000000E+00 -0.25331009537E+02  0.25331009537E+02  0.00000000000E+00 0.  1.
         25    2    1    2    0    0 -0.11577787403E+02  0.14130584351E+03  0.78079756518E+03  0.80336373581E+03  0.12508823948E+03 0.  0.
          5    1    3    3  502    0 -0.63784050066E+02  0.10829205541E+03  0.56735967129E+03  0.58112825032E+03  0.41800000000E+01 0. -1.
         -5    1    3    3    0  502  0.52206262663E+02  0.33013788100E+02  0.21343789389E+03  0.22223548550E+03  0.41800000000E+01 0. -1.
        -11    1    1    2    0    0  0.41521266402E+01 -0.43872835559E+02  0.46248731137E+02  0.63882791011E+02  0.00000000000E+00 0.  1.
         11    1    1    2    0    0  0.74256607628E+01 -0.97433007946E+02  0.45111227362E+03  0.46157406219E+03  0.00000000000E+00 0. -1.
</event>
<event>
 7    1  0.2841804E-009  0.1047813E+03  0.7561462E-02  0.1270551E+00
         -2   -1    0    0    0  501 -0.00000000000E+00  0.00000000000E+00  0.20618341659E+03  0.20618341659E+03  0.00000000000E+00 0.  1.
          2   -1    0    0  501    0  0.00000000000E+00 -0.00000000000E+00 -0.66950533164E+02  0.66950533164E+02  0.00000000000E+00 0. -1.
         25    2    1    2    0    0  0.48479019468E+01  0.37898615866E+02  0.10032391328E+03  0.16483849981E+03  0.12508811376E+03 0.  0.
          5    1    3    3  502    0  0.49263094968E+02 -0.18811099610E+02  0.66989347813E+02  0.85356634861E+02  0.41800000000E+01 0. -1.
         -5    1    3    3    0  502 -0.44415193022E+02  0.56709715477E+02  0.33334565470E+02  0.79481864948E+02  0.41800000000E+01 0. -1.
        -11    1    1    2    0    0  0.32633876744E+02 -0.21339230699E+01  0.45539290605E+02  0.56065591300E+02  0.00000000000E+00 0.  1.
         11    1    1    2    0    0 -0.37481778691E+02 -0.35764692796E+02 -0.66303204618E+01  0.52229858645E+02  0.00000000000E+00 0. -1.
</event>
<event>
 7    1  0.2841804E-009  0.1424915E+03  0.7561462E-02  0.1210015E+00
          1   -1    0    0  501    0  0.00000000000E+00  0.00000000000E+00  0.44905623974E+03  0.44905623974E+03  0.00000000000E+00 0. -1.
         -1   -1    0    0    0  501 -0.00000000000E+00 -0.00000000000E+00 -0.60151426599E+02  0.60151426599E+02  0.00000000000E+00 0.  1.
         25    2    1    2    0    0  0.10983999859E+02  0.10859814070E+03  0.29683457095E+03  0.34010702233E+03  0.12509124553E+03 0.  0.
          5    1    3    3  502    0 -0.19684080071E+02 -0.99728688881E+01  0.13633979570E+03  0.13817718123E+03  0.41800000000E+01 0. -1.
         -5    1    3    3    0  502  0.30668079930E+02  0.11857100959E+03  0.16049477525E+03  0.20192984109E+03  0.41800000000E+01 0. -1.
        -11    1    1    2    0    0 -0.46019675857E+02 -0.32909871213E+02  0.24047236836E+02  0.61474708529E+02  0.00000000000E+00 0.  1.
         11    1    1    2    0    0  0.35035675999E+02 -0.75688269487E+02  0.68023005352E+02  0.10762593548E+03  0.00000000000E+00 0. -1.
</event>
<event>
 7    1  0.2841804E-009  0.1450237E+03  0.7561462E-02  0.1206725E+00
          1   -1    0    0  501    0  0.00000000000E+00  0.00000000000E+00  0.24086181723E+03  0.24086181723E+03  0.00000000000E+00 0. -1.
         -1   -1    0    0    0  501 -0.00000000000E+00 -0.00000000000E+00 -0.12054605939E+03  0.12054605939E+03  0.00000000000E+00 0.  1.
         25    2    1    2    0    0 -0.53184268355E+02  0.11332114430E+03  0.22390447669E+02  0.17837636859E+03  0.12508616462E+03 0.  0.
          5    1    3    3  502    0 -0.18701159392E+02  0.93608586463E+02 -0.40578526658E+02  0.10380939287E+03  0.41800000000E+01 0.  1.
         -5    1    3    3    0  502 -0.34483108964E+02  0.19712557834E+02  0.62968974327E+02  0.74566975719E+02  0.41800000000E+01 0.  1.
        -11    1    1    2    0    0 -0.29702078287E+01 -0.95639863489E+02  0.57863436412E+02  0.11182120951E+03  0.00000000000E+00 0. -1.
         11    1    1    2    0    0  0.56154476184E+02 -0.17681280809E+02  0.40061873760E+02  0.71210298523E+02  0.00000000000E+00 0.  1.
</event>
<event>
 7    1  0.2841804E-009  0.1547029E+03  0.7561462E-02  0.1194810E+00
          1   -1    0    0  501    0  0.00000000000E+00  0.00000000000E+00  0.13527146863E+04  0.13527146863E+04  0.00000000000E+00 0. -1.
         -1   -1    0    0    0  501 -0.00000000000E+00 -0.00000000000E+00 -0.23450095386E+02  0.23450095386E+02  0.00000000000E+00 0.  1.
         25    2    1    2    0    0 -0.56703192702E+01  0.14234656787E+03  0.77307795407E+03  0.79598448550E+03  0.12508828960E+03 0.  0.
          5    1    3    3  502    0  0.12705404888E+02  0.12893655143E+03  0.36649689223E+03  0.38874606882E+03  0.41800000000E+01 0.  1.
         -5    1    3    3    0  502 -0.18375724158E+02  0.13410016433E+02  0.40658106184E+03  0.40723841668E+03  0.41800000000E+01 0.  1.
        -11    1    1    2    0    0  0.31505942930E+02 -0.11409161496E+03  0.32579874682E+03  0.34663286698E+03  0.00000000000E+00 0.  1.
         11    1    1    2    0    0 -0.25835623660E+02 -0.28254952907E+02  0.23038789002E+03  0.23354742919E+03  0.00000000000E+00 0. -1.
</event>
<event>
 7    1  0.2841804E-009  0.1288133E+03  0.7561462E-02  0.1229227E+00
          2   -1    0    0  501    0  0.00000000000E+00  0.00000000000E+00  0.14226989843E+03  0.14226989843E+03  0.00000000000E+00 0.  1.
         -2   -1    0    0    0  501 -0.00000000000E+00 -0.00000000000E+00 -0.13661968287E+03  0.13661968287E+03  0.00000000000E+00 0. -1.
         25    2    1    2    0    0  0.34988652754E+02  0.79950541309E+02  0.54910956632E+01  0.15262482248E+03  0.12509152420E+03 0.  0.
          5    1    3    3  502    0 -0.37696194290E+02  0.56196253067E+02 -0.21969439296E+02  0.71268159691E+02  0.41800000000E+01 0. -1.
         -5    1    3    3    0  502  0.72684847043E+02  0.23754288241E+02  0.27460534960E+02  0.81356662787E+02  0.41800000000E+01 0. -1.
        -11    1    1    2    0    0 -0.37615783450E+02 -0.46516528320E+01 -0.26604827606E+02  0.46307687165E+02  0.00000000000E+00 0. -1.
         11    1    1    2    0    0  0.26271306966E+01 -0.75298888477E+02  0.26763947507E+02  0.79957071655E+02  0.00000000000E+00 0.  1.
</event>
<event>
 7    1  0.2841804E-009  0.7460953E+02  0.7561462E-02  0.1345084E+00
         -1   -1    0    0    0  501 -0.00000000000E+00  0.00000000000E+00  0.61274300703E+02  0.61274300703E+02  0.00000000000E+00 0.  1.
          1   -1    0    0  501    0  0.00000000000E+00 -0.00000000000E+00 -0.20330139492E+03  0.20330139492E+03  0.00000000000E+00 0. -1.
         25    2    1    2    0    0  0.17055028428E+02 -0.13568070835E+02 -0.90695017116E+02  0.15603621456E+03  0.12508696009E+03 0.  0.
          5    1    3    3  502    0 -0.28355769674E+02  0.20556107626E+02 -0.92556143519E+02  0.99049055208E+02  0.41800000000E+01 0. -1.
         -5    1    3    3    0  502  0.45410798101E+02 -0.34124178461E+02  0.18611264036E+01  0.56987159354E+02  0.41800000000E+01 0. -1.
        -11    1    1    2    0    0  0.12524846627E+02  0.22791571500E+02 -0.68391443178E+02  0.73169098767E+02  0.00000000000E+00 0. -1.
         11    1    1    2    0    0 -0.29579875055E+02 -0.92235006650E+01  0.17059366075E+02  0.35370382295E+02  0.00000000000E+00 0.  1.
</event>
<event>
 7    1  0.2841804E-009  0.4037028E+03  0.7561462E-02  0.1042505E+00
          1   -1    0    0  501    0  0.00000000000E+00  0.00000000000E+00  0.52736239092E+03  0.52736239092E+03  0.00000000000E+00 0. -1.
         -1   -1    0    0    0  501 -0.00000000000E+00 -0.00000000000E+00 -0.42325755620E+03  0.42325755620E+03  0.00000000000E+00 0.  1.
         25    2    1    2    0    0 -0.21775607385E+03 -0.33637648008E+03  0.27859606652E+03  0.50381533130E+03  0.12508907118E+03 0.  0.
          5    1    3    3  502    0 -0.40889463841E+02 -0.11004519355E+03  0.23863030244E+02  0.11986996909E+03  0.41800000000E+01 0. -1.
         -5    1    3    3    0  502 -0.17686661001E+03 -0.22633128653E+03  0.25473303627E+03  0.38394536222E+03  0.41800000000E+01 0. -1.
        -11    1    1    2    0    0  0.13489484131E+03  0.17204955751E+03 -0.48987082089E+02  0.22404776871E+03  0.00000000000E+00 0. -1.
         11    1    1    2    0    0  0.82861232533E+02  0.16432692257E+03 -0.12550414971E+03  0.22275684710E+03  0.00000000000E+00 0.  1.
</event>
<event>
 7    1  0.2841804E-009  0.1093316E+03  0.7561462E-02  0.1261813E+00
          2   -1    0    0  501    0  0.00000000000E+00  0.00000000000E+00  0.60261980119E+03  0.60261980119E+03  0.00000000000E+00 0. -1.
         -2   -1    0    0    0  501 -0.00000000000E+00 -0.00000000000E+00 -0.34184620825E+02  0.34184620825E+02  0.00000000000E+00 0.  1.
         25    2    1    2    0    0  0.68025784883E+02 -0.29238780089E+01  0.45451533881E+03  0.47630750090E+03  0.12509430733E+03 0.  0.
          5    1    3    3  502    0  0.58245315151E+02 -0.39449705133E+02  0.41687850580E+03  0.42279304272E+03  0.41800000000E+01 0. -1.
         -5    1    3    3    0  502  0.97804697323E+01  0.36525827124E+02  0.37636833012E+02  0.53514458182E+02  0.41800000000E+01 0. -1.
        -11    1    1    2    0    0  0.14190587804E+02  0.21593602912E+02  0.12783969795E+02  0.28828568342E+02  0.00000000000E+00 0.  1.
         11    1    1    2    0    0 -0.82216372687E+02 -0.18669724903E+02  0.10113587176E+03  0.13166835277E+03  0.00000000000E+00 0. -1.
</event>
<event>
 7    1  0.2841804E-009  0.2031884E+03  0.7561462E-02  0.1147077E+00
         -2   -1    0    0    0  501 -0.00000000000E+00  0.00000000000E+00  0.34789989560E+02  0.34789989560E+02  0.00000000000E+00 0.  1.
          2   -1    0    0  501    0  0.00000000000E+00 -0.00000000000E+00 -0.16460888046E+04  0.16460888046E+04  0.00000000000E+00 0. -1.
         25    2    1    2    0    0  0.10967885787E+03 -0.14765851037E+03 -0.10737194232E+04  0.10965186894E+04  0.12508936388E+03 0.  0.
          5    1    3    3  502    0  0.10206446201E+03 -0.16808918813E+03 -0.10117570074E+04  0.10306992015E+04  0.41800000000E+01 0. -1.
         -5    1    3    3    0  502  0.76143958654E+01  0.20430677758E+02 -0.61962415845E+02  0.65819487961E+02  0.41800000000E+01 0. -1.
        -11    1    1    2    0    0 -0.10538626978E+03  0.12091174943E+03 -0.53334692767E+03  0.55694242275E+03  0.00000000000E+00 0. -1.
         11    1    1    2    0    0 -0.42925880889E+01  0.26746760944E+02 -0.42324641981E+01  0.27417682007E+02  0.00000000000E+00 0.  1.
</event>
<event>
 7    1  0.2841804E-009  0.1600931E+03  0.7561462E-02  0.1188592E+00
         -1   -1    0    0    0  501 -0.00000000000E+00  0.00000000000E+00  0.66409807736E+02  0.66409807736E+02  0.00000000000E+00 0.  1.
          1   -1    0    0  501    0  0.00000000000E+00 -0.00000000000E+00 -0.51404948666E+03  0.51404948666E+03  0.00000000000E+00 0. -1.
         25    2    1    2    0    0 -0.60192479835E+02  0.13662446847E+03 -0.23394587340E+03  0.30441287056E+03  0.12508854491E+03 0.  0.
          5    1    3    3  502    0 -0.16808540858E+02  0.86140140834E+02 -0.34989165563E+02  0.94574653134E+02  0.41800000000E+01 0.  1.
         -5    1    3    3    0  502 -0.43383938976E+02  0.50484327634E+02 -0.19895670784E+03  0.20983821742E+03  0.41800000000E+01 0.  1.
        -11    1    1    2    0    0  0.76074052039E+02 -0.12337531162E+03 -0.20980166938E+03  0.25500092036E+03  0.00000000000E+00 0.  1.
         11    1    1    2    0    0 -0.15881572204E+02 -0.13249156846E+02 -0.38921361444E+01  0.21045503477E+02  0.00000000000E+00 0. -1.
</event>
<event>
 7    1  0.2841804E-009  0.8018388E+02  0.7561462E-02  0.1328530E+00
         -1   -1    0    0    0  501 -0.00000000000E+00  0.00000000000E+00  0.20868674770E+03  0.20868674770E+03  0.00000000000E+00 0.  1.
          1   -1    0    0  501    0  0.00000000000E+00 -0.00000000000E+00 -0.56406009451E+02  0.56406009451E+02  0.00000000000E+00 0. -1.
         25    2    1    2    0    0  0.27919084793E+01  0.22372252624E+02  0.99511333761E+02  0.16142116013E+03  0.12508386366E+03 0.  0.
          5    1    3    3  502    0 -0.39227529080E+02 -0.27366757061E+02  0.74557191492E+01  0.48588049742E+02  0.41800000000E+01 0.  1.
         -5    1    3    3    0  502  0.42019437559E+02  0.49739009685E+02  0.92055614612E+02  0.11283311038E+03  0.41800000000E+01 0.  1.
        -11    1    1    2    0    0 -0.81591397648E+01  0.10783006295E+02  0.66149701418E+02  0.67517610918E+02  0.00000000000E+00 0.  1.
         11    1    1    2    0    0  0.53672312855E+01 -0.33155258918E+02 -0.13380296929E+02  0.36153986108E+02  0.00000000000E+00 0. -1.
</event>
<event>
 7    1  0.2841804E-009  0.1822164E+03  0.7561462E-02  0.1165675E+00
          2   -1    0    0  501    0  0.00000000000E+00  0.00000000000E+00  0.15173713735E+04  0.15173713735E+04  0.00000000000E+00 0. -1.
         -2   -1    0    0    0  501 -0.00000000000E+00 -0.00000000000E+00 -0.23417485688E+02  0.23417485688E+02  0.00000000000E+00 0.  1.
         25    2    1    2    0    0  0.14572050982E+03 -0.23297372037E+02  0.60179830969E+03  0.63212833472E+03  0.12509113273E+03 0.  0.
          5    1    3    3  502    0  0.10603971087E+03  0.43513094632E+02  0.38854206046E+03  0.40511753213E+03  0.41800000000E+01 0.  1.
         -5    1    3    3    0  502  0.39680798947E+02 -0.66810466669E+02  0.21325624923E+03  0.22701080260E+03  0.41800000000E+01 0.  1.
        -11    1    1    2    0    0 -0.13843327337E+03 -0.90800054011E+01  0.74528989959E+03  0.75809184938E+03  0.00000000000E+00 0.  1.
         11    1    1    2    0    0 -0.72872364549E+01  0.32377377438E+02  0.14686567857E+03  0.15056867512E+03  0.00000000000E+00 0. -1.
</event>
<event>
 7    1  0.4574291E-009  0.8594215E+02  0.7561462E-02  0.1312987E+00
          3   -1    0    0  501    0  0.00000000000E+00  0.00000000000E+00  0.34530562781E+03  0.34530562781E+03  0.00000000000E+00 0. -1.
         -3   -1    0    0    0  501 -0.00000000000E+00 -0.00000000000E+00 -0.42728009863E+02  0.42728009863E+02  0.00000000000E+00 0.  1.
         25    2    1    2    0    0  0.41298353661E+01  0.10856670832E+01  0.25825265982E+03  0.28700142924E+03  0.12512853338E+03 0.  0.
          5    1    3    3  502    0 -0.55660992824E+02  0.24182562649E+02  0.13233790153E+03  0.14564935647E+03  0.41800000000E+01 0. -1.
         -5    1    3    3    0  502  0.59790828190E+02 -0.23096895566E+02  0.12591475829E+03  0.14135207277E+03  0.41800000000E+01 0. -1.
        -11    1    1    2    0    0 -0.25222673175E+02  0.27823237405E+01 -0.20582743669E+02  0.32673749470E+02  0.00000000000E+00 0.  1.
         11    1    1    2    0    0  0.21092837809E+02 -0.38679908237E+01  0.64907701799E+02  0.68358458970E+02  0.00000000000E+00 0. -1.
</event>
<event>
 7    1  0.2841804E-009  0.1118026E+03  0.7561462E-02  0.1257268E+00
          2   -1    0    0  501    0  0.00000000000E+00  0.00000000000E+00  0.13545914728E+04  0.13545914728E+04  0.00000000000E+00 0.  1.
         -2   -1    0    0    0  501 -0.00000000000E+00 -0.00000000000E+00 -0.23011936353E+02  0.23011936353E+02  0.00000000000E+00 0. -1.
         25    2    1    2    0    0  0.26257438670E+02  0.82180828959E+02  0.11289669583E+04  0.11391490824E+04  0.12510434609E+03 0.  0.
          5    1    3    3  502    0 -0.13707927459E+02  0.62707568892E+02  0.10105127672E+04  0.10125579843E+04  0.41800000000E+01 0.  1.
         -5    1    3    3    0  502  0.39965366129E+02  0.19473260067E+02  0.11845419106E+03  0.12659109814E+03  0.41800000000E+01 0.  1.
        -11    1    1    2    0    0 -0.44673011004E+02 -0.84974194444E+02  0.11952878274E+03  0.15330825658E+03  0.00000000000E+00 0.  1.
         11    1    1    2    0    0  0.18415572334E+02  0.27933654850E+01  0.83083795396E+02  0.85146070094E+02  0.00000000000E+00 0. -1.
</event>
<event>
 7    1  0.2841804E-009  0.1399332E+03  0.7561462E-02  0.1213419E+00
         -1   -1    0    0    0  501 -0.00000000000E+00  0.00000000000E+00  0.22751819562E+02  0.22751819562E+02  0.00000000000E+00 0.  1.
          1   -1    0    0  501    0  0.00000000000E+00 -0.00000000000E+00 -0.89704090703E+03  0.89704090703E+03  0.00000000000E+00 0. -1.
         25    2    1    2    0    0 -0.86698755382E+02 -0.27529071891E+02 -0.53354118586E+03  0.55550739197E+03  0.12509093309E+03 0.  0.
          5    1    3    3  502    0 -0.11687641406E+03 -0.32146349417E+02 -0.37936921729E+03  0.39828627816E+03  0.41800000000E+01 0.  1.
         -5    1    3    3    0  502  0.30177658677E+02  0.46172775263E+01 -0.15417196857E+03  0.15722111381E+03  0.41800000000E+01 0.  1.
        -11    1    1    2    0    0 -0.80905886322E+01  0.31864524241E+02 -0.68627570672E+02  0.76095656813E+02  0.00000000000E+00 0.  1.
         11    1    1    2    0    0  0.94789344015E+02 -0.43354523500E+01 -0.27212033093E+03  0.28818967780E+03  0.00000000000E+00 0. -1.
</event>
<event>
 7    1  0.2841804E-009  0.1268413E+03  0.7561462E-02  0.1232219E+00
         -2   -1    0    0    0  501 -0.00000000000E+00  0.00000000000E+00  0.12761627529E+03  0.12761627529E+03  0.00000000000E+00 0.  1.
          2   -1    0    0  501    0  0.00000000000E+00 -0.00000000000E+00 -0.14922893589E+03  0.14922893589E+03  0.00000000000E+00 0. -1.
         25    2    1    2    0    0 -0.49894207759E+02  0.65496392918E+02  0.82881130864E+01  0.14998509471E+03  0.12509047271E+03 0.  0.
          5    1    3    3  502    0  0.79406494350E+01 -0.32825050440E+02 -0.72281054140E+01  0.34788730326E+02  0.41800000000E+01 0.  1.
         -5    1    3    3    0  502 -0.57834857194E+02  0.98321443358E+02  0.15516218500E+02  0.11519636438E+03  0.41800000000E+01 0.  1.
        -11    1    1    2    0    0  0.58296360306E+02 -0.23792674386E+02  0.15291045734E+02  0.64794853645E+02  0.00000000000E+00 0.  1.
         11    1    1    2    0    0 -0.84021525465E+01 -0.41703718533E+02 -0.45191819415E+02  0.62065262820E+02  0.00000000000E+00 0. -1.
</event>
<event>
 7    1  0.2841804E-009  0.9534921E+02  0.7561462E-02  0.1290392E+00
         -1   -1    0    0    0  501 -0.00000000000E+00  0.00000000000E+00  0.60232639646E+02  0.60232639646E+02  0.00000000000E+00 0.  1.
          1   -1    0    0  501    0  0.00000000000E+00 -0.00000000000E+00 -0.16402073518E+03  0.16402073518E+03  0.00000000000E+00 0. -1.
         25    2    1    2    0    0  0.14590072786E+02  0.28335255069E+02 -0.58486067626E+02  0.14171526703E+03  0.12508732909E+03 0.  0.
          5    1    3    3  502    0 -0.52198169432E+02  0.13936523587E+01 -0.64762226124E+01  0.52782620419E+02  0.41800000000E+01 0.  1.
         -5    1    3    3    0  502  0.66788242218E+02  0.26941602710E+02 -0.52009845014E+02  0.88932646612E+02  0.41800000000E+01 0.  1.
        -11    1    1    2    0    0 -0.29672077345E+02 -0.38038077181E+02 -0.42683619272E+02  0.64414430400E+02  0.00000000000E+00 0. -1.
         11    1    1    2    0    0  0.15082004559E+02  0.97028221121E+01 -0.26184086340E+01  0.18123677393E+02  0.00000000000E+00 0.  1.
</event>
<event>
 7    1  0.2841804E-009  0.9650137E+02  0.7561462E-02  0.1287830E+00
         -4   -1    0    0    0  501 -0.00000000000E+00  0.00000000000E+00  0.10742565869E+03  0.10742565869E+03  0.00000000000E+00 0.  1.
          4   -1    0    0  501    0  0.00000000000E+00 -0.00000000000E+00 -0.12501416518E+03  0.12501416518E+03  0.00000000000E+00 0. -1.
         25    2    1    2    0    0 -0.25909130259E+02 -0.77102377774E+01  0.20383220012E+02  0.12959095059E+03  0.12509039939E+03 0.  0.
          5    1    3    3  502    0 -0.57862002423E+02  0.39799278884E+02  0.74596280413E+01  0.70746818830E+02  0.41800000000E+01 0.  1.
         -5    1    3    3    0  502  0.31952872164E+02 -0.47509516661E+02  0.12923591971E+02  0.58844131758E+02  0.41800000000E+01 0.  1.
        -11    1    1    2    0    0  0.44536096322E+02 -0.12915042062E+01  0.14169268519E+02  0.46753609797E+02  0.00000000000E+00 0.  1.
         11    1    1    2    0    0 -0.18626966062E+02  0.90017419836E+01 -0.52140995018E+02  0.56095263480E+02  0.00000000000E+00 0. -1.
</event>
<event>
 7    1  0.2841804E-009  0.6341276E+02  0.7561462E-02  0.1384044E+00
         -2   -1    0    0    0  501 -0.00000000000E+00  0.00000000000E+00  0.17731718599E+02  0.17731718599E+02  0.00000000000E+00 0.  1.
          2   -1    0    0  501    0  0.00000000000E+00 -0.00000000000E+00 -0.91859129476E+03  0.91859129476E+03  0.00000000000E+00 0. -1.
         25    2    1    2    0    0 -0.50487024884E+02  0.78829675678E+01 -0.66193203377E+03  0.67558395883E+03  0.12509431338E+03 0.  0.
          5    1    3    3  502    0 -0.37403628257E+02  0.42326366351E+01 -0.46430449624E+02  0.59918325009E+02  0.41800000000E+01 0. -1.
         -5    1    3    3    0  502 -0.13083396627E+02  0.36503309327E+01 -0.61550158414E+03  0.61566563382E+03  0.41800000000E+01 0. -1.
        -11    1    1    2    0    0 -0.11530266938E+02  0.26597435488E+01  0.17629283377E+01  0.11963661970E+02  0.00000000000E+00 0.  1.
         11    1    1    2    0    0  0.62017291821E+02 -0.10542711117E+02 -0.24069047074E+03  0.24877539256E+03  0.00000000000E+00 0. -1.
</event>
<event>
 7    1  0.2841804E-009  0.7584843E+02  0.7561462E-02  0.1341264E+00
          2   -1    0    0  501    0  0.00000000000E+00  0.00000000000E+00  0.50234916678E+03  0.50234916678E+03  0.00000000000E+00 0. -1.
         -2   -1    0    0    0  501 -0.00000000000E+00 -0.00000000000E+00 -0.28902929640E+02  0.28902929640E+02  0.00000000000E+00 0.  1.
         25    2    1    2    0    0  0.85582320316E+00  0.16849940318E+02  0.37945656103E+03  0.39989861032E+03  0.12508782475E+03 0.  0.
          5    1    3    3  502    0 -0.21325564847E+02  0.54375051765E+02  0.91511712585E+02  0.10864295610E+03  0.41800000000E+01 0.  1.
         -5    1    3    3    0  502  0.22181388050E+02 -0.37525111447E+02  0.28794484845E+03  0.29125565422E+03  0.41800000000E+01 0.  1.
        -11    1    1    2    0    0  0.17188672074E+02  0.77384864889E+01 -0.11135338842E+02  0.21893615324E+02  0.00000000000E+00 0.  1.
         11    1    1    2    0    0 -0.18044495278E+02 -0.24588426807E+02  0.10512501495E+03  0.10945987077E+03  0.00000000000E+00 0. -1.
</event>
<event>
 7    1  0.2841804E-009  0.9765496E+02  0.7561462E-02  0.1285306E+00
          3   -1    0    0  501    0  0.00000000000E+00  0.00000000000E+00  0.67090950063E+02  0.67090950063E+02  0.00000000000E+00 0.  1.
         -3   -1    0    0    0  501 -0.00000000000E+00 -0.00000000000E+00 -0.24751212220E+03  0.24751212220E+03  0.00000000000E+00 0. -1.
         25    2    1    2    0    0 -0.15801882796E+02 -0.67207456984E+02 -0.10034513335E+03  0.17459730112E+03  0.12509408458E+03 0.  0.
          5    1    3    3  502    0 -0.35718706509E+01 -0.77859491727E+02 -0.12345299932E+03  0.14605811909E+03  0.41800000000E+01 0. -1.
         -5    1    3    3    0  502 -0.12230012145E+02  0.10652034743E+02  0.23107865965E+02  0.28539182026E+02  0.41800000000E+01 0. -1.
        -11    1    1    2    0    0  0.44519820039E+02  0.50343207769E+02 -0.18020912937E+02  0.69578777281E+02  0.00000000000E+00 0.  1.
         11    1    1    2    0    0 -0.28717937243E+02  0.16864249215E+02 -0.62055125848E+02  0.70426993866E+02  0.00000000000E+00 0. -1.
</event>
<event>
 7    1  0.2841804E-009  0.1075929E+03  0.7561462E-02  0.1265094E+00
          1   -1    0    0  501    0  0.00000000000E+00  0.00000000000E+00  0.17768885838E+03  0.17768885838E+03  0.00000000000E+00 0. -1.
         -1   -1    0    0    0  501 -0.00000000000E+00 -0.00000000000E+00 -0.75235010767E+02  0.75235010767E+02  0.00000000000E+00 0.  1.
         25    2    1    2    0    0 -0.18908267056E+02 -0.31566241903E+02  0.54640340525E+02  0.14137005748E+03  0.12508387645E+03 0.  0.
          5    1    3    3  502    0  0.47139303870E+02  0.11970526465E+02  0.34064175104E+02  0.59525187095E+02  0.41800000000E+01 0. -1.
         -5    1    3    3    0  502 -0.66047570926E+02 -0.43536768368E+02  0.20576165421E+02  0.81844870387E+02  0.41800000000E+01 0. -1.
        -11    1    1    2    0    0 -0.20366862898E+02  0.41861126276E+02 -0.28362418145E+01  0.46639117327E+02  0.00000000000E+00 0.  1.
         11    1    1    2    0    0  0.39275129954E+02 -0.10294884373E+02  0.50649748903E+02  0.64914694339E+02  0.00000000000E+00 0. -1.
</event>
<event>
 7    1  0.2841804E-009  0.1198541E+03  0.7561462E-02  0.1243338E+00
          2   -1    0    0  501    0  0.00000000000E+00  0.00000000000E+00  0.74216286561E+02  0.74216286561E+02  0.00000000000E+00 0. -1.
         -2   -1    0    0    0  501 -0.00000000000E+00 -0.00000000000E+00 -0.30551378645E+03  0.30551378645E+03  0.00000000000E+00 0.  1.
         25    2    1    2    0    0 -0.54434567037E+02  0.23920475155E+02 -0.17591102384E+02  0.13961419908E+03  0.12508943393E+03 0.  0.
          5    1    3    3  502    0 -0.87266613057E+02  0.37422234825E+02 -0.33109405720E+02  0.10064586708E+03  0.41800000000E+01 0.  1.
         -5    1    3    3    0  502  0.32832046020E+02 -0.13501759671E+02  0.15518303336E+02  0.38968331995E+02  0.41800000000E+01 0.  1.
        -11    1    1    2    0    0  0.16567877095E+02  0.35089597733E+02 -0.88048829972E+02  0.96220428599E+02  0.00000000000E+00 0.  1.
         11    1    1    2    0    0  0.37866689942E+02 -0.59010072887E+02 -0.12565756753E+03  0.14389544533E+03  0.00000000000E+00 0. -1.
</event>
<event>
 7    1  0.2841804E-009  0.8575140E+02  0.7561462E-02  0.1313479E+00
         -2   -1    0    0    0  501 -0.00000000000E+00  0.00000000000E+00  0.20101496497E+03  0.20101496497E+03  0.00000000000E+00 0.  1.
          2   -1    0    0  501    0  0.00000000000E+00 -0.00000000000E+00 -0.79928591299E+02  0.79928591299E+02  0.00000000000E+00 0. -1.
         25    2    1    2    0    0  0.31270918614E+02 -0.56449476980E+02  0.89942872046E+02  0.16704148277E+03  0.12509485573E+03 0.  0.
          5    1    3    3  502    0  0.11600414747E+02 -0.49799659545E+01  0.10807039120E+03  0.10888549736E+03  0.41800000000E+01 0. -1.
         -5    1    3    3    0  502  0.19670503868E+02 -0.51469511026E+02 -0.18127519150E+02  0.58155985403E+02  0.41800000000E+01 0. -1.
        -11    1    1    2    0    0 -0.44260160746E+02  0.70858999313E+02  0.39938678062E+02  0.92601606996E+02  0.00000000000E+00 0.  1.
         11    1    1    2    0    0  0.12989242131E+02 -0.14409522333E+02 -0.87951764337E+01  0.21300466509E+02  0.00000000000E+00 0. -1.
</event>
<event>
 7    1  0.2841804E-009  0.1870138E+03  0.7561462E-02  0.1161183E+00
          2   -1    0    0  501    0  0.00000000000E+00  0.00000000000E+00  0.17527840904E+03  0.17527840904E+03  0.00000000000E+00 0. -1.
         -2   -1    0    0    0  501 -0.00000000000E+00 -0.00000000000E+00 -0.30237448216E+03  0.30237448216E+03  0.00000000000E+00 0.  1.
         25    2    1    2    0    0  0.17739491782E+01  0.15832855210E+03  0.64537462890E+02  0.21185705907E+03  0.12508897654E+03 0.  0.
          5    1    3    3  502    0 -0.44329466282E+02  0.14766360448E+03  0.47290967704E+02  0.16131816294E+03  0.41800000000E+01 0. -1.
         -5    1    3    3    0  502  0.46103415460E+02  0.10664947621E+02  0.17246495187E+02  0.50538896120E+02  0.41800000000E+01 0. -1.
        -11    1    1    2    0    0  0.32024377021E+02 -0.98516966276E+02 -0.15892636317E+03  0.18970699059E+03  0.00000000000E+00 0.  1.
         11    1    1    2    0    0 -0.33798326199E+02 -0.59811585828E+02 -0.32707172842E+02  0.76088841550E+02  0.00000000000E+00 0. -1.
</event>
<event>
 7    1  0.2841804E-009  0.1482505E+03  0.7561462E-02  0.1202639E+00
          1   -1    0    0  501    0  0.00000000000E+00  0.00000000000E+00  0.33078336612E+03  0.33078336612E+03  0.00000000000E+00 0. -1.
         -1   -1    0    0    0  501 -0.00000000000E+00 -0.00000000000E+00 -0.82041004330E+02  0.82041004330E+02  0.00000000000E+00 0.  1.
         25    2    1    2    0    0 -0.24621264815E+02 -0.10659872642E+03  0.62751742417E+02  0.17764086146E+03  0.12509596048E+03 0.  0.
          5    1    3    3  502    0  0.85522399020E+00  0.28401988623E+02  0.98007049002E+01  0.30346838095E+02  0.41800000000E+01 0. -1.
         -5    1    3    3    0  502 -0.25476488806E+02 -0.13500071505E+03  0.52951037517E+02  0.14729402336E+03  0.41800000000E+01 0. -1.
        -11    1    1    2    0    0  0.22748976600E+02 -0.94932354009E+00  0.83718775446E+02  0.86759728640E+02  0.00000000000E+00 0. -1.
         11    1    1    2    0    0  0.18722882155E+01  0.10754804996E+03  0.10227184393E+03  0.14842378035E+03  0.00000000000E+00 0.  1.
</event>
<event>
 7    1  0.2841804E-009  0.1080165E+03  0.7561462E-02  0.1264288E+00
          1   -1    0    0  501    0  0.00000000000E+00  0.00000000000E+00  0.17136007258E+03  0.17136007258E+03  0.00000000000E+00 0. -1.
         -1   -1    0    0    0  501 -0.00000000000E+00 -0.00000000000E+00 -0.14670518027E+03  0.14670518027E+03  0.00000000000E+00 0.  1.
         25    2    1    2    0    0  0.14896286962E+02 -0.78681315527E+02  0.97337793601E+02  0.17757247466E+03  0.12507873087E+03 0.  0.
          5    1    3    3  502    0 -0.12346976419E+02 -0.62930194405E+02  0.12165314955E+03  0.13758494972E+03  0.41800000000E+01 0. -1.
         -5    1    3    3    0  502  0.27243263381E+02 -0.15751121122E+02 -0.24315355945E+02  0.39987524942E+02  0.41800000000E+01 0. -1.
        -11    1    1    2    0    0  0.50821905519E+01  0.94439659856E+02 -0.53813314286E+02  0.10881429506E+03  0.00000000000E+00 0. -1.
         11    1    1    2    0    0 -0.19978477514E+02 -0.15758344330E+02 -0.18869587009E+02  0.31678483134E+02  0.00000000000E+00 0.  1.
</event>
<event>
 7    1  0.2841804E-009  0.1094333E+03  0.7561462E-02  0.1261623E+00
         -2   -1    0    0    0  501 -0.00000000000E+00  0.00000000000E+00  0.53054821429E+02  0.53054821429E+02  0.00000000000E+00 0.  1.
          2   -1    0    0  501    0  0.00000000000E+00 -0.00000000000E+00 -0.28128304611E+03  0.28128304611E+03  0.00000000000E+00 0. -1.
         25    2    1    2    0    0 -0.54709646555E+02  0.11673122868E+01 -0.13832807079E+03  0.19436067573E+03  0.12508760554E+03 0.  0.
          5    1    3    3  502    0  0.12749046438E+02  0.48122197191E+02 -0.76744864673E+02  0.91572543381E+02  0.41800000000E+01 0. -1.
         -5    1    3    3    0  502 -0.67458692993E+02 -0.46954884904E+02 -0.61583206119E+02  0.10278813235E+03  0.41800000000E+01 0. -1.
        -11    1    1    2    0    0  0.58269514902E+02  0.22659276217E+02 -0.96514249154E+02  0.11499469316E+03  0.00000000000E+00 0. -1.
         11    1    1    2    0    0 -0.35598683474E+01 -0.23826588504E+02  0.66140952641E+01  0.24982498645E+02  0.00000000000E+00 0.  1.
</event>
<event>
 7    1  0.2841804E-009  0.8012969E+02  0.7561462E-02  0.1328684E+00
         -1   -1    0    0    0  501 -0.00000000000E+00  0.00000000000E+00  0.29209858558E+02  0.29209858558E+02  0.00000000000E+00 0.  1.
          1   -1    0    0  501    0  0.00000000000E+00 -0.00000000000E+00 -0.55414290518E+03  0.55414290518E+03  0.00000000000E+00 0. -1.
         25    2    1    2    0    0  0.16073373744E+02  0.57321932161E+02 -0.29721783629E+03  0.32791807671E+03  0.12509062943E+03 0.  0.
          5    1    3    3  502    0  0.26371009662E+02  0.45773109391E+02 -0.31355606912E+02  0.61573161188E+02  0.41800000000E+01 0. -1.
         -5    1    3    3    0  502 -0.10297635918E+02  0.11548822770E+02 -0.26586222938E+03  0.26634491552E+03  0.41800000000E+01 0. -1.
        -11    1    1    2    0    0  0.30674087055E+01 -0.68835310836E+02 -0.22190245016E+03  0.23235405398E+03  0.00000000000E+00 0. -1.
         11    1    1    2    0    0 -0.19140782449E+02  0.11513378675E+02 -0.58127601736E+01  0.23080633053E+02  0.00000000000E+00 0.  1.
</event>
<event>
 7    1  0.2841804E-009  0.1117962E+03  0.7561462E-02  0.1257279E+00
         -2   -1    0    0    0  501 -0.00000000000E+00  0.00000000000E+00  0.72553648293E+02  0.72553648293E+02  0.00000000000E+00 0.  1.
          2   -1    0    0  501    0  0.00000000000E+00 -0.00000000000E+00 -0.26772476339E+03  0.26772476339E+03  0.00000000000E+00 0. -1.
         25    2    1    2    0    0 -0.78873082277E+02  0.34902540304E+01 -0.14974126161E+03  0.21048036665E+03  0.12508554807E+03 0.  0.
          5    1    3    3  502    0 -0.10401031261E+03 -0.19114429339E+02 -0.13911687611E+03  0.17479841006E+03  0.41800000000E+01 0.  1.
         -5    1    3    3    0  502  0.25137230338E+02  0.22604683369E+02 -0.10624385502E+02  0.35681956596E+02  0.41800000000E+01 0.  1.
        -11    1    1    2    0    0  0.33837682992E+02  0.12250761530E+02  0.25649864172E+02  0.44192595311E+02  0.00000000000E+00 0.  1.
         11    1    1    2    0    0  0.45035399285E+02 -0.15741015561E+02 -0.71079717652E+02  0.85605449716E+02  0.00000000000E+00 0. -1.
</event>
<event>
 7    1  0.2841804E-009  0.1102664E+03  0.7561462E-02  0.1260077E+00
         -2   -1    0    0    0  501 -0.00000000000E+00  0.00000000000E+00  0.28485638301E+02  0.28485638301E+02  0.00000000000E+00 0.  1.
          2   -1    0    0  501    0  0.00000000000E+00 -0.00000000000E+00 -0.68480817781E+03  0.68480817781E+03  0.00000000000E+00 0. -1.
         25    2    1    2    0    0  0.11974495060E+01  0.67167471455E+02 -0.50119729328E+03  0.52092015732E+03  0.12508469292E+03 0.  0.
          5    1    3    3  502    0 -0.32900597653E+02  0.67392928581E+02 -0.14716425798E+03  0.16522423362E+03  0.41800000000E+01 0.  1.
         -5    1    3    3    0  502  0.34098047159E+02 -0.22545712566E+00 -0.35403303530E+03  0.35569592370E+03  0.41800000000E+01 0.  1.
        -11    1    1    2    0    0  0.43455040961E+02 -0.28206305195E+02 -0.93400808104E+02  0.10680658777E+03  0.00000000000E+00 0. -1.
         11    1    1    2    0    0 -0.44652490467E+02 -0.38961166260E+02 -0.61724438131E+02  0.85567071025E+02  0.00000000000E+00 0.  1.
</event>
<event>
 7    1  0.2841804E-009  0.1014391E+03  0.7561462E-02  0.1277299E+00
          2   -1    0    0  501    0  0.00000000000E+00  0.00000000000E+00  0.15497937746E+03  0.15497937746E+03  0.00000000000E+00 0. -1.
         -2   -1    0    0    0  501 -0.00000000000E+00 -0.00000000000E+00 -0.83957000319E+02  0.83957000319E+02  0.00000000000E+00 0.  1.
         25    2    1    2    0    0 -0.22734985073E+02 -0.23237244569E+02  0.65763636327E+02  0.14501290156E+03  0.12508811565E+03 0.  0.
          5    1    3    3  502    0  0.50099398701E+02 -0.25187747945E+02  0.26998588113E+02  0.62376025497E+02  0.41800000000E+01 0.  1.
         -5    1    3    3    0  502 -0.72834383774E+02  0.19505033762E+01  0.38765048214E+02  0.82636876067E+02  0.41800000000E+01 0.  1.
        -11    1    1    2    0    0  0.35686798147E+01 -0.23177848961E+02 -0.25810140124E+02  0.34872790127E+02  0.00000000000E+00 0.  1.
         11    1    1    2    0    0  0.19166305259E+02  0.46415093529E+02  0.31068880937E+02  0.59050686086E+02  0.00000000000E+00 0. -1.
</event>
<event>
 7    1  0.2841804E-009  0.1021031E+03  0.7561462E-02  0.1275935E+00
         -1   -1    0    0    0  501 -0.00000000000E+00  0.00000000000E+00  0.10809193301E+02  0.10809193301E+02  0.00000000000E+00 0.  1.
          1   -1    0    0  501    0  0.00000000000E+00 -0.00000000000E+00 -0.13119622732E+04  0.13119622732E+04  0.00000000000E+00 0. -1.
         25    2    1    2    0    0 -0.23554836198E+02 -0.37570552983E+02 -0.84504109038E+03  0.85539937223E+03  0.12508902755E+03 0.  0.
          5    1    3    3  502    0 -0.25163087831E+02 -0.68259268956E+02 -0.77941497167E+03  0.78281394932E+03  0.41800000000E+01 0. -1.
         -5    1    3    3    0  502  0.16082516331E+01  0.30688715973E+02 -0.65626118714E+02  0.72585422909E+02  0.41800000000E+01 0. -1.
        -11    1    1    2    0    0  0.30441644400E+02  0.65142209891E+02 -0.28586008839E+03  0.29476463722E+03  0.00000000000E+00 0.  1.
         11    1    1    2    0    0 -0.68868082023E+01 -0.27571656908E+02 -0.17025190110E+03  0.17260745703E+03  0.00000000000E+00 0. -1.
</event>
<event>
 7    1  0.2841804E-009  0.1360295E+03  0.7561462E-02  0.1218774E+00
          2   -1    0    0  501    0  0.00000000000E+00  0.00000000000E+00  0.49181121191E+02  0.49181121191E+02  0.00000000000E+00 0. -1.
         -2   -1    0    0    0  501 -0.00000000000E+00 -0.00000000000E+00 -0.59768001808E+03  0.59768001808E+03  0.00000000000E+00 0.  1.
         25    2    1    2    0    0  0.62120780230E+02 -0.11137054466E+03 -0.35282675670E+03  0.39547075842E+03  0.12509201002E+03 0.  0.
          5    1    3    3  502    0  0.70847947521E+02 -0.10534567346E+03 -0.16961791194E+03  0.21190764742E+03  0.41800000000E+01 0. -1.
         -5    1    3    3    0  502 -0.87271672914E+01 -0.60248711984E+01 -0.18320884476E+03  0.18356311100E+03  0.41800000000E+01 0. -1.
        -11    1    1    2    0    0 -0.11951257132E+02  0.62386451196E+02 -0.27560438221E+02  0.69242180749E+02  0.00000000000E+00 0. -1.
         11    1    1    2    0    0 -0.50169523098E+02  0.48984093465E+02 -0.16811170197E+03  0.18214820010E+03  0.00000000000E+00 0.  1.
</event>
<event>
 7    1  0.2841804E-009  0.1004048E+03  0.7561462E-02  0.1279447E+00
         -2   -1    0    0    0  501 -0.00000000000E+00  0.00000000000E+00  0.41593015225E+03  0.41593015225E+03  0.00000000000E+00 0.  1.
          2   -1    0    0  501    0  0.00000000000E+00 -0.00000000000E+00 -0.48814509581E+02  0.48814509581E+02  0.00000000000E+00 0. -1.
         25    2    1    2    0    0  0.67172066596E+02  0.24364450315E+02  0.29649779692E+03  0.32964619435E+03  0.12509978777E+03 0.  0.
          5    1    3    3  502    0  0.87365923603E+02 -0.10014189492E+02  0.12106213750E+03  0.14968835003E+03  0.41800000000E+01 0. -1.
         -5    1    3    3    0  502 -0.20193857007E+02  0.34378639807E+02  0.17543565942E+03  0.17995784432E+03  0.41800000000E+01 0. -1.
        -11    1    1    2    0    0 -0.51906177187E+02 -0.12609783136E+02  0.91958718850E+02  0.10634690326E+03  0.00000000000E+00 0.  1.
         11    1    1    2    0    0 -0.15265889409E+02 -0.11754667179E+02 -0.21340873106E+02  0.28751564216E+02  0.00000000000E+00 0. -1.
</event>
<event>
 7    1  0.3249867E-009  0.1155266E+03  0.7561462E-02  0.1250665E+00
         -1   -1    0    0    0  501 -0.00000000000E+00  0.00000000000E+00  0.50357046116E+03  0.50357046116E+03  0.00000000000E+00 0.  1.
          1   -1    0    0  501    0  0.00000000000E+00 -0.00000000000E+00 -0.56840371914E+02  0.56840371914E+02  0.00000000000E+00 0. -1.
         25    2    1    2    0    0  0.19902554570E+02 -0.10468373533E+03  0.35938083794E+03  0.39516718655E+03  0.12509085710E+03 0.  0.
          5    1    3    3  502    0 -0.13379658799E+02  0.48996050597E+00  0.20444611308E+03  0.20492667197E+03  0.41800000000E+01 0.  1.
         -5    1    3    3    0  502  0.33282213369E+02 -0.10517369583E+03  0.15493472486E+03  0.19024051459E+03  0.41800000000E+01 0.  1.
        -11    1    1    2    0    0 -0.13844416930E+02  0.62327969431E+02  0.10172900006E+03  0.12010509192E+03  0.00000000000E+00 0.  1.
         11    1    1    2    0    0 -0.60581376394E+01  0.42355765898E+02 -0.14379748754E+02  0.45138554592E+02  0.00000000000E+00 0. -1.
</event>
<event>
 7    1  0.2841804E-009  0.2118879E+03  0.7561462E-02  0.1140080E+00
         -2   -1    0    0    0  501 -0.00000000000E+00  0.00000000000E+00  0.26488900083E+02  0.26488900083E+02  0.00000000000E+00 0. -1.
          2   -1    0    0  501    0  0.00000000000E+00 -0.00000000000E+00 -0.17483071175E+04  0.17483071175E+04  0.00000000000E+00 0.  1.
         25    2    1    2    0    0 -0.73689661960E+02  0.16818128104E+03 -0.10117913737E+04  0.10358984144E+04  0.12509449086E+03 0.  0.
          5    1    3    3  502    0 -0.37298051505E+02 -0.11141266404E+02 -0.18053681437E+03  0.18473301330E+03  0.41800000000E+01 0.  1.
         -5    1    3    3    0  502 -0.36391610455E+02  0.17932254745E+03 -0.83125455930E+03  0.85116540113E+03  0.41800000000E+01 0.  1.
        -11    1    1    2    0    0  0.38968396025E+02 -0.16163608023E+03 -0.53118191615E+03  0.55659589144E+03  0.00000000000E+00 0.  1.
         11    1    1    2    0    0  0.34721265935E+02 -0.65452008167E+01 -0.17884492761E+03  0.18230171171E+03  0.00000000000E+00 0. -1.
</event>
<event>
 7    1  0.2841804E-009  0.1365169E+03  0.7561462E-02  0.1218094E+00
          4   -1    0    0  501    0  0.00000000000E+00  0.00000000000E+00  0.84423807835E+03  0.84423807835E+03  0.00000000000E+00 0. -1.
         -4   -1    0    0    0  501 -0.00000000000E+00 -0.00000000000E+00 -0.22291737387E+02  0.22291737387E+02  0.00000000000E+00 0.  1.
         25    2    1    2    0    0 -0.77560285040E+00  0.82834279806E+02  0.41994020472E+03  0.44593341921E+03  0.12507885254E+03 0.  0.
          5    1    3    3  502    0  0.48981751362E+02 -0.45466291882E+01  0.14084594927E+03  0.14924790661E+03  0.41800000000E+01 0. -1.
         -5    1    3    3    0  502 -0.49757354212E+02  0.87380908994E+02  0.27909425546E+03  0.29668551260E+03  0.41800000000E+01 0. -1.
        -11    1    1    2    0    0 -0.23282295377E+02  0.11288050132E+02  0.10320998368E+03  0.10640388191E+03  0.00000000000E+00 0.  1.
         11    1    1    2    0    0  0.24057898228E+02 -0.94122329938E+02  0.29879615256E+03  0.31419251462E+03  0.00000000000E+00 0. -1.
</event>
<event>
 7    1  0.2841804E-009  0.8919190E+02  0.7561462E-02  0.1304821E+00
          2   -1    0    0  501    0  0.00000000000E+00  0.00000000000E+00  0.40977808544E+03  0.40977808544E+03  0.00000000000E+00 0. -1.
         -2   -1    0    0    0  501 -0.00000000000E+00 -0.00000000000E+00 -0.21648626408E+02  0.21648626408E+02  0.00000000000E+00 0.  1.
         25    2    1    2    0    0  0.34460955914E+01 -0.48236388013E+02  0.25452353300E+03  0.28768694748E+03  0.12507168423E+03 0.  0.
          5    1    3    3  502    0 -0.98039679120E+01 -0.86714666961E+02  0.20875447518E+03  0.22629947980E+03  0.41800000000E+01 0. -1.
         -5    1    3    3    0  502  0.13250063503E+02  0.38478278948E+02  0.45769057827E+02  0.61387467679E+02  0.41800000000E+01 0. -1.
        -11    1    1    2    0    0  0.34738370680E+01  0.34988045418E+02  0.69173427249E+02  0.77596352386E+02  0.00000000000E+00 0.  1.
         11    1    1    2    0    0 -0.69199326594E+01  0.13248342595E+02  0.64432498779E+02  0.66143411980E+02  0.00000000000E+00 0. -1.
</event>
<event>
 7    1  0.2841804E-009  0.9017193E+02  0.7561462E-02  0.1302436E+00
         -2   -1    0    0    0  501 -0.00000000000E+00  0.00000000000E+00  0.11087487807E+03  0.11087487807E+03  0.00000000000E+00 0. -1.
          2   -1    0    0  501    0  0.00000000000E+00 -0.00000000000E+00 -0.11773557899E+03  0.11773557899E+03  0.00000000000E+00 0.  1.
         25    2    1    2    0    0 -0.19936566257E+02  0.21465288063E+02  0.21690612457E+02  0.13029165896E+03  0.12508880230E+03 0.  0.
          5    1    3    3  502    0 -0.43973127196E+02 -0.12783664569E+02 -0.36352178981E+02  0.58617500048E+02  0.41800000000E+01 0. -1.
         -5    1    3    3    0  502  0.24036560939E+02  0.34248952631E+02  0.58042791438E+02  0.71674158914E+02  0.41800000000E+01 0. -1.
        -11    1    1    2    0    0  0.43583228133E+02  0.17308279623E+02 -0.23991528030E+02  0.52675114952E+02  0.00000000000E+00 0.  1.
         11    1    1    2    0    0 -0.23646661876E+02 -0.38773567686E+02 -0.45597853511E+01  0.45643683149E+02  0.00000000000E+00 0. -1.
</event>
<event>
 7    1  0.2841804E-009  0.9967463E+02  0.7561462E-02  0.1280982E+00
         -2   -1    0    0    0  501 -0.00000000000E+00  0.00000000000E+00  0.45637944773E+02  0.45637944773E+02  0.00000000000E+00 0.  1.
          2   -1    0    0  501    0  0.00000000000E+00 -0.00000000000E+00 -0.29537254737E+03  0.29537254737E+03  0.00000000000E+00 0. -1.
         25    2    1    2    0    0 -0.14441881857E+02  0.38766014744E+02 -0.13947734116E+03  0.19186810340E+03  0.12509224019E+03 0.  0.
          5    1    3    3  502    0 -0.69419111396E+02  0.26059432704E+02 -0.67899012663E+02  0.10062730932E+03  0.41800000000E+01 0. -1.
         -5    1    3    3    0  502  0.54977229539E+02  0.12706582039E+02 -0.71578328498E+02  0.91240794086E+02  0.41800000000E+01 0. -1.
        -11    1    1    2    0    0  0.27162207099E+01  0.14095480068E+02  0.98397996680E+01  0.17403507428E+02  0.00000000000E+00 0.  1.
         11    1    1    2    0    0  0.11725661147E+02 -0.52861494812E+02 -0.12009706110E+03  0.13173888131E+03  0.00000000000E+00 0. -1.
</event>
<event>
 7    1  0.2841804E-009  0.1662533E+03  0.7561462E-02  0.1181812E+00
          1   -1    0    0  501    0  0.00000000000E+00  0.00000000000E+00  0.33856036787E+03  0.33856036787E+03  0.00000000000E+00 0. -1.
         -1   -1    0    0    0  501 -0.00000000000E+00 -0.00000000000E+00 -0.32285495270E+03  0.32285495270E+03  0.00000000000E+00 0.  1.
         25    2    1    2    0    0 -0.78441831699E+02  0.14168461904E+03 -0.25834714270E+03  0.32957353383E+03  0.12509123001E+03 0.  0.
          5    1    3    3  502    0 -0.14624388674E+02  0.19256025428E+02 -0.15534334506E+03  0.15726949645E+03  0.41800000000E+01 0. -1.
         -5    1    3    3    0  502 -0.63817443025E+02  0.12242859361E+03 -0.10300379765E+03  0.17230403738E+03  0.41800000000E+01 0. -1.
        -11    1    1    2    0    0  0.10883930961E+01 -0.49458601502E+02  0.25454821421E+02  0.55635292716E+02  0.00000000000E+00 0.  1.
         11    1    1    2    0    0  0.77353438602E+02 -0.92226017538E+02  0.24859773645E+03  0.27620649403E+03  0.00000000000E+00 0. -1.
</event>
<event>
 7    1  0.2841804E-009  0.1048029E+03  0.7561462E-02  0.1270508E+00
         -2   -1    0    0    0  501 -0.00000000000E+00  0.00000000000E+00  0.98585467703E+02  0.98585467703E+02  0.00000000000E+00 0.  1.
          2   -1    0    0  501    0  0.00000000000E+00 -0.00000000000E+00 -0.13331097857E+03  0.13331097857E+03  0.00000000000E+00 0. -1.
         25    2    1    2    0    0 -0.26237967750E+02 -0.24307648992E+02 -0.12118442007E+02  0.13067986397E+03  0.12510426635E+03 0.  0.
          5    1    3    3  502    0  0.24524276546E+02 -0.54558470892E+02 -0.32284288048E+02  0.68101501753E+02  0.41800000000E+01 0.  1.
         -5    1    3    3    0  502 -0.50762244295E+02  0.30250821900E+02  0.20165846041E+02  0.62578362220E+02  0.41800000000E+01 0.  1.
        -11    1    1    2    0    0  0.74093442627E+01  0.54401767812E+02 -0.33211757590E+02  0.64167527345E+02  0.00000000000E+00 0. -1.
         11    1    1    2    0    0  0.18828623487E+02 -0.30094118820E+02  0.10604688731E+02  0.37049054955E+02  0.00000000000E+00 0.  1.
</event>
<event>
 7    1  0.2841804E-009  0.1151536E+03  0.7561462E-02  0.1251313E+00
         -3   -1    0    0    0  501 -0.00000000000E+00  0.00000000000E+00  0.23174599775E+02  0.23174599775E+02  0.00000000000E+00 0.  1.
          3   -1    0    0  501    0  0.00000000000E+00 -0.00000000000E+00 -0.65988526985E+03  0.65988526985E+03  0.00000000000E+00 0. -1.
         25    2    1    2    0    0 -0.53889782669E+02 -0.13030184812E+02 -0.32958377011E+03  0.35685879373E+03  0.12509533462E+03 0.  0.
          5    1    3    3  502    0 -0.76877810604E+02  0.20829505361E+02 -0.28605333617E+03  0.29696472786E+03  0.41800000000E+01 0.  1.
         -5    1    3    3    0  502  0.22988027935E+02 -0.33859690173E+02 -0.43530433945E+02  0.59894065870E+02  0.41800000000E+01 0.  1.
        -11    1    1    2    0    0 -0.27208066294E+02  0.69620508850E+01 -0.93122339893E+02  0.97265200412E+02  0.00000000000E+00 0. -1.
         11    1    1    2    0    0  0.81097848963E+02  0.60681339270E+01 -0.21400456007E+03  0.22893587549E+03  0.00000000000E+00 0.  1.
</event>
<event>
 7    1  0.2841804E-009  0.1129679E+03  0.7561462E-02  0.1255170E+00
          2   -1    0    0  501    0  0.00000000000E+00  0.00000000000E+00  0.16397082003E+03  0.16397082003E+03  0.00000000000E+00 0. -1.
         -2   -1    0    0    0  501 -0.00000000000E+00 -0.00000000000E+00 -0.14052076575E+03  0.14052076575E+03  0.00000000000E+00 0.  1.
         25    2    1    2    0    0  0.21136155271E+02  0.58038450775E+02 -0.72394458795E+02  0.15717220542E+03  0.12508775186E+03 0.  0.
          5    1    3    3  502    0  0.46721120178E+01 -0.27505421872E+02  0.16464887156E+02  0.32664074641E+02  0.41800000000E+01 0. -1.
         -5    1    3    3    0  502  0.16464043253E+02  0.85543872647E+02 -0.88859345951E+02  0.12450813078E+03  0.41800000000E+01 0. -1.
        -11    1    1    2    0    0 -0.35668601992E+02  0.13028300124E+02  0.44219028329E+02  0.58286432714E+02  0.00000000000E+00 0. -1.
         11    1    1    2    0    0  0.14532446721E+02 -0.71066750899E+02  0.51625484751E+02  0.89032947648E+02  0.00000000000E+00 0.  1.
</event>
<event>
 7    1  0.2841804E-009  0.8376752E+02  0.7561462E-02  0.1318687E+00
         -1   -1    0    0    0  501 -0.00000000000E+00  0.00000000000E+00  0.49006307760E+02  0.49006307760E+02  0.00000000000E+00 0.  1.
          1   -1    0    0  501    0  0.00000000000E+00 -0.00000000000E+00 -0.24030651880E+03  0.24030651880E+03  0.00000000000E+00 0. -1.
         25    2    1    2    0    0  0.45865990776E+01  0.86240283939E+01 -0.10126858823E+03  0.16123957663E+03  0.12508982114E+03 0.  0.
          5    1    3    3  502    0  0.33358281326E+01 -0.56948859507E+02 -0.63410671825E+02  0.85397225070E+02  0.41800000000E+01 0.  1.
         -5    1    3    3    0  502  0.12507709451E+01  0.65572887900E+02 -0.37857916407E+02  0.75842351560E+02  0.41800000000E+01 0.  1.
        -11    1    1    2    0    0 -0.48449006880E+01  0.17670135152E+02  0.12528275400E+02  0.22196045221E+02  0.00000000000E+00 0.  1.
         11    1    1    2    0    0  0.25830161041E+00 -0.26294163546E+02 -0.10255989821E+03  0.10587720471E+03  0.00000000000E+00 0. -1.
</event>
<event>
 7    1  0.2841804E-009  0.9782076E+02  0.7561462E-02  0.1284946E+00
          2   -1    0    0  501    0  0.00000000000E+00  0.00000000000E+00  0.18572344418E+04  0.18572344418E+04  0.00000000000E+00 0. -1.
         -2   -1    0    0    0  501 -0.00000000000E+00 -0.00000000000E+00 -0.88833224433E+01  0.88833224433E+01  0.00000000000E+00 0.  1.
         25    2    1    2    0    0 -0.16395024372E+02  0.10476317610E+02  0.15188655969E+04  0.15241321005E+04  0.12508960138E+03 0.  0.
          5    1    3    3  502    0 -0.38994461924E+02 -0.38452426449E+02  0.37616522441E+03  0.38015379206E+03  0.41800000000E+01 0. -1.
         -5    1    3    3    0  502  0.22599437552E+02  0.48928744059E+02  0.11427003725E+04  0.11439783085E+04  0.41800000000E+01 0. -1.
        -11    1    1    2    0    0 -0.17288295162E+02  0.29618173682E+02  0.18839345836E+03  0.19148946842E+03  0.00000000000E+00 0.  1.
         11    1    1    2    0    0  0.33683319535E+02 -0.40094491292E+02  0.14109206411E+03  0.15049619530E+03  0.00000000000E+00 0. -1.
</event>
<event>
 7    1  0.2841804E-009  0.1350536E+03  0.7561462E-02  0.1220144E+00
         -2   -1    0    0    0  501 -0.00000000000E+00  0.00000000000E+00  0.53968931702E+02  0.53968931702E+02  0.00000000000E+00 0. -1.
          2   -1    0    0  501    0  0.00000000000E+00 -0.00000000000E+00 -0.36262362072E+03  0.36262362072E+03  0.00000000000E+00 0.  1.
         25    2    1    2    0    0  0.61283235014E+02 -0.59600673349E+02 -0.20386199672E+03  0.25400071123E+03  0.12509505362E+03 0.  0.
          5    1    3    3  502    0  0.55158473328E+02 -0.97850221752E+02 -0.15621730883E+03  0.19245374264E+03  0.41800000000E+01 0. -1.
         -5    1    3    3    0  502  0.61247616856E+01  0.38249548403E+02 -0.47644687888E+02  0.61546968590E+02  0.41800000000E+01 0. -1.
        -11    1    1    2    0    0 -0.39400922882E+02  0.79777618057E+02 -0.55067846765E+02  0.10463923172E+03  0.00000000000E+00 0.  1.
         11    1    1    2    0    0 -0.21882312132E+02 -0.20176944708E+02 -0.49724845534E+02  0.57952609478E+02  0.00000000000E+00 0. -1.
</event>
<event>
 7    1  0.2841804E-009  0.1292384E+03  0.7561462E-02  0.1228590E+00
         -2   -1    0    0    0  501 -0.00000000000E+00  0.00000000000E+00  0.23891908823E+02  0.23891908823E+02  0.00000000000E+00 0.  1.
          2   -1    0    0  501    0  0.00000000000E+00 -0.00000000000E+00 -0.13211037904E+04  0.13211037904E+04  0.00000000000E+00 0. -1.
         25    2    1    2    0    0  0.10274072250E+03 -0.45582346156E+02 -0.10122198631E+04  0.10260943649E+04  0.12508872108E+03 0.  0.
          5    1    3    3  502    0  0.18854320619E+02 -0.54927470875E+02 -0.17100400340E+03  0.18064427486E+03  0.41800000000E+01 0.  1.
         -5    1    3    3    0  502  0.83886401885E+02  0.93451247196E+01 -0.84121585966E+03  0.84545009003E+03  0.41800000000E+01 0.  1.
        -11    1    1    2    0    0 -0.74349598990E+02  0.45853288311E+02 -0.27541746813E+03  0.28893800143E+03  0.00000000000E+00 0. -1.
         11    1    1    2    0    0 -0.28391123514E+02 -0.27094215538E+00 -0.95745503979E+01  0.29963332915E+02  0.00000000000E+00 0.  1.
</event>
<event>
 7    1  0.2841804E-009  0.9658896E+02  0.7561462E-02  0.1287637E+00
          1   -1    0    0  501    0  0.00000000000E+00  0.00000000000E+00  0.15475628283E+02  0.15475628283E+02  0.00000000000E+00 0. -1.
         -1   -1    0    0    0  501 -0.00000000000E+00 -0.00000000000E+00 -0.87378293354E+03  0.87378293354E+03  0.00000000000E+00 0.  1.
         25    2    1    2    0    0 -0.63710488703E+01 -0.38534392804E+02 -0.54602092503E+03  0.56152602659E+03  0.12508852177E+03 0.  0.
          5    1    3    3  502    0 -0.61992620088E+02 -0.74955842668E+01 -0.34444975396E+03  0.35008909457E+03  0.41800000000E+01 0. -1.
         -5    1    3    3    0  502  0.55621571217E+02 -0.31038808538E+02 -0.20157117107E+03  0.21143693203E+03  0.41800000000E+01 0. -1.
        -11    1    1    2    0    0  0.74531427841E+01  0.52362747105E+02 -0.30897883199E+03  0.31347300560E+03  0.00000000000E+00 0.  1.
         11    1    1    2    0    0 -0.10820939138E+01 -0.13828354300E+02 -0.33075482362E+01  0.14259529628E+02  0.00000000000E+00 0. -1.
</event>
<event>
 7    1  0.2841804E-009  0.1349690E+03  0.7561462E-02  0.1220263E+00
         -2   -1    0    0    0  501 -0.00000000000E+00  0.00000000000E+00  0.45145611058E+02  0.45145611058E+02  0.00000000000E+00 0.  1.
          2   -1    0    0  501    0  0.00000000000E+00 -0.00000000000E+00 -0.54850549123E+03  0.54850549123E+03  0.00000000000E+00 0. -1.
         25    2    1    2    0    0 -0.55980837848E+02  0.10174512464E+03 -0.25017440242E+03  0.30285427335E+03  0.12509018613E+03 0.  0.
          5    1    3    3  502    0 -0.37174635829E+02  0.11941350734E+03 -0.24651726015E+03  0.27645934825E+03  0.41800000000E+01 0.  1.
         -5    1    3    3    0  502 -0.18806202019E+02 -0.17668382698E+02 -0.36571422736E+01  0.26394925102E+02  0.41800000000E+01 0.  1.
        -11    1    1    2    0    0  0.34141932376E+02 -0.37060757207E+02 -0.19401576517E+03  0.20045270865E+03  0.00000000000E+00 0. -1.
         11    1    1    2    0    0  0.21838905472E+02 -0.64684367436E+02 -0.59169712578E+02  0.90344120282E+02  0.00000000000E+00 0.  1.
</event>
<event>
 7    1  0.3112788E-009  0.1270866E+03  0.7561462E-02  0.1231844E+00
         -2   -1    0    0    0  501 -0.00000000000E+00  0.00000000000E+00  0.16369898561E+03  0.16369898561E+03  0.00000000000E+00 0. -1.
          2   -1    0    0  501    0  0.00000000000E+00 -0.00000000000E+00 -0.14948546135E+03  0.14948546135E+03  0.00000000000E+00 0.  1.
         25    2    1    2    0    0 -0.23991579977E+02  0.10686418404E+03  0.30009244348E+02  0.16894675342E+03  0.12508757334E+03 0.  0.
          5    1    3    3  502    0 -0.49911828320E+02  0.10717105651E+03  0.56980572498E+02  0.13130530835E+03  0.41800000000E+01 0. -1.
         -5    1    3    3    0  502  0.25920248342E+02 -0.30687246563E+00 -0.26971328149E+02  0.37641445070E+02  0.41800000000E+01 0. -1.
        -11    1    1    2    0    0  0.79016470107E+01 -0.45451765124E+02 -0.53307586608E+02  0.70498211101E+02  0.00000000000E+00 0.  1.
         11    1    1    2    0    0  0.16089932967E+02 -0.61412418919E+02  0.37511866514E+02  0.73739482435E+02  0.00000000000E+00 0. -1.
</event>
<event>
 7    1  0.2841804E-009  0.9598002E+02  0.7561462E-02  0.1288984E+00
          2   -1    0    0  501    0  0.00000000000E+00  0.00000000000E+00  0.60557920100E+03  0.60557920100E+03  0.00000000000E+00 0. -1.
         -2   -1    0    0    0  501 -0.00000000000E+00 -0.00000000000E+00 -0.24993843011E+02  0.24993843011E+02  0.00000000000E+00 0.  1.
         25    2    1    2    0    0 -0.49257185383E+02 -0.31009051454E+02  0.31195333692E+03  0.34110194203E+03  0.12509124213E+03 0.  0.
          5    1    3    3  502    0 -0.59513158559E+02 -0.41940241669E+02  0.31657728662E+03  0.32486835906E+03  0.41800000000E+01 0. -1.
         -5    1    3    3    0  502  0.10255973177E+02  0.10931190215E+02 -0.46239497005E+01  0.16233582974E+02  0.41800000000E+01 0. -1.
        -11    1    1    2    0    0  0.72159701435E+02  0.10868114984E+02  0.14757772075E+03  0.16463390324E+03  0.00000000000E+00 0.  1.
         11    1    1    2    0    0 -0.22902516052E+02  0.20140936469E+02  0.12105430032E+03  0.12483719874E+03  0.00000000000E+00 0. -1.
</event>
<event>
 7    1  0.2841804E-009  0.8711174E+02  0.7561462E-02  0.1310001E+00
         -1   -1    0    0    0  501 -0.00000000000E+00  0.00000000000E+00  0.31410368967E+03  0.31410368967E+03  0.00000000000E+00 0.  1.
          1   -1    0    0  501    0  0.00000000000E+00 -0.00000000000E+00 -0.66032375098E+02  0.66032375098E+02  0.00000000000E+00 0. -1.
         25    2    1    2    0    0  0.12924274976E+02 -0.74480217806E+02  0.60118502315E+02  0.15803386745E+03  0.12508448829E+03 0.  0.
          5    1    3    3  502    0  0.83747632049E+01 -0.43223689729E+02  0.98605993945E+02  0.10806960005E+03  0.41800000000E+01 0. -1.
         -5    1    3    3    0  502  0.45495117713E+01 -0.31256528077E+02 -0.38487491630E+02  0.49964267400E+02  0.41800000000E+01 0. -1.
        -11    1    1    2    0    0 -0.38116504010E+02  0.51236515367E+02  0.17354281043E+03  0.18491932143E+03  0.00000000000E+00 0.  1.
         11    1    1    2    0    0  0.25192229034E+02  0.23243702439E+02  0.14410001821E+02  0.37182875888E+02  0.00000000000E+00 0. -1.
</event>
<event>
 6    1  0.3632325E-009  0.1166055E+03  0.7561462E-02  0.1248804E+00
         -1   -1    0    0    0  501 -0.00000000000E+00  0.00000000000E+00  0.13380316095E+03  0.13380316095E+03  0.00000000000E+00 0.  1.
          1   -1    0    0  501    0  0.00000000000E+00 -0.00000000000E+00 -0.18003172709E+03  0.18003172709E+03  0.00000000000E+00 0. -1.
          5    1    1    2  502    0 -0.48320318608E+02  0.78834171155E+02  0.57032013956E+02  0.10871891624E+03  0.41800000000E+01 0.  1.
         -5    1    1    2    0  502 -0.30527769213E+02 -0.10773106606E+02 -0.43704509569E+02  0.54548703703E+02  0.41800000000E+01 0.  1.
        -11    1    1    2    0    0  0.75186565721E+02 -0.51704400102E+02 -0.26966378933E+01  0.91288753474E+02  0.00000000000E+00 0.  1.
         11    1    1    2    0    0  0.36615220995E+01 -0.16356664446E+02 -0.56859432638E+02  0.59278514623E+02  0.00000000000E+00 0. -1.
</event>
<event>
 7    1  0.2841804E-009  0.1745708E+03  0.7561462E-02  0.1173163E+00
          1   -1    0    0  501    0  0.00000000000E+00  0.00000000000E+00  0.16017386327E+03  0.16017386327E+03  0.00000000000E+00 0.  1.
         -1   -1    0    0    0  501 -0.00000000000E+00 -0.00000000000E+00 -0.22443123847E+03  0.22443123847E+03  0.00000000000E+00 0. -1.
         25    2    1    2    0    0 -0.67721278593E+02 -0.13748760842E+03 -0.15256492706E+02  0.19841717051E+03  0.12509036310E+03 0.  0.
          5    1    3    3  502    0 -0.58919953256E+02 -0.15487894886E+03 -0.36024595422E+02  0.16962987227E+03  0.41800000000E+01 0.  1.
         -5    1    3    3    0  502 -0.88013253364E+01  0.17391340434E+02  0.20768102716E+02  0.28787298244E+02  0.41800000000E+01 0.  1.
        -11    1    1    2    0    0  0.12435003211E+02  0.89136762263E+02  0.11891524075E+02  0.90782157038E+02  0.00000000000E+00 0.  1.
         11    1    1    2    0    0  0.55286275382E+02  0.48350846160E+02 -0.60892406571E+02  0.95405774185E+02  0.00000000000E+00 0. -1.
</event>
<event>
 7    1  0.2841804E-009  0.1146122E+03  0.7561462E-02  0.1252260E+00
          2   -1    0    0  501    0  0.00000000000E+00  0.00000000000E+00  0.33435438840E+03  0.33435438840E+03  0.00000000000E+00 0. -1.
         -2   -1    0    0    0  501 -0.00000000000E+00 -0.00000000000E+00 -0.47408105487E+02  0.47408105487E+02  0.00000000000E+00 0.  1.
         25    2    1    2    0    0 -0.48810320736E+02 -0.46670773761E+02  0.14920978716E+03  0.20608629549E+03  0.12508953622E+03 0.  0.
          5    1    3    3  502    0 -0.54654531636E+02 -0.85532624825E+02  0.11815914084E+03  0.15582683563E+03  0.41800000000E+01 0. -1.
         -5    1    3    3    0  502  0.58442109000E+01  0.38861851064E+02  0.31050646321E+02  0.50259459867E+02  0.41800000000E+01 0. -1.
        -11    1    1    2    0    0 -0.12467464438E+02  0.28744447845E+01 -0.54350834896E+01  0.13901087543E+02  0.00000000000E+00 0.  1.
         11    1    1    2    0    0  0.61277785174E+02  0.43796328976E+02  0.14317157925E+03  0.16177511085E+03  0.00000000000E+00 0. -1.
</event>
<event>
 7    1  0.2841804E-009  0.1242255E+03  0.7561462E-02  0.1236285E+00
         -1   -1    0    0    0  501 -0.00000000000E+00  0.00000000000E+00  0.82399622117E+02  0.82399622117E+02  0.00000000000E+00 0.  1.
          1   -1    0    0  501    0  0.00000000000E+00 -0.00000000000E+00 -0.23135411787E+03  0.23135411787E+03  0.00000000000E+00 0. -1.
         25    2    1    2    0    0 -0.73194722284E+02 -0.20819867884E+02 -0.11884281844E+03  0.18857672003E+03  0.12508648837E+03 0.  0.
          5    1    3    3  502    0 -0.58971057766E+02 -0.67737093731E+02 -0.10336660706E+03  0.13699645023E+03  0.41800000000E+01 0. -1.
         -5    1    3    3    0  502 -0.14223664518E+02  0.46917225847E+02 -0.15476211381E+02  0.51580269796E+02  0.41800000000E+01 0. -1.
        -11    1    1    2    0    0  0.57582414671E+02  0.49989969503E+02 -0.45382772473E+02  0.88737407939E+02  0.00000000000E+00 0. -1.
         11    1    1    2    0    0  0.15612307613E+02 -0.29170101619E+02  0.15271095153E+02  0.36439612027E+02  0.00000000000E+00 0.  1.
</event>
<event>
 7    1  0.2841804E-009  0.2112120E+03  0.7561462E-02  0.1140610E+00
          2   -1    0    0  501    0  0.00000000000E+00  0.00000000000E+00  0.12003510632E+03  0.12003510632E+03  0.00000000000E+00 0. -1.
         -2   -1    0    0    0  501 -0.00000000000E+00 -0.00000000000E+00 -0.42550455428E+03  0.42550455428E+03  0.00000000000E+00 0.  1.
         25    2    1    2    0    0  0.85318330696E+02 -0.17829106652E+03 -0.15163240856E+03  0.27875999724E+03  0.12509127381E+03 0.  0.
          5    1    3    3  502    0 -0.20036269867E+01 -0.88736833235E+02 -0.12063492488E+03  0.14982822696E+03  0.41800000000E+01 0. -1.
         -5    1    3    3    0  502  0.87321957683E+02 -0.89554233283E+02 -0.30997483680E+02  0.12893177028E+03  0.41800000000E+01 0. -1.
        -11    1    1    2    0    0 -0.18714823581E+02  0.67966859094E+00 -0.43439406169E+02  0.47304213125E+02  0.00000000000E+00 0.  1.
         11    1    1    2    0    0 -0.66603507115E+02  0.17761139793E+03 -0.11039763323E+03  0.21947545024E+03  0.00000000000E+00 0. -1.
</event>
<event>
 7    1  0.2841804E-009  0.1203658E+03  0.7561462E-02  0.1242495E+00
         -2   -1    0    0    0  501 -0.00000000000E+00  0.00000000000E+00  0.13177566198E+02  0.13177566198E+02  0.00000000000E+00 0. -1.
          2   -1    0    0  501    0  0.00000000000E+00 -0.00000000000E+00 -0.14141596388E+04  0.14141596388E+04  0.00000000000E+00 0.  1.
         25    2    1    2    0    0  0.76166688967E+02 -0.26010976114E+02 -0.90028627559E+03  0.91249229499E+03  0.12509546362E+03 0.  0.
          5    1    3    3  502    0  0.85621113772E+02 -0.52934911123E+02 -0.83580289297E+03  0.84185332940E+03  0.41800000000E+01 0. -1.
         -5    1    3    3    0  502 -0.94544248045E+01  0.26923935009E+02 -0.64483382624E+02  0.70638965588E+02  0.41800000000E+01 0. -1.
        -11    1    1    2    0    0  0.85220362895E+01  0.25036507155E+02 -0.53272732745E+02  0.59476346955E+02  0.00000000000E+00 0. -1.
         11    1    1    2    0    0 -0.84688725257E+02  0.97446895854E+00 -0.44742306426E+03  0.45536856304E+03  0.00000000000E+00 0.  1.
</event>
<event>
 7    1  0.3177857E-009  0.1966912E+03  0.7561462E-02  0.1152561E+00
         -2   -1    0    0    0  501 -0.00000000000E+00  0.00000000000E+00  0.19572862112E+03  0.19572862112E+03  0.00000000000E+00 0. -1.
          2   -1    0    0  501    0  0.00000000000E+00 -0.00000000000E+00 -0.20111099715E+03  0.20111099715E+03  0.00000000000E+00 0.  1.
         25    2    1    2    0    0 -0.13029635052E+03  0.10042614729E+03  0.17110409273E+02  0.20737041959E+03  0.12508866774E+03 0.  0.
          5    1    3    3  502    0 -0.97820669042E+02  0.12922639694E+03  0.21475697941E+02  0.16354517101E+03  0.41800000000E+01 0. -1.
         -5    1    3    3    0  502 -0.32475681479E+02 -0.28800249655E+02 -0.43652886684E+01  0.43825248578E+02  0.41800000000E+01 0.  1.
        -11    1    1    2    0    0  0.10268133037E+03 -0.22700797026E+02 -0.58614918435E+01  0.10532397105E+03  0.00000000000E+00 0.  1.
         11    1    1    2    0    0  0.27615020155E+02 -0.77725350262E+02 -0.16631293458E+02  0.84145227634E+02  0.00000000000E+00 0. -1.
</event>
<event>
 7    1  0.2841804E-009  0.1335604E+03  0.7561462E-02  0.1222266E+00
         -2   -1    0    0    0  501 -0.00000000000E+00  0.00000000000E+00  0.76387038714E+02  0.76387038714E+02  0.00000000000E+00 0.  1.
          2   -1    0    0  501    0  0.00000000000E+00 -0.00000000000E+00 -0.27418883586E+03  0.27418883586E+03  0.00000000000E+00 0. -1.
         25    2    1    2    0    0 -0.89248639900E+02  0.25290219255E+02 -0.13101414097E+03  0.20350638173E+03  0.12508088326E+03 0.  0.
          5    1    3    3  502    0 -0.10127945844E+03 -0.17429963173E+02 -0.58333480761E+02  0.11824381462E+03  0.41800000000E+01 0.  1.
         -5    1    3    3    0  502  0.12030818541E+02  0.42720182427E+02 -0.72680660208E+02  0.85262567107E+02  0.41800000000E+01 0.  1.
        -11    1    1    2    0    0 -0.12473242922E+02  0.51734254564E+01 -0.32971138664E+02  0.35629231043E+02  0.00000000000E+00 0. -1.
         11    1    1    2    0    0  0.10172188282E+03 -0.30463644711E+02 -0.33816517511E+02  0.11144026180E+03  0.00000000000E+00 0.  1.
</event>
<event>
 7    1  0.3045519E-009  0.7405588E+02  0.7561462E-02  0.1346820E+00
         -1   -1    0    0    0  501 -0.00000000000E+00  0.00000000000E+00  0.27431917898E+02  0.27431917898E+02  0.00000000000E+00 0.  1.
          1   -1    0    0  501    0  0.00000000000E+00 -0.00000000000E+00 -0.51759976597E+03  0.51759976597E+03  0.00000000000E+00 0. -1.
         25    2    1    2    0    0  0.33478940526E+01  0.49680233239E+02 -0.26643242934E+03  0.29852017799E+03  0.12509485719E+03 0.  0.
          5    1    3    3  502    0  0.25634011149E+02  0.32661253084E+00  0.63848546348E+00  0.25982480001E+02  0.41800000000E+01 0.  1.
         -5    1    3    3    0  502 -0.22286117096E+02  0.49353620709E+02 -0.26707091480E+03  0.27253769799E+03  0.41800000000E+01 0.  1.
        -11    1    1    2    0    0  0.20450258518E+02 -0.13450440930E+02 -0.69637855731E+01  0.25448413392E+02  0.00000000000E+00 0.  1.
         11    1    1    2    0    0 -0.23798152571E+02 -0.36229792310E+02 -0.21677163316E+03  0.22106309249E+03  0.00000000000E+00 0. -1.
</event>
<event>
 7    1  0.2841804E-009  0.1409454E+03  0.7561462E-02  0.1212063E+00
          3   -1    0    0  501    0  0.00000000000E+00  0.00000000000E+00  0.40914831354E+02  0.40914831354E+02  0.00000000000E+00 0. -1.
         -3   -1    0    0    0  501 -0.00000000000E+00 -0.00000000000E+00 -0.59775415387E+03  0.59775415387E+03  0.00000000000E+00 0.  1.
         25    2    1    2    0    0 -0.16120015845E+02 -0.10665691520E+03 -0.35646230011E+03  0.39287246243E+03  0.12509135808E+03 0.  0.
          5    1    3    3  502    0 -0.63309791466E+02 -0.39346917728E+02 -0.10929395257E+03  0.13235917081E+03  0.41800000000E+01 0.  1.
         -5    1    3    3    0  502  0.47189775621E+02 -0.67309997468E+02 -0.24716834754E+03  0.26051329162E+03  0.41800000000E+01 0.  1.
        -11    1    1    2    0    0 -0.19888894029E+02  0.72902633810E+02 -0.17429870563E+03  0.18997473755E+03  0.00000000000E+00 0.  1.
         11    1    1    2    0    0  0.36008909874E+02  0.33754281386E+02 -0.26078316775E+02  0.55821785246E+02  0.00000000000E+00 0. -1.
</event>
<event>
 7    1  0.2841804E-009  0.1365038E+03  0.7561462E-02  0.1218112E+00
         -4   -1    0    0    0  501 -0.00000000000E+00  0.00000000000E+00  0.11155388875E+04  0.11155388875E+04  0.00000000000E+00 0. -1.
          4   -1    0    0  501    0  0.00000000000E+00 -0.00000000000E+00 -0.27711135193E+02  0.27711135193E+02  0.00000000000E+00 0.  1.
         25    2    1    2    0    0  0.12091864796E+03 -0.46496470062E+02  0.73582248377E+03  0.75754173867E+03  0.12510602322E+03 0.  0.
          5    1    3    3  502    0  0.12140862710E+03 -0.55315897893E+02  0.73575925819E+03  0.74776939073E+03  0.41800000000E+01 0.  1.
         -5    1    3    3    0  502 -0.48997913916E+00  0.88194278304E+01  0.63225581269E-01  0.97723479413E+01  0.41800000000E+01 0.  1.
        -11    1    1    2    0    0 -0.27679375552E+02  0.74166587453E+01  0.12133186520E+02  0.31118625822E+02  0.00000000000E+00 0.  1.
         11    1    1    2    0    0 -0.93239272409E+02  0.39079811317E+02  0.33987208200E+03  0.35458965819E+03  0.00000000000E+00 0. -1.
</event>
<event>
 7    1  0.2841804E-009  0.1198252E+03  0.7561462E-02  0.1243386E+00
          2   -1    0    0  501    0  0.00000000000E+00  0.00000000000E+00  0.12310991489E+04  0.12310991489E+04  0.00000000000E+00 0. -1.
         -2   -1    0    0    0  501 -0.00000000000E+00 -0.00000000000E+00 -0.12555412633E+02  0.12555412633E+02  0.00000000000E+00 0.  1.
         25    2    1    2    0    0 -0.53864136951E+02 -0.48036920982E+01  0.80996748930E+03  0.82135187071E+03  0.12508853304E+03 0.  0.
          5    1    3    3  502    0  0.28095959857E+02  0.34862873204E+02  0.24933067826E+03  0.25335363114E+03  0.41800000000E+01 0. -1.
         -5    1    3    3    0  502 -0.81960096809E+02 -0.39666565302E+02  0.56063681103E+03  0.56799823957E+03  0.41800000000E+01 0. -1.
        -11    1    1    2    0    0 -0.19078379317E+02  0.21455956284E+02  0.16550866118E+03  0.16798053323E+03  0.00000000000E+00 0. -1.
         11    1    1    2    0    0  0.72942516269E+02 -0.16652264186E+02  0.24306758581E+03  0.25432215761E+03  0.00000000000E+00 0.  1.
</event>
<event>
 7    1  0.2841804E-009  0.1076906E+03  0.7561462E-02  0.1264907E+00
          1   -1    0    0  501    0  0.00000000000E+00  0.00000000000E+00  0.11749538683E+03  0.11749538683E+03  0.00000000000E+00 0. -1.
         -1   -1    0    0    0  501 -0.00000000000E+00 -0.00000000000E+00 -0.20673417109E+03  0.20673417109E+03  0.00000000000E+00 0.  1.
         25    2    1    2    0    0  0.11414218177E+02 -0.64903818437E+02  0.45810100027E+02  0.14862296522E+03  0.12508968983E+03 0.  0.
          5    1    3    3  502    0  0.46119778331E+02 -0.29429429402E+02 -0.26411081424E+02  0.60894522662E+02  0.41800000000E+01 0. -1.
         -5    1    3    3    0  502 -0.34705560154E+02 -0.35474389035E+02  0.72221181450E+02  0.87728442555E+02  0.41800000000E+01 0. -1.
        -11    1    1    2    0    0  0.38303207256E+01  0.85221792019E+02 -0.11531995784E+03  0.14344377947E+03  0.00000000000E+00 0.  1.
         11    1    1    2    0    0 -0.15244538903E+02 -0.20317973582E+02 -0.19728926446E+02  0.32162813241E+02  0.00000000000E+00 0. -1.
</event>
<event>
 7    1  0.2841804E-009  0.1902032E+03  0.7561462E-02  0.1158278E+00
          1   -1    0    0  501    0  0.00000000000E+00  0.00000000000E+00  0.16876300642E+03  0.16876300642E+03  0.00000000000E+00 0. -1.
         -1   -1    0    0    0  501 -0.00000000000E+00 -0.00000000000E+00 -0.42391034105E+03  0.42391034105E+03  0.00000000000E+00 0.  1.
         25    2    1    2    0    0  0.12652394542E+03 -0.13167278293E+03  0.48363451847E+02  0.22656580625E+03  0.12508801125E+03 0.  0.
          5    1    3    3  502    0  0.10566727824E+02 -0.58208985948E+02  0.65275782981E+02  0.88194909296E+02  0.41800000000E+01 0. -1.
         -5    1    3    3    0  502  0.11595721760E+03 -0.73463796983E+02 -0.16912331134E+02  0.13837089696E+03  0.41800000000E+01 0. -1.
        -11    1    1    2    0    0 -0.55749776215E+02  0.43568826431E+02 -0.20260406676E+03  0.21460356020E+03  0.00000000000E+00 0.  1.
         11    1    1    2    0    0 -0.70774169209E+02  0.88103956501E+02 -0.10090671972E+03  0.15150398102E+03  0.00000000000E+00 0. -1.
</event>
<event>
 7    1  0.2841804E-009  0.2867674E+03  0.7561462E-02  0.1092049E+00
          2   -1    0    0  501    0  0.00000000000E+00  0.00000000000E+00  0.36688635268E+03  0.36688635268E+03  0.00000000000E+00 0. -1.
         -2   -1    0    0    0  501 -0.00000000000E+00 -0.00000000000E+00 -0.26420630743E+03  0.26420630743E+03  0.00000000000E+00 0.  1.
         25    2    1    2    0    0 -0.25739500488E+03  0.99732716275E+02 -0.42137929716E+02  0.30597729879E+03  0.12509076313E+03 0.  0.
          5    1    3    3  502    0 -0.69617282938E+02 -0.97068378125E+01  0.30561187333E+02  0.76760975470E+02  0.41800000000E+01 0.  1.
         -5    1    3    3    0  502 -0.18777772195E+03  0.10943955409E+03 -0.72699117049E+02  0.22921632332E+03  0.41800000000E+01 0.  1.
        -11    1    1    2    0    0  0.22456831295E+03 -0.11167896644E+03  0.14592011070E+03  0.29016512098E+03  0.00000000000E+00 0. -1.
         11    1    1    2    0    0  0.32826691933E+02  0.11946250167E+02 -0.11021357307E+01  0.34950240336E+02  0.00000000000E+00 0.  1.
</event>
<event>
 7    1  0.2841804E-009  0.2233460E+03  0.7561462E-02  0.1131413E+00
         -1   -1    0    0    0  501 -0.00000000000E+00  0.00000000000E+00  0.81796475147E+02  0.81796475147E+02  0.00000000000E+00 0.  1.
          1   -1    0    0  501    0  0.00000000000E+00 -0.00000000000E+00 -0.72485241897E+03  0.72485241897E+03  0.00000000000E+00 0. -1.
         25    2    1    2    0    0 -0.20011026936E+03  0.70167903336E+02 -0.23149942058E+03  0.33794555148E+03  0.12509020536E+03 0.  0.
          5    1    3    3  502    0 -0.19615606717E+03  0.41903021104E+02 -0.14716111123E+03  0.24881103457E+03  0.41800000000E+01 0.  1.
         -5    1    3    3    0  502 -0.39542021973E+01  0.28264882232E+02 -0.84338309348E+02  0.89134516919E+02  0.41800000000E+01 0.  1.
        -11    1    1    2    0    0  0.77411436897E+02 -0.51829960178E+02 -0.23611428795E+03  0.25382835205E+03  0.00000000000E+00 0. -1.
         11    1    1    2    0    0  0.12269883247E+03 -0.18337943158E+02 -0.17544223530E+03  0.21487499058E+03  0.00000000000E+00 0.  1.
</event>
<event>
 7    1  0.2841804E-009  0.1591672E+03  0.7561462E-02  0.1189640E+00
         -2   -1    0    0    0  501 -0.00000000000E+00  0.00000000000E+00  0.10396697609E+03  0.10396697609E+03  0.00000000000E+00 0.  1.
          2   -1    0    0  501    0  0.00000000000E+00 -0.00000000000E+00 -0.28272786836E+03  0.28272786836E+03  0.00000000000E+00 0. -1.
         25    2    1    2    0    0 -0.12725690515E+03  0.17877538976E+02 -0.61851193052E+02  0.18970147308E+03  0.12508857861E+03 0.  0.
          5    1    3    3  502    0 -0.11964048435E+03 -0.30666189708E+02 -0.66203012791E+02  0.14019476449E+03  0.41800000000E+01 0. -1.
         -5    1    3    3    0  502 -0.76164207963E+01  0.48543728684E+02  0.43518197390E+01  0.49506708589E+02  0.41800000000E+01 0. -1.
        -11    1    1    2    0    0 -0.32673115878E+01  0.11242315800E+02  0.78545336679E+01  0.14098180333E+02  0.00000000000E+00 0.  1.
         11    1    1    2    0    0  0.13052421674E+03 -0.29119854776E+02 -0.12476423289E+03  0.18289519104E+03  0.00000000000E+00 0. -1.
</event>
<event>
 7    1  0.2841804E-009  0.1757670E+03  0.7561462E-02  0.1171964E+00
         -2   -1    0    0    0  501 -0.00000000000E+00  0.00000000000E+00  0.59307908093E+02  0.59307908093E+02  0.00000000000E+00 0. -1.
          2   -1    0    0  501    0  0.00000000000E+00 -0.00000000000E+00 -0.57006712150E+03  0.57006712150E+03  0.00000000000E+00 0.  1.
         25    2    1    2    0    0 -0.13297101312E+03 -0.42810252464E+02 -0.36296022172E+03  0.40853599355E+03  0.12509007726E+03 0.  0.
          5    1    3    3  502    0  0.21570102727E+02  0.99729266380E+01 -0.48992379318E+02  0.54611850625E+02  0.41800000000E+01 0.  1.
         -5    1    3    3    0  502 -0.15454111585E+03 -0.52783179102E+02 -0.31396784240E+03  0.35392414293E+03  0.41800000000E+01 0.  1.
        -11    1    1    2    0    0  0.48287414992E+02 -0.26079172873E+02 -0.51878186151E+02  0.75519162486E+02  0.00000000000E+00 0.  1.
         11    1    1    2    0    0  0.84683598130E+02  0.68889425337E+02 -0.95920805538E+02  0.14531987356E+03  0.00000000000E+00 0. -1.
</event>
<event>
 7    1  0.2841804E-009  0.1565037E+03  0.7561462E-02  0.1192702E+00
         -1   -1    0    0    0  501 -0.00000000000E+00  0.00000000000E+00  0.54498018715E+02  0.54498018715E+02  0.00000000000E+00 0.  1.
          1   -1    0    0  501    0  0.00000000000E+00 -0.00000000000E+00 -0.60521154992E+03  0.60521154992E+03  0.00000000000E+00 0. -1.
         25    2    1    2    0    0 -0.61248393311E+02  0.10286447759E+03 -0.19558006295E+03  0.26121172058E+03  0.12509010958E+03 0.  0.
          5    1    3    3  502    0  0.60834870036E+01 -0.26171094650E+02 -0.37092553303E+02  0.45992009304E+02  0.41800000000E+01 0. -1.
         -5    1    3    3    0  502 -0.67331880314E+02  0.12903557224E+03 -0.15848750965E+03  0.21521971128E+03  0.41800000000E+01 0. -1.
        -11    1    1    2    0    0  0.61991538198E+02 -0.32788135315E+02 -0.51828949282E+02  0.87202365847E+02  0.00000000000E+00 0.  1.
         11    1    1    2    0    0 -0.74314488678E+00 -0.70076342273E+02 -0.30330451897E+03  0.31129548220E+03  0.00000000000E+00 0. -1.
</event>
<event>
 7    1  0.2841804E-009  0.1082914E+03  0.7561462E-02  0.1263767E+00
          1   -1    0    0  501    0  0.00000000000E+00  0.00000000000E+00  0.95855998706E+03  0.95855998706E+03  0.00000000000E+00 0. -1.
         -1   -1    0    0    0  501 -0.00000000000E+00 -0.00000000000E+00 -0.25890496735E+02  0.25890496735E+02  0.00000000000E+00 0.  1.
         25    2    1    2    0    0 -0.46353682645E+02  0.79895414574E+02  0.70559439851E+03  0.72252506745E+03  0.12508827569E+03 0.  0.
          5    1    3    3  502    0 -0.55662062736E+02  0.25999008920E+02  0.12498581563E+03  0.13933104536E+03  0.41800000000E+01 0. -1.
         -5    1    3    3    0  502  0.93083800912E+01  0.53896405654E+02  0.58060858288E+03  0.58319402208E+03  0.41800000000E+01 0. -1.
        -11    1    1    2    0    0  0.18283650331E+02 -0.66653377097E+02  0.21929443209E+03  0.22992827685E+03  0.00000000000E+00 0. -1.
         11    1    1    2    0    0  0.28070032314E+02 -0.13242037478E+02  0.77806597285E+01  0.31997139505E+02  0.00000000000E+00 0.  1.
</event>
<event>
 7    1  0.2841804E-009  0.8146968E+02  0.7561462E-02  0.1324932E+00
         -2   -1    0    0    0  501 -0.00000000000E+00  0.00000000000E+00  0.88147166253E+02  0.88147166253E+02  0.00000000000E+00 0.  1.
          2   -1    0    0  501    0  0.00000000000E+00 -0.00000000000E+00 -0.17792277564E+03  0.17792277564E+03  0.00000000000E+00 0. -1.
         25    2    1    2    0    0  0.46239813936E+02 -0.53944122767E+01 -0.30484374749E+01  0.13350915344E+03  0.12509268966E+03 0.  0.
          5    1    3    3  502    0  0.45059086369E+02  0.16999873023E+02 -0.57115822716E+02  0.74826509686E+02  0.41800000000E+01 0. -1.
         -5    1    3    3    0  502  0.11807275673E+01 -0.22394285300E+02  0.54067385241E+02  0.58682643759E+02  0.41800000000E+01 0. -1.
        -11    1    1    2    0    0 -0.19311902203E+02 -0.36900130113E+02 -0.13439004253E+02  0.43762723914E+02  0.00000000000E+00 0. -1.
         11    1    1    2    0    0 -0.26927911733E+02  0.42294542390E+02 -0.73288167661E+02  0.88798064536E+02  0.00000000000E+00 0.  1.
</event>
<event>
 7    1  0.2841804E-009  0.1870048E+03  0.7561462E-02  0.1161191E+00
          2   -1    0    0  501    0  0.00000000000E+00  0.00000000000E+00  0.52044251522E+02  0.52044251522E+02  0.00000000000E+00 0. -1.
         -2   -1    0    0    0  501 -0.00000000000E+00 -0.00000000000E+00 -0.73845406158E+03  0.73845406158E+03  0.00000000000E+00 0.  1.
         25    2    1    2    0    0 -0.63817372372E+02  0.14406709675E+03 -0.44676417215E+03  0.48997233986E+03  0.12508670165E+03 0.  0.
          5    1    3    3  502    0 -0.76560866888E+02  0.37602963521E+02 -0.13013097433E+03  0.15565054476E+03  0.41800000000E+01 0.  1.
         -5    1    3    3    0  502  0.12743494516E+02  0.10646413323E+03 -0.31663319782E+03  0.33432179510E+03  0.41800000000E+01 0.  1.
        -11    1    1    2    0    0  0.73059615219E+02 -0.54212852057E+02 -0.12339091030E+03  0.15330380768E+03  0.00000000000E+00 0.  1.
         11    1    1    2    0    0 -0.92422428469E+01 -0.89854244693E+02 -0.11625472761E+03  0.14722216557E+03  0.00000000000E+00 0. -1.
</event>
<event>
 7    1  0.2841804E-009  0.1302590E+03  0.7561462E-02  0.1227072E+00
         -2   -1    0    0    0  501 -0.00000000000E+00  0.00000000000E+00  0.36037102921E+03  0.36037102921E+03  0.00000000000E+00 0. -1.
          2   -1    0    0  501    0  0.00000000000E+00 -0.00000000000E+00 -0.64002168191E+02  0.64002168191E+02  0.00000000000E+00 0.  1.
         25    2    1    2    0    0 -0.91235753746E+02  0.53715258497E+02  0.16510268108E+03  0.23262759690E+03  0.12508961501E+03 0.  0.
          5    1    3    3  502    0 -0.31388774933E+02  0.61364059777E+02  0.15712017662E+03  0.17162466409E+03  0.41800000000E+01 0. -1.
         -5    1    3    3    0  502 -0.59846978813E+02 -0.76488012797E+01  0.79825044666E+01  0.61002932811E+02  0.41800000000E+01 0. -1.
        -11    1    1    2    0    0  0.89361062493E+02 -0.13085610636E+02  0.56210330717E+02  0.10637778892E+03  0.00000000000E+00 0.  1.
         11    1    1    2    0    0  0.18746912532E+01 -0.40629647861E+02  0.75055849221E+02  0.85367811585E+02  0.00000000000E+00 0. -1.
</event>
<event>
 7    1  0.2841804E-009  0.1086436E+03  0.7561462E-02  0.1263102E+00
         -2   -1    0    0    0  501 -0.00000000000E+00  0.00000000000E+00  0.41077271576E+02  0.41077271576E+02  0.00000000000E+00 0. -1.
          2   -1    0    0  501    0  0.00000000000E+00 -0.00000000000E+00 -0.70368554904E+03  0.70368554904E+03  0.00000000000E+00 0.  1.
         25    2    1    2    0    0  0.58608492499E+02 -0.70072688501E+01 -0.60589499718E+03  0.62148211436E+03  0.12508882303E+03 0.  0.
          5    1    3    3  502    0 -0.26514872154E+02  0.29979068413E+02 -0.11408187481E+03  0.12097077973E+03  0.41800000000E+01 0. -1.
         -5    1    3    3    0  502  0.85123364653E+02 -0.36986337263E+02 -0.49181312237E+03  0.50051133463E+03  0.41800000000E+01 0. -1.
        -11    1    1    2    0    0  0.34259599175E+01  0.20393631866E+02 -0.56127323706E+02  0.59815665911E+02  0.00000000000E+00 0.  1.
         11    1    1    2    0    0 -0.62034452417E+02 -0.13386363016E+02 -0.58595657963E+00  0.63465040349E+02  0.00000000000E+00 0. -1.
</event>
<event>
 7    1  0.2841804E-009  0.8668434E+02  0.7561462E-02  0.1311086E+00
         -1   -1    0    0    0  501 -0.00000000000E+00  0.00000000000E+00  0.74562447945E+02  0.74562447945E+02  0.00000000000E+00 0.  1.
          1   -1    0    0  501    0  0.00000000000E+00 -0.00000000000E+00 -0.32522173382E+03  0.32522173382E+03  0.00000000000E+00 0. -1.
         25    2    1    2    0    0  0.22435493499E+02 -0.55995321905E+01 -0.27359903640E+03  0.30172025228E+03  0.12507586412E+03 0.  0.
          5    1    3    3  502    0 -0.49486264003E+02  0.51162509806E+01 -0.15185932266E+03  0.15985553674E+03  0.41800000000E+01 0. -1.
         -5    1    3    3    0  502  0.71921757502E+02 -0.10715783171E+02 -0.12173971374E+03  0.14186471553E+03  0.41800000000E+01 0. -1.
        -11    1    1    2    0    0  0.10064358204E+02  0.13808572340E+02  0.51353190133E+02  0.54121327709E+02  0.00000000000E+00 0.  1.
         11    1    1    2    0    0 -0.32499851703E+02 -0.82090401495E+01 -0.28413439608E+02  0.43942601781E+02  0.00000000000E+00 0. -1.
</event>
<event>
 7    1  0.2841804E-009  0.1611539E+03  0.7561462E-02  0.1187400E+00
          1   -1    0    0  501    0  0.00000000000E+00  0.00000000000E+00  0.70089066260E+03  0.70089066260E+03  0.00000000000E+00 0. -1.
         -1   -1    0    0    0  501 -0.00000000000E+00 -0.00000000000E+00 -0.50147083544E+02  0.50147083544E+02  0.00000000000E+00 0.  1.
         25    2    1    2    0    0 -0.45477498190E+02  0.13625039932E+03  0.44355843537E+03  0.48272554318E+03  0.12508992883E+03 0.  0.
          5    1    3    3  502    0 -0.49727504998E+02  0.13749362228E+03  0.25427190455E+03  0.29334108945E+03  0.41800000000E+01 0. -1.
         -5    1    3    3    0  502  0.42500068072E+01 -0.12432229591E+01  0.18928653083E+03  0.18938445373E+03  0.41800000000E+01 0. -1.
        -11    1    1    2    0    0 -0.27723258573E+02 -0.29203912520E+02  0.58501339263E+02  0.71020097634E+02  0.00000000000E+00 0. -1.
         11    1    1    2    0    0  0.73200756764E+02 -0.10704648680E+03  0.14868380442E+03  0.19729210533E+03  0.00000000000E+00 0.  1.
</event>
<event>
 7    1  0.2841804E-009  0.1112580E+03  0.7561462E-02  0.1258258E+00
          1   -1    0    0  501    0  0.00000000000E+00  0.00000000000E+00  0.41025589074E+03  0.41025589074E+03  0.00000000000E+00 0. -1.
         -1   -1    0    0    0  501 -0.00000000000E+00 -0.00000000000E+00 -0.47152956642E+02  0.47152956642E+02  0.00000000000E+00 0.  1.
         25    2    1    2    0    0 -0.76951385523E+02 -0.36856119085E+02  0.20382036411E+03  0.25390998213E+03  0.12509056300E+03 0.  0.
          5    1    3    3  502    0 -0.42557032977E+02 -0.61931251385E+02  0.19662973325E+03  0.21054050763E+03  0.41800000000E+01 0. -1.
         -5    1    3    3    0  502 -0.34394352546E+02  0.25075132299E+02  0.71906308660E+01  0.43369474509E+02  0.41800000000E+01 0. -1.
        -11    1    1    2    0    0  0.14673522102E+02  0.39515745762E+02  0.12594017612E+03  0.13280713225E+03  0.00000000000E+00 0. -1.
         11    1    1    2    0    0  0.62277863421E+02 -0.26596266769E+01  0.33342393864E+02  0.70691733003E+02  0.00000000000E+00 0.  1.
</event>
<event>
 7    1  0.2841804E-009  0.1108721E+03  0.7561462E-02  0.1258963E+00
         -1   -1    0    0    0  501 -0.00000000000E+00  0.00000000000E+00  0.13330163255E+03  0.13330163255E+03  0.00000000000E+00 0.  1.
          1   -1    0    0  501    0  0.00000000000E+00 -0.00000000000E+00 -0.18455832952E+03  0.18455832952E+03  0.00000000000E+00 0. -1.
         25    2    1    2    0    0 -0.83194273078E+01 -0.74945275948E+02  0.58139023351E+02  0.15720713258E+03  0.12509168334E+03 0.  0.
          5    1    3    3  502    0 -0.36239410969E+02  0.26208375135E+01  0.64785323759E+02  0.74396063547E+02  0.41800000000E+01 0.  1.
         -5    1    3    3    0  502  0.27919983661E+02 -0.77566113462E+02 -0.66463004080E+01  0.82811069033E+02  0.41800000000E+01 0.  1.
        -11    1    1    2    0    0  0.23740546374E+02 -0.23048622687E+01  0.23113517766E+01  0.23963895327E+02  0.00000000000E+00 0.  1.
         11    1    1    2    0    0 -0.15421119066E+02  0.77250138217E+02 -0.11170707209E+03  0.13668893417E+03  0.00000000000E+00 0. -1.
</event>
<event>
 7    1  0.2841804E-009  0.1248716E+03  0.7561462E-02  0.1235270E+00
          2   -1    0    0  501    0  0.00000000000E+00  0.00000000000E+00  0.34553277674E+03  0.34553277674E+03  0.00000000000E+00 0.  1.
         -2   -1    0    0    0  501 -0.00000000000E+00 -0.00000000000E+00 -0.97307773515E+02  0.97307773515E+02  0.00000000000E+00 0. -1.
         25    2    1    2    0    0 -0.57147672524E+02 -0.61793912337E+02 -0.15393829474E+02  0.15155540540E+03  0.12509087434E+03 0.  0.
          5    1    3    3  502    0  0.31278590093E+00 -0.87554226863E+02 -0.97143759895E+01  0.88191167230E+02  0.41800000000E+01 0. -1.
         -5    1    3    3    0  502 -0.57460458425E+02  0.25760314525E+02 -0.56794534850E+01  0.63364238169E+02  0.41800000000E+01 0. -1.
        -11    1    1    2    0    0  0.58104657237E+02  0.26825877805E+02  0.24164229723E+03  0.24997355605E+03  0.00000000000E+00 0.  1.
         11    1    1    2    0    0 -0.95698471357E+00  0.34968034532E+02  0.21976535476E+02  0.41311588814E+02  0.00000000000E+00 0. -1.
</event>
<event>
 7    1  0.2841804E-009  0.1914623E+03  0.7561462E-02  0.1157149E+00
          2   -1    0    0  501    0  0.00000000000E+00  0.00000000000E+00  0.78253443221E+03  0.78253443221E+03  0.00000000000E+00 0. -1.
         -2   -1    0    0    0  501 -0.00000000000E+00 -0.00000000000E+00 -0.51276225517E+02  0.51276225517E+02  0.00000000000E+00 0.  1.
         25    2    1    2    0    0  0.15662135535E+03  0.60208407652E+02  0.37831738868E+03  0.43235044662E+03  0.12509021071E+03 0.  0.
          5    1    3    3  502    0  0.14349801831E+03 -0.39229257906E+01  0.26536842222E+03  0.30173654488E+03  0.41800000000E+01 0. -1.
         -5    1    3    3    0  502  0.13123337037E+02  0.64131333442E+02  0.11294896646E+03  0.13061390174E+03  0.41800000000E+01 0. -1.
        -11    1    1    2    0    0 -0.10450506987E+03 -0.62107611698E+02  0.15624098965E+03  0.19796442081E+03  0.00000000000E+00 0.  1.
         11    1    1    2    0    0 -0.52116285482E+02  0.18992040462E+01  0.19669982837E+03  0.20349579030E+03  0.00000000000E+00 0. -1.
</event>
<event>
 7    1  0.3134372E-009  0.1295482E+03  0.7561462E-02  0.1228128E+00
         -1   -1    0    0    0  501 -0.00000000000E+00  0.00000000000E+00  0.70333768924E+03  0.70333768924E+03  0.00000000000E+00 0.  1.
          1   -1    0    0  501    0  0.00000000000E+00 -0.00000000000E+00 -0.38914692460E+02  0.38914692460E+02  0.00000000000E+00 0. -1.
         25    2    1    2    0    0  0.94173789514E+02 -0.44664287606E+02  0.20161837787E+03  0.25914914261E+03  0.12507880156E+03 0.  0.
          5    1    3    3  502    0  0.43278387620E+02  0.15590672393E+02  0.16635874224E+03  0.17265222681E+03  0.41800000000E+01 0. -1.
         -5    1    3    3    0  502  0.50895401894E+02 -0.60254960000E+02  0.35259635631E+02  0.86496915802E+02  0.41800000000E+01 0. -1.
        -11    1    1    2    0    0 -0.46365790508E+02  0.66738393733E+02  0.21689300008E+03  0.23161686729E+03  0.00000000000E+00 0. -1.
         11    1    1    2    0    0 -0.47807999006E+02 -0.22074106127E+02  0.24591161882E+03  0.25148637180E+03  0.00000000000E+00 0.  1.
</event>
<event>
 7    1  0.2841804E-009  0.7859483E+02  0.7561462E-02  0.1333087E+00
         -1   -1    0    0    0  501 -0.00000000000E+00  0.00000000000E+00  0.47604545907E+02  0.47604545907E+02  0.00000000000E+00 0.  1.
          1   -1    0    0  501    0  0.00000000000E+00 -0.00000000000E+00 -0.35368861988E+03  0.35368861988E+03  0.00000000000E+00 0. -1.
         25    2    1    2    0    0 -0.39688534455E+02  0.76201325703E+01 -0.21842204492E+03  0.25492898358E+03  0.12508937115E+03 0.  0.
          5    1    3    3  502    0 -0.47774561759E+02  0.91531276191E+01 -0.23278819283E+03  0.23785290331E+03  0.41800000000E+01 0. -1.
         -5    1    3    3    0  502  0.80860273036E+01 -0.15329950488E+01  0.14366147910E+02  0.17076080263E+02  0.41800000000E+01 0. -1.
        -11    1    1    2    0    0 -0.11301646165E+02 -0.38093038474E+02  0.87773098850E+00  0.39743895102E+02  0.00000000000E+00 0.  1.
         11    1    1    2    0    0  0.50990180620E+02  0.30472905903E+02 -0.88539760043E+02  0.10662028710E+03  0.00000000000E+00 0. -1.
</event>
<event>
 7    1  0.2841804E-009  0.1497314E+03  0.7561462E-02  0.1200803E+00
          1   -1    0    0  501    0  0.00000000000E+00  0.00000000000E+00  0.43977411180E+03  0.43977411180E+03  0.00000000000E+00 0. -1.
         -1   -1    0    0    0  501 -0.00000000000E+00 -0.00000000000E+00 -0.82475574139E+02  0.82475574139E+02  0.00000000000E+00 0.  1.
         25    2    1    2    0    0  0.12765168328E+03  0.13557606878E+02  0.30979344098E+03  0.35790592479E+03  0.12508362792E+03 0.  0.
          5    1    3    3  502    0  0.74511813608E+02  0.43534373195E+02  0.27343262468E+03  0.28675795482E+03  0.41800000000E+01 0. -1.
         -5    1    3    3    0  502  0.53139869671E+02 -0.29976766317E+02  0.36360816305E+02  0.71147969963E+02  0.41800000000E+01 0. -1.
        -11    1    1    2    0    0 -0.79385349055E+02  0.31948944615E+02  0.47776704354E+02  0.98007051714E+02  0.00000000000E+00 0. -1.
         11    1    1    2    0    0 -0.48266334224E+02 -0.45506551493E+02 -0.27160767803E+00  0.66336709437E+02  0.00000000000E+00 0.  1.
</event>
<event>
 7    1  0.2841804E-009  0.8456135E+02  0.7561462E-02  0.1316584E+00
          1   -1    0    0  501    0  0.00000000000E+00  0.00000000000E+00  0.12989940333E+03  0.12989940333E+03  0.00000000000E+00 0. -1.
         -1   -1    0    0    0  501 -0.00000000000E+00 -0.00000000000E+00 -0.13913866051E+03  0.13913866051E+03  0.00000000000E+00 0.  1.
         25    2    1    2    0    0  0.18803369897E+02  0.17576585642E+02  0.69147586507E+02  0.14523553542E+03  0.12509783750E+03 0.  0.
          5    1    3    3  502    0 -0.27862621452E+02  0.44413288004E+01  0.88414054956E+02  0.92900853545E+02  0.41800000000E+01 0. -1.
         -5    1    3    3    0  502  0.46665991349E+02  0.13135256842E+02 -0.19266468449E+02  0.52334681879E+02  0.41800000000E+01 0. -1.
        -11    1    1    2    0    0 -0.43818731465E+02  0.18891781702E+02 -0.57999226145E+02  0.75105864461E+02  0.00000000000E+00 0.  1.
         11    1    1    2    0    0  0.25015361568E+02 -0.36468367344E+02 -0.20387617546E+02  0.48696663955E+02  0.00000000000E+00 0. -1.
</event>
<event>
 7    1  0.2841804E-009  0.1173621E+03  0.7561462E-02  0.1247513E+00
         -2   -1    0    0    0  501 -0.00000000000E+00  0.00000000000E+00  0.29381366455E+02  0.29381366455E+02  0.00000000000E+00 0.  1.
          2   -1    0    0  501    0  0.00000000000E+00 -0.00000000000E+00 -0.69473562549E+03  0.69473562549E+03  0.00000000000E+00 0. -1.
         25    2    1    2    0    0 -0.91574345421E+02 -0.72958129909E+01 -0.39399415109E+03  0.42345745125E+03  0.12508290171E+03 0.  0.
          5    1    3    3  502    0 -0.34722443704E+02 -0.27827228685E+02 -0.33804451533E+03  0.34098617200E+03  0.41800000000E+01 0. -1.
         -5    1    3    3    0  502 -0.56851901718E+02  0.20531415694E+02 -0.55949635766E+02  0.82471279254E+02  0.41800000000E+01 0. -1.
        -11    1    1    2    0    0 -0.18782013030E+02 -0.70282816799E+00 -0.37623089833E+02  0.42056567495E+02  0.00000000000E+00 0.  1.
         11    1    1    2    0    0  0.11035635845E+03  0.79986411589E+01 -0.23373701811E+03  0.25860297319E+03  0.00000000000E+00 0. -1.
</event>
<event>
 7    1  0.3425209E-009  0.8375974E+02  0.7561462E-02  0.1318708E+00
          2   -1    0    0  501    0  0.00000000000E+00  0.00000000000E+00  0.69678474618E+03  0.69678474618E+03  0.00000000000E+00 0. -1.
         -2   -1    0    0    0  501 -0.00000000000E+00 -0.00000000000E+00 -0.26439960627E+02  0.26439960627E+02  0.00000000000E+00 0.  1.
         25    2    1    2    0    0  0.66841395065E+02 -0.43290314053E+02  0.41757274224E+03  0.44312119173E+03  0.12509025586E+03 0.  0.
          5    1    3    3  502    0  0.45578587871E+02 -0.14502461357E+02  0.40028895560E+03  0.40315809483E+03  0.41800000000E+01 0.  1.
         -5    1    3    3    0  502  0.21262807193E+02 -0.28787852696E+02  0.17283786643E+02  0.39963096894E+02  0.41800000000E+01 0.  1.
        -11    1    1    2    0    0 -0.13939395340E+02 -0.16818604228E+01 -0.36004918110E+01  0.14494790037E+02  0.00000000000E+00 0.  1.
         11    1    1    2    0    0 -0.52901999724E+02  0.44972174476E+02  0.25637253513E+03  0.26560872504E+03  0.00000000000E+00 0. -1.
</event>
<event>
 7    1  0.2841804E-009  0.1007678E+03  0.7561462E-02  0.1278690E+00
          2   -1    0    0  501    0  0.00000000000E+00  0.00000000000E+00  0.80688898690E+02  0.80688898690E+02  0.00000000000E+00 0. -1.
         -2   -1    0    0    0  501 -0.00000000000E+00 -0.00000000000E+00 -0.14899875591E+03  0.14899875591E+03  0.00000000000E+00 0.  1.
         25    2    1    2    0    0  0.88528195511E+01  0.13152622832E+02 -0.37906765566E+02  0.13169575745E+03  0.12512188359E+03 0.  0.
          5    1    3    3  502    0  0.13589186795E+01 -0.50152432325E+02  0.10642701950E+02  0.51457289405E+02  0.41800000000E+01 0.  1.
         -5    1    3    3    0  502  0.74939008716E+01  0.63305055157E+02 -0.48549467517E+02  0.80238468049E+02  0.41800000000E+01 0.  1.
        -11    1    1    2    0    0 -0.47173472925E+02 -0.13202865315E+02 -0.33808331540E+02  0.59520210701E+02  0.00000000000E+00 0.  1.
         11    1    1    2    0    0  0.38320653374E+02  0.50242483276E-01  0.34052398854E+01  0.38471686446E+02  0.00000000000E+00 0. -1.
</event>
<event>
 7    1  0.2841804E-009  0.1172238E+03  0.7561462E-02  0.1247749E+00
         -2   -1    0    0    0  501 -0.00000000000E+00  0.00000000000E+00  0.10543990092E+03  0.10543990092E+03  0.00000000000E+00 0.  1.
          2   -1    0    0  501    0  0.00000000000E+00 -0.00000000000E+00 -0.16009372674E+03  0.16009372674E+03  0.00000000000E+00 0. -1.
         25    2    1    2    0    0 -0.19744227147E+02  0.50355236379E+02 -0.76443165476E+02  0.15625778892E+03  0.12508978661E+03 0.  0.
          5    1    3    3  502    0 -0.39096748928E+01 -0.41984535992E+02 -0.20671035298E+02  0.47146059438E+02  0.41800000000E+01 0. -1.
         -5    1    3    3    0  502 -0.15834552254E+02  0.92339772371E+02 -0.55772130177E+02  0.10911172948E+03  0.41800000000E+01 0. -1.
        -11    1    1    2    0    0  0.37916807282E+02 -0.64801110183E+02 -0.32258489798E+01  0.75148348332E+02  0.00000000000E+00 0. -1.
         11    1    1    2    0    0 -0.18172580135E+02  0.14445873804E+02  0.25015188640E+02  0.34127490407E+02  0.00000000000E+00 0.  1.
</event>
<event>
 7    1  0.2841804E-009  0.3131635E+03  0.7561462E-02  0.1078839E+00
         -1   -1    0    0    0  501 -0.00000000000E+00  0.00000000000E+00  0.14880246580E+03  0.14880246580E+03  0.00000000000E+00 0.  1.
          1   -1    0    0  501    0  0.00000000000E+00 -0.00000000000E+00 -0.71523587297E+03  0.71523587297E+03  0.00000000000E+00 0. -1.
         25    2    1    2    0    0  0.17871986904E+03  0.24985053279E+03 -0.25728011851E+03  0.41977647318E+03  0.12511254027E+03 0.  0.
          5    1    3    3  502    0  0.70452376072E+02  0.12058443642E+03 -0.41214441436E+02  0.14567170687E+03  0.41800000000E+01 0. -1.
         -5    1    3    3    0  502  0.10826749297E+03  0.12926609637E+03 -0.21606567708E+03  0.27410476631E+03  0.41800000000E+01 0. -1.
        -11    1    1    2    0    0 -0.17756301220E+03 -0.19753347015E+03 -0.27132426000E+03  0.37969059667E+03  0.00000000000E+00 0. -1.
         11    1    1    2    0    0 -0.11568568359E+01 -0.52317062638E+02 -0.37829028656E+02  0.64571268919E+02  0.00000000000E+00 0.  1.
</event>
<event>
 7    1  0.2841804E-009  0.1368099E+03  0.7561462E-02  0.1217687E+00
         -1   -1    0    0    0  501 -0.00000000000E+00  0.00000000000E+00  0.40962050321E+02  0.40962050321E+02  0.00000000000E+00 0.  1.
          1   -1    0    0  501    0  0.00000000000E+00 -0.00000000000E+00 -0.55081740754E+03  0.55081740754E+03  0.00000000000E+00 0. -1.
         25    2    1    2    0    0  0.36055896040E+02  0.84276412432E+02 -0.18065208423E+03  0.23808790490E+03  0.12509250014E+03 0.  0.
          5    1    3    3  502    0  0.53497878502E+02 -0.46357501481E+01 -0.11218485426E+03  0.12444447400E+03  0.41800000000E+01 0.  1.
         -5    1    3    3    0  502 -0.17441982462E+02  0.88912162580E+02 -0.68467229971E+02  0.11364343090E+03  0.41800000000E+01 0.  1.
        -11    1    1    2    0    0 -0.21170254386E+02 -0.10299027573E+03 -0.27653257815E+03  0.29584699313E+03  0.00000000000E+00 0.  1.
         11    1    1    2    0    0 -0.14885641654E+02  0.18713863302E+02 -0.52670694843E+02  0.57844559834E+02  0.00000000000E+00 0. -1.
</event>
<event>
 7    1  0.2841804E-009  0.8431302E+02  0.7561462E-02  0.1317239E+00
          2   -1    0    0  501    0  0.00000000000E+00  0.00000000000E+00  0.67875726632E+03  0.67875726632E+03  0.00000000000E+00 0.  1.
         -2   -1    0    0    0  501 -0.00000000000E+00 -0.00000000000E+00 -0.20920728794E+02  0.20920728794E+02  0.00000000000E+00 0. -1.
         25    2    1    2    0    0  0.42258106985E+02  0.22487336158E+02  0.34299147530E+03  0.36821379698E+03  0.12508725059E+03 0.  0.
          5    1    3    3  502    0  0.51436244305E+02  0.21158763621E+02  0.35091490612E+03  0.35531974930E+03  0.41800000000E+01 0.  1.
         -5    1    3    3    0  502 -0.91781373201E+01  0.13285725371E+01 -0.79234308138E+01  0.12894047678E+02  0.41800000000E+01 0.  1.
        -11    1    1    2    0    0 -0.20142524714E+02 -0.57690154944E+02  0.16470729261E+03  0.17567688385E+03  0.00000000000E+00 0. -1.
         11    1    1    2    0    0 -0.22115582271E+02  0.35202818786E+02  0.15013776961E+03  0.15578731429E+03  0.00000000000E+00 0.  1.
</event>
<event>
 7    1  0.2841804E-009  0.2208821E+03  0.7561462E-02  0.1133227E+00
         -2   -1    0    0    0  501 -0.00000000000E+00  0.00000000000E+00  0.57389152440E+03  0.57389152440E+03  0.00000000000E+00 0. -1.
          2   -1    0    0  501    0  0.00000000000E+00 -0.00000000000E+00 -0.11244719612E+03  0.11244719612E+03  0.00000000000E+00 0.  1.
         25    2    1    2    0    0 -0.11118445627E+03  0.17786160568E+03  0.11235768095E+03  0.26882836269E+03  0.12509079113E+03 0.  0.
          5    1    3    3  502    0 -0.38480979520E+02  0.10550897742E+03 -0.55152830173E+01  0.11252031305E+03  0.41800000000E+01 0. -1.
         -5    1    3    3    0  502 -0.72703476745E+02  0.72352628260E+02  0.11787296397E+03  0.15630804964E+03  0.41800000000E+01 0. -1.
        -11    1    1    2    0    0  0.12130564813E+03 -0.17932146300E+03  0.34299733218E+03  0.40560869967E+03  0.00000000000E+00 0.  1.
         11    1    1    2    0    0 -0.10121191868E+02  0.14598573159E+01  0.60893151338E+01  0.11901658162E+02  0.00000000000E+00 0. -1.
</event>
<event>
 7    1  0.2841804E-009  0.1377849E+03  0.7561462E-02  0.1216341E+00
          1   -1    0    0  501    0  0.00000000000E+00  0.00000000000E+00  0.88212924834E+03  0.88212924834E+03  0.00000000000E+00 0. -1.
         -1   -1    0    0    0  501 -0.00000000000E+00 -0.00000000000E+00 -0.55544383590E+02  0.55544383590E+02  0.00000000000E+00 0.  1.
         25    2    1    2    0    0 -0.10277290948E+03  0.88930737349E+02  0.72045143713E+03  0.74375313319E+03  0.12508997923E+03 0.  0.
          5    1    3    3  502    0 -0.23304592533E+02  0.18244187373E+02  0.21688217400E+02  0.36929738424E+02  0.41800000000E+01 0. -1.
         -5    1    3    3    0  502 -0.79468316945E+02  0.70686549975E+02  0.69876321973E+03  0.70682339477E+03  0.41800000000E+01 0. -1.
        -11    1    1    2    0    0  0.76126174603E+02 -0.46709845910E+02  0.11244162861E+03  0.14359708914E+03  0.00000000000E+00 0.  1.
         11    1    1    2    0    0  0.26646734874E+02 -0.42220891439E+02 -0.63082009941E+01  0.50323409594E+02  0.00000000000E+00 0. -1.
</event>
<event>
 7    1  0.2841804E-009  0.7824281E+02  0.7561462E-02  0.1334113E+00
         -1   -1    0    0    0  501 -0.00000000000E+00  0.00000000000E+00  0.30442981851E+02  0.30442981851E+02  0.00000000000E+00 0.  1.
          1   -1    0    0  501    0  0.00000000000E+00 -0.00000000000E+00 -0.57019320366E+03  0.57019320366E+03  0.00000000000E+00 0. -1.
         25    2    1    2    0    0  0.49535196842E+02 -0.57532509998E+01 -0.42828367897E+03  0.44895585906E+03  0.12509043965E+03 0.  0.
          5    1    3    3  502    0  0.72400476259E+02 -0.35893063523E+01 -0.41654467886E+03  0.42282579625E+03  0.41800000000E+01 0. -1.
         -5    1    3    3    0  502 -0.22865279417E+02 -0.21639446474E+01 -0.11739000107E+02  0.26130062817E+02  0.41800000000E+01 0. -1.
        -11    1    1    2    0    0 -0.32058011502E+02 -0.13272052095E+02 -0.11965125661E+03  0.12458044259E+03  0.00000000000E+00 0. -1.
         11    1    1    2    0    0 -0.17477185340E+02  0.19025303094E+02  0.81847137746E+01  0.27099883852E+02  0.00000000000E+00 0.  1.
</event>
<event>
 7    1  0.3195780E-009  0.1435028E+03  0.7561462E-02  0.1208692E+00
         -1   -1    0    0    0  501 -0.00000000000E+00  0.00000000000E+00  0.30296107818E+02  0.30296107818E+02  0.00000000000E+00 0.  1.
          1   -1    0    0  501    0  0.00000000000E+00 -0.00000000000E+00 -0.70217479525E+03  0.70217479525E+03  0.00000000000E+00 0. -1.
         25    2    1    2    0    0  0.22411094566E+02  0.91551823626E+02 -0.42362170736E+03  0.45165542845E+03  0.12511307500E+03 0.  0.
          5    1    3    3  502    0  0.30434545679E+02  0.12150337917E+03 -0.34241466888E+03  0.36462941541E+03  0.41800000000E+01 0.  1.
         -5    1    3    3    0  502 -0.80234511124E+01 -0.29951555543E+02 -0.81207038475E+02  0.87026013037E+02  0.41800000000E+01 0.  1.
        -11    1    1    2    0    0  0.19978018266E+02 -0.85221027616E+02 -0.15104399651E+03  0.17457386300E+03  0.00000000000E+00 0. -1.
         11    1    1    2    0    0 -0.42389112832E+02 -0.63307960106E+01 -0.97212983571E+02  0.10624161162E+03  0.00000000000E+00 0.  1.
</event>
<event>
 7    1  0.2841804E-009  0.1157379E+03  0.7561462E-02  0.1250298E+00
         -4   -1    0    0    0  501 -0.00000000000E+00  0.00000000000E+00  0.55359386282E+02  0.55359386282E+02  0.00000000000E+00 0.  1.
          4   -1    0    0  501    0  0.00000000000E+00 -0.00000000000E+00 -0.30086063551E+03  0.30086063551E+03  0.00000000000E+00 0. -1.
         25    2    1    2    0    0 -0.30402891855E+02  0.49625814557E+02 -0.19590993308E+03  0.23962424741E+03  0.12510803637E+03 0.  0.
          5    1    3    3  502    0  0.41122576307E+02 -0.84525806655E+01 -0.88553236878E+02  0.98090063532E+02  0.41800000000E+01 0.  1.
         -5    1    3    3    0  502 -0.71525468162E+02  0.58078395222E+02 -0.10735669620E+03  0.14153418388E+03  0.41800000000E+01 0.  1.
        -11    1    1    2    0    0 -0.24119545512E+02 -0.12274448739E+01  0.60346396806E+01  0.24893291721E+02  0.00000000000E+00 0.  1.
         11    1    1    2    0    0  0.54522437367E+02 -0.48398369683E+02 -0.55625955835E+02  0.91702482666E+02  0.00000000000E+00 0. -1.
</event>
<event>
 7    1  0.2841804E-009  0.8682072E+02  0.7561462E-02  0.1310739E+00
          1   -1    0    0  501    0  0.00000000000E+00  0.00000000000E+00  0.34950544305E+03  0.34950544305E+03  0.00000000000E+00 0. -1.
         -1   -1    0    0    0  501 -0.00000000000E+00 -0.00000000000E+00 -0.40961411958E+02  0.40961411958E+02  0.00000000000E+00 0.  1.
         25    2    1    2    0    0 -0.28539166635E+02  0.38665627027E+02  0.19628763543E+03  0.23766593214E+03  0.12508694867E+03 0.  0.
          5    1    3    3  502    0  0.30300574690E+02  0.28926181678E+02  0.11783554103E+02  0.43716968791E+02  0.41800000000E+01 0. -1.
         -5    1    3    3    0  502 -0.58839741324E+02  0.97394453486E+01  0.18450408133E+03  0.19394896335E+03  0.41800000000E+01 0. -1.
        -11    1    1    2    0    0 -0.10920945438E+02  0.57509343401E+01 -0.10640518716E+02  0.16296040427E+02  0.00000000000E+00 0.  1.
         11    1    1    2    0    0  0.39460112073E+02 -0.44416561367E+02  0.12289691438E+03  0.13650488245E+03  0.00000000000E+00 0. -1.
</event>
<event>
 7    1  0.2841804E-009  0.1108528E+03  0.7561462E-02  0.1258999E+00
         -2   -1    0    0    0  501 -0.00000000000E+00  0.00000000000E+00  0.12033885929E+03  0.12033885929E+03  0.00000000000E+00 0.  1.
          2   -1    0    0  501    0  0.00000000000E+00 -0.00000000000E+00 -0.21838249588E+03  0.21838249588E+03  0.00000000000E+00 0. -1.
         25    2    1    2    0    0 -0.89415539700E+02 -0.44110887060E+02  0.17904891081E+02  0.16096262312E+03  0.12508985498E+03 0.  0.
          5    1    3    3  502    0 -0.26767786506E+02  0.13591443100E+02 -0.45519316841E+02  0.54687496977E+02  0.41800000000E+01 0. -1.
         -5    1    3    3    0  502 -0.62647753194E+02 -0.57702330160E+02  0.63424207922E+02  0.10627512614E+03  0.41800000000E+01 0. -1.
        -11    1    1    2    0    0  0.50377091140E+02  0.46157995545E+01 -0.15706215598E+01  0.50612486298E+02  0.00000000000E+00 0.  1.
         11    1    1    2    0    0  0.39038448560E+02  0.39495087506E+02 -0.11437790611E+03  0.12714624575E+03  0.00000000000E+00 0. -1.
</event>
<event>
 7    1  0.2841804E-009  0.1534545E+03  0.7561462E-02  0.1196291E+00
          2   -1    0    0  501    0  0.00000000000E+00  0.00000000000E+00  0.13741030161E+03  0.13741030161E+03  0.00000000000E+00 0.  1.
         -2   -1    0    0    0  501 -0.00000000000E+00 -0.00000000000E+00 -0.21030918937E+03  0.21030918937E+03  0.00000000000E+00 0. -1.
         25    2    1    2    0    0 -0.20670261328E+02  0.12562509512E+03 -0.72611290213E+02  0.19269144166E+03  0.12509463616E+03 0.  0.
          5    1    3    3  502    0  0.44754182715E+02  0.24300216458E+02 -0.46774358916E+02  0.69273013810E+02  0.41800000000E+01 0.  1.
         -5    1    3    3    0  502 -0.65424444043E+02  0.10132487866E+03 -0.25836931297E+02  0.12341842785E+03  0.41800000000E+01 0.  1.
        -11    1    1    2    0    0  0.22700989139E+02 -0.22429290150E+02  0.33650071370E+02  0.46376020396E+02  0.00000000000E+00 0.  1.
         11    1    1    2    0    0 -0.20307278115E+01 -0.10319580497E+03 -0.33937668924E+02  0.10865202893E+03  0.00000000000E+00 0. -1.
</event>
<event>
 7    1  0.2841804E-009  0.7021771E+02  0.7561462E-02  0.1359354E+00
          1   -1    0    0  501    0  0.00000000000E+00  0.00000000000E+00  0.37249887103E+03  0.37249887103E+03  0.00000000000E+00 0. -1.
         -1   -1    0    0    0  501 -0.00000000000E+00 -0.00000000000E+00 -0.44998196407E+02  0.44998196407E+02  0.00000000000E+00 0.  1.
         25    2    1    2    0    0 -0.44400637961E+02 -0.34062689910E+02  0.11797124056E+03  0.18082148528E+03  0.12509001737E+03 0.  0.
          5    1    3    3  502    0  0.12705059193E+02 -0.21473960851E+02 -0.19126339088E+02  0.31714961306E+02  0.41800000000E+01 0. -1.
         -5    1    3    3    0  502 -0.57105697154E+02 -0.12588729059E+02  0.13709757965E+03  0.14910652397E+03  0.41800000000E+01 0. -1.
        -11    1    1    2    0    0  0.99271820864E+01  0.37702622248E+01 -0.86659879278E+01  0.13706318550E+02  0.00000000000E+00 0.  1.
         11    1    1    2    0    0  0.34473455875E+02  0.30292427685E+02  0.21819542200E+03  0.22296926361E+03  0.00000000000E+00 0. -1.
</event>
<event>
 7    1  0.2841804E-009  0.1418961E+03  0.7561462E-02  0.1210800E+00
         -2   -1    0    0    0  501 -0.00000000000E+00  0.00000000000E+00  0.73550422356E+02  0.73550422356E+02  0.00000000000E+00 0.  1.
          2   -1    0    0  501    0  0.00000000000E+00 -0.00000000000E+00 -0.35389772091E+03  0.35389772091E+03  0.00000000000E+00 0. -1.
         25    2    1    2    0    0  0.96011789516E+02  0.67527334103E+02 -0.12550920888E+03  0.21255040721E+03  0.12508760736E+03 0.  0.
          5    1    3    3  502    0  0.51922563672E+02  0.98592397362E+02 -0.10914456819E+03  0.15603340220E+03  0.41800000000E+01 0.  1.
         -5    1    3    3    0  502  0.44089225844E+02 -0.31065063259E+02 -0.16364640688E+02  0.56517005013E+02  0.41800000000E+01 0.  1.
        -11    1    1    2    0    0 -0.31647998711E+02 -0.30406111045E+02 -0.12895275887E+03  0.13621652407E+03  0.00000000000E+00 0. -1.
         11    1    1    2    0    0 -0.64363790804E+02 -0.37121223057E+02 -0.25885330811E+02  0.78681211983E+02  0.00000000000E+00 0.  1.
</event>
<event>
 7    1  0.2841804E-009  0.9634852E+02  0.7561462E-02  0.1288167E+00
          2   -1    0    0  501    0  0.00000000000E+00  0.00000000000E+00  0.42140118173E+03  0.42140118173E+03  0.00000000000E+00 0. -1.
         -2   -1    0    0    0  501 -0.00000000000E+00 -0.00000000000E+00 -0.49920841109E+02  0.49920841109E+02  0.00000000000E+00 0.  1.
         25    2    1    2    0    0  0.21561985533E+02  0.12024099461E+02  0.34446664133E+03  0.36730615531E+03  0.12508815513E+03 0.  0.
          5    1    3    3  502    0 -0.21485188939E+02 -0.43119928259E+02  0.21198167845E+03  0.21742733489E+03  0.41800000000E+01 0.  1.
         -5    1    3    3    0  502  0.43047174473E+02  0.55144027720E+02  0.13248496288E+03  0.14987882043E+03  0.41800000000E+01 0.  1.
        -11    1    1    2    0    0  0.13639563278E+02 -0.31287210304E+02 -0.22048717668E+02  0.40633399635E+02  0.00000000000E+00 0.  1.
         11    1    1    2    0    0 -0.35201548812E+02  0.19263110843E+02  0.49062416952E+02  0.63382467886E+02  0.00000000000E+00 0. -1.
</event>
<event>
 7    1  0.2841804E-009  0.8560553E+02  0.7561462E-02  0.1313857E+00
         -1   -1    0    0    0  501 -0.00000000000E+00  0.00000000000E+00  0.22027563201E+02  0.22027563201E+02  0.00000000000E+00 0.  1.
          1   -1    0    0  501    0  0.00000000000E+00 -0.00000000000E+00 -0.71842023065E+03  0.71842023065E+03  0.00000000000E+00 0. -1.
         25    2    1    2    0    0  0.53623177541E+01 -0.13767834295E+02 -0.58337049676E+03  0.59681390828E+03  0.12508955558E+03 0.  0.
          5    1    3    3  502    0 -0.48005893736E+02  0.29158254221E+02 -0.30115478572E+03  0.30637631596E+03  0.41800000000E+01 0.  1.
         -5    1    3    3    0  502  0.53368211490E+02 -0.42926088516E+02 -0.28221571104E+03  0.29043759232E+03  0.41800000000E+01 0.  1.
        -11    1    1    2    0    0  0.19077049032E+02  0.10013469536E+02  0.57627805108E+01  0.22302757926E+02  0.00000000000E+00 0.  1.
         11    1    1    2    0    0 -0.24439366786E+02  0.37543647589E+01 -0.11878495119E+03  0.12133112764E+03  0.00000000000E+00 0. -1.
</event>
<event>
 7    1  0.2841804E-009  0.1105428E+03  0.7561462E-02  0.1259568E+00
          1   -1    0    0  501    0  0.00000000000E+00  0.00000000000E+00  0.16726821057E+04  0.16726821057E+04  0.00000000000E+00 0. -1.
         -1   -1    0    0    0  501 -0.00000000000E+00 -0.00000000000E+00 -0.13537382560E+02  0.13537382560E+02  0.00000000000E+00 0.  1.
         25    2    1    2    0    0 -0.93544680775E+02  0.10121862370E+02  0.11551552951E+04  0.11657117806E+04  0.12508852967E+03 0.  0.
          5    1    3    3  502    0 -0.18620496679E+02  0.20031458465E+02  0.87715438693E+03  0.87759060679E+03  0.41800000000E+01 0. -1.
         -5    1    3    3    0  502 -0.74924184096E+02 -0.99095960944E+01  0.27800090819E+03  0.28812117383E+03  0.41800000000E+01 0. -1.
        -11    1    1    2    0    0  0.54379628141E+02 -0.40794295688E+02  0.39359474884E+03  0.39942226382E+03  0.00000000000E+00 0. -1.
         11    1    1    2    0    0  0.39165052633E+02  0.30672433317E+02  0.11039467921E+03  0.12108544385E+03  0.00000000000E+00 0.  1.
</event>
<event>
 7    1  0.2841804E-009  0.9527635E+02  0.7561462E-02  0.1290555E+00
          2   -1    0    0  501    0  0.00000000000E+00  0.00000000000E+00  0.84452159050E+03  0.84452159050E+03  0.00000000000E+00 0. -1.
         -2   -1    0    0    0  501 -0.00000000000E+00 -0.00000000000E+00 -0.18198843801E+02  0.18198843801E+02  0.00000000000E+00 0.  1.
         25    2    1    2    0    0 -0.10998270056E+00  0.35345858762E+02  0.63251889832E+03  0.64573684583E+03  0.12508627220E+03 0.  0.
          5    1    3    3  502    0 -0.17938387159E+02  0.60010322750E+02  0.58973728022E+03  0.59306876216E+03  0.41800000000E+01 0. -1.
         -5    1    3    3    0  502  0.17828404458E+02 -0.24664463988E+02  0.42781618102E+02  0.52668083664E+02  0.41800000000E+01 0. -1.
        -11    1    1    2    0    0 -0.67835487867E+01 -0.65641076702E+02  0.12094882200E+03  0.13778020550E+03  0.00000000000E+00 0.  1.
         11    1    1    2    0    0  0.68935314873E+01  0.30295217939E+02  0.72855026379E+02  0.79203382977E+02  0.00000000000E+00 0. -1.
</event>
<event>
 7    1  0.3073652E-009  0.1273660E+03  0.7561462E-02  0.1231417E+00
          1   -1    0    0  501    0  0.00000000000E+00  0.00000000000E+00  0.16494097907E+03  0.16494097907E+03  0.00000000000E+00 0. -1.
         -1   -1    0    0    0  501 -0.00000000000E+00 -0.00000000000E+00 -0.14212847484E+03  0.14212847484E+03  0.00000000000E+00 0.  1.
         25    2    1    2    0    0 -0.89328684639E+02 -0.19866119834E+02 -0.43969387138E+02  0.16109771416E+03  0.12507953424E+03 0.  0.
          5    1    3    3  502    0 -0.19529035183E+02 -0.67445567427E+02 -0.22268561047E+02  0.73781088308E+02  0.41800000000E+01 0.  1.
         -5    1    3    3    0  502 -0.69799649456E+02  0.47579447594E+02 -0.21700826091E+02  0.87316625854E+02  0.41800000000E+01 0.  1.
        -11    1    1    2    0    0  0.18259452801E+02  0.22153491160E+02 -0.19094035017E+02  0.34478499973E+02  0.00000000000E+00 0.  1.
         11    1    1    2    0    0  0.71069231838E+02 -0.22873713269E+01  0.85875926386E+02  0.11149323977E+03  0.00000000000E+00 0. -1.
</event>
<event>
 7    1  0.2841804E-009  0.1162147E+03  0.7561462E-02  0.1249475E+00
          1   -1    0    0  501    0  0.00000000000E+00  0.00000000000E+00  0.89049690922E+02  0.89049690922E+02  0.00000000000E+00 0. -1.
         -1   -1    0    0    0  501 -0.00000000000E+00 -0.00000000000E+00 -0.20647670292E+03  0.20647670292E+03  0.00000000000E+00 0.  1.
         25    2    1    2    0    0  0.56823923761E+02 -0.13450641190E+02 -0.12340337914E+01  0.13805467783E+03  0.12509073975E+03 0.  0.
          5    1    3    3  502    0 -0.16351933491E+02 -0.51680789733E+02 -0.86727806526E+01  0.55054330262E+02  0.41800000000E+01 0. -1.
         -5    1    3    3    0  502  0.73175857252E+02  0.38230148543E+02  0.74387468612E+01  0.83000347572E+02  0.41800000000E+01 0. -1.
        -11    1    1    2    0    0 -0.47792973991E+02  0.43127850910E+02 -0.10742244530E+03  0.12523482599E+03  0.00000000000E+00 0.  1.
         11    1    1    2    0    0 -0.90309497700E+01 -0.29677209720E+02 -0.87705329065E+01  0.32236890017E+02  0.00000000000E+00 0. -1.
</event>
<event>
 7    1  0.2841804E-009  0.2157769E+03  0.7561462E-02  0.1137071E+00
          1   -1    0    0  501    0  0.00000000000E+00  0.00000000000E+00  0.52910303369E+03  0.52910303369E+03  0.00000000000E+00 0. -1.
         -1   -1    0    0    0  501 -0.00000000000E+00 -0.00000000000E+00 -0.98607783389E+02  0.98607783389E+02  0.00000000000E+00 0.  1.
         25    2    1    2    0    0  0.18743987964E+03  0.71691275299E+02  0.22962071268E+03  0.32960920638E+03  0.12507281802E+03 0.  0.
          5    1    3    3  502    0  0.11742150162E+03  0.10071330095E+03  0.18636385712E+03  0.24223942221E+03  0.41800000000E+01 0. -1.
         -5    1    3    3    0  502  0.70018378014E+02 -0.29022025655E+02  0.43256855558E+02  0.87369784168E+02  0.41800000000E+01 0. -1.
        -11    1    1    2    0    0 -0.98223337190E+02 -0.32668298936E+02  0.41896152639E+02  0.11167062877E+03  0.00000000000E+00 0.  1.
         11    1    1    2    0    0 -0.89216542449E+02 -0.39022976363E+02  0.15897838499E+03  0.18643098194E+03  0.00000000000E+00 0. -1.
</event>
<event>
 7    1  0.2841804E-009  0.1246599E+03  0.7561462E-02  0.1235602E+00
         -1   -1    0    0    0  501 -0.00000000000E+00  0.00000000000E+00  0.23875609804E+03  0.23875609804E+03  0.00000000000E+00 0.  1.
          1   -1    0    0  501    0  0.00000000000E+00 -0.00000000000E+00 -0.81325973372E+02  0.81325973372E+02  0.00000000000E+00 0. -1.
         25    2    1    2    0    0  0.74950632060E+02 -0.13286180283E+02  0.38088139898E+02  0.15130191019E+03  0.12508973496E+03 0.  0.
          5    1    3    3  502    0  0.18833565322E+02  0.54416195356E+02  0.22137059854E+02  0.61833221805E+02  0.41800000000E+01 0.  1.
         -5    1    3    3    0  502  0.56117066737E+02 -0.67702375639E+02  0.15951080044E+02  0.89468688383E+02  0.41800000000E+01 0.  1.
        -11    1    1    2    0    0  0.24033070777E+01 -0.19418319974E+02  0.67052094508E+02  0.69848624993E+02  0.00000000000E+00 0.  1.
         11    1    1    2    0    0 -0.77353939137E+02  0.32704500258E+02  0.52289890257E+02  0.98931536227E+02  0.00000000000E+00 0. -1.
</event>
<event>
 7    1  0.2841804E-009  0.1224269E+03  0.7561462E-02  0.1239146E+00
         -3   -1    0    0    0  501 -0.00000000000E+00  0.00000000000E+00  0.20827815097E+02  0.20827815097E+02  0.00000000000E+00 0.  1.
          3   -1    0    0  501    0  0.00000000000E+00 -0.00000000000E+00 -0.86029154112E+03  0.86029154112E+03  0.00000000000E+00 0. -1.
         25    2    1    2    0    0  0.66924251162E+02 -0.36059249956E+02 -0.49425337882E+03  0.51547282224E+03  0.12508678225E+03 0.  0.
          5    1    3    3  502    0  0.25337552107E+02  0.36004026058E+02 -0.67726379324E+02  0.80886440739E+02  0.41800000000E+01 0. -1.
         -5    1    3    3    0  502  0.41586699055E+02 -0.72063276014E+02 -0.42652699949E+03  0.43458638150E+03  0.41800000000E+01 0. -1.
        -11    1    1    2    0    0 -0.64840148226E+02 -0.14728976305E+02 -0.23596696744E+03  0.24515627116E+03  0.00000000000E+00 0. -1.
         11    1    1    2    0    0 -0.20841029367E+01  0.50788226262E+02 -0.10924337976E+03  0.12049026282E+03  0.00000000000E+00 0.  1.
</event>
<event>
 7    1  0.2841804E-009  0.1029780E+03  0.7561462E-02  0.1274155E+00
          1   -1    0    0  501    0  0.00000000000E+00  0.00000000000E+00  0.80221131485E+02  0.80221131485E+02  0.00000000000E+00 0. -1.
         -1   -1    0    0    0  501 -0.00000000000E+00 -0.00000000000E+00 -0.17307412356E+03  0.17307412356E+03  0.00000000000E+00 0.  1.
         25    2    1    2    0    0  0.32273043621E+01  0.43229141449E+02 -0.29887804435E+02  0.13569796147E+03  0.12506590954E+03 0.  0.
          5    1    3    3  502    0  0.34283057074E+02 -0.33466205341E+02 -0.20640010093E+02  0.52333520032E+02  0.41800000000E+01 0.  1.
         -5    1    3    3    0  502 -0.31055752712E+02  0.76695346790E+02 -0.92477943417E+01  0.83364441436E+02  0.41800000000E+01 0.  1.
        -11    1    1    2    0    0  0.28722698832E+02 -0.15118358852E+02 -0.67402218813E+02  0.74810542729E+02  0.00000000000E+00 0.  1.
         11    1    1    2    0    0 -0.31950003194E+02 -0.28110782598E+02  0.44370311734E+01  0.42786750847E+02  0.00000000000E+00 0. -1.
</event>
<event>
 7    1  0.2841804E-009  0.1367366E+03  0.7561462E-02  0.1217789E+00
          1   -1    0    0  501    0  0.00000000000E+00  0.00000000000E+00  0.91497547982E+03  0.91497547982E+03  0.00000000000E+00 0. -1.
         -1   -1    0    0    0  501 -0.00000000000E+00 -0.00000000000E+00 -0.22938129471E+02  0.22938129471E+02  0.00000000000E+00 0.  1.
         25    2    1    2    0    0 -0.86136579679E+02  0.34302929004E+02  0.55196242803E+03  0.57350499114E+03  0.12509696885E+03 0.  0.
          5    1    3    3  502    0 -0.11211925002E+03  0.26263753578E+02  0.51314390736E+03  0.52592266831E+03  0.41800000000E+01 0. -1.
         -5    1    3    3    0  502  0.25982670345E+02  0.80391754263E+01  0.38818520668E+02  0.47582322838E+02  0.41800000000E+01 0. -1.
        -11    1    1    2    0    0  0.25711432371E+02  0.31979942626E+02  0.97500415324E+02  0.10578338940E+03  0.00000000000E+00 0.  1.
         11    1    1    2    0    0  0.60425147307E+02 -0.66282871630E+02  0.24257450700E+03  0.25862522875E+03  0.00000000000E+00 0. -1.
</event>
<event>
 7    1  0.2841804E-009  0.9634989E+02  0.7561462E-02  0.1288164E+00
          1   -1    0    0  501    0  0.00000000000E+00  0.00000000000E+00  0.43168931450E+03  0.43168931450E+03  0.00000000000E+00 0. -1.
         -1   -1    0    0    0  501 -0.00000000000E+00 -0.00000000000E+00 -0.34677473755E+02  0.34677473755E+02  0.00000000000E+00 0.  1.
         25    2    1    2    0    0 -0.32911052743E+02 -0.16388666199E+02  0.30353144568E+03  0.33034920647E+03  0.12509010322E+03 0.  0.
          5    1    3    3  502    0 -0.73692303802E+02 -0.27990738432E+02  0.24859782659E+03  0.26083019163E+03  0.41800000000E+01 0. -1.
         -5    1    3    3    0  502  0.40781251059E+02  0.11602072233E+02  0.54933619088E+02  0.69519014839E+02  0.41800000000E+01 0. -1.
        -11    1    1    2    0    0  0.25278789598E+01  0.35284594874E+02  0.93786774839E+02  0.10023648010E+03  0.00000000000E+00 0. -1.
         11    1    1    2    0    0  0.30383173783E+02 -0.18895928675E+02 -0.30637977693E+00  0.35781101691E+02  0.00000000000E+00 0.  1.
</event>
<event>
 7    1  0.2841804E-009  0.1997686E+03  0.7561462E-02  0.1149934E+00
         -2   -1    0    0    0  501 -0.00000000000E+00  0.00000000000E+00  0.12238935299E+03  0.12238935299E+03  0.00000000000E+00 0.  1.
          2   -1    0    0  501    0  0.00000000000E+00 -0.00000000000E+00 -0.40782699785E+03  0.40782699785E+03  0.00000000000E+00 0. -1.
         25    2    1    2    0    0 -0.13923410644E+03 -0.11985185107E+03 -0.70992585688E+02  0.23331828499E+03  0.12508745855E+03 0.  0.
          5    1    3    3  502    0 -0.20544052984E+02 -0.57157776908E+02 -0.77872182538E+02  0.98846440438E+02  0.41800000000E+01 0. -1.
         -5    1    3    3    0  502 -0.11869005345E+03 -0.62694074162E+02  0.68795968500E+01  0.13447184455E+03  0.41800000000E+01 0. -1.
        -11    1    1    2    0    0  0.90276643841E+02  0.12601636954E+03 -0.14976424515E+03  0.21554425750E+03  0.00000000000E+00 0. -1.
         11    1    1    2    0    0  0.48957462596E+02 -0.61645184745E+01 -0.64680814017E+02  0.81353808355E+02  0.00000000000E+00 0.  1.
</event>
<event>
 7    1  0.2841804E-009  0.1190909E+03  0.7561462E-02  0.1244604E+00
         -3   -1    0    0    0  501 -0.00000000000E+00  0.00000000000E+00  0.83881288911E+02  0.83881288911E+02  0.00000000000E+00 0.  1.
          3   -1    0    0  501    0  0.00000000000E+00 -0.00000000000E+00 -0.20865174925E+03  0.20865174925E+03  0.00000000000E+00 0. -1.
         25    2    1    2    0    0  0.46399746500E+02 -0.31133182761E+02 -0.25095368578E+02  0.13927974944E+03  0.12508740758E+03 0.  0.
          5    1    3    3  502    0  0.25840488254E+02  0.47161872960E+02 -0.21732561589E+02  0.58152813582E+02  0.41800000000E+01 0. -1.
         -5    1    3    3    0  502  0.20559258246E+02 -0.78295055721E+02 -0.33628069895E+01  0.81126935853E+02  0.41800000000E+01 0. -1.
        -11    1    1    2    0    0 -0.47241696829E+02 -0.20533953600E+02 -0.14302512654E+02  0.53460106977E+02  0.00000000000E+00 0.  1.
         11    1    1    2    0    0  0.84195032978E+00  0.51667136361E+02 -0.85372579103E+02  0.99793181745E+02  0.00000000000E+00 0. -1.
</event>
<event>
 7    1  0.2841804E-009  0.1919072E+03  0.7561462E-02  0.1156752E+00
         -1   -1    0    0    0  501 -0.00000000000E+00  0.00000000000E+00  0.32859883746E+02  0.32859883746E+02  0.00000000000E+00 0.  1.
          1   -1    0    0  501    0  0.00000000000E+00 -0.00000000000E+00 -0.13397022512E+04  0.13397022512E+04  0.00000000000E+00 0. -1.
         25    2    1    2    0    0 -0.17716554799E+03  0.19180477073E+02 -0.58827956946E+03  0.62727713198E+03  0.12509287096E+03 0.  0.
          5    1    3    3  502    0 -0.11839532170E+03 -0.36647548537E+02 -0.24579271110E+03  0.27530351295E+03  0.41800000000E+01 0.  1.
         -5    1    3    3    0  502 -0.58770226289E+02  0.55828025610E+02 -0.34248685836E+03  0.35197361903E+03  0.41800000000E+01 0.  1.
        -11    1    1    2    0    0  0.77947839658E+02 -0.14687592266E+02 -0.16735403486E+03  0.18519979497E+03  0.00000000000E+00 0.  1.
         11    1    1    2    0    0  0.99217708327E+02 -0.44928848068E+01 -0.55120876318E+03  0.56008520804E+03  0.00000000000E+00 0. -1.
</event>
<event>
 7    1  0.2841804E-009  0.1494178E+03  0.7561462E-02  0.1201190E+00
         -1   -1    0    0    0  501 -0.00000000000E+00  0.00000000000E+00  0.71666165612E+03  0.71666165612E+03  0.00000000000E+00 0.  1.
          1   -1    0    0  501    0  0.00000000000E+00 -0.00000000000E+00 -0.60787830792E+02  0.60787830792E+02  0.00000000000E+00 0. -1.
         25    2    1    2    0    0 -0.76718725459E+00  0.12135371002E+03  0.57912103579E+03  0.60478022200E+03  0.12510248323E+03 0.  0.
          5    1    3    3  502    0 -0.51876883820E+02  0.63010958745E+02  0.17344614113E+03  0.19173582938E+03  0.41800000000E+01 0. -1.
         -5    1    3    3    0  502  0.51109696566E+02  0.58342751274E+02  0.40567489466E+03  0.41304439261E+03  0.41800000000E+01 0. -1.
        -11    1    1    2    0    0  0.87520208731E+01  0.67681361418E+01  0.36493701925E+02  0.38133919499E+02  0.00000000000E+00 0.  1.
         11    1    1    2    0    0 -0.79848336185E+01 -0.12812184616E+03  0.40259087615E+02  0.13453534542E+03  0.00000000000E+00 0. -1.
</event>
<event>
 7    1  0.2841804E-009  0.6639273E+02  0.7561462E-02  0.1372808E+00
          1   -1    0    0  501    0  0.00000000000E+00  0.00000000000E+00  0.24975931586E+03  0.24975931586E+03  0.00000000000E+00 0. -1.
         -1   -1    0    0    0  501 -0.00000000000E+00 -0.00000000000E+00 -0.77686847599E+02  0.77686847599E+02  0.00000000000E+00 0.  1.
         25    2    1    2    0    0 -0.38082858754E+02  0.10156952930E+02  0.19660390232E+01  0.13116624187E+03  0.12508896783E+03 0.  0.
          5    1    3    3  502    0 -0.40175906589E+02  0.72413406041E+01 -0.57943858699E+02  0.71003546706E+02  0.41800000000E+01 0. -1.
         -5    1    3    3    0  502  0.20930478344E+01  0.29156123257E+01  0.59909897722E+02  0.60162695165E+02  0.41800000000E+01 0. -1.
        -11    1    1    2    0    0 -0.23650761243E+02  0.14960835303E+00  0.97932760642E+02  0.10074823322E+03  0.00000000000E+00 0. -1.
         11    1    1    2    0    0  0.61733619997E+02 -0.10306561283E+02  0.72173668594E+02  0.95531688365E+02  0.00000000000E+00 0.  1.
</event>
<event>
 7    1  0.2841804E-009  0.1089331E+03  0.7561462E-02  0.1262558E+00
         -2   -1    0    0    0  501 -0.00000000000E+00  0.00000000000E+00  0.11387174877E+02  0.11387174877E+02  0.00000000000E+00 0.  1.
          2   -1    0    0  501    0  0.00000000000E+00 -0.00000000000E+00 -0.20063766412E+04  0.20063766412E+04  0.00000000000E+00 0. -1.
         25    2    1    2    0    0 -0.10202798374E+02 -0.49243004589E+02 -0.17234065460E+04  0.17286718114E+04  0.12508852072E+03 0.  0.
          5    1    3    3  502    0  0.47777940344E+01 -0.88411281311E+02 -0.95294046552E+03  0.95705401373E+03  0.41800000000E+01 0.  1.
         -5    1    3    3    0  502 -0.14980592408E+02  0.39168276722E+02 -0.77046608050E+03  0.77161779765E+03  0.41800000000E+01 0.  1.
        -11    1    1    2    0    0  0.22425779088E+02 -0.11445100220E+02 -0.27517556969E+02  0.37297745619E+02  0.00000000000E+00 0.  1.
         11    1    1    2    0    0 -0.12222980714E+02  0.60688104808E+02 -0.24406536332E+03  0.25179425906E+03  0.00000000000E+00 0. -1.
</event>
<event>
 7    1  0.2841804E-009  0.9306608E+02  0.7561462E-02  0.1295592E+00
         -3   -1    0    0    0  501 -0.00000000000E+00  0.00000000000E+00  0.25025998731E+02  0.25025998731E+02  0.00000000000E+00 0.  1.
          3   -1    0    0  501    0  0.00000000000E+00 -0.00000000000E+00 -0.48275709983E+03  0.48275709983E+03  0.00000000000E+00 0. -1.
         25    2    1    2    0    0 -0.67287640897E+01 -0.19310667950E+02 -0.26433495274E+03  0.29315300130E+03  0.12509011459E+03 0.  0.
          5    1    3    3  502    0  0.37577562692E+02  0.14946342945E+02 -0.21370871948E+03  0.21754161802E+03  0.41800000000E+01 0.  1.
         -5    1    3    3    0  502 -0.44306326781E+02 -0.34257010896E+02 -0.50626233258E+02  0.75611383285E+02  0.41800000000E+01 0.  1.
        -11    1    1    2    0    0 -0.24056892793E+02  0.43803296810E+02 -0.77280328028E+02  0.92031038255E+02  0.00000000000E+00 0.  1.
         11    1    1    2    0    0  0.30785656883E+02 -0.24492628860E+02 -0.11611582033E+03  0.12259905900E+03  0.00000000000E+00 0. -1.
</event>
<event>
 7    1  0.2841804E-009  0.1117812E+03  0.7561462E-02  0.1257307E+00
          1   -1    0    0  501    0  0.00000000000E+00  0.00000000000E+00  0.12439168185E+03  0.12439168185E+03  0.00000000000E+00 0. -1.
         -1   -1    0    0    0  501 -0.00000000000E+00 -0.00000000000E+00 -0.10592808094E+03  0.10592808094E+03  0.00000000000E+00 0.  1.
         25    2    1    2    0    0 -0.36369945242E+02  0.10616524579E+02  0.23135669430E+02  0.13272987059E+03  0.12508587385E+03 0.  0.
          5    1    3    3  502    0 -0.75830176948E+02 -0.20137365016E+02  0.25118754777E+02  0.82487292641E+02  0.41800000000E+01 0.  1.
         -5    1    3    3    0  502  0.39460231706E+02  0.30753889594E+02 -0.19830853471E+01  0.50242577949E+02  0.41800000000E+01 0.  1.
        -11    1    1    2    0    0  0.14326316229E+02  0.38431698622E+02 -0.13322352964E+02  0.43124516045E+02  0.00000000000E+00 0.  1.
         11    1    1    2    0    0  0.22043629014E+02 -0.49048223200E+02  0.86502844420E+01  0.54465376159E+02  0.00000000000E+00 0. -1.
</event>
<event>
 7    1  0.2841804E-009  0.9339051E+02  0.7561462E-02  0.1294843E+00
          1   -1    0    0  501    0  0.00000000000E+00  0.00000000000E+00  0.45851731227E+02  0.45851731227E+02  0.00000000000E+00 0. -1.
         -1   -1    0    0    0  501 -0.00000000000E+00 -0.00000000000E+00 -0.29429170703E+03  0.29429170703E+03  0.00000000000E+00 0.  1.
         25    2    1    2    0    0  0.76767070473E+01  0.28710928185E+02 -0.98324487746E+02  0.16185825257E+03  0.12508852788E+03 0.  0.
          5    1    3    3  502    0  0.24360010539E+02  0.71374152530E+02 -0.34133080658E+02  0.82886786390E+02  0.41800000000E+01 0.  1.
         -5    1    3    3    0  502 -0.16683303492E+02 -0.42663224345E+02 -0.64191407087E+02  0.78971466181E+02  0.41800000000E+01 0.  1.
        -11    1    1    2    0    0 -0.32720096086E+02 -0.21632205829E+02 -0.14691907865E+03  0.15206502783E+03  0.00000000000E+00 0.  1.
         11    1    1    2    0    0  0.25043389039E+02 -0.70787223563E+01 -0.31964094015E+01  0.26220157852E+02  0.00000000000E+00 0. -1.
</event>
<event>
 7    1  0.2841804E-009  0.1389980E+03  0.7561462E-02  0.1214684E+00
          2   -1    0    0  501    0  0.00000000000E+00  0.00000000000E+00  0.11294374835E+03  0.11294374835E+03  0.00000000000E+00 0. -1.
         -2   -1    0    0    0  501 -0.00000000000E+00 -0.00000000000E+00 -0.27085449954E+03  0.27085449954E+03  0.00000000000E+00 0.  1.
         25    2    1    2    0    0  0.64310184240E+00 -0.11721340060E+03 -0.16153700037E+03  0.23554319584E+03  0.12508796808E+03 0.  0.
          5    1    3    3  502    0 -0.25808636385E+02 -0.13358811841E+02 -0.11489749478E+03  0.11858941889E+03  0.41800000000E+01 0.  1.
         -5    1    3    3    0  502  0.26451738227E+02 -0.10385458876E+03 -0.46639505591E+02  0.11695377695E+03  0.41800000000E+01 0.  1.
        -11    1    1    2    0    0  0.39090760730E+02  0.52679499807E+02  0.23879656046E+02  0.69810137138E+02  0.00000000000E+00 0.  1.
         11    1    1    2    0    0 -0.39733862572E+02  0.64533900793E+02 -0.20253406870E+02  0.78444914917E+02  0.00000000000E+00 0. -1.
</event>
<event>
 7    1  0.2841804E-009  0.2190845E+03  0.7561462E-02  0.1134567E+00
          1   -1    0    0  501    0  0.00000000000E+00  0.00000000000E+00  0.27848577539E+03  0.27848577539E+03  0.00000000000E+00 0. -1.
         -1   -1    0    0    0  501 -0.00000000000E+00 -0.00000000000E+00 -0.28284494742E+03  0.28284494742E+03  0.00000000000E+00 0.  1.
         25    2    1    2    0    0 -0.16169741427E+03  0.12355750454E+03 -0.16152317153E+03  0.28835632077E+03  0.12508845701E+03 0.  0.
          5    1    3    3  502    0 -0.21506777929E+02  0.72890527100E+02 -0.11768368090E+02  0.77016474376E+02  0.41800000000E+01 0. -1.
         -5    1    3    3    0  502 -0.14019063634E+03  0.50666977438E+02 -0.14975480344E+03  0.21133984639E+03  0.41800000000E+01 0. -1.
        -11    1    1    2    0    0  0.63063861151E+02 -0.87622333046E+02  0.38682893314E+02  0.11467820223E+03  0.00000000000E+00 0.  1.
         11    1    1    2    0    0  0.98633553115E+02 -0.35935171493E+02  0.11848110619E+03  0.15829619981E+03  0.00000000000E+00 0. -1.
</event>
<event>
 7    1  0.2841804E-009  0.1486625E+03  0.7561462E-02  0.1202126E+00
         -2   -1    0    0    0  501 -0.00000000000E+00  0.00000000000E+00  0.11173236584E+03  0.11173236584E+03  0.00000000000E+00 0.  1.
          2   -1    0    0  501    0  0.00000000000E+00 -0.00000000000E+00 -0.29534419913E+03  0.29534419913E+03  0.00000000000E+00 0. -1.
         25    2    1    2    0    0  0.72180405014E+02 -0.11994588217E+03 -0.52825075339E+02  0.19502626080E+03  0.12509088017E+03 0.  0.
          5    1    3    3  502    0  0.53829751073E+01  0.74847929367E+01 -0.50048737957E+02  0.51062188725E+02  0.41800000000E+01 0.  1.
         -5    1    3    3    0  502  0.66797429906E+02 -0.12743067510E+03 -0.27763373814E+01  0.14396407208E+03  0.41800000000E+01 0.  1.
        -11    1    1    2    0    0 -0.55779790229E+02  0.63669874413E+02 -0.12788459604E+03  0.15336136348E+03  0.00000000000E+00 0. -1.
         11    1    1    2    0    0 -0.16400614785E+02  0.56276007755E+02 -0.29021619139E+01  0.58688940678E+02  0.00000000000E+00 0.  1.
</event>
<event>
 7    1  0.2841804E-009  0.9964562E+02  0.7561462E-02  0.1281043E+00
          1   -1    0    0  501    0  0.00000000000E+00  0.00000000000E+00  0.24938628667E+03  0.24938628667E+03  0.00000000000E+00 0.  1.
         -1   -1    0    0    0  501 -0.00000000000E+00 -0.00000000000E+00 -0.75942394402E+02  0.75942394402E+02  0.00000000000E+00 0. -1.
         25    2    1    2    0    0 -0.75208793958E+02 -0.10937051030E+02  0.14119377960E+03  0.20336677152E+03  0.12508548511E+03 0.  0.
          5    1    3    3  502    0 -0.87650241642E+02  0.14889597293E+02  0.14882448562E+03  0.17340837606E+03  0.41800000000E+01 0. -1.
         -5    1    3    3    0  502  0.12441447684E+02 -0.25826648324E+02 -0.76307060194E+01  0.29958395459E+02  0.41800000000E+01 0. -1.
        -11    1    1    2    0    0  0.84836960768E+01  0.11864106935E+02 -0.28310708727E+02  0.31846920747E+02  0.00000000000E+00 0. -1.
         11    1    1    2    0    0  0.66725097881E+02 -0.92705590451E+00  0.60560821395E+02  0.90114988808E+02  0.00000000000E+00 0.  1.
</event>
<event>
 7    1  0.2841804E-009  0.1413035E+03  0.7561462E-02  0.1211586E+00
          1   -1    0    0  501    0  0.00000000000E+00  0.00000000000E+00  0.38456839529E+02  0.38456839529E+02  0.00000000000E+00 0. -1.
         -1   -1    0    0    0  501 -0.00000000000E+00 -0.00000000000E+00 -0.76933273866E+03  0.76933273866E+03  0.00000000000E+00 0.  1.
         25    2    1    2    0    0  0.10893400075E+03 -0.29347153176E+02 -0.22103049419E+03  0.27789843415E+03  0.12508072761E+03 0.  0.
          5    1    3    3  502    0  0.12317230668E+03  0.11469584704E+02 -0.14807068332E+03  0.19299059087E+03  0.41800000000E+01 0.  1.
         -5    1    3    3    0  502 -0.14238305931E+02 -0.40816737880E+02 -0.72959810872E+02  0.84907843274E+02  0.41800000000E+01 0.  1.
        -11    1    1    2    0    0 -0.77530659005E+02  0.91631057268E+01 -0.46515290812E+03  0.47165898011E+03  0.00000000000E+00 0.  1.
         11    1    1    2    0    0 -0.31403341742E+02  0.20184047449E+02 -0.44692496823E+02  0.58232163932E+02  0.00000000000E+00 0. -1.
</event>
<event>
 7    1  0.2841804E-009  0.9793417E+02  0.7561462E-02  0.1284701E+00
         -2   -1    0    0    0  501 -0.00000000000E+00  0.00000000000E+00  0.17931441934E+02  0.17931441934E+02  0.00000000000E+00 0.  1.
          2   -1    0    0  501    0  0.00000000000E+00 -0.00000000000E+00 -0.96998778777E+03  0.96998778777E+03  0.00000000000E+00 0. -1.
         25    2    1    2    0    0  0.15583819090E+02 -0.69102858097E+02 -0.62550602935E+03  0.64181518627E+03  0.12510347780E+03 0.  0.
          5    1    3    3  502    0  0.82173895660E+01 -0.78465961151E+02 -0.18544647149E+03  0.20157454884E+03  0.41800000000E+01 0. -1.
         -5    1    3    3    0  502  0.73664295237E+01  0.93631030535E+01 -0.44005955786E+03  0.44024063743E+03  0.41800000000E+01 0. -1.
        -11    1    1    2    0    0 -0.28762236287E+02 -0.48073185774E+01 -0.16999619233E+03  0.17247922181E+03  0.00000000000E+00 0. -1.
         11    1    1    2    0    0  0.13178417197E+02  0.73910176675E+02 -0.15655412416E+03  0.17362482163E+03  0.00000000000E+00 0.  1.
</event>
<event>
 7    1  0.2841804E-009  0.8983748E+02  0.7561462E-02  0.1303246E+00
         -1   -1    0    0    0  501 -0.00000000000E+00  0.00000000000E+00  0.12974135997E+03  0.12974135997E+03  0.00000000000E+00 0.  1.
          1   -1    0    0  501    0  0.00000000000E+00 -0.00000000000E+00 -0.15709210993E+03  0.15709210993E+03  0.00000000000E+00 0. -1.
         25    2    1    2    0    0 -0.13563272384E+02 -0.54601435837E+01 -0.57268678049E+02  0.13835070022E+03  0.12508972475E+03 0.  0.
          5    1    3    3  502    0 -0.28220994076E+02 -0.87489651923E+01  0.34300212239E+02  0.45463676251E+02  0.41800000000E+01 0. -1.
         -5    1    3    3    0  502  0.14657721692E+02  0.32888216086E+01 -0.91568890287E+02  0.92887023966E+02  0.41800000000E+01 0. -1.
        -11    1    1    2    0    0 -0.60279839521E+02  0.31733263703E+01 -0.14764864291E+02  0.62142821552E+02  0.00000000000E+00 0. -1.
         11    1    1    2    0    0  0.73843111905E+02  0.22868172134E+01  0.44682792378E+02  0.86339948132E+02  0.00000000000E+00 0.  1.
</event>
<event>
 7    1  0.2841804E-009  0.1449290E+03  0.7561462E-02  0.1206846E+00
          2   -1    0    0  501    0  0.00000000000E+00  0.00000000000E+00  0.16120110350E+04  0.16120110350E+04  0.00000000000E+00 0. -1.
         -2   -1    0    0    0  501 -0.00000000000E+00 -0.00000000000E+00 -0.16642210889E+02  0.16642210889E+02  0.00000000000E+00 0.  1.
         25    2    1    2    0    0  0.11172278381E+03  0.14184498499E+02  0.10902622417E+04  0.11031780588E+04  0.12508754325E+03 0.  0.
          5    1    3    3  502    0  0.13892299459E+03  0.46972803734E+01  0.88384876594E+03  0.89472217829E+03  0.41800000000E+01 0.  1.
         -5    1    3    3    0  502 -0.27200210774E+02  0.94872181256E+01  0.20641347573E+03  0.20845588055E+03  0.41800000000E+01 0.  1.
        -11    1    1    2    0    0 -0.42646553255E+02 -0.28297109593E+02  0.82927229704E+02  0.97449373226E+02  0.00000000000E+00 0.  1.
         11    1    1    2    0    0 -0.69076230557E+02  0.14112611094E+02  0.42217935273E+03  0.42802581382E+03  0.00000000000E+00 0. -1.
</event>
<event>
 7    1  0.2841804E-009  0.8911929E+02  0.7561462E-02  0.1304999E+00
          1   -1    0    0  501    0  0.00000000000E+00  0.00000000000E+00  0.40206413348E+02  0.40206413348E+02  0.00000000000E+00 0. -1.
         -1   -1    0    0    0  501 -0.00000000000E+00 -0.00000000000E+00 -0.39757032585E+03  0.39757032585E+03  0.00000000000E+00 0.  1.
         25    2    1    2    0    0 -0.46152658178E+02 -0.45460133648E+02 -0.22596598317E+03  0.26627815269E+03  0.12508691955E+03 0.  0.
          5    1    3    3  502    0 -0.31827237440E+02 -0.43696136406E+02 -0.17071564418E+02  0.56843962666E+02  0.41800000000E+01 0.  1.
         -5    1    3    3    0  502 -0.14325420738E+02 -0.17639972427E+01 -0.20889441875E+03  0.20943419002E+03  0.41800000000E+01 0.  1.
        -11    1    1    2    0    0  0.66308400465E+02  0.84437941446E+01 -0.92650359069E+02  0.11424618448E+03  0.00000000000E+00 0.  1.
         11    1    1    2    0    0 -0.20155742286E+02  0.37016339504E+02 -0.38747570272E+02  0.57252402040E+02  0.00000000000E+00 0. -1.
</event>
<event>
 6    1  0.2841804E-009  0.1920197E+03  0.7561462E-02  0.1156652E+00
          1   -1    0    0  501    0  0.00000000000E+00  0.00000000000E+00  0.17685544435E+03  0.17685544435E+03  0.00000000000E+00 0. -1.
         -1   -1    0    0    0  501 -0.00000000000E+00 -0.00000000000E+00 -0.20985721450E+03  0.20985721450E+03  0.00000000000E+00 0.  1.
          5    1    1    2  502    0 -0.22585492274E+02 -0.78491799080E+01  0.12266948682E+01  0.24304140939E+02  0.41800000000E+01 0.  1.
         -5    1    1    2    0  502  0.17007681540E+03 -0.51565141768E+02 -0.10754538160E+02  0.17809609618E+03  0.41800000000E+01 0.  1.
        -11    1    1    2    0    0 -0.69008585990E+02 -0.18458212098E+02 -0.17733577282E+02  0.73602787294E+02  0.00000000000E+00 0.  1.
         11    1    1    2    0    0 -0.78482737135E+02  0.77872533775E+02 -0.57403495692E+01  0.11070963444E+03  0.00000000000E+00 0. -1.
</event>
<event>
 7    1  0.2841804E-009  0.9002570E+02  0.7561462E-02  0.1302789E+00
          2   -1    0    0  501    0  0.00000000000E+00  0.00000000000E+00  0.62541184889E+03  0.62541184889E+03  0.00000000000E+00 0.  1.
         -2   -1    0    0    0  501 -0.00000000000E+00 -0.00000000000E+00 -0.21490636718E+02  0.21490636718E+02  0.00000000000E+00 0. -1.
         25    2    1    2    0    0  0.13646852712E+02 -0.34575250527E+02  0.39768853683E+03  0.41855111111E+03  0.12508867154E+03 0.  0.
          5    1    3    3  502    0  0.31744843015E+02 -0.49009593479E+02  0.38914544815E+03  0.39352424008E+03  0.41800000000E+01 0.  1.
         -5    1    3    3    0  502 -0.18097990303E+02  0.14434342951E+02  0.85430886775E+01  0.25026871031E+02  0.41800000000E+01 0.  1.
        -11    1    1    2    0    0 -0.10967369656E+02  0.65769088208E+02  0.14392592234E+03  0.15862070257E+03  0.00000000000E+00 0.  1.
         11    1    1    2    0    0 -0.26794830559E+01 -0.31193837681E+02  0.62306753002E+02  0.69730671934E+02  0.00000000000E+00 0. -1.
</event>
<event>
 7    1  0.2841804E-009  0.1157825E+03  0.7561462E-02  0.1250221E+00
         -2   -1    0    0    0  501 -0.00000000000E+00  0.00000000000E+00  0.38910545740E+03  0.38910545740E+03  0.00000000000E+00 0.  1.
          2   -1    0    0  501    0  0.00000000000E+00 -0.00000000000E+00 -0.51625122726E+02  0.51625122726E+02  0.00000000000E+00 0. -1.
         25    2    1    2    0    0  0.86942663006E+01  0.88998095720E+02  0.16490092019E+03  0.22546922380E+03  0.12509119111E+03 0.  0.
          5    1    3    3  502    0  0.30825943303E+02  0.59039861207E+02  0.11702046233E+02  0.67752153308E+02  0.41800000000E+01 0. -1.
         -5    1    3    3    0  502 -0.22131677002E+02  0.29958234513E+02  0.15319887396E+03  0.15771707049E+03  0.41800000000E+01 0. -1.
        -11    1    1    2    0    0  0.38195780995E+02 -0.17898670531E+02  0.72196432092E+02  0.83615817280E+02  0.00000000000E+00 0.  1.
         11    1    1    2    0    0 -0.46890047295E+02 -0.71099425189E+02  0.10038298239E+03  0.13164553905E+03  0.00000000000E+00 0. -1.
</event>
<event>
 7    1  0.2841804E-009  0.7351466E+02  0.7561462E-02  0.1348533E+00
         -2   -1    0    0    0  501 -0.00000000000E+00  0.00000000000E+00  0.11434332654E+03  0.11434332654E+03  0.00000000000E+00 0.  1.
          2   -1    0    0  501    0  0.00000000000E+00 -0.00000000000E+00 -0.20481879211E+03  0.20481879211E+03  0.00000000000E+00 0. -1.
         25    2    1    2    0    0  0.51556099639E+02  0.23188776025E+02  0.47726623005E+02  0.14533051345E+03  0.12508947539E+03 0.  0.
          5    1    3    3  502    0  0.58420655026E+02  0.10061886121E+02 -0.29666765853E+02  0.66421411324E+02  0.41800000000E+01 0.  1.
         -5    1    3    3    0  502 -0.68645553869E+01  0.13126889903E+02  0.77393388858E+02  0.78909102125E+02  0.41800000000E+01 0.  1.
        -11    1    1    2    0    0 -0.19718431874E+01 -0.22534765832E+02  0.42309843475E+01  0.23013149832E+02  0.00000000000E+00 0.  1.
         11    1    1    2    0    0 -0.49584256452E+02 -0.65401019255E+00 -0.14243307292E+03  0.15081845537E+03  0.00000000000E+00 0. -1.
</event>
<event>
 7    1  0.2841804E-009  0.1018684E+03  0.7561462E-02  0.1276415E+00
         -3   -1    0    0    0  501 -0.00000000000E+00  0.00000000000E+00  0.13341912641E+03  0.13341912641E+03  0.00000000000E+00 0.  1.
          3   -1    0    0  501    0  0.00000000000E+00 -0.00000000000E+00 -0.93644268838E+02  0.93644268838E+02  0.00000000000E+00 0. -1.
         25    2    1    2    0    0  0.85355153072E+01  0.15801322331E+02  0.41525686951E+01  0.12644034247E+03  0.12508948624E+03 0.  0.
          5    1    3    3  502    0 -0.34482910190E+02  0.55034918993E+02 -0.11308654555E+02  0.66055063936E+02  0.41800000000E+01 0. -1.
         -5    1    3    3    0  502  0.43018425497E+02 -0.39233596662E+02  0.15461223251E+02  0.60385278535E+02  0.41800000000E+01 0. -1.
        -11    1    1    2    0    0 -0.27828560553E+02  0.23551501188E+02  0.42788345878E+02  0.56213383937E+02  0.00000000000E+00 0.  1.
         11    1    1    2    0    0  0.19293045246E+02 -0.39352823519E+02 -0.71660569982E+01  0.44409668842E+02  0.00000000000E+00 0. -1.
</event>
<event>
 7    1  0.2841804E-009  0.8800806E+02  0.7561462E-02  0.1307748E+00
          1   -1    0    0  501    0  0.00000000000E+00  0.00000000000E+00  0.69337883053E+03  0.69337883053E+03  0.00000000000E+00 0. -1.
         -1   -1    0    0    0  501 -0.00000000000E+00 -0.00000000000E+00 -0.22278539916E+02  0.22278539916E+02  0.00000000000E+00 0.  1.
         25    2    1    2    0    0 -0.57386062815E+02  0.16608787822E+02  0.40610396889E+03  0.42910484781E+03  0.12506608184E+03 0.  0.
          5    1    3    3  502    0 -0.59969666661E+02  0.11109586156E+02  0.41389005772E+03  0.41838049202E+03  0.41800000000E+01 0. -1.
         -5    1    3    3    0  502  0.25836038465E+01  0.54992016658E+01 -0.77860888298E+01  0.10724355788E+02  0.41800000000E+01 0. -1.
        -11    1    1    2    0    0  0.61192014577E+02 -0.46825618069E+02  0.20994913999E+03  0.22364199637E+03  0.00000000000E+00 0. -1.
         11    1    1    2    0    0 -0.38059517624E+01  0.30216830247E+02  0.55047181732E+02  0.62910526271E+02  0.00000000000E+00 0.  1.
</event>
<event>
 7    1  0.2841804E-009  0.1206419E+03  0.7561462E-02  0.1242042E+00
          2   -1    0    0  501    0  0.00000000000E+00  0.00000000000E+00  0.57917259441E+03  0.57917259441E+03  0.00000000000E+00 0. -1.
         -2   -1    0    0    0  501 -0.00000000000E+00 -0.00000000000E+00 -0.33482421149E+02  0.33482421149E+02  0.00000000000E+00 0.  1.
         25    2    1    2    0    0  0.48327709214E+02 -0.71791429566E+02  0.30504001396E+03  0.34086155536E+03  0.12509041917E+03 0.  0.
          5    1    3    3  502    0  0.98499915623E+01  0.19510788120E+02  0.17952422774E+03  0.18089807609E+03  0.41800000000E+01 0. -1.
         -5    1    3    3    0  502  0.38477717651E+02 -0.91302217686E+02  0.12551578621E+03  0.15996347926E+03  0.41800000000E+01 0. -1.
        -11    1    1    2    0    0  0.98836784723E+01  0.59569420676E+02  0.16405782211E+03  0.17481753909E+03  0.00000000000E+00 0. -1.
         11    1    1    2    0    0 -0.58211387686E+02  0.12222008890E+02  0.76592337202E+02  0.96975921113E+02  0.00000000000E+00 0.  1.
</event>
<event>
 7    1  0.2841804E-009  0.1145879E+03  0.7561462E-02  0.1252302E+00
         -4   -1    0    0    0  501 -0.00000000000E+00  0.00000000000E+00  0.73122632137E+02  0.73122632137E+02  0.00000000000E+00 0.  1.
          4   -1    0    0  501    0  0.00000000000E+00 -0.00000000000E+00 -0.20181188537E+03  0.20181188537E+03  0.00000000000E+00 0. -1.
         25    2    1    2    0    0  0.11328457537E+02  0.42789345352E+02 -0.63813743888E+02  0.14723333523E+03  0.12508476753E+03 0.  0.
          5    1    3    3  502    0  0.26980020715E+02 -0.38445167468E+02 -0.37727806908E+02  0.60388841962E+02  0.41800000000E+01 0. -1.
         -5    1    3    3    0  502 -0.15651563179E+02  0.81234512820E+02 -0.26085936980E+02  0.86844493269E+02  0.41800000000E+01 0. -1.
        -11    1    1    2    0    0  0.35421136089E+02 -0.38386480446E+02 -0.61407612336E+02  0.80616832087E+02  0.00000000000E+00 0. -1.
         11    1    1    2    0    0 -0.46749593626E+02 -0.44028649057E+01 -0.34678970126E+01  0.47084350194E+02  0.00000000000E+00 0.  1.
</event>
<event>
 7    1  0.2841804E-009  0.1166491E+03  0.7561462E-02  0.1248730E+00
         -1   -1    0    0    0  501 -0.00000000000E+00  0.00000000000E+00  0.16905542981E+03  0.16905542981E+03  0.00000000000E+00 0.  1.
          1   -1    0    0  501    0  0.00000000000E+00 -0.00000000000E+00 -0.11326055386E+03  0.11326055386E+03  0.00000000000E+00 0. -1.
         25    2    1    2    0    0  0.46892833811E+02 -0.39171762217E+01 -0.41738509800E+02  0.14001602018E+03  0.12509236817E+03 0.  0.
          5    1    3    3  502    0  0.35475200870E+02 -0.62787057355E+02 -0.13040163640E+02  0.73404514275E+02  0.41800000000E+01 0.  1.
         -5    1    3    3    0  502  0.11417632941E+02  0.58869881134E+02 -0.28698346160E+02  0.66611505905E+02  0.41800000000E+01 0.  1.
        -11    1    1    2    0    0 -0.28539715289E+02  0.46511079208E+02  0.68514194139E+02  0.87589900311E+02  0.00000000000E+00 0.  1.
         11    1    1    2    0    0 -0.18353118522E+02 -0.42593902987E+02  0.29019191613E+02  0.54710063178E+02  0.00000000000E+00 0. -1.
</event>
<event>
 7    1  0.2841804E-009  0.2032842E+03  0.7561462E-02  0.1146997E+00
         -2   -1    0    0    0  501 -0.00000000000E+00  0.00000000000E+00  0.16448863912E+03  0.16448863912E+03  0.00000000000E+00 0.  1.
          2   -1    0    0  501    0  0.00000000000E+00 -0.00000000000E+00 -0.31152443662E+03  0.31152443662E+03  0.00000000000E+00 0. -1.
         25    2    1    2    0    0 -0.15155844479E+03 -0.12373144925E+03 -0.11789347353E+03  0.26043308791E+03  0.12508832263E+03 0.  0.
          5    1    3    3  502    0 -0.13358594805E+03 -0.12881690213E+03 -0.13903039919E+03  0.23191792533E+03  0.41800000000E+01 0. -1.
         -5    1    3    3    0  502 -0.17972496743E+02  0.50854528827E+01  0.21136925667E+02  0.28515162578E+02  0.41800000000E+01 0. -1.
        -11    1    1    2    0    0  0.10340359222E+03  0.11160685518E+03 -0.52171150669E+02  0.16084222695E+03  0.00000000000E+00 0. -1.
         11    1    1    2    0    0  0.48154852566E+02  0.12124594063E+02  0.23028826692E+02  0.54737760875E+02  0.00000000000E+00 0.  1.
</event>
<event>
 7    1  0.4038504E-009  0.1778387E+03  0.7561462E-02  0.1169911E+00
         -1   -1    0    0    0  501 -0.00000000000E+00  0.00000000000E+00  0.88432301625E+02  0.88432301625E+02  0.00000000000E+00 0.  1.
          1   -1    0    0  501    0  0.00000000000E+00 -0.00000000000E+00 -0.48662334992E+03  0.48662334992E+03  0.00000000000E+00 0. -1.
         25    2    1    2    0    0  0.60573902813E+02  0.16289930473E+03 -0.24959180585E+03  0.32885986505E+03  0.12508940846E+03 0.  0.
          5    1    3    3  502    0  0.18703014223E+01  0.58064765641E+02 -0.77173425356E+01  0.58754104641E+02  0.41800000000E+01 0. -1.
         -5    1    3    3    0  502  0.58703601390E+02  0.10483453909E+03 -0.24187446331E+03  0.27010576041E+03  0.41800000000E+01 0. -1.
        -11    1    1    2    0    0 -0.26728759532E+02 -0.30514809396E+02 -0.87638611573E+02  0.96571768220E+02  0.00000000000E+00 0.  1.
         11    1    1    2    0    0 -0.33845143280E+02 -0.13238449534E+03 -0.60960630876E+02  0.14962401828E+03  0.00000000000E+00 0. -1.
</event>
<event>
 7    1  0.2841804E-009  0.3606986E+03  0.7561462E-02  0.1058308E+00
          1   -1    0    0  501    0  0.00000000000E+00  0.00000000000E+00  0.43912055688E+03  0.43912055688E+03  0.00000000000E+00 0. -1.
         -1   -1    0    0    0  501 -0.00000000000E+00 -0.00000000000E+00 -0.32072990296E+03  0.32072990296E+03  0.00000000000E+00 0.  1.
         25    2    1    2    0    0 -0.36022306429E+03  0.44317031344E+01  0.52940716181E+02  0.38500973560E+03  0.12509788580E+03 0.  0.
          5    1    3    3  502    0 -0.23608400938E+03  0.13139311758E+02  0.93140312762E+02  0.25416705384E+03  0.41800000000E+01 0. -1.
         -5    1    3    3    0  502 -0.12413905491E+03 -0.87076086235E+01 -0.40199596581E+02  0.13084268175E+03  0.41800000000E+01 0. -1.
        -11    1    1    2    0    0  0.11725815035E+03 -0.62562880497E+01  0.59865588727E+02  0.13180479383E+03  0.00000000000E+00 0.  1.
         11    1    1    2    0    0  0.24296491394E+03  0.18245849153E+01  0.55843490095E+01  0.24303593041E+03  0.00000000000E+00 0. -1.
</event>
<event>
 7    1  0.2841804E-009  0.7645232E+02  0.7561462E-02  0.1339432E+00
          2   -1    0    0  501    0  0.00000000000E+00  0.00000000000E+00  0.78558508549E+02  0.78558508549E+02  0.00000000000E+00 0.  1.
         -2   -1    0    0    0  501 -0.00000000000E+00 -0.00000000000E+00 -0.21838503138E+03  0.21838503138E+03  0.00000000000E+00 0. -1.
         25    2    1    2    0    0  0.32507167260E+02 -0.24833854803E+02 -0.15591352000E+02  0.13251830430E+03  0.12507827329E+03 0.  0.
          5    1    3    3  502    0  0.63526409318E+02 -0.38036227662E+01  0.32359089605E+02  0.71516818351E+02  0.41800000000E+01 0.  1.
         -5    1    3    3    0  502 -0.31019242058E+02 -0.21030232037E+02 -0.47950441605E+02  0.61001485945E+02  0.41800000000E+01 0.  1.
        -11    1    1    2    0    0  0.54393807875E+01  0.85327852342E+01  0.15613471080E+02  0.18605799267E+02  0.00000000000E+00 0.  1.
         11    1    1    2    0    0 -0.37946548048E+02  0.16301069569E+02 -0.13984864191E+03  0.14581943637E+03  0.00000000000E+00 0. -1.
</event>
<event>
 7    1  0.2841804E-009  0.9691666E+02  0.7561462E-02  0.1286917E+00
          3   -1    0    0  501    0  0.00000000000E+00  0.00000000000E+00  0.42185903048E+03  0.42185903048E+03  0.00000000000E+00 0. -1.
         -3   -1    0    0    0  501 -0.00000000000E+00 -0.00000000000E+00 -0.31666189198E+02  0.31666189198E+02  0.00000000000E+00 0.  1.
         25    2    1    2    0    0  0.38792928040E+02  0.82428961413E+01  0.23208974441E+03  0.26660141132E+03  0.12505129529E+03 0.  0.
          5    1    3    3  502    0 -0.36830177780E+02 -0.20832952626E+02  0.12642920788E+03  0.13338774650E+03  0.41800000000E+01 0.  1.
         -5    1    3    3    0  502  0.75623105821E+02  0.29075848767E+02  0.10566053653E+03  0.13321366482E+03  0.41800000000E+01 0.  1.
        -11    1    1    2    0    0 -0.44722621976E+02 -0.25815993278E+02  0.16014548057E+03  0.16826512822E+03  0.00000000000E+00 0. -1.
         11    1    1    2    0    0  0.59296939356E+01  0.17573097137E+02 -0.20423837105E+01  0.18658680135E+02  0.00000000000E+00 0.  1.
</event>
<event>
 7    1  0.2841804E-009  0.1115982E+03  0.7561462E-02  0.1257639E+00
         -2   -1    0    0    0  501 -0.00000000000E+00  0.00000000000E+00  0.28884588074E+02  0.28884588074E+02  0.00000000000E+00 0. -1.
          2   -1    0    0  501    0  0.00000000000E+00 -0.00000000000E+00 -0.72956433927E+03  0.72956433927E+03  0.00000000000E+00 0.  1.
         25    2    1    2    0    0 -0.22468441129E+02 -0.36527675785E+02 -0.60596539608E+03  0.62022826452E+03  0.12509970786E+03 0.  0.
          5    1    3    3  502    0 -0.16797141029E+02  0.44004198347E+02 -0.15421062245E+03  0.16129755700E+03  0.41800000000E+01 0.  1.
         -5    1    3    3    0  502 -0.56713001004E+01 -0.80531874132E+02 -0.45175477363E+03  0.45893070751E+03  0.41800000000E+01 0.  1.
        -11    1    1    2    0    0  0.22435987499E+02 -0.24972345469E+02 -0.56781510112E+02  0.65963106839E+02  0.00000000000E+00 0. -1.
         11    1    1    2    0    0  0.32453629668E-01  0.61500021254E+02 -0.37932844998E+02  0.72257555986E+02  0.00000000000E+00 0.  1.
</event>
<event>
 7    1  0.2841804E-009  0.8605548E+02  0.7561462E-02  0.1312695E+00
          1   -1    0    0  501    0  0.00000000000E+00  0.00000000000E+00  0.42789039464E+03  0.42789039464E+03  0.00000000000E+00 0. -1.
         -1   -1    0    0    0  501 -0.00000000000E+00 -0.00000000000E+00 -0.29813178071E+02  0.29813178071E+02  0.00000000000E+00 0.  1.
         25    2    1    2    0    0 -0.17603862280E+02  0.17958950377E+02  0.29649476963E+03  0.32278224954E+03  0.12508721891E+03 0.  0.
          5    1    3    3  502    0  0.20749391411E+00 -0.53052571168E+02  0.10473956597E+03  0.11748390290E+03  0.41800000000E+01 0.  1.
         -5    1    3    3    0  502 -0.17811356194E+02  0.71011521545E+02  0.19175520366E+03  0.20529834664E+03  0.41800000000E+01 0.  1.
        -11    1    1    2    0    0 -0.18784104436E+01  0.10725157173E+02 -0.11976627690E+02  0.16186322405E+02  0.00000000000E+00 0.  1.
         11    1    1    2    0    0  0.19482272723E+02 -0.28684107550E+02  0.11355907463E+03  0.11873500077E+03  0.00000000000E+00 0. -1.
</event>
<event>
 7    1  0.2841804E-009  0.1113106E+03  0.7561462E-02  0.1258162E+00
         -2   -1    0    0    0  501 -0.00000000000E+00  0.00000000000E+00  0.11902047984E+03  0.11902047984E+03  0.00000000000E+00 0.  1.
          2   -1    0    0  501    0  0.00000000000E+00 -0.00000000000E+00 -0.10970369470E+03  0.10970369470E+03  0.00000000000E+00 0. -1.
         25    2    1    2    0    0 -0.14164654721E+02  0.36755355826E+02  0.71349144906E+01  0.13134124265E+03  0.12509205167E+03 0.  0.
          5    1    3    3  502    0 -0.42473021806E+02  0.72211284368E+02  0.14688593151E+02  0.85156645895E+02  0.41800000000E+01 0.  1.
         -5    1    3    3    0  502  0.28308367085E+02 -0.35455928542E+02 -0.75536786601E+01  0.46184596751E+02  0.41800000000E+01 0.  1.
        -11    1    1    2    0    0  0.40487054217E+02  0.79869034350E+01 -0.13053304806E+02  0.43282570996E+02  0.00000000000E+00 0. -1.
         11    1    1    2    0    0 -0.26322399496E+02 -0.44742259261E+02  0.15235175455E+02  0.54100360906E+02  0.00000000000E+00 0.  1.
</event>
<event>
 7    1  0.2841804E-009  0.2385199E+03  0.7561462E-02  0.1120783E+00
          1   -1    0    0  501    0  0.00000000000E+00  0.00000000000E+00  0.62396011782E+03  0.62396011782E+03  0.00000000000E+00 0. -1.
         -1   -1    0    0    0  501 -0.00000000000E+00 -0.00000000000E+00 -0.12836863577E+03  0.12836863577E+03  0.00000000000E+00 0.  1.
         25    2    1    2    0    0 -0.25062264927E+02  0.22785798343E+03  0.41964360782E+03  0.49425318218E+03  0.12505228017E+03 0.  0.
          5    1    3    3  502    0  0.14153974843E+02  0.45831251390E+02  0.20263988959E+03  0.20828162632E+03  0.41800000000E+01 0.  1.
         -5    1    3    3    0  502 -0.39216239770E+02  0.18202673204E+03  0.21700371823E+03  0.28597155586E+03  0.41800000000E+01 0.  1.
        -11    1    1    2    0    0 -0.29063004709E+02 -0.71572259180E+02  0.46257795466E+02  0.90039048019E+02  0.00000000000E+00 0.  1.
         11    1    1    2    0    0  0.54125269636E+02 -0.15628572425E+03  0.29690078765E+02  0.16803652339E+03  0.00000000000E+00 0. -1.
</event>
<event>
 7    1  0.2841804E-009  0.1525655E+03  0.7561462E-02  0.1197355E+00
         -1   -1    0    0    0  501 -0.00000000000E+00  0.00000000000E+00  0.11517486335E+03  0.11517486335E+03  0.00000000000E+00 0.  1.
          1   -1    0    0  501    0  0.00000000000E+00 -0.00000000000E+00 -0.35257064408E+03  0.35257064408E+03  0.00000000000E+00 0. -1.
         25    2    1    2    0    0  0.49292724354E+02 -0.10548538225E+03 -0.26156200241E+03  0.31244388243E+03  0.12509820152E+03 0.  0.
          5    1    3    3  502    0 -0.37270260030E+02 -0.25438428322E+02 -0.35938102014E+02  0.57837751465E+02  0.41800000000E+01 0. -1.
         -5    1    3    3    0  502  0.86562984384E+02 -0.80046953926E+02 -0.22562390039E+03  0.25460613097E+03  0.41800000000E+01 0. -1.
        -11    1    1    2    0    0  0.19734242120E+02  0.48387177669E+02  0.38061286805E+02  0.64648440260E+02  0.00000000000E+00 0.  1.
         11    1    1    2    0    0 -0.69026966474E+02  0.57098204580E+02 -0.13895065128E+02  0.90653184731E+02  0.00000000000E+00 0. -1.
</event>
<event>
 7    1  0.2841804E-009  0.9689422E+02  0.7561462E-02  0.1286966E+00
         -1   -1    0    0    0  501 -0.00000000000E+00  0.00000000000E+00  0.21958637187E+03  0.21958637187E+03  0.00000000000E+00 0.  1.
          1   -1    0    0  501    0  0.00000000000E+00 -0.00000000000E+00 -0.72030597910E+02  0.72030597910E+02  0.00000000000E+00 0. -1.
         25    2    1    2    0    0  0.39928716623E+02  0.61246456674E+00  0.24480939374E+02  0.13355483952E+03  0.12507158447E+03 0.  0.
          5    1    3    3  502    0  0.74274769611E+02  0.12617086905E+02 -0.17893661796E+02  0.77547326293E+02  0.41800000000E+01 0. -1.
         -5    1    3    3    0  502 -0.34346052987E+02 -0.12004622338E+02  0.42374601170E+02  0.56007513225E+02  0.41800000000E+01 0. -1.
        -11    1    1    2    0    0 -0.43829907438E+02  0.28537194554E+02  0.11682178464E+03  0.12799516250E+03  0.00000000000E+00 0.  1.
         11    1    1    2    0    0  0.39011908150E+01 -0.29149659120E+02  0.62530499523E+01  0.30066967761E+02  0.00000000000E+00 0. -1.
</event>
<event>
 7    1  0.5559495E-009  0.6731202E+02  0.7561462E-02  0.1369480E+00
         -1   -1    0    0    0  501 -0.00000000000E+00  0.00000000000E+00  0.86304329787E+02  0.86304329787E+02  0.00000000000E+00 0.  1.
          1   -1    0    0  501    0  0.00000000000E+00 -0.00000000000E+00 -0.16303053158E+03  0.16303053158E+03  0.00000000000E+00 0. -1.
         25    2    1    2    0    0  0.58154808176E+01 -0.49903633778E+01 -0.93350509424E+02  0.15627002174E+03  0.12508908243E+03 0.  0.
          5    1    3    3  502    0  0.27612422102E+01  0.27906581413E+02  0.22204119064E+02  0.36012456846E+02  0.41800000000E+01 0.  1.
         -5    1    3    3    0  502  0.30542386073E+01 -0.32896944790E+02 -0.11555462849E+03  0.12025756490E+03  0.41800000000E+01 0.  1.
        -11    1    1    2    0    0  0.67453602088E+01  0.37508285511E+02 -0.19546405313E+02  0.42830285161E+02  0.00000000000E+00 0. -1.
         11    1    1    2    0    0 -0.12560841026E+02 -0.32517922133E+02  0.36170712944E+02  0.50234554462E+02  0.00000000000E+00 0.  1.
</event>
<event>
 7    1  0.2841804E-009  0.8624153E+02  0.7561462E-02  0.1312217E+00
         -1   -1    0    0    0  501 -0.00000000000E+00  0.00000000000E+00  0.27230173582E+02  0.27230173582E+02  0.00000000000E+00 0.  1.
          1   -1    0    0  501    0  0.00000000000E+00 -0.00000000000E+00 -0.58228687803E+03  0.58228687803E+03  0.00000000000E+00 0. -1.
         25    2    1    2    0    0 -0.22638792210E+02 -0.27976983283E+02 -0.18352035129E+03  0.22499591211E+03  0.12509282403E+03 0.  0.
          5    1    3    3  502    0 -0.44125016925E+02 -0.30079545941E+02 -0.19355097814E+03  0.20082641694E+03  0.41800000000E+01 0. -1.
         -5    1    3    3    0  502  0.21486224716E+02  0.21025626587E+01  0.10030626843E+02  0.24169495177E+02  0.41800000000E+01 0. -1.
        -11    1    1    2    0    0 -0.32205745106E+02  0.27076965667E+02 -0.12279421996E+03  0.12980289883E+03  0.00000000000E+00 0.  1.
         11    1    1    2    0    0  0.54844537316E+02  0.90001761623E+00 -0.24874213319E+03  0.25471824067E+03  0.00000000000E+00 0. -1.
</event>
<event>
 7    1  0.2841804E-009  0.1007479E+03  0.7561462E-02  0.1278731E+00
         -3   -1    0    0    0  501 -0.00000000000E+00  0.00000000000E+00  0.16196302946E+03  0.16196302946E+03  0.00000000000E+00 0.  1.
          3   -1    0    0  501    0  0.00000000000E+00 -0.00000000000E+00 -0.11701994363E+03  0.11701994363E+03  0.00000000000E+00 0. -1.
         25    2    1    2    0    0  0.72948368348E+02 -0.42049136743E+02  0.24054263403E+01  0.15081933987E+03  0.12510432789E+03 0.  0.
          5    1    3    3  502    0  0.82952362162E+02 -0.22826656060E+02 -0.45978094684E+02  0.97640197695E+02  0.41800000000E+01 0.  1.
         -5    1    3    3    0  502 -0.10003993814E+02 -0.19222480683E+02  0.48383521025E+02  0.53179142176E+02  0.41800000000E+01 0.  1.
        -11    1    1    2    0    0 -0.27783711298E+02 -0.48218311998E+01 -0.22555541045E+02  0.36110069253E+02  0.00000000000E+00 0. -1.
         11    1    1    2    0    0 -0.45164657051E+02  0.46870967943E+02  0.65093200536E+02  0.92053563964E+02  0.00000000000E+00 0.  1.
</event>
<event>
 7    1  0.2841804E-009  0.1583242E+03  0.7561462E-02  0.1190602E+00
         -1   -1    0    0    0  501 -0.00000000000E+00  0.00000000000E+00  0.15257291782E+03  0.15257291782E+03  0.00000000000E+00 0.  1.
          1   -1    0    0  501    0  0.00000000000E+00 -0.00000000000E+00 -0.22046323300E+03  0.22046323300E+03  0.00000000000E+00 0. -1.
         25    2    1    2    0    0 -0.11359433262E+03 -0.40938099187E+02 -0.12080723765E+03  0.21171068283E+03  0.12508966460E+03 0.  0.
          5    1    3    3  502    0 -0.36954672110E+02  0.43847762039E+02 -0.25754558906E+02  0.63000347071E+02  0.41800000000E+01 0.  1.
         -5    1    3    3    0  502 -0.76639660506E+02 -0.84785861226E+02 -0.95052678743E+02  0.14871033576E+03  0.41800000000E+01 0.  1.
        -11    1    1    2    0    0  0.97586947489E+02  0.64008627683E+02  0.61558196618E+02  0.13194592949E+03  0.00000000000E+00 0. -1.
         11    1    1    2    0    0  0.16007385126E+02 -0.23070528496E+02 -0.86412741467E+01  0.29379538501E+02  0.00000000000E+00 0.  1.
</event>
<event>
 7    1  0.2841804E-009  0.1364313E+03  0.7561462E-02  0.1218213E+00
          3   -1    0    0  501    0  0.00000000000E+00  0.00000000000E+00  0.10075991291E+04  0.10075991291E+04  0.00000000000E+00 0. -1.
         -3   -1    0    0    0  501 -0.00000000000E+00 -0.00000000000E+00 -0.22567187533E+02  0.22567187533E+02  0.00000000000E+00 0.  1.
         25    2    1    2    0    0 -0.50811577796E+02  0.86682542205E+02  0.63326949349E+03  0.65327840287E+03  0.12508693259E+03 0.  0.
          5    1    3    3  502    0  0.68226589432E+01  0.99900486632E+02  0.36271260250E+03  0.37630381385E+03  0.41800000000E+01 0. -1.
         -5    1    3    3    0  502 -0.57634236739E+02 -0.13217944427E+02  0.27055689099E+03  0.27697458902E+03  0.41800000000E+01 0. -1.
        -11    1    1    2    0    0  0.97104387330E+01 -0.67166666549E+02  0.30170002869E+03  0.30923867971E+03  0.00000000000E+00 0. -1.
         11    1    1    2    0    0  0.41101139063E+02 -0.19515875656E+02  0.50062419414E+02  0.67649234086E+02  0.00000000000E+00 0.  1.
</event>
<event>
 7    1  0.2841804E-009  0.1519860E+03  0.7561462E-02  0.1198054E+00
          1   -1    0    0  501    0  0.00000000000E+00  0.00000000000E+00  0.30418556158E+03  0.30418556158E+03  0.00000000000E+00 0. -1.
         -1   -1    0    0    0  501 -0.00000000000E+00 -0.00000000000E+00 -0.10553451119E+03  0.10553451119E+03  0.00000000000E+00 0.  1.
         25    2    1    2    0    0 -0.13274283108E+03 -0.19376731367E+02  0.46591312568E+02  0.18924489746E+03  0.12508702526E+03 0.  0.
          5    1    3    3  502    0 -0.11354169437E+03  0.67603553563E+01 -0.19526776800E+02  0.11548240635E+03  0.41800000000E+01 0.  1.
         -5    1    3    3    0  502 -0.19201136713E+02 -0.26137086723E+02  0.66118089369E+02  0.73762491113E+02  0.41800000000E+01 0.  1.
        -11    1    1    2    0    0 -0.57419668771E+00 -0.18774903837E+02  0.31750281715E+02  0.36890474446E+02  0.00000000000E+00 0. -1.
         11    1    1    2    0    0  0.13331702777E+03  0.38151635204E+02  0.12030945611E+03  0.18358470086E+03  0.00000000000E+00 0.  1.
</event>
<event>
 7    1  0.2841804E-009  0.1020374E+03  0.7561462E-02  0.1276069E+00
         -1   -1    0    0    0  501 -0.00000000000E+00  0.00000000000E+00  0.26005887057E+03  0.26005887057E+03  0.00000000000E+00 0.  1.
          1   -1    0    0  501    0  0.00000000000E+00 -0.00000000000E+00 -0.59321960931E+02  0.59321960931E+02  0.00000000000E+00 0. -1.
         25    2    1    2    0    0  0.34104391884E+01  0.12222364210E+02  0.18669634936E+03  0.22509999090E+03  0.12511379522E+03 0.  0.
          5    1    3    3  502    0 -0.56306435309E+02  0.21365158338E+02  0.62320672814E+02  0.86765334714E+02  0.41800000000E+01 0. -1.
         -5    1    3    3    0  502  0.59716874498E+02 -0.91427941276E+01  0.12437567655E+03  0.13833465618E+03  0.41800000000E+01 0. -1.
        -11    1    1    2    0    0  0.15226748251E+02  0.31847540274E+02 -0.14949117744E+02  0.38335307552E+02  0.00000000000E+00 0. -1.
         11    1    1    2    0    0 -0.18637187439E+02 -0.44069904484E+02  0.28989678020E+02  0.55945533053E+02  0.00000000000E+00 0.  1.
</event>
<event>
 7    1  0.2841804E-009  0.9265478E+02  0.7561462E-02  0.1296547E+00
          2   -1    0    0  501    0  0.00000000000E+00  0.00000000000E+00  0.37079248436E+02  0.37079248436E+02  0.00000000000E+00 0.  1.
         -2   -1    0    0    0  501 -0.00000000000E+00 -0.00000000000E+00 -0.40268895126E+03  0.40268895126E+03  0.00000000000E+00 0. -1.
         25    2    1    2    0    0 -0.96109740944E+01 -0.47043055369E+02 -0.25894909146E+03  0.29155952134E+03  0.12508757987E+03 0.  0.
          5    1    3    3  502    0  0.20509418006E+02 -0.49134179534E+02 -0.25534030671E+03  0.26086576713E+03  0.41800000000E+01 0.  1.
         -5    1    3    3    0  502 -0.30120392100E+02  0.20911241654E+01 -0.36087847431E+01  0.30693754216E+02  0.41800000000E+01 0.  1.
        -11    1    1    2    0    0 -0.31356020923E+02  0.51415278484E+02 -0.50729584503E+02  0.78741486229E+02  0.00000000000E+00 0.  1.
         11    1    1    2    0    0  0.40966995018E+02 -0.43722231154E+01 -0.55931026868E+02  0.69467192129E+02  0.00000000000E+00 0. -1.
</event>
<event>
 7    1  0.2841804E-009  0.1585653E+03  0.7561462E-02  0.1190326E+00
         -1   -1    0    0    0  501 -0.00000000000E+00  0.00000000000E+00  0.85051896308E+02  0.85051896308E+02  0.00000000000E+00 0.  1.
          1   -1    0    0  501    0  0.00000000000E+00 -0.00000000000E+00 -0.48927235280E+03  0.48927235280E+03  0.00000000000E+00 0. -1.
         25    2    1    2    0    0  0.58607122290E+02 -0.10813051490E+03 -0.38231127810E+03  0.42063843528E+03  0.12509107416E+03 0.  0.
          5    1    3    3  502    0  0.11703440585E+02 -0.11657501192E+03 -0.19693961957E+03  0.22919291019E+03  0.41800000000E+01 0. -1.
         -5    1    3    3    0  502  0.46903681705E+02  0.84444970260E+01 -0.18537165853E+03  0.19144552509E+03  0.41800000000E+01 0. -1.
        -11    1    1    2    0    0 -0.68238281295E+02  0.32091546339E+02 -0.86738312706E+01  0.75904978291E+02  0.00000000000E+00 0.  1.
         11    1    1    2    0    0  0.96311590046E+01  0.76038968560E+02 -0.13235347118E+02  0.77780835536E+02  0.00000000000E+00 0. -1.
</event>
<event>
 7    1  0.2841804E-009  0.8789340E+02  0.7561462E-02  0.1308035E+00
         -2   -1    0    0    0  501 -0.00000000000E+00  0.00000000000E+00  0.34004677312E+02  0.34004677312E+02  0.00000000000E+00 0.  1.
          2   -1    0    0  501    0  0.00000000000E+00 -0.00000000000E+00 -0.37525354351E+03  0.37525354351E+03  0.00000000000E+00 0. -1.
         25    2    1    2    0    0 -0.61895357423E+01 -0.23979382347E+02 -0.23641798405E+03  0.26862001886E+03  0.12509968113E+03 0.  0.
          5    1    3    3  502    0 -0.33510973128E+02 -0.67715468983E+02 -0.14610612289E+03  0.16453826790E+03  0.41800000000E+01 0.  1.
         -5    1    3    3    0  502  0.27321437385E+02  0.43736086636E+02 -0.90311861166E+02  0.10408175096E+03  0.41800000000E+01 0.  1.
        -11    1    1    2    0    0  0.35679454959E+01 -0.11890543117E+02  0.12680779102E+02  0.17745912467E+02  0.00000000000E+00 0.  1.
         11    1    1    2    0    0  0.26215902464E+01  0.35869925464E+02 -0.11751166125E+03  0.12289228950E+03  0.00000000000E+00 0. -1.
</event>
<event>
 7    1  0.2841804E-009  0.2524576E+03  0.7561462E-02  0.1111761E+00
         -1   -1    0    0    0  501 -0.00000000000E+00  0.00000000000E+00  0.74901555073E+03  0.74901555073E+03  0.00000000000E+00 0.  1.
          1   -1    0    0  501    0  0.00000000000E+00 -0.00000000000E+00 -0.92089096201E+02  0.92089096201E+02  0.00000000000E+00 0. -1.
         25    2    1    2    0    0 -0.18289840381E+03  0.15317522003E+03  0.37257616930E+03  0.45975492185E+03  0.12508841709E+03 0.  0.
          5    1    3    3  502    0 -0.25639960614E+01  0.65547198237E+02  0.64018621535E+02  0.91754376331E+02  0.41800000000E+01 0. -1.
         -5    1    3    3    0  502 -0.18033440775E+03  0.87628021794E+02  0.30855754776E+03  0.36800054552E+03  0.41800000000E+01 0. -1.
        -11    1    1    2    0    0  0.88005895875E+02 -0.69769998330E+02  0.20021085031E+03  0.22955887036E+03  0.00000000000E+00 0. -1.
         11    1    1    2    0    0  0.94892507936E+02 -0.83405221701E+02  0.84139434916E+02  0.15179085472E+03  0.00000000000E+00 0.  1.
</event>
<event>
 7    1  0.2841804E-009  0.1535251E+03  0.7561462E-02  0.1196207E+00
          2   -1    0    0  501    0  0.00000000000E+00  0.00000000000E+00  0.79109381276E+03  0.79109381276E+03  0.00000000000E+00 0. -1.
         -2   -1    0    0    0  501 -0.00000000000E+00 -0.00000000000E+00 -0.40453570846E+02  0.40453570846E+02  0.00000000000E+00 0.  1.
         25    2    1    2    0    0  0.12308219518E+00  0.14492087635E+03  0.41372296534E+03  0.45586823380E+03  0.12508828476E+03 0.  0.
          5    1    3    3  502    0  0.25987014531E+02  0.31841587657E+02  0.20985143055E+02  0.46336381579E+02  0.41800000000E+01 0. -1.
         -5    1    3    3    0  502 -0.25863932336E+02  0.11307928869E+03  0.39273782229E+03  0.40953185222E+03  0.41800000000E+01 0. -1.
        -11    1    1    2    0    0  0.11871187955E+02 -0.14716365391E+02  0.59541872450E+01  0.19822937712E+02  0.00000000000E+00 0.  1.
         11    1    1    2    0    0 -0.11994270151E+02 -0.13020451096E+03  0.33096308933E+03  0.35585621210E+03  0.00000000000E+00 0. -1.
</event>
<event>
 7    1  0.2841804E-009  0.1571306E+03  0.7561462E-02  0.1191975E+00
          1   -1    0    0  501    0  0.00000000000E+00  0.00000000000E+00  0.11629725254E+03  0.11629725254E+03  0.00000000000E+00 0. -1.
         -1   -1    0    0    0  501 -0.00000000000E+00 -0.00000000000E+00 -0.24233984281E+03  0.24233984281E+03  0.00000000000E+00 0.  1.
         25    2    1    2    0    0 -0.11946988450E+03 -0.43653885046E+02 -0.57910054246E+02  0.18756231282E+03  0.12508929541E+03 0.  0.
          5    1    3    3  502    0 -0.16080396334E+02  0.35900557986E+02 -0.39227522858E+02  0.55710862133E+02  0.41800000000E+01 0.  1.
         -5    1    3    3    0  502 -0.10338948816E+03 -0.79554443032E+02 -0.18682531388E+02  0.13185145068E+03  0.41800000000E+01 0.  1.
        -11    1    1    2    0    0  0.10894943526E+03  0.60274367014E+02 -0.29857072908E+02  0.12804071058E+03  0.00000000000E+00 0. -1.
         11    1    1    2    0    0  0.10520449237E+02 -0.16620481968E+02 -0.38275463109E+02  0.43034071957E+02  0.00000000000E+00 0.  1.
</event>
<event>
 7    1  0.2841804E-009  0.8022946E+02  0.7561462E-02  0.1328402E+00
          1   -1    0    0  501    0  0.00000000000E+00  0.00000000000E+00  0.75050797755E+02  0.75050797755E+02  0.00000000000E+00 0. -1.
         -1   -1    0    0    0  501 -0.00000000000E+00 -0.00000000000E+00 -0.26768415425E+03  0.26768415425E+03  0.00000000000E+00 0.  1.
         25    2    1    2    0    0  0.53456259766E+02 -0.27759585280E+02 -0.22205876271E+02  0.14060880301E+03  0.12509823444E+03 0.  0.
          5    1    3    3  502    0  0.32227452969E+02 -0.11416723624E+02 -0.74291467075E+02  0.81888001461E+02  0.41800000000E+01 0. -1.
         -5    1    3    3    0  502  0.21228806798E+02 -0.16342861656E+02  0.52085590804E+02  0.58720801549E+02  0.41800000000E+01 0. -1.
        -11    1    1    2    0    0 -0.68754540467E+02  0.18127777311E+01 -0.15194537857E+03  0.16678690317E+03  0.00000000000E+00 0.  1.
         11    1    1    2    0    0  0.15298280701E+02  0.25946807549E+02 -0.18482101653E+02  0.35339245831E+02  0.00000000000E+00 0. -1.
</event>
<event>
 7    1  0.2841804E-009  0.1311016E+03  0.7561462E-02  0.1225830E+00
         -2   -1    0    0    0  501 -0.00000000000E+00  0.00000000000E+00  0.52098631660E+02  0.52098631660E+02  0.00000000000E+00 0.  1.
          2   -1    0    0  501    0  0.00000000000E+00 -0.00000000000E+00 -0.65408334455E+03  0.65408334455E+03  0.00000000000E+00 0. -1.
         25    2    1    2    0    0 -0.10366575607E+02 -0.12652727600E+03 -0.46382108397E+03  0.49688102718E+03  0.12507653566E+03 0.  0.
          5    1    3    3  502    0 -0.15403972230E+02 -0.31456921660E+02 -0.33389817058E+03  0.33575628214E+03  0.41800000000E+01 0.  1.
         -5    1    3    3    0  502  0.50373966224E+01 -0.95070354344E+02 -0.12992291339E+03  0.16112474504E+03  0.41800000000E+01 0.  1.
        -11    1    1    2    0    0 -0.12945548146E+02  0.41964568194E+02  0.19898033244E+01  0.43961022711E+02  0.00000000000E+00 0.  1.
         11    1    1    2    0    0  0.23312123753E+02  0.84562707810E+02 -0.14015343225E+03  0.16533992632E+03  0.00000000000E+00 0. -1.
</event>
<event>
 7    1  0.2841804E-009  0.1087894E+03  0.7561462E-02  0.1262828E+00
         -1   -1    0    0    0  501 -0.00000000000E+00  0.00000000000E+00  0.11561679990E+03  0.11561679990E+03  0.00000000000E+00 0.  1.
          1   -1    0    0  501    0  0.00000000000E+00 -0.00000000000E+00 -0.14963759432E+03  0.14963759432E+03  0.00000000000E+00 0. -1.
         25    2    1    2    0    0 -0.82627476732E+01  0.74681707142E+02 -0.23796095898E+02  0.14784934957E+03  0.12509014992E+03 0.  0.
          5    1    3    3  502    0  0.41120763460E+02  0.14015487776E+02  0.29875564321E+02  0.52890195959E+02  0.41800000000E+01 0. -1.
         -5    1    3    3    0  502 -0.49383511133E+02  0.60666219366E+02 -0.53671660220E+02  0.94959153612E+02  0.41800000000E+01 0. -1.
        -11    1    1    2    0    0 -0.13064183597E+01 -0.82944806039E+02  0.19401657232E+02  0.85193731466E+02  0.00000000000E+00 0.  1.
         11    1    1    2    0    0  0.95691660329E+01  0.82630988973E+01 -0.29626355752E+02  0.32211313185E+02  0.00000000000E+00 0. -1.
</event>
<event>
 7    1  0.2841804E-009  0.1877436E+03  0.7561462E-02  0.1160512E+00
         -2   -1    0    0    0  501 -0.00000000000E+00  0.00000000000E+00  0.10783595995E+03  0.10783595995E+03  0.00000000000E+00 0.  1.
          2   -1    0    0  501    0  0.00000000000E+00 -0.00000000000E+00 -0.33221592447E+03  0.33221592447E+03  0.00000000000E+00 0. -1.
         25    2    1    2    0    0  0.14624634906E+03 -0.49916313680E+02 -0.11991237557E+03  0.23217661965E+03  0.12508945564E+03 0.  0.
          5    1    3    3  502    0 -0.16659126222E+02 -0.27007578013E+02 -0.33402095719E+02  0.46261302998E+02  0.41800000000E+01 0.  1.
         -5    1    3    3    0  502  0.16290547528E+03 -0.22908735667E+02 -0.86510279851E+02  0.18591531665E+03  0.41800000000E+01 0.  1.
        -11    1    1    2    0    0 -0.11746098747E+03 -0.42953010095E+01 -0.77782274865E+02  0.14094543438E+03  0.00000000000E+00 0. -1.
         11    1    1    2    0    0 -0.28785361583E+02  0.54211614690E+02 -0.26685314085E+02  0.66929830394E+02  0.00000000000E+00 0.  1.
</event>
<event>
 7    1  0.2841804E-009  0.1532567E+03  0.7561462E-02  0.1196527E+00
          2   -1    0    0  501    0  0.00000000000E+00  0.00000000000E+00  0.41478874638E+03  0.41478874638E+03  0.00000000000E+00 0. -1.
         -2   -1    0    0    0  501 -0.00000000000E+00 -0.00000000000E+00 -0.70549899465E+02  0.70549899465E+02  0.00000000000E+00 0.  1.
         25    2    1    2    0    0  0.20183462227E+00  0.12077818986E+03  0.25624119997E+03  0.30966859367E+03  0.12509066097E+03 0.  0.
          5    1    3    3  502    0  0.40445869406E+02  0.18890000958E+01  0.28815546134E+02  0.49872284612E+02  0.41800000000E+01 0.  1.
         -5    1    3    3    0  502 -0.40244034784E+02  0.11888918976E+03  0.22742565383E+03  0.25979630906E+03  0.41800000000E+01 0.  1.
        -11    1    1    2    0    0  0.34844360216E+02 -0.73801623487E+02  0.16577692378E+02  0.83280423587E+02  0.00000000000E+00 0.  1.
         11    1    1    2    0    0 -0.35046194838E+02 -0.46976566369E+02  0.71419954572E+02  0.92389628592E+02  0.00000000000E+00 0. -1.
</event>
<event>
 7    1  0.2841804E-009  0.2116577E+03  0.7561462E-02  0.1140260E+00
          2   -1    0    0  501    0  0.00000000000E+00  0.00000000000E+00  0.17400328552E+04  0.17400328552E+04  0.00000000000E+00 0.  1.
         -2   -1    0    0    0  501 -0.00000000000E+00 -0.00000000000E+00 -0.29371786249E+02  0.29371786249E+02  0.00000000000E+00 0. -1.
         25    2    1    2    0    0  0.16375811071E+03 -0.97592549788E+02  0.10949400327E+04  0.11184285404E+04  0.12509076766E+03 0.  0.
          5    1    3    3  502    0  0.39568490757E+02 -0.89896549037E+02  0.60402882105E+03  0.61197658783E+03  0.41800000000E+01 0. -1.
         -5    1    3    3    0  502  0.12418961995E+03 -0.76960007513E+01  0.49091121165E+03  0.50645195256E+03  0.41800000000E+01 0. -1.
        -11    1    1    2    0    0 -0.48767899822E+02  0.64481739481E+02  0.35524608510E+03  0.36432949888E+03  0.00000000000E+00 0.  1.
         11    1    1    2    0    0 -0.11499021089E+03  0.33110810307E+02  0.26047495115E+03  0.28664660217E+03  0.00000000000E+00 0. -1.
</event>
<event>
 7    1  0.2841804E-009  0.1376100E+03  0.7561462E-02  0.1216582E+00
          1   -1    0    0  501    0  0.00000000000E+00  0.00000000000E+00  0.75436871793E+03  0.75436871793E+03  0.00000000000E+00 0. -1.
         -1   -1    0    0    0  501 -0.00000000000E+00 -0.00000000000E+00 -0.28376994218E+02  0.28376994218E+02  0.00000000000E+00 0.  1.
         25    2    1    2    0    0  0.81723984913E+02  0.52801982712E+02  0.36013559402E+03  0.39346134794E+03  0.12508927675E+03 0.  0.
          5    1    3    3  502    0  0.10080430989E+03  0.17916039086E+02  0.16467269703E+03  0.19395118689E+03  0.41800000000E+01 0.  1.
         -5    1    3    3    0  502 -0.19080324978E+02  0.34885943626E+02  0.19546289698E+03  0.19951016105E+03  0.41800000000E+01 0.  1.
        -11    1    1    2    0    0 -0.54292138837E+02  0.17710741247E+02  0.16906053838E+03  0.17844543237E+03  0.00000000000E+00 0.  1.
         11    1    1    2    0    0 -0.27431846075E+02 -0.70512723959E+02  0.19679559132E+03  0.21083893185E+03  0.00000000000E+00 0. -1.
</event>
<event>
 7    1  0.2841804E-009  0.1511995E+03  0.7561462E-02  0.1199007E+00
          1   -1    0    0  501    0  0.00000000000E+00  0.00000000000E+00  0.36896808910E+04  0.36896808910E+04  0.00000000000E+00 0. -1.
         -1   -1    0    0    0  501 -0.00000000000E+00 -0.00000000000E+00 -0.18478245864E+02  0.18478245864E+02  0.00000000000E+00 0.  1.
         25    2    1    2    0    0 -0.10816384858E+03 -0.31451170078E+02  0.33639199536E+04  0.33681293135E+04  0.12509605756E+03 0.  0.
          5    1    3    3  502    0 -0.12532831811E+03  0.45774786012E+01  0.27812924059E+04  0.27841215958E+04  0.41800000000E+01 0.  1.
         -5    1    3    3    0  502  0.17164469536E+02 -0.36028648679E+02  0.58262754776E+03  0.58400771771E+03  0.41800000000E+01 0.  1.
        -11    1    1    2    0    0  0.59587462018E+00  0.29193013833E+02  0.26856032783E+02  0.39671571938E+02  0.00000000000E+00 0.  1.
         11    1    1    2    0    0  0.10756797396E+03  0.22581562441E+01  0.28042665869E+03  0.30035825142E+03  0.00000000000E+00 0. -1.
</event>
<event>
 7    1  0.2841804E-009  0.1061779E+03  0.7561462E-02  0.1267816E+00
         -1   -1    0    0    0  501 -0.00000000000E+00  0.00000000000E+00  0.27964988051E+03  0.27964988051E+03  0.00000000000E+00 0.  1.
          1   -1    0    0  501    0  0.00000000000E+00 -0.00000000000E+00 -0.49582537885E+02  0.49582537885E+02  0.00000000000E+00 0. -1.
         25    2    1    2    0    0  0.32736875373E+02  0.31889488064E+02  0.13713097558E+03  0.19116648190E+03  0.12510426403E+03 0.  0.
          5    1    3    3  502    0  0.24121163099E+02 -0.35507471995E+02  0.61675313066E+01  0.43567441044E+02  0.41800000000E+01 0.  1.
         -5    1    3    3    0  502  0.86157122747E+01  0.67396960059E+02  0.13096344428E+03  0.14759904085E+03  0.41800000000E+01 0.  1.
        -11    1    1    2    0    0 -0.57427984533E+02 -0.45218847767E+02  0.58341876983E+02  0.93522682868E+02  0.00000000000E+00 0.  1.
         11    1    1    2    0    0  0.24691109160E+02  0.13329359703E+02  0.34594490053E+02  0.44543253627E+02  0.00000000000E+00 0. -1.
</event>
<event>
 7    1  0.2841804E-009  0.3166378E+03  0.7561462E-02  0.1077207E+00
         -2   -1    0    0    0  501 -0.00000000000E+00  0.00000000000E+00  0.68516072743E+02  0.68516072743E+02  0.00000000000E+00 0.  1.
          2   -1    0    0  501    0  0.00000000000E+00 -0.00000000000E+00 -0.17320771912E+04  0.17320771912E+04  0.00000000000E+00 0. -1.
         25    2    1    2    0    0  0.31257851188E+03  0.39101745829E+02 -0.10716560520E+04  0.11239792967E+04  0.12509393671E+03 0.  0.
          5    1    3    3  502    0  0.26634430719E+03  0.30336095114E+02 -0.10169572838E+04  0.10517029800E+04  0.41800000000E+01 0. -1.
         -5    1    3    3    0  502  0.46234204689E+02  0.87656507143E+01 -0.54698768235E+02  0.72276316744E+02  0.41800000000E+01 0. -1.
        -11    1    1    2    0    0 -0.12318303454E+03  0.56873138801E+01 -0.31393054188E+03  0.33728147097E+03  0.00000000000E+00 0. -1.
         11    1    1    2    0    0 -0.18939547734E+03 -0.44789059709E+02 -0.27797452452E+03  0.33933249622E+03  0.00000000000E+00 0.  1.
</event>
<event>
 7    1  0.2841804E-009  0.1062507E+03  0.7561462E-02  0.1267675E+00
          2   -1    0    0  501    0  0.00000000000E+00  0.00000000000E+00  0.29214977759E+03  0.29214977759E+03  0.00000000000E+00 0. -1.
         -2   -1    0    0    0  501 -0.00000000000E+00 -0.00000000000E+00 -0.57804102893E+02  0.57804102893E+02  0.00000000000E+00 0.  1.
         25    2    1    2    0    0  0.38609794169E+02 -0.35667595049E+02  0.58347305575E+02  0.14769772147E+03  0.12508922942E+03 0.  0.
          5    1    3    3  502    0  0.24568151890E+02 -0.72247400205E+02 -0.10337314048E+01  0.76431812253E+02  0.41800000000E+01 0.  1.
         -5    1    3    3    0  502  0.14041642279E+02  0.36579805155E+02  0.59381036980E+02  0.71265909213E+02  0.41800000000E+01 0.  1.
        -11    1    1    2    0    0  0.24538220382E+02  0.19878941746E+02  0.36148727954E+02  0.48000282470E+02  0.00000000000E+00 0.  1.
         11    1    1    2    0    0 -0.63148014552E+02  0.15788653303E+02  0.13984964117E+03  0.15425587655E+03  0.00000000000E+00 0. -1.
</event>
<event>
 7    1  0.2841804E-009  0.1161434E+03  0.7561462E-02  0.1249598E+00
          4   -1    0    0  501    0  0.00000000000E+00  0.00000000000E+00  0.68667357685E+03  0.68667357685E+03  0.00000000000E+00 0. -1.
         -4   -1    0    0    0  501 -0.00000000000E+00 -0.00000000000E+00 -0.25977760726E+02  0.25977760726E+02  0.00000000000E+00 0.  1.
         25    2    1    2    0    0  0.56887277318E+02  0.36863838195E+02  0.26750539194E+03  0.30298850624E+03  0.12509114801E+03 0.  0.
          5    1    3    3  502    0  0.15075811164E+02 -0.44342822183E+02  0.12625712696E+03  0.13472898897E+03  0.41800000000E+01 0. -1.
         -5    1    3    3    0  502  0.41811466154E+02  0.81206660379E+02  0.14124826498E+03  0.16825951727E+03  0.41800000000E+01 0. -1.
        -11    1    1    2    0    0 -0.18589948756E+01  0.16838747909E+02  0.11914669666E+02  0.20711316866E+02  0.00000000000E+00 0.  1.
         11    1    1    2    0    0 -0.55028282442E+02 -0.53702586105E+02  0.38127575452E+03  0.38895151447E+03  0.00000000000E+00 0. -1.
</event>
<event>
 7    1  0.2841804E-009  0.1097467E+03  0.7561462E-02  0.1261040E+00
          1   -1    0    0  501    0  0.00000000000E+00  0.00000000000E+00  0.99078927610E+03  0.99078927610E+03  0.00000000000E+00 0. -1.
         -1   -1    0    0    0  501 -0.00000000000E+00 -0.00000000000E+00 -0.20449779422E+02  0.20449779422E+02  0.00000000000E+00 0.  1.
         25    2    1    2    0    0  0.67643355508E+02  0.65509948193E+02  0.54353908746E+03  0.56564085577E+03  0.12509061220E+03 0.  0.
          5    1    3    3  502    0  0.56031028864E+02  0.55731540819E+02  0.13274498731E+03  0.15454509016E+03  0.41800000000E+01 0. -1.
         -5    1    3    3    0  502  0.11612326644E+02  0.97784073737E+01  0.41079410015E+03  0.41109576560E+03  0.41800000000E+01 0. -1.
        -11    1    1    2    0    0 -0.78247494394E+02 -0.24118265183E+02  0.22797310010E+03  0.24223149147E+03  0.00000000000E+00 0.  1.
         11    1    1    2    0    0  0.10604138886E+02 -0.41391683010E+02  0.19882730912E+03  0.20336670828E+03  0.00000000000E+00 0. -1.
</event>
<event>
 7    1  0.2841804E-009  0.1390767E+03  0.7561462E-02  0.1214577E+00
          3   -1    0    0  501    0  0.00000000000E+00  0.00000000000E+00  0.13175431279E+03  0.13175431279E+03  0.00000000000E+00 0. -1.
         -3   -1    0    0    0  501 -0.00000000000E+00 -0.00000000000E+00 -0.15796751760E+03  0.15796751760E+03  0.00000000000E+00 0.  1.
         25    2    1    2    0    0 -0.93683325374E+02 -0.54360244093E+01 -0.33464072113E+02  0.15993025036E+03  0.12510685450E+03 0.  0.
          5    1    3    3  502    0 -0.11263968046E+03  0.22114592358E+02 -0.46327247777E+02  0.12385652626E+03  0.41800000000E+01 0. -1.
         -5    1    3    3    0  502  0.18956355087E+02 -0.27550616767E+02  0.12863175664E+02  0.36073724102E+02  0.41800000000E+01 0. -1.
        -11    1    1    2    0    0  0.86489204123E+00 -0.30161885730E+02  0.21181485812E+01  0.30248536203E+02  0.00000000000E+00 0. -1.
         11    1    1    2    0    0  0.92818433333E+02  0.35597910139E+02  0.51327187267E+01  0.99543043826E+02  0.00000000000E+00 0.  1.
</event>
<event>
 7    1  0.2841804E-009  0.9007535E+02  0.7561462E-02  0.1302669E+00
          2   -1    0    0  501    0  0.00000000000E+00  0.00000000000E+00  0.39962794825E+03  0.39962794825E+03  0.00000000000E+00 0.  1.
         -2   -1    0    0    0  501 -0.00000000000E+00 -0.00000000000E+00 -0.57252142345E+02  0.57252142345E+02  0.00000000000E+00 0. -1.
         25    2    1    2    0    0  0.31264458229E+02 -0.31426843945E+02  0.32719659463E+03  0.35308625408E+03  0.12508868220E+03 0.  0.
          5    1    3    3  502    0  0.28943978101E+02  0.21085976913E+02  0.28002344538E+03  0.28233486263E+03  0.41800000000E+01 0. -1.
         -5    1    3    3    0  502  0.23204801289E+01 -0.52512820858E+02  0.47173149245E+02  0.70751391451E+02  0.41800000000E+01 0. -1.
        -11    1    1    2    0    0 -0.18614787017E+02  0.58550833327E+02  0.32198320540E+02  0.69364560292E+02  0.00000000000E+00 0.  1.
         11    1    1    2    0    0 -0.12649671213E+02 -0.27123989382E+02 -0.17019109258E+02  0.34429276230E+02  0.00000000000E+00 0. -1.
</event>
<event>
 7    1  0.2841804E-009  0.2237396E+03  0.7561462E-02  0.1131125E+00
         -2   -1    0    0    0  501 -0.00000000000E+00  0.00000000000E+00  0.75749512696E+03  0.75749512696E+03  0.00000000000E+00 0.  1.
          2   -1    0    0  501    0  0.00000000000E+00 -0.00000000000E+00 -0.72924771630E+02  0.72924771630E+02  0.00000000000E+00 0. -1.
         25    2    1    2    0    0 -0.75442058506E+02 -0.18550596178E+03  0.25358828630E+03  0.34649469860E+03  0.12509033200E+03 0.  0.
          5    1    3    3  502    0  0.25215428547E+02 -0.79840809256E+02  0.13262447665E+03  0.15689836477E+03  0.41800000000E+01 0.  1.
         -5    1    3    3    0  502 -0.10065748705E+03 -0.10566515252E+03  0.12096380965E+03  0.18959633383E+03  0.41800000000E+01 0.  1.
        -11    1    1    2    0    0  0.56447787611E+02  0.36013547718E+02  0.10121920450E+03  0.12136167313E+03  0.00000000000E+00 0. -1.
         11    1    1    2    0    0  0.18994270895E+02  0.14949241406E+03  0.32976286453E+03  0.36256352686E+03  0.00000000000E+00 0.  1.
</event>
<event>
 7    1  0.2841804E-009  0.9955426E+02  0.7561462E-02  0.1281236E+00
          1   -1    0    0  501    0  0.00000000000E+00  0.00000000000E+00  0.49733543218E+02  0.49733543218E+02  0.00000000000E+00 0.  1.
         -1   -1    0    0    0  501 -0.00000000000E+00 -0.00000000000E+00 -0.38003154787E+03  0.38003154787E+03  0.00000000000E+00 0. -1.
         25    2    1    2    0    0 -0.31791460714E+02 -0.75284660969E+02 -0.13846769028E+03  0.20372790023E+03  0.12511306458E+03 0.  0.
          5    1    3    3  502    0 -0.16816960724E+02 -0.13349483065E+02 -0.13814936776E+03  0.13987043676E+03  0.41800000000E+01 0.  1.
         -5    1    3    3    0  502 -0.14974499990E+02 -0.61935177905E+02 -0.31832252030E+00  0.63857463473E+02  0.41800000000E+01 0.  1.
        -11    1    1    2    0    0  0.57409050381E+02  0.62082963027E+02 -0.10659107059E+03  0.13605789096E+03  0.00000000000E+00 0.  1.
         11    1    1    2    0    0 -0.25617589667E+02  0.13201697943E+02 -0.85239243789E+02  0.89979299901E+02  0.00000000000E+00 0. -1.
</event>
<event>
 7    1  0.2841804E-009  0.1059738E+03  0.7561462E-02  0.1268213E+00
         -2   -1    0    0    0  501 -0.00000000000E+00  0.00000000000E+00  0.13566545266E+03  0.13566545266E+03  0.00000000000E+00 0.  1.
          2   -1    0    0  501    0  0.00000000000E+00 -0.00000000000E+00 -0.14554063520E+03  0.14554063520E+03  0.00000000000E+00 0. -1.
         25    2    1    2    0    0 -0.81694891416E+02  0.10562652903E+02 -0.38811554605E+02  0.15472393402E+03  0.12509010379E+03 0.  0.
          5    1    3    3  502    0 -0.73347191698E+02 -0.18474388840E+02  0.28410561553E+02  0.80905784594E+02  0.41800000000E+01 0.  1.
         -5    1    3    3    0  502 -0.83476997185E+01  0.29037041744E+02 -0.67222116157E+02  0.73818149424E+02  0.41800000000E+01 0.  1.
        -11    1    1    2    0    0  0.89046230873E+02 -0.22343727824E+02  0.47446314922E+02  0.10334227695E+03  0.00000000000E+00 0.  1.
         11    1    1    2    0    0 -0.73513394568E+01  0.11781074921E+02 -0.18509942853E+02  0.23139876891E+02  0.00000000000E+00 0. -1.
</event>
<event>
 7    1  0.2841804E-009  0.1294951E+03  0.7561462E-02  0.1228207E+00
         -2   -1    0    0    0  501 -0.00000000000E+00  0.00000000000E+00  0.10005605987E+03  0.10005605987E+03  0.00000000000E+00 0.  1.
          2   -1    0    0  501    0  0.00000000000E+00 -0.00000000000E+00 -0.24085868055E+03  0.24085868055E+03  0.00000000000E+00 0. -1.
         25    2    1    2    0    0 -0.50873671553E+01  0.96185348719E+02 -0.13750498349E+03  0.20937142409E+03  0.12510503639E+03 0.  0.
          5    1    3    3  502    0 -0.36158278509E+02  0.20502945827E+01  0.38621965604E+01  0.36660793429E+02  0.41800000000E+01 0. -1.
         -5    1    3    3    0  502  0.31070911354E+02  0.94135054137E+02 -0.14136718005E+03  0.17271063066E+03  0.41800000000E+01 0. -1.
        -11    1    1    2    0    0 -0.35982639048E+02 -0.48298142106E+02 -0.24454232330E+02  0.65003617766E+02  0.00000000000E+00 0. -1.
         11    1    1    2    0    0  0.41070006204E+02 -0.47887206614E+02  0.21156595143E+02  0.66539698563E+02  0.00000000000E+00 0.  1.
</event>
<event>
 7    1  0.2841804E-009  0.1519424E+03  0.7561462E-02  0.1198106E+00
          1   -1    0    0  501    0  0.00000000000E+00  0.00000000000E+00  0.49491551481E+03  0.49491551481E+03  0.00000000000E+00 0. -1.
         -1   -1    0    0    0  501 -0.00000000000E+00 -0.00000000000E+00 -0.70953153009E+02  0.70953153009E+02  0.00000000000E+00 0.  1.
         25    2    1    2    0    0 -0.78123649257E+02 -0.12432494866E+03  0.16370884404E+03  0.25300368570E+03  0.12510108683E+03 0.  0.
          5    1    3    3  502    0 -0.30259383065E+01 -0.20136572505E+02 -0.19978217592E+02  0.28831223232E+02  0.41800000000E+01 0.  1.
         -5    1    3    3    0  502 -0.75097710950E+02 -0.10418837615E+03  0.18368706163E+03  0.22417246246E+03  0.41800000000E+01 0.  1.
        -11    1    1    2    0    0 -0.75476303572E+00  0.36666352105E+02  0.12964145564E+02  0.38898073399E+02  0.00000000000E+00 0.  1.
         11    1    1    2    0    0  0.78878412293E+02  0.87658596553E+02  0.24728937219E+03  0.27396690872E+03  0.00000000000E+00 0. -1.
</event>
<event>
 7    1  0.2841804E-009  0.2878679E+03  0.7561462E-02  0.1091468E+00
          1   -1    0    0  501    0  0.00000000000E+00  0.00000000000E+00  0.13181714323E+04  0.13181714323E+04  0.00000000000E+00 0. -1.
         -1   -1    0    0    0  501 -0.00000000000E+00 -0.00000000000E+00 -0.77770607046E+02  0.77770607046E+02  0.00000000000E+00 0.  1.
         25    2    1    2    0    0 -0.17316501285E+03  0.20837565597E+03  0.91666671405E+03  0.96401789348E+03  0.12508436602E+03 0.  0.
          5    1    3    3  502    0 -0.88939829889E+02  0.18043381789E+03  0.52104537196E+03  0.55854490242E+03  0.41800000000E+01 0. -1.
         -5    1    3    3    0  502 -0.84225182966E+02  0.27941838080E+02  0.39562134209E+03  0.40547299106E+03  0.41800000000E+01 0. -1.
        -11    1    1    2    0    0  0.18430437337E+03 -0.19684542321E+03  0.30938120320E+03  0.41040583765E+03  0.00000000000E+00 0. -1.
         11    1    1    2    0    0 -0.11139360517E+02 -0.11530232756E+02  0.14352907986E+02  0.21518308200E+02  0.00000000000E+00 0.  1.
</event>
<event>
 7    1  0.2841804E-009  0.1973354E+03  0.7561462E-02  0.1152007E+00
         -2   -1    0    0    0  501 -0.00000000000E+00  0.00000000000E+00  0.34700464335E+03  0.34700464335E+03  0.00000000000E+00 0.  1.
          2   -1    0    0  501    0  0.00000000000E+00 -0.00000000000E+00 -0.12692643150E+03  0.12692643150E+03  0.00000000000E+00 0. -1.
         25    2    1    2    0    0 -0.17453075437E+03  0.37165584373E+02  0.10045162952E+03  0.23995989317E+03  0.12509178860E+03 0.  0.
          5    1    3    3  502    0 -0.64569102377E+02  0.72437292374E+02  0.20024441031E+02  0.99170464085E+02  0.41800000000E+01 0. -1.
         -5    1    3    3    0  502 -0.10996165199E+03 -0.35271708001E+02  0.80427188491E+02  0.14078942909E+03  0.41800000000E+01 0. -1.
        -11    1    1    2    0    0  0.15149529680E+03 -0.44356843185E+02  0.58659979532E+02  0.16840233872E+03  0.00000000000E+00 0. -1.
         11    1    1    2    0    0  0.23035457570E+02  0.71912588124E+01  0.60966602800E+02  0.65568842950E+02  0.00000000000E+00 0.  1.
</event>
<event>
 7    1  0.2841804E-009  0.1067007E+03  0.7561462E-02  0.1266804E+00
          1   -1    0    0  501    0  0.00000000000E+00  0.00000000000E+00  0.18316068994E+04  0.18316068994E+04  0.00000000000E+00 0. -1.
         -1   -1    0    0    0  501 -0.00000000000E+00 -0.00000000000E+00 -0.11391580606E+02  0.11391580606E+02  0.00000000000E+00 0.  1.
         25    2    1    2    0    0  0.37120842208E+02  0.18623500902E+02  0.15257515713E+04  0.15314339934E+04  0.12508967579E+03 0.  0.
          5    1    3    3  502    0  0.50351829580E+02  0.65609669898E+02  0.95444085996E+03  0.95802649394E+03  0.41800000000E+01 0.  1.
         -5    1    3    3    0  502 -0.13230987373E+02 -0.46986168996E+02  0.57131071133E+03  0.57340749942E+03  0.41800000000E+01 0.  1.
        -11    1    1    2    0    0  0.48712946978E+01 -0.35873471098E+02  0.43809079028E+02  0.56831952684E+02  0.00000000000E+00 0.  1.
         11    1    1    2    0    0 -0.41992136905E+02  0.17249970196E+02  0.25065466849E+03  0.25473253398E+03  0.00000000000E+00 0. -1.
</event>
<event>
 7    1  0.2841804E-009  0.9821058E+02  0.7561462E-02  0.1284104E+00
         -1   -1    0    0    0  501 -0.00000000000E+00  0.00000000000E+00  0.11952859901E+04  0.11952859901E+04  0.00000000000E+00 0.  1.
          1   -1    0    0  501    0  0.00000000000E+00 -0.00000000000E+00 -0.13044881845E+02  0.13044881845E+02  0.00000000000E+00 0. -1.
         25    2    1    2    0    0  0.54401382050E+02 -0.68313885924E+01  0.79711728935E+03  0.80873420323E+03  0.12509540462E+03 0.  0.
          5    1    3    3  502    0  0.47273135869E+01  0.44658857955E+02  0.12653186738E+03  0.13432999274E+03  0.41800000000E+01 0.  1.
         -5    1    3    3    0  502  0.49674068464E+02 -0.51490246547E+02  0.67058542197E+03  0.67440421049E+03  0.41800000000E+01 0.  1.
        -11    1    1    2    0    0  0.12136636037E+02  0.48903573839E+01  0.55215987408E+01  0.14202168225E+02  0.00000000000E+00 0. -1.
         11    1    1    2    0    0 -0.66538018087E+02  0.19410312085E+01  0.37960222017E+03  0.38539450049E+03  0.00000000000E+00 0.  1.
</event>
<event>
 7    1  0.2841804E-009  0.3116026E+03  0.7561462E-02  0.1079580E+00
         -3   -1    0    0    0  501 -0.00000000000E+00  0.00000000000E+00  0.20620828816E+03  0.20620828816E+03  0.00000000000E+00 0.  1.
          3   -1    0    0  501    0  0.00000000000E+00 -0.00000000000E+00 -0.47303013183E+03  0.47303013183E+03  0.00000000000E+00 0. -1.
         25    2    1    2    0    0  0.24019736847E+03 -0.16692260653E+03 -0.13316599629E+03  0.34487090636E+03  0.12507928325E+03 0.  0.
          5    1    3    3  502    0  0.49962104142E+02 -0.10759981909E+03 -0.53950745885E+02  0.13039205612E+03  0.41800000000E+01 0.  1.
         -5    1    3    3    0  502  0.19023526432E+03 -0.59322787438E+02 -0.79215250404E+02  0.21447885023E+03  0.41800000000E+01 0.  1.
        -11    1    1    2    0    0 -0.18603686874E+03  0.16849777502E+03 -0.97727636583E+02  0.26935461324E+03  0.00000000000E+00 0. -1.
         11    1    1    2    0    0 -0.54160499722E+02 -0.15751684936E+01 -0.35928210806E+02  0.65012900394E+02  0.00000000000E+00 0.  1.
</event>
<event>
 7    1  0.2841804E-009  0.1032729E+03  0.7561462E-02  0.1273560E+00
         -2   -1    0    0    0  501 -0.00000000000E+00  0.00000000000E+00  0.26913857417E+03  0.26913857417E+03  0.00000000000E+00 0.  1.
          2   -1    0    0  501    0  0.00000000000E+00 -0.00000000000E+00 -0.83315542108E+02  0.83315542108E+02  0.00000000000E+00 0. -1.
         25    2    1    2    0    0  0.23690707029E+02  0.15037175990E+02  0.21578684841E+03  0.25099607439E+03  0.12509076367E+03 0.  0.
          5    1    3    3  502    0 -0.45683294395E+02  0.80499910442E+01  0.38440184230E+02  0.60389451945E+02  0.41800000000E+01 0.  1.
         -5    1    3    3    0  502  0.69374001424E+02  0.69871849462E+01  0.17734666418E+03  0.19060662245E+03  0.41800000000E+01 0.  1.
        -11    1    1    2    0    0 -0.16522785866E+02  0.35458237114E+02 -0.31814682840E+02  0.50422842802E+02  0.00000000000E+00 0. -1.
         11    1    1    2    0    0 -0.71679211623E+01 -0.50495413105E+02  0.18508664941E+01  0.51035199081E+02  0.00000000000E+00 0.  1.
</event>
<event>
 7    1  0.2841804E-009  0.1373426E+03  0.7561462E-02  0.1216950E+00
         -4   -1    0    0    0  501 -0.00000000000E+00  0.00000000000E+00  0.12962017403E+03  0.12962017403E+03  0.00000000000E+00 0.  1.
          4   -1    0    0  501    0  0.00000000000E+00 -0.00000000000E+00 -0.21742606642E+03  0.21742606642E+03  0.00000000000E+00 0. -1.
         25    2    1    2    0    0  0.33579079604E+02 -0.11668355595E+03 -0.46734671512E+01  0.17439216999E+03  0.12509268900E+03 0.  0.
          5    1    3    3  502    0  0.47361904086E+02 -0.79980320550E+02 -0.56816045857E+02  0.10902081040E+03  0.41800000000E+01 0. -1.
         -5    1    3    3    0  502 -0.13782824483E+02 -0.36703235402E+02  0.52142578705E+02  0.65371359583E+02  0.41800000000E+01 0. -1.
        -11    1    1    2    0    0  0.11318232691E+02 -0.51011372936E+01 -0.29882147202E+02  0.32358410256E+02  0.00000000000E+00 0. -1.
         11    1    1    2    0    0 -0.44897312295E+02  0.12178469325E+03 -0.53250278041E+02  0.14029566020E+03  0.00000000000E+00 0.  1.
</event>
<event>
 7    1  0.2841804E-009  0.4607601E+02  0.7561462E-02  0.1467734E+00
          1   -1    0    0  501    0  0.00000000000E+00  0.00000000000E+00  0.23651762408E+03  0.23651762408E+03  0.00000000000E+00 0. -1.
         -1   -1    0    0    0  501 -0.00000000000E+00 -0.00000000000E+00 -0.11327580617E+03  0.11327580617E+03  0.00000000000E+00 0.  1.
         25    2    1    2    0    0  0.13484035556E+02  0.38951987506E+02 -0.56927582365E+02  0.14348076714E+03  0.12508758676E+03 0.  0.
          5    1    3    3  502    0  0.12863893976E+02  0.28578712595E+02 -0.96921273162E+02  0.10194816415E+03  0.41800000000E+01 0. -1.
         -5    1    3    3    0  502  0.62014157977E+00  0.10373274910E+02  0.39993690797E+02  0.41532602995E+02  0.41800000000E+01 0. -1.
        -11    1    1    2    0    0 -0.15350143364E+02 -0.62433174539E+01 -0.57410688281E+01  0.17537553576E+02  0.00000000000E+00 0.  1.
         11    1    1    2    0    0  0.18661078081E+01 -0.32708670052E+02  0.18591046910E+03  0.18877510953E+03  0.00000000000E+00 0. -1.
</event>
<event>
 7    1  0.2841804E-009  0.2229526E+03  0.7561462E-02  0.1131701E+00
          1   -1    0    0  501    0  0.00000000000E+00  0.00000000000E+00  0.49717959904E+03  0.49717959904E+03  0.00000000000E+00 0. -1.
         -1   -1    0    0    0  501 -0.00000000000E+00 -0.00000000000E+00 -0.14067195946E+03  0.14067195946E+03  0.00000000000E+00 0.  1.
         25    2    1    2    0    0  0.20100409208E+03  0.39291694203E+02  0.36757835568E+02  0.24278595279E+03  0.12508956043E+03 0.  0.
          5    1    3    3  502    0 -0.32819615086E+01 -0.19327103216E+01  0.33850621635E+02  0.34319726479E+02  0.41800000000E+01 0. -1.
         -5    1    3    3    0  502  0.20428605359E+03  0.41224404524E+02  0.29072139332E+01  0.20846622631E+03  0.41800000000E+01 0. -1.
        -11    1    1    2    0    0 -0.48739482430E+02 -0.60912898746E+02  0.11590247535E+03  0.13971149621E+03  0.00000000000E+00 0. -1.
         11    1    1    2    0    0 -0.15226460965E+03  0.21621204544E+02  0.20384732867E+03  0.25535410951E+03  0.00000000000E+00 0.  1.
</event>
<event>
 7    1  0.2841804E-009  0.9643041E+02  0.7561462E-02  0.1287987E+00
          1   -1    0    0  501    0  0.00000000000E+00  0.00000000000E+00  0.23733882123E+03  0.23733882123E+03  0.00000000000E+00 0. -1.
         -1   -1    0    0    0  501 -0.00000000000E+00 -0.00000000000E+00 -0.57138371665E+02  0.57138371665E+02  0.00000000000E+00 0.  1.
         25    2    1    2    0    0 -0.24779546675E+02  0.13082999014E+01  0.14443358369E+03  0.19267615522E+03  0.12508918062E+03 0.  0.
          5    1    3    3  502    0 -0.58458487733E+02  0.26814698993E+02  0.13439748848E+03  0.14905227331E+03  0.41800000000E+01 0.  1.
         -5    1    3    3    0  502  0.33678941058E+02 -0.25506399091E+02  0.10036095215E+02  0.43623881906E+02  0.41800000000E+01 0.  1.
        -11    1    1    2    0    0  0.42954130673E+02 -0.29716782280E+02 -0.55767703378E+00  0.52234619694E+02  0.00000000000E+00 0.  1.
         11    1    1    2    0    0 -0.18174583997E+02  0.28408482379E+02  0.36324542911E+02  0.49566417989E+02  0.00000000000E+00 0. -1.
</event>
<event>
 7    1  0.2841804E-009  0.1195549E+03  0.7561462E-02  0.1243833E+00
          1   -1    0    0  501    0  0.00000000000E+00  0.00000000000E+00  0.61100891240E+02  0.61100891240E+02  0.00000000000E+00 0. -1.
         -1   -1    0    0    0  501 -0.00000000000E+00 -0.00000000000E+00 -0.40240107374E+03  0.40240107374E+03  0.00000000000E+00 0.  1.
         25    2    1    2    0    0  0.78084125977E+02 -0.39853597694E+02 -0.77525546353E+02  0.17129975208E+03  0.12509178529E+03 0.  0.
          5    1    3    3  502    0 -0.17426152754E+01  0.15965002415E+02 -0.71737540502E+02  0.73631957243E+02  0.41800000000E+01 0.  1.
         -5    1    3    3    0  502  0.79826741253E+02 -0.55818600109E+02 -0.57880058507E+01  0.97667794840E+02  0.41800000000E+01 0.  1.
        -11    1    1    2    0    0 -0.52796946414E+02  0.68708926493E+02 -0.19646809595E+03  0.21472807654E+03  0.00000000000E+00 0.  1.
         11    1    1    2    0    0 -0.25287179563E+02 -0.28855328799E+02 -0.67306540204E+02  0.77474136359E+02  0.00000000000E+00 0. -1.
</event>
<event>
 6    1  0.2841804E-009  0.1211952E+03  0.7561462E-02  0.1241138E+00
         -1   -1    0    0    0  501 -0.00000000000E+00  0.00000000000E+00  0.27606008969E+03  0.27606008969E+03  0.00000000000E+00 0.  1.
          1   -1    0    0  501    0  0.00000000000E+00 -0.00000000000E+00 -0.60228534266E+02  0.60228534266E+02  0.00000000000E+00 0. -1.
          5    1    1    2  502    0  0.52472765582E+02  0.40021460215E+02  0.43911590971E+02  0.79377633041E+02  0.41800000000E+01 0.  1.
         -5    1    1    2    0  502 -0.63533669384E+02  0.23493819508E+02  0.10874115287E+03  0.12818189197E+03  0.41800000000E+01 0.  1.
        -11    1    1    2    0    0  0.45158348805E+02 -0.58548272163E+02  0.26866188915E+02  0.78669999027E+02  0.00000000000E+00 0. -1.
         11    1    1    2    0    0 -0.34097445003E+02 -0.49670075602E+01  0.36312622661E+02  0.50059099916E+02  0.00000000000E+00 0.  1.
</event>
<event>
 7    1  0.2841804E-009  0.2320591E+03  0.7561462E-02  0.1125199E+00
          1   -1    0    0  501    0  0.00000000000E+00  0.00000000000E+00  0.28105299058E+03  0.28105299058E+03  0.00000000000E+00 0. -1.
         -1   -1    0    0    0  501 -0.00000000000E+00 -0.00000000000E+00 -0.22165529764E+03  0.22165529764E+03  0.00000000000E+00 0.  1.
         25    2    1    2    0    0 -0.15322503875E+02  0.21411152132E+03 -0.35178593750E+02  0.25092772590E+03  0.12509463410E+03 0.  0.
          5    1    3    3  502    0 -0.42071890964E+02  0.19027077260E+03 -0.63574879167E+02  0.20501767869E+03  0.41800000000E+01 0.  1.
         -5    1    3    3    0  502  0.26749387089E+02  0.23840748723E+02  0.28396285418E+02  0.45910047210E+02  0.41800000000E+01 0.  1.
        -11    1    1    2    0    0 -0.37120413048E+02 -0.62334005813E+02  0.24511005340E+02  0.76578343730E+02  0.00000000000E+00 0.  1.
         11    1    1    2    0    0  0.52442916923E+02 -0.15177751551E+03  0.70065281343E+02  0.17520221859E+03  0.00000000000E+00 0. -1.
</event>
<event>
 7    1  0.2841804E-009  0.1332983E+03  0.7561462E-02  0.1222642E+00
          2   -1    0    0  501    0  0.00000000000E+00  0.00000000000E+00  0.38001960055E+03  0.38001960055E+03  0.00000000000E+00 0. -1.
         -2   -1    0    0    0  501 -0.00000000000E+00 -0.00000000000E+00 -0.59548538721E+02  0.59548538721E+02  0.00000000000E+00 0.  1.
         25    2    1    2    0    0  0.86102457465E+02 -0.54927975779E+02  0.14420280940E+03  0.21649978056E+03  0.12508792524E+03 0.  0.
          5    1    3    3  502    0  0.98270807404E+02 -0.27628994274E+02  0.15396699530E+03  0.18478046692E+03  0.41800000000E+01 0.  1.
         -5    1    3    3    0  502 -0.12168349939E+02 -0.27298981505E+02 -0.97641859063E+01  0.31719313641E+02  0.41800000000E+01 0.  1.
        -11    1    1    2    0    0 -0.51073136692E+02  0.77328037823E+02  0.14000552801E+03  0.16789770278E+03  0.00000000000E+00 0. -1.
         11    1    1    2    0    0 -0.35029320773E+02 -0.22400062044E+02  0.36262724421E+02  0.55170655931E+02  0.00000000000E+00 0.  1.
</event>
<event>
 7    1  0.2841804E-009  0.1182658E+03  0.7561462E-02  0.1245986E+00
          2   -1    0    0  501    0  0.00000000000E+00  0.00000000000E+00  0.20524722421E+03  0.20524722421E+03  0.00000000000E+00 0. -1.
         -2   -1    0    0    0  501 -0.00000000000E+00 -0.00000000000E+00 -0.70386231766E+02  0.70386231766E+02  0.00000000000E+00 0.  1.
         25    2    1    2    0    0  0.50826234648E+02 -0.12202478698E+02  0.89171631799E+02  0.16227629747E+03  0.12509920139E+03 0.  0.
          5    1    3    3  502    0 -0.64222505263E+00  0.52229135697E+02  0.42201659167E+02  0.67281108085E+02  0.41800000000E+01 0.  1.
         -5    1    3    3    0  502  0.51468459700E+02 -0.64431614396E+02  0.46969972632E+02  0.94995189387E+02  0.41800000000E+01 0.  1.
        -11    1    1    2    0    0 -0.31217638670E+02  0.50019874246E+02  0.37787914550E+02  0.70031816125E+02  0.00000000000E+00 0.  1.
         11    1    1    2    0    0 -0.19608595977E+02 -0.37817395547E+02  0.79014460986E+01  0.43325342383E+02  0.00000000000E+00 0. -1.
</event>
<event>
 6    1  0.2841804E-009  0.9918965E+02  0.7561462E-02  0.1282009E+00
          1   -1    0    0  501    0  0.00000000000E+00  0.00000000000E+00  0.35116681664E+02  0.35116681664E+02  0.00000000000E+00 0. -1.
         -1   -1    0    0    0  501 -0.00000000000E+00 -0.00000000000E+00 -0.47302308150E+03  0.47302308150E+03  0.00000000000E+00 0.  1.
          5    1    1    2  502    0 -0.29515871965E+02  0.69419676462E+01 -0.26563101903E+03  0.26738864651E+03  0.41800000000E+01 0. -1.
         -5    1    1    2    0  502  0.51447798288E+02  0.35891069875E+02 -0.72703153836E+02  0.96115897869E+02  0.41800000000E+01 0. -1.
        -11    1    1    2    0    0  0.79645712297E+01 -0.66373873850E+02 -0.63130161461E+02  0.91947500297E+02  0.00000000000E+00 0. -1.
         11    1    1    2    0    0 -0.29896497552E+02  0.23540836329E+02 -0.36442065512E+02  0.52687718490E+02  0.00000000000E+00 0.  1.
</event>
<event>
 6    1  0.2841804E-009  0.1353882E+03  0.7561462E-02  0.1219673E+00
          1   -1    0    0  501    0  0.00000000000E+00  0.00000000000E+00  0.29507409970E+02  0.29507409970E+02  0.00000000000E+00 0. -1.
         -1   -1    0    0    0  501 -0.00000000000E+00 -0.00000000000E+00 -0.67072427955E+03  0.67072427955E+03  0.00000000000E+00 0.  1.
          5    1    1    2  502    0  0.20744761597E+02 -0.34098773346E+02 -0.14970772445E+03  0.15499337611E+03  0.41800000000E+01 0. -1.
         -5    1    1    2    0  502 -0.10781904929E+03  0.12619364455E+02 -0.21514341701E+03  0.24101526514E+03  0.41800000000E+01 0. -1.
        -11    1    1    2    0    0  0.95500873737E+01  0.40973422035E+02 -0.57742051822E+02  0.71443474375E+02  0.00000000000E+00 0. -1.
         11    1    1    2    0    0  0.77524200321E+02 -0.19494013144E+02 -0.21862367631E+03  0.23277957390E+03  0.00000000000E+00 0.  1.
</event>
<event>
 7    1  0.2841804E-009  0.1534728E+03  0.7561462E-02  0.1196269E+00
         -1   -1    0    0    0  501 -0.00000000000E+00  0.00000000000E+00  0.20642025856E+02  0.20642025856E+02  0.00000000000E+00 0.  1.
          1   -1    0    0  501    0  0.00000000000E+00 -0.00000000000E+00 -0.13454197747E+04  0.13454197747E+04  0.00000000000E+00 0. -1.
         25    2    1    2    0    0 -0.12361098653E+03  0.10361819198E+02 -0.61946346939E+03  0.64402473279E+03  0.12508326524E+03 0.  0.
          5    1    3    3  502    0  0.13679493146E+02 -0.22327763688E+02 -0.19260322700E+03  0.19441999130E+03  0.41800000000E+01 0.  1.
         -5    1    3    3    0  502 -0.13729047968E+03  0.32689582886E+02 -0.42686024239E+03  0.44960474149E+03  0.41800000000E+01 0.  1.
        -11    1    1    2    0    0  0.10724625001E+03  0.15775973662E+02 -0.64751220067E+03  0.65652318276E+03  0.00000000000E+00 0. -1.
         11    1    1    2    0    0  0.16364736524E+02 -0.26137792860E+02 -0.57802078774E+02  0.65513884999E+02  0.00000000000E+00 0.  1.
</event>
<event>
 7    1  0.2841804E-009  0.1001299E+03  0.7561462E-02  0.1280023E+00
         -2   -1    0    0    0  501 -0.00000000000E+00  0.00000000000E+00  0.14232902901E+03  0.14232902901E+03  0.00000000000E+00 0.  1.
          2   -1    0    0  501    0  0.00000000000E+00 -0.00000000000E+00 -0.14450574561E+03  0.14450574561E+03  0.00000000000E+00 0. -1.
         25    2    1    2    0    0  0.80135133753E+02 -0.46338026538E+02 -0.60306881981E+01  0.15572285811E+03  0.12507752385E+03 0.  0.
          5    1    3    3  502    0  0.74590772018E+02 -0.45664339268E+02  0.48942499620E+02  0.10030880231E+03  0.41800000000E+01 0.  1.
         -5    1    3    3    0  502  0.55443617345E+01 -0.67368727037E+00 -0.54973187818E+02  0.55414055802E+02  0.41800000000E+01 0.  1.
        -11    1    1    2    0    0 -0.75218468212E+02  0.18505009285E+02 -0.33395285229E+02  0.84353413708E+02  0.00000000000E+00 0. -1.
         11    1    1    2    0    0 -0.49166655412E+01  0.27833017254E+02  0.37249256828E+02  0.46758502796E+02  0.00000000000E+00 0.  1.
</event>
<event>
 7    1  0.2841804E-009  0.1273986E+03  0.7561462E-02  0.1231368E+00
         -1   -1    0    0    0  501 -0.00000000000E+00  0.00000000000E+00  0.52419353106E+02  0.52419353106E+02  0.00000000000E+00 0.  1.
          1   -1    0    0  501    0  0.00000000000E+00 -0.00000000000E+00 -0.51710003160E+03  0.51710003160E+03  0.00000000000E+00 0. -1.
         25    2    1    2    0    0 -0.17039458080E+02 -0.82490098696E+02 -0.79650955523E+02  0.17055362660E+03  0.12509718349E+03 0.  0.
          5    1    3    3  502    0 -0.13298340393E+01 -0.11450114465E+03 -0.65329670549E+02  0.13190041258E+03  0.41800000000E+01 0. -1.
         -5    1    3    3    0  502 -0.15709624041E+02  0.32011045956E+02 -0.14321284974E+02  0.38653214019E+02  0.41800000000E+01 0. -1.
        -11    1    1    2    0    0 -0.21655935640E+02  0.47233526140E+02 -0.17896602786E+03  0.18635671350E+03  0.00000000000E+00 0.  1.
         11    1    1    2    0    0  0.38695393720E+02  0.35256572556E+02 -0.20606369512E+03  0.21260904461E+03  0.00000000000E+00 0. -1.
</event>
<event>
 7    1  0.2841804E-009  0.9403836E+02  0.7561462E-02  0.1293357E+00
         -1   -1    0    0    0  501 -0.00000000000E+00  0.00000000000E+00  0.40384063746E+03  0.40384063746E+03  0.00000000000E+00 0.  1.
          1   -1    0    0  501    0  0.00000000000E+00 -0.00000000000E+00 -0.37002567073E+02  0.37002567073E+02  0.00000000000E+00 0. -1.
         25    2    1    2    0    0  0.15155927970E+02  0.49554693409E+02  0.24561887884E+03  0.28046756343E+03  0.12509216884E+03 0.  0.
          5    1    3    3  502    0  0.43601298586E+02 -0.26537018470E+02  0.12393938447E+03  0.13410343027E+03  0.41800000000E+01 0. -1.
         -5    1    3    3    0  502 -0.28445370616E+02  0.76091711879E+02  0.12167949436E+03  0.14636413316E+03  0.41800000000E+01 0. -1.
        -11    1    1    2    0    0  0.26200846024E+01 -0.25380026488E+02 -0.87607420829E+01  0.26977049314E+02  0.00000000000E+00 0. -1.
         11    1    1    2    0    0 -0.17776012572E+02 -0.24174666921E+02  0.12997993363E+03  0.13339859179E+03  0.00000000000E+00 0.  1.
</event>
<event>
 7    1  0.2841804E-009  0.2689763E+03  0.7561462E-02  0.1101867E+00
         -3   -1    0    0    0  501 -0.00000000000E+00  0.00000000000E+00  0.24340252039E+03  0.24340252039E+03  0.00000000000E+00 0.  1.
          3   -1    0    0  501    0  0.00000000000E+00 -0.00000000000E+00 -0.33241870455E+03  0.33241870455E+03  0.00000000000E+00 0. -1.
         25    2    1    2    0    0 -0.25841290393E+03  0.40004432898E+02 -0.14592387596E+02  0.29023813011E+03  0.12509057049E+03 0.  0.
          5    1    3    3  502    0 -0.12769187320E+03 -0.84467481590E+01  0.48813189059E+02  0.13702832504E+03  0.41800000000E+01 0. -1.
         -5    1    3    3    0  502 -0.13072103073E+03  0.48451181057E+02 -0.63405576654E+02  0.15320980508E+03  0.41800000000E+01 0. -1.
        -11    1    1    2    0    0  0.74731137851E+02  0.19724563175E+02  0.33518836114E+01  0.77363017526E+02  0.00000000000E+00 0.  1.
         11    1    1    2    0    0  0.18368176608E+03 -0.59728996074E+02 -0.77775680175E+02  0.20822007730E+03  0.00000000000E+00 0. -1.
</event>
<event>
 7    1  0.2841804E-009  0.8665013E+02  0.7561462E-02  0.1311173E+00
         -1   -1    0    0    0  501 -0.00000000000E+00  0.00000000000E+00  0.43223732118E+02  0.43223732118E+02  0.00000000000E+00 0.  1.
          1   -1    0    0  501    0  0.00000000000E+00 -0.00000000000E+00 -0.27114382298E+03  0.27114382298E+03  0.00000000000E+00 0. -1.
         25    2    1    2    0    0 -0.40266839942E+01  0.11106485413E+02 -0.13226155776E+03  0.18242710151E+03  0.12508780716E+03 0.  0.
          5    1    3    3  502    0 -0.43254791751E+02 -0.28105936366E+02 -0.17047209798E+02  0.54488534852E+02  0.41800000000E+01 0.  1.
         -5    1    3    3    0  502  0.39228107757E+02  0.39212421779E+02 -0.11521434797E+03  0.12793856665E+03  0.41800000000E+01 0.  1.
        -11    1    1    2    0    0  0.22206430198E+02  0.20006101348E+02 -0.18167120035E+00  0.29889841715E+02  0.00000000000E+00 0.  1.
         11    1    1    2    0    0 -0.18179746204E+02 -0.31112586761E+02 -0.95476861900E+02  0.10205061188E+03  0.00000000000E+00 0. -1.
</event>
<event>
 7    1  0.2841804E-009  0.1476511E+03  0.7561462E-02  0.1203389E+00
         -2   -1    0    0    0  501 -0.00000000000E+00  0.00000000000E+00  0.56663845172E+02  0.56663845172E+02  0.00000000000E+00 0.  1.
          2   -1    0    0  501    0  0.00000000000E+00 -0.00000000000E+00 -0.59068429434E+03  0.59068429434E+03  0.00000000000E+00 0. -1.
         25    2    1    2    0    0 -0.46597604064E+02 -0.10596177989E+03 -0.12203226796E+03  0.20961453246E+03  0.12508853781E+03 0.  0.
          5    1    3    3  502    0 -0.80805386856E+02 -0.75384923142E+02 -0.44048732795E+02  0.11903848303E+03  0.41800000000E+01 0. -1.
         -5    1    3    3    0  502  0.34207782792E+02 -0.30576856751E+02 -0.77983535166E+02  0.90576049424E+02  0.41800000000E+01 0. -1.
        -11    1    1    2    0    0 -0.15241415187E+02  0.59152224851E+02 -0.26025889338E+03  0.26733121408E+03  0.00000000000E+00 0. -1.
         11    1    1    2    0    0  0.61839019251E+02  0.46809555042E+02 -0.15172928783E+03  0.17040239297E+03  0.00000000000E+00 0.  1.
</event>
<event>
 7    1  0.2841804E-009  0.1988322E+03  0.7561462E-02  0.1150728E+00
          1   -1    0    0  501    0  0.00000000000E+00  0.00000000000E+00  0.12362610029E+04  0.12362610029E+04  0.00000000000E+00 0. -1.
         -1   -1    0    0    0  501 -0.00000000000E+00 -0.00000000000E+00 -0.42924785185E+02  0.42924785185E+02  0.00000000000E+00 0.  1.
         25    2    1    2    0    0 -0.11060636154E+03  0.14082891074E+03  0.88123300483E+03  0.90790182996E+03  0.12509026632E+03 0.  0.
          5    1    3    3  502    0 -0.13487579948E+03  0.13387770194E+03  0.72088686901E+03  0.74552670688E+03  0.41800000000E+01 0.  1.
         -5    1    3    3    0  502  0.24269437944E+02  0.69512088000E+01  0.16034613582E+03  0.16237512308E+03  0.41800000000E+01 0.  1.
        -11    1    1    2    0    0  0.30006689023E+02 -0.17732613245E+02  0.11671185474E+02  0.36756816089E+02  0.00000000000E+00 0.  1.
         11    1    1    2    0    0  0.80599672512E+02 -0.12309629750E+03  0.30043202743E+03  0.33452714205E+03  0.00000000000E+00 0. -1.
</event>
<event>
 7    1  0.2841804E-009  0.2160429E+03  0.7561462E-02  0.1136868E+00
         -2   -1    0    0    0  501 -0.00000000000E+00  0.00000000000E+00  0.75701034614E+02  0.75701034614E+02  0.00000000000E+00 0.  1.
          2   -1    0    0  501    0  0.00000000000E+00 -0.00000000000E+00 -0.65440036911E+03  0.65440036911E+03  0.00000000000E+00 0. -1.
         25    2    1    2    0    0 -0.17053374968E+03  0.80775987897E+02 -0.38113253238E+03  0.44330197960E+03  0.12509243732E+03 0.  0.
          5    1    3    3  502    0 -0.74668301290E+02  0.10224424531E+03 -0.18994512754E+03  0.22831089503E+03  0.41800000000E+01 0. -1.
         -5    1    3    3    0  502 -0.95865448392E+02 -0.21468257409E+02 -0.19118740484E+03  0.21499108456E+03  0.41800000000E+01 0. -1.
        -11    1    1    2    0    0  0.44451903359E+02 -0.66784588649E+02 -0.89081901063E+02  0.11988218421E+03  0.00000000000E+00 0.  1.
         11    1    1    2    0    0  0.12608184632E+03 -0.13991399248E+02 -0.10848490105E+03  0.16691723992E+03  0.00000000000E+00 0. -1.
</event>
<event>
 7    1  0.2841804E-009  0.1343569E+03  0.7561462E-02  0.1221130E+00
          1   -1    0    0  501    0  0.00000000000E+00  0.00000000000E+00  0.14186142039E+03  0.14186142039E+03  0.00000000000E+00 0. -1.
         -1   -1    0    0    0  501 -0.00000000000E+00 -0.00000000000E+00 -0.18035428845E+03  0.18035428845E+03  0.00000000000E+00 0.  1.
         25    2    1    2    0    0  0.11079562772E+03  0.25091173051E+02  0.87613165542E+01  0.16919119952E+03  0.12507463069E+03 0.  0.
          5    1    3    3  502    0 -0.15540602076E+02  0.21298241511E+02  0.30869692292E+02  0.40810975320E+02  0.41800000000E+01 0.  1.
         -5    1    3    3    0  502  0.12633622980E+03  0.37929315396E+01 -0.22108375738E+02  0.12838022420E+03  0.41800000000E+01 0.  1.
        -11    1    1    2    0    0 -0.32223036827E+02 -0.17368645254E+02 -0.62674429408E+02  0.72581526865E+02  0.00000000000E+00 0.  1.
         11    1    1    2    0    0 -0.78572590892E+02 -0.77225277966E+01  0.15420244796E+02  0.80442982445E+02  0.00000000000E+00 0. -1.
</event>
<event>
 7    1  0.2841804E-009  0.1707917E+03  0.7561462E-02  0.1177025E+00
          2   -1    0    0  501    0  0.00000000000E+00  0.00000000000E+00  0.44411494978E+03  0.44411494978E+03  0.00000000000E+00 0. -1.
         -2   -1    0    0    0  501 -0.00000000000E+00 -0.00000000000E+00 -0.88167249087E+02  0.88167249087E+02  0.00000000000E+00 0.  1.
         25    2    1    2    0    0 -0.72147956101E+02 -0.11301065889E+03  0.31323614554E+03  0.36296189832E+03  0.12509084766E+03 0.  0.
          5    1    3    3  502    0 -0.10148102449E+03 -0.50805362396E+02  0.17713010112E+03  0.21040943016E+03  0.41800000000E+01 0. -1.
         -5    1    3    3    0  502  0.29333068390E+02 -0.62205296498E+02  0.13610604442E+03  0.15255246816E+03  0.41800000000E+01 0. -1.
        -11    1    1    2    0    0  0.32509606070E+02 -0.65446677784E+01  0.26250494290E+02  0.42294155786E+02  0.00000000000E+00 0. -1.
         11    1    1    2    0    0  0.39638350030E+02  0.11955532667E+03  0.16461060871E+02  0.12702614476E+03  0.00000000000E+00 0.  1.
</event>
<event>
 7    1  0.2841804E-009  0.1410200E+03  0.7561462E-02  0.1211963E+00
          2   -1    0    0  501    0  0.00000000000E+00  0.00000000000E+00  0.73363323662E+03  0.73363323662E+03  0.00000000000E+00 0.  1.
         -2   -1    0    0    0  501 -0.00000000000E+00 -0.00000000000E+00 -0.59045254175E+02  0.59045254175E+02  0.00000000000E+00 0. -1.
         25    2    1    2    0    0 -0.41630747932E+02 -0.10940986278E+03  0.59240404616E+03  0.61667987668E+03  0.12509148309E+03 0.  0.
          5    1    3    3  502    0 -0.66890806380E+02 -0.11921396844E+03  0.40953353305E+03  0.43176560463E+03  0.41800000000E+01 0. -1.
         -5    1    3    3    0  502  0.25260058448E+02  0.98041056627E+01  0.18287051311E+03  0.18491427204E+03  0.41800000000E+01 0. -1.
        -11    1    1    2    0    0  0.39790416999E+02  0.90484034064E+02  0.77226660005E+01  0.99147754768E+02  0.00000000000E+00 0. -1.
         11    1    1    2    0    0  0.18403309336E+01  0.18925828717E+02  0.74461270279E+02  0.76850859345E+02  0.00000000000E+00 0.  1.
</event>
<event>
 7    1  0.2841804E-009  0.9392962E+02  0.7561462E-02  0.1293605E+00
         -2   -1    0    0    0  501 -0.00000000000E+00  0.00000000000E+00  0.17722119972E+03  0.17722119972E+03  0.00000000000E+00 0.  1.
          2   -1    0    0  501    0  0.00000000000E+00 -0.00000000000E+00 -0.13399547260E+03  0.13399547260E+03  0.00000000000E+00 0. -1.
         25    2    1    2    0    0  0.28328559822E+02  0.29289595775E+02 -0.22824830078E+02  0.13354570600E+03  0.12511232953E+03 0.  0.
          5    1    3    3  502    0 -0.39672175915E+02 -0.70416739003E+00  0.23077647868E+02  0.46091513586E+02  0.41800000000E+01 0. -1.
         -5    1    3    3    0  502  0.68000735737E+02  0.29993763165E+02 -0.45902477945E+02  0.87454192416E+02  0.41800000000E+01 0. -1.
        -11    1    1    2    0    0 -0.43359978166E+02 -0.32831943506E+01 -0.45031324786E+02  0.62599419196E+02  0.00000000000E+00 0. -1.
         11    1    1    2    0    0  0.15031418344E+02 -0.26006401424E+02  0.11108188199E+03  0.11507154713E+03  0.00000000000E+00 0.  1.
</event>
<event>
 7    1  0.2841804E-009  0.2346136E+03  0.7561462E-02  0.1123434E+00
         -2   -1    0    0    0  501 -0.00000000000E+00  0.00000000000E+00  0.24525854370E+03  0.24525854370E+03  0.00000000000E+00 0.  1.
          2   -1    0    0  501    0  0.00000000000E+00 -0.00000000000E+00 -0.27841932404E+03  0.27841932404E+03  0.00000000000E+00 0. -1.
         25    2    1    2    0    0  0.20700569583E+03 -0.10836179676E+03  0.28171337043E+02  0.26652233533E+03  0.12508754492E+03 0.  0.
          5    1    3    3  502    0  0.67306808268E+02 -0.21318815066E+02  0.66926838737E+02  0.97372339288E+02  0.41800000000E+01 0. -1.
         -5    1    3    3    0  502  0.13969888756E+03 -0.87042981697E+02 -0.38755501695E+02  0.16914999604E+03  0.41800000000E+01 0. -1.
        -11    1    1    2    0    0 -0.90342899152E+02  0.41921106744E+02 -0.71367040872E+02  0.12252539794E+03  0.00000000000E+00 0. -1.
         11    1    1    2    0    0 -0.11666279668E+03  0.66440690018E+02  0.10034923481E+02  0.13463013447E+03  0.00000000000E+00 0.  1.
</event>
<event>
 7    1  0.2841804E-009  0.1044376E+03  0.7561462E-02  0.1271232E+00
          4   -1    0    0  501    0  0.00000000000E+00  0.00000000000E+00  0.21985483618E+03  0.21985483618E+03  0.00000000000E+00 0. -1.
         -4   -1    0    0    0  501 -0.00000000000E+00 -0.00000000000E+00 -0.66166797184E+02  0.66166797184E+02  0.00000000000E+00 0.  1.
         25    2    1    2    0    0  0.25021286098E+02 -0.97340058779E+01  0.32986061605E+02  0.13213799000E+03  0.12510616497E+03 0.  0.
          5    1    3    3  502    0  0.33614841690E+02  0.53746638567E+02  0.20350616830E+02  0.66710409566E+02  0.41800000000E+01 0.  1.
         -5    1    3    3    0  502 -0.85935555920E+01 -0.63480644445E+02  0.12635444774E+02  0.65427580434E+02  0.41800000000E+01 0.  1.
        -11    1    1    2    0    0 -0.51438981333E+02 -0.35843780807E+01  0.11158966169E+03  0.12292708881E+03  0.00000000000E+00 0. -1.
         11    1    1    2    0    0  0.26417695235E+02  0.13318383959E+02  0.91123157079E+01  0.30956554562E+02  0.00000000000E+00 0.  1.
</event>
<event>
 7    1  0.2841804E-009  0.1002843E+03  0.7561462E-02  0.1279699E+00
         -1   -1    0    0    0  501 -0.00000000000E+00  0.00000000000E+00  0.63508841285E+03  0.63508841285E+03  0.00000000000E+00 0.  1.
          1   -1    0    0  501    0  0.00000000000E+00 -0.00000000000E+00 -0.20875470114E+02  0.20875470114E+02  0.00000000000E+00 0. -1.
         25    2    1    2    0    0  0.99503255854E+01  0.34035279627E+02  0.39881991404E+03  0.41948312185E+03  0.12510538135E+03 0.  0.
          5    1    3    3  502    0 -0.29233664659E+02  0.53549060035E+02  0.98342502101E+02  0.11580513417E+03  0.41800000000E+01 0. -1.
         -5    1    3    3    0  502  0.39183990245E+02 -0.19513780408E+02  0.30047741194E+03  0.30367798768E+03  0.41800000000E+01 0. -1.
        -11    1    1    2    0    0 -0.69993575206E+01  0.30270762837E+02  0.95094416970E+02  0.10004128262E+03  0.00000000000E+00 0.  1.
         11    1    1    2    0    0 -0.29509680648E+01 -0.64306042464E+02  0.12029861172E+03  0.13643947849E+03  0.00000000000E+00 0. -1.
</event>
<event>
 7    1  0.2841804E-009  0.8305013E+02  0.7561462E-02  0.1320612E+00
          1   -1    0    0  501    0  0.00000000000E+00  0.00000000000E+00  0.16945336511E+03  0.16945336511E+03  0.00000000000E+00 0. -1.
         -1   -1    0    0    0  501 -0.00000000000E+00 -0.00000000000E+00 -0.83964856320E+02  0.83964856320E+02  0.00000000000E+00 0.  1.
         25    2    1    2    0    0 -0.27599896650E+02 -0.37980481869E+02  0.43601803408E+02  0.14054299047E+03  0.12508774365E+03 0.  0.
          5    1    3    3  502    0 -0.57110004964E+02 -0.52351792672E+02  0.64934092189E+02  0.10117396696E+03  0.41800000000E+01 0.  1.
         -5    1    3    3    0  502  0.29510108314E+02  0.14371310803E+02 -0.21332288781E+02  0.39369023502E+02  0.41800000000E+01 0.  1.
        -11    1    1    2    0    0  0.30744499114E+02  0.18905141419E+02  0.69999615005E+02  0.78756426396E+02  0.00000000000E+00 0. -1.
         11    1    1    2    0    0 -0.31446024639E+01  0.19075340450E+02 -0.28112909620E+02  0.34118804569E+02  0.00000000000E+00 0.  1.
</event>
<event>
 7    1  0.2841804E-009  0.1389596E+03  0.7561462E-02  0.1214736E+00
          1   -1    0    0  501    0  0.00000000000E+00  0.00000000000E+00  0.13291474396E+03  0.13291474396E+03  0.00000000000E+00 0. -1.
         -1   -1    0    0    0  501 -0.00000000000E+00 -0.00000000000E+00 -0.16769869603E+03  0.16769869603E+03  0.00000000000E+00 0.  1.
         25    2    1    2    0    0 -0.12223940978E+01  0.90956315763E+02  0.13781690542E+02  0.15527954662E+03  0.12508899624E+03 0.  0.
          5    1    3    3  502    0  0.24886366285E+02 -0.17854225491E+02 -0.21753356452E+02  0.37799279248E+02  0.41800000000E+01 0.  1.
         -5    1    3    3    0  502 -0.26108760382E+02  0.10881054125E+03  0.35535046994E+02  0.11748026737E+03  0.41800000000E+01 0.  1.
        -11    1    1    2    0    0  0.34879051975E+02 -0.94934119182E+02 -0.25391264970E+02  0.10427728223E+03  0.00000000000E+00 0. -1.
         11    1    1    2    0    0 -0.33656657877E+02  0.39778034190E+01 -0.23174377641E+02  0.41056611143E+02  0.00000000000E+00 0.  1.
</event>
<event>
 7    1  0.2841804E-009  0.8022984E+02  0.7561462E-02  0.1328400E+00
          2   -1    0    0  501    0  0.00000000000E+00  0.00000000000E+00  0.14944206433E+02  0.14944206433E+02  0.00000000000E+00 0. -1.
         -2   -1    0    0    0  501 -0.00000000000E+00 -0.00000000000E+00 -0.10279030844E+04  0.10279030844E+04  0.00000000000E+00 0.  1.
         25    2    1    2    0    0  0.13969424873E+02  0.78901402027E+01 -0.80341962525E+03  0.81325981179E+03  0.12510406902E+03 0.  0.
          5    1    3    3  502    0 -0.22248278167E+02 -0.17017972693E+02 -0.70289622753E+03  0.70346654245E+03  0.41800000000E+01 0.  1.
         -5    1    3    3    0  502  0.36217703040E+02  0.24908112895E+02 -0.10052339772E+03  0.10979326933E+03  0.41800000000E+01 0.  1.
        -11    1    1    2    0    0 -0.38058141070E+02 -0.35009470046E+02 -0.16026989475E+03  0.16840583202E+03  0.00000000000E+00 0. -1.
         11    1    1    2    0    0  0.24088716197E+02  0.27119329844E+02 -0.49269357987E+02  0.61181647050E+02  0.00000000000E+00 0.  1.
</event>
<event>
 7    1  0.2841804E-009  0.1395364E+03  0.7561462E-02  0.1213954E+00
         -2   -1    0    0    0  501 -0.00000000000E+00  0.00000000000E+00  0.11526005280E+03  0.11526005280E+03  0.00000000000E+00 0.  1.
          2   -1    0    0  501    0  0.00000000000E+00 -0.00000000000E+00 -0.20988816045E+03  0.20988816045E+03  0.00000000000E+00 0. -1.
         25    2    1    2    0    0 -0.81822066302E+01  0.10931382195E+03 -0.71155350330E+02  0.18090952976E+03  0.12509481966E+03 0.  0.
          5    1    3    3  502    0  0.16914007085E+02  0.12768833798E+03 -0.36044728728E+02  0.13381737616E+03  0.41800000000E+01 0. -1.
         -5    1    3    3    0  502 -0.25096213715E+02 -0.18374516033E+02 -0.35110621601E+02  0.47092153609E+02  0.41800000000E+01 0. -1.
        -11    1    1    2    0    0 -0.18793830329E+02 -0.34461182138E+02 -0.47030832731E+02  0.61259124710E+02  0.00000000000E+00 0. -1.
         11    1    1    2    0    0  0.26976036960E+02 -0.74852639810E+02  0.23558075409E+02  0.82979558769E+02  0.00000000000E+00 0.  1.
</event>
<event>
 7    1  0.2841804E-009  0.1045935E+03  0.7561462E-02  0.1270923E+00
         -2   -1    0    0    0  501 -0.00000000000E+00  0.00000000000E+00  0.11100824434E+02  0.11100824434E+02  0.00000000000E+00 0.  1.
          2   -1    0    0  501    0  0.00000000000E+00 -0.00000000000E+00 -0.11101775329E+04  0.11101775329E+04  0.00000000000E+00 0. -1.
         25    2    1    2    0    0 -0.48508966646E+00 -0.13850270897E+02 -0.76585276257E+03  0.77612424791E+03  0.12508528665E+03 0.  0.
          5    1    3    3  502    0  0.57191035013E+02  0.12178248945E+02 -0.46351578116E+03  0.46720817204E+03  0.41800000000E+01 0. -1.
         -5    1    3    3    0  502 -0.57676124679E+02 -0.26028519841E+02 -0.30233698141E+03  0.30891607587E+03  0.41800000000E+01 0. -1.
        -11    1    1    2    0    0  0.29565807110E+02 -0.24932094270E+02 -0.10646838861E+03  0.11327516960E+03  0.00000000000E+00 0.  1.
         11    1    1    2    0    0 -0.29080717444E+02  0.38782365167E+02 -0.22675555730E+03  0.23187893984E+03  0.00000000000E+00 0. -1.
</event>
<event>
 7    1  0.2841804E-009  0.1803490E+03  0.7561462E-02  0.1167466E+00
         -1   -1    0    0    0  501 -0.00000000000E+00  0.00000000000E+00  0.17041408907E+03  0.17041408907E+03  0.00000000000E+00 0.  1.
          1   -1    0    0  501    0  0.00000000000E+00 -0.00000000000E+00 -0.23915737391E+03  0.23915737391E+03  0.00000000000E+00 0. -1.
         25    2    1    2    0    0  0.14603886416E+03  0.58515219042E+02  0.28213987555E+02  0.20296290936E+03  0.12508610146E+03 0.  0.
          5    1    3    3  502    0  0.39017798062E+02 -0.39260431478E+02  0.13999307208E+02  0.57247035275E+02  0.41800000000E+01 0. -1.
         -5    1    3    3    0  502  0.10702106609E+03  0.97775650519E+02  0.14214680347E+02  0.14571587408E+03  0.41800000000E+01 0. -1.
        -11    1    1    2    0    0 -0.32474456868E+02 -0.27212060011E+02  0.14158831054E+02  0.44671680690E+02  0.00000000000E+00 0.  1.
         11    1    1    2    0    0 -0.11356440729E+03 -0.31303159031E+02 -0.11111610345E+03  0.16193687293E+03  0.00000000000E+00 0. -1.
</event>
<event>
 7    1  0.2841804E-009  0.9008932E+02  0.7561462E-02  0.1302636E+00
          1   -1    0    0  501    0  0.00000000000E+00  0.00000000000E+00  0.32627903686E+03  0.32627903686E+03  0.00000000000E+00 0. -1.
         -1   -1    0    0    0  501 -0.00000000000E+00 -0.00000000000E+00 -0.37954931209E+02  0.37954931209E+02  0.00000000000E+00 0.  1.
         25    2    1    2    0    0  0.27652785666E+02 -0.34951200564E+01  0.16462407728E+03  0.20862772821E+03  0.12509016644E+03 0.  0.
          5    1    3    3  502    0  0.38086345142E+02  0.32036815465E+02  0.11791481220E+02  0.51317040647E+02  0.41800000000E+01 0. -1.
         -5    1    3    3    0  502 -0.10433559476E+02 -0.35531935521E+02  0.15283259606E+03  0.15731068757E+03  0.41800000000E+01 0. -1.
        -11    1    1    2    0    0 -0.55445462689E+02 -0.17493737515E+02  0.89982417802E+02  0.10713106785E+03  0.00000000000E+00 0.  1.
         11    1    1    2    0    0  0.27792677023E+02  0.20988857571E+02  0.33717610570E+02  0.48475172003E+02  0.00000000000E+00 0. -1.
</event>
<event>
 7    1  0.2841804E-009  0.1227782E+03  0.7561462E-02  0.1238583E+00
          2   -1    0    0  501    0  0.00000000000E+00  0.00000000000E+00  0.39670070900E+03  0.39670070900E+03  0.00000000000E+00 0. -1.
         -2   -1    0    0    0  501 -0.00000000000E+00 -0.00000000000E+00 -0.55794892627E+02  0.55794892627E+02  0.00000000000E+00 0.  1.
         25    2    1    2    0    0  0.21095319989E+02 -0.95836106101E+02  0.15126106760E+03  0.21944592373E+03  0.12508809341E+03 0.  0.
          5    1    3    3  502    0 -0.30012192015E+02 -0.83169552318E+02  0.13968932631E+03  0.16537377781E+03  0.41800000000E+01 0. -1.
         -5    1    3    3    0  502  0.51107512004E+02 -0.12666553784E+02  0.11571741292E+02  0.54072145922E+02  0.41800000000E+01 0. -1.
        -11    1    1    2    0    0  0.61319571770E+01  0.53719003345E+02  0.17132963022E+03  0.17965849385E+03  0.00000000000E+00 0. -1.
         11    1    1    2    0    0 -0.27227277166E+02  0.42117102756E+02  0.18315118546E+02  0.53391184046E+02  0.00000000000E+00 0.  1.
</event>
<event>
 7    1  0.2841804E-009  0.1091230E+03  0.7561462E-02  0.1262203E+00
         -1   -1    0    0    0  501 -0.00000000000E+00  0.00000000000E+00  0.21450257555E+02  0.21450257555E+02  0.00000000000E+00 0.  1.
          1   -1    0    0  501    0  0.00000000000E+00 -0.00000000000E+00 -0.68772061541E+03  0.68772061541E+03  0.00000000000E+00 0. -1.
         25    2    1    2    0    0 -0.34364861766E+02  0.28044527968E+02 -0.27955420988E+03  0.30946010970E+03  0.12509022329E+03 0.  0.
          5    1    3    3  502    0 -0.74175037091E+02  0.32932093128E+02 -0.23827797130E+03  0.25175448932E+03  0.41800000000E+01 0.  1.
         -5    1    3    3    0  502  0.39810175325E+02 -0.48875651596E+01 -0.41276238582E+02  0.57705620385E+02  0.41800000000E+01 0.  1.
        -11    1    1    2    0    0  0.62037775883E+02 -0.81450643882E+01 -0.18927355976E+03  0.19934770662E+03  0.00000000000E+00 0.  1.
         11    1    1    2    0    0 -0.27672914117E+02 -0.19899463580E+02 -0.19744258821E+03  0.20036305664E+03  0.00000000000E+00 0. -1.
</event>
<event>
 7    1  0.2841804E-009  0.9401584E+02  0.7561462E-02  0.1293408E+00
          2   -1    0    0  501    0  0.00000000000E+00  0.00000000000E+00  0.57765081742E+03  0.57765081742E+03  0.00000000000E+00 0.  1.
         -2   -1    0    0    0  501 -0.00000000000E+00 -0.00000000000E+00 -0.33520553216E+02  0.33520553216E+02  0.00000000000E+00 0. -1.
         25    2    1    2    0    0 -0.48878734408E+02  0.50904538993E+02  0.41809759140E+03  0.44207600725E+03  0.12508076382E+03 0.  0.
          5    1    3    3  502    0 -0.26843563509E+02  0.77024094657E+01  0.83490765267E+01  0.29446281468E+02  0.41800000000E+01 0.  1.
         -5    1    3    3    0  502 -0.22035170900E+02  0.43202129527E+02  0.40974851488E+03  0.41262972578E+03  0.41800000000E+01 0.  1.
        -11    1    1    2    0    0  0.53963321469E+02  0.57189876033E+01  0.75858020011E+02  0.93269427376E+02  0.00000000000E+00 0.  1.
         11    1    1    2    0    0 -0.50845870602E+01 -0.56623526596E+02  0.50174652786E+02  0.75825936011E+02  0.00000000000E+00 0. -1.
</event>
<event>
 7    1  0.2841804E-009  0.8656515E+02  0.7561462E-02  0.1311390E+00
         -1   -1    0    0    0  501 -0.00000000000E+00  0.00000000000E+00  0.26502973487E+03  0.26502973487E+03  0.00000000000E+00 0.  1.
          1   -1    0    0  501    0  0.00000000000E+00 -0.00000000000E+00 -0.68414007136E+02  0.68414007136E+02  0.00000000000E+00 0. -1.
         25    2    1    2    0    0  0.45694805188E+02 -0.62397934188E+02  0.13431933626E+03  0.19917902427E+03  0.12509629172E+03 0.  0.
          5    1    3    3  502    0  0.58284974374E+02 -0.50175262662E+02  0.14954515383E+02  0.78458939269E+02  0.41800000000E+01 0.  1.
         -5    1    3    3    0  502 -0.12590169185E+02 -0.12222671526E+02  0.11936482087E+03  0.12072008500E+03  0.41800000000E+01 0.  1.
        -11    1    1    2    0    0 -0.70385262338E+01  0.17278417814E+02  0.71720529087E+02  0.74107481851E+02  0.00000000000E+00 0.  1.
         11    1    1    2    0    0 -0.38656278955E+02  0.45119516374E+02 -0.94241376070E+01  0.60157235891E+02  0.00000000000E+00 0. -1.
</event>
<event>
 7    1  0.2841804E-009  0.2725145E+03  0.7561462E-02  0.1099849E+00
          2   -1    0    0  501    0  0.00000000000E+00  0.00000000000E+00  0.18022090126E+04  0.18022090126E+04  0.00000000000E+00 0. -1.
         -2   -1    0    0    0  501 -0.00000000000E+00 -0.00000000000E+00 -0.52982316174E+02  0.52982316174E+02  0.00000000000E+00 0.  1.
         25    2    1    2    0    0 -0.16797473552E+03  0.20288056251E+03  0.53403718668E+03  0.60845639092E+03  0.12508968172E+03 0.  0.
          5    1    3    3  502    0 -0.14315039696E+03  0.12977459227E+03  0.46957425549E+03  0.50779024682E+03  0.41800000000E+01 0.  1.
         -5    1    3    3    0  502 -0.24824338563E+02  0.73105970235E+02  0.64462931188E+02  0.10066614409E+03  0.41800000000E+01 0.  1.
        -11    1    1    2    0    0  0.10226033614E+03 -0.17578389107E+03  0.98689632686E+03  0.10076316354E+04  0.00000000000E+00 0. -1.
         11    1    1    2    0    0  0.65714399380E+02 -0.27096671439E+02  0.22829318290E+03  0.23910330246E+03  0.00000000000E+00 0.  1.
</event>
<event>
 7    1  0.2841804E-009  0.5904118E+02  0.7561462E-02  0.1401900E+00
          2   -1    0    0  501    0  0.00000000000E+00  0.00000000000E+00  0.18865622190E+02  0.18865622190E+02  0.00000000000E+00 0. -1.
         -2   -1    0    0    0  501 -0.00000000000E+00 -0.00000000000E+00 -0.53267034479E+03  0.53267034479E+03  0.00000000000E+00 0.  1.
         25    2    1    2    0    0  0.95788275820E+01 -0.15951220518E+02 -0.30333320466E+03  0.32864127759E+03  0.12509141022E+03 0.  0.
          5    1    3    3  502    0  0.98203389935E+01  0.18132076106E+02  0.22269764321E+01  0.21157577032E+02  0.41800000000E+01 0.  1.
         -5    1    3    3    0  502 -0.24151141153E+00 -0.34083296623E+02 -0.30556018110E+03  0.30748370056E+03  0.41800000000E+01 0.  1.
        -11    1    1    2    0    0  0.20954326662E+02 -0.94485183123E+01 -0.28374436316E+02  0.36516666612E+02  0.00000000000E+00 0. -1.
         11    1    1    2    0    0 -0.30533154244E+02  0.25399738830E+02 -0.18209708161E+03  0.18637802277E+03  0.00000000000E+00 0.  1.
</event>
<event>
 7    1  0.2841804E-009  0.1243724E+03  0.7561462E-02  0.1236053E+00
         -2   -1    0    0    0  501 -0.00000000000E+00  0.00000000000E+00  0.23088197466E+02  0.23088197466E+02  0.00000000000E+00 0.  1.
          2   -1    0    0  501    0  0.00000000000E+00 -0.00000000000E+00 -0.10401313059E+04  0.10401313059E+04  0.00000000000E+00 0. -1.
         25    2    1    2    0    0 -0.95959433550E+02  0.50355195684E+02 -0.49235706309E+03  0.51942797671E+03  0.12508431873E+03 0.  0.
          5    1    3    3  502    0 -0.80256451037E+00  0.15709988603E+02 -0.31293437783E+03  0.31335737597E+03  0.41800000000E+01 0. -1.
         -5    1    3    3    0  502 -0.95156869039E+02  0.34645207082E+02 -0.17942268526E+03  0.20607060073E+03  0.41800000000E+01 0. -1.
        -11    1    1    2    0    0  0.21273661204E+02 -0.52239458920E+02 -0.12435811105E+03  0.13655207619E+03  0.00000000000E+00 0.  1.
         11    1    1    2    0    0  0.74685772346E+02  0.18842632355E+01 -0.40032793435E+03  0.40723945052E+03  0.00000000000E+00 0. -1.
</event>
<event>
 7    1  0.2841804E-009  0.1219780E+03  0.7561462E-02  0.1239869E+00
          2   -1    0    0  501    0  0.00000000000E+00  0.00000000000E+00  0.42273816007E+02  0.42273816007E+02  0.00000000000E+00 0. -1.
         -2   -1    0    0    0  501 -0.00000000000E+00 -0.00000000000E+00 -0.53118046799E+03  0.53118046799E+03  0.00000000000E+00 0.  1.
         25    2    1    2    0    0 -0.87147039067E+02 -0.57816520900E+02 -0.26916019496E+03  0.31469389804E+03  0.12509069673E+03 0.  0.
          5    1    3    3  502    0 -0.98484608951E+02 -0.62494199798E+02 -0.27627134271E+03  0.29991343820E+03  0.41800000000E+01 0. -1.
         -5    1    3    3    0  502  0.11337569883E+02  0.46776788982E+01  0.71111477553E+01  0.14780459842E+02  0.41800000000E+01 0. -1.
        -11    1    1    2    0    0  0.78388092405E+02  0.28049377749E+02 -0.21052578213E+03  0.22639029476E+03  0.00000000000E+00 0.  1.
         11    1    1    2    0    0  0.87589466625E+01  0.29767143151E+02 -0.92206748956E+01  0.32370091188E+02  0.00000000000E+00 0. -1.
</event>
<event>
 7    1  0.2841804E-009  0.1174805E+03  0.7561462E-02  0.1247312E+00
         -3   -1    0    0    0  501 -0.00000000000E+00  0.00000000000E+00  0.12655566569E+02  0.12655566569E+02  0.00000000000E+00 0.  1.
          3   -1    0    0  501    0  0.00000000000E+00 -0.00000000000E+00 -0.18028158253E+04  0.18028158253E+04  0.00000000000E+00 0. -1.
         25    2    1    2    0    0  0.59934973708E+02  0.67487243534E+02 -0.12928436854E+04  0.13020134270E+04  0.12508972804E+03 0.  0.
          5    1    3    3  502    0  0.45680272700E+02 -0.51306446707E+01 -0.15420612167E+03  0.16096586964E+03  0.41800000000E+01 0.  1.
         -5    1    3    3    0  502  0.14254701009E+02  0.72617888205E+02 -0.11386375637E+04  0.11410475573E+04  0.41800000000E+01 0.  1.
        -11    1    1    2    0    0  0.19708548609E+01 -0.50431222914E+02 -0.11225016805E+03  0.12307433827E+03  0.00000000000E+00 0.  1.
         11    1    1    2    0    0 -0.61905828569E+02 -0.17056020620E+02 -0.38506640533E+03  0.39038362666E+03  0.00000000000E+00 0. -1.
</event>
<event>
 7    1  0.2841804E-009  0.1252025E+03  0.7561462E-02  0.1234753E+00
         -2   -1    0    0    0  501 -0.00000000000E+00  0.00000000000E+00  0.35358518807E+03  0.35358518807E+03  0.00000000000E+00 0.  1.
          2   -1    0    0  501    0  0.00000000000E+00 -0.00000000000E+00 -0.68832807491E+02  0.68832807491E+02  0.00000000000E+00 0. -1.
         25    2    1    2    0    0 -0.60143882011E+02 -0.92403447678E+02  0.12443918878E+03  0.20805836329E+03  0.12508991624E+03 0.  0.
          5    1    3    3  502    0 -0.57882610963E+02 -0.31124518504E+02  0.13062426057E+03  0.14628500317E+03  0.41800000000E+01 0. -1.
         -5    1    3    3    0  502 -0.22612710484E+01 -0.61278929175E+02 -0.61850717888E+01  0.61773360120E+02  0.41800000000E+01 0. -1.
        -11    1    1    2    0    0 -0.10810588066E+01  0.46636445015E+02  0.11823131035E+03  0.12710141399E+03  0.00000000000E+00 0.  1.
         11    1    1    2    0    0  0.61224940818E+02  0.45767002663E+02  0.42081881454E+02  0.87258218281E+02  0.00000000000E+00 0. -1.
</event>
<event>
 7    1  0.2841804E-009  0.2601291E+03  0.7561462E-02  0.1107066E+00
         -1   -1    0    0    0  501 -0.00000000000E+00  0.00000000000E+00  0.25945775690E+02  0.25945775690E+02  0.00000000000E+00 0.  1.
          1   -1    0    0  501    0  0.00000000000E+00 -0.00000000000E+00 -0.37419152175E+04  0.37419152175E+04  0.00000000000E+00 0. -1.
         25    2    1    2    0    0 -0.24025338645E+03 -0.48699773854E+02 -0.28542879527E+04  0.28675252039E+04  0.12509084993E+03 0.  0.
          5    1    3    3  502    0 -0.30337435272E+02 -0.43249714575E+02 -0.99541544879E+03  0.99682510295E+03  0.41800000000E+01 0.  1.
         -5    1    3    3    0  502 -0.20991595118E+03 -0.54500592788E+01 -0.18588725039E+04  0.18707001010E+04  0.41800000000E+01 0.  1.
        -11    1    1    2    0    0  0.18394115094E+03  0.70308039225E+02 -0.58840030126E+03  0.62047762403E+03  0.00000000000E+00 0. -1.
         11    1    1    2    0    0  0.56312235511E+02 -0.21608265372E+02 -0.27328118786E+03  0.27985816522E+03  0.00000000000E+00 0.  1.
</event>
<event>
 7    1  0.2841804E-009  0.8193863E+02  0.7561462E-02  0.1323638E+00
          1   -1    0    0  501    0  0.00000000000E+00  0.00000000000E+00  0.27546363382E+03  0.27546363382E+03  0.00000000000E+00 0. -1.
         -1   -1    0    0    0  501 -0.00000000000E+00 -0.00000000000E+00 -0.55989592859E+02  0.55989592859E+02  0.00000000000E+00 0.  1.
         25    2    1    2    0    0 -0.69056683463E+01  0.77703959466E+01  0.20148854008E+03  0.23738450157E+03  0.12508278256E+03 0.  0.
          5    1    3    3  502    0 -0.29836173744E+02  0.52581884908E+02  0.16293930365E+03  0.17384401329E+03  0.41800000000E+01 0. -1.
         -5    1    3    3    0  502  0.22930505397E+02 -0.44811488961E+02  0.38549236425E+02  0.63540488271E+02  0.41800000000E+01 0. -1.
        -11    1    1    2    0    0 -0.74853180188E+01  0.20072575940E+02 -0.29933689260E+02  0.36809836232E+02  0.00000000000E+00 0.  1.
         11    1    1    2    0    0  0.14390986365E+02 -0.27842971886E+02  0.47919190148E+02  0.57258888886E+02  0.00000000000E+00 0. -1.
</event>
<event>
 7    1  0.2841804E-009  0.1341803E+03  0.7561462E-02  0.1221381E+00
          2   -1    0    0  501    0  0.00000000000E+00  0.00000000000E+00  0.19753035818E+03  0.19753035818E+03  0.00000000000E+00 0.  1.
         -2   -1    0    0    0  501 -0.00000000000E+00 -0.00000000000E+00 -0.14882718668E+03  0.14882718668E+03  0.00000000000E+00 0. -1.
         25    2    1    2    0    0 -0.92507626008E+02  0.60826039018E+02  0.98560874948E+02  0.19395617079E+03  0.12508909714E+03 0.  0.
          5    1    3    3  502    0 -0.81381924043E+02 -0.81776802115E+01  0.12241198407E+02  0.82808280703E+02  0.41800000000E+01 0. -1.
         -5    1    3    3    0  502 -0.11125701965E+02  0.69003719229E+02  0.86319676540E+02  0.11114789008E+03  0.41800000000E+01 0. -1.
        -11    1    1    2    0    0  0.72993168264E+02 -0.63496418750E+02 -0.73594906725E+02  0.12155660452E+03  0.00000000000E+00 0. -1.
         11    1    1    2    0    0  0.19514457744E+02  0.26703797325E+01  0.23737203279E+02  0.30844769548E+02  0.00000000000E+00 0.  1.
</event>
<event>
 7    1  0.2841804E-009  0.1739232E+03  0.7561462E-02  0.1173817E+00
         -2   -1    0    0    0  501 -0.00000000000E+00  0.00000000000E+00  0.29632885758E+02  0.29632885758E+02  0.00000000000E+00 0.  1.
          2   -1    0    0  501    0  0.00000000000E+00 -0.00000000000E+00 -0.10789152418E+04  0.10789152418E+04  0.00000000000E+00 0. -1.
         25    2    1    2    0    0 -0.12966247291E+03  0.56763630520E+02 -0.51736364555E+03  0.55077077092E+03  0.12509529860E+03 0.  0.
          5    1    3    3  502    0 -0.20992529015E+02 -0.38658348562E+02 -0.11674745186E+03  0.12483026117E+03  0.41800000000E+01 0. -1.
         -5    1    3    3    0  502 -0.10866994390E+03  0.95421979082E+02 -0.40061619369E+03  0.42594050975E+03  0.41800000000E+01 0. -1.
        -11    1    1    2    0    0  0.95253921455E+02 -0.31901031979E+01 -0.22550640529E+03  0.24481957671E+03  0.00000000000E+00 0.  1.
         11    1    1    2    0    0  0.34408551457E+02 -0.53573527322E+02 -0.30641230521E+03  0.31295777995E+03  0.00000000000E+00 0. -1.
</event>
<event>
 7    1  0.2841804E-009  0.1359447E+03  0.7561462E-02  0.1218892E+00
         -1   -1    0    0    0  501 -0.00000000000E+00  0.00000000000E+00  0.27547403559E+02  0.27547403559E+02  0.00000000000E+00 0.  1.
          1   -1    0    0  501    0  0.00000000000E+00 -0.00000000000E+00 -0.85898393551E+03  0.85898393551E+03  0.00000000000E+00 0. -1.
         25    2    1    2    0    0  0.10621119261E+03 -0.21267598658E+02 -0.44365553595E+03  0.47350958632E+03  0.12509182852E+03 0.  0.
          5    1    3    3  502    0  0.63776846969E+02  0.36907742196E+02 -0.33541025142E+03  0.34343438500E+03  0.41800000000E+01 0. -1.
         -5    1    3    3    0  502  0.42434345640E+02 -0.58175340854E+02 -0.10824528453E+03  0.13007520131E+03  0.41800000000E+01 0. -1.
        -11    1    1    2    0    0 -0.41968572026E+02 -0.23077150189E+02 -0.63844693596E+02  0.79812660644E+02  0.00000000000E+00 0.  1.
         11    1    1    2    0    0 -0.64242620583E+02  0.44344748847E+02 -0.32393630240E+03  0.33320909211E+03  0.00000000000E+00 0. -1.
</event>
<event>
 7    1  0.2841804E-009  0.1252397E+03  0.7561462E-02  0.1234695E+00
          1   -1    0    0  501    0  0.00000000000E+00  0.00000000000E+00  0.59148819425E+03  0.59148819425E+03  0.00000000000E+00 0. -1.
         -1   -1    0    0    0  501 -0.00000000000E+00 -0.00000000000E+00 -0.28499913203E+02  0.28499913203E+02  0.00000000000E+00 0.  1.
         25    2    1    2    0    0  0.68601312116E+02  0.98732912406E+00  0.37546788815E+03  0.40166092310E+03  0.12509295452E+03 0.  0.
          5    1    3    3  502    0  0.95820318537E+02  0.32039249683E+02  0.27084169111E+03  0.28910333967E+03  0.41800000000E+01 0.  1.
         -5    1    3    3    0  502 -0.27219006421E+02 -0.31051920559E+02  0.10462619704E+03  0.11255758343E+03  0.41800000000E+01 0.  1.
        -11    1    1    2    0    0 -0.79518773221E+02  0.21914658046E+02  0.11519232293E+03  0.14167836389E+03  0.00000000000E+00 0.  1.
         11    1    1    2    0    0  0.10917461106E+02 -0.22901987170E+02  0.72328069965E+02  0.76648820462E+02  0.00000000000E+00 0. -1.
</event>
<event>
 7    1  0.2841804E-009  0.1042360E+03  0.7561462E-02  0.1271632E+00
          1   -1    0    0  501    0  0.00000000000E+00  0.00000000000E+00  0.91441290865E+03  0.91441290865E+03  0.00000000000E+00 0. -1.
         -1   -1    0    0    0  501 -0.00000000000E+00 -0.00000000000E+00 -0.22001752466E+02  0.22001752466E+02  0.00000000000E+00 0.  1.
         25    2    1    2    0    0  0.80515138157E+02 -0.26896751932E+02  0.59278782299E+03  0.61176399035E+03  0.12510657086E+03 0.  0.
          5    1    3    3  502    0 -0.61871064474E+01 -0.14507447705E+02  0.44279527073E+01  0.16906374250E+02  0.41800000000E+01 0.  1.
         -5    1    3    3    0  502  0.86702244604E+02 -0.12389304227E+02  0.58835987028E+03  0.59485761610E+03  0.41800000000E+01 0.  1.
        -11    1    1    2    0    0 -0.90438847834E+02  0.20712926676E+02  0.29886285504E+03  0.31293324632E+03  0.00000000000E+00 0. -1.
         11    1    1    2    0    0  0.99237096776E+01  0.61838252565E+01  0.76047815501E+00  0.11717424444E+02  0.00000000000E+00 0.  1.
</event>
<event>
 7    1  0.2841804E-009  0.7590785E+02  0.7561462E-02  0.1341083E+00
         -2   -1    0    0    0  501 -0.00000000000E+00  0.00000000000E+00  0.22505174857E+03  0.22505174857E+03  0.00000000000E+00 0.  1.
          2   -1    0    0  501    0  0.00000000000E+00 -0.00000000000E+00 -0.61592121305E+02  0.61592121305E+02  0.00000000000E+00 0. -1.
         25    2    1    2    0    0  0.16944307541E+02  0.37137705150E+02  0.12372943789E+03  0.18061735474E+03  0.12508931342E+03 0.  0.
          5    1    3    3  502    0 -0.10139518577E+02  0.15065810862E+02  0.14043463096E+03  0.14166561498E+03  0.41800000000E+01 0. -1.
         -5    1    3    3    0  502  0.27083826118E+02  0.22071894288E+02 -0.16705193075E+02  0.38951739760E+02  0.41800000000E+01 0. -1.
        -11    1    1    2    0    0 -0.45245069589E+02  0.67762613928E+01  0.14371568793E+02  0.47953894838E+02  0.00000000000E+00 0. -1.
         11    1    1    2    0    0  0.28300762048E+02 -0.43913966543E+02  0.25358620582E+02  0.58072620295E+02  0.00000000000E+00 0.  1.
</event>
<event>
 7    1  0.2841804E-009  0.1211243E+03  0.7561462E-02  0.1241254E+00
         -1   -1    0    0    0  501 -0.00000000000E+00  0.00000000000E+00  0.43002848606E+02  0.43002848606E+02  0.00000000000E+00 0.  1.
          1   -1    0    0  501    0  0.00000000000E+00 -0.00000000000E+00 -0.72599642493E+03  0.72599642493E+03  0.00000000000E+00 0. -1.
         25    2    1    2    0    0  0.29300993424E+02  0.99510840492E+02 -0.56127240778E+03  0.58432499622E+03  0.12509208560E+03 0.  0.
          5    1    3    3  502    0  0.35679376385E+02  0.12777462401E+02 -0.39315116957E+03  0.39499569109E+03  0.41800000000E+01 0. -1.
         -5    1    3    3    0  502 -0.63783829609E+01  0.86733378090E+02 -0.16812123821E+03  0.18932930513E+03  0.41800000000E+01 0. -1.
        -11    1    1    2    0    0 -0.20380768419E+02 -0.35617900734E+01  0.87595672588E+01  0.22467578607E+02  0.00000000000E+00 0.  1.
         11    1    1    2    0    0 -0.89202250044E+01 -0.95949050418E+02 -0.13048073580E+03  0.16220669871E+03  0.00000000000E+00 0. -1.
</event>
<event>
 7    1  0.2841804E-009  0.1161553E+03  0.7561462E-02  0.1249578E+00
          2   -1    0    0  501    0  0.00000000000E+00  0.00000000000E+00  0.35387990421E+03  0.35387990421E+03  0.00000000000E+00 0.  1.
         -2   -1    0    0    0  501 -0.00000000000E+00 -0.00000000000E+00 -0.52313286099E+02  0.52313286099E+02  0.00000000000E+00 0. -1.
         25    2    1    2    0    0 -0.26716827621E+02 -0.64088579323E+02  0.11270423643E+03  0.18212664178E+03  0.12508690522E+03 0.  0.
          5    1    3    3  502    0 -0.22427176873E+02 -0.95553029208E+02  0.46725992092E+02  0.10878488126E+03  0.41800000000E+01 0. -1.
         -5    1    3    3    0  502 -0.42896507482E+01  0.31464449885E+02  0.65978244342E+02  0.73341760522E+02  0.41800000000E+01 0. -1.
        -11    1    1    2    0    0 -0.21697094508E+02 -0.32216147977E-01  0.10769270710E+03  0.10985665256E+03  0.00000000000E+00 0.  1.
         11    1    1    2    0    0  0.48413922129E+02  0.64120795471E+02  0.81169674581E+02  0.11420989598E+03  0.00000000000E+00 0. -1.
</event>
<event>
 6    1  0.2841804E-009  0.1005628E+03  0.7561462E-02  0.1279117E+00
          1   -1    0    0  501    0  0.00000000000E+00  0.00000000000E+00  0.32159751663E+03  0.32159751663E+03  0.00000000000E+00 0. -1.
         -1   -1    0    0    0  501 -0.00000000000E+00 -0.00000000000E+00 -0.47823504554E+02  0.47823504554E+02  0.00000000000E+00 0.  1.
          5    1    1    2  502    0 -0.82587713710E+02  0.30422138455E+02  0.92419870184E+02  0.12769158848E+03  0.41800000000E+01 0. -1.
         -5    1    1    2    0  502  0.27536578272E+02 -0.41197388193E+02  0.40517251452E+02  0.64145210281E+02  0.41800000000E+01 0. -1.
        -11    1    1    2    0    0  0.31547605525E+02  0.20741765543E+02  0.35254123528E+01  0.37919662241E+02  0.00000000000E+00 0.  1.
         11    1    1    2    0    0  0.23503529912E+02 -0.99665158052E+01  0.13731147809E+03  0.13966456018E+03  0.00000000000E+00 0. -1.
</event>
<event>
 7    1  0.2841804E-009  0.1038318E+03  0.7561462E-02  0.1272438E+00
          4   -1    0    0  501    0  0.00000000000E+00  0.00000000000E+00  0.25269310265E+03  0.25269310265E+03  0.00000000000E+00 0. -1.
         -4   -1    0    0    0  501 -0.00000000000E+00 -0.00000000000E+00 -0.52977897024E+02  0.52977897024E+02  0.00000000000E+00 0.  1.
         25    2    1    2    0    0  0.21683549422E+02  0.28132600808E+02  0.10688601964E+03  0.16831762009E+03  0.12507829746E+03 0.  0.
          5    1    3    3  502    0  0.66465950492E+02  0.25070622308E+02  0.99968621512E+02  0.12270882758E+03  0.41800000000E+01 0.  1.
         -5    1    3    3    0  502 -0.44782401070E+02  0.30619784998E+01  0.69173981307E+01  0.45608792517E+02  0.41800000000E+01 0.  1.
        -11    1    1    2    0    0 -0.44766816054E+02  0.10900444764E+02  0.76211790698E+02  0.89056861370E+02  0.00000000000E+00 0. -1.
         11    1    1    2    0    0  0.23083266632E+02 -0.39033045571E+02  0.16617395280E+02  0.48296518207E+02  0.00000000000E+00 0.  1.
</event>
<event>
 7    1  0.2841804E-009  0.1276240E+03  0.7561462E-02  0.1231024E+00
          1   -1    0    0  501    0  0.00000000000E+00  0.00000000000E+00  0.14622622143E+03  0.14622622143E+03  0.00000000000E+00 0. -1.
         -1   -1    0    0    0  501 -0.00000000000E+00 -0.00000000000E+00 -0.12034897721E+03  0.12034897721E+03  0.00000000000E+00 0.  1.
         25    2    1    2    0    0  0.59069388486E+02  0.33891914355E+02 -0.14176263601E+02  0.14313135590E+03  0.12509102317E+03 0.  0.
          5    1    3    3  502    0 -0.30191278682E+02  0.40413601625E+02  0.69079223371E+01  0.51087809659E+02  0.41800000000E+01 0. -1.
         -5    1    3    3    0  502  0.89260667168E+02 -0.65216872697E+01 -0.21084185939E+02  0.92043546242E+02  0.41800000000E+01 0. -1.
        -11    1    1    2    0    0 -0.65690781629E+01 -0.57211118698E+02  0.30641700125E+02  0.65231730601E+02  0.00000000000E+00 0. -1.
         11    1    1    2    0    0 -0.52500310323E+02  0.23319204343E+02  0.94118077036E+01  0.58212112137E+02  0.00000000000E+00 0.  1.
</event>
<event>
 7    1  0.2841804E-009  0.6176716E+02  0.7561462E-02  0.1390562E+00
         -2   -1    0    0    0  501 -0.00000000000E+00  0.00000000000E+00  0.73262901858E+02  0.73262901858E+02  0.00000000000E+00 0.  1.
          2   -1    0    0  501    0  0.00000000000E+00 -0.00000000000E+00 -0.18225062754E+03  0.18225062754E+03  0.00000000000E+00 0. -1.
         25    2    1    2    0    0 -0.71674475404E+01 -0.11555532906E+02 -0.10538513411E+03  0.16412719887E+03  0.12508720267E+03 0.  0.
          5    1    3    3  502    0  0.66753318633E+01 -0.28184495343E+02  0.20882489518E+02  0.35951030606E+02  0.41800000000E+01 0.  1.
         -5    1    3    3    0  502 -0.13842779404E+02  0.16628962436E+02 -0.12626762363E+03  0.12817616826E+03  0.41800000000E+01 0.  1.
        -11    1    1    2    0    0 -0.15779587518E+02 -0.24709433187E+02  0.26053172921E+02  0.39221413665E+02  0.00000000000E+00 0.  1.
         11    1    1    2    0    0  0.22947035058E+02  0.36264966093E+02 -0.29655764490E+02  0.52164916862E+02  0.00000000000E+00 0. -1.
</event>
<event>
 7    1  0.2841804E-009  0.9643349E+02  0.7561462E-02  0.1287980E+00
         -1   -1    0    0    0  501 -0.00000000000E+00  0.00000000000E+00  0.79312804523E+02  0.79312804523E+02  0.00000000000E+00 0.  1.
          1   -1    0    0  501    0  0.00000000000E+00 -0.00000000000E+00 -0.41937074962E+03  0.41937074962E+03  0.00000000000E+00 0. -1.
         25    2    1    2    0    0 -0.26926604962E+02 -0.58569535462E+02 -0.35818528257E+03  0.38483573718E+03  0.12508563233E+03 0.  0.
          5    1    3    3  502    0 -0.66533086237E+02 -0.23553653201E+02 -0.28978772909E+03  0.29828816013E+03  0.41800000000E+01 0.  1.
         -5    1    3    3    0  502  0.39606481275E+02 -0.35015882262E+02 -0.68397553484E+02  0.86547577044E+02  0.41800000000E+01 0.  1.
        -11    1    1    2    0    0  0.31179629945E+02  0.43804871618E+02  0.53149372214E+02  0.75603517562E+02  0.00000000000E+00 0.  1.
         11    1    1    2    0    0 -0.42530249833E+01  0.14764663844E+02 -0.35022034734E+02  0.38244299403E+02  0.00000000000E+00 0. -1.
</event>
<event>
 7    1  0.2841804E-009  0.8605474E+02  0.7561462E-02  0.1312697E+00
          3   -1    0    0  501    0  0.00000000000E+00  0.00000000000E+00  0.44132531593E+02  0.44132531593E+02  0.00000000000E+00 0. -1.
         -3   -1    0    0    0  501 -0.00000000000E+00 -0.00000000000E+00 -0.22335255388E+03  0.22335255388E+03  0.00000000000E+00 0.  1.
         25    2    1    2    0    0  0.16832351057E+01  0.29195648049E+02 -0.17052225229E+03  0.21350732527E+03  0.12510923336E+03 0.  0.
          5    1    3    3  502    0 -0.57320223936E+02  0.28044589291E+01 -0.48062568058E+02  0.74973034554E+02  0.41800000000E+01 0.  1.
         -5    1    3    3    0  502  0.59003459042E+02  0.26391189120E+02 -0.12245968423E+03  0.13853429071E+03  0.41800000000E+01 0.  1.
        -11    1    1    2    0    0 -0.20937117711E+02 -0.17343788482E+02 -0.14251333803E+02  0.30696423442E+02  0.00000000000E+00 0.  1.
         11    1    1    2    0    0  0.19253882605E+02 -0.11851859567E+02  0.55535638027E+01  0.23281336763E+02  0.00000000000E+00 0. -1.
</event>
<event>
 7    1  0.2841804E-009  0.1340044E+03  0.7561462E-02  0.1221632E+00
          1   -1    0    0  501    0  0.00000000000E+00  0.00000000000E+00  0.74753217946E+03  0.74753217946E+03  0.00000000000E+00 0. -1.
         -1   -1    0    0    0  501 -0.00000000000E+00 -0.00000000000E+00 -0.28068353100E+02  0.28068353100E+02  0.00000000000E+00 0.  1.
         25    2    1    2    0    0  0.31390567850E+02  0.90431765578E+02  0.38854663961E+03  0.41926157234E+03  0.12509397634E+03 0.  0.
          5    1    3    3  502    0  0.57660648015E+02  0.98406991490E+01  0.25001586337E+03  0.25680146811E+03  0.41800000000E+01 0. -1.
         -5    1    3    3    0  502 -0.26270080165E+02  0.80591066429E+02  0.13853077624E+03  0.16246010423E+03  0.41800000000E+01 0. -1.
        -11    1    1    2    0    0 -0.30743126380E+00  0.14783712706E+02  0.11889548814E+02  0.18974036111E+02  0.00000000000E+00 0.  1.
         11    1    1    2    0    0 -0.31083136586E+02 -0.10521547828E+03  0.31902763794E+03  0.33736492411E+03  0.00000000000E+00 0. -1.
</event>
<event>
 7    1  0.2841804E-009  0.8367343E+02  0.7561462E-02  0.1318939E+00
         -1   -1    0    0    0  501 -0.00000000000E+00  0.00000000000E+00  0.30011407442E+03  0.30011407442E+03  0.00000000000E+00 0.  1.
          1   -1    0    0  501    0  0.00000000000E+00 -0.00000000000E+00 -0.44544511187E+02  0.44544511187E+02  0.00000000000E+00 0. -1.
         25    2    1    2    0    0  0.29802643857E+02  0.22660041253E+02  0.11120537503E+03  0.17150799550E+03  0.12508669807E+03 0.  0.
          5    1    3    3  502    0  0.27971645989E+02  0.55440011251E+02  0.12178131414E+03  0.13676318475E+03  0.41800000000E+01 0. -1.
         -5    1    3    3    0  502  0.18309978682E+01 -0.32779969999E+02 -0.10575939113E+02  0.34744810755E+02  0.41800000000E+01 0. -1.
        -11    1    1    2    0    0 -0.46684470763E+02 -0.27839320595E+02  0.14563367106E+03  0.15544656229E+03  0.00000000000E+00 0.  1.
         11    1    1    2    0    0  0.16881826906E+02  0.51792793424E+01 -0.12694828581E+01  0.17704027817E+02  0.00000000000E+00 0. -1.
</event>
<event>
 7    1  0.2841804E-009  0.6616276E+02  0.7561462E-02  0.1373650E+00
          1   -1    0    0  501    0  0.00000000000E+00  0.00000000000E+00  0.55484709434E+03  0.55484709434E+03  0.00000000000E+00 0. -1.
         -1   -1    0    0    0  501 -0.00000000000E+00 -0.00000000000E+00 -0.23785813644E+02  0.23785813644E+02  0.00000000000E+00 0.  1.
         25    2    1    2    0    0  0.60660800257E+01  0.38105475726E+02  0.31376071883E+03  0.33996827279E+03  0.12507523022E+03 0.  0.
          5    1    3    3  502    0  0.20477657392E+02  0.13790993875E+02  0.13151070753E+00  0.25040280737E+02  0.41800000000E+01 0.  1.
         -5    1    3    3    0  502 -0.14411577366E+02  0.24314481851E+02  0.31362920812E+03  0.31492799205E+03  0.41800000000E+01 0.  1.
        -11    1    1    2    0    0 -0.19471498608E+02  0.14595414755E+02  0.13697304072E+02  0.27924568551E+02  0.00000000000E+00 0.  1.
         11    1    1    2    0    0  0.13405418583E+02 -0.52700890481E+02  0.20360325780E+03  0.21074006665E+03  0.00000000000E+00 0. -1.
</event>
<event>
 7    1  0.2841804E-009  0.1838342E+03  0.7561462E-02  0.1164143E+00
         -2   -1    0    0    0  501 -0.00000000000E+00  0.00000000000E+00  0.10464292812E+03  0.10464292812E+03  0.00000000000E+00 0. -1.
          2   -1    0    0  501    0  0.00000000000E+00 -0.00000000000E+00 -0.36684966642E+03  0.36684966642E+03  0.00000000000E+00 0.  1.
         25    2    1    2    0    0 -0.90485635642E+02 -0.13092993829E+03 -0.16995625703E+03  0.26431715572E+03  0.12509248781E+03 0.  0.
          5    1    3    3  502    0  0.18884061096E+02  0.56794214729E+01 -0.44812460306E+02  0.49137486610E+02  0.41800000000E+01 0.  1.
         -5    1    3    3    0  502 -0.10936969674E+03 -0.13660935976E+03 -0.12514379673E+03  0.21517966911E+03  0.41800000000E+01 0.  1.
        -11    1    1    2    0    0 -0.86125718581E+01  0.29205147540E+02  0.10145683729E+02  0.32094422181E+02  0.00000000000E+00 0. -1.
         11    1    1    2    0    0  0.99098207501E+02  0.10172479075E+03 -0.10239616499E+03  0.17508101664E+03  0.00000000000E+00 0.  1.
</event>
<event>
 7    1  0.2841804E-009  0.7874550E+02  0.7561462E-02  0.1332650E+00
         -2   -1    0    0    0  501 -0.00000000000E+00  0.00000000000E+00  0.25057714500E+03  0.25057714500E+03  0.00000000000E+00 0.  1.
          2   -1    0    0  501    0  0.00000000000E+00 -0.00000000000E+00 -0.46805845816E+02  0.46805845816E+02  0.00000000000E+00 0. -1.
         25    2    1    2    0    0 -0.24725087223E+01 -0.18739113584E+02  0.12774903897E+03  0.17979104594E+03  0.12509090921E+03 0.  0.
          5    1    3    3  502    0  0.19578498922E+02  0.24285897901E+02  0.12743383716E+03  0.13126300968E+03  0.41800000000E+01 0. -1.
         -5    1    3    3    0  502 -0.22051007645E+02 -0.43025011485E+02  0.31520180965E+00  0.48528036264E+02  0.41800000000E+01 0. -1.
        -11    1    1    2    0    0  0.34771125460E+02 -0.78603527676E+01  0.65301992953E+02  0.74398700224E+02  0.00000000000E+00 0.  1.
         11    1    1    2    0    0 -0.32298616737E+02  0.26599466352E+02  0.10720267265E+02  0.43193244652E+02  0.00000000000E+00 0. -1.
</event>
<event>
 7    1  0.2841804E-009  0.1016713E+03  0.7561462E-02  0.1276820E+00
          1   -1    0    0  501    0  0.00000000000E+00  0.00000000000E+00  0.35607655595E+03  0.35607655595E+03  0.00000000000E+00 0. -1.
         -1   -1    0    0    0  501 -0.00000000000E+00 -0.00000000000E+00 -0.34267674572E+02  0.34267674572E+02  0.00000000000E+00 0.  1.
         25    2    1    2    0    0  0.19325403257E+02  0.16306095400E+02  0.18349176480E+03  0.22350874961E+03  0.12509026119E+03 0.  0.
          5    1    3    3  502    0  0.32439841294E+02 -0.40241687717E+02  0.14432258676E+03  0.15335650681E+03  0.41800000000E+01 0. -1.
         -5    1    3    3    0  502 -0.13114438038E+02  0.56547783117E+02  0.39169178040E+02  0.70152242792E+02  0.41800000000E+01 0. -1.
        -11    1    1    2    0    0 -0.54980887250E+02 -0.24582096048E+01  0.81236182141E+02  0.98123687487E+02  0.00000000000E+00 0.  1.
         11    1    1    2    0    0  0.35655483993E+02 -0.13847885795E+02  0.57080934438E+02  0.68711793428E+02  0.00000000000E+00 0. -1.
</event>
<event>
 6    1  0.2841804E-009  0.1724829E+03  0.7561462E-02  0.1175283E+00
         -2   -1    0    0    0  501 -0.00000000000E+00  0.00000000000E+00  0.81412919534E+02  0.81412919534E+02  0.00000000000E+00 0.  1.
          2   -1    0    0  501    0  0.00000000000E+00 -0.00000000000E+00 -0.49959660955E+03  0.49959660955E+03  0.00000000000E+00 0. -1.
          5    1    1    2  502    0 -0.24948339637E-01  0.84764215620E+01 -0.12171223701E+03  0.12207862787E+03  0.41800000000E+01 0. -1.
         -5    1    1    2    0  502  0.90468029205E+02 -0.13081318957E+03 -0.20667943675E+03  0.26082641133E+03  0.41800000000E+01 0. -1.
        -11    1    1    2    0    0  0.18315657767E+02  0.16396164681E+02 -0.95148490397E+01  0.26359626096E+02  0.00000000000E+00 0.  1.
         11    1    1    2    0    0 -0.10875873863E+03  0.10594060332E+03 -0.80277167222E+02  0.17174486379E+03  0.00000000000E+00 0. -1.
</event>
<event>
 7    1  0.2841804E-009  0.9572726E+02  0.7561462E-02  0.1289546E+00
         -3   -1    0    0    0  501 -0.00000000000E+00  0.00000000000E+00  0.92604482090E+02  0.92604482090E+02  0.00000000000E+00 0.  1.
          3   -1    0    0  501    0  0.00000000000E+00 -0.00000000000E+00 -0.17548529454E+03  0.17548529454E+03  0.00000000000E+00 0. -1.
         25    2    1    2    0    0 -0.51818438314E+02 -0.54101795698E+02 -0.74398061523E+02  0.16368120960E+03  0.12507722403E+03 0.  0.
          5    1    3    3  502    0 -0.67353168305E+02 -0.29888145117E+02 -0.10044732577E+03  0.12464705433E+03  0.41800000000E+01 0.  1.
         -5    1    3    3    0  502  0.15534729991E+02 -0.24213650581E+02  0.26049264244E+02  0.39034155275E+02  0.41800000000E+01 0.  1.
        -11    1    1    2    0    0  0.53732741300E+02  0.24740348125E+02  0.20984250875E+02  0.62766480686E+02  0.00000000000E+00 0.  1.
         11    1    1    2    0    0 -0.19143029860E+01  0.29361447573E+02 -0.29467001807E+02  0.41642086343E+02  0.00000000000E+00 0. -1.
</event>
<event>
 7    1  0.2841804E-009  0.1254668E+03  0.7561462E-02  0.1234342E+00
         -3   -1    0    0    0  501 -0.00000000000E+00  0.00000000000E+00  0.20814457325E+04  0.20814457325E+04  0.00000000000E+00 0.  1.
          3   -1    0    0  501    0  0.00000000000E+00 -0.00000000000E+00 -0.12119749692E+02  0.12119749692E+02  0.00000000000E+00 0. -1.
         25    2    1    2    0    0  0.98771394207E+02 -0.44957465878E+02  0.13818729659E+04  0.13917606508E+04  0.12509137844E+03 0.  0.
          5    1    3    3  502    0  0.52527598509E+02 -0.11754563003E+02  0.11983431115E+04  0.11995586703E+04  0.41800000000E+01 0. -1.
         -5    1    3    3    0  502  0.46243795698E+02 -0.33202902875E+02  0.18352985448E+03  0.19220198044E+03  0.41800000000E+01 0. -1.
        -11    1    1    2    0    0 -0.11405456935E+03  0.28826067474E+02  0.60935781547E+03  0.62060964722E+03  0.00000000000E+00 0.  1.
         11    1    1    2    0    0  0.15283175142E+02  0.16131398404E+02  0.78095201429E+02  0.81195184236E+02  0.00000000000E+00 0. -1.
</event>
<event>
 7    1  0.2841804E-009  0.7946645E+02  0.7561462E-02  0.1330572E+00
         -1   -1    0    0    0  501 -0.00000000000E+00  0.00000000000E+00  0.45112302332E+03  0.45112302332E+03  0.00000000000E+00 0.  1.
          1   -1    0    0  501    0  0.00000000000E+00 -0.00000000000E+00 -0.30300879251E+02  0.30300879251E+02  0.00000000000E+00 0. -1.
         25    2    1    2    0    0 -0.83266109824E+01 -0.71748426852E+01  0.14821896116E+03  0.19425954387E+03  0.12508836525E+03 0.  0.
          5    1    3    3  502    0 -0.36463471114E+02 -0.26429246462E+02  0.15303104043E+03  0.15957462684E+03  0.41800000000E+01 0.  1.
         -5    1    3    3    0  502  0.28136860131E+02  0.19254403776E+02 -0.48120792742E+01  0.34684917036E+02  0.41800000000E+01 0.  1.
        -11    1    1    2    0    0 -0.29416749887E+02 -0.17531738736E+02  0.18985521821E+03  0.19291892317E+03  0.00000000000E+00 0.  1.
         11    1    1    2    0    0  0.37743360869E+02  0.24706581421E+02  0.82747964700E+02  0.94245435525E+02  0.00000000000E+00 0. -1.
</event>
<event>
 7    1  0.2841804E-009  0.1077900E+03  0.7561462E-02  0.1264718E+00
          2   -1    0    0  501    0  0.00000000000E+00  0.00000000000E+00  0.27446414873E+02  0.27446414873E+02  0.00000000000E+00 0. -1.
         -2   -1    0    0    0  501 -0.00000000000E+00 -0.00000000000E+00 -0.56369602318E+03  0.56369602318E+03  0.00000000000E+00 0.  1.
         25    2    1    2    0    0 -0.17571910917E+02  0.28145711603E+02 -0.16661678027E+03  0.21097166574E+03  0.12508772578E+03 0.  0.
          5    1    3    3  502    0 -0.15223335630E+02 -0.48029391522E+02 -0.87386934183E+02  0.10095801634E+03  0.41800000000E+01 0. -1.
         -5    1    3    3    0  502 -0.23485752871E+01  0.76175103126E+02 -0.79229846091E+02  0.11001364940E+03  0.41800000000E+01 0. -1.
        -11    1    1    2    0    0 -0.29473657620E+02  0.66095855989E+01 -0.13799972905E+03  0.14126679841E+03  0.00000000000E+00 0.  1.
         11    1    1    2    0    0  0.47045568537E+02 -0.34755297202E+02 -0.23163309898E+03  0.23890397390E+03  0.00000000000E+00 0. -1.
</event>
<event>
 7    1  0.2841804E-009  0.1055614E+03  0.7561462E-02  0.1269017E+00
         -1   -1    0    0    0  501 -0.00000000000E+00  0.00000000000E+00  0.95302021647E+02  0.95302021647E+02  0.00000000000E+00 0.  1.
          1   -1    0    0  501    0  0.00000000000E+00 -0.00000000000E+00 -0.26219793850E+03  0.26219793850E+03  0.00000000000E+00 0. -1.
         25    2    1    2    0    0  0.53105612793E+02 -0.76999126035E+02 -0.14767382915E+02  0.15689052193E+03  0.12508992266E+03 0.  0.
          5    1    3    3  502    0  0.54382459000E+02 -0.74811208349E+02 -0.60694277892E+02  0.11070427503E+03  0.41800000000E+01 0. -1.
         -5    1    3    3    0  502 -0.12768462071E+01 -0.21879176857E+01  0.45926894976E+02  0.46186246895E+02  0.41800000000E+01 0. -1.
        -11    1    1    2    0    0 -0.57675896528E+02  0.27419043130E+02 -0.33849760705E+02  0.72278069054E+02  0.00000000000E+00 0.  1.
         11    1    1    2    0    0  0.45702837351E+01  0.49580082905E+02 -0.11827877323E+03  0.12833136916E+03  0.00000000000E+00 0. -1.
</event>
<event>
 7    1  0.2841804E-009  0.1220618E+03  0.7561462E-02  0.1239734E+00
          4   -1    0    0  501    0  0.00000000000E+00  0.00000000000E+00  0.18680804532E+03  0.18680804532E+03  0.00000000000E+00 0. -1.
         -4   -1    0    0    0  501 -0.00000000000E+00 -0.00000000000E+00 -0.10264470937E+03  0.10264470937E+03  0.00000000000E+00 0.  1.
         25    2    1    2    0    0 -0.62856903793E+02 -0.84563722241E+01  0.10691396472E+03  0.17634143971E+03  0.12507280648E+03 0.  0.
          5    1    3    3  502    0 -0.39240635401E+02  0.55597652540E+02  0.33367731166E+02  0.75906549900E+02  0.41800000000E+01 0.  1.
         -5    1    3    3    0  502 -0.23616268392E+02 -0.64054024764E+02  0.73546233551E+02  0.10043488981E+03  0.41800000000E+01 0.  1.
        -11    1    1    2    0    0  0.32606729051E+02  0.47835127403E+02  0.13680398524E+01  0.57907423756E+02  0.00000000000E+00 0. -1.
         11    1    1    2    0    0  0.30250174742E+02 -0.39378755179E+02 -0.24118668617E+02  0.55203891233E+02  0.00000000000E+00 0.  1.
</event>
<event>
 7    1  0.2877558E-009  0.1757746E+03  0.7561462E-02  0.1171956E+00
         -1   -1    0    0    0  501 -0.00000000000E+00  0.00000000000E+00  0.13249903903E+03  0.13249903903E+03  0.00000000000E+00 0.  1.
          1   -1    0    0  501    0  0.00000000000E+00 -0.00000000000E+00 -0.31521805949E+03  0.31521805949E+03  0.00000000000E+00 0. -1.
         25    2    1    2    0    0  0.24666899051E+02 -0.15145728782E+03 -0.83917609844E+01  0.19815424510E+03  0.12508763830E+03 0.  0.
          5    1    3    3  502    0 -0.43922402176E+02 -0.64226147246E+02  0.25606210360E+02  0.82020276834E+02  0.41800000000E+01 0. -1.
         -5    1    3    3    0  502  0.68589301227E+02 -0.87231140576E+02 -0.33997971344E+02  0.11613396826E+03  0.41800000000E+01 0. -1.
        -11    1    1    2    0    0  0.15416297352E+02  0.71470044875E+02 -0.28489159004E+02  0.78468221079E+02  0.00000000000E+00 0.  1.
         11    1    1    2    0    0 -0.40083196403E+02  0.79987242947E+02 -0.14583810047E+03  0.17109463235E+03  0.00000000000E+00 0. -1.
</event>
<event>
 7    1  0.3333403E-009  0.1575826E+03  0.7561462E-02  0.1191453E+00
          2   -1    0    0  501    0  0.00000000000E+00  0.00000000000E+00  0.36397213051E+03  0.36397213051E+03  0.00000000000E+00 0. -1.
         -2   -1    0    0    0  501 -0.00000000000E+00 -0.00000000000E+00 -0.95945109110E+02  0.95945109110E+02  0.00000000000E+00 0.  1.
         25    2    1    2    0    0  0.14485433908E+03  0.43321057973E+02  0.15875146400E+03  0.25240139340E+03  0.12507974438E+03 0.  0.
          5    1    3    3  502    0  0.13203093337E+03  0.24069473418E+02  0.17733721937E+03  0.22243531351E+03  0.41800000000E+01 0.  1.
         -5    1    3    3    0  502  0.12823405702E+02  0.19251584555E+02 -0.18585755372E+02  0.29966079898E+02  0.41800000000E+01 0.  1.
        -11    1    1    2    0    0 -0.41780681624E+02 -0.34048220408E+02 -0.40467337328E+01  0.54048891976E+02  0.00000000000E+00 0.  1.
         11    1    1    2    0    0 -0.10307365745E+03 -0.92728375650E+01  0.11332229113E+03  0.15346695424E+03  0.00000000000E+00 0. -1.
</event>
<event>
 7    1  0.2841804E-009  0.5851054E+02  0.7561462E-02  0.1404191E+00
          1   -1    0    0  501    0  0.00000000000E+00  0.00000000000E+00  0.85441704087E+02  0.85441704087E+02  0.00000000000E+00 0. -1.
         -1   -1    0    0    0  501 -0.00000000000E+00 -0.00000000000E+00 -0.15907823622E+03  0.15907823622E+03  0.00000000000E+00 0.  1.
         25    2    1    2    0    0  0.22450503944E+02 -0.13490248326E+02 -0.76653597709E+02  0.14902395808E+03  0.12508538729E+03 0.  0.
          5    1    3    3  502    0  0.33471778496E+02 -0.17154601463E+02  0.25818128088E+02  0.45811444477E+02  0.41800000000E+01 0. -1.
         -5    1    3    3    0  502 -0.11021274553E+02  0.36643531373E+01 -0.10247172580E+03  0.10321251360E+03  0.41800000000E+01 0. -1.
        -11    1    1    2    0    0  0.95231599884E+01  0.29555073816E+02 -0.32590885413E+02  0.45015094984E+02  0.00000000000E+00 0.  1.
         11    1    1    2    0    0 -0.31973663932E+02 -0.16064825491E+02  0.35607950988E+02  0.50480887243E+02  0.00000000000E+00 0. -1.
</event>
<event>
 7    1  0.2841804E-009  0.1174624E+03  0.7561462E-02  0.1247343E+00
         -1   -1    0    0    0  501 -0.00000000000E+00  0.00000000000E+00  0.66633360888E+03  0.66633360888E+03  0.00000000000E+00 0.  1.
          1   -1    0    0  501    0  0.00000000000E+00 -0.00000000000E+00 -0.31272065362E+02  0.31272065362E+02  0.00000000000E+00 0. -1.
         25    2    1    2    0    0  0.85472533511E+02  0.30728377485E+02  0.42090372380E+03  0.44839205263E+03  0.12508277652E+03 0.  0.
          5    1    3    3  502    0  0.69544736901E+02 -0.21225418973E+02  0.35722855332E+03  0.36457742737E+03  0.41800000000E+01 0.  1.
         -5    1    3    3    0  502  0.15927796609E+02  0.51953796458E+02  0.63675170481E+02  0.83814625257E+02  0.41800000000E+01 0.  1.
        -11    1    1    2    0    0 -0.69414962417E+02 -0.47702827392E+02  0.20893228884E+03  0.22527027782E+03  0.00000000000E+00 0.  1.
         11    1    1    2    0    0 -0.16057571094E+02  0.16974449907E+02  0.52255308761E+01  0.23943343794E+02  0.00000000000E+00 0. -1.
</event>
<event>
 7    1  0.2841804E-009  0.9480478E+02  0.7561462E-02  0.1291616E+00
          2   -1    0    0  501    0  0.00000000000E+00  0.00000000000E+00  0.32623196253E+02  0.32623196253E+02  0.00000000000E+00 0. -1.
         -2   -1    0    0    0  501 -0.00000000000E+00 -0.00000000000E+00 -0.52429786301E+03  0.52429786301E+03  0.00000000000E+00 0.  1.
         25    2    1    2    0    0  0.36841752148E+02 -0.29252782734E+02 -0.15111228925E+03  0.20173225531E+03  0.12509172184E+03 0.  0.
          5    1    3    3  502    0  0.57345403160E+02 -0.40234197463E+02 -0.16137101804E+03  0.17596978085E+03  0.41800000000E+01 0.  1.
         -5    1    3    3    0  502 -0.20503651011E+02  0.10981414729E+02  0.10258728786E+02  0.25762474465E+02  0.41800000000E+01 0.  1.
        -11    1    1    2    0    0  0.48838911791E+01 -0.26060857975E+02 -0.51333936212E+02  0.57777103757E+02  0.00000000000E+00 0. -1.
         11    1    1    2    0    0 -0.41725643327E+02  0.55313640709E+02 -0.28922844130E+03  0.29741170020E+03  0.00000000000E+00 0.  1.
</event>
<event>
 7    1  0.2841804E-009  0.2363364E+03  0.7561462E-02  0.1122258E+00
          1   -1    0    0  501    0  0.00000000000E+00  0.00000000000E+00  0.62734023884E+03  0.62734023884E+03  0.00000000000E+00 0. -1.
         -1   -1    0    0    0  501 -0.00000000000E+00 -0.00000000000E+00 -0.98981527955E+02  0.98981527955E+02  0.00000000000E+00 0.  1.
         25    2    1    2    0    0  0.99848922745E+02 -0.18747751556E+03  0.37766933767E+03  0.45099879807E+03  0.12509260980E+03 0.  0.
          5    1    3    3  502    0  0.55352575652E+01 -0.13519928406E+03  0.17352005350E+03  0.22008218204E+03  0.41800000000E+01 0. -1.
         -5    1    3    3    0  502  0.94313665180E+02 -0.52278231507E+02  0.20414928417E+03  0.23091661603E+03  0.41800000000E+01 0. -1.
        -11    1    1    2    0    0 -0.97195289179E+02  0.91887740728E+02  0.10066033846E+03  0.16740007430E+03  0.00000000000E+00 0.  1.
         11    1    1    2    0    0 -0.26536335662E+01  0.95589774835E+02  0.50029034747E+02  0.10792289443E+03  0.00000000000E+00 0. -1.
</event>
<event>
 7    1  0.2841804E-009  0.2231136E+03  0.7561462E-02  0.1131583E+00
         -2   -1    0    0    0  501 -0.00000000000E+00  0.00000000000E+00  0.44168963820E+02  0.44168963820E+02  0.00000000000E+00 0.  1.
          2   -1    0    0  501    0  0.00000000000E+00 -0.00000000000E+00 -0.12833094784E+04  0.12833094784E+04  0.00000000000E+00 0. -1.
         25    2    1    2    0    0 -0.18241963864E+03  0.10514096272E+03 -0.57854327325E+03  0.62824463768E+03  0.12508980431E+03 0.  0.
          5    1    3    3  502    0 -0.97107081344E+02  0.11209235825E+03 -0.44937544838E+03  0.47323381962E+03  0.41800000000E+01 0. -1.
         -5    1    3    3    0  502 -0.85312557300E+02 -0.69513955334E+01 -0.12916782487E+03  0.15501081806E+03  0.41800000000E+01 0. -1.
        -11    1    1    2    0    0  0.43681043109E+02 -0.38613045611E+02 -0.82568574248E+02  0.10107705116E+03  0.00000000000E+00 0.  1.
         11    1    1    2    0    0  0.13873859554E+03 -0.66527917109E+02 -0.57802866710E+03  0.59815675340E+03  0.00000000000E+00 0. -1.
</event>
<event>
 7    1  0.2841804E-009  0.1305360E+03  0.7561462E-02  0.1226663E+00
         -2   -1    0    0    0  501 -0.00000000000E+00  0.00000000000E+00  0.26479461773E+02  0.26479461773E+02  0.00000000000E+00 0.  1.
          2   -1    0    0  501    0  0.00000000000E+00 -0.00000000000E+00 -0.65967519162E+03  0.65967519162E+03  0.00000000000E+00 0. -1.
         25    2    1    2    0    0  0.25456948656E+01  0.76986509353E+02 -0.37006954982E+03  0.39815919790E+03  0.12508346007E+03 0.  0.
          5    1    3    3  502    0 -0.50934265302E+02  0.98094145438E+00 -0.96451092917E+02  0.10915835906E+03  0.41800000000E+01 0. -1.
         -5    1    3    3    0  502  0.53479960167E+02  0.76005567899E+02 -0.27361845690E+03  0.28900083884E+03  0.41800000000E+01 0. -1.
        -11    1    1    2    0    0 -0.21260609873E+02  0.13063752287E+02 -0.62208319056E+02  0.67026488165E+02  0.00000000000E+00 0. -1.
         11    1    1    2    0    0  0.18714915007E+02 -0.90050261641E+02 -0.20091786097E+03  0.22096896733E+03  0.00000000000E+00 0.  1.
</event>
<event>
 7    1  0.2841804E-009  0.1304186E+03  0.7561462E-02  0.1226836E+00
          3   -1    0    0  501    0  0.00000000000E+00  0.00000000000E+00  0.47611624540E+02  0.47611624540E+02  0.00000000000E+00 0. -1.
         -3   -1    0    0    0  501 -0.00000000000E+00 -0.00000000000E+00 -0.36686038654E+03  0.36686038654E+03  0.00000000000E+00 0.  1.
         25    2    1    2    0    0 -0.73060395379E+02  0.35412863521E+01 -0.20095743834E+03  0.24775271169E+03  0.12508857680E+03 0.  0.
          5    1    3    3  502    0 -0.10214042779E+03 -0.23052656699E+02 -0.15455395730E+03  0.18673106353E+03  0.41800000000E+01 0.  1.
         -5    1    3    3    0  502  0.29080032409E+02  0.26593943051E+02 -0.46403481040E+02  0.61021648164E+02  0.41800000000E+01 0.  1.
        -11    1    1    2    0    0  0.93354212641E+02 -0.12585259422E+02 -0.10391489865E+03  0.14025585169E+03  0.00000000000E+00 0.  1.
         11    1    1    2    0    0 -0.20293817262E+02  0.90439730699E+01 -0.14376425015E+02  0.26463447700E+02  0.00000000000E+00 0. -1.
</event>
<event>
 7    1  0.2841804E-009  0.7419348E+02  0.7561462E-02  0.1346387E+00
          1   -1    0    0  501    0  0.00000000000E+00  0.00000000000E+00  0.16866956029E+03  0.16866956029E+03  0.00000000000E+00 0. -1.
         -1   -1    0    0    0  501 -0.00000000000E+00 -0.00000000000E+00 -0.73591414056E+02  0.73591414056E+02  0.00000000000E+00 0.  1.
         25    2    1    2    0    0 -0.15348801185E+02 -0.15963753801E+02  0.37683648315E+02  0.13250864316E+03  0.12509219012E+03 0.  0.
          5    1    3    3  502    0 -0.59597666442E+01  0.21814236442E+02 -0.39646006161E+02  0.45832935041E+02  0.41800000000E+01 0.  1.
         -5    1    3    3    0  502 -0.93890345412E+01 -0.37777990243E+02  0.77329654476E+02  0.86675708118E+02  0.41800000000E+01 0.  1.
        -11    1    1    2    0    0 -0.73145238955E+01  0.47135408875E+02  0.10123892654E+02  0.48762098315E+02  0.00000000000E+00 0.  1.
         11    1    1    2    0    0  0.22663325081E+02 -0.31171655074E+02  0.47270605268E+02  0.60990232875E+02  0.00000000000E+00 0. -1.
</event>
<event>
 7    1  0.2841804E-009  0.1109332E+03  0.7561462E-02  0.1258851E+00
          2   -1    0    0  501    0  0.00000000000E+00  0.00000000000E+00  0.48522129067E+03  0.48522129067E+03  0.00000000000E+00 0. -1.
         -2   -1    0    0    0  501 -0.00000000000E+00 -0.00000000000E+00 -0.58870243063E+02  0.58870243063E+02  0.00000000000E+00 0.  1.
         25    2    1    2    0    0  0.23088288832E+02  0.90625196023E+01  0.23651660238E+02  0.12967452407E+03  0.12506351513E+03 0.  0.
          5    1    3    3  502    0 -0.43685327144E+02  0.32106578650E+02  0.22653474576E+02  0.58905793524E+02  0.41800000000E+01 0.  1.
         -5    1    3    3    0  502  0.66773615976E+02 -0.23044059047E+02  0.99818566194E+00  0.70768730542E+02  0.41800000000E+01 0.  1.
        -11    1    1    2    0    0 -0.25076600002E+02  0.40225028354E+02  0.16615960375E+03  0.17278860695E+03  0.00000000000E+00 0. -1.
         11    1    1    2    0    0  0.19883111697E+01 -0.49287547956E+02  0.23653978362E+03  0.24162840272E+03  0.00000000000E+00 0.  1.
</event>
<event>
 7    1  0.2841804E-009  0.9044314E+02  0.7561462E-02  0.1301782E+00
         -1   -1    0    0    0  501 -0.00000000000E+00  0.00000000000E+00  0.35620341938E+02  0.35620341938E+02  0.00000000000E+00 0.  1.
          1   -1    0    0  501    0  0.00000000000E+00 -0.00000000000E+00 -0.47879067072E+03  0.47879067072E+03  0.00000000000E+00 0. -1.
         25    2    1    2    0    0  0.53065921175E+02  0.29834839802E+02 -0.32253074899E+03  0.35125666743E+03  0.12509617388E+03 0.  0.
          5    1    3    3  502    0  0.24513652955E+02 -0.54576211862E+01  0.61250838443E-01  0.25459398301E+02  0.41800000000E+01 0.  1.
         -5    1    3    3    0  502  0.28552268220E+02  0.35292460988E+02 -0.32259199983E+03  0.32579726913E+03  0.41800000000E+01 0.  1.
        -11    1    1    2    0    0 -0.74938751698E+02 -0.27016456566E+01 -0.82988686195E+02  0.11184917269E+03  0.00000000000E+00 0. -1.
         11    1    1    2    0    0  0.21872830523E+02 -0.27133194146E+02 -0.37650893598E+02  0.51305172530E+02  0.00000000000E+00 0.  1.
</event>
<event>
 7    1  0.2841804E-009  0.1028126E+03  0.7561462E-02  0.1274490E+00
          1   -1    0    0  501    0  0.00000000000E+00  0.00000000000E+00  0.56240199936E+02  0.56240199936E+02  0.00000000000E+00 0. -1.
         -1   -1    0    0    0  501 -0.00000000000E+00 -0.00000000000E+00 -0.21195261935E+03  0.21195261935E+03  0.00000000000E+00 0.  1.
         25    2    1    2    0    0  0.84841206714E+01  0.22215156127E+02 -0.11375275068E+03  0.17074410512E+03  0.12509343580E+03 0.  0.
          5    1    3    3  502    0 -0.16503186000E+02 -0.48868607698E+02 -0.49950798840E+02  0.71923922803E+02  0.41800000000E+01 0. -1.
         -5    1    3    3    0  502  0.24987306671E+02  0.71083763825E+02 -0.63801951843E+02  0.98820182318E+02  0.41800000000E+01 0. -1.
        -11    1    1    2    0    0 -0.27831968866E+02 -0.42228960835E+02 -0.47135115295E+02  0.69134815528E+02  0.00000000000E+00 0. -1.
         11    1    1    2    0    0  0.19347848195E+02  0.20013804708E+02  0.51754465687E+01  0.28313898634E+02  0.00000000000E+00 0.  1.
</event>
<event>
 7    1  0.2841804E-009  0.2498468E+03  0.7561462E-02  0.1113402E+00
          2   -1    0    0  501    0  0.00000000000E+00  0.00000000000E+00  0.77422304365E+03  0.77422304365E+03  0.00000000000E+00 0.  1.
         -2   -1    0    0    0  501 -0.00000000000E+00 -0.00000000000E+00 -0.14191198192E+03  0.14191198192E+03  0.00000000000E+00 0. -1.
         25    2    1    2    0    0  0.12144461725E+03  0.19645138347E+03  0.61215575698E+03  0.66612669075E+03  0.12509259051E+03 0.  0.
          5    1    3    3  502    0 -0.18549226953E+02 -0.26850201770E+01  0.44554879500E+02  0.48516933551E+02  0.41800000000E+01 0. -1.
         -5    1    3    3    0  502  0.13999384420E+03  0.19913640365E+03  0.56760087748E+03  0.61760975720E+03  0.41800000000E+01 0. -1.
        -11    1    1    2    0    0  0.47055777026E+01 -0.17272083460E+02 -0.20414600613E+02  0.27151855309E+02  0.00000000000E+00 0. -1.
         11    1    1    2    0    0 -0.12615019495E+03 -0.17917930001E+03  0.40569905363E+02  0.22285647951E+03  0.00000000000E+00 0.  1.
</event>
<event>
 7    1  0.2841804E-009  0.8585618E+02  0.7561462E-02  0.1313209E+00
          1   -1    0    0  501    0  0.00000000000E+00  0.00000000000E+00  0.12286934360E+03  0.12286934360E+03  0.00000000000E+00 0. -1.
         -1   -1    0    0    0  501 -0.00000000000E+00 -0.00000000000E+00 -0.11309126816E+03  0.11309126816E+03  0.00000000000E+00 0.  1.
         25    2    1    2    0    0 -0.47545697275E+01 -0.48123750830E+02  0.11164816605E+02  0.13457586035E+03  0.12508999853E+03 0.  0.
          5    1    3    3  502    0  0.28033567774E+02 -0.30697036118E+02 -0.48600423562E+02  0.64091048665E+02  0.41800000000E+01 0.  1.
         -5    1    3    3    0  502 -0.32788137501E+02 -0.17426714712E+02  0.59765240168E+02  0.70484811688E+02  0.41800000000E+01 0.  1.
        -11    1    1    2    0    0 -0.10964585909E+02  0.67062423231E+02  0.17721488461E+02  0.70225649922E+02  0.00000000000E+00 0.  1.
         11    1    1    2    0    0  0.15719155637E+02 -0.18938672400E+02 -0.19108229618E+02  0.31159101485E+02  0.00000000000E+00 0. -1.
</event>
<event>
 7    1  0.2841804E-009  0.1567554E+03  0.7561462E-02  0.1192409E+00
          2   -1    0    0  501    0  0.00000000000E+00  0.00000000000E+00  0.10723319832E+04  0.10723319832E+04  0.00000000000E+00 0. -1.
         -2   -1    0    0    0  501 -0.00000000000E+00 -0.00000000000E+00 -0.23478296768E+02  0.23478296768E+02  0.00000000000E+00 0.  1.
         25    2    1    2    0    0 -0.69732261774E+02 -0.84849476199E+02  0.53966384585E+03  0.56474472131E+03  0.12505003711E+03 0.  0.
          5    1    3    3  502    0  0.31951057810E+02 -0.19475140033E+01  0.70038624044E+02  0.77120322639E+02  0.41800000000E+01 0. -1.
         -5    1    3    3    0  502 -0.10168331958E+03 -0.82901962196E+02  0.46962522181E+03  0.48762439867E+03  0.41800000000E+01 0. -1.
        -11    1    1    2    0    0  0.61274943427E+02  0.10863386148E+03  0.44309777066E+03  0.46031681364E+03  0.00000000000E+00 0. -1.
         11    1    1    2    0    0  0.84573183465E+01 -0.23784385279E+02  0.66092069955E+02  0.70748745061E+02  0.00000000000E+00 0.  1.
</event>
<event>
 7    1  0.2841804E-009  0.1162465E+03  0.7561462E-02  0.1249421E+00
          2   -1    0    0  501    0  0.00000000000E+00  0.00000000000E+00  0.67224115398E+03  0.67224115398E+03  0.00000000000E+00 0. -1.
         -2   -1    0    0    0  501 -0.00000000000E+00 -0.00000000000E+00 -0.26606495445E+02  0.26606495445E+02  0.00000000000E+00 0.  1.
         25    2    1    2    0    0  0.46596473345E+02 -0.55275610011E+02  0.43768080572E+03  0.46091057019E+03  0.12508973431E+03 0.  0.
          5    1    3    3  502    0  0.55242432354E+02  0.17265687125E+02  0.10204080270E+03  0.11738666066E+03  0.41800000000E+01 0.  1.
         -5    1    3    3    0  502 -0.86459590092E+01 -0.72541297136E+02  0.33564000302E+03  0.34352390954E+03  0.41800000000E+01 0.  1.
        -11    1    1    2    0    0  0.17472761748E+02  0.24813514826E+02  0.12572111430E+03  0.12933215571E+03  0.00000000000E+00 0. -1.
         11    1    1    2    0    0 -0.64069235093E+02  0.30462095185E+02  0.82232738520E+02  0.10860492352E+03  0.00000000000E+00 0.  1.
</event>
<event>
 7    1  0.2841804E-009  0.1024160E+03  0.7561462E-02  0.1275296E+00
         -2   -1    0    0    0  501 -0.00000000000E+00  0.00000000000E+00  0.13801553317E+03  0.13801553317E+03  0.00000000000E+00 0.  1.
          2   -1    0    0  501    0  0.00000000000E+00 -0.00000000000E+00 -0.10375480084E+03  0.10375480084E+03  0.00000000000E+00 0. -1.
         25    2    1    2    0    0 -0.40515227134E+02 -0.87224876876E+01  0.15176062737E+02  0.13266024962E+03  0.12510341133E+03 0.  0.
          5    1    3    3  502    0 -0.91581498196E+01 -0.65781539386E+02  0.78016444781E+01  0.67003139394E+02  0.41800000000E+01 0.  1.
         -5    1    3    3    0  502 -0.31357077314E+02  0.57059051698E+02  0.73744182594E+01  0.65657110225E+02  0.41800000000E+01 0.  1.
        -11    1    1    2    0    0 -0.68030854347E+01 -0.17618991359E+02 -0.30374565357E+02  0.35767653663E+02  0.00000000000E+00 0. -1.
         11    1    1    2    0    0  0.47318312569E+02  0.26341479046E+02  0.49459234948E+02  0.73342430723E+02  0.00000000000E+00 0.  1.
</event>
<event>
 7    1  0.2841804E-009  0.1106564E+03  0.7561462E-02  0.1259359E+00
          1   -1    0    0  501    0  0.00000000000E+00  0.00000000000E+00  0.21939006139E+03  0.21939006139E+03  0.00000000000E+00 0. -1.
         -1   -1    0    0    0  501 -0.00000000000E+00 -0.00000000000E+00 -0.66685278739E+02  0.66685278739E+02  0.00000000000E+00 0.  1.
         25    2    1    2    0    0 -0.41543216753E+02  0.25218303314E+02  0.61540373331E+02  0.14763204342E+03  0.12508477531E+03 0.  0.
          5    1    3    3  502    0 -0.69661164527E+02 -0.18563208543E+02  0.76702942235E+01  0.72619393885E+02  0.41800000000E+01 0. -1.
         -5    1    3    3    0  502  0.28117947774E+02  0.43781511857E+02  0.53870079107E+02  0.75012649537E+02  0.41800000000E+01 0. -1.
        -11    1    1    2    0    0 -0.40416486087E+01 -0.46440556491E+02  0.18666431034E+02  0.50214498486E+02  0.00000000000E+00 0.  1.
         11    1    1    2    0    0  0.45584865361E+02  0.21222253177E+02  0.72497978288E+02  0.88228798222E+02  0.00000000000E+00 0. -1.
</event>
<event>
 7    1  0.2841804E-009  0.9395489E+02  0.7561462E-02  0.1293547E+00
          4   -1    0    0  501    0  0.00000000000E+00  0.00000000000E+00  0.84189069729E+02  0.84189069729E+02  0.00000000000E+00 0.  1.
         -4   -1    0    0    0  501 -0.00000000000E+00 -0.00000000000E+00 -0.14841316395E+03  0.14841316395E+03  0.00000000000E+00 0. -1.
         25    2    1    2    0    0  0.73175855476E+01 -0.61280925455E+01 -0.74811090192E+01  0.12568063773E+03  0.12509418504E+03 0.  0.
          5    1    3    3  502    0 -0.18503855992E+02  0.42587966730E+02  0.33027963864E+02  0.57135334022E+02  0.41800000000E+01 0.  1.
         -5    1    3    3    0  502  0.25821441540E+02 -0.48716059276E+02 -0.40509072883E+02  0.68545303708E+02  0.41800000000E+01 0.  1.
        -11    1    1    2    0    0  0.38901855892E+02 -0.24736433150E+01 -0.42786819267E+02  0.57880784429E+02  0.00000000000E+00 0.  1.
         11    1    1    2    0    0 -0.46219441439E+02  0.86017358605E+01 -0.13956165930E+02  0.49040811517E+02  0.00000000000E+00 0. -1.
</event>
<event>
 7    1  0.2841804E-009  0.1787797E+03  0.7561462E-02  0.1168989E+00
          1   -1    0    0  501    0  0.00000000000E+00  0.00000000000E+00  0.20918193724E+02  0.20918193724E+02  0.00000000000E+00 0. -1.
         -1   -1    0    0    0  501 -0.00000000000E+00 -0.00000000000E+00 -0.16721838681E+04  0.16721838681E+04  0.00000000000E+00 0.  1.
         25    2    1    2    0    0  0.12479368041E+03 -0.71834336633E+02 -0.10887737816E+04  0.11053541200E+04  0.12508296646E+03 0.  0.
          5    1    3    3  502    0  0.14479674514E+03 -0.38854783452E+02 -0.92264817770E+03  0.93475821677E+03  0.41800000000E+01 0. -1.
         -5    1    3    3    0  502 -0.20003064730E+02 -0.32979553182E+02 -0.16612560387E+03  0.17059590319E+03  0.41800000000E+01 0. -1.
        -11    1    1    2    0    0 -0.33809457634E+02  0.70050343192E+02 -0.30041028004E+03  0.31031671943E+03  0.00000000000E+00 0. -1.
         11    1    1    2    0    0 -0.90984222772E+02  0.17839934410E+01 -0.26208161275E+03  0.27743122241E+03  0.00000000000E+00 0.  1.
</event>
<event>
 7    1  0.2841804E-009  0.1500528E+03  0.7561462E-02  0.1200408E+00
          2   -1    0    0  501    0  0.00000000000E+00  0.00000000000E+00  0.13920470563E+03  0.13920470563E+03  0.00000000000E+00 0. -1.
         -2   -1    0    0    0  501 -0.00000000000E+00 -0.00000000000E+00 -0.19568649106E+03  0.19568649106E+03  0.00000000000E+00 0.  1.
         25    2    1    2    0    0  0.20950839943E+02  0.12516010449E+03 -0.31085160777E+02  0.18087262699E+03  0.12507849744E+03 0.  0.
          5    1    3    3  502    0  0.56446333966E+01  0.14534961197E+03 -0.70328389556E+01  0.14568906895E+03  0.41800000000E+01 0.  1.
         -5    1    3    3    0  502  0.15306206546E+02 -0.20189507483E+02 -0.24052321822E+02  0.35183558039E+02  0.41800000000E+01 0.  1.
        -11    1    1    2    0    0  0.17585313536E+01 -0.57728391546E+02  0.28836221508E+02  0.64553755071E+02  0.00000000000E+00 0. -1.
         11    1    1    2    0    0 -0.22709371296E+02 -0.67431712946E+02 -0.54232846155E+02  0.89464814634E+02  0.00000000000E+00 0.  1.
</event>
<event>
 7    1  0.2841804E-009  0.9458927E+02  0.7561462E-02  0.1292104E+00
         -2   -1    0    0    0  501 -0.00000000000E+00  0.00000000000E+00  0.70786741660E+02  0.70786741660E+02  0.00000000000E+00 0.  1.
          2   -1    0    0  501    0  0.00000000000E+00 -0.00000000000E+00 -0.20837578396E+03  0.20837578396E+03  0.00000000000E+00 0. -1.
         25    2    1    2    0    0  0.20311902416E+02 -0.18896489934E+02 -0.12873851157E+03  0.18163355282E+03  0.12508993739E+03 0.  0.
          5    1    3    3  502    0  0.68308820571E+02 -0.23206948707E+02 -0.45603985084E+02  0.85450882333E+02  0.41800000000E+01 0.  1.
         -5    1    3    3    0  502 -0.47996918155E+02  0.43104587723E+01 -0.83134526486E+02  0.96182670483E+02  0.41800000000E+01 0.  1.
        -11    1    1    2    0    0 -0.14540244529E+02 -0.22476481952E+02  0.30192101875E+02  0.40350637759E+02  0.00000000000E+00 0.  1.
         11    1    1    2    0    0 -0.57716578861E+01  0.41372971886E+02 -0.39042632601E+02  0.57178335039E+02  0.00000000000E+00 0. -1.
</event>
<event>
 7    1  0.2841804E-009  0.8891978E+02  0.7561462E-02  0.1305489E+00
          2   -1    0    0  501    0  0.00000000000E+00  0.00000000000E+00  0.12251062847E+03  0.12251062847E+03  0.00000000000E+00 0. -1.
         -2   -1    0    0    0  501 -0.00000000000E+00 -0.00000000000E+00 -0.98562205273E+02  0.98562205273E+02  0.00000000000E+00 0.  1.
         25    2    1    2    0    0 -0.34857065598E+01  0.10313941185E+02 -0.92199410389E+01  0.12589922092E+03  0.12508828476E+03 0.  0.
          5    1    3    3  502    0 -0.57666713028E+02  0.11261662283E+02 -0.31921926536E+02  0.66998183726E+02  0.41800000000E+01 0.  1.
         -5    1    3    3    0  502  0.54181006468E+02 -0.94772109815E+00  0.22701985497E+02  0.58901037196E+02  0.41800000000E+01 0.  1.
        -11    1    1    2    0    0 -0.30122419006E+02 -0.57837484408E+01 -0.16656160280E+02  0.34903288500E+02  0.00000000000E+00 0.  1.
         11    1    1    2    0    0  0.33608125566E+02 -0.45301927440E+01  0.49824524514E+02  0.60270324318E+02  0.00000000000E+00 0. -1.
</event>
<event>
 7    1  0.2841804E-009  0.8257157E+02  0.7561462E-02  0.1321908E+00
         -2   -1    0    0    0  501 -0.00000000000E+00  0.00000000000E+00  0.15003466537E+03  0.15003466537E+03  0.00000000000E+00 0.  1.
          2   -1    0    0  501    0  0.00000000000E+00 -0.00000000000E+00 -0.80841746828E+02  0.80841746828E+02  0.00000000000E+00 0. -1.
         25    2    1    2    0    0  0.50400651009E+01 -0.99038549168E+01  0.61202402212E+02  0.13969975899E+03  0.12508716971E+03 0.  0.
          5    1    3    3  502    0 -0.36913848403E+02 -0.51464453992E+02  0.16687260343E+02  0.65628951587E+02  0.41800000000E+01 0.  1.
         -5    1    3    3    0  502  0.41953913504E+02  0.41560599076E+02  0.44515141869E+02  0.74070807404E+02  0.41800000000E+01 0.  1.
        -11    1    1    2    0    0 -0.12943098040E+02 -0.12936765644E+02  0.44087949398E+02  0.47735007849E+02  0.00000000000E+00 0.  1.
         11    1    1    2    0    0  0.79030329390E+01  0.22840620561E+02 -0.36097433069E+02  0.43441645358E+02  0.00000000000E+00 0. -1.
</event>
<event>
 7    1  0.2841804E-009  0.2278341E+03  0.7561462E-02  0.1128174E+00
          1   -1    0    0  501    0  0.00000000000E+00  0.00000000000E+00  0.46624983561E+02  0.46624983561E+02  0.00000000000E+00 0. -1.
         -1   -1    0    0    0  501 -0.00000000000E+00 -0.00000000000E+00 -0.11359419645E+04  0.11359419645E+04  0.00000000000E+00 0.  1.
         25    2    1    2    0    0  0.20127280843E+03 -0.14250563789E+02 -0.52380730055E+03  0.57509634590E+03  0.12509155438E+03 0.  0.
          5    1    3    3  502    0 -0.17120710263E+02  0.33845130942E+01 -0.32362520121E+02  0.37005117988E+02  0.41800000000E+01 0. -1.
         -5    1    3    3    0  502  0.21839351870E+03 -0.17635076883E+02 -0.49144478043E+03  0.53809122791E+03  0.41800000000E+01 0. -1.
        -11    1    1    2    0    0 -0.82678343877E+02 -0.35491900367E+02 -0.18303782203E+03  0.20395643612E+03  0.00000000000E+00 0. -1.
         11    1    1    2    0    0 -0.11859446456E+03  0.49742464156E+02 -0.38247185832E+03  0.40351416600E+03  0.00000000000E+00 0.  1.
</event>
<event>
 7    1  0.2841804E-009  0.2620169E+03  0.7561462E-02  0.1105937E+00
          2   -1    0    0  501    0  0.00000000000E+00  0.00000000000E+00  0.45415740994E+03  0.45415740994E+03  0.00000000000E+00 0. -1.
         -2   -1    0    0    0  501 -0.00000000000E+00 -0.00000000000E+00 -0.15552132789E+03  0.15552132789E+03  0.00000000000E+00 0.  1.
         25    2    1    2    0    0 -0.22722606404E+03  0.77081281209E+02  0.12974466264E+03  0.30008908313E+03  0.12508625919E+03 0.  0.
          5    1    3    3  502    0 -0.23980109661E+03  0.68447292621E+02  0.13476707193E+03  0.28349468051E+03  0.41800000000E+01 0. -1.
         -5    1    3    3    0  502  0.12575032568E+02  0.86339885881E+01 -0.50224092938E+01  0.16594402615E+02  0.41800000000E+01 0. -1.
        -11    1    1    2    0    0  0.30165043113E+02 -0.52050657883E+02  0.30160646780E+02  0.67296845589E+02  0.00000000000E+00 0.  1.
         11    1    1    2    0    0  0.19706102093E+03 -0.25030623326E+02  0.13873077262E+03  0.24229280911E+03  0.00000000000E+00 0. -1.
</event>
<event>
 7    1  0.2841804E-009  0.1094823E+03  0.7561462E-02  0.1261532E+00
         -2   -1    0    0    0  501 -0.00000000000E+00  0.00000000000E+00  0.27381765548E+02  0.27381765548E+02  0.00000000000E+00 0.  1.
          2   -1    0    0  501    0  0.00000000000E+00 -0.00000000000E+00 -0.88080552124E+03  0.88080552124E+03  0.00000000000E+00 0. -1.
         25    2    1    2    0    0 -0.49771317166E+02  0.65614662798E+01 -0.71698679008E+03  0.72954623329E+03  0.12508961788E+03 0.  0.
          5    1    3    3  502    0  0.36590331553E+02 -0.13559805337E+02 -0.33953845109E+03  0.34179899481E+03  0.41800000000E+01 0. -1.
         -5    1    3    3    0  502 -0.86361648719E+02  0.20121271617E+02 -0.37744833898E+03  0.38774723847E+03  0.41800000000E+01 0. -1.
        -11    1    1    2    0    0  0.15598557376E+01 -0.34958475817E+02 -0.44389821739E+01  0.35273683450E+02  0.00000000000E+00 0.  1.
         11    1    1    2    0    0  0.48211461429E+02  0.28397009537E+02 -0.13199798344E+03  0.14336737006E+03  0.00000000000E+00 0. -1.
</event>
<event>
 7    1  0.2841804E-009  0.1758272E+03  0.7561462E-02  0.1171904E+00
          2   -1    0    0  501    0  0.00000000000E+00  0.00000000000E+00  0.50130016027E+03  0.50130016027E+03  0.00000000000E+00 0. -1.
         -2   -1    0    0    0  501 -0.00000000000E+00 -0.00000000000E+00 -0.73011682409E+02  0.73011682409E+02  0.00000000000E+00 0.  1.
         25    2    1    2    0    0  0.54358718814E+01 -0.15322844637E+03  0.28096405123E+03  0.34364972329E+03  0.12508328725E+03 0.  0.
          5    1    3    3  502    0 -0.39435695523E+02 -0.11592323391E+02  0.26896737418E+02  0.49299725423E+02  0.41800000000E+01 0.  1.
         -5    1    3    3    0  502  0.44871567405E+02 -0.14163612298E+03  0.25406731381E+03  0.29434999786E+03  0.41800000000E+01 0.  1.
        -11    1    1    2    0    0  0.22469552740E+02  0.86634982176E+02  0.32891219833E+02  0.95353727138E+02  0.00000000000E+00 0.  1.
         11    1    1    2    0    0 -0.27905424622E+02  0.66593464195E+02  0.11443320680E+03  0.13530839226E+03  0.00000000000E+00 0. -1.
</event>
<event>
 7    1  0.2841804E-009  0.1158330E+03  0.7561462E-02  0.1250134E+00
          2   -1    0    0  501    0  0.00000000000E+00  0.00000000000E+00  0.94618016162E+03  0.94618016162E+03  0.00000000000E+00 0. -1.
         -2   -1    0    0    0  501 -0.00000000000E+00 -0.00000000000E+00 -0.21011753029E+02  0.21011753029E+02  0.00000000000E+00 0.  1.
         25    2    1    2    0    0  0.20587852559E+02 -0.70545655467E+02  0.32592616955E+03  0.35675692166E+03  0.12508830471E+03 0.  0.
          5    1    3    3  502    0  0.37014630469E+02 -0.85469947335E+02  0.32014450097E+03  0.33344440116E+03  0.41800000000E+01 0.  1.
         -5    1    3    3    0  502 -0.16426777910E+02  0.14924291868E+02  0.57816685800E+01  0.23312520495E+02  0.41800000000E+01 0.  1.
        -11    1    1    2    0    0 -0.51284050180E+02  0.67824637120E+02  0.46392495406E+03  0.47165304854E+03  0.00000000000E+00 0.  1.
         11    1    1    2    0    0  0.30696197621E+02  0.27210183475E+01  0.13531728499E+03  0.13878194446E+03  0.00000000000E+00 0. -1.
</event>
<event>
 7    1  0.2841804E-009  0.7031603E+02  0.7561462E-02  0.1359022E+00
         -1   -1    0    0    0  501 -0.00000000000E+00  0.00000000000E+00  0.41951872119E+02  0.41951872119E+02  0.00000000000E+00 0.  1.
          1   -1    0    0  501    0  0.00000000000E+00 -0.00000000000E+00 -0.37007288149E+03  0.37007288149E+03  0.00000000000E+00 0. -1.
         25    2    1    2    0    0 -0.65797369211E+01 -0.26909808007E+02 -0.27458384231E+03  0.30300335235E+03  0.12508922565E+03 0.  0.
          5    1    3    3  502    0  0.30597600828E+02 -0.15796480347E+02 -0.25845865154E+03  0.26077593624E+03  0.41800000000E+01 0.  1.
         -5    1    3    3    0  502 -0.37177337749E+02 -0.11113327660E+02 -0.16125190769E+02  0.42227416107E+02  0.41800000000E+01 0.  1.
        -11    1    1    2    0    0  0.34845145662E+01 -0.19800410429E+02  0.15655131335E+02  0.25480997470E+02  0.00000000000E+00 0.  1.
         11    1    1    2    0    0  0.30952223549E+01  0.46710218437E+02 -0.69192298402E+02  0.83540403793E+02  0.00000000000E+00 0. -1.
</event>
<event>
 7    1  0.2841804E-009  0.9841596E+02  0.7561462E-02  0.1283663E+00
         -2   -1    0    0    0  501 -0.00000000000E+00  0.00000000000E+00  0.64184246270E+02  0.64184246270E+02  0.00000000000E+00 0.  1.
          2   -1    0    0  501    0  0.00000000000E+00 -0.00000000000E+00 -0.20635808581E+03  0.20635808581E+03  0.00000000000E+00 0. -1.
         25    2    1    2    0    0  0.26234256116E+02  0.10336457769E+02 -0.10920518522E+03  0.16843087059E+03  0.12509239440E+03 0.  0.
          5    1    3    3  502    0  0.75836393699E+02  0.30196836966E+01 -0.51207697171E+02  0.91651392507E+02  0.41800000000E+01 0.  1.
         -5    1    3    3    0  502 -0.49602137583E+02  0.73167740727E+01 -0.57997488046E+02  0.76779478087E+02  0.41800000000E+01 0.  1.
        -11    1    1    2    0    0 -0.45981178570E+02 -0.17926683730E+02 -0.53391329431E+02  0.72706731673E+02  0.00000000000E+00 0. -1.
         11    1    1    2    0    0  0.19746922454E+02  0.75902259605E+01  0.20422675111E+02  0.29404729810E+02  0.00000000000E+00 0.  1.
</event>
<event>
 7    1  0.2841804E-009  0.1020930E+03  0.7561462E-02  0.1275955E+00
         -3   -1    0    0    0  501 -0.00000000000E+00  0.00000000000E+00  0.91627327219E+02  0.91627327219E+02  0.00000000000E+00 0.  1.
          3   -1    0    0  501    0  0.00000000000E+00 -0.00000000000E+00 -0.22287719562E+03  0.22287719562E+03  0.00000000000E+00 0. -1.
         25    2    1    2    0    0  0.42758465119E+02 -0.89942743750E+01 -0.16041063441E+03  0.20805904359E+03  0.12509120943E+03 0.  0.
          5    1    3    3  502    0 -0.82647925311E+01 -0.43317623080E+02 -0.13376819350E+03  0.14091176408E+03  0.41800000000E+01 0.  1.
         -5    1    3    3    0  502  0.51023257650E+02  0.34323348705E+02 -0.26642440912E+02  0.67147279507E+02  0.41800000000E+01 0.  1.
        -11    1    1    2    0    0 -0.27625524820E+02 -0.39077562716E+02 -0.70844928563E+00  0.47861544373E+02  0.00000000000E+00 0.  1.
         11    1    1    2    0    0 -0.15132940299E+02  0.48071837091E+02  0.29869215294E+02  0.58583934877E+02  0.00000000000E+00 0. -1.
</event>
<event>
 7    1  0.2841804E-009  0.1741238E+03  0.7561462E-02  0.1173614E+00
          1   -1    0    0  501    0  0.00000000000E+00  0.00000000000E+00  0.44744616259E+03  0.44744616259E+03  0.00000000000E+00 0. -1.
         -1   -1    0    0    0  501 -0.00000000000E+00 -0.00000000000E+00 -0.95276793059E+02  0.95276793059E+02  0.00000000000E+00 0.  1.
         25    2    1    2    0    0  0.14060874399E+03  0.55844477144E+02  0.67204927984E+02  0.20749087414E+03  0.12508611431E+03 0.  0.
          5    1    3    3  502    0  0.58265589432E+02  0.77930599150E+02 -0.22917722607E+01  0.97420643685E+02  0.41800000000E+01 0. -1.
         -5    1    3    3    0  502  0.82343154555E+02 -0.22086122007E+02  0.69496700244E+02  0.11007023045E+03  0.41800000000E+01 0. -1.
        -11    1    1    2    0    0 -0.67548676910E+02 -0.62639629088E+02  0.21474525059E+03  0.23367085727E+03  0.00000000000E+00 0. -1.
         11    1    1    2    0    0 -0.73060067078E+02  0.67951519442E+01  0.70219190960E+02  0.10156122425E+03  0.00000000000E+00 0.  1.
</event>
<event>
 7    1  0.2944913E-009  0.2849298E+03  0.7561462E-02  0.1093026E+00
          1   -1    0    0  501    0  0.00000000000E+00  0.00000000000E+00  0.11764518558E+04  0.11764518558E+04  0.00000000000E+00 0. -1.
         -1   -1    0    0    0  501 -0.00000000000E+00 -0.00000000000E+00 -0.70604832416E+02  0.70604832416E+02  0.00000000000E+00 0.  1.
         25    2    1    2    0    0  0.40561208197E+02 -0.26316687952E+03  0.59739952703E+03  0.66590984362E+03  0.12509079440E+03 0.  0.
          5    1    3    3  502    0  0.64373889624E+02 -0.25514929902E+03  0.49759477696E+03  0.56290602849E+03  0.41800000000E+01 0.  1.
         -5    1    3    3    0  502 -0.23812681427E+02 -0.80175805021E+01  0.99804750074E+02  0.10300381513E+03  0.41800000000E+01 0.  1.
        -11    1    1    2    0    0 -0.66328271132E+02  0.13422783924E+03  0.25876637254E+03  0.29895917436E+03  0.00000000000E+00 0. -1.
         11    1    1    2    0    0  0.25767062935E+02  0.12893904029E+03  0.24968112378E+03  0.28218767020E+03  0.00000000000E+00 0.  1.
</event>
<event>
 7    1  0.2841804E-009  0.7246459E+02  0.7561462E-02  0.1351907E+00
         -2   -1    0    0    0  501 -0.00000000000E+00  0.00000000000E+00  0.15409456922E+02  0.15409456922E+02  0.00000000000E+00 0.  1.
          2   -1    0    0  501    0  0.00000000000E+00 -0.00000000000E+00 -0.84964461986E+03  0.84964461986E+03  0.00000000000E+00 0. -1.
         25    2    1    2    0    0 -0.15006320719E+02  0.30307752841E+02 -0.46508503482E+03  0.48279956452E+03  0.12509028875E+03 0.  0.
          5    1    3    3  502    0 -0.25098542008E+02  0.25171044729E+02 -0.46880425631E+03  0.47016850323E+03  0.41800000000E+01 0. -1.
         -5    1    3    3    0  502  0.10092221290E+02  0.51367081120E+01  0.37192214811E+01  0.12631061286E+02  0.41800000000E+01 0. -1.
        -11    1    1    2    0    0 -0.19492708957E+02  0.25110270564E+02 -0.16100089818E+03  0.16410905095E+03  0.00000000000E+00 0. -1.
         11    1    1    2    0    0  0.34499029675E+02 -0.55418023405E+02 -0.20814922993E+03  0.21814546131E+03  0.00000000000E+00 0.  1.
</event>
<event>
 7    1  0.2841804E-009  0.1085424E+03  0.7561462E-02  0.1263293E+00
          2   -1    0    0  501    0  0.00000000000E+00  0.00000000000E+00  0.32960953418E+03  0.32960953418E+03  0.00000000000E+00 0.  1.
         -2   -1    0    0    0  501 -0.00000000000E+00 -0.00000000000E+00 -0.39829427030E+02  0.39829427030E+02  0.00000000000E+00 0. -1.
         25    2    1    2    0    0  0.36609956770E+02 -0.22306278125E+01  0.17951271537E+03  0.22185098808E+03  0.12509109200E+03 0.  0.
          5    1    3    3  502    0  0.76239178819E+02 -0.25677669879E+02  0.13760045325E+03  0.15944626760E+03  0.41800000000E+01 0.  1.
         -5    1    3    3    0  502 -0.39629222049E+02  0.23447042067E+02  0.41912262117E+02  0.62404720475E+02  0.41800000000E+01 0.  1.
        -11    1    1    2    0    0 -0.62081023677E+02  0.11597302659E+02  0.10059582596E+03  0.11877740159E+03  0.00000000000E+00 0.  1.
         11    1    1    2    0    0  0.25471066906E+02 -0.93666748462E+01  0.96715658333E+01  0.28810571544E+02  0.00000000000E+00 0. -1.
</event>
<event>
 7    1  0.2841804E-009  0.1829353E+03  0.7561462E-02  0.1164992E+00
          2   -1    0    0  501    0  0.00000000000E+00  0.00000000000E+00  0.57845576554E+03  0.57845576554E+03  0.00000000000E+00 0. -1.
         -2   -1    0    0    0  501 -0.00000000000E+00 -0.00000000000E+00 -0.62887430597E+02  0.62887430597E+02  0.00000000000E+00 0.  1.
         25    2    1    2    0    0 -0.68751575196E+02  0.13444761767E+03  0.20437794945E+03  0.28323628187E+03  0.12509797824E+03 0.  0.
          5    1    3    3  502    0  0.24140354563E+02  0.86482979337E+02  0.11245270802E+03  0.14396230887E+03  0.41800000000E+01 0. -1.
         -5    1    3    3    0  502 -0.92891929760E+02  0.47964638338E+02  0.91925241423E+02  0.13927397300E+03  0.41800000000E+01 0. -1.
        -11    1    1    2    0    0 -0.15270870167E+02 -0.49796454802E+02  0.56338288831E+02  0.76726065811E+02  0.00000000000E+00 0.  1.
         11    1    1    2    0    0  0.84022445363E+02 -0.84651162873E+02  0.25485209666E+03  0.28138084845E+03  0.00000000000E+00 0. -1.
</event>
<event>
 7    1  0.2841804E-009  0.1103806E+03  0.7561462E-02  0.1259867E+00
         -3   -1    0    0    0  501 -0.00000000000E+00  0.00000000000E+00  0.50573341975E+03  0.50573341975E+03  0.00000000000E+00 0.  1.
          3   -1    0    0  501    0  0.00000000000E+00 -0.00000000000E+00 -0.29041306535E+02  0.29041306535E+02  0.00000000000E+00 0. -1.
         25    2    1    2    0    0 -0.14098629026E+02  0.35472119257E+02  0.34285819656E+03  0.36695576975E+03  0.12509097258E+03 0.  0.
          5    1    3    3  502    0 -0.17341784441E+02 -0.41326867064E+02  0.19647205904E+03  0.20156237202E+03  0.41800000000E+01 0. -1.
         -5    1    3    3    0  502  0.32431554151E+01  0.76798986320E+02  0.14638613752E+03  0.16539339773E+03  0.41800000000E+01 0. -1.
        -11    1    1    2    0    0  0.33485433348E+02  0.20684459742E+02  0.35888202653E+02  0.53264286449E+02  0.00000000000E+00 0. -1.
         11    1    1    2    0    0 -0.19386804322E+02 -0.56156578998E+02  0.97945713997E+02  0.11455467008E+03  0.00000000000E+00 0.  1.
</event>
<event>
 7    1  0.2841804E-009  0.1454890E+03  0.7561462E-02  0.1206128E+00
          1   -1    0    0  501    0  0.00000000000E+00  0.00000000000E+00  0.85693702939E+03  0.85693702939E+03  0.00000000000E+00 0.  1.
         -1   -1    0    0    0  501 -0.00000000000E+00 -0.00000000000E+00 -0.27215019138E+02  0.27215019138E+02  0.00000000000E+00 0. -1.
         25    2    1    2    0    0 -0.61971296552E+02 -0.86110964363E+02  0.40657631083E+03  0.43841865394E+03  0.12510427577E+03 0.  0.
          5    1    3    3  502    0 -0.63639016372E+02 -0.10977831329E+03  0.38725822426E+03  0.40753847319E+03  0.41800000000E+01 0. -1.
         -5    1    3    3    0  502  0.16677198201E+01  0.23667348923E+02  0.19318086563E+02  0.30880180746E+02  0.41800000000E+01 0. -1.
        -11    1    1    2    0    0  0.10495218230E+02 -0.19665244727E+02  0.75680873052E+02  0.78895285042E+02  0.00000000000E+00 0.  1.
         11    1    1    2    0    0  0.51476078322E+02  0.10577620909E+03  0.34746482638E+03  0.36683810955E+03  0.00000000000E+00 0. -1.
</event>
<event>
 7    1  0.2841804E-009  0.2726742E+03  0.7561462E-02  0.1099759E+00
         -1   -1    0    0    0  501 -0.00000000000E+00  0.00000000000E+00  0.43392556918E+02  0.43392556918E+02  0.00000000000E+00 0.  1.
          1   -1    0    0  501    0  0.00000000000E+00 -0.00000000000E+00 -0.19467763309E+04  0.19467763309E+04  0.00000000000E+00 0. -1.
         25    2    1    2    0    0 -0.18490797449E+03  0.18663185701E+03 -0.77119872315E+03  0.82426798115E+03  0.12509126703E+03 0.  0.
          5    1    3    3  502    0 -0.16550902087E+03  0.19329534901E+03 -0.59934135894E+03  0.65114043406E+03  0.41800000000E+01 0.  1.
         -5    1    3    3    0  502 -0.19398953614E+02 -0.66634920072E+01 -0.17185736421E+03  0.17312754709E+03  0.41800000000E+01 0.  1.
        -11    1    1    2    0    0  0.21618397053E+02  0.40423083076E+00 -0.36386600188E+02  0.42326152281E+02  0.00000000000E+00 0.  1.
         11    1    1    2    0    0  0.16328957743E+03 -0.18703608784E+03 -0.10957984507E+04  0.11235747544E+04  0.00000000000E+00 0. -1.
</event>
<event>
 7    1  0.2841804E-009  0.1106080E+03  0.7561462E-02  0.1259448E+00
         -2   -1    0    0    0  501 -0.00000000000E+00  0.00000000000E+00  0.20004220171E+03  0.20004220171E+03  0.00000000000E+00 0.  1.
          2   -1    0    0  501    0  0.00000000000E+00 -0.00000000000E+00 -0.71981752686E+02  0.71981752686E+02  0.00000000000E+00 0. -1.
         25    2    1    2    0    0 -0.44332444859E+02  0.14133761886E+02  0.57862036575E+02  0.14546986962E+03  0.12509332036E+03 0.  0.
          5    1    3    3  502    0 -0.32736971215E+02 -0.50186979891E+02  0.52472070066E+02  0.79757336791E+02  0.41800000000E+01 0.  1.
         -5    1    3    3    0  502 -0.11595473643E+02  0.64320741777E+02  0.53899665091E+01  0.65712532829E+02  0.41800000000E+01 0.  1.
        -11    1    1    2    0    0  0.47341402763E+02  0.26943439908E+02  0.65361200705E+02  0.85083746551E+02  0.00000000000E+00 0.  1.
         11    1    1    2    0    0 -0.30089579038E+01 -0.41077201794E+02  0.48372117415E+01  0.41470338223E+02  0.00000000000E+00 0. -1.
</event>
<event>
 7    1  0.2841804E-009  0.1241637E+03  0.7561462E-02  0.1236382E+00
          1   -1    0    0  501    0  0.00000000000E+00  0.00000000000E+00  0.56164714966E+03  0.56164714966E+03  0.00000000000E+00 0. -1.
         -1   -1    0    0    0  501 -0.00000000000E+00 -0.00000000000E+00 -0.61814300178E+02  0.61814300178E+02  0.00000000000E+00 0.  1.
         25    2    1    2    0    0  0.71745403881E+02  0.34171288193E+02  0.48768399986E+02  0.15601911545E+03  0.12509407513E+03 0.  0.
          5    1    3    3  502    0 -0.17478621493E+02  0.31563119928E+02  0.55585016485E+02  0.66399542217E+02  0.41800000000E+01 0. -1.
         -5    1    3    3    0  502  0.89224025375E+02  0.26081682644E+01 -0.68166164988E+01  0.89619573232E+02  0.41800000000E+01 0. -1.
        -11    1    1    2    0    0 -0.29109120372E+02  0.32423041235E+02  0.16208542023E+03  0.16784003677E+03  0.00000000000E+00 0.  1.
         11    1    1    2    0    0 -0.42636283510E+02 -0.66594329428E+02  0.28897902927E+03  0.29960229762E+03  0.00000000000E+00 0. -1.
</event>
<event>
 7    1  0.2841804E-009  0.1548178E+03  0.7561462E-02  0.1194675E+00
          3   -1    0    0  501    0  0.00000000000E+00  0.00000000000E+00  0.14266961507E+03  0.14266961507E+03  0.00000000000E+00 0. -1.
         -3   -1    0    0    0  501 -0.00000000000E+00 -0.00000000000E+00 -0.18451689870E+03  0.18451689870E+03  0.00000000000E+00 0.  1.
         25    2    1    2    0    0 -0.10294346462E+03 -0.56007670831E+02 -0.38774478623E+02  0.17574164974E+03  0.12508977241E+03 0.  0.
          5    1    3    3  502    0 -0.10764813388E+03 -0.86867421743E+02 -0.22221852928E+02  0.14016188082E+03  0.41800000000E+01 0. -1.
         -5    1    3    3    0  502  0.47046692582E+01  0.30859750911E+02 -0.16552625695E+02  0.35579768922E+02  0.41800000000E+01 0. -1.
        -11    1    1    2    0    0  0.10458121508E+03  0.69882314367E+02 -0.22234527142E+02  0.12773074260E+03  0.00000000000E+00 0.  1.
         11    1    1    2    0    0 -0.16377504584E+01 -0.13874643536E+02  0.19161722138E+02  0.23714121428E+02  0.00000000000E+00 0. -1.
</event>
<event>
 7    1  0.2841804E-009  0.1234603E+03  0.7561462E-02  0.1237495E+00
         -1   -1    0    0    0  501 -0.00000000000E+00  0.00000000000E+00  0.35321880577E+03  0.35321880577E+03  0.00000000000E+00 0.  1.
          1   -1    0    0  501    0  0.00000000000E+00 -0.00000000000E+00 -0.46240306432E+02  0.46240306432E+02  0.00000000000E+00 0. -1.
         25    2    1    2    0    0 -0.37495591609E+02 -0.54188568549E+02  0.20401361331E+03  0.24821762525E+03  0.12509242470E+03 0.  0.
          5    1    3    3  502    0  0.40501520899E+02  0.41323434542E+01  0.85302405286E+02  0.94611955932E+02  0.41800000000E+01 0. -1.
         -5    1    3    3    0  502 -0.77997112507E+02 -0.58320912003E+02  0.11871120802E+03  0.15360566931E+03  0.41800000000E+01 0. -1.
        -11    1    1    2    0    0 -0.10309607672E+02  0.59526314347E+02  0.72206506975E+02  0.94145896138E+02  0.00000000000E+00 0.  1.
         11    1    1    2    0    0  0.47805199281E+02 -0.53377457985E+01  0.30758379057E+02  0.57095590817E+02  0.00000000000E+00 0. -1.
</event>
<event>
 7    1  0.2841804E-009  0.1097357E+03  0.7561462E-02  0.1261060E+00
          2   -1    0    0  501    0  0.00000000000E+00  0.00000000000E+00  0.21408631961E+03  0.21408631961E+03  0.00000000000E+00 0. -1.
         -2   -1    0    0    0  501 -0.00000000000E+00 -0.00000000000E+00 -0.99689600408E+02  0.99689600408E+02  0.00000000000E+00 0.  1.
         25    2    1    2    0    0 -0.71213148972E+02 -0.52449287097E+02  0.22692286378E+02  0.15486902720E+03  0.12508891007E+03 0.  0.
          5    1    3    3  502    0 -0.41306673027E+02 -0.67448645824E+02 -0.36141251175E+02  0.87058735900E+02  0.41800000000E+01 0.  1.
         -5    1    3    3    0  502 -0.29906475945E+02  0.14999358728E+02  0.58833537553E+02  0.67810291304E+02  0.41800000000E+01 0.  1.
        -11    1    1    2    0    0  0.46087058736E+02 -0.24746485874E+01  0.86802713594E+02  0.98309978923E+02  0.00000000000E+00 0. -1.
         11    1    1    2    0    0  0.25126090236E+02  0.54923935684E+02  0.49017192273E+01  0.60596913889E+02  0.00000000000E+00 0.  1.
</event>
<event>
 7    1  0.2841804E-009  0.9180500E+02  0.7561462E-02  0.1298539E+00
          2   -1    0    0  501    0  0.00000000000E+00  0.00000000000E+00  0.79941180264E+02  0.79941180264E+02  0.00000000000E+00 0.  1.
         -2   -1    0    0    0  501 -0.00000000000E+00 -0.00000000000E+00 -0.17040656319E+03  0.17040656319E+03  0.00000000000E+00 0. -1.
         25    2    1    2    0    0  0.50122876044E+01  0.26342372280E+02 -0.52855968526E+02  0.13841850189E+03  0.12508750798E+03 0.  0.
          5    1    3    3  502    0  0.21363201822E+02 -0.39113134025E+02 -0.54844851848E+02  0.70793035106E+02  0.41800000000E+01 0.  1.
         -5    1    3    3    0  502 -0.16350914217E+02  0.65455506305E+02  0.19888833216E+01  0.67625466787E+02  0.41800000000E+01 0.  1.
        -11    1    1    2    0    0 -0.10095186462E+02  0.21177289227E+02  0.24262133279E+02  0.33749688590E+02  0.00000000000E+00 0.  1.
         11    1    1    2    0    0  0.50828988572E+01 -0.47519661507E+02 -0.61871547681E+02  0.78179552972E+02  0.00000000000E+00 0. -1.
</event>
<event>
 7    1  0.2841804E-009  0.1875733E+03  0.7561462E-02  0.1160668E+00
         -2   -1    0    0    0  501 -0.00000000000E+00  0.00000000000E+00  0.36012684640E+02  0.36012684640E+02  0.00000000000E+00 0.  1.
          2   -1    0    0  501    0  0.00000000000E+00 -0.00000000000E+00 -0.11724433945E+04  0.11724433945E+04  0.00000000000E+00 0. -1.
         25    2    1    2    0    0 -0.14547227748E+03 -0.66091210651E+02 -0.79874369090E+03  0.82411689189E+03  0.12508771363E+03 0.  0.
          5    1    3    3  502    0 -0.40188721833E+02  0.36841570581E+02 -0.25321123180E+03  0.25904793956E+03  0.41800000000E+01 0. -1.
         -5    1    3    3    0  502 -0.10528355565E+03 -0.10293278123E+03 -0.54553245910E+03  0.56506895232E+03  0.41800000000E+01 0. -1.
        -11    1    1    2    0    0 -0.63872655622E+01  0.87691422709E+01 -0.14141729942E+01  0.10940516569E+02  0.00000000000E+00 0.  1.
         11    1    1    2    0    0  0.15185954305E+03  0.57322068381E+02 -0.33627284601E+03  0.37339867073E+03  0.00000000000E+00 0. -1.
</event>
<event>
 7    1  0.2841804E-009  0.1029315E+03  0.7561462E-02  0.1274250E+00
          2   -1    0    0  501    0  0.00000000000E+00  0.00000000000E+00  0.12590337307E+04  0.12590337307E+04  0.00000000000E+00 0. -1.
         -2   -1    0    0    0  501 -0.00000000000E+00 -0.00000000000E+00 -0.99087155301E+01  0.99087155301E+01  0.00000000000E+00 0.  1.
         25    2    1    2    0    0 -0.13523655853E+02  0.25118522077E+02  0.79786531816E+03  0.80811526160E+03  0.12508949072E+03 0.  0.
          5    1    3    3  502    0  0.16653085385E+01 -0.43490440051E+02  0.50580611655E+03  0.50769231979E+03  0.41800000000E+01 0. -1.
         -5    1    3    3    0  502 -0.15188964391E+02  0.68608962128E+02  0.29205920161E+03  0.30042294181E+03  0.41800000000E+01 0. -1.
        -11    1    1    2    0    0 -0.18023640643E+02 -0.48979995863E+02  0.29856817634E+03  0.30309544296E+03  0.00000000000E+00 0. -1.
         11    1    1    2    0    0  0.31547296496E+02  0.23861473786E+02  0.15269152062E+03  0.15773174163E+03  0.00000000000E+00 0.  1.
</event>
<event>
 7    1  0.2841804E-009  0.1405465E+03  0.7561462E-02  0.1212595E+00
          2   -1    0    0  501    0  0.00000000000E+00  0.00000000000E+00  0.14355673207E+04  0.14355673207E+04  0.00000000000E+00 0.  1.
         -2   -1    0    0    0  501 -0.00000000000E+00 -0.00000000000E+00 -0.17694401738E+02  0.17694401738E+02  0.00000000000E+00 0. -1.
         25    2    1    2    0    0  0.74253731853E+02  0.94139847283E+02  0.78844476910E+03  0.80725861339E+03  0.12508152313E+03 0.  0.
          5    1    3    3  502    0  0.63656362084E+02  0.23892497848E+02  0.14861757572E+03  0.16348590184E+03  0.41800000000E+01 0. -1.
         -5    1    3    3    0  502  0.10597369769E+02  0.70247349434E+02  0.63982719338E+03  0.64377271155E+03  0.41800000000E+01 0. -1.
        -11    1    1    2    0    0 -0.27013490199E+02 -0.90478603769E+02  0.48151979605E+03  0.49069075840E+03  0.00000000000E+00 0.  1.
         11    1    1    2    0    0 -0.47240241654E+02 -0.36612435136E+01  0.14790835378E+03  0.15531235062E+03  0.00000000000E+00 0. -1.
</event>
<event>
 7    1  0.2841804E-009  0.1355938E+03  0.7561462E-02  0.1219384E+00
          2   -1    0    0  501    0  0.00000000000E+00  0.00000000000E+00  0.35554800064E+03  0.35554800064E+03  0.00000000000E+00 0. -1.
         -2   -1    0    0    0  501 -0.00000000000E+00 -0.00000000000E+00 -0.64814340142E+02  0.64814340142E+02  0.00000000000E+00 0.  1.
         25    2    1    2    0    0 -0.42271751013E+02 -0.92655381076E+02  0.19712595148E+03  0.25471169989E+03  0.12508992262E+03 0.  0.
          5    1    3    3  502    0  0.35518629114E+02 -0.69147244795E+02  0.11684118881E+03  0.14040032151E+03  0.41800000000E+01 0. -1.
         -5    1    3    3    0  502 -0.77790380127E+02 -0.23508136281E+02  0.80284762669E+02  0.11431137839E+03  0.41800000000E+01 0. -1.
        -11    1    1    2    0    0 -0.31000012962E+01  0.48688211499E+02  0.89994091942E+02  0.10236741929E+03  0.00000000000E+00 0.  1.
         11    1    1    2    0    0  0.45371752309E+02  0.43967169577E+02  0.36136170795E+01  0.63283221604E+02  0.00000000000E+00 0. -1.
</event>
<event>
 7    1  0.2841804E-009  0.1117408E+03  0.7561462E-02  0.1257380E+00
         -1   -1    0    0    0  501 -0.00000000000E+00  0.00000000000E+00  0.36864592003E+03  0.36864592003E+03  0.00000000000E+00 0.  1.
          1   -1    0    0  501    0  0.00000000000E+00 -0.00000000000E+00 -0.48434931527E+02  0.48434931527E+02  0.00000000000E+00 0. -1.
         25    2    1    2    0    0 -0.97470269216E+01  0.67434865208E+02  0.22796139533E+03  0.26879445543E+03  0.12506636610E+03 0.  0.
          5    1    3    3  502    0 -0.27067617219E+02 -0.13533729807E+02  0.15615462628E+03  0.15911491901E+03  0.41800000000E+01 0.  1.
         -5    1    3    3    0  502  0.17320590297E+02  0.80968595015E+02  0.71806769055E+02  0.10967953642E+03  0.41800000000E+01 0.  1.
        -11    1    1    2    0    0 -0.38587089826E+02 -0.31016416151E+02  0.18420674913E+02  0.52823317165E+02  0.00000000000E+00 0. -1.
         11    1    1    2    0    0  0.48334116747E+02 -0.36418449057E+02  0.73828918252E+02  0.95463078956E+02  0.00000000000E+00 0.  1.
</event>
<event>
 7    1  0.2841804E-009  0.2307511E+03  0.7561462E-02  0.1126112E+00
          2   -1    0    0  501    0  0.00000000000E+00  0.00000000000E+00  0.17472015400E+03  0.17472015400E+03  0.00000000000E+00 0. -1.
         -2   -1    0    0    0  501 -0.00000000000E+00 -0.00000000000E+00 -0.40605632635E+03  0.40605632635E+03  0.00000000000E+00 0.  1.
         25    2    1    2    0    0 -0.12167220444E+03 -0.16844377303E+03 -0.25543947093E+03  0.35224185935E+03  0.12509026408E+03 0.  0.
          5    1    3    3  502    0 -0.12464729121E+03 -0.81993592391E+02 -0.19946174328E+03  0.24912317401E+03  0.41800000000E+01 0. -1.
         -5    1    3    3    0  502  0.29750867686E+01 -0.86450180635E+02 -0.55977727652E+02  0.10311868534E+03  0.41800000000E+01 0. -1.
        -11    1    1    2    0    0  0.11652856185E+03  0.90534154577E+02  0.28661767615E+02  0.15032243943E+03  0.00000000000E+00 0. -1.
         11    1    1    2    0    0  0.51436425823E+01  0.77909618450E+02 -0.45584690338E+01  0.78212181570E+02  0.00000000000E+00 0.  1.
</event>
<event>
 7    1  0.2841804E-009  0.8623245E+02  0.7561462E-02  0.1312241E+00
         -2   -1    0    0    0  501 -0.00000000000E+00  0.00000000000E+00  0.87239665077E+02  0.87239665077E+02  0.00000000000E+00 0.  1.
          2   -1    0    0  501    0  0.00000000000E+00 -0.00000000000E+00 -0.25909767898E+03  0.25909767898E+03  0.00000000000E+00 0. -1.
         25    2    1    2    0    0  0.11528592110E+02  0.29027434032E+02  0.19515318596E+02  0.13040434360E+03  0.12509574256E+03 0.  0.
          5    1    3    3  502    0  0.52236734449E+02 -0.41735984930E+01 -0.27901371649E+02  0.59515160171E+02  0.41800000000E+01 0. -1.
         -5    1    3    3    0  502 -0.40708142339E+02  0.33201032525E+02  0.47416690246E+02  0.70889183429E+02  0.41800000000E+01 0. -1.
        -11    1    1    2    0    0 -0.28474586060E+02 -0.38421701125E+02 -0.19063636419E+03  0.19654325865E+03  0.00000000000E+00 0. -1.
         11    1    1    2    0    0  0.16945993950E+02  0.93942670937E+01 -0.73696831246E+00  0.19389741811E+02  0.00000000000E+00 0.  1.
</event>
<event>
 7    1  0.2841804E-009  0.3076305E+03  0.7561462E-02  0.1081487E+00
          2   -1    0    0  501    0  0.00000000000E+00  0.00000000000E+00  0.11868841173E+04  0.11868841173E+04  0.00000000000E+00 0. -1.
         -2   -1    0    0    0  501 -0.00000000000E+00 -0.00000000000E+00 -0.83198989985E+02  0.83198989985E+02  0.00000000000E+00 0.  1.
         25    2    1    2    0    0 -0.20283792792E+03  0.21258310048E+03  0.52645275471E+03  0.61573873448E+03  0.12508751569E+03 0.  0.
          5    1    3    3  502    0 -0.86365601635E+02  0.17815223643E+02  0.10614194325E+03  0.13805790037E+03  0.41800000000E+01 0. -1.
         -5    1    3    3    0  502 -0.11647232628E+03  0.19476787684E+03  0.42031081146E+03  0.47768083411E+03  0.41800000000E+01 0. -1.
        -11    1    1    2    0    0  0.32568235001E+01 -0.27879158836E+02  0.20530274885E+02  0.34775660793E+02  0.00000000000E+00 0.  1.
         11    1    1    2    0    0  0.19958110442E+03 -0.18470394165E+03  0.55670209774E+03  0.61956871203E+03  0.00000000000E+00 0. -1.
</event>
<event>
 7    1  0.2841804E-009  0.2209520E+03  0.7561462E-02  0.1133175E+00
         -4   -1    0    0    0  501 -0.00000000000E+00  0.00000000000E+00  0.72045477260E+03  0.72045477260E+03  0.00000000000E+00 0.  1.
          4   -1    0    0  501    0  0.00000000000E+00 -0.00000000000E+00 -0.76614405826E+02  0.76614405826E+02  0.00000000000E+00 0. -1.
         25    2    1    2    0    0  0.43255015301E+02 -0.19978195954E+03  0.39616504593E+03  0.46301039243E+03  0.12509217474E+03 0.  0.
          5    1    3    3  502    0 -0.28367034570E+02 -0.26485029099E+02  0.22857913505E+02  0.45233859292E+02  0.41800000000E+01 0.  1.
         -5    1    3    3    0  502  0.71622049870E+02 -0.17329693044E+03  0.37330713242E+03  0.41777653314E+03  0.41800000000E+01 0.  1.
        -11    1    1    2    0    0 -0.51188820769E+02  0.78168756640E+02  0.15487086170E+03  0.18087463529E+03  0.00000000000E+00 0.  1.
         11    1    1    2    0    0  0.79338054685E+01  0.12161320290E+03  0.92804459149E+02  0.15318415071E+03  0.00000000000E+00 0. -1.
</event>
<event>
 7    1  0.2841804E-009  0.9046262E+02  0.7561462E-02  0.1301735E+00
          2   -1    0    0  501    0  0.00000000000E+00  0.00000000000E+00  0.12133043487E+03  0.12133043487E+03  0.00000000000E+00 0. -1.
         -2   -1    0    0    0  501 -0.00000000000E+00 -0.00000000000E+00 -0.10978052488E+03  0.10978052488E+03  0.00000000000E+00 0.  1.
         25    2    1    2    0    0 -0.15117547971E+02  0.35007441926E+02 -0.50650172059E+01  0.13087069813E+03  0.12508966377E+03 0.  0.
          5    1    3    3  502    0  0.38738704896E+02 -0.24101857635E+02 -0.18989237017E+02  0.49594861840E+02  0.41800000000E+01 0. -1.
         -5    1    3    3    0  502 -0.53856252867E+02  0.59109299562E+02  0.13924219811E+02  0.81275836291E+02  0.41800000000E+01 0. -1.
        -11    1    1    2    0    0 -0.13665570093E+02 -0.10533706210E+02 -0.33379651456E+02  0.37575362989E+02  0.00000000000E+00 0.  1.
         11    1    1    2    0    0  0.28783118064E+02 -0.24473735716E+02  0.49994578650E+02  0.62664898626E+02  0.00000000000E+00 0. -1.
</event>
<event>
 7    1  0.2841804E-009  0.8618545E+02  0.7561462E-02  0.1312361E+00
         -2   -1    0    0    0  501 -0.00000000000E+00  0.00000000000E+00  0.11930121728E+03  0.11930121728E+03  0.00000000000E+00 0. -1.
          2   -1    0    0  501    0  0.00000000000E+00 -0.00000000000E+00 -0.10554196411E+03  0.10554196411E+03  0.00000000000E+00 0.  1.
         25    2    1    2    0    0 -0.12883763342E+02  0.81813925438E+01  0.28140733018E+02  0.12912361903E+03  0.12509229231E+03 0.  0.
          5    1    3    3  502    0 -0.20534891073E+02 -0.33170512992E+02 -0.35378217034E+02  0.52830439370E+02  0.41800000000E+01 0.  1.
         -5    1    3    3    0  502  0.76511277309E+01  0.41351905536E+02  0.63518950052E+02  0.76293179661E+02  0.41800000000E+01 0.  1.
        -11    1    1    2    0    0 -0.39813757387E+01  0.39808515305E+02 -0.19664712374E+02  0.44578808377E+02  0.00000000000E+00 0.  1.
         11    1    1    2    0    0  0.16865139081E+02 -0.47989907848E+02  0.52832325313E+01  0.51140753979E+02  0.00000000000E+00 0. -1.
</event>
<event>
 7    1  0.2841804E-009  0.1163985E+03  0.7561462E-02  0.1249160E+00
         -2   -1    0    0    0  501 -0.00000000000E+00  0.00000000000E+00  0.61160995078E+02  0.61160995078E+02  0.00000000000E+00 0.  1.
          2   -1    0    0  501    0  0.00000000000E+00 -0.00000000000E+00 -0.39559663626E+03  0.39559663626E+03  0.00000000000E+00 0. -1.
         25    2    1    2    0    0 -0.50044582646E+02  0.79312510480E+02 -0.25669562778E+03  0.30055747907E+03  0.12508884177E+03 0.  0.
          5    1    3    3  502    0 -0.24319694190E+02  0.14618828350E+02  0.55344348923E+01  0.29210615150E+02  0.41800000000E+01 0. -1.
         -5    1    3    3    0  502 -0.25724888456E+02  0.64693682130E+02 -0.26223006267E+03  0.27134686392E+03  0.41800000000E+01 0. -1.
        -11    1    1    2    0    0  0.50222001762E+02  0.46223434832E+01 -0.19664835384E+02  0.54132441945E+02  0.00000000000E+00 0.  1.
         11    1    1    2    0    0 -0.17741911638E+00 -0.83934853963E+02 -0.58075178017E+02  0.10206771032E+03  0.00000000000E+00 0. -1.
</event>
<event>
 7    1  0.2841804E-009  0.7823494E+02  0.7561462E-02  0.1334136E+00
          2   -1    0    0  501    0  0.00000000000E+00  0.00000000000E+00  0.21355627922E+03  0.21355627922E+03  0.00000000000E+00 0. -1.
         -2   -1    0    0    0  501 -0.00000000000E+00 -0.00000000000E+00 -0.58057698578E+02  0.58057698578E+02  0.00000000000E+00 0.  1.
         25    2    1    2    0    0  0.16443459802E+02 -0.15940305234E+00  0.66260370672E+02  0.14250570453E+03  0.12508807426E+03 0.  0.
          5    1    3    3  502    0 -0.48206604217E+02  0.17940877373E+02  0.55677075198E+01  0.51905910435E+02  0.41800000000E+01 0.  1.
         -5    1    3    3    0  502  0.64650064019E+02 -0.18100280425E+02  0.60692663152E+02  0.90599794093E+02  0.41800000000E+01 0.  1.
        -11    1    1    2    0    0  0.93372808233E+01  0.60841854222E+01 -0.16611293211E+02  0.20003429395E+02  0.00000000000E+00 0.  1.
         11    1    1    2    0    0 -0.25780740625E+02 -0.59247823698E+01  0.10584950318E+03  0.10910484387E+03  0.00000000000E+00 0. -1.
</event>
<event>
 7    1  0.2841804E-009  0.1962884E+03  0.7561462E-02  0.1152909E+00
          2   -1    0    0  501    0  0.00000000000E+00  0.00000000000E+00  0.77207952570E+03  0.77207952570E+03  0.00000000000E+00 0. -1.
         -2   -1    0    0    0  501 -0.00000000000E+00 -0.00000000000E+00 -0.60914499194E+02  0.60914499194E+02  0.00000000000E+00 0.  1.
         25    2    1    2    0    0  0.72178094279E+02 -0.17102725890E+03  0.41810754589E+03  0.47425937137E+03  0.12509208935E+03 0.  0.
          5    1    3    3  502    0  0.26767745248E+01 -0.41636032189E+02  0.13901740826E+02  0.44175276981E+02  0.41800000000E+01 0. -1.
         -5    1    3    3    0  502  0.69501319754E+02 -0.12939122671E+03  0.40420580507E+03  0.43008409439E+03  0.41800000000E+01 0. -1.
        -11    1    1    2    0    0  0.12607675902E+02 -0.23532898061E+00  0.37936666780E+02  0.39977488137E+02  0.00000000000E+00 0. -1.
         11    1    1    2    0    0 -0.84785770181E+02  0.17126258788E+03  0.25512081383E+03  0.31875716538E+03  0.00000000000E+00 0.  1.
</event>
<event>
 7    1  0.2841804E-009  0.1075910E+03  0.7561462E-02  0.1265097E+00
          1   -1    0    0  501    0  0.00000000000E+00  0.00000000000E+00  0.65627868236E+03  0.65627868236E+03  0.00000000000E+00 0. -1.
         -1   -1    0    0    0  501 -0.00000000000E+00 -0.00000000000E+00 -0.24143114769E+02  0.24143114769E+02  0.00000000000E+00 0.  1.
         25    2    1    2    0    0  0.55741466000E+01 -0.47535810578E+02  0.46720070271E+03  0.48602129669E+03  0.12509788097E+03 0.  0.
          5    1    3    3  502    0  0.64866221474E+02 -0.18875985103E+02  0.22121935692E+03  0.23134261557E+03  0.41800000000E+01 0.  1.
         -5    1    3    3    0  502 -0.59292074874E+02 -0.28659825475E+02  0.24598134579E+03  0.25467868111E+03  0.41800000000E+01 0.  1.
        -11    1    1    2    0    0 -0.27898659423E+02  0.51748255425E+02  0.16092956012E+03  0.17133166799E+03  0.00000000000E+00 0. -1.
         11    1    1    2    0    0  0.22324512823E+02 -0.42124448470E+01  0.40053047610E+01  0.23068832450E+02  0.00000000000E+00 0.  1.
</event>
<event>
 7    1  0.2841804E-009  0.1077662E+03  0.7561462E-02  0.1264763E+00
         -1   -1    0    0    0  501 -0.00000000000E+00  0.00000000000E+00  0.24389008939E+02  0.24389008939E+02  0.00000000000E+00 0.  1.
          1   -1    0    0  501    0  0.00000000000E+00 -0.00000000000E+00 -0.57005359905E+03  0.57005359905E+03  0.00000000000E+00 0. -1.
         25    2    1    2    0    0  0.25399278475E+02 -0.28756138983E+02 -0.41321536627E+03  0.43343685103E+03  0.12509406872E+03 0.  0.
          5    1    3    3  502    0  0.67133328300E+02  0.13521150175E+02 -0.17705153291E+03  0.18988002259E+03  0.41800000000E+01 0.  1.
         -5    1    3    3    0  502 -0.41734049825E+02 -0.42277289158E+02 -0.23616383336E+03  0.24355682844E+03  0.41800000000E+01 0.  1.
        -11    1    1    2    0    0 -0.28185023916E+02 -0.22484124339E+02 -0.31997081960E+02  0.48205234928E+02  0.00000000000E+00 0.  1.
         11    1    1    2    0    0  0.27857454405E+01  0.51240263323E+02 -0.10045214188E+03  0.11280052204E+03  0.00000000000E+00 0. -1.
</event>
<event>
 7    1  0.2841804E-009  0.9443589E+02  0.7561462E-02  0.1292452E+00
         -2   -1    0    0    0  501 -0.00000000000E+00  0.00000000000E+00  0.19782510442E+02  0.19782510442E+02  0.00000000000E+00 0.  1.
          2   -1    0    0  501    0  0.00000000000E+00 -0.00000000000E+00 -0.82700600546E+03  0.82700600546E+03  0.00000000000E+00 0. -1.
         25    2    1    2    0    0 -0.64541431989E+02  0.23597235862E+02 -0.54846302714E+03  0.56672880012E+03  0.12508962693E+03 0.  0.
          5    1    3    3  502    0 -0.11750452925E+00 -0.11173344657E+02  0.13872955690E+01  0.12010596452E+02  0.41800000000E+01 0. -1.
         -5    1    3    3    0  502 -0.64423927460E+02  0.34770580520E+02 -0.54985032271E+03  0.55471820367E+03  0.41800000000E+01 0. -1.
        -11    1    1    2    0    0 -0.18098566656E+02 -0.64529247478E+01 -0.81466093801E+02  0.83701390622E+02  0.00000000000E+00 0. -1.
         11    1    1    2    0    0  0.82639998645E+02 -0.17144311115E+02 -0.17729437407E+03  0.19635832515E+03  0.00000000000E+00 0.  1.
</event>
<event>
 7    1  0.2841804E-009  0.1284033E+03  0.7561462E-02  0.1229844E+00
         -2   -1    0    0    0  501 -0.00000000000E+00  0.00000000000E+00  0.17467440575E+03  0.17467440575E+03  0.00000000000E+00 0. -1.
          2   -1    0    0  501    0  0.00000000000E+00 -0.00000000000E+00 -0.14657523144E+03  0.14657523144E+03  0.00000000000E+00 0.  1.
         25    2    1    2    0    0 -0.47046638911E+02 -0.57120009424E+02  0.10747460608E+03  0.18075993875E+03  0.12508909942E+03 0.  0.
          5    1    3    3  502    0  0.41737949768E+02 -0.23184949890E+02  0.21504239353E+02  0.52530972411E+02  0.41800000000E+01 0.  1.
         -5    1    3    3    0  502 -0.88784588679E+02 -0.33935059534E+02  0.85970366726E+02  0.12822896634E+03  0.41800000000E+01 0.  1.
        -11    1    1    2    0    0 -0.12941623771E+02  0.51938394155E+02 -0.50976994247E+02  0.73917091093E+02  0.00000000000E+00 0.  1.
         11    1    1    2    0    0  0.59988262682E+02  0.51816152694E+01 -0.28398437519E+02  0.66572607354E+02  0.00000000000E+00 0. -1.
</event>
<event>
 7    1  0.2841804E-009  0.1546440E+03  0.7561462E-02  0.1194880E+00
          2   -1    0    0  501    0  0.00000000000E+00  0.00000000000E+00  0.35855301526E+03  0.35855301526E+03  0.00000000000E+00 0. -1.
         -2   -1    0    0    0  501 -0.00000000000E+00 -0.00000000000E+00 -0.10610426040E+03  0.10610426040E+03  0.00000000000E+00 0.  1.
         25    2    1    2    0    0 -0.14795791120E+02 -0.14926481438E+03  0.20455589385E+03  0.28282455401E+03  0.12509082457E+03 0.  0.
          5    1    3    3  502    0  0.28714144293E+01 -0.40171784635E+02  0.15752620012E+03  0.16264683651E+03  0.41800000000E+01 0. -1.
         -5    1    3    3    0  502 -0.17667205550E+02 -0.10909302974E+03  0.47029693732E+02  0.12017771750E+03  0.41800000000E+01 0. -1.
        -11    1    1    2    0    0 -0.12722548976E+02  0.98247516173E+01  0.35735331599E+02  0.39184217758E+02  0.00000000000E+00 0. -1.
         11    1    1    2    0    0  0.27518340096E+02  0.13944006276E+03  0.12157529408E+02  0.14264850390E+03  0.00000000000E+00 0.  1.
</event>
<event>
 7    1  0.2841804E-009  0.2629994E+03  0.7561462E-02  0.1105354E+00
          2   -1    0    0  501    0  0.00000000000E+00  0.00000000000E+00  0.19071184828E+04  0.19071184828E+04  0.00000000000E+00 0. -1.
         -2   -1    0    0    0  501 -0.00000000000E+00 -0.00000000000E+00 -0.39211120261E+02  0.39211120261E+02  0.00000000000E+00 0.  1.
         25    2    1    2    0    0 -0.20076252130E+03 -0.14378599867E+03  0.11124459328E+04  0.11463693263E+04  0.12508667142E+03 0.  0.
          5    1    3    3  502    0 -0.11095919620E+03 -0.13226280045E+03  0.88185681325E+03  0.89860686792E+03  0.41800000000E+01 0. -1.
         -5    1    3    3    0  502 -0.89803325100E+02 -0.11523198222E+02  0.23058911957E+03  0.24776245834E+03  0.41800000000E+01 0. -1.
        -11    1    1    2    0    0  0.20988998571E+03  0.13274541668E+03  0.70291558779E+03  0.74549679765E+03  0.00000000000E+00 0.  1.
         11    1    1    2    0    0 -0.91274644060E+01  0.11040581987E+02  0.52545841892E+02  0.54463479114E+02  0.00000000000E+00 0. -1.
</event>
<event>
 7    1  0.2841804E-009  0.1103151E+03  0.7561462E-02  0.1259987E+00
         -3   -1    0    0    0  501 -0.00000000000E+00  0.00000000000E+00  0.14747133344E+02  0.14747133344E+02  0.00000000000E+00 0.  1.
          3   -1    0    0  501    0  0.00000000000E+00 -0.00000000000E+00 -0.11165579788E+04  0.11165579788E+04  0.00000000000E+00 0. -1.
         25    2    1    2    0    0 -0.24410441736E+02  0.32945198014E+02 -0.85754856093E+03  0.86759342413E+03  0.12509020546E+03 0.  0.
          5    1    3    3  502    0 -0.20508682673E+02 -0.46113462650E+02 -0.26829646121E+03  0.27303391914E+03  0.41800000000E+01 0. -1.
         -5    1    3    3    0  502 -0.39017590635E+01  0.79058660664E+02 -0.58925209973E+03  0.59455950500E+03  0.41800000000E+01 0. -1.
        -11    1    1    2    0    0 -0.22462879735E+02  0.12271099938E+02 -0.12722092710E+03  0.12977027838E+03  0.00000000000E+00 0.  1.
         11    1    1    2    0    0  0.46873321471E+02 -0.45216297952E+02 -0.11704135744E+03  0.13394140965E+03  0.00000000000E+00 0. -1.
</event>
<event>
 7    1  0.2841804E-009  0.1106509E+03  0.7561462E-02  0.1259369E+00
         -2   -1    0    0    0  501 -0.00000000000E+00  0.00000000000E+00  0.55187537697E+02  0.55187537697E+02  0.00000000000E+00 0.  1.
          2   -1    0    0  501    0  0.00000000000E+00 -0.00000000000E+00 -0.36211686741E+03  0.36211686741E+03  0.00000000000E+00 0. -1.
         25    2    1    2    0    0  0.13016773638E+02 -0.60164256718E+02 -0.26410342041E+03  0.29864078861E+03  0.12508608943E+03 0.  0.
          5    1    3    3  502    0  0.50174204131E+02 -0.67524617004E+02 -0.10281534164E+03  0.13291159294E+03  0.41800000000E+01 0.  1.
         -5    1    3    3    0  502 -0.37157430493E+02  0.73603602858E+01 -0.16128807876E+03  0.16572919566E+03  0.41800000000E+01 0.  1.
        -11    1    1    2    0    0  0.11120602056E+02 -0.15763617548E+02 -0.33218991175E+02  0.38414330698E+02  0.00000000000E+00 0. -1.
         11    1    1    2    0    0 -0.24137375695E+02  0.75927874266E+02 -0.96069181332E+01  0.80249285804E+02  0.00000000000E+00 0.  1.
</event>
<event>
 7    1  0.2841804E-009  0.3153001E+03  0.7561462E-02  0.1077833E+00
         -2   -1    0    0    0  501 -0.00000000000E+00  0.00000000000E+00  0.12700041174E+03  0.12700041174E+03  0.00000000000E+00 0. -1.
          2   -1    0    0  501    0  0.00000000000E+00 -0.00000000000E+00 -0.95944908199E+03  0.95944908199E+03  0.00000000000E+00 0.  1.
         25    2    1    2    0    0 -0.24499362380E+03 -0.17839449959E+03 -0.21420467654E+03  0.39163382794E+03  0.12508772343E+03 0.  0.
          5    1    3    3  502    0 -0.19498489270E+03 -0.69722967669E+02 -0.12051304541E+03  0.23962735051E+03  0.41800000000E+01 0. -1.
         -5    1    3    3    0  502 -0.50008731100E+02 -0.10867153192E+03 -0.93691631132E+02  0.15200647743E+03  0.41800000000E+01 0. -1.
        -11    1    1    2    0    0  0.13412586638E+03  0.84736598057E+02 -0.22226914943E+03  0.27308169816E+03  0.00000000000E+00 0. -1.
         11    1    1    2    0    0  0.11086775742E+03  0.93657901532E+02 -0.39597484428E+03  0.42173396763E+03  0.00000000000E+00 0.  1.
</event>
<event>
 7    1  0.2841804E-009  0.1489363E+03  0.7561462E-02  0.1201786E+00
         -2   -1    0    0    0  501 -0.00000000000E+00  0.00000000000E+00  0.34509466838E+03  0.34509466838E+03  0.00000000000E+00 0.  1.
          2   -1    0    0  501    0  0.00000000000E+00 -0.00000000000E+00 -0.66812378191E+02  0.66812378191E+02  0.00000000000E+00 0. -1.
         25    2    1    2    0    0 -0.25487416722E+02 -0.10207688347E+03  0.14834103036E+03  0.22073019570E+03  0.12508980556E+03 0.  0.
          5    1    3    3  502    0 -0.43686276965E+02  0.12858223360E+02  0.29907224681E+02  0.54641917894E+02  0.41800000000E+01 0. -1.
         -5    1    3    3    0  502  0.18198860243E+02 -0.11493510683E+03  0.11843380568E+03  0.16608827780E+03  0.41800000000E+01 0. -1.
        -11    1    1    2    0    0  0.57415122594E+02  0.62989910125E+02  0.57213499441E+02  0.10265285967E+03  0.00000000000E+00 0. -1.
         11    1    1    2    0    0 -0.31927705872E+02  0.39086973345E+02  0.72727760387E+02  0.88523991202E+02  0.00000000000E+00 0.  1.
</event>
<event>
 7    1  0.2841804E-009  0.1179698E+03  0.7561462E-02  0.1246484E+00
         -4   -1    0    0    0  501 -0.00000000000E+00  0.00000000000E+00  0.60594846745E+02  0.60594846745E+02  0.00000000000E+00 0.  1.
          4   -1    0    0  501    0  0.00000000000E+00 -0.00000000000E+00 -0.36192754819E+03  0.36192754819E+03  0.00000000000E+00 0. -1.
         25    2    1    2    0    0 -0.83875713089E+02  0.30692045095E+02 -0.22902556750E+03  0.27580950755E+03  0.12506413159E+03 0.  0.
          5    1    3    3  502    0 -0.79067681940E+01 -0.40779260047E+02 -0.31155915002E+02  0.52092499200E+02  0.41800000000E+01 0.  1.
         -5    1    3    3    0  502 -0.75968944895E+02  0.71471305142E+02 -0.19786965250E+03  0.22371700835E+03  0.41800000000E+01 0.  1.
        -11    1    1    2    0    0  0.15232392403E+02 -0.18420773434E+01 -0.70585035836E+02  0.72233415475E+02  0.00000000000E+00 0. -1.
         11    1    1    2    0    0  0.68643320686E+02 -0.28849967751E+02 -0.17220981135E+01  0.74479471910E+02  0.00000000000E+00 0.  1.
</event>
<event>
 6    1  0.2841804E-009  0.1467602E+03  0.7561462E-02  0.1204512E+00
          1   -1    0    0  501    0  0.00000000000E+00  0.00000000000E+00  0.57177149073E+03  0.57177149073E+03  0.00000000000E+00 0. -1.
         -1   -1    0    0    0  501 -0.00000000000E+00 -0.00000000000E+00 -0.69407161436E+02  0.69407161436E+02  0.00000000000E+00 0.  1.
          5    1    1    2  502    0  0.90479604030E+01 -0.11390022373E+03  0.14620405051E+03  0.18560232579E+03  0.41800000000E+01 0. -1.
         -5    1    1    2    0  502  0.76362744255E+01 -0.24751929815E+02  0.26479702775E+03  0.26609379741E+03  0.41800000000E+01 0. -1.
        -11    1    1    2    0    0  0.16488123011E+02  0.10275390566E+03  0.24942725990E+02  0.10701571337E+03  0.00000000000E+00 0.  1.
         11    1    1    2    0    0 -0.33172357839E+02  0.35898247888E+02  0.66420525051E+02  0.82466815593E+02  0.00000000000E+00 0. -1.
</event>
<event>
 7    1  0.3171930E-009  0.5392722E+02  0.7561462E-02  0.1425241E+00
         -4   -1    0    0    0  501 -0.00000000000E+00  0.00000000000E+00  0.22528209623E+03  0.22528209623E+03  0.00000000000E+00 0. -1.
          4   -1    0    0  501    0  0.00000000000E+00 -0.00000000000E+00 -0.78285468200E+02  0.78285468200E+02  0.00000000000E+00 0.  1.
         25    2    1    2    0    0 -0.45782939979E+02 -0.18011363499E+02  0.14752557065E+03  0.19956932585E+03  0.12507451785E+03 0.  0.
          5    1    3    3  502    0 -0.46880606868E+02 -0.80852263725E+01  0.16894739438E+03  0.17556724255E+03  0.41800000000E+01 0.  1.
         -5    1    3    3    0  502  0.10976668885E+01 -0.99261371261E+01 -0.21421823732E+02  0.24002083302E+02  0.41800000000E+01 0.  1.
        -11    1    1    2    0    0  0.31678861723E+02  0.13788858691E+02  0.44664203117E+02  0.56467459162E+02  0.00000000000E+00 0. -1.
         11    1    1    2    0    0  0.14104078256E+02  0.42225048071E+01 -0.45193145741E+02  0.47530779420E+02  0.00000000000E+00 0.  1.
</event>
<event>
 7    1  0.2841804E-009  0.2135727E+03  0.7561462E-02  0.1138768E+00
         -1   -1    0    0    0  501 -0.00000000000E+00  0.00000000000E+00  0.14316265654E+03  0.14316265654E+03  0.00000000000E+00 0.  1.
          1   -1    0    0  501    0  0.00000000000E+00 -0.00000000000E+00 -0.48878996737E+03  0.48878996737E+03  0.00000000000E+00 0. -1.
         25    2    1    2    0    0 -0.19563937385E+03  0.20985005574E+02 -0.34428856182E+03  0.41580939900E+03  0.12509079675E+03 0.  0.
          5    1    3    3  502    0 -0.46267163676E+02 -0.39542457637E+02 -0.44822239932E+02  0.75701796432E+02  0.41800000000E+01 0. -1.
         -5    1    3    3    0  502 -0.14937221018E+03  0.60527463212E+02 -0.29946632189E+03  0.34010760256E+03  0.41800000000E+01 0. -1.
        -11    1    1    2    0    0  0.54418789112E+02 -0.32231990040E+02 -0.32469306244E+02  0.71095440348E+02  0.00000000000E+00 0. -1.
         11    1    1    2    0    0  0.14122058474E+03  0.11246984466E+02  0.31130557234E+02  0.14504778457E+03  0.00000000000E+00 0.  1.
</event>
<event>
 7    1  0.2841804E-009  0.1076441E+03  0.7561462E-02  0.1264996E+00
          1   -1    0    0  501    0  0.00000000000E+00  0.00000000000E+00  0.10560418417E+03  0.10560418417E+03  0.00000000000E+00 0. -1.
         -1   -1    0    0    0  501 -0.00000000000E+00 -0.00000000000E+00 -0.13798172676E+03  0.13798172676E+03  0.00000000000E+00 0.  1.
         25    2    1    2    0    0 -0.51129569379E+02 -0.18065353275E+02 -0.13668248225E+02  0.13702039515E+03  0.12508867983E+03 0.  0.
          5    1    3    3  502    0 -0.79529149872E+02 -0.78030833709E+01 -0.46230784877E+02  0.92414996942E+02  0.41800000000E+01 0.  1.
         -5    1    3    3    0  502  0.28399580492E+02 -0.10262269904E+02  0.32562536652E+02  0.44605398204E+02  0.41800000000E+01 0.  1.
        -11    1    1    2    0    0  0.45620342498E+02  0.52705738843E+02 -0.14915283940E+02  0.71285175539E+02  0.00000000000E+00 0.  1.
         11    1    1    2    0    0  0.55092268810E+01 -0.34640385568E+02 -0.37940104214E+01  0.35280340251E+02  0.00000000000E+00 0. -1.
</event>
<event>
 7    1  0.2841804E-009  0.2853000E+03  0.7561462E-02  0.1092829E+00
         -2   -1    0    0    0  501 -0.00000000000E+00  0.00000000000E+00  0.10985853169E+03  0.10985853169E+03  0.00000000000E+00 0.  1.
          2   -1    0    0  501    0  0.00000000000E+00 -0.00000000000E+00 -0.13818511701E+04  0.13818511701E+04  0.00000000000E+00 0. -1.
         25    2    1    2    0    0 -0.27903792457E+03  0.20088557023E+02 -0.11190357939E+04  0.11602388634E+04  0.12508956175E+03 0.  0.
          5    1    3    3  502    0 -0.36347038901E+02 -0.24526412264E+02 -0.34528237585E+03  0.34808051311E+03  0.41800000000E+01 0. -1.
         -5    1    3    3    0  502 -0.24269088567E+03  0.44614969287E+02 -0.77375341808E+03  0.81215835024E+03  0.41800000000E+01 0. -1.
        -11    1    1    2    0    0  0.17646273809E+03 -0.12660372310E+02 -0.14422914053E+03  0.22825737215E+03  0.00000000000E+00 0.  1.
         11    1    1    2    0    0  0.10257518649E+03 -0.74281847131E+01 -0.87277039640E+01  0.10321346631E+03  0.00000000000E+00 0. -1.
</event>
<event>
 7    1  0.2841804E-009  0.1113986E+03  0.7561462E-02  0.1258002E+00
          2   -1    0    0  501    0  0.00000000000E+00  0.00000000000E+00  0.35142180225E+03  0.35142180225E+03  0.00000000000E+00 0. -1.
         -2   -1    0    0    0  501 -0.00000000000E+00 -0.00000000000E+00 -0.95020486291E+02  0.95020486291E+02  0.00000000000E+00 0.  1.
         25    2    1    2    0    0 -0.66401821479E+02  0.13762477449E+02 -0.23911629064E+02  0.14428531325E+03  0.12509147826E+03 0.  0.
          5    1    3    3  502    0 -0.39726478193E+02 -0.54091142683E+02 -0.23577725251E+02  0.71256061598E+02  0.41800000000E+01 0.  1.
         -5    1    3    3    0  502 -0.26675343286E+02  0.67853620133E+02 -0.33390381341E+00  0.73029251648E+02  0.41800000000E+01 0.  1.
        -11    1    1    2    0    0  0.39895724112E+02 -0.31330071053E+02  0.25889394670E+03  0.26381682621E+03  0.00000000000E+00 0. -1.
         11    1    1    2    0    0  0.26506097367E+02  0.17567593604E+02  0.21418998327E+02  0.38340149087E+02  0.00000000000E+00 0.  1.
</event>
<event>
 7    1  0.2841804E-009  0.1183586E+03  0.7561462E-02  0.1245830E+00
         -1   -1    0    0    0  501 -0.00000000000E+00  0.00000000000E+00  0.17232476254E+03  0.17232476254E+03  0.00000000000E+00 0.  1.
          1   -1    0    0  501    0  0.00000000000E+00 -0.00000000000E+00 -0.14969046211E+03  0.14969046211E+03  0.00000000000E+00 0. -1.
         25    2    1    2    0    0  0.50929179360E+02  0.10333576429E+03  0.34962590563E+02  0.17361498120E+03  0.12509083686E+03 0.  0.
          5    1    3    3  502    0 -0.23362750728E+00  0.23048881358E+02  0.68653286385E+02  0.72540000311E+02  0.41800000000E+01 0.  1.
         -5    1    3    3    0  502  0.51162806867E+02  0.80286882927E+02 -0.33690695822E+02  0.10107498089E+03  0.41800000000E+01 0.  1.
        -11    1    1    2    0    0 -0.11647661077E+02 -0.52367929614E+02 -0.50420017863E+02  0.73622321764E+02  0.00000000000E+00 0. -1.
         11    1    1    2    0    0 -0.39281518283E+02 -0.50967834671E+02  0.38091727737E+02  0.74777921686E+02  0.00000000000E+00 0.  1.
</event>
<event>
 7    1  0.2841804E-009  0.1571655E+03  0.7561462E-02  0.1191935E+00
          1   -1    0    0  501    0  0.00000000000E+00  0.00000000000E+00  0.25000380093E+04  0.25000380093E+04  0.00000000000E+00 0. -1.
         -1   -1    0    0    0  501 -0.00000000000E+00 -0.00000000000E+00 -0.11388407954E+02  0.11388407954E+02  0.00000000000E+00 0.  1.
         25    2    1    2    0    0  0.26895970559E+02  0.11708642572E+03  0.16682775109E+04  0.16772686391E+04  0.12509040841E+03 0.  0.
          5    1    3    3  502    0 -0.43358957854E+02  0.44566229150E+02  0.38426504370E+03  0.38928555614E+03  0.41800000000E+01 0.  1.
         -5    1    3    3    0  502  0.70254928413E+02  0.72520196574E+02  0.12840124672E+04  0.12879830830E+04  0.41800000000E+01 0.  1.
        -11    1    1    2    0    0 -0.16467311033E+02 -0.13185335279E+03  0.71357993815E+03  0.72584626961E+03  0.00000000000E+00 0.  1.
         11    1    1    2    0    0 -0.10428659526E+02  0.14766927065E+02  0.10679215236E+03  0.10831150853E+03  0.00000000000E+00 0. -1.
</event>
<event>
 7    1  0.2841804E-009  0.5879081E+02  0.7561462E-02  0.1402977E+00
         -2   -1    0    0    0  501 -0.00000000000E+00  0.00000000000E+00  0.37973222160E+02  0.37973222160E+02  0.00000000000E+00 0.  1.
          2   -1    0    0  501    0  0.00000000000E+00 -0.00000000000E+00 -0.44470797428E+03  0.44470797428E+03  0.00000000000E+00 0. -1.
         25    2    1    2    0    0 -0.32859301638E+02 -0.97518785940E+01 -0.34180797637E+03  0.36558863341E+03  0.12509006086E+03 0.  0.
          5    1    3    3  502    0  0.66800412714E+01  0.18585036678E+01 -0.31741737898E+03  0.31752061644E+03  0.41800000000E+01 0. -1.
         -5    1    3    3    0  502 -0.39539342910E+02 -0.11610382262E+02 -0.24390597391E+02  0.48068016966E+02  0.41800000000E+01 0. -1.
        -11    1    1    2    0    0 -0.13061369818E+02  0.17144715516E+02 -0.67153300450E+02  0.70527345143E+02  0.00000000000E+00 0. -1.
         11    1    1    2    0    0  0.45920671457E+02 -0.73928369216E+01  0.22265247013E+01  0.46565217889E+02  0.00000000000E+00 0.  1.
</event>
<event>
 7    1  0.2841804E-009  0.8525623E+02  0.7561462E-02  0.1314764E+00
         -3   -1    0    0    0  501 -0.00000000000E+00  0.00000000000E+00  0.35672660586E+02  0.35672660586E+02  0.00000000000E+00 0.  1.
          3   -1    0    0  501    0  0.00000000000E+00 -0.00000000000E+00 -0.40143813023E+03  0.40143813023E+03  0.00000000000E+00 0. -1.
         25    2    1    2    0    0  0.19973789658E+02  0.25035988990E+02 -0.27011256818E+03  0.29936630264E+03  0.12503451782E+03 0.  0.
          5    1    3    3  502    0 -0.17434836352E+02  0.47208363715E+02 -0.24246179116E+03  0.24766468399E+03  0.41800000000E+01 0.  1.
         -5    1    3    3    0  502  0.37408626009E+02 -0.22172374726E+02 -0.27650777029E+02  0.51701618651E+02  0.41800000000E+01 0.  1.
        -11    1    1    2    0    0 -0.24463659666E+01  0.24066708801E+02 -0.79595887854E+02  0.83190723895E+02  0.00000000000E+00 0. -1.
         11    1    1    2    0    0 -0.17527423691E+02 -0.49102697791E+02 -0.16057013607E+02  0.54553764284E+02  0.00000000000E+00 0.  1.
</event>
<event>
 7    1  0.2841804E-009  0.8083074E+02  0.7561462E-02  0.1326710E+00
         -2   -1    0    0    0  501 -0.00000000000E+00  0.00000000000E+00  0.52095767614E+02  0.52095767614E+02  0.00000000000E+00 0.  1.
          2   -1    0    0  501    0  0.00000000000E+00 -0.00000000000E+00 -0.33085034917E+03  0.33085034917E+03  0.00000000000E+00 0. -1.
         25    2    1    2    0    0  0.14826878950E+02  0.33891916788E+02 -0.24815809534E+03  0.28035229633E+03  0.12508585615E+03 0.  0.
          5    1    3    3  502    0 -0.20379939687E+02  0.68029891559E+02 -0.19659330914E+03  0.20906891134E+03  0.41800000000E+01 0.  1.
         -5    1    3    3    0  502  0.35206818637E+02 -0.34137974770E+02 -0.51564786200E+02  0.71283384991E+02  0.41800000000E+01 0.  1.
        -11    1    1    2    0    0  0.13755714060E+00 -0.22490318930E+02 -0.62018365616E+02  0.65970531613E+02  0.00000000000E+00 0. -1.
         11    1    1    2    0    0 -0.14964436090E+02 -0.11401597858E+02  0.31421879399E+02  0.36623288850E+02  0.00000000000E+00 0.  1.
</event>
<event>
 7    1  0.2841804E-009  0.1071425E+03  0.7561462E-02  0.1265955E+00
          3   -1    0    0  501    0  0.00000000000E+00  0.00000000000E+00  0.13470589660E+02  0.13470589660E+02  0.00000000000E+00 0. -1.
         -3   -1    0    0    0  501 -0.00000000000E+00 -0.00000000000E+00 -0.18993055291E+04  0.18993055291E+04  0.00000000000E+00 0.  1.
         25    2    1    2    0    0 -0.48152301727E+01 -0.86278969908E+02 -0.14736996399E+04  0.14815216134E+04  0.12509362533E+03 0.  0.
          5    1    3    3  502    0  0.13599608489E+02 -0.84833892790E+01 -0.21616863721E+02  0.27233773919E+02  0.41800000000E+01 0.  1.
         -5    1    3    3    0  502 -0.18414838662E+02 -0.77795580628E+02 -0.14520827762E+04  0.14542878395E+04  0.41800000000E+01 0.  1.
        -11    1    1    2    0    0 -0.28409009874E+02  0.78584724024E+02 -0.35511287626E+03  0.36481198661E+03  0.00000000000E+00 0.  1.
         11    1    1    2    0    0  0.33224240046E+02  0.76942458839E+01 -0.57022423250E+02  0.66442518764E+02  0.00000000000E+00 0. -1.
</event>
<event>
 7    1  0.2841804E-009  0.1569050E+03  0.7561462E-02  0.1192236E+00
         -2   -1    0    0    0  501 -0.00000000000E+00  0.00000000000E+00  0.90529068624E+02  0.90529068624E+02  0.00000000000E+00 0.  1.
          2   -1    0    0  501    0  0.00000000000E+00 -0.00000000000E+00 -0.37484856036E+03  0.37484856036E+03  0.00000000000E+00 0. -1.
         25    2    1    2    0    0  0.12740843939E+03 -0.66058193220E+02 -0.19930878831E+03  0.27562353281E+03  0.12509094061E+03 0.  0.
          5    1    3    3  502    0  0.69871684788E+02 -0.81798991368E+02 -0.58237053357E+02  0.12240160991E+03  0.41800000000E+01 0. -1.
         -5    1    3    3    0  502  0.57536754599E+02  0.15740798148E+02 -0.14107173496E+03  0.15322192291E+03  0.41800000000E+01 0. -1.
        -11    1    1    2    0    0 -0.69900184571E+02  0.20088234475E+02  0.56686939315E+01  0.72950031242E+02  0.00000000000E+00 0.  1.
         11    1    1    2    0    0 -0.57508254817E+02  0.45969958746E+02 -0.90679397357E+02  0.11680406493E+03  0.00000000000E+00 0. -1.
</event>
<event>
 7    1  0.2841804E-009  0.1114817E+03  0.7561462E-02  0.1257850E+00
          1   -1    0    0  501    0  0.00000000000E+00  0.00000000000E+00  0.48883909704E+03  0.48883909704E+03  0.00000000000E+00 0. -1.
         -1   -1    0    0    0  501 -0.00000000000E+00 -0.00000000000E+00 -0.28912735816E+02  0.28912735816E+02  0.00000000000E+00 0.  1.
         25    2    1    2    0    0  0.43313345509E+02  0.16956439073E+02  0.26708717156E+03  0.29857508211E+03  0.12509178920E+03 0.  0.
          5    1    3    3  502    0 -0.37022808928E+02  0.20595629352E+02  0.15380389584E+03  0.15958690142E+03  0.41800000000E+01 0.  1.
         -5    1    3    3    0  502  0.80336154438E+02 -0.36391902791E+01  0.11328327571E+03  0.13898818069E+03  0.41800000000E+01 0.  1.
        -11    1    1    2    0    0 -0.44988232173E+02 -0.49723498221E+02  0.97358226692E+02  0.11821586871E+03  0.00000000000E+00 0.  1.
         11    1    1    2    0    0  0.16748866635E+01  0.32767059148E+02  0.95480962979E+02  0.10096088204E+03  0.00000000000E+00 0. -1.
</event>
<event>
 7    1  0.3076868E-009  0.5068530E+02  0.7561462E-02  0.1441680E+00
          1   -1    0    0  501    0  0.00000000000E+00  0.00000000000E+00  0.23004811264E+03  0.23004811264E+03  0.00000000000E+00 0. -1.
         -1   -1    0    0    0  501 -0.00000000000E+00 -0.00000000000E+00 -0.64373694034E+02  0.64373694034E+02  0.00000000000E+00 0.  1.
         25    2    1    2    0    0 -0.61011986699E+01 -0.38509035108E+02  0.45524792392E+02  0.13871003869E+03  0.12509115756E+03 0.  0.
          5    1    3    3  502    0  0.20649101948E+02 -0.16281324150E+02  0.83145889282E+02  0.87305087090E+02  0.41800000000E+01 0.  1.
         -5    1    3    3    0  502 -0.26750300618E+02 -0.22227710958E+02 -0.37621096890E+02  0.51404951598E+02  0.41800000000E+01 0.  1.
        -11    1    1    2    0    0  0.55804910465E+00  0.26299874329E+02  0.13392735067E+03  0.13648637319E+03  0.00000000000E+00 0. -1.
         11    1    1    2    0    0  0.55431495653E+01  0.12209160780E+02 -0.13777724454E+02  0.19225394799E+02  0.00000000000E+00 0.  1.
</event>
<event>
 7    1  0.2841804E-009  0.8140558E+02  0.7561462E-02  0.1325109E+00
         -1   -1    0    0    0  501 -0.00000000000E+00  0.00000000000E+00  0.64148121029E+03  0.64148121029E+03  0.00000000000E+00 0.  1.
          1   -1    0    0  501    0  0.00000000000E+00 -0.00000000000E+00 -0.20797859953E+02  0.20797859953E+02  0.00000000000E+00 0. -1.
         25    2    1    2    0    0 -0.11798582705E+02 -0.22250944208E+01  0.34698465944E+03  0.36903919485E+03  0.12508963125E+03 0.  0.
          5    1    3    3  502    0 -0.64567528261E+01  0.30165524505E+02  0.33068961764E+03  0.33215168845E+03  0.41800000000E+01 0.  1.
         -5    1    3    3    0  502 -0.53418298793E+01 -0.32390618926E+02  0.16295041803E+02  0.36887506398E+02  0.41800000000E+01 0.  1.
        -11    1    1    2    0    0 -0.17260449807E+02  0.44248168039E+02  0.81143732188E+02  0.94021959008E+02  0.00000000000E+00 0.  1.
         11    1    1    2    0    0  0.29059032513E+02 -0.42023073618E+02  0.19255495871E+03  0.19921791639E+03  0.00000000000E+00 0. -1.
</event>
<event>
 7    1  0.2841804E-009  0.1088071E+03  0.7561462E-02  0.1262795E+00
          1   -1    0    0  501    0  0.00000000000E+00  0.00000000000E+00  0.11787024051E+03  0.11787024051E+03  0.00000000000E+00 0. -1.
         -1   -1    0    0    0  501 -0.00000000000E+00 -0.00000000000E+00 -0.21588987925E+03  0.21588987925E+03  0.00000000000E+00 0.  1.
         25    2    1    2    0    0  0.20934190679E+02  0.62961359431E+02  0.48369476998E+02  0.14963014107E+03  0.12508876724E+03 0.  0.
          5    1    3    3  502    0 -0.20565378221E+02  0.63132083121E+02  0.74913462997E+02  0.10019028914E+03  0.41800000000E+01 0.  1.
         -5    1    3    3    0  502  0.41499568899E+02 -0.17072369069E+00 -0.26543985999E+02  0.49439851922E+02  0.41800000000E+01 0.  1.
        -11    1    1    2    0    0 -0.10489861365E+02 -0.84652970730E+02 -0.12807373655E+03  0.15387996828E+03  0.00000000000E+00 0.  1.
         11    1    1    2    0    0 -0.10444329313E+02  0.21691611299E+02 -0.18315379192E+02  0.30250010422E+02  0.00000000000E+00 0. -1.
</event>
<event>
 7    1  0.3561580E-009  0.1023964E+03  0.7561462E-02  0.1275336E+00
         -2   -1    0    0    0  501 -0.00000000000E+00  0.00000000000E+00  0.78721106808E+01  0.78721106808E+01  0.00000000000E+00 0.  1.
          2   -1    0    0  501    0  0.00000000000E+00 -0.00000000000E+00 -0.17607938381E+04  0.17607938381E+04  0.00000000000E+00 0. -1.
         25    2    1    2    0    0  0.53280766764E+01  0.11116869471E+02 -0.13265758131E+04  0.13325225554E+04  0.12514391535E+03 0.  0.
          5    1    3    3  502    0 -0.74262774513E+01  0.61226566200E+02 -0.42690723661E+03  0.43135959833E+03  0.41800000000E+01 0.  1.
         -5    1    3    3    0  502  0.12754354128E+02 -0.50109696729E+02 -0.89966857650E+03  0.90116295707E+03  0.41800000000E+01 0.  1.
        -11    1    1    2    0    0 -0.20291350439E+02  0.36185950002E+02 -0.22353637289E+03  0.22735362739E+03  0.00000000000E+00 0. -1.
         11    1    1    2    0    0  0.14963273762E+02 -0.47302819473E+02 -0.20280954142E+03  0.20878976600E+03  0.00000000000E+00 0.  1.
</event>
<event>
 7    1  0.2841804E-009  0.1391092E+03  0.7561462E-02  0.1214533E+00
         -2   -1    0    0    0  501 -0.00000000000E+00  0.00000000000E+00  0.10874478367E+03  0.10874478367E+03  0.00000000000E+00 0.  1.
          2   -1    0    0  501    0  0.00000000000E+00 -0.00000000000E+00 -0.34347244203E+03  0.34347244203E+03  0.00000000000E+00 0. -1.
         25    2    1    2    0    0 -0.77722339861E+02 -0.95774005025E+02 -0.50036065018E+01  0.17574301016E+03  0.12508855818E+03 0.  0.
          5    1    3    3  502    0 -0.26322817102E+02 -0.73011792237E+02 -0.59079767306E+02  0.97629420825E+02  0.41800000000E+01 0.  1.
         -5    1    3    3    0  502 -0.51399522759E+02 -0.22762212789E+02  0.54076160804E+02  0.78113589331E+02  0.41800000000E+01 0.  1.
        -11    1    1    2    0    0  0.90575702151E+02  0.94983356491E+02 -0.22853555725E+03  0.26354183113E+03  0.00000000000E+00 0. -1.
         11    1    1    2    0    0 -0.12853362290E+02  0.79064853455E+00 -0.11884946117E+01  0.12932384417E+02  0.00000000000E+00 0.  1.
</event>
<event>
 6    1  0.2841804E-009  0.9047316E+02  0.7561462E-02  0.1301710E+00
          4   -1    0    0  501    0  0.00000000000E+00  0.00000000000E+00  0.16427842567E+03  0.16427842567E+03  0.00000000000E+00 0. -1.
         -4   -1    0    0    0  501 -0.00000000000E+00 -0.00000000000E+00 -0.75607982535E+02  0.75607982535E+02  0.00000000000E+00 0.  1.
          5    1    1    2  502    0  0.49058281554E+02  0.56875232659E+01  0.89319982389E+02  0.10214986326E+03  0.41800000000E+01 0. -1.
         -5    1    1    2    0  502 -0.41280718290E+02 -0.16254618292E+02 -0.11060405996E+02  0.45914216743E+02  0.41800000000E+01 0. -1.
        -11    1    1    2    0    0 -0.42458148961E+02 -0.13562529690E+02  0.19427833441E+02  0.48621778422E+02  0.00000000000E+00 0. -1.
         11    1    1    2    0    0  0.34680585696E+02  0.24129624716E+02 -0.90169666970E+01  0.43200549783E+02  0.00000000000E+00 0.  1.
</event>
<event>
 7    1  0.2841804E-009  0.2479289E+03  0.7561462E-02  0.1114621E+00
          2   -1    0    0  501    0  0.00000000000E+00  0.00000000000E+00  0.43454955425E+03  0.43454955425E+03  0.00000000000E+00 0. -1.
         -2   -1    0    0    0  501 -0.00000000000E+00 -0.00000000000E+00 -0.18098033903E+03  0.18098033903E+03  0.00000000000E+00 0.  1.
         25    2    1    2    0    0  0.39330069048E+02  0.22073003996E+03 -0.10488503011E+02  0.25696174974E+03  0.12510286672E+03 0.  0.
          5    1    3    3  502    0  0.80942929904E+02  0.12662512475E+03 -0.26753845723E+02  0.15270533973E+03  0.41800000000E+01 0.  1.
         -5    1    3    3    0  502 -0.41612860856E+02  0.94104915207E+02  0.16265342712E+02  0.10425641001E+03  0.41800000000E+01 0.  1.
        -11    1    1    2    0    0  0.25939069725E+02 -0.11804862898E+03  0.12815680979E+03  0.17616038725E+03  0.00000000000E+00 0.  1.
         11    1    1    2    0    0 -0.65269138773E+02 -0.10268141098E+03  0.13590090845E+03  0.18240775629E+03  0.00000000000E+00 0. -1.
</event>
<event>
 7    1  0.2841804E-009  0.1154542E+03  0.7561462E-02  0.1250790E+00
          2   -1    0    0  501    0  0.00000000000E+00  0.00000000000E+00  0.73106485446E+03  0.73106485446E+03  0.00000000000E+00 0.  1.
         -2   -1    0    0    0  501 -0.00000000000E+00 -0.00000000000E+00 -0.18912677487E+02  0.18912677487E+02  0.00000000000E+00 0. -1.
         25    2    1    2    0    0  0.36448299298E+02 -0.28394631849E+02  0.37920138811E+03  0.40196517364E+03  0.12509026513E+03 0.  0.
          5    1    3    3  502    0  0.76761586160E+02  0.73113331612E+01  0.25717444902E+03  0.26851809312E+03  0.41800000000E+01 0. -1.
         -5    1    3    3    0  502 -0.40313286861E+02 -0.35705965010E+02  0.12202693909E+03  0.13344708052E+03  0.41800000000E+01 0. -1.
        -11    1    1    2    0    0  0.84530442203E+01 -0.27041876351E+02  0.12480639045E+03  0.12798184297E+03  0.00000000000E+00 0. -1.
         11    1    1    2    0    0 -0.44901343519E+02  0.55436508200E+02  0.20814439841E+03  0.22003051534E+03  0.00000000000E+00 0.  1.
</event>
<event>
 7    1  0.2841804E-009  0.4818147E+03  0.7561462E-02  0.1018638E+00
         -2   -1    0    0    0  501 -0.00000000000E+00  0.00000000000E+00  0.62826647698E+03  0.62826647698E+03  0.00000000000E+00 0.  1.
          2   -1    0    0  501    0  0.00000000000E+00 -0.00000000000E+00 -0.38815686825E+03  0.38815686825E+03  0.00000000000E+00 0. -1.
         25    2    1    2    0    0  0.19701430683E+03  0.43715580938E+03  0.16698527879E+03  0.52292596504E+03  0.12509053846E+03 0.  0.
          5    1    3    3  502    0  0.76083985071E+02  0.10273846547E+03 -0.47417824946E+01  0.12799969520E+03  0.41800000000E+01 0.  1.
         -5    1    3    3    0  502  0.12093032176E+03  0.33441734391E+03  0.17172706129E+03  0.39492626984E+03  0.41800000000E+01 0.  1.
        -11    1    1    2    0    0 -0.12999689369E+03 -0.31457976117E+03  0.91827246727E+02  0.35255050950E+03  0.00000000000E+00 0. -1.
         11    1    1    2    0    0 -0.67017413133E+02 -0.12257604822E+03 -0.18702916792E+02  0.14094687069E+03  0.00000000000E+00 0.  1.
</event>
<event>
 7    1  0.2841804E-009  0.1460216E+03  0.7561462E-02  0.1205449E+00
         -2   -1    0    0    0  501 -0.00000000000E+00  0.00000000000E+00  0.11535601111E+03  0.11535601111E+03  0.00000000000E+00 0. -1.
          2   -1    0    0  501    0  0.00000000000E+00 -0.00000000000E+00 -0.24690163032E+03  0.24690163032E+03  0.00000000000E+00 0.  1.
         25    2    1    2    0    0  0.12299395808E+02  0.10591801443E+03 -0.14859793567E+03  0.22158872402E+03  0.12510121986E+03 0.  0.
          5    1    3    3  502    0  0.58151129493E+02  0.13484168771E+02 -0.41554180857E+02  0.72853270451E+02  0.41800000000E+01 0.  1.
         -5    1    3    3    0  502 -0.45851733685E+02  0.92433845656E+02 -0.10704375481E+03  0.14873545357E+03  0.41800000000E+01 0.  1.
        -11    1    1    2    0    0  0.30541217136E+02 -0.48099979742E+02 -0.19158429195E+02  0.60111724352E+02  0.00000000000E+00 0.  1.
         11    1    1    2    0    0 -0.42840612944E+02 -0.57818034684E+02  0.36210745651E+02  0.80557193054E+02  0.00000000000E+00 0. -1.
</event>
<event>
 7    1  0.2841804E-009  0.1528080E+03  0.7561462E-02  0.1197064E+00
         -3   -1    0    0    0  501 -0.00000000000E+00  0.00000000000E+00  0.19155156899E+03  0.19155156899E+03  0.00000000000E+00 0.  1.
          3   -1    0    0  501    0  0.00000000000E+00 -0.00000000000E+00 -0.13734171170E+03  0.13734171170E+03  0.00000000000E+00 0. -1.
         25    2    1    2    0    0  0.61872942307E+02  0.10325409822E+03  0.26612341710E+02  0.17563653139E+03  0.12510117761E+03 0.  0.
          5    1    3    3  502    0 -0.27507041101E+02 -0.56211033299E+01  0.19680826545E+02  0.34540432051E+02  0.41800000000E+01 0. -1.
         -5    1    3    3    0  502  0.89379983408E+02  0.10887520155E+03  0.69315151654E+01  0.14109609934E+03  0.41800000000E+01 0. -1.
        -11    1    1    2    0    0 -0.35541819373E+01 -0.68136943659E+02 -0.18921773602E+02  0.70804723124E+02  0.00000000000E+00 0. -1.
         11    1    1    2    0    0 -0.58318760370E+02 -0.35117154561E+02  0.46519289178E+02  0.82452026180E+02  0.00000000000E+00 0.  1.
</event>
<event>
 7    1  0.2841804E-009  0.9307488E+02  0.7561462E-02  0.1295572E+00
          3   -1    0    0  501    0  0.00000000000E+00  0.00000000000E+00  0.17054463744E+03  0.17054463744E+03  0.00000000000E+00 0. -1.
         -3   -1    0    0    0  501 -0.00000000000E+00 -0.00000000000E+00 -0.95134304663E+02  0.95134304663E+02  0.00000000000E+00 0.  1.
         25    2    1    2    0    0 -0.12630609536E+02 -0.17207005934E+02 -0.25679262161E+02  0.12948624335E+03  0.12510655203E+03 0.  0.
          5    1    3    3  502    0 -0.67764681984E+02 -0.16360460777E+02 -0.25020148830E+02  0.74183536237E+02  0.41800000000E+01 0.  1.
         -5    1    3    3    0  502  0.55134072448E+02 -0.84654515713E+00 -0.65911333157E+00  0.55302707111E+02  0.41800000000E+01 0.  1.
        -11    1    1    2    0    0 -0.96001696720E+01 -0.17405412639E+02  0.91922320725E+02  0.94046928150E+02  0.00000000000E+00 0. -1.
         11    1    1    2    0    0  0.22230779208E+02  0.34612418574E+02  0.91672742164E+01  0.42145770609E+02  0.00000000000E+00 0.  1.
</event>
<event>
 7    1  0.2841804E-009  0.1287577E+03  0.7561462E-02  0.1229311E+00
          1   -1    0    0  501    0  0.00000000000E+00  0.00000000000E+00  0.24335112032E+03  0.24335112032E+03  0.00000000000E+00 0. -1.
         -1   -1    0    0    0  501 -0.00000000000E+00 -0.00000000000E+00 -0.83598576116E+02  0.83598576116E+02  0.00000000000E+00 0.  1.
         25    2    1    2    0    0 -0.72491721962E+02  0.60140130382E+01  0.15165633215E+03  0.20961407959E+03  0.12508877318E+03 0.  0.
          5    1    3    3  502    0  0.10084255275E+02 -0.44794290840E+02  0.63743711419E+02  0.78669904295E+02  0.41800000000E+01 0. -1.
         -5    1    3    3    0  502 -0.82575977237E+02  0.50808303878E+02  0.87912620729E+02  0.13094417529E+03  0.41800000000E+01 0. -1.
        -11    1    1    2    0    0  0.93211956696E+02 -0.79733096669E+01 -0.32934095910E+01  0.93610304374E+02  0.00000000000E+00 0.  1.
         11    1    1    2    0    0 -0.20720234734E+02  0.19592966288E+01  0.11389621646E+02  0.23725312473E+02  0.00000000000E+00 0. -1.
</event>
<event>
 7    1  0.2841804E-009  0.8524867E+02  0.7561462E-02  0.1314784E+00
         -1   -1    0    0    0  501 -0.00000000000E+00  0.00000000000E+00  0.24287787692E+02  0.24287787692E+02  0.00000000000E+00 0.  1.
          1   -1    0    0  501    0  0.00000000000E+00 -0.00000000000E+00 -0.53031271626E+03  0.53031271626E+03  0.00000000000E+00 0. -1.
         25    2    1    2    0    0  0.23103583814E+02  0.14196529988E+02 -0.33684833182E+03  0.36034706109E+03  0.12509152145E+03 0.  0.
          5    1    3    3  502    0 -0.15003178063E+02 -0.37154013656E+02 -0.40408283691E+02  0.57059774566E+02  0.41800000000E+01 0.  1.
         -5    1    3    3    0  502  0.38106761876E+02  0.51350543643E+02 -0.29644004813E+03  0.30328728653E+03  0.41800000000E+01 0.  1.
        -11    1    1    2    0    0  0.85041407312E+01 -0.29721746660E+02 -0.15192784965E+03  0.15504120140E+03  0.00000000000E+00 0. -1.
         11    1    1    2    0    0 -0.31607724545E+02  0.15525216672E+02 -0.17248747101E+02  0.39212241458E+02  0.00000000000E+00 0.  1.
</event>
<event>
 7    1  0.2841804E-009  0.1629172E+03  0.7561462E-02  0.1185442E+00
          1   -1    0    0  501    0  0.00000000000E+00  0.00000000000E+00  0.22108044184E+02  0.22108044184E+02  0.00000000000E+00 0. -1.
         -1   -1    0    0    0  501 -0.00000000000E+00 -0.00000000000E+00 -0.18819274113E+04  0.18819274113E+04  0.00000000000E+00 0.  1.
         25    2    1    2    0    0  0.12344682355E+03 -0.77795067322E+02 -0.13994537764E+04  0.14125916332E+04  0.12511218690E+03 0.  0.
          5    1    3    3  502    0  0.61569452639E+02 -0.86661048136E+02 -0.51238262729E+03  0.52331096292E+03  0.41800000000E+01 0.  1.
         -5    1    3    3    0  502  0.61877370916E+02  0.88659808144E+01 -0.88707114910E+03  0.88928067032E+03  0.41800000000E+01 0.  1.
        -11    1    1    2    0    0 -0.83984143357E+02  0.19196898461E+02 -0.14853475530E+03  0.17171031064E+03  0.00000000000E+00 0. -1.
         11    1    1    2    0    0 -0.39462680198E+02  0.58598168860E+02 -0.31183083545E+03  0.31973351163E+03  0.00000000000E+00 0.  1.
</event>
<event>
 7    1  0.2841804E-009  0.1561893E+03  0.7561462E-02  0.1193067E+00
          2   -1    0    0  501    0  0.00000000000E+00  0.00000000000E+00  0.99402935949E+03  0.99402935949E+03  0.00000000000E+00 0. -1.
         -2   -1    0    0    0  501 -0.00000000000E+00 -0.00000000000E+00 -0.35051984581E+02  0.35051984581E+02  0.00000000000E+00 0.  1.
         25    2    1    2    0    0  0.13481348769E+03 -0.50825029361E+02  0.63345608448E+03  0.66156841225E+03  0.12509313748E+03 0.  0.
          5    1    3    3  502    0  0.13328380234E+02 -0.18196622435E+02  0.91422994233E+01  0.24694469552E+02  0.41800000000E+01 0. -1.
         -5    1    3    3    0  502  0.12148510746E+03 -0.32628406927E+02  0.62431378506E+03  0.63687394270E+03  0.41800000000E+01 0. -1.
        -11    1    1    2    0    0 -0.13255411241E+03  0.66111764032E+02  0.25136001200E+03  0.29175882797E+03  0.00000000000E+00 0.  1.
         11    1    1    2    0    0 -0.22593752801E+01 -0.15286734670E+02  0.74161278425E+02  0.75754103857E+02  0.00000000000E+00 0. -1.
</event>
<event>
 7    1  0.2841804E-009  0.1301469E+03  0.7561462E-02  0.1227238E+00
          2   -1    0    0  501    0  0.00000000000E+00  0.00000000000E+00  0.12559421596E+03  0.12559421596E+03  0.00000000000E+00 0. -1.
         -2   -1    0    0    0  501 -0.00000000000E+00 -0.00000000000E+00 -0.17599147718E+03  0.17599147718E+03  0.00000000000E+00 0.  1.
         25    2    1    2    0    0 -0.71293564898E+02  0.57703326735E+02  0.15118809950E+02  0.15583160090E+03  0.12506983294E+03 0.  0.
          5    1    3    3  502    0  0.18457231361E+02  0.32585747122E+02 -0.33685790390E+02  0.50544091437E+02  0.41800000000E+01 0.  1.
         -5    1    3    3    0  502 -0.89750796260E+02  0.25117579613E+02  0.48804600340E+02  0.10528750946E+03  0.41800000000E+01 0.  1.
        -11    1    1    2    0    0  0.93233043310E+02 -0.51535635028E+02 -0.60164931638E+02  0.12234435435E+03  0.00000000000E+00 0. -1.
         11    1    1    2    0    0 -0.21939478412E+02 -0.61676917069E+01 -0.53511395351E+01  0.23409737895E+02  0.00000000000E+00 0.  1.
</event>
<event>
 7    1  0.2841804E-009  0.1490743E+03  0.7561462E-02  0.1201615E+00
          4   -1    0    0  501    0  0.00000000000E+00  0.00000000000E+00  0.33690274125E+02  0.33690274125E+02  0.00000000000E+00 0. -1.
         -4   -1    0    0    0  501 -0.00000000000E+00 -0.00000000000E+00 -0.75364631829E+03  0.75364631829E+03  0.00000000000E+00 0.  1.
         25    2    1    2    0    0 -0.10142092399E+03  0.26665062646E+02 -0.26055213083E+03  0.30746248393E+03  0.12509411160E+03 0.  0.
          5    1    3    3  502    0 -0.11457277422E+03 -0.18369622195E+02 -0.18764911181E+03  0.22066722724E+03  0.41800000000E+01 0. -1.
         -5    1    3    3    0  502  0.13151850231E+02  0.45034684842E+02 -0.72903019012E+02  0.86795256692E+02  0.41800000000E+01 0. -1.
        -11    1    1    2    0    0 -0.14627047733E+02  0.34819873954E+01 -0.24506927972E+02  0.28751770037E+02  0.00000000000E+00 0. -1.
         11    1    1    2    0    0  0.11604797172E+03 -0.30147050042E+02 -0.43489698537E+03  0.45112233845E+03  0.00000000000E+00 0.  1.
</event>
<event>
 7    1  0.2841804E-009  0.1341644E+03  0.7561462E-02  0.1221404E+00
         -1   -1    0    0    0  501 -0.00000000000E+00  0.00000000000E+00  0.22703658917E+03  0.22703658917E+03  0.00000000000E+00 0.  1.
          1   -1    0    0  501    0  0.00000000000E+00 -0.00000000000E+00 -0.10350092089E+03  0.10350092089E+03  0.00000000000E+00 0. -1.
         25    2    1    2    0    0 -0.53274329907E+02  0.88398145955E+02  0.31856621458E+02  0.16526920323E+03  0.12508668502E+03 0.  0.
          5    1    3    3  502    0 -0.74492269104E+02  0.56586856119E+02  0.65411250910E+02  0.11422466716E+03  0.41800000000E+01 0. -1.
         -5    1    3    3    0  502  0.21217939197E+02  0.31811289836E+02 -0.33554629452E+02  0.51044536069E+02  0.41800000000E+01 0. -1.
        -11    1    1    2    0    0 -0.10787525259E+02  0.12620658761E+02  0.43494933333E+01  0.17163036474E+02  0.00000000000E+00 0. -1.
         11    1    1    2    0    0  0.64061855166E+02 -0.10101880472E+03  0.87329553495E+02  0.14810527036E+03  0.00000000000E+00 0.  1.
</event>
<event>
 7    1  0.2841804E-009  0.8853910E+02  0.7561462E-02  0.1306429E+00
         -1   -1    0    0    0  501 -0.00000000000E+00  0.00000000000E+00  0.33247492799E+02  0.33247492799E+02  0.00000000000E+00 0.  1.
          1   -1    0    0  501    0  0.00000000000E+00 -0.00000000000E+00 -0.41749618097E+03  0.41749618097E+03  0.00000000000E+00 0. -1.
         25    2    1    2    0    0 -0.23039351455E+02  0.20808894800E+02 -0.15238442867E+03  0.19957790521E+03  0.12508598775E+03 0.  0.
          5    1    3    3  502    0  0.22318003060E+02  0.34594227502E+02 -0.14577115801E+03  0.15153071221E+03  0.41800000000E+01 0. -1.
         -5    1    3    3    0  502 -0.45357354515E+02 -0.13785332702E+02 -0.66132706616E+01  0.48047193000E+02  0.41800000000E+01 0. -1.
        -11    1    1    2    0    0  0.45216653302E+02 -0.38775881542E+02 -0.10127320768E+03  0.11749203087E+03  0.00000000000E+00 0.  1.
         11    1    1    2    0    0 -0.22177301847E+02  0.17966986742E+02 -0.13059105183E+03  0.13367373769E+03  0.00000000000E+00 0. -1.
</event>
<event>
 7    1  0.2841804E-009  0.8308616E+02  0.7561462E-02  0.1320515E+00
         -3   -1    0    0    0  501 -0.00000000000E+00  0.00000000000E+00  0.87298470528E+02  0.87298470528E+02  0.00000000000E+00 0.  1.
          3   -1    0    0  501    0  0.00000000000E+00 -0.00000000000E+00 -0.14162774432E+03  0.14162774432E+03  0.00000000000E+00 0. -1.
         25    2    1    2    0    0 -0.12188412465E+02 -0.60935175398E+01 -0.54107892247E+02  0.13697002132E+03  0.12508970534E+03 0.  0.
          5    1    3    3  502    0 -0.47356200558E+02 -0.33600231342E+02  0.96619639756E+01  0.59011958325E+02  0.41800000000E+01 0.  1.
         -5    1    3    3    0  502  0.35167788092E+02  0.27506713802E+02 -0.63769856222E+02  0.77958062996E+02  0.41800000000E+01 0.  1.
        -11    1    1    2    0    0  0.22834395982E+02 -0.22832358541E+02 -0.33546150285E+02  0.46562543266E+02  0.00000000000E+00 0. -1.
         11    1    1    2    0    0 -0.10645983517E+02  0.28925876081E+02  0.33324768742E+02  0.45393650259E+02  0.00000000000E+00 0.  1.
</event>
<event>
 7    1  0.2841804E-009  0.1896541E+03  0.7561462E-02  0.1158774E+00
         -1   -1    0    0    0  501 -0.00000000000E+00  0.00000000000E+00  0.55423785358E+02  0.55423785358E+02  0.00000000000E+00 0.  1.
          1   -1    0    0  501    0  0.00000000000E+00 -0.00000000000E+00 -0.91848660585E+03  0.91848660585E+03  0.00000000000E+00 0. -1.
         25    2    1    2    0    0  0.92717046319E+02 -0.13089941198E+03 -0.19911176753E+03  0.28464984151E+03  0.12509568166E+03 0.  0.
          5    1    3    3  502    0 -0.27267014248E+02 -0.16495630710E+02 -0.60521891582E+02  0.68527130826E+02  0.41800000000E+01 0. -1.
         -5    1    3    3    0  502  0.11998406057E+03 -0.11440378127E+03 -0.13858987595E+03  0.21612271068E+03  0.41800000000E+01 0. -1.
        -11    1    1    2    0    0 -0.10908606858E+03  0.11252200777E+03 -0.61241803606E+03  0.63215253182E+03  0.00000000000E+00 0. -1.
         11    1    1    2    0    0  0.16369022262E+02  0.18377404206E+02 -0.51533016902E+02  0.57108017880E+02  0.00000000000E+00 0.  1.
</event>
<event>
 7    1  0.2841804E-009  0.1107304E+03  0.7561462E-02  0.1259223E+00
          1   -1    0    0  501    0  0.00000000000E+00  0.00000000000E+00  0.86370991825E+03  0.86370991825E+03  0.00000000000E+00 0. -1.
         -1   -1    0    0    0  501 -0.00000000000E+00 -0.00000000000E+00 -0.19862535319E+02  0.19862535319E+02  0.00000000000E+00 0.  1.
         25    2    1    2    0    0 -0.17660132986E+02  0.37267971075E+02  0.67967749211E+03  0.69232156557E+03  0.12508746904E+03 0.  0.
          5    1    3    3  502    0  0.17652512438E+02 -0.37781235746E+02  0.34308234877E+03  0.34563275800E+03  0.41800000000E+01 0.  1.
         -5    1    3    3    0  502 -0.35312645424E+02  0.75049206821E+02  0.33659514334E+03  0.34668880757E+03  0.41800000000E+01 0.  1.
        -11    1    1    2    0    0 -0.19948968380E+02 -0.52319577175E+02  0.77818835240E+02  0.95870071520E+02  0.00000000000E+00 0.  1.
         11    1    1    2    0    0  0.37609101366E+02  0.15051606100E+02  0.86351055588E+02  0.95380816482E+02  0.00000000000E+00 0. -1.
</event>
<event>
 7    1  0.2841804E-009  0.1254191E+03  0.7561462E-02  0.1234416E+00
          2   -1    0    0  501    0  0.00000000000E+00  0.00000000000E+00  0.31351474174E+03  0.31351474174E+03  0.00000000000E+00 0.  1.
         -2   -1    0    0    0  501 -0.00000000000E+00 -0.00000000000E+00 -0.91512809824E+02  0.91512809824E+02  0.00000000000E+00 0. -1.
         25    2    1    2    0    0 -0.11508774331E+01 -0.11969172261E+03  0.14145486080E+03  0.22357208445E+03  0.12509023271E+03 0.  0.
          5    1    3    3  502    0  0.22959272749E+02 -0.58298449815E+02 -0.49000826510E+01  0.62986670542E+02  0.41800000000E+01 0.  1.
         -5    1    3    3    0  502 -0.24110150182E+02 -0.61393272792E+02  0.14635494345E+03  0.16058541391E+03  0.41800000000E+01 0.  1.
        -11    1    1    2    0    0  0.11696687879E+02  0.81353096106E+02  0.10608496725E+03  0.13419820800E+03  0.00000000000E+00 0.  1.
         11    1    1    2    0    0 -0.10545810446E+02  0.38338626501E+02 -0.25537896139E+02  0.47257259116E+02  0.00000000000E+00 0. -1.
</event>
<event>
 7    1  0.2841804E-009  0.1444298E+03  0.7561462E-02  0.1207490E+00
         -2   -1    0    0    0  501 -0.00000000000E+00  0.00000000000E+00  0.98307558974E+02  0.98307558974E+02  0.00000000000E+00 0.  1.
          2   -1    0    0  501    0  0.00000000000E+00 -0.00000000000E+00 -0.32387038141E+03  0.32387038141E+03  0.00000000000E+00 0. -1.
         25    2    1    2    0    0  0.15377284755E+02 -0.11630756263E+03 -0.27963787237E+02  0.17376035603E+03  0.12508708134E+03 0.  0.
          5    1    3    3  502    0  0.59529987879E+02 -0.16120769156E+02 -0.13154455461E+02  0.63199768619E+02  0.41800000000E+01 0.  1.
         -5    1    3    3    0  502 -0.44152703124E+02 -0.10018679348E+03 -0.14809331776E+02  0.11056058741E+03  0.41800000000E+01 0.  1.
        -11    1    1    2    0    0 -0.50554478041E+01  0.20350652878E+02  0.70751481695E+01  0.22130620115E+02  0.00000000000E+00 0.  1.
         11    1    1    2    0    0 -0.10321836951E+02  0.95956909756E+02 -0.20467418337E+03  0.22628696424E+03  0.00000000000E+00 0. -1.
</event>
<event>
 7    1  0.2841804E-009  0.1037046E+03  0.7561462E-02  0.1272693E+00
          1   -1    0    0  501    0  0.00000000000E+00  0.00000000000E+00  0.21732806840E+03  0.21732806840E+03  0.00000000000E+00 0. -1.
         -1   -1    0    0    0  501 -0.00000000000E+00 -0.00000000000E+00 -0.68870108110E+02  0.68870108110E+02  0.00000000000E+00 0.  1.
         25    2    1    2    0    0  0.59299445691E+02  0.56539266199E+01  0.89809716689E+02  0.16511080513E+03  0.12508957436E+03 0.  0.
          5    1    3    3  502    0  0.89916646457E+02  0.31804968666E+02  0.77002366679E+02  0.12265152350E+03  0.41800000000E+01 0.  1.
         -5    1    3    3    0  502 -0.30617200765E+02 -0.26151042046E+02  0.12807350010E+02  0.42459281637E+02  0.41800000000E+01 0.  1.
        -11    1    1    2    0    0 -0.92572712110E+01  0.14753076235E+02 -0.19453321269E+02  0.26110956265E+02  0.00000000000E+00 0.  1.
         11    1    1    2    0    0 -0.50042174480E+02 -0.20407002854E+02  0.78101564870E+02  0.94976415111E+02  0.00000000000E+00 0. -1.
</event>
<event>
 7    1  0.2841804E-009  0.1397548E+03  0.7561462E-02  0.1213659E+00
          2   -1    0    0  501    0  0.00000000000E+00  0.00000000000E+00  0.16215279299E+03  0.16215279299E+03  0.00000000000E+00 0. -1.
         -2   -1    0    0    0  501 -0.00000000000E+00 -0.00000000000E+00 -0.13326356527E+03  0.13326356527E+03  0.00000000000E+00 0.  1.
         25    2    1    2    0    0  0.88005477905E+02  0.38573783169E+02  0.26288165467E+02  0.15992457339E+03  0.12510755629E+03 0.  0.
          5    1    3    3  502    0 -0.57530039595E+01  0.50702711652E+02  0.39110142172E+02  0.64427770753E+02  0.41800000000E+01 0.  1.
         -5    1    3    3    0  502  0.93758481864E+02 -0.12128928483E+02 -0.12821976705E+02  0.95496802639E+02  0.41800000000E+01 0.  1.
        -11    1    1    2    0    0 -0.88687850924E+01 -0.52570771190E+02  0.11794458676E+02  0.54602660997E+02  0.00000000000E+00 0. -1.
         11    1    1    2    0    0 -0.79136692812E+02  0.13996988021E+02 -0.91933964218E+01  0.80889123871E+02  0.00000000000E+00 0.  1.
</event>
<event>
 7    1  0.2841804E-009  0.2068499E+03  0.7561462E-02  0.1144085E+00
          2   -1    0    0  501    0  0.00000000000E+00  0.00000000000E+00  0.47695273118E+03  0.47695273118E+03  0.00000000000E+00 0. -1.
         -2   -1    0    0    0  501 -0.00000000000E+00 -0.00000000000E+00 -0.10716336004E+03  0.10716336004E+03  0.00000000000E+00 0.  1.
         25    2    1    2    0    0  0.18808146036E+03 -0.49612223191E+02  0.23137198783E+03  0.32713289792E+03  0.12508768017E+03 0.  0.
          5    1    3    3  502    0  0.13508875373E+03 -0.49760491230E+02  0.23303582655E+03  0.27394935066E+03  0.41800000000E+01 0.  1.
         -5    1    3    3    0  502  0.52992706631E+02  0.14826803883E+00 -0.16638387268E+01  0.53183547257E+02  0.41800000000E+01 0.  1.
        -11    1    1    2    0    0 -0.12717873514E+03  0.78140635623E+02  0.95127684880E+02  0.17700188145E+03  0.00000000000E+00 0. -1.
         11    1    1    2    0    0 -0.60902725224E+02 -0.28528412432E+02  0.43289698431E+02  0.79981311853E+02  0.00000000000E+00 0.  1.
</event>
<event>
 7    1  0.2841804E-009  0.1576060E+03  0.7561462E-02  0.1191426E+00
          4   -1    0    0  501    0  0.00000000000E+00  0.00000000000E+00  0.12341316811E+03  0.12341316811E+03  0.00000000000E+00 0.  1.
         -4   -1    0    0    0  501 -0.00000000000E+00 -0.00000000000E+00 -0.26764689982E+03  0.26764689982E+03  0.00000000000E+00 0. -1.
         25    2    1    2    0    0 -0.98759804119E+01 -0.12666466489E+03 -0.15213549558E+03  0.23437806802E+03  0.12508556045E+03 0.  0.
          5    1    3    3  502    0 -0.57552711739E+02 -0.11554767541E+03 -0.10964491146E+03  0.16941977137E+03  0.41800000000E+01 0.  1.
         -5    1    3    3    0  502  0.47676731327E+02 -0.11116989474E+02 -0.42490584124E+02  0.64958296654E+02  0.41800000000E+01 0.  1.
        -11    1    1    2    0    0  0.22482083740E+02  0.21841951994E+02  0.35697801638E+02  0.47506294299E+02  0.00000000000E+00 0.  1.
         11    1    1    2    0    0 -0.12606103329E+02  0.10482271289E+03 -0.27796037771E+02  0.10917570561E+03  0.00000000000E+00 0. -1.
</event>
<event>
 7    1  0.2841804E-009  0.1156008E+03  0.7561462E-02  0.1250536E+00
          3   -1    0    0  501    0  0.00000000000E+00  0.00000000000E+00  0.20909805281E+02  0.20909805281E+02  0.00000000000E+00 0. -1.
         -3   -1    0    0    0  501 -0.00000000000E+00 -0.00000000000E+00 -0.82922910088E+03  0.82922910088E+03  0.00000000000E+00 0.  1.
         25    2    1    2    0    0 -0.15650099213E+02  0.47061034288E+02 -0.62475379052E+03  0.63908067186E+03  0.12508852794E+03 0.  0.
          5    1    3    3  502    0  0.12205426253E+02 -0.37542669362E+02 -0.11685854786E+03  0.12341724783E+03  0.41800000000E+01 0. -1.
         -5    1    3    3    0  502 -0.27855525466E+02  0.84603703649E+02 -0.50789524266E+03  0.51566342404E+03  0.41800000000E+01 0. -1.
        -11    1    1    2    0    0  0.21478475671E+02  0.23324939024E+02 -0.39844271635E+02  0.50920955212E+02  0.00000000000E+00 0. -1.
         11    1    1    2    0    0 -0.58283764580E+01 -0.70385973311E+02 -0.14372123344E+03  0.16013727908E+03  0.00000000000E+00 0.  1.
</event>
<event>
 7    1  0.2841804E-009  0.1031588E+03  0.7561462E-02  0.1273790E+00
          1   -1    0    0  501    0  0.00000000000E+00  0.00000000000E+00  0.28995872350E+03  0.28995872350E+03  0.00000000000E+00 0. -1.
         -1   -1    0    0    0  501 -0.00000000000E+00 -0.00000000000E+00 -0.45251706884E+02  0.45251706884E+02  0.00000000000E+00 0.  1.
         25    2    1    2    0    0  0.13530614015E+02  0.21202341233E+02  0.17229351938E+03  0.21438873084E+03  0.12507939200E+03 0.  0.
          5    1    3    3  502    0  0.45312348046E+02 -0.37900858515E+02  0.66603518343E+02  0.89124547782E+02  0.41800000000E+01 0. -1.
         -5    1    3    3    0  502 -0.31781734031E+02  0.59103199748E+02  0.10569000104E+03  0.12526418306E+03  0.41800000000E+01 0. -1.
        -11    1    1    2    0    0 -0.52554557352E+01 -0.49806361145E+02  0.75801700991E+02  0.90852580032E+02  0.00000000000E+00 0. -1.
         11    1    1    2    0    0 -0.82751582796E+01  0.28604019912E+02 -0.33882037527E+01  0.29969119512E+02  0.00000000000E+00 0.  1.
</event>
<event>
 7    1  0.2841804E-009  0.9870718E+02  0.7561462E-02  0.1283038E+00
          1   -1    0    0  501    0  0.00000000000E+00  0.00000000000E+00  0.11066393633E+03  0.11066393633E+03  0.00000000000E+00 0. -1.
         -1   -1    0    0    0  501 -0.00000000000E+00 -0.00000000000E+00 -0.11637200226E+03  0.11637200226E+03  0.00000000000E+00 0.  1.
         25    2    1    2    0    0 -0.75715014707E+01 -0.16327538790E+02 -0.15002052401E+02  0.12726634367E+03  0.12509094491E+03 0.  0.
          5    1    3    3  502    0  0.45582311175E+02 -0.45339450555E+02  0.12096468123E+01  0.64438719060E+02  0.41800000000E+01 0. -1.
         -5    1    3    3    0  502 -0.53153812646E+02  0.29011911765E+02 -0.16211699213E+02  0.62827624612E+02  0.41800000000E+01 0. -1.
        -11    1    1    2    0    0 -0.29158243721E+01 -0.27280365614E+02 -0.29631502499E+02  0.40382500172E+02  0.00000000000E+00 0.  1.
         11    1    1    2    0    0  0.10487325843E+02  0.43607904404E+02  0.38925488976E+02  0.59387094742E+02  0.00000000000E+00 0. -1.
</event>
<event>
 7    1  0.2841804E-009  0.1039595E+03  0.7561462E-02  0.1272183E+00
          4   -1    0    0  501    0  0.00000000000E+00  0.00000000000E+00  0.26738800904E+03  0.26738800904E+03  0.00000000000E+00 0. -1.
         -4   -1    0    0    0  501 -0.00000000000E+00 -0.00000000000E+00 -0.64743998082E+02  0.64743998082E+02  0.00000000000E+00 0.  1.
         25    2    1    2    0    0  0.20418277608E+02  0.61816363897E+02  0.62363026195E+02  0.15419432882E+03  0.12509426484E+03 0.  0.
          5    1    3    3  502    0  0.52261487530E+02  0.11997644525E+02  0.76255466518E+02  0.93314388638E+02  0.41800000000E+01 0.  1.
         -5    1    3    3    0  502 -0.31843209922E+02  0.49818719372E+02 -0.13892440323E+02  0.60879940178E+02  0.41800000000E+01 0.  1.
        -11    1    1    2    0    0 -0.32359643365E+02 -0.72147069909E+02  0.14150676401E+03  0.16210030992E+03  0.00000000000E+00 0. -1.
         11    1    1    2    0    0  0.11941365757E+02  0.10330706012E+02 -0.12257792422E+01  0.15837368392E+02  0.00000000000E+00 0.  1.
</event>
<event>
 7    1  0.2841804E-009  0.1532141E+03  0.7561462E-02  0.1196578E+00
          1   -1    0    0  501    0  0.00000000000E+00  0.00000000000E+00  0.33592759551E+03  0.33592759551E+03  0.00000000000E+00 0. -1.
         -1   -1    0    0    0  501 -0.00000000000E+00 -0.00000000000E+00 -0.84127712699E+02  0.84127712699E+02  0.00000000000E+00 0.  1.
         25    2    1    2    0    0 -0.10192325432E+03 -0.77034151647E+02  0.15096410981E+03  0.23400705671E+03  0.12508608975E+03 0.  0.
          5    1    3    3  502    0  0.13074213441E+02 -0.60902605446E+02  0.47935434297E+02  0.78710486394E+02  0.41800000000E+01 0. -1.
         -5    1    3    3    0  502 -0.11499746776E+03 -0.16131546201E+02  0.10302867551E+03  0.15529657031E+03  0.41800000000E+01 0. -1.
        -11    1    1    2    0    0  0.37444635001E+02  0.30226979003E+02 -0.10387487085E+02  0.49230791564E+02  0.00000000000E+00 0.  1.
         11    1    1    2    0    0  0.64478619314E+02  0.46807172643E+02  0.11122326008E+03  0.13681745993E+03  0.00000000000E+00 0. -1.
</event>
<event>
 7    1  0.2841804E-009  0.1104741E+03  0.7561462E-02  0.1259694E+00
         -1   -1    0    0    0  501 -0.00000000000E+00  0.00000000000E+00  0.45349086382E+02  0.45349086382E+02  0.00000000000E+00 0.  1.
          1   -1    0    0  501    0  0.00000000000E+00 -0.00000000000E+00 -0.52645905625E+03  0.52645905625E+03  0.00000000000E+00 0. -1.
         25    2    1    2    0    0  0.68738476573E+02 -0.13653526672E+02 -0.10224805718E+03  0.17610838932E+03  0.12509237642E+03 0.  0.
          5    1    3    3  502    0  0.53705281758E+02 -0.47184088824E+02 -0.11627239930E+03  0.13655525902E+03  0.41800000000E+01 0. -1.
         -5    1    3    3    0  502  0.15033194816E+02  0.33530562152E+02  0.14024342119E+02  0.39553130299E+02  0.41800000000E+01 0. -1.
        -11    1    1    2    0    0  0.43863601539E+01  0.35707710271E+02 -0.90350377408E+02  0.97249531752E+02  0.00000000000E+00 0.  1.
         11    1    1    2    0    0 -0.73124836727E+02 -0.22054183599E+02 -0.28851153527E+03  0.29845022156E+03  0.00000000000E+00 0. -1.
</event>
<event>
 7    1  0.2841804E-009  0.1338278E+03  0.7561462E-02  0.1221884E+00
          3   -1    0    0  501    0  0.00000000000E+00  0.00000000000E+00  0.23033001166E+03  0.23033001166E+03  0.00000000000E+00 0. -1.
         -3   -1    0    0    0  501 -0.00000000000E+00 -0.00000000000E+00 -0.15802268112E+03  0.15802268112E+03  0.00000000000E+00 0.  1.
         25    2    1    2    0    0 -0.91094116580E+02 -0.76834460994E+02  0.14101381589E+03  0.22301088036E+03  0.12508910429E+03 0.  0.
          5    1    3    3  502    0 -0.26777921633E+02 -0.56010287800E+02  0.14225388813E+03  0.15526702971E+03  0.41800000000E+01 0.  1.
         -5    1    3    3    0  502 -0.64316194947E+02 -0.20824173193E+02 -0.12400722335E+01  0.67743850650E+02  0.41800000000E+01 0.  1.
        -11    1    1    2    0    0  0.77335290367E+01  0.49310517725E+02 -0.58598532004E+02  0.76974817848E+02  0.00000000000E+00 0.  1.
         11    1    1    2    0    0  0.83360587543E+02  0.27523943269E+02 -0.10107953350E+02  0.88366994571E+02  0.00000000000E+00 0. -1.
</event>
<event>
 7    1  0.2841804E-009  0.1332838E+03  0.7561462E-02  0.1222663E+00
         -2   -1    0    0    0  501 -0.00000000000E+00  0.00000000000E+00  0.17402772456E+03  0.17402772456E+03  0.00000000000E+00 0.  1.
          2   -1    0    0  501    0  0.00000000000E+00 -0.00000000000E+00 -0.13486661410E+03  0.13486661410E+03  0.00000000000E+00 0. -1.
         25    2    1    2    0    0 -0.61623153903E+02 -0.85661357222E+02 -0.24156935279E+01  0.16366040717E+03  0.12507442617E+03 0.  0.
          5    1    3    3  502    0 -0.13887273824E+02 -0.10697293329E+03 -0.16868139218E+02  0.10926148156E+03  0.41800000000E+01 0. -1.
         -5    1    3    3    0  502 -0.47735880080E+02  0.21311576070E+02  0.14452445690E+02  0.54398925614E+02  0.41800000000E+01 0. -1.
        -11    1    1    2    0    0  0.47008588613E+02  0.73050637820E+02  0.69526649082E+02  0.11126615848E+03  0.00000000000E+00 0.  1.
         11    1    1    2    0    0  0.14614565290E+02  0.12610719402E+02 -0.27949845100E+02  0.33967773015E+02  0.00000000000E+00 0. -1.
</event>
<event>
 7    1  0.2841804E-009  0.8710381E+02  0.7561462E-02  0.1310021E+00
         -2   -1    0    0    0  501 -0.00000000000E+00  0.00000000000E+00  0.12352785669E+03  0.12352785669E+03  0.00000000000E+00 0.  1.
          2   -1    0    0  501    0  0.00000000000E+00 -0.00000000000E+00 -0.10156201503E+03  0.10156201503E+03  0.00000000000E+00 0. -1.
         25    2    1    2    0    0 -0.53452019182E+01 -0.96050341850E+01  0.46857815481E+02  0.13403977553E+03  0.12510067420E+03 0.  0.
          5    1    3    3  502    0  0.32645358806E+02 -0.34789476605E+02 -0.20915165529E+02  0.52258431694E+02  0.41800000000E+01 0.  1.
         -5    1    3    3    0  502 -0.37990560724E+02  0.25184442420E+02  0.67772981010E+02  0.81781343833E+02  0.41800000000E+01 0.  1.
        -11    1    1    2    0    0  0.32470545361E+02  0.31836493082E+02 -0.31556530791E+02  0.55350819717E+02  0.00000000000E+00 0. -1.
         11    1    1    2    0    0 -0.27125343442E+02 -0.22231458897E+02  0.66645569659E+01  0.35699276479E+02  0.00000000000E+00 0.  1.
</event>
<event>
 7    1  0.2841804E-009  0.2199857E+03  0.7561462E-02  0.1133894E+00
          2   -1    0    0  501    0  0.00000000000E+00  0.00000000000E+00  0.37117483909E+03  0.37117483909E+03  0.00000000000E+00 0. -1.
         -2   -1    0    0    0  501 -0.00000000000E+00 -0.00000000000E+00 -0.14016496747E+03  0.14016496747E+03  0.00000000000E+00 0.  1.
         25    2    1    2    0    0 -0.19768806982E+03 -0.17183832924E+02  0.93671972666E+02  0.25258092486E+03  0.12508728184E+03 0.  0.
          5    1    3    3  502    0 -0.97887105285E+01  0.29208655936E+02 -0.10414689059E+02  0.32785707001E+02  0.41800000000E+01 0. -1.
         -5    1    3    3    0  502 -0.18789935929E+03 -0.46392488860E+02  0.10408666173E+03  0.21979521786E+03  0.41800000000E+01 0. -1.
        -11    1    1    2    0    0  0.11904844894E+03  0.51230412597E+02  0.10628905421E+03  0.16761399529E+03  0.00000000000E+00 0.  1.
         11    1    1    2    0    0  0.78639620878E+02 -0.34046579672E+02  0.31048844742E+02  0.91144886412E+02  0.00000000000E+00 0. -1.
</event>
<event>
 7    1  0.2841804E-009  0.1232462E+03  0.7561462E-02  0.1237836E+00
         -1   -1    0    0    0  501 -0.00000000000E+00  0.00000000000E+00  0.86231995900E+02  0.86231995900E+02  0.00000000000E+00 0.  1.
          1   -1    0    0  501    0  0.00000000000E+00 -0.00000000000E+00 -0.22898742421E+03  0.22898742421E+03  0.00000000000E+00 0. -1.
         25    2    1    2    0    0  0.16177992145E+02  0.85249634590E+02 -0.50738057479E+02  0.16047152113E+03  0.12509009149E+03 0.  0.
          5    1    3    3  502    0 -0.58255244241E+01  0.10952874606E+03 -0.13334252282E+02  0.11057014802E+03  0.41800000000E+01 0.  1.
         -5    1    3    3    0  502  0.22003516569E+02 -0.24279111471E+02 -0.37403805197E+02  0.49901373112E+02  0.41800000000E+01 0.  1.
        -11    1    1    2    0    0  0.18803000582E+02 -0.52550504428E+02 -0.91120428203E+02  0.10685523283E+03  0.00000000000E+00 0. -1.
         11    1    1    2    0    0 -0.34980992728E+02 -0.32699130162E+02 -0.89694263171E+00  0.47892666157E+02  0.00000000000E+00 0.  1.
</event>
<event>
 7    1  0.2841804E-009  0.1229446E+03  0.7561462E-02  0.1238317E+00
         -2   -1    0    0    0  501 -0.00000000000E+00  0.00000000000E+00  0.26646596557E+03  0.26646596557E+03  0.00000000000E+00 0.  1.
          2   -1    0    0  501    0  0.00000000000E+00 -0.00000000000E+00 -0.92411009934E+02  0.92411009934E+02  0.00000000000E+00 0. -1.
         25    2    1    2    0    0  0.36104906184E+02 -0.63498754288E+02 -0.29677657304E+01  0.14488571602E+03  0.12508959600E+03 0.  0.
          5    1    3    3  502    0 -0.13930970958E+02  0.25928711912E+02 -0.26314970937E+02  0.39702898492E+02  0.41800000000E+01 0. -1.
         -5    1    3    3    0  502  0.50035877142E+02 -0.89427466200E+02  0.23347205206E+02  0.10518281753E+03  0.41800000000E+01 0. -1.
        -11    1    1    2    0    0 -0.63155317019E+02  0.58512289439E+02  0.98669426147E+02  0.13095013455E+03  0.00000000000E+00 0. -1.
         11    1    1    2    0    0  0.27050410835E+02  0.49864648491E+01  0.78353295215E+02  0.83041124926E+02  0.00000000000E+00 0.  1.
</event>
<event>
 7    1  0.2841804E-009  0.1222981E+03  0.7561462E-02  0.1239353E+00
         -2   -1    0    0    0  501 -0.00000000000E+00  0.00000000000E+00  0.80792746210E+02  0.80792746210E+02  0.00000000000E+00 0.  1.
          2   -1    0    0  501    0  0.00000000000E+00 -0.00000000000E+00 -0.28361417229E+03  0.28361417229E+03  0.00000000000E+00 0. -1.
         25    2    1    2    0    0 -0.57660913972E+02  0.39175320378E+02 -0.21018122974E+03  0.25432880376E+03  0.12508998505E+03 0.  0.
          5    1    3    3  502    0 -0.37958443730E+02 -0.43241772347E+02 -0.97321143051E+02  0.11313519174E+03  0.41800000000E+01 0. -1.
         -5    1    3    3    0  502 -0.19702470242E+02  0.82417092725E+02 -0.11286008669E+03  0.14119361202E+03  0.41800000000E+01 0. -1.
        -11    1    1    2    0    0 -0.71324072885E+01 -0.36526164403E+02  0.22497068916E+02  0.43487354823E+02  0.00000000000E+00 0.  1.
         11    1    1    2    0    0  0.64793321261E+02 -0.26491559754E+01 -0.15137265263E+02  0.66590759922E+02  0.00000000000E+00 0. -1.
</event>
<event>
 7    1  0.2841804E-009  0.1167384E+03  0.7561462E-02  0.1248577E+00
          2   -1    0    0  501    0  0.00000000000E+00  0.00000000000E+00  0.43664583672E+03  0.43664583672E+03  0.00000000000E+00 0. -1.
         -2   -1    0    0    0  501 -0.00000000000E+00 -0.00000000000E+00 -0.33863349542E+02  0.33863349542E+02  0.00000000000E+00 0.  1.
         25    2    1    2    0    0  0.33887699039E+02  0.28113009065E+02  0.28878140888E+03  0.31777068337E+03  0.12507912562E+03 0.  0.
          5    1    3    3  502    0  0.39756960243E+02 -0.44079595937E+02  0.14455754839E+03  0.15632652962E+03  0.41800000000E+01 0.  1.
         -5    1    3    3    0  502 -0.58692612032E+01  0.72192605002E+02  0.14422386049E+03  0.16144415375E+03  0.41800000000E+01 0.  1.
        -11    1    1    2    0    0 -0.51702894740E+00  0.32351903786E+02  0.41273474236E+02  0.52444376944E+02  0.00000000000E+00 0.  1.
         11    1    1    2    0    0 -0.33370670092E+02 -0.60464912851E+02  0.72727604058E+02  0.10029412595E+03  0.00000000000E+00 0. -1.
</event>
<event>
 6    1  0.2841804E-009  0.9745183E+02  0.7561462E-02  0.1285748E+00
         -2   -1    0    0    0  501 -0.00000000000E+00  0.00000000000E+00  0.60382467406E+02  0.60382467406E+02  0.00000000000E+00 0.  1.
          2   -1    0    0  501    0  0.00000000000E+00 -0.00000000000E+00 -0.32833934298E+03  0.32833934298E+03  0.00000000000E+00 0. -1.
          5    1    1    2  502    0  0.27920859649E+02  0.37029811984E+02 -0.59652584789E+01  0.46945053923E+02  0.41800000000E+01 0. -1.
         -5    1    1    2    0  502  0.40029502058E+02 -0.10712454649E+01 -0.21194817913E+03  0.21573829432E+03  0.41800000000E+01 0. -1.
        -11    1    1    2    0    0 -0.36721210833E+02 -0.58843273577E+02 -0.52877764295E+02  0.87218324492E+02  0.00000000000E+00 0. -1.
         11    1    1    2    0    0 -0.31229150873E+02  0.22884707058E+02  0.28343263270E+01  0.38820137649E+02  0.00000000000E+00 0.  1.
</event>
<event>
 7    1  0.2841804E-009  0.2165362E+03  0.7561462E-02  0.1136492E+00
         -1   -1    0    0    0  501 -0.00000000000E+00  0.00000000000E+00  0.35173428276E+03  0.35173428276E+03  0.00000000000E+00 0.  1.
          1   -1    0    0  501    0  0.00000000000E+00 -0.00000000000E+00 -0.15427706065E+03  0.15427706065E+03  0.00000000000E+00 0. -1.
         25    2    1    2    0    0 -0.18773055451E+03 -0.29191112249E+02  0.18840500774E+03  0.29536167850E+03  0.12508873670E+03 0.  0.
          5    1    3    3  502    0 -0.16932330649E+03 -0.69402266467E+02  0.15080994829E+03  0.23716696569E+03  0.41800000000E+01 0.  1.
         -5    1    3    3    0  502 -0.18407248026E+02  0.40211154218E+02  0.37595059456E+02  0.58194712809E+02  0.41800000000E+01 0.  1.
        -11    1    1    2    0    0  0.63591172257E+02 -0.27320884905E+02  0.24410960523E+02  0.73390482589E+02  0.00000000000E+00 0.  1.
         11    1    1    2    0    0  0.12413938226E+03  0.56511997153E+02 -0.15358746150E+02  0.13725918233E+03  0.00000000000E+00 0. -1.
</event>
<event>
 7    1  0.2841804E-009  0.8552946E+02  0.7561462E-02  0.1314054E+00
          1   -1    0    0  501    0  0.00000000000E+00  0.00000000000E+00  0.36220320851E+03  0.36220320851E+03  0.00000000000E+00 0. -1.
         -1   -1    0    0    0  501 -0.00000000000E+00 -0.00000000000E+00 -0.51486417219E+02  0.51486417219E+02  0.00000000000E+00 0.  1.
         25    2    1    2    0    0  0.29992835618E+02  0.22944939692E+02  0.27908348815E+03  0.30815471156E+03  0.12508274242E+03 0.  0.
          5    1    3    3  502    0  0.68513031638E+02 -0.21244768313E+02  0.15706119924E+03  0.17271672875E+03  0.41800000000E+01 0. -1.
         -5    1    3    3    0  502 -0.38520196020E+02  0.44189708004E+02  0.12202228892E+03  0.13543798281E+03  0.41800000000E+01 0. -1.
        -11    1    1    2    0    0 -0.11644215815E+02 -0.17989441182E+02 -0.32341462758E+02  0.38796623169E+02  0.00000000000E+00 0.  1.
         11    1    1    2    0    0 -0.18348619804E+02 -0.49554985095E+01  0.63974765891E+02  0.66738290996E+02  0.00000000000E+00 0. -1.
</event>
<event>
 7    1  0.2841804E-009  0.1590525E+03  0.7561462E-02  0.1189771E+00
         -2   -1    0    0    0  501 -0.00000000000E+00  0.00000000000E+00  0.31248484426E+02  0.31248484426E+02  0.00000000000E+00 0.  1.
          2   -1    0    0  501    0  0.00000000000E+00 -0.00000000000E+00 -0.17478496931E+04  0.17478496931E+04  0.00000000000E+00 0. -1.
         25    2    1    2    0    0 -0.57660948127E+01 -0.12858542254E+03 -0.15016134600E+04  0.15123022978E+04  0.12509115864E+03 0.  0.
          5    1    3    3  502    0  0.44457345198E+02 -0.22724638097E+02 -0.74243961806E+03  0.74412829779E+03  0.41800000000E+01 0.  1.
         -5    1    3    3    0  502 -0.50223440011E+02 -0.10586078444E+03 -0.75917384193E+03  0.76817400000E+03  0.41800000000E+01 0.  1.
        -11    1    1    2    0    0  0.39732855386E+02  0.95068787742E+02 -0.10603808030E+03  0.14785414662E+03  0.00000000000E+00 0.  1.
         11    1    1    2    0    0 -0.33966760573E+02  0.33516634798E+02 -0.10894966837E+03  0.11894173309E+03  0.00000000000E+00 0. -1.
</event>
<event>
 7    1  0.2841804E-009  0.1073228E+03  0.7561462E-02  0.1265609E+00
          1   -1    0    0  501    0  0.00000000000E+00  0.00000000000E+00  0.12610068269E+03  0.12610068269E+03  0.00000000000E+00 0. -1.
         -1   -1    0    0    0  501 -0.00000000000E+00 -0.00000000000E+00 -0.12897454406E+03  0.12897454406E+03  0.00000000000E+00 0.  1.
         25    2    1    2    0    0 -0.31872077867E+02 -0.59052902041E+02 -0.62737918068E+01  0.14208971528E+03  0.12508817745E+03 0.  0.
          5    1    3    3  502    0  0.42260855319E+02 -0.47315781638E+02 -0.17836212042E+02  0.66033067052E+02  0.41800000000E+01 0. -1.
         -5    1    3    3    0  502 -0.74132933187E+02 -0.11737120403E+02  0.11562420235E+02  0.76056648229E+02  0.41800000000E+01 0. -1.
        -11    1    1    2    0    0 -0.56518254047E+01  0.23613694696E+02  0.42014337031E+02  0.48525809872E+02  0.00000000000E+00 0. -1.
         11    1    1    2    0    0  0.37523903272E+02  0.35439207344E+02 -0.38614406596E+02  0.64459701603E+02  0.00000000000E+00 0.  1.
</event>
<event>
 6    1  0.2841804E-009  0.9385310E+02  0.7561462E-02  0.1293780E+00
         -1   -1    0    0    0  501 -0.00000000000E+00  0.00000000000E+00  0.21966940178E+02  0.21966940178E+02  0.00000000000E+00 0.  1.
          1   -1    0    0  501    0  0.00000000000E+00 -0.00000000000E+00 -0.61808919122E+03  0.61808919122E+03  0.00000000000E+00 0. -1.
          5    1    1    2  502    0  0.27727679525E+02 -0.58945597658E+02 -0.35533148446E+03  0.36127737812E+03  0.41800000000E+01 0.  1.
         -5    1    1    2    0  502  0.14610031895E+01  0.23710380614E+02 -0.74896164495E+01  0.25256354324E+02  0.41800000000E+01 0.  1.
        -11    1    1    2    0    0 -0.42762954055E+02 -0.15733231102E+02 -0.91227206996E+02  0.10197356568E+03  0.00000000000E+00 0. -1.
         11    1    1    2    0    0  0.13574271340E+02  0.50968448147E+02 -0.14207394314E+03  0.15154883328E+03  0.00000000000E+00 0.  1.
</event>
<event>
 7    1  0.2841804E-009  0.1816637E+03  0.7561462E-02  0.1166203E+00
         -1   -1    0    0    0  501 -0.00000000000E+00  0.00000000000E+00  0.12368532170E+04  0.12368532170E+04  0.00000000000E+00 0.  1.
          1   -1    0    0  501    0  0.00000000000E+00 -0.00000000000E+00 -0.29132164898E+02  0.29132164898E+02  0.00000000000E+00 0. -1.
         25    2    1    2    0    0  0.14086593973E+03 -0.55013394339E+02  0.74322862659E+03  0.76870410548E+03  0.12509006305E+03 0.  0.
          5    1    3    3  502    0  0.40317768917E+02 -0.75126519487E+02  0.45026943657E+03  0.45828981478E+03  0.41800000000E+01 0. -1.
         -5    1    3    3    0  502  0.10054817081E+03  0.20113125148E+02  0.29295919001E+03  0.31041429070E+03  0.41800000000E+01 0. -1.
        -11    1    1    2    0    0 -0.10297250258E+03 -0.64044162229E+01  0.23348618007E+03  0.25526486072E+03  0.00000000000E+00 0. -1.
         11    1    1    2    0    0 -0.37893437154E+02  0.61417810562E+02  0.23100624548E+03  0.24201641574E+03  0.00000000000E+00 0.  1.
</event>
<event>
 7    1  0.2841804E-009  0.1077572E+03  0.7561462E-02  0.1264780E+00
         -1   -1    0    0    0  501 -0.00000000000E+00  0.00000000000E+00  0.19894586312E+03  0.19894586312E+03  0.00000000000E+00 0.  1.
          1   -1    0    0  501    0  0.00000000000E+00 -0.00000000000E+00 -0.97283521867E+02  0.97283521867E+02  0.00000000000E+00 0. -1.
         25    2    1    2    0    0 -0.20184841011E+02 -0.76279820701E+02  0.96740942509E+02  0.17672905154E+03  0.12509320064E+03 0.  0.
          5    1    3    3  502    0  0.66485123499E+01 -0.67544483556E+02 -0.77260780601E+01  0.68437012337E+02  0.41800000000E+01 0. -1.
         -5    1    3    3    0  502 -0.26833353361E+02 -0.87353371445E+01  0.10446702057E+03  0.10829203920E+03  0.41800000000E+01 0. -1.
        -11    1    1    2    0    0  0.26279282196E+02  0.95382431245E+02  0.78006481076E+01  0.99243432900E+02  0.00000000000E+00 0. -1.
         11    1    1    2    0    0 -0.60944411856E+01 -0.19102610544E+02 -0.28792493634E+01  0.20256900549E+02  0.00000000000E+00 0.  1.
</event>
<event>
 7    1  0.2841804E-009  0.9203212E+02  0.7561462E-02  0.1298004E+00
          2   -1    0    0  501    0  0.00000000000E+00  0.00000000000E+00  0.12390786447E+03  0.12390786447E+03  0.00000000000E+00 0. -1.
         -2   -1    0    0    0  501 -0.00000000000E+00 -0.00000000000E+00 -0.12247250227E+03  0.12247250227E+03  0.00000000000E+00 0.  1.
         25    2    1    2    0    0 -0.45959149706E+02  0.36788377468E+02 -0.57527451941E+01  0.13836990093E+03  0.12508999659E+03 0.  0.
          5    1    3    3  502    0 -0.11388000546E+02 -0.11633314535E+02 -0.57190981152E+02  0.59609573800E+02  0.41800000000E+01 0. -1.
         -5    1    3    3    0  502 -0.34571149160E+02  0.48421692003E+02  0.51438235958E+02  0.78760327127E+02  0.41800000000E+01 0. -1.
        -11    1    1    2    0    0  0.71633542582E+02 -0.39490056125E+02  0.29652078464E+01  0.81851215099E+02  0.00000000000E+00 0. -1.
         11    1    1    2    0    0 -0.25674392876E+02  0.27016786574E+01  0.42228995470E+01  0.26159250710E+02  0.00000000000E+00 0.  1.
</event>
<event>
 7    1  0.2841804E-009  0.1462735E+03  0.7561462E-02  0.1205128E+00
          2   -1    0    0  501    0  0.00000000000E+00  0.00000000000E+00  0.82868135818E+02  0.82868135818E+02  0.00000000000E+00 0. -1.
         -2   -1    0    0    0  501 -0.00000000000E+00 -0.00000000000E+00 -0.42080766857E+03  0.42080766857E+03  0.00000000000E+00 0.  1.
         25    2    1    2    0    0 -0.13260224919E+03 -0.45915827084E+02 -0.25703909460E+03  0.31844457820E+03  0.12508490543E+03 0.  0.
          5    1    3    3  502    0 -0.37032653392E+02  0.50719679424E+01 -0.18382971879E+03  0.18763789646E+03  0.41800000000E+01 0.  1.
         -5    1    3    3    0  502 -0.95569595800E+02 -0.50987795026E+02 -0.73209375808E+02  0.13080668175E+03  0.41800000000E+01 0.  1.
        -11    1    1    2    0    0  0.11855774345E+03  0.54058157919E+02 -0.96943284932E+02  0.16240758437E+03  0.00000000000E+00 0. -1.
         11    1    1    2    0    0  0.14044505744E+02 -0.81423308358E+01  0.16042846775E+02  0.22823641814E+02  0.00000000000E+00 0.  1.
</event>
<event>
 7    1  0.2841804E-009  0.1053866E+03  0.7561462E-02  0.1269360E+00
          2   -1    0    0  501    0  0.00000000000E+00  0.00000000000E+00  0.92882293651E+03  0.92882293651E+03  0.00000000000E+00 0. -1.
         -2   -1    0    0    0  501 -0.00000000000E+00 -0.00000000000E+00 -0.19209440237E+02  0.19209440237E+02  0.00000000000E+00 0.  1.
         25    2    1    2    0    0 -0.26631862653E+02  0.61795336493E+02  0.66216298209E+03  0.67722596489E+03  0.12508906011E+03 0.  0.
          5    1    3    3  502    0  0.29471216614E+02 -0.24737288568E+02  0.16829676515E+03  0.17268977855E+03  0.41800000000E+01 0. -1.
         -5    1    3    3    0  502 -0.56103079267E+02  0.86532625062E+02  0.49386621693E+03  0.50453618635E+03  0.41800000000E+01 0. -1.
        -11    1    1    2    0    0  0.18121383905E+01 -0.21184941175E+02  0.26554402032E+01  0.21427480972E+02  0.00000000000E+00 0.  1.
         11    1    1    2    0    0  0.24819724263E+02 -0.40610395319E+02  0.24479507399E+03  0.24937893088E+03  0.00000000000E+00 0. -1.
</event>
<event>
 7    1  0.2841804E-009  0.1458307E+03  0.7561462E-02  0.1205692E+00
         -2   -1    0    0    0  501 -0.00000000000E+00  0.00000000000E+00  0.31074789558E+02  0.31074789558E+02  0.00000000000E+00 0.  1.
          2   -1    0    0  501    0  0.00000000000E+00 -0.00000000000E+00 -0.12635850736E+04  0.12635850736E+04  0.00000000000E+00 0. -1.
         25    2    1    2    0    0  0.13063399400E+03 -0.18022021456E+02 -0.97124894505E+03  0.98811128088E+03  0.12509738809E+03 0.  0.
          5    1    3    3  502    0  0.60790754629E+02  0.12368825658E+02 -0.77603806498E+03  0.77852492214E+03  0.41800000000E+01 0.  1.
         -5    1    3    3    0  502  0.69843239370E+02 -0.30390847114E+02 -0.19521088007E+03  0.20958635874E+03  0.41800000000E+01 0.  1.
        -11    1    1    2    0    0 -0.13503477431E+03  0.31807351860E+02 -0.19871746255E+03  0.24235248673E+03  0.00000000000E+00 0.  1.
         11    1    1    2    0    0  0.44007803103E+01 -0.13785330404E+02 -0.62543876436E+02  0.64196095530E+02  0.00000000000E+00 0. -1.
</event>
<event>
 7    1  0.2841804E-009  0.1252436E+03  0.7561462E-02  0.1234689E+00
          2   -1    0    0  501    0  0.00000000000E+00  0.00000000000E+00  0.60795698553E+03  0.60795698553E+03  0.00000000000E+00 0. -1.
         -2   -1    0    0    0  501 -0.00000000000E+00 -0.00000000000E+00 -0.33105884768E+02  0.33105884768E+02  0.00000000000E+00 0.  1.
         25    2    1    2    0    0 -0.38723121916E+02 -0.50790076550E+02  0.16625495242E+03  0.21763977779E+03  0.12508897483E+03 0.  0.
          5    1    3    3  502    0 -0.83374163092E+01  0.41385749457E+02  0.39729540443E+02  0.58122298239E+02  0.41800000000E+01 0. -1.
         -5    1    3    3    0  502 -0.30385705607E+02 -0.92175826007E+02  0.12652541198E+03  0.15951747955E+03  0.41800000000E+01 0. -1.
        -11    1    1    2    0    0  0.44389484281E+02  0.74401277366E+02  0.30972803691E+03  0.32161690446E+03  0.00000000000E+00 0.  1.
         11    1    1    2    0    0 -0.56663623655E+01 -0.23611200816E+02  0.98868111426E+02  0.10180618804E+03  0.00000000000E+00 0. -1.
</event>
<event>
 7    1  0.2841804E-009  0.1729792E+03  0.7561462E-02  0.1174776E+00
         -1   -1    0    0    0  501 -0.00000000000E+00  0.00000000000E+00  0.20545766724E+02  0.20545766724E+02  0.00000000000E+00 0.  1.
          1   -1    0    0  501    0  0.00000000000E+00 -0.00000000000E+00 -0.15318323373E+04  0.15318323373E+04  0.00000000000E+00 0. -1.
         25    2    1    2    0    0 -0.13298397605E+03 -0.41420180514E+02 -0.72787005717E+03  0.75156027873E+03  0.12509061995E+03 0.  0.
          5    1    3    3  502    0 -0.17448883201E+02  0.36931625206E+02 -0.26229720310E+03  0.26549143794E+03  0.41800000000E+01 0. -1.
         -5    1    3    3    0  502 -0.11553509285E+03 -0.78351805720E+02 -0.46557285407E+03  0.48606884079E+03  0.41800000000E+01 0. -1.
        -11    1    1    2    0    0  0.95887836597E+02  0.69741434658E+02 -0.52520988510E+03  0.53842712443E+03  0.00000000000E+00 0.  1.
         11    1    1    2    0    0  0.37096139457E+02 -0.28321254144E+02 -0.25820662829E+03  0.26239070085E+03  0.00000000000E+00 0. -1.
</event>
<event>
 7    1  0.2841804E-009  0.1034191E+03  0.7561462E-02  0.1273266E+00
          1   -1    0    0  501    0  0.00000000000E+00  0.00000000000E+00  0.11316125011E+03  0.11316125011E+03  0.00000000000E+00 0. -1.
         -1   -1    0    0    0  501 -0.00000000000E+00 -0.00000000000E+00 -0.18278013534E+03  0.18278013534E+03  0.00000000000E+00 0.  1.
         25    2    1    2    0    0  0.79448322250E+02  0.43823679189E+02 -0.62112888040E+02  0.16654778154E+03  0.12509037497E+03 0.  0.
          5    1    3    3  502    0  0.57019731418E+02  0.35878482309E+02 -0.10057654267E+03  0.12112649834E+03  0.41800000000E+01 0.  1.
         -5    1    3    3    0  502  0.22428590832E+02  0.79451968795E+01  0.38463654631E+02  0.45421283202E+02  0.41800000000E+01 0.  1.
        -11    1    1    2    0    0 -0.75762276917E+02 -0.61215964442E+02  0.17246525184E+02  0.98917943453E+02  0.00000000000E+00 0. -1.
         11    1    1    2    0    0 -0.36860453327E+01  0.17392285253E+02 -0.24752522370E+02  0.30475660455E+02  0.00000000000E+00 0.  1.
</event>
<event>
 7    1  0.3330948E-009  0.1072330E+03  0.7561462E-02  0.1265782E+00
          2   -1    0    0  501    0  0.00000000000E+00  0.00000000000E+00  0.36658293653E+03  0.36658293653E+03  0.00000000000E+00 0. -1.
         -2   -1    0    0    0  501 -0.00000000000E+00 -0.00000000000E+00 -0.56267242569E+02  0.56267242569E+02  0.00000000000E+00 0.  1.
         25    2    1    2    0    0  0.14139333002E+02 -0.71824932301E+02  0.82378959161E+02  0.16671081547E+03  0.12508981351E+03 0.  0.
          5    1    3    3  502    0 -0.34125436314E+02 -0.14844251962E+02  0.83927684258E+02  0.91903350346E+02  0.41800000000E+01 0.  1.
         -5    1    3    3    0  502  0.48264769316E+02 -0.56980680339E+02 -0.15487250974E+01  0.74807465126E+02  0.41800000000E+01 0.  1.
        -11    1    1    2    0    0 -0.41866498869E+02  0.28000149222E+02  0.17471289363E+03  0.18182796068E+03  0.00000000000E+00 0.  1.
         11    1    1    2    0    0  0.27727165867E+02  0.43824783079E+02  0.53223841166E+02  0.74311402943E+02  0.00000000000E+00 0. -1.
</event>
<event>
 7    1  0.2841804E-009  0.9946628E+02  0.7561462E-02  0.1281422E+00
          1   -1    0    0  501    0  0.00000000000E+00  0.00000000000E+00  0.14540351800E+04  0.14540351800E+04  0.00000000000E+00 0. -1.
         -1   -1    0    0    0  501 -0.00000000000E+00 -0.00000000000E+00 -0.13103724982E+02  0.13103724982E+02  0.00000000000E+00 0.  1.
         25    2    1    2    0    0  0.46262018360E+02  0.40606357712E+02  0.10920854069E+04  0.11009482397E+04  0.12508972762E+03 0.  0.
          5    1    3    3  502    0  0.33908854343E+02  0.73296951348E+02  0.40682917552E+03  0.41478874615E+03  0.41800000000E+01 0.  1.
         -5    1    3    3    0  502  0.12353164017E+02 -0.32690593637E+02  0.68525623138E+03  0.68615949357E+03  0.41800000000E+01 0.  1.
        -11    1    1    2    0    0  0.90789634720E+01 -0.23106519098E+02  0.18961850977E+02  0.31239247671E+02  0.00000000000E+00 0.  1.
         11    1    1    2    0    0 -0.55340981832E+02 -0.17499838613E+02  0.32988419718E+03  0.33495141763E+03  0.00000000000E+00 0. -1.
</event>
<event>
 7    1  0.2841804E-009  0.8890395E+02  0.7561462E-02  0.1305528E+00
          2   -1    0    0  501    0  0.00000000000E+00  0.00000000000E+00  0.42225330894E+03  0.42225330894E+03  0.00000000000E+00 0. -1.
         -2   -1    0    0    0  501 -0.00000000000E+00 -0.00000000000E+00 -0.36518249585E+02  0.36518249585E+02  0.00000000000E+00 0.  1.
         25    2    1    2    0    0 -0.33825389154E+02 -0.48745099867E+02  0.19975766494E+03  0.24303928710E+03  0.12507888975E+03 0.  0.
          5    1    3    3  502    0 -0.44873217084E+02 -0.23168882795E+02  0.10569111907E+02  0.51764672006E+02  0.41800000000E+01 0.  1.
         -5    1    3    3    0  502  0.11047827930E+02 -0.25576217072E+02  0.18918855303E+03  0.19127461510E+03  0.41800000000E+01 0.  1.
        -11    1    1    2    0    0  0.17152217204E+02  0.69929784474E+02  0.16944301905E+03  0.18410678971E+03  0.00000000000E+00 0. -1.
         11    1    1    2    0    0  0.16673171950E+02 -0.21184684607E+02  0.16534375357E+02  0.31625481707E+02  0.00000000000E+00 0.  1.
</event>
<event>
 7    1  0.2841804E-009  0.6836601E+02  0.7561462E-02  0.1365739E+00
         -1   -1    0    0    0  501 -0.00000000000E+00  0.00000000000E+00  0.57749676270E+02  0.57749676270E+02  0.00000000000E+00 0.  1.
          1   -1    0    0  501    0  0.00000000000E+00 -0.00000000000E+00 -0.22995962705E+03  0.22995962705E+03  0.00000000000E+00 0. -1.
         25    2    1    2    0    0  0.10868594933E+02 -0.36177523412E+02 -0.97052676029E+02  0.16276861896E+03  0.12508981509E+03 0.  0.
          5    1    3    3  502    0  0.18842353462E+02 -0.36745176422E+02  0.19506523472E+02  0.45860867111E+02  0.41800000000E+01 0. -1.
         -5    1    3    3    0  502 -0.79737585283E+01  0.56765300994E+00 -0.11655919950E+03  0.11690775185E+03  0.41800000000E+01 0. -1.
        -11    1    1    2    0    0  0.27447514381E+02  0.39106782973E+02 -0.92740655037E+01  0.48669444327E+02  0.00000000000E+00 0.  1.
         11    1    1    2    0    0 -0.38316109315E+02 -0.29292595610E+01 -0.65883209247E+02  0.76271240027E+02  0.00000000000E+00 0. -1.
</event>
<event>
 7    1  0.2841804E-009  0.1037608E+03  0.7561462E-02  0.1272581E+00
         -2   -1    0    0    0  501 -0.00000000000E+00  0.00000000000E+00  0.12328178215E+02  0.12328178215E+02  0.00000000000E+00 0.  1.
          2   -1    0    0  501    0  0.00000000000E+00 -0.00000000000E+00 -0.10040553448E+04  0.10040553448E+04  0.00000000000E+00 0. -1.
         25    2    1    2    0    0 -0.15832533412E+02  0.21112546556E+02 -0.65181040899E+03  0.66422899510E+03  0.12508772894E+03 0.  0.
          5    1    3    3  502    0  0.32620090344E+02  0.56756831902E+02 -0.39692428774E+03  0.40230805468E+03  0.41800000000E+01 0.  1.
         -5    1    3    3    0  502 -0.48452623756E+02 -0.35644285346E+02 -0.25488612125E+03  0.26192094042E+03  0.41800000000E+01 0.  1.
        -11    1    1    2    0    0  0.11349846540E+02  0.29090478710E+02 -0.59019358477E+02  0.66770949095E+02  0.00000000000E+00 0.  1.
         11    1    1    2    0    0  0.44826868721E+01 -0.50203025266E+02 -0.28089739915E+03  0.28538357885E+03  0.00000000000E+00 0. -1.
</event>
<event>
 7    1  0.2841804E-009  0.1384737E+03  0.7561462E-02  0.1215398E+00
          4   -1    0    0  501    0  0.00000000000E+00  0.00000000000E+00  0.27163247891E+02  0.27163247891E+02  0.00000000000E+00 0. -1.
         -4   -1    0    0    0  501 -0.00000000000E+00 -0.00000000000E+00 -0.11441441651E+04  0.11441441651E+04  0.00000000000E+00 0.  1.
         25    2    1    2    0    0  0.11334536572E+03 -0.73579563583E+02 -0.48348059242E+03  0.51736102548E+03  0.12509126000E+03 0.  0.
          5    1    3    3  502    0  0.63387121193E+02 -0.16214247894E+02 -0.66155003194E+02  0.93138530241E+02  0.41800000000E+01 0. -1.
         -5    1    3    3    0  502  0.49958244527E+02 -0.57365315689E+02 -0.41732558923E+03  0.42422249524E+03  0.41800000000E+01 0. -1.
        -11    1    1    2    0    0 -0.90171372727E+02  0.60562829346E+02 -0.60616025028E+03  0.61581570440E+03  0.00000000000E+00 0.  1.
         11    1    1    2    0    0 -0.23173992993E+02  0.13016734237E+02 -0.27340074521E+02  0.38130683134E+02  0.00000000000E+00 0. -1.
</event>
<event>
 7    1  0.2841804E-009  0.9135673E+02  0.7561462E-02  0.1299599E+00
         -2   -1    0    0    0  501 -0.00000000000E+00  0.00000000000E+00  0.41953159782E+02  0.41953159782E+02  0.00000000000E+00 0.  1.
          2   -1    0    0  501    0  0.00000000000E+00 -0.00000000000E+00 -0.35006789518E+03  0.35006789518E+03  0.00000000000E+00 0. -1.
         25    2    1    2    0    0  0.49538213928E+02  0.11412480445E+02 -0.20202682740E+03  0.24299393307E+03  0.12508770191E+03 0.  0.
          5    1    3    3  502    0 -0.10828881206E+02 -0.14560851027E+02  0.98878830954E+01  0.21083777719E+02  0.41800000000E+01 0.  1.
         -5    1    3    3    0  502  0.60367095134E+02  0.25973331472E+02 -0.21191471049E+03  0.22191015535E+03  0.41800000000E+01 0.  1.
        -11    1    1    2    0    0  0.14133674717E+02  0.22142761136E+02 -0.81831067894E+01  0.27514103083E+02  0.00000000000E+00 0.  1.
         11    1    1    2    0    0 -0.63671888645E+02 -0.33555241581E+02 -0.97904801208E+02  0.12151301881E+03  0.00000000000E+00 0. -1.
</event>
<event>
 7    1  0.2841804E-009  0.1346598E+03  0.7561462E-02  0.1220701E+00
          2   -1    0    0  501    0  0.00000000000E+00  0.00000000000E+00  0.99041569504E+02  0.99041569504E+02  0.00000000000E+00 0. -1.
         -2   -1    0    0    0  501 -0.00000000000E+00 -0.00000000000E+00 -0.24198565347E+03  0.24198565347E+03  0.00000000000E+00 0.  1.
         25    2    1    2    0    0 -0.10429593883E+03  0.29847607431E+02 -0.91564086680E+02  0.18920977990E+03  0.12509131191E+03 0.  0.
          5    1    3    3  502    0 -0.39475390503E+01 -0.37699060357E+02 -0.46308145735E+02  0.59989323865E+02  0.41800000000E+01 0. -1.
         -5    1    3    3    0  502 -0.10034839978E+03  0.67546667789E+02 -0.45255940945E+02  0.12922045604E+03  0.41800000000E+01 0. -1.
        -11    1    1    2    0    0  0.56422449475E+02 -0.25986490417E+02  0.20459444582E+02  0.65401677054E+02  0.00000000000E+00 0. -1.
         11    1    1    2    0    0  0.47873489358E+02 -0.38611170143E+01 -0.71839441866E+02  0.86415766012E+02  0.00000000000E+00 0.  1.
</event>
<event>
 7    1  0.2841804E-009  0.1048291E+03  0.7561462E-02  0.1270457E+00
          2   -1    0    0  501    0  0.00000000000E+00  0.00000000000E+00  0.53713097786E+02  0.53713097786E+02  0.00000000000E+00 0.  1.
         -2   -1    0    0    0  501 -0.00000000000E+00 -0.00000000000E+00 -0.32731540845E+03  0.32731540845E+03  0.00000000000E+00 0. -1.
         25    2    1    2    0    0 -0.65384710248E+01  0.22818274129E+02 -0.46468439356E+02  0.13553931273E+03  0.12509262249E+03 0.  0.
          5    1    3    3  502    0 -0.33010560935E+02 -0.37840401780E+02 -0.47454026497E+02  0.69216689974E+02  0.41800000000E+01 0. -1.
         -5    1    3    3    0  502  0.26472089910E+02  0.60658675909E+02  0.98558714091E+00  0.66322622756E+02  0.41800000000E+01 0. -1.
        -11    1    1    2    0    0 -0.20153288773E+02  0.28619319784E+02 -0.93171253708E+02  0.99529407869E+02  0.00000000000E+00 0. -1.
         11    1    1    2    0    0  0.26691759798E+02 -0.51437593913E+02 -0.13396261760E+03  0.14595978563E+03  0.00000000000E+00 0.  1.
</event>
<event>
 7    1  0.2841804E-009  0.1139033E+03  0.7561462E-02  0.1253508E+00
         -2   -1    0    0    0  501 -0.00000000000E+00  0.00000000000E+00  0.52012299230E+02  0.52012299230E+02  0.00000000000E+00 0.  1.
          2   -1    0    0  501    0  0.00000000000E+00 -0.00000000000E+00 -0.33770348951E+03  0.33770348951E+03  0.00000000000E+00 0. -1.
         25    2    1    2    0    0  0.52114235904E+02  0.14109023725E+02 -0.23651974382E+03  0.27295380824E+03  0.12508890471E+03 0.  0.
          5    1    3    3  502    0  0.15310016922E+02 -0.54948585966E+02 -0.11347114083E+03  0.12707051554E+03  0.41800000000E+01 0.  1.
         -5    1    3    3    0  502  0.36804218982E+02  0.69057609691E+02 -0.12304860299E+03  0.14588329270E+03  0.41800000000E+01 0.  1.
        -11    1    1    2    0    0 -0.78188066703E+01  0.29241655845E+02  0.91868171702E+01  0.31632353438E+02  0.00000000000E+00 0.  1.
         11    1    1    2    0    0 -0.44295429234E+02 -0.43350679570E+02 -0.58358263630E+02  0.85129627065E+02  0.00000000000E+00 0. -1.
</event>
<event>
 7    1  0.2841804E-009  0.1729187E+03  0.7561462E-02  0.1174838E+00
          2   -1    0    0  501    0  0.00000000000E+00  0.00000000000E+00  0.22090682803E+03  0.22090682803E+03  0.00000000000E+00 0. -1.
         -2   -1    0    0    0  501 -0.00000000000E+00 -0.00000000000E+00 -0.16727960775E+03  0.16727960775E+03  0.00000000000E+00 0.  1.
         25    2    1    2    0    0 -0.90860674791E+02 -0.11978323353E+03 -0.21610182930E+02  0.19677006611E+03  0.12509106143E+03 0.  0.
          5    1    3    3  502    0  0.19289191621E+02 -0.70218343918E+02 -0.21022789716E+02  0.75908621535E+02  0.41800000000E+01 0.  1.
         -5    1    3    3    0  502 -0.11014986641E+03 -0.49564889611E+02 -0.58739321356E+00  0.12086144457E+03  0.41800000000E+01 0.  1.
        -11    1    1    2    0    0  0.51000254869E+02  0.85043083204E+02  0.92687867234E+02  0.13573648268E+03  0.00000000000E+00 0. -1.
         11    1    1    2    0    0  0.39860419922E+02  0.34740150324E+02 -0.17450464032E+02  0.55679886996E+02  0.00000000000E+00 0.  1.
</event>
<event>
 7    1  0.2841804E-009  0.1134589E+03  0.7561462E-02  0.1254295E+00
         -4   -1    0    0    0  501 -0.00000000000E+00  0.00000000000E+00  0.47962749908E+02  0.47962749908E+02  0.00000000000E+00 0. -1.
          4   -1    0    0  501    0  0.00000000000E+00 -0.00000000000E+00 -0.35439266246E+03  0.35439266246E+03  0.00000000000E+00 0.  1.
         25    2    1    2    0    0  0.71478688142E+02  0.71505976875E+01 -0.15739880052E+03  0.21350270718E+03  0.12509472275E+03 0.  0.
          5    1    3    3  502    0 -0.48428036507E+01 -0.47137024841E+02 -0.74299608231E+02  0.88222763736E+02  0.41800000000E+01 0. -1.
         -5    1    3    3    0  502  0.76321491792E+02  0.54287622529E+02 -0.83099192294E+02  0.12527994344E+03  0.41800000000E+01 0. -1.
        -11    1    1    2    0    0 -0.29414108297E+02 -0.26226126501E+02 -0.76835278031E+01  0.40150169086E+02  0.00000000000E+00 0. -1.
         11    1    1    2    0    0 -0.42064579845E+02  0.19075528814E+02 -0.14134758422E+03  0.14870253610E+03  0.00000000000E+00 0.  1.
</event>
<event>
 7    1  0.2841804E-009  0.1290931E+03  0.7561462E-02  0.1228808E+00
          2   -1    0    0  501    0  0.00000000000E+00  0.00000000000E+00  0.61763801764E+02  0.61763801764E+02  0.00000000000E+00 0. -1.
         -2   -1    0    0    0  501 -0.00000000000E+00 -0.00000000000E+00 -0.62563770149E+03  0.62563770149E+03  0.00000000000E+00 0.  1.
         25    2    1    2    0    0  0.80770546509E+02 -0.15641366539E+02 -0.54103653543E+03  0.56137032362E+03  0.12509026355E+03 0.  0.
          5    1    3    3  502    0  0.10716125748E+03 -0.19070110305E+02 -0.30626583839E+03  0.32505913367E+03  0.41800000000E+01 0.  1.
         -5    1    3    3    0  502 -0.26390710970E+02  0.34287437657E+01 -0.23477069704E+03  0.23631118995E+03  0.41800000000E+01 0.  1.
        -11    1    1    2    0    0 -0.47344019818E+02  0.53752264631E+02 -0.23339138660E+02  0.75335765469E+02  0.00000000000E+00 0.  1.
         11    1    1    2    0    0 -0.33426526691E+02 -0.38110898092E+02  0.50177436628E+00  0.50695414166E+02  0.00000000000E+00 0. -1.
</event>
<event>
 7    1  0.2841804E-009  0.8495163E+02  0.7561462E-02  0.1315559E+00
         -1   -1    0    0    0  501 -0.00000000000E+00  0.00000000000E+00  0.47846473534E+02  0.47846473534E+02  0.00000000000E+00 0.  1.
          1   -1    0    0  501    0  0.00000000000E+00 -0.00000000000E+00 -0.31522607295E+03  0.31522607295E+03  0.00000000000E+00 0. -1.
         25    2    1    2    0    0 -0.50087375822E+02  0.16671546960E+02 -0.11458232062E+03  0.17765356887E+03  0.12507996099E+03 0.  0.
          5    1    3    3  502    0 -0.53913588271E+02  0.41828735028E+02 -0.13051846112E+03  0.14733926553E+03  0.41800000000E+01 0.  1.
         -5    1    3    3    0  502  0.38262124486E+01 -0.25157188068E+02  0.15936140500E+02  0.30314303344E+02  0.41800000000E+01 0.  1.
        -11    1    1    2    0    0 -0.27242308059E+01 -0.22458289569E+02 -0.12185548064E+03  0.12393770356E+03  0.00000000000E+00 0. -1.
         11    1    1    2    0    0  0.52811606628E+02  0.57867426093E+01 -0.30941798161E+02  0.61481274044E+02  0.00000000000E+00 0.  1.
</event>
<event>
 7    1  0.2841804E-009  0.1263127E+03  0.7561462E-02  0.1233032E+00
          2   -1    0    0  501    0  0.00000000000E+00  0.00000000000E+00  0.33127173767E+02  0.33127173767E+02  0.00000000000E+00 0. -1.
         -2   -1    0    0    0  501 -0.00000000000E+00 -0.00000000000E+00 -0.57288983454E+03  0.57288983454E+03  0.00000000000E+00 0.  1.
         25    2    1    2    0    0 -0.24270731259E+02  0.79774441826E+02 -0.31531877838E+03  0.34932370119E+03  0.12509231093E+03 0.  0.
          5    1    3    3  502    0  0.32807792944E+02  0.33294038134E+01 -0.18386131876E+03  0.18684189344E+03  0.41800000000E+01 0.  1.
         -5    1    3    3    0  502 -0.57078524203E+02  0.76445038013E+02 -0.13145745962E+03  0.16248180776E+03  0.41800000000E+01 0.  1.
        -11    1    1    2    0    0 -0.35236332045E+02 -0.31524617618E+02 -0.72977449029E+02  0.86954635752E+02  0.00000000000E+00 0. -1.
         11    1    1    2    0    0  0.59507063305E+02 -0.48249824208E+02 -0.15146643336E+03  0.16973867136E+03  0.00000000000E+00 0.  1.
</event>
<event>
 7    1  0.2841804E-009  0.1803350E+03  0.7561462E-02  0.1167479E+00
         -1   -1    0    0    0  501 -0.00000000000E+00  0.00000000000E+00  0.23383316041E+03  0.23383316041E+03  0.00000000000E+00 0.  1.
          1   -1    0    0  501    0  0.00000000000E+00 -0.00000000000E+00 -0.14738698868E+03  0.14738698868E+03  0.00000000000E+00 0. -1.
         25    2    1    2    0    0  0.43842867182E+02 -0.14245721351E+03  0.28123059550E+02  0.19660964015E+03  0.12509272336E+03 0.  0.
          5    1    3    3  502    0 -0.35746965304E+02 -0.20048752396E+02  0.29270072190E+02  0.50537189545E+02  0.41800000000E+01 0. -1.
         -5    1    3    3    0  502  0.79589832486E+02 -0.12240846111E+03 -0.11470126400E+01  0.14607245060E+03  0.41800000000E+01 0. -1.
        -11    1    1    2    0    0  0.42172268636E+01  0.12048615269E+03  0.28314291045E+02  0.12384020781E+03  0.00000000000E+00 0.  1.
         11    1    1    2    0    0 -0.48060094046E+02  0.21971060820E+02  0.30008821142E+02  0.60770301131E+02  0.00000000000E+00 0. -1.
</event>
<event>
 7    1  0.2841804E-009  0.7968352E+02  0.7561462E-02  0.1329952E+00
         -1   -1    0    0    0  501 -0.00000000000E+00  0.00000000000E+00  0.99409383809E+02  0.99409383809E+02  0.00000000000E+00 0.  1.
          1   -1    0    0  501    0  0.00000000000E+00 -0.00000000000E+00 -0.28115695504E+03  0.28115695504E+03  0.00000000000E+00 0. -1.
         25    2    1    2    0    0  0.22273612342E+02 -0.19414022449E+02 -0.23663844526E+03  0.26929346870E+03  0.12509276731E+03 0.  0.
          5    1    3    3  502    0  0.57907557959E+02 -0.85513266194E+01 -0.22102877543E+03  0.22868669053E+03  0.41800000000E+01 0. -1.
         -5    1    3    3    0  502 -0.35633945617E+02 -0.10862695830E+02 -0.15609669824E+02  0.40606778165E+02  0.41800000000E+01 0. -1.
        -11    1    1    2    0    0 -0.38104576339E+02 -0.52558306995E-01  0.71613292259E+02  0.81119819579E+02  0.00000000000E+00 0.  1.
         11    1    1    2    0    0  0.15830963997E+02  0.19466580756E+02 -0.16722418231E+02  0.30153050574E+02  0.00000000000E+00 0. -1.
</event>
<event>
 7    1  0.2841804E-009  0.1936634E+03  0.7561462E-02  0.1155198E+00
          1   -1    0    0  501    0  0.00000000000E+00  0.00000000000E+00  0.42933047989E+03  0.42933047989E+03  0.00000000000E+00 0. -1.
         -1   -1    0    0    0  501 -0.00000000000E+00 -0.00000000000E+00 -0.89849908146E+02  0.89849908146E+02  0.00000000000E+00 0.  1.
         25    2    1    2    0    0 -0.50724381821E+02 -0.15652990921E+03  0.20017395118E+03  0.28773562098E+03  0.12509037317E+03 0.  0.
          5    1    3    3  502    0 -0.88329075658E+02 -0.91337472130E+02  0.15253229338E+03  0.19856518412E+03  0.41800000000E+01 0.  1.
         -5    1    3    3    0  502  0.37604693837E+02 -0.65192437084E+02  0.47641657803E+02  0.89170436860E+02  0.41800000000E+01 0.  1.
        -11    1    1    2    0    0 -0.89933621818E+01  0.10660140465E+03  0.79786576415E+02  0.13345650157E+03  0.00000000000E+00 0. -1.
         11    1    1    2    0    0  0.59717744003E+02  0.49928504568E+02  0.59520044149E+02  0.97988265484E+02  0.00000000000E+00 0.  1.
</event>
<event>
 7    1  0.2841804E-009  0.1023110E+03  0.7561462E-02  0.1275510E+00
          4   -1    0    0  501    0  0.00000000000E+00  0.00000000000E+00  0.15958245015E+03  0.15958245015E+03  0.00000000000E+00 0. -1.
         -4   -1    0    0    0  501 -0.00000000000E+00 -0.00000000000E+00 -0.95536457195E+02  0.95536457195E+02  0.00000000000E+00 0.  1.
         25    2    1    2    0    0  0.51745855022E+02  0.26431794932E+02  0.18928291562E+02  0.13922686727E+03  0.12509822961E+03 0.  0.
          5    1    3    3  502    0  0.80681065556E+02 -0.19034620443E+02  0.37697602821E+01  0.83086909963E+02  0.41800000000E+01 0. -1.
         -5    1    3    3    0  502 -0.28935210534E+02  0.45466415375E+02  0.15158531280E+02  0.56139957305E+02  0.41800000000E+01 0. -1.
        -11    1    1    2    0    0 -0.17760047601E+02 -0.28430125794E+02 -0.22372302570E+02  0.40301504510E+02  0.00000000000E+00 0.  1.
         11    1    1    2    0    0 -0.33985807421E+02  0.19983308626E+01  0.67490003966E+02  0.75590535569E+02  0.00000000000E+00 0. -1.
</event>
<event>
 7    1  0.2841804E-009  0.1088332E+03  0.7561462E-02  0.1262746E+00
         -4   -1    0    0    0  501 -0.00000000000E+00  0.00000000000E+00  0.71450052424E+02  0.71450052424E+02  0.00000000000E+00 0.  1.
          4   -1    0    0  501    0  0.00000000000E+00 -0.00000000000E+00 -0.24215472124E+03  0.24215472124E+03  0.00000000000E+00 0. -1.
         25    2    1    2    0    0 -0.29211703814E+02 -0.66524117011E+02 -0.10175281494E+03  0.17685705982E+03  0.12508398169E+03 0.  0.
          5    1    3    3  502    0  0.23952973149E+02 -0.65049753204E+02 -0.10213318543E+03  0.12350657990E+03  0.41800000000E+01 0. -1.
         -5    1    3    3    0  502 -0.53164676963E+02 -0.14743638072E+01  0.38037048924E+00  0.53350479913E+02  0.41800000000E+01 0. -1.
        -11    1    1    2    0    0  0.46066444937E+02  0.30924478471E+02  0.20838241227E+01  0.55522815498E+02  0.00000000000E+00 0.  1.
         11    1    1    2    0    0 -0.16854741122E+02  0.35599638540E+02 -0.71035678001E+02  0.81224898348E+02  0.00000000000E+00 0. -1.
</event>
<event>
 7    1  0.2841804E-009  0.9299333E+02  0.7561462E-02  0.1295761E+00
          3   -1    0    0  501    0  0.00000000000E+00  0.00000000000E+00  0.15616868609E+03  0.15616868609E+03  0.00000000000E+00 0. -1.
         -3   -1    0    0    0  501 -0.00000000000E+00 -0.00000000000E+00 -0.81786539536E+02  0.81786539536E+02  0.00000000000E+00 0.  1.
         25    2    1    2    0    0 -0.30293107229E+02  0.36146201752E+01  0.31117048066E+02  0.13244388145E+03  0.12506947361E+03 0.  0.
          5    1    3    3  502    0 -0.65516073256E+02 -0.17661926507E+02  0.52487036743E+02  0.85887489944E+02  0.41800000000E+01 0. -1.
         -5    1    3    3    0  502  0.35222966027E+02  0.21276546682E+02 -0.21369988676E+02  0.46556391511E+02  0.41800000000E+01 0. -1.
        -11    1    1    2    0    0  0.53031281613E+02  0.25156512608E+01  0.57285094971E+02  0.78103952759E+02  0.00000000000E+00 0. -1.
         11    1    1    2    0    0 -0.22738174384E+02 -0.61302714360E+01 -0.14019996488E+02  0.27407391407E+02  0.00000000000E+00 0.  1.
</event>
<event>
 7    1  0.2841804E-009  0.1214489E+03  0.7561462E-02  0.1240726E+00
         -1   -1    0    0    0  501 -0.00000000000E+00  0.00000000000E+00  0.14964504293E+02  0.14964504293E+02  0.00000000000E+00 0.  1.
          1   -1    0    0  501    0  0.00000000000E+00 -0.00000000000E+00 -0.10167851121E+04  0.10167851121E+04  0.00000000000E+00 0. -1.
         25    2    1    2    0    0  0.53984264431E+02  0.40804584264E+02 -0.56668773980E+03  0.58426148189E+03  0.12508864804E+03 0.  0.
          5    1    3    3  502    0 -0.32380300229E+02  0.44230928506E+02 -0.19234652781E+03  0.20004878915E+03  0.41800000000E+01 0. -1.
         -5    1    3    3    0  502  0.86364564660E+02 -0.34263442420E+01 -0.37434121199E+03  0.38421269273E+03  0.41800000000E+01 0. -1.
        -11    1    1    2    0    0  0.15810456222E+02  0.64776882085E+01 -0.40594498582E+02  0.44043663399E+02  0.00000000000E+00 0.  1.
         11    1    1    2    0    0 -0.69794720653E+02 -0.47282272473E+02 -0.39453836941E+03  0.40344447109E+03  0.00000000000E+00 0. -1.
</event>
<event>
 7    1  0.2841804E-009  0.1081304E+03  0.7561462E-02  0.1264072E+00
          3   -1    0    0  501    0  0.00000000000E+00  0.00000000000E+00  0.36485165756E+03  0.36485165756E+03  0.00000000000E+00 0. -1.
         -3   -1    0    0    0  501 -0.00000000000E+00 -0.00000000000E+00 -0.36938475846E+02  0.36938475846E+02  0.00000000000E+00 0.  1.
         25    2    1    2    0    0  0.29634649927E+00  0.14653931394E+02  0.24541942217E+03  0.27584831477E+03  0.12508706751E+03 0.  0.
          5    1    3    3  502    0 -0.28359032378E+01  0.68035884412E+02  0.10186147534E+03  0.12259753861E+03  0.41800000000E+01 0.  1.
         -5    1    3    3    0  502  0.31322497371E+01 -0.53381953018E+02  0.14355794683E+03  0.15325077616E+03  0.41800000000E+01 0.  1.
        -11    1    1    2    0    0  0.43281649194E+02 -0.24485380559E+02  0.35474210616E+02  0.61083996569E+02  0.00000000000E+00 0. -1.
         11    1    1    2    0    0 -0.43577995693E+02  0.98314491655E+01  0.47019548926E+02  0.64857822061E+02  0.00000000000E+00 0.  1.
</event>
<event>
 7    1  0.2841804E-009  0.1300285E+03  0.7561462E-02  0.1227413E+00
          3   -1    0    0  501    0  0.00000000000E+00  0.00000000000E+00  0.12133632036E+03  0.12133632036E+03  0.00000000000E+00 0. -1.
         -3   -1    0    0    0  501 -0.00000000000E+00 -0.00000000000E+00 -0.15740429519E+03  0.15740429519E+03  0.00000000000E+00 0.  1.
         25    2    1    2    0    0  0.58612180609E+02  0.50951664451E+02  0.11853931937E+02  0.14770880458E+03  0.12508363371E+03 0.  0.
          5    1    3    3  502    0  0.54879761783E+02  0.87178907326E+02  0.29199265341E+02  0.10715418626E+03  0.41800000000E+01 0.  1.
         -5    1    3    3    0  502  0.37324188256E+01 -0.36227242874E+02 -0.17345333403E+02  0.40554618324E+02  0.41800000000E+01 0.  1.
        -11    1    1    2    0    0 -0.79646894914E+00 -0.61520856643E+02 -0.13742383602E+02  0.63042075409E+02  0.00000000000E+00 0.  1.
         11    1    1    2    0    0 -0.57815711659E+02  0.10569192191E+02 -0.34179523164E+02  0.67989735563E+02  0.00000000000E+00 0. -1.
</event>
<event>
 7    1  0.2841804E-009  0.1122182E+03  0.7561462E-02  0.1256516E+00
         -3   -1    0    0    0  501 -0.00000000000E+00  0.00000000000E+00  0.88382202684E+02  0.88382202684E+02  0.00000000000E+00 0.  1.
          3   -1    0    0  501    0  0.00000000000E+00 -0.00000000000E+00 -0.19318772630E+03  0.19318772630E+03  0.00000000000E+00 0. -1.
         25    2    1    2    0    0  0.26728134712E+02  0.28900929338E+02  0.10124046172E+02  0.13152795964E+03  0.12508977158E+03 0.  0.
          5    1    3    3  502    0  0.76918512183E+02  0.15111989067E+02  0.92222254331E+00  0.78505748990E+02  0.41800000000E+01 0.  1.
         -5    1    3    3    0  502 -0.50190377471E+02  0.13788940271E+02  0.92018236289E+01  0.53022210653E+02  0.41800000000E+01 0.  1.
        -11    1    1    2    0    0  0.52119035219E+01  0.27991960856E+02 -0.19772516991E+02  0.34665057898E+02  0.00000000000E+00 0.  1.
         11    1    1    2    0    0 -0.31940038234E+02 -0.56892890194E+02 -0.95157052799E+02  0.11537691144E+03  0.00000000000E+00 0. -1.
</event>
<event>
 7    1  0.2841804E-009  0.1494959E+03  0.7561462E-02  0.1201094E+00
         -1   -1    0    0    0  501 -0.00000000000E+00  0.00000000000E+00  0.12436460318E+03  0.12436460318E+03  0.00000000000E+00 0.  1.
          1   -1    0    0  501    0  0.00000000000E+00 -0.00000000000E+00 -0.24572859520E+03  0.24572859520E+03  0.00000000000E+00 0. -1.
         25    2    1    2    0    0 -0.18690969114E+02  0.13068686920E+03 -0.24329551219E+02  0.18348831622E+03  0.12509046735E+03 0.  0.
          5    1    3    3  502    0 -0.58381826034E+01 -0.96753125526E+01  0.30033940518E+02  0.32360562915E+02  0.41800000000E+01 0. -1.
         -5    1    3    3    0  502 -0.12852786511E+02  0.14036218175E+03 -0.54363491737E+02  0.15112775331E+03  0.41800000000E+01 0. -1.
        -11    1    1    2    0    0  0.41417333328E+02 -0.73020800152E+02 -0.17471285554E+02  0.85747761334E+02  0.00000000000E+00 0.  1.
         11    1    1    2    0    0 -0.22726364214E+02 -0.57666069045E+02 -0.79563155246E+02  0.10085712083E+03  0.00000000000E+00 0. -1.
</event>
<event>
 7    1  0.2841804E-009  0.1278187E+03  0.7561462E-02  0.1230729E+00
          2   -1    0    0  501    0  0.00000000000E+00  0.00000000000E+00  0.63734449338E+03  0.63734449338E+03  0.00000000000E+00 0. -1.
         -2   -1    0    0    0  501 -0.00000000000E+00 -0.00000000000E+00 -0.34471951140E+02  0.34471951140E+02  0.00000000000E+00 0.  1.
         25    2    1    2    0    0  0.37336362467E+02  0.95316360008E+02  0.32609019561E+03  0.36394940777E+03  0.12508054725E+03 0.  0.
          5    1    3    3  502    0  0.43032307853E+02  0.22326604745E+02  0.26224036240E+03  0.26671658529E+03  0.41800000000E+01 0.  1.
         -5    1    3    3    0  502 -0.56959453859E+01  0.72989755263E+02  0.63849833210E+02  0.97232822484E+02  0.41800000000E+01 0.  1.
        -11    1    1    2    0    0  0.10217847299E+02 -0.84191067386E+02  0.19444001105E+03  0.21213075715E+03  0.00000000000E+00 0. -1.
         11    1    1    2    0    0 -0.47554209765E+02 -0.11125292622E+02  0.82342335582E+02  0.95736279599E+02  0.00000000000E+00 0.  1.
</event>
<event>
 7    1  0.2841804E-009  0.1192861E+03  0.7561462E-02  0.1244279E+00
         -1   -1    0    0    0  501 -0.00000000000E+00  0.00000000000E+00  0.51455494655E+03  0.51455494655E+03  0.00000000000E+00 0.  1.
          1   -1    0    0  501    0  0.00000000000E+00 -0.00000000000E+00 -0.32440053007E+02  0.32440053007E+02  0.00000000000E+00 0. -1.
         25    2    1    2    0    0 -0.47356490957E+02 -0.45916586371E+02  0.30879305352E+03  0.33963378789E+03  0.12508792841E+03 0.  0.
          5    1    3    3  502    0 -0.53329859242E+02  0.27641605784E+02  0.86663462632E+02  0.10552800772E+03  0.41800000000E+01 0.  1.
         -5    1    3    3    0  502  0.59733682847E+01 -0.73558192154E+02  0.22212959089E+03  0.23410578017E+03  0.41800000000E+01 0.  1.
        -11    1    1    2    0    0  0.48916805406E+02 -0.87997437987E+01  0.12434485024E+03  0.13391016065E+03  0.00000000000E+00 0.  1.
         11    1    1    2    0    0 -0.15603144486E+01  0.54716330170E+02  0.48976989773E+02  0.73451051018E+02  0.00000000000E+00 0. -1.
</event>
<event>
 7    1  0.2856441E-009  0.6793247E+02  0.7561462E-02  0.1367268E+00
          1   -1    0    0  501    0  0.00000000000E+00  0.00000000000E+00  0.84468535445E+03  0.84468535445E+03  0.00000000000E+00 0. -1.
         -1   -1    0    0    0  501 -0.00000000000E+00 -0.00000000000E+00 -0.22902633941E+02  0.22902633941E+02  0.00000000000E+00 0.  1.
         25    2    1    2    0    0 -0.11869885624E+02  0.95376516725E+01  0.71686193480E+03  0.72785345755E+03  0.12509101132E+03 0.  0.
          5    1    3    3  502    0  0.49098160121E+01  0.43366855954E+02  0.92796573253E+02  0.10263267947E+03  0.41800000000E+01 0. -1.
         -5    1    3    3    0  502 -0.16779701636E+02 -0.33829204282E+02  0.62406536155E+03  0.62522077807E+03  0.41800000000E+01 0. -1.
        -11    1    1    2    0    0 -0.19370970889E+02 -0.11840267417E+02  0.10598651293E+03  0.10839080851E+03  0.00000000000E+00 0. -1.
         11    1    1    2    0    0  0.31240856513E+02  0.23026157448E+01 -0.10657272286E+01  0.31343722330E+02  0.00000000000E+00 0.  1.
</event>
<event>
 7    1  0.2841804E-009  0.7519251E+02  0.7561462E-02  0.1343276E+00
          2   -1    0    0  501    0  0.00000000000E+00  0.00000000000E+00  0.11462161421E+03  0.11462161421E+03  0.00000000000E+00 0. -1.
         -2   -1    0    0    0  501 -0.00000000000E+00 -0.00000000000E+00 -0.11242225358E+03  0.11242225358E+03  0.00000000000E+00 0.  1.
         25    2    1    2    0    0 -0.18189141738E+02 -0.15270070974E+02  0.28084825493E+02  0.13038311507E+03  0.12508788641E+03 0.  0.
          5    1    3    3  502    0 -0.32336267466E+02  0.32613121059E+02  0.56382528295E+02  0.72840316829E+02  0.41800000000E+01 0.  1.
         -5    1    3    3    0  502  0.14147125727E+02 -0.47883192033E+02 -0.28297702801E+02  0.57542798241E+02  0.41800000000E+01 0.  1.
        -11    1    1    2    0    0  0.45614055303E+01  0.32148995264E+02 -0.52865230301E+02  0.62041090349E+02  0.00000000000E+00 0.  1.
         11    1    1    2    0    0  0.13627736208E+02 -0.16878924290E+02  0.26979765435E+02  0.34619662365E+02  0.00000000000E+00 0. -1.
</event>
<event>
 7    1  0.2841804E-009  0.2736500E+03  0.7561462E-02  0.1099209E+00
         -2   -1    0    0    0  501 -0.00000000000E+00  0.00000000000E+00  0.15100396041E+03  0.15100396041E+03  0.00000000000E+00 0.  1.
          2   -1    0    0  501    0  0.00000000000E+00 -0.00000000000E+00 -0.52033725014E+03  0.52033725014E+03  0.00000000000E+00 0. -1.
         25    2    1    2    0    0  0.21036521429E+03 -0.14897058726E+03 -0.19993962526E+03  0.34937643359E+03  0.12506909829E+03 0.  0.
          5    1    3    3  502    0  0.71273010450E+02 -0.12690513602E+03 -0.10042224009E+03  0.17688090420E+03  0.41800000000E+01 0. -1.
         -5    1    3    3    0  502  0.13909220384E+03 -0.22065451238E+02 -0.99517385169E+02  0.17249552939E+03  0.41800000000E+01 0. -1.
        -11    1    1    2    0    0 -0.40017417078E+02  0.49060721463E+02 -0.24294333643E+01  0.63358110819E+02  0.00000000000E+00 0.  1.
         11    1    1    2    0    0 -0.17034779721E+03  0.99909865798E+02 -0.16696423111E+03  0.25860666613E+03  0.00000000000E+00 0. -1.
</event>
<event>
 7    1  0.2841804E-009  0.1104315E+03  0.7561462E-02  0.1259773E+00
          1   -1    0    0  501    0  0.00000000000E+00  0.00000000000E+00  0.17959311197E+03  0.17959311197E+03  0.00000000000E+00 0. -1.
         -1   -1    0    0    0  501 -0.00000000000E+00 -0.00000000000E+00 -0.72726725643E+02  0.72726725643E+02  0.00000000000E+00 0.  1.
         25    2    1    2    0    0  0.28734641313E+02 -0.24672033535E+02  0.71036395025E+02  0.14875609814E+03  0.12509124057E+03 0.  0.
          5    1    3    3  502    0  0.47276223962E+02  0.38067494115E+02  0.15364962210E+02  0.62751334042E+02  0.41800000000E+01 0. -1.
         -5    1    3    3    0  502 -0.18541582649E+02 -0.62739527649E+02  0.55671432815E+02  0.86004764103E+02  0.41800000000E+01 0. -1.
        -11    1    1    2    0    0  0.27566657162E+02  0.26357819279E+02  0.27435985918E+01  0.38238495753E+02  0.00000000000E+00 0.  1.
         11    1    1    2    0    0 -0.56301298475E+02 -0.16857857446E+01  0.33086392709E+02  0.65325243712E+02  0.00000000000E+00 0. -1.
</event>
<event>
 7    1  0.2841804E-009  0.1856208E+03  0.7561462E-02  0.1162471E+00
         -2   -1    0    0    0  501 -0.00000000000E+00  0.00000000000E+00  0.36385339824E+02  0.36385339824E+02  0.00000000000E+00 0.  1.
          2   -1    0    0  501    0  0.00000000000E+00 -0.00000000000E+00 -0.11748589444E+04  0.11748589444E+04  0.00000000000E+00 0. -1.
         25    2    1    2    0    0 -0.15701772618E+03 -0.69979310373E+02 -0.68868080803E+03  0.72074754354E+03  0.12507636054E+03 0.  0.
          5    1    3    3  502    0 -0.10104107196E+03 -0.75489435155E+02 -0.61576441590E+03  0.62856283801E+03  0.41800000000E+01 0.  1.
         -5    1    3    3    0  502 -0.55976654222E+02  0.55101247822E+01 -0.72916392126E+02  0.92184705530E+02  0.41800000000E+01 0.  1.
        -11    1    1    2    0    0  0.15456359500E+03  0.82968593737E+02 -0.44102760640E+03  0.47463569403E+03  0.00000000000E+00 0. -1.
         11    1    1    2    0    0  0.24541311812E+01 -0.12989283364E+02 -0.87651901438E+01  0.15861046637E+02  0.00000000000E+00 0.  1.
</event>
<event>
 7    1  0.2841804E-009  0.1399692E+03  0.7561462E-02  0.1213370E+00
          2   -1    0    0  501    0  0.00000000000E+00  0.00000000000E+00  0.21425393181E+03  0.21425393181E+03  0.00000000000E+00 0. -1.
         -2   -1    0    0    0  501 -0.00000000000E+00 -0.00000000000E+00 -0.97282052838E+02  0.97282052838E+02  0.00000000000E+00 0.  1.
         25    2    1    2    0    0 -0.93375502337E+02  0.57954905576E+01  0.73642512375E+02  0.17268457698E+03  0.12507666189E+03 0.  0.
          5    1    3    3  502    0 -0.10079848717E+03 -0.39994718266E+02  0.41953589844E+02  0.11635071381E+03  0.41800000000E+01 0.  1.
         -5    1    3    3    0  502  0.74229848289E+01  0.45790208823E+02  0.31688922531E+02  0.56333863164E+02  0.41800000000E+01 0.  1.
        -11    1    1    2    0    0  0.20937301693E+02  0.35678382765E+02 -0.61420214919E+01  0.41821549791E+02  0.00000000000E+00 0.  1.
         11    1    1    2    0    0  0.72438200644E+02 -0.41473873323E+02  0.49471388092E+02  0.97029857882E+02  0.00000000000E+00 0. -1.
</event>
<event>
 7    1  0.2841804E-009  0.9390481E+02  0.7561462E-02  0.1293662E+00
          1   -1    0    0  501    0  0.00000000000E+00  0.00000000000E+00  0.97017992099E+02  0.97017992099E+02  0.00000000000E+00 0. -1.
         -1   -1    0    0    0  501 -0.00000000000E+00 -0.00000000000E+00 -0.13334867909E+03  0.13334867909E+03  0.00000000000E+00 0.  1.
         25    2    1    2    0    0  0.21862819467E+02  0.12047474554E+02 -0.42135120228E+02  0.13433816087E+03  0.12509295980E+03 0.  0.
          5    1    3    3  502    0 -0.40150655474E+02  0.13135874317E+01  0.20632843305E+02  0.45354021539E+02  0.41800000000E+01 0.  1.
         -5    1    3    3    0  502  0.62013474941E+02  0.10733887122E+02 -0.62767963534E+02  0.88984139335E+02  0.41800000000E+01 0.  1.
        -11    1    1    2    0    0  0.30631978187E+02 -0.70458384764E+00 -0.19851477336E+02  0.36508843839E+02  0.00000000000E+00 0.  1.
         11    1    1    2    0    0 -0.52494797654E+02 -0.11342890707E+02  0.25655910571E+02  0.59519666477E+02  0.00000000000E+00 0. -1.
</event>
<event>
 7    1  0.2841804E-009  0.8201537E+02  0.7561462E-02  0.1323427E+00
         -1   -1    0    0    0  501 -0.00000000000E+00  0.00000000000E+00  0.13042214651E+03  0.13042214651E+03  0.00000000000E+00 0.  1.
          1   -1    0    0  501    0  0.00000000000E+00 -0.00000000000E+00 -0.27394516369E+03  0.27394516369E+03  0.00000000000E+00 0. -1.
         25    2    1    2    0    0 -0.30684148919E+02  0.28436547811E+02  0.82823393613E+02  0.15574921217E+03  0.12509175958E+03 0.  0.
          5    1    3    3  502    0  0.38661948530E+01  0.57916990694E+02  0.92347478372E+02  0.10915518511E+03  0.41800000000E+01 0. -1.
         -5    1    3    3    0  502 -0.34550343772E+02 -0.29480442884E+02 -0.95240847585E+01  0.46594027062E+02  0.41800000000E+01 0. -1.
        -11    1    1    2    0    0 -0.68940179347E+01 -0.20753703925E+02 -0.30842130005E+01  0.22085200468E+02  0.00000000000E+00 0.  1.
         11    1    1    2    0    0  0.37578166854E+02 -0.76828438858E+01 -0.22326219779E+03  0.22653289756E+03  0.00000000000E+00 0. -1.
</event>
<event>
 7    1  0.2841804E-009  0.1537454E+03  0.7561462E-02  0.1195945E+00
          2   -1    0    0  501    0  0.00000000000E+00  0.00000000000E+00  0.26453910889E+03  0.26453910889E+03  0.00000000000E+00 0. -1.
         -2   -1    0    0    0  501 -0.00000000000E+00 -0.00000000000E+00 -0.12864230961E+03  0.12864230961E+03  0.00000000000E+00 0.  1.
         25    2    1    2    0    0 -0.75853877408E+02 -0.12678148916E+03  0.58791463946E+02  0.20231638629E+03  0.12509247467E+03 0.  0.
          5    1    3    3  502    0 -0.44446638690E+02 -0.44677553448E+02 -0.36221258146E+02  0.72808237272E+02  0.41800000000E+01 0. -1.
         -5    1    3    3    0  502 -0.31407238718E+02 -0.82103935714E+02  0.95012722092E+02  0.12950814902E+03  0.41800000000E+01 0. -1.
        -11    1    1    2    0    0  0.30790382898E+02  0.98317726290E+02  0.76424996854E+01  0.10330939349E+03  0.00000000000E+00 0.  1.
         11    1    1    2    0    0  0.45063494509E+02  0.28463762872E+02  0.69462835654E+02  0.87555638718E+02  0.00000000000E+00 0. -1.
</event>
<event>
 7    1  0.2841804E-009  0.6684769E+02  0.7561462E-02  0.1371153E+00
          2   -1    0    0  501    0  0.00000000000E+00  0.00000000000E+00  0.11501049564E+03  0.11501049564E+03  0.00000000000E+00 0. -1.
         -2   -1    0    0    0  501 -0.00000000000E+00 -0.00000000000E+00 -0.11090869074E+03  0.11090869074E+03  0.00000000000E+00 0.  1.
         25    2    1    2    0    0 -0.18721147234E+02  0.32207903689E+02 -0.72670665653E+01  0.13070741481E+03  0.12507512789E+03 0.  0.
          5    1    3    3  502    0  0.10995522436E+01  0.10719474964E+02 -0.64914905204E+02  0.65935828472E+02  0.41800000000E+01 0.  1.
         -5    1    3    3    0  502 -0.19820699478E+02  0.21488428726E+02  0.57647838639E+02  0.64771586337E+02  0.41800000000E+01 0.  1.
        -11    1    1    2    0    0  0.52776096722E+01  0.29236160058E+02 -0.52190434786E+01  0.30163630975E+02  0.00000000000E+00 0.  1.
         11    1    1    2    0    0  0.13443537562E+02 -0.61444063747E+02  0.16587914942E+02  0.65048140589E+02  0.00000000000E+00 0. -1.
</event>
<event>
 7    1  0.2841804E-009  0.1175195E+03  0.7561462E-02  0.1247246E+00
         -4   -1    0    0    0  501 -0.00000000000E+00  0.00000000000E+00  0.38880930413E+03  0.38880930413E+03  0.00000000000E+00 0.  1.
          4   -1    0    0  501    0  0.00000000000E+00 -0.00000000000E+00 -0.70821031387E+02  0.70821031387E+02  0.00000000000E+00 0. -1.
         25    2    1    2    0    0 -0.98392162810E+02  0.17775312131E+02  0.64411543457E+02  0.17261306679E+03  0.12509773968E+03 0.  0.
          5    1    3    3  502    0 -0.53357626390E+01  0.51311656721E+01 -0.34868199902E+02  0.35889594433E+02  0.41800000000E+01 0. -1.
         -5    1    3    3    0  502 -0.93056400171E+02  0.12644146459E+02  0.99279743359E+02  0.13672347236E+03  0.41800000000E+01 0. -1.
        -11    1    1    2    0    0  0.69076430483E+02  0.30930776160E+02  0.16822696900E+03  0.18446836927E+03  0.00000000000E+00 0.  1.
         11    1    1    2    0    0  0.29315732326E+02 -0.48706088291E+02  0.85349760281E+02  0.10254889945E+03  0.00000000000E+00 0. -1.
</event>
<event>
 7    1  0.2841804E-009  0.9921205E+02  0.7561462E-02  0.1281962E+00
          1   -1    0    0  501    0  0.00000000000E+00  0.00000000000E+00  0.37232026786E+02  0.37232026786E+02  0.00000000000E+00 0. -1.
         -1   -1    0    0    0  501 -0.00000000000E+00 -0.00000000000E+00 -0.38372886465E+03  0.38372886465E+03  0.00000000000E+00 0.  1.
         25    2    1    2    0    0  0.21641895494E+02 -0.45509696574E+02 -0.19252136027E+03  0.23505758534E+03  0.12509232648E+03 0.  0.
          5    1    3    3  502    0  0.62787294968E+02 -0.73278290786E+01 -0.15490223812E+03  0.16735625851E+03  0.41800000000E+01 0. -1.
         -5    1    3    3    0  502 -0.41145399474E+02 -0.38181867495E+02 -0.37619122148E+02  0.67701326829E+02  0.41800000000E+01 0. -1.
        -11    1    1    2    0    0 -0.21214836184E+02  0.60333787061E+02 -0.15807024633E+03  0.17051814540E+03  0.00000000000E+00 0. -1.
         11    1    1    2    0    0 -0.42705931019E+00 -0.14824090488E+02  0.40947687397E+01  0.15385160691E+02  0.00000000000E+00 0.  1.
</event>
<event>
 7    1  0.2841804E-009  0.2111402E+03  0.7561462E-02  0.1140666E+00
         -1   -1    0    0    0  501 -0.00000000000E+00  0.00000000000E+00  0.37878920112E+02  0.37878920112E+02  0.00000000000E+00 0.  1.
          1   -1    0    0  501    0  0.00000000000E+00 -0.00000000000E+00 -0.16135366519E+04  0.16135366519E+04  0.00000000000E+00 0. -1.
         25    2    1    2    0    0  0.15904987402E+03  0.10342866273E+03 -0.11927117350E+04  0.12141677652E+04  0.12509088094E+03 0.  0.
          5    1    3    3  502    0  0.11201411186E+03  0.53615368912E+01 -0.74562910450E+03  0.75402661837E+03  0.41800000000E+01 0.  1.
         -5    1    3    3    0  502  0.47035762162E+02  0.98067125839E+02 -0.44708263053E+03  0.46014114684E+03  0.41800000000E+01 0.  1.
        -11    1    1    2    0    0 -0.14845851453E+03 -0.66270735944E+02 -0.24532780064E+03  0.29430846190E+03  0.00000000000E+00 0.  1.
         11    1    1    2    0    0 -0.10591359491E+02 -0.37157926786E+02 -0.13761819616E+03  0.14293934495E+03  0.00000000000E+00 0. -1.
</event>
<event>
 7    1  0.2841804E-009  0.1046456E+03  0.7561462E-02  0.1270820E+00
          3   -1    0    0  501    0  0.00000000000E+00  0.00000000000E+00  0.11468722394E+03  0.11468722394E+03  0.00000000000E+00 0. -1.
         -3   -1    0    0    0  501 -0.00000000000E+00 -0.00000000000E+00 -0.19293154528E+03  0.19293154528E+03  0.00000000000E+00 0.  1.
         25    2    1    2    0    0 -0.60774239244E+02  0.49915707637E+01 -0.12442471345E+03  0.18667256744E+03  0.12508682658E+03 0.  0.
          5    1    3    3  502    0 -0.16168722446E+02  0.53379840671E+02 -0.10322691681E+03  0.11740572273E+03  0.41800000000E+01 0.  1.
         -5    1    3    3    0  502 -0.44605516799E+02 -0.48388269907E+02 -0.21197796637E+02  0.69266844707E+02  0.41800000000E+01 0.  1.
        -11    1    1    2    0    0  0.18136493628E+02 -0.32115198767E+02  0.58292892219E+02  0.68981009533E+02  0.00000000000E+00 0. -1.
         11    1    1    2    0    0  0.42637745616E+02  0.27123628004E+02 -0.12112500111E+02  0.51965192256E+02  0.00000000000E+00 0.  1.
</event>
<event>
 7    1  0.2841804E-009  0.1123653E+03  0.7561462E-02  0.1256251E+00
         -2   -1    0    0    0  501 -0.00000000000E+00  0.00000000000E+00  0.60136166630E+02  0.60136166630E+02  0.00000000000E+00 0.  1.
          2   -1    0    0  501    0  0.00000000000E+00 -0.00000000000E+00 -0.21492240808E+03  0.21492240808E+03  0.00000000000E+00 0. -1.
         25    2    1    2    0    0  0.17321179164E+02 -0.28675043107E+02 -0.95946883920E+02  0.16116935800E+03  0.12508987200E+03 0.  0.
          5    1    3    3  502    0  0.69902347921E+02 -0.74448064349E+01 -0.67677584341E+02  0.97670318982E+02  0.41800000000E+01 0.  1.
         -5    1    3    3    0  502 -0.52581168757E+02 -0.21230236673E+02 -0.28269299578E+02  0.63499039014E+02  0.41800000000E+01 0.  1.
        -11    1    1    2    0    0  0.82570291020E+01 -0.31234841908E+02 -0.21447093563E+02  0.38778495341E+02  0.00000000000E+00 0. -1.
         11    1    1    2    0    0 -0.25578208266E+02  0.59909885015E+02 -0.37392263965E+02  0.75110721372E+02  0.00000000000E+00 0.  1.
</event>
<event>
 7    1  0.2841804E-009  0.1025696E+03  0.7561462E-02  0.1274983E+00
         -1   -1    0    0    0  501 -0.00000000000E+00  0.00000000000E+00  0.35412639934E+02  0.35412639934E+02  0.00000000000E+00 0.  1.
          1   -1    0    0  501    0  0.00000000000E+00 -0.00000000000E+00 -0.42555243203E+03  0.42555243203E+03  0.00000000000E+00 0. -1.
         25    2    1    2    0    0  0.20963956923E+02  0.43978545374E+02 -0.26345633357E+03  0.29568683983E+03  0.12509143700E+03 0.  0.
          5    1    3    3  502    0 -0.14185013686E+02 -0.28745552346E+02 -0.16562911999E+03  0.16875425678E+03  0.41800000000E+01 0. -1.
         -5    1    3    3    0  502  0.35148970609E+02  0.72724097720E+02 -0.97827213575E+02  0.12693258305E+03  0.41800000000E+01 0. -1.
        -11    1    1    2    0    0  0.21723365450E+02 -0.44193578700E+02 -0.25491559372E+02  0.55450848542E+02  0.00000000000E+00 0.  1.
         11    1    1    2    0    0 -0.42687322373E+02  0.21503332616E+00 -0.10119189915E+03  0.10982738359E+03  0.00000000000E+00 0. -1.
</event>
<event>
 7    1  0.2841804E-009  0.1230911E+03  0.7561462E-02  0.1238083E+00
          1   -1    0    0  501    0  0.00000000000E+00  0.00000000000E+00  0.22089875167E+03  0.22089875167E+03  0.00000000000E+00 0. -1.
         -1   -1    0    0    0  501 -0.00000000000E+00 -0.00000000000E+00 -0.87759103455E+02  0.87759103455E+02  0.00000000000E+00 0.  1.
         25    2    1    2    0    0 -0.65184663425E+02  0.50295377208E+02  0.40343089572E+02  0.15509598341E+03  0.12509410010E+03 0.  0.
          5    1    3    3  502    0  0.23803607796E+02  0.18094755397E+02 -0.25675838510E+02  0.39632726378E+02  0.41800000000E+01 0.  1.
         -5    1    3    3    0  502 -0.88988271221E+02  0.32200621811E+02  0.66018928082E+02  0.11546325703E+03  0.41800000000E+01 0.  1.
        -11    1    1    2    0    0  0.39772729931E+02  0.21423674987E+02  0.44667084524E+02  0.63529460378E+02  0.00000000000E+00 0.  1.
         11    1    1    2    0    0  0.25411933494E+02 -0.71719052195E+02  0.48129474117E+02  0.90032411333E+02  0.00000000000E+00 0. -1.
</event>
<event>
 7    1  0.2841804E-009  0.2048820E+03  0.7561462E-02  0.1145684E+00
          2   -1    0    0  501    0  0.00000000000E+00  0.00000000000E+00  0.99355553716E+03  0.99355553716E+03  0.00000000000E+00 0. -1.
         -2   -1    0    0    0  501 -0.00000000000E+00 -0.00000000000E+00 -0.61474477620E+02  0.61474477620E+02  0.00000000000E+00 0.  1.
         25    2    1    2    0    0 -0.11470391303E+03 -0.14720585726E+03  0.22544655480E+03  0.31827727148E+03  0.12509084856E+03 0.  0.
          5    1    3    3  502    0  0.10019824489E+02  0.29993937193E+01  0.63759099490E+02  0.64746338995E+02  0.41800000000E+01 0. -1.
         -5    1    3    3    0  502 -0.12472373752E+03 -0.15020525097E+03  0.16168745531E+03  0.25353093248E+03  0.41800000000E+01 0. -1.
        -11    1    1    2    0    0  0.36727388459E+02  0.11161697259E+03  0.48724962785E+03  0.50121796604E+03  0.00000000000E+00 0. -1.
         11    1    1    2    0    0  0.77976524570E+02  0.35588884661E+02  0.21938487688E+03  0.23553477726E+03  0.00000000000E+00 0.  1.
</event>
<event>
 7    1  0.2841804E-009  0.1251882E+03  0.7561462E-02  0.1234775E+00
          2   -1    0    0  501    0  0.00000000000E+00  0.00000000000E+00  0.22426297893E+04  0.22426297893E+04  0.00000000000E+00 0. -1.
         -2   -1    0    0    0  501 -0.00000000000E+00 -0.00000000000E+00 -0.21322188441E+02  0.21322188441E+02  0.00000000000E+00 0.  1.
         25    2    1    2    0    0 -0.67556369180E+02 -0.87810373408E+02  0.19471355528E+04  0.19542925550E+04  0.12509198624E+03 0.  0.
          5    1    3    3  502    0  0.18718444993E+00  0.15431949375E+02  0.86158334473E+03  0.86173169398E+03  0.41800000000E+01 0.  1.
         -5    1    3    3    0  502 -0.67743553630E+02 -0.10324232278E+03  0.10855522080E+04  0.10925608610E+04  0.41800000000E+01 0.  1.
        -11    1    1    2    0    0  0.44508951084E+02  0.55435417134E+02  0.63660335997E+02  0.95429401018E+02  0.00000000000E+00 0.  1.
         11    1    1    2    0    0  0.23047418096E+02  0.32374956273E+02  0.21051171211E+03  0.21423002173E+03  0.00000000000E+00 0. -1.
</event>
<event>
 7    1  0.2841804E-009  0.2226661E+03  0.7561462E-02  0.1131911E+00
         -3   -1    0    0    0  501 -0.00000000000E+00  0.00000000000E+00  0.15413385942E+03  0.15413385942E+03  0.00000000000E+00 0.  1.
          3   -1    0    0  501    0  0.00000000000E+00 -0.00000000000E+00 -0.37461881147E+03  0.37461881147E+03  0.00000000000E+00 0. -1.
         25    2    1    2    0    0 -0.13916250670E+03  0.16227195270E+03 -0.12327632258E+03  0.27666044590E+03  0.12508221582E+03 0.  0.
          5    1    3    3  502    0 -0.76090474992E+02  0.89024378580E+02  0.34331293798E+01  0.11723633884E+03  0.41800000000E+01 0.  1.
         -5    1    3    3    0  502 -0.63072031710E+02  0.73247574120E+02 -0.12670945196E+03  0.15942410707E+03  0.41800000000E+01 0.  1.
        -11    1    1    2    0    0  0.10218594663E+03 -0.51130808361E+02 -0.35216474013E+02  0.11956808644E+03  0.00000000000E+00 0.  1.
         11    1    1    2    0    0  0.36976560074E+02 -0.11114114434E+03 -0.61992155455E+02  0.13252413855E+03  0.00000000000E+00 0. -1.
</event>
<event>
 7    1  0.2841804E-009  0.1939374E+03  0.7561462E-02  0.1154957E+00
          1   -1    0    0  501    0  0.00000000000E+00  0.00000000000E+00  0.84466356583E+03  0.84466356583E+03  0.00000000000E+00 0. -1.
         -1   -1    0    0    0  501 -0.00000000000E+00 -0.00000000000E+00 -0.47829707177E+02  0.47829707177E+02  0.00000000000E+00 0.  1.
         25    2    1    2    0    0  0.14882892463E+03 -0.70432824530E+02  0.33266446659E+03  0.39169375469E+03  0.12509004180E+03 0.  0.
          5    1    3    3  502    0  0.14552516894E+03 -0.10597719426E+02  0.25022583363E+03  0.28969005276E+03  0.41800000000E+01 0. -1.
         -5    1    3    3    0  502  0.33037556956E+01 -0.59835105104E+02  0.82438632953E+02  0.10200370193E+03  0.41800000000E+01 0. -1.
        -11    1    1    2    0    0 -0.14396835266E+03  0.37811242983E+02  0.42054479154E+03  0.44611041050E+03  0.00000000000E+00 0.  1.
         11    1    1    2    0    0 -0.48605719698E+01  0.32621581547E+02  0.43624600531E+02  0.54689107819E+02  0.00000000000E+00 0. -1.
</event>
<event>
 7    1  0.2841804E-009  0.1789960E+03  0.7561462E-02  0.1168778E+00
         -1   -1    0    0    0  501 -0.00000000000E+00  0.00000000000E+00  0.18442152922E+02  0.18442152922E+02  0.00000000000E+00 0.  1.
          1   -1    0    0  501    0  0.00000000000E+00 -0.00000000000E+00 -0.29756344723E+04  0.29756344723E+04  0.00000000000E+00 0. -1.
         25    2    1    2    0    0 -0.15741382055E+03 -0.18290682416E+02 -0.23715456413E+04  0.23801237307E+04  0.12508631006E+03 0.  0.
          5    1    3    3  502    0 -0.60730093892E+02 -0.63448352474E+02 -0.13919262988E+04  0.13947007319E+04  0.41800000000E+01 0.  1.
         -5    1    3    3    0  502 -0.96683726653E+02  0.45157670058E+02 -0.97961934244E+03  0.98542299885E+03  0.41800000000E+01 0.  1.
        -11    1    1    2    0    0  0.13861756579E+03  0.29030024982E+02 -0.56976823619E+03  0.58710596562E+03  0.00000000000E+00 0. -1.
         11    1    1    2    0    0  0.18796254751E+02 -0.10739342566E+02 -0.15878441872E+02  0.26846928832E+02  0.00000000000E+00 0.  1.
</event>
<event>
 7    1  0.2841804E-009  0.8342432E+02  0.7561462E-02  0.1319605E+00
          2   -1    0    0  501    0  0.00000000000E+00  0.00000000000E+00  0.13284120974E+03  0.13284120974E+03  0.00000000000E+00 0. -1.
         -2   -1    0    0    0  501 -0.00000000000E+00 -0.00000000000E+00 -0.10009636708E+03  0.10009636708E+03  0.00000000000E+00 0.  1.
         25    2    1    2    0    0 -0.15872579788E+02  0.26685984033E+02 -0.17902214658E+02  0.13012716529E+03  0.12509400195E+03 0.  0.
          5    1    3    3  502    0 -0.40837027087E+00 -0.49461026078E+02 -0.16470658233E+02  0.52300237567E+02  0.41800000000E+01 0. -1.
         -5    1    3    3    0  502 -0.15464209517E+02  0.76147010111E+02 -0.14315564259E+01  0.77826927722E+02  0.41800000000E+01 0. -1.
        -11    1    1    2    0    0 -0.29442843635E+01 -0.18740321678E+02  0.71289583060E+02  0.73770408158E+02  0.00000000000E+00 0. -1.
         11    1    1    2    0    0  0.18816864152E+02 -0.79456623557E+01 -0.20642525742E+02  0.29040003371E+02  0.00000000000E+00 0.  1.
</event>
<event>
 7    1  0.2841804E-009  0.7460265E+02  0.7561462E-02  0.1345106E+00
         -1   -1    0    0    0  501 -0.00000000000E+00  0.00000000000E+00  0.67235370134E+02  0.67235370134E+02  0.00000000000E+00 0. -1.
          1   -1    0    0  501    0  0.00000000000E+00 -0.00000000000E+00 -0.19242339838E+03  0.19242339838E+03  0.00000000000E+00 0.  1.
         25    2    1    2    0    0  0.25209873094E+02 -0.18380201550E+02 -0.49612154308E+02  0.13813707231E+03  0.12508843025E+03 0.  0.
          5    1    3    3  502    0  0.40929762962E+02  0.83655954273E+01  0.30652921987E+02  0.51983677335E+02  0.41800000000E+01 0. -1.
         -5    1    3    3    0  502 -0.15719889868E+02 -0.26745796977E+02 -0.80265076294E+02  0.86153394976E+02  0.41800000000E+01 0. -1.
        -11    1    1    2    0    0 -0.41306473259E+02 -0.10708234124E+02 -0.77230807780E+02  0.88235416254E+02  0.00000000000E+00 0.  1.
         11    1    1    2    0    0  0.16096600165E+02  0.29088435674E+02  0.16549338410E+01  0.33286279949E+02  0.00000000000E+00 0. -1.
</event>
<event>
 7    1  0.2841804E-009  0.1383261E+03  0.7561462E-02  0.1215599E+00
         -4   -1    0    0    0  501 -0.00000000000E+00  0.00000000000E+00  0.41467477996E+03  0.41467477996E+03  0.00000000000E+00 0.  1.
          4   -1    0    0  501    0  0.00000000000E+00 -0.00000000000E+00 -0.48835556441E+02  0.48835556441E+02  0.00000000000E+00 0. -1.
         25    2    1    2    0    0  0.10418626664E+02  0.88543196880E+02  0.16691971168E+03  0.22684391701E+03  0.12509007571E+03 0.  0.
          5    1    3    3  502    0 -0.27157432575E+02  0.10682183329E+03  0.13352366468E+03  0.17318912102E+03  0.41800000000E+01 0.  1.
         -5    1    3    3    0  502  0.37576059239E+02 -0.18278636409E+02  0.33396047005E+02  0.53654795987E+02  0.41800000000E+01 0.  1.
        -11    1    1    2    0    0  0.37676579829E+02 -0.50664835250E+02  0.72061060348E+02  0.95808384899E+02  0.00000000000E+00 0.  1.
         11    1    1    2    0    0 -0.48095206493E+02 -0.37878361630E+02  0.12685845149E+03  0.14085803449E+03  0.00000000000E+00 0. -1.
</event>
<event>
 7    1  0.2841804E-009  0.9638160E+02  0.7561462E-02  0.1288094E+00
         -1   -1    0    0    0  501 -0.00000000000E+00  0.00000000000E+00  0.49586520413E+03  0.49586520413E+03  0.00000000000E+00 0.  1.
          1   -1    0    0  501    0  0.00000000000E+00 -0.00000000000E+00 -0.26534404807E+02  0.26534404807E+02  0.00000000000E+00 0. -1.
         25    2    1    2    0    0 -0.32668365818E+02  0.18782645327E+02  0.24668138868E+03  0.27915690647E+03  0.12512737917E+03 0.  0.
          5    1    3    3  502    0 -0.63305592821E+02  0.52304237291E+02  0.12932247002E+03  0.15324850725E+03  0.41800000000E+01 0. -1.
         -5    1    3    3    0  502  0.30637227004E+02 -0.33521591964E+02  0.11735891865E+03  0.12590839922E+03  0.41800000000E+01 0. -1.
        -11    1    1    2    0    0  0.40864903506E+02 -0.30246971530E+02  0.22341703382E+03  0.22912876429E+03  0.00000000000E+00 0.  1.
         11    1    1    2    0    0 -0.81965376884E+01  0.11464326203E+02 -0.76762317974E+00  0.14113938172E+02  0.00000000000E+00 0. -1.
</event>
<event>
 7    1  0.3164852E-009  0.9264606E+02  0.7561462E-02  0.1296567E+00
         -1   -1    0    0    0  501 -0.00000000000E+00  0.00000000000E+00  0.32658012086E+02  0.32658012086E+02  0.00000000000E+00 0.  1.
          1   -1    0    0  501    0  0.00000000000E+00 -0.00000000000E+00 -0.40885577212E+03  0.40885577212E+03  0.00000000000E+00 0. -1.
         25    2    1    2    0    0 -0.16932976207E+01  0.20167473464E+02 -0.27653609840E+03  0.30418048516E+03  0.12507581537E+03 0.  0.
          5    1    3    3  502    0 -0.13634190974E+02  0.59040075881E+02 -0.65927278899E+02  0.89640951727E+02  0.41800000000E+01 0.  1.
         -5    1    3    3    0  502  0.11940893354E+02 -0.38872602417E+02 -0.21060881951E+03  0.21453953343E+03  0.41800000000E+01 0.  1.
        -11    1    1    2    0    0  0.38376650536E+02 -0.26243106518E+02 -0.22435702993E+02  0.51621978990E+02  0.00000000000E+00 0.  1.
         11    1    1    2    0    0 -0.36683352915E+02  0.60756330538E+01 -0.77225958641E+02  0.85711320058E+02  0.00000000000E+00 0. -1.
</event>
<event>
 7    1  0.2841804E-009  0.1067373E+03  0.7561462E-02  0.1266734E+00
         -3   -1    0    0    0  501 -0.00000000000E+00  0.00000000000E+00  0.10127455980E+04  0.10127455980E+04  0.00000000000E+00 0.  1.
          3   -1    0    0  501    0  0.00000000000E+00 -0.00000000000E+00 -0.18309589107E+02  0.18309589107E+02  0.00000000000E+00 0. -1.
         25    2    1    2    0    0  0.23324158949E+02 -0.49685882981E+02  0.64972516217E+03  0.66392778703E+03  0.12507844205E+03 0.  0.
          5    1    3    3  502    0  0.53223889040E+02 -0.37630300848E+02  0.60564419107E+03  0.60915612160E+03  0.41800000000E+01 0. -1.
         -5    1    3    3    0  502 -0.29899730091E+02 -0.12055582133E+02  0.44080971106E+02  0.54771665428E+02  0.41800000000E+01 0. -1.
        -11    1    1    2    0    0 -0.55922767287E+02 -0.35839744241E+00  0.24141673699E+03  0.24780945351E+03  0.00000000000E+00 0.  1.
         11    1    1    2    0    0  0.32598608338E+02  0.50044280423E+02  0.10329410970E+03  0.11931794655E+03  0.00000000000E+00 0. -1.
</event>
<event>
 7    1  0.2841804E-009  0.9516745E+02  0.7561462E-02  0.1290799E+00
         -1   -1    0    0    0  501 -0.00000000000E+00  0.00000000000E+00  0.36924408157E+02  0.36924408157E+02  0.00000000000E+00 0.  1.
          1   -1    0    0  501    0  0.00000000000E+00 -0.00000000000E+00 -0.44149995105E+03  0.44149995105E+03  0.00000000000E+00 0. -1.
         25    2    1    2    0    0 -0.43412626110E+02 -0.52240707339E+02 -0.22196865806E+03  0.26368705241E+03  0.12508808432E+03 0.  0.
          5    1    3    3  502    0 -0.25932069447E+02 -0.55307720812E+02 -0.25421301323E+02  0.66295785448E+02  0.41800000000E+01 0.  1.
         -5    1    3    3    0  502 -0.17480556663E+02  0.30670134736E+01 -0.19654735674E+03  0.19739126696E+03  0.41800000000E+01 0.  1.
        -11    1    1    2    0    0 -0.23871904901E+02  0.33302340113E+02 -0.48371833155E+02  0.63393595445E+02  0.00000000000E+00 0.  1.
         11    1    1    2    0    0  0.67284531011E+02  0.18938367226E+02 -0.13423505167E+03  0.15134371135E+03  0.00000000000E+00 0. -1.
</event>
<event>
 7    1  0.2841804E-009  0.9639976E+02  0.7561462E-02  0.1288054E+00
         -1   -1    0    0    0  501 -0.00000000000E+00  0.00000000000E+00  0.29114000413E+03  0.29114000413E+03  0.00000000000E+00 0.  1.
          1   -1    0    0  501    0  0.00000000000E+00 -0.00000000000E+00 -0.48620717267E+02  0.48620717267E+02  0.00000000000E+00 0. -1.
         25    2    1    2    0    0 -0.47316424725E+02  0.15050139802E+02  0.11831490684E+03  0.17919720490E+03  0.12509144777E+03 0.  0.
          5    1    3    3  502    0  0.60571073859E+01 -0.26284180140E+02  0.10724077480E+03  0.11065985205E+03  0.41800000000E+01 0. -1.
         -5    1    3    3    0  502 -0.53373532111E+02  0.41334319942E+02  0.11074132044E+02  0.68537352849E+02  0.41800000000E+01 0. -1.
        -11    1    1    2    0    0 -0.24428870488E+02 -0.83227109219E+01  0.54526258311E+02  0.60325368427E+02  0.00000000000E+00 0.  1.
         11    1    1    2    0    0  0.71745295213E+02 -0.67274288804E+01  0.69678121711E+02  0.10023814808E+03  0.00000000000E+00 0. -1.
</event>
<event>
 7    1  0.2841804E-009  0.1178549E+03  0.7561462E-02  0.1246678E+00
         -1   -1    0    0    0  501 -0.00000000000E+00  0.00000000000E+00  0.13752243484E+03  0.13752243484E+03  0.00000000000E+00 0.  1.
          1   -1    0    0  501    0  0.00000000000E+00 -0.00000000000E+00 -0.16929169104E+03  0.16929169104E+03  0.00000000000E+00 0. -1.
         25    2    1    2    0    0  0.67674777231E+02 -0.53474055622E+02 -0.80275240304E+02  0.17184589122E+03  0.12509015159E+03 0.  0.
          5    1    3    3  502    0  0.79315573179E+02 -0.15331511571E+02  0.13504731428E+01  0.80903099900E+02  0.41800000000E+01 0.  1.
         -5    1    3    3    0  502 -0.11640795948E+02 -0.38142544051E+02 -0.81625713447E+02  0.90942791318E+02  0.41800000000E+01 0.  1.
        -11    1    1    2    0    0 -0.24143473854E+02  0.65292191590E+02  0.12276388086E+01  0.69623880310E+02  0.00000000000E+00 0. -1.
         11    1    1    2    0    0 -0.43531303376E+02 -0.11818135968E+02  0.47278345299E+02  0.65344354352E+02  0.00000000000E+00 0.  1.
</event>
<event>
 7    1  0.2841804E-009  0.1082609E+03  0.7561462E-02  0.1263825E+00
         -2   -1    0    0    0  501 -0.00000000000E+00  0.00000000000E+00  0.12702441689E+03  0.12702441689E+03  0.00000000000E+00 0.  1.
          2   -1    0    0  501    0  0.00000000000E+00 -0.00000000000E+00 -0.10514299914E+03  0.10514299914E+03  0.00000000000E+00 0. -1.
         25    2    1    2    0    0  0.14207661447E+02  0.27137936955E+02  0.22234348071E+02  0.13069070201E+03  0.12508944037E+03 0.  0.
          5    1    3    3  502    0  0.67261044584E+02  0.71143847202E+01  0.28443298507E+02  0.73492558933E+02  0.41800000000E+01 0. -1.
         -5    1    3    3    0  502 -0.53053383137E+02  0.20023552235E+02 -0.62089504362E+01  0.57198143081E+02  0.41800000000E+01 0. -1.
        -11    1    1    2    0    0  0.87783288505E+00 -0.57756524394E+02 -0.21142344685E+02  0.61510856273E+02  0.00000000000E+00 0. -1.
         11    1    1    2    0    0 -0.15085494332E+02  0.30618587439E+02  0.20789414356E+02  0.39965857745E+02  0.00000000000E+00 0.  1.
</event>
<event>
 7    1  0.2841804E-009  0.1647123E+03  0.7561462E-02  0.1183477E+00
         -1   -1    0    0    0  501 -0.00000000000E+00  0.00000000000E+00  0.99845234578E+02  0.99845234578E+02  0.00000000000E+00 0.  1.
          1   -1    0    0  501    0  0.00000000000E+00 -0.00000000000E+00 -0.82965411817E+03  0.82965411817E+03  0.00000000000E+00 0. -1.
         25    2    1    2    0    0  0.13410857007E+03  0.26784777893E+02 -0.32996909492E+01  0.18536666919E+03  0.12508949273E+03 0.  0.
          5    1    3    3  502    0  0.32142693756E+02 -0.46419135023E+02 -0.16788088090E+02  0.59052528819E+02  0.41800000000E+01 0.  1.
         -5    1    3    3    0  502  0.10196587632E+03  0.73203912916E+02  0.13488397140E+02  0.12631414037E+03  0.41800000000E+01 0.  1.
        -11    1    1    2    0    0 -0.13099639309E+03 -0.11367733664E+02 -0.70675279158E+03  0.71888023256E+03  0.00000000000E+00 0. -1.
         11    1    1    2    0    0 -0.31121769804E+01 -0.15417044229E+02 -0.19756401065E+02  0.25252450997E+02  0.00000000000E+00 0.  1.
</event>
<event>
 7    1  0.2841804E-009  0.9850363E+02  0.7561462E-02  0.1283474E+00
         -2   -1    0    0    0  501 -0.00000000000E+00  0.00000000000E+00  0.12650003612E+03  0.12650003612E+03  0.00000000000E+00 0.  1.
          2   -1    0    0  501    0  0.00000000000E+00 -0.00000000000E+00 -0.13338684059E+03  0.13338684059E+03  0.00000000000E+00 0. -1.
         25    2    1    2    0    0 -0.31347826908E+02 -0.50962956743E+02  0.41710063274E+02  0.14480180565E+03  0.12509166371E+03 0.  0.
          5    1    3    3  502    0 -0.73447508419E+02 -0.43009239893E+02  0.51369582287E+00  0.85217765123E+02  0.41800000000E+01 0. -1.
         -5    1    3    3    0  502  0.42099681510E+02 -0.79537168495E+01  0.41196367451E+02  0.59584040532E+02  0.41800000000E+01 0. -1.
        -11    1    1    2    0    0 -0.95593187128E+00  0.30475540138E+02 -0.66269470845E+02  0.72947344835E+02  0.00000000000E+00 0. -1.
         11    1    1    2    0    0  0.32303758780E+02  0.20487416605E+02  0.17672603105E+02  0.42137726220E+02  0.00000000000E+00 0.  1.
</event>
<event>
 7    1  0.2841804E-009  0.9691339E+02  0.7561462E-02  0.1286924E+00
          1   -1    0    0  501    0  0.00000000000E+00  0.00000000000E+00  0.46582463716E+03  0.46582463716E+03  0.00000000000E+00 0. -1.
         -1   -1    0    0    0  501 -0.00000000000E+00 -0.00000000000E+00 -0.34602447289E+02  0.34602447289E+02  0.00000000000E+00 0.  1.
         25    2    1    2    0    0  0.21963637535E+02 -0.13709175374E+02  0.12178567503E+03  0.17649306251E+03  0.12509079746E+03 0.  0.
          5    1    3    3  502    0  0.29442312021E+02 -0.51382851914E+02  0.12432680330E+03  0.13777399474E+03  0.41800000000E+01 0. -1.
         -5    1    3    3    0  502 -0.74786744859E+01  0.37673676540E+02 -0.25411282695E+01  0.38719067770E+02  0.41800000000E+01 0. -1.
        -11    1    1    2    0    0  0.21905672918E+02  0.39331137778E+02  0.14473257846E+03  0.15157280816E+03  0.00000000000E+00 0.  1.
         11    1    1    2    0    0 -0.43869310453E+02 -0.25621962404E+02  0.16470393639E+03  0.17236121379E+03  0.00000000000E+00 0. -1.
</event>
<event>
 7    1  0.2841804E-009  0.1559384E+03  0.7561462E-02  0.1193360E+00
          3   -1    0    0  501    0  0.00000000000E+00  0.00000000000E+00  0.21689338692E+03  0.21689338692E+03  0.00000000000E+00 0. -1.
         -3   -1    0    0    0  501 -0.00000000000E+00 -0.00000000000E+00 -0.13414382394E+03  0.13414382394E+03  0.00000000000E+00 0.  1.
         25    2    1    2    0    0  0.12760184660E+03  0.19379124902E+02  0.67981258878E+02  0.19215307343E+03  0.12507425926E+03 0.  0.
          5    1    3    3  502    0  0.11368355755E+03 -0.17048641654E+02  0.91003580410E+02  0.14667559950E+03  0.41800000000E+01 0.  1.
         -5    1    3    3    0  502  0.13918289051E+02  0.36427766556E+02 -0.23022321532E+02  0.45477473930E+02  0.41800000000E+01 0.  1.
        -11    1    1    2    0    0  0.13937373577E+02 -0.68612830757E+01  0.55403369460E+01  0.16493117387E+02  0.00000000000E+00 0.  1.
         11    1    1    2    0    0 -0.14153922018E+03 -0.12517841826E+02  0.92279671561E+01  0.14239102005E+03  0.00000000000E+00 0. -1.
</event>
<event>
 7    1  0.2841804E-009  0.1220314E+03  0.7561462E-02  0.1239783E+00
          2   -1    0    0  501    0  0.00000000000E+00  0.00000000000E+00  0.27106914507E+02  0.27106914507E+02  0.00000000000E+00 0.  1.
         -2   -1    0    0    0  501 -0.00000000000E+00 -0.00000000000E+00 -0.65289378981E+03  0.65289378981E+03  0.00000000000E+00 0. -1.
         25    2    1    2    0    0  0.67023997544E+02  0.17690342652E+02 -0.33749799895E+03  0.36654487362E+03  0.12508029666E+03 0.  0.
          5    1    3    3  502    0  0.93374168981E+02  0.17278177575E+02 -0.15295793243E+03  0.18008573610E+03  0.41800000000E+01 0.  1.
         -5    1    3    3    0  502 -0.26350171437E+02  0.41216507768E+00 -0.18454006651E+03  0.18645913752E+03  0.41800000000E+01 0.  1.
        -11    1    1    2    0    0 -0.47138636264E+02  0.39675950200E+02 -0.12811438837E+03  0.14216022144E+03  0.00000000000E+00 0.  1.
         11    1    1    2    0    0 -0.19885361280E+02 -0.57366292852E+02 -0.16017448799E+03  0.17129560926E+03  0.00000000000E+00 0. -1.
</event>
<event>
 7    1  0.2841804E-009  0.1014030E+03  0.7561462E-02  0.1277373E+00
          1   -1    0    0  501    0  0.00000000000E+00  0.00000000000E+00  0.45024792720E+03  0.45024792720E+03  0.00000000000E+00 0. -1.
         -1   -1    0    0    0  501 -0.00000000000E+00 -0.00000000000E+00 -0.37832230211E+02  0.37832230211E+02  0.00000000000E+00 0.  1.
         25    2    1    2    0    0 -0.45854749907E+02  0.54724838842E+02  0.23404477067E+03  0.27481298648E+03  0.12509099401E+03 0.  0.
          5    1    3    3  502    0 -0.32602022602E+02 -0.13119847795E+02  0.18880370615E+03  0.19209199395E+03  0.41800000000E+01 0.  1.
         -5    1    3    3    0  502 -0.13252727305E+02  0.67844686636E+02  0.45241064526E+02  0.82720992530E+02  0.41800000000E+01 0.  1.
        -11    1    1    2    0    0 -0.48835221499E+01  0.12799585487E+02 -0.22409933230E+01  0.13881650777E+02  0.00000000000E+00 0.  1.
         11    1    1    2    0    0  0.50738272057E+02 -0.67524424329E+02  0.18061191964E+03  0.19938552016E+03  0.00000000000E+00 0. -1.
</event>
<event>
 7    1  0.2841804E-009  0.1723861E+03  0.7561462E-02  0.1175382E+00
         -1   -1    0    0    0  501 -0.00000000000E+00  0.00000000000E+00  0.18652526966E+03  0.18652526966E+03  0.00000000000E+00 0.  1.
          1   -1    0    0  501    0  0.00000000000E+00 -0.00000000000E+00 -0.17634717331E+03  0.17634717331E+03  0.00000000000E+00 0. -1.
         25    2    1    2    0    0  0.13834768828E+03 -0.49457758408E+00  0.49626625807E+02  0.19300402855E+03  0.12508967019E+03 0.  0.
          5    1    3    3  502    0  0.11388557795E+03 -0.54041790197E+02  0.22783363371E+02  0.12816783528E+03  0.41800000000E+01 0. -1.
         -5    1    3    3    0  502  0.24462110327E+02  0.53547212612E+02  0.26843262436E+02  0.64836193275E+02  0.41800000000E+01 0. -1.
        -11    1    1    2    0    0 -0.82078818296E+01  0.25778838154E+02  0.93130463333E+01  0.28612071800E+02  0.00000000000E+00 0.  1.
         11    1    1    2    0    0 -0.13013980645E+03 -0.25284260570E+02 -0.48761575790E+02  0.14125634261E+03  0.00000000000E+00 0. -1.
</event>
<event>
 7    1  0.2841804E-009  0.8399936E+02  0.7561462E-02  0.1318070E+00
          3   -1    0    0  501    0  0.00000000000E+00  0.00000000000E+00  0.38798361986E+03  0.38798361986E+03  0.00000000000E+00 0.  1.
         -3   -1    0    0    0  501 -0.00000000000E+00 -0.00000000000E+00 -0.58173600802E+02  0.58173600802E+02  0.00000000000E+00 0. -1.
         25    2    1    2    0    0 -0.42728235223E+02  0.11805265240E+02  0.31877634623E+03  0.34529083554E+03  0.12506932406E+03 0.  0.
          5    1    3    3  502    0  0.39107584546E+02 -0.33298872836E+01  0.48897996617E+02  0.62840892670E+02  0.41800000000E+01 0.  1.
         -5    1    3    3    0  502 -0.81835819769E+02  0.15135152523E+02  0.26987834961E+03  0.28244994287E+03  0.41800000000E+01 0.  1.
        -11    1    1    2    0    0  0.24223047927E+02 -0.11192340581E+02  0.50587373766E+02  0.57193591626E+02  0.00000000000E+00 0.  1.
         11    1    1    2    0    0  0.18505187296E+02 -0.61292465837E+00 -0.39553700939E+02  0.43672793493E+02  0.00000000000E+00 0. -1.
</event>
<event>
 7    1  0.2841804E-009  0.1444418E+03  0.7561462E-02  0.1207474E+00
         -1   -1    0    0    0  501 -0.00000000000E+00  0.00000000000E+00  0.48267356032E+02  0.48267356032E+02  0.00000000000E+00 0.  1.
          1   -1    0    0  501    0  0.00000000000E+00 -0.00000000000E+00 -0.72729818193E+03  0.72729818193E+03  0.00000000000E+00 0. -1.
         25    2    1    2    0    0 -0.27110306460E+01 -0.11750186725E+03 -0.15785371108E+03  0.23319357728E+03  0.12508961544E+03 0.  0.
          5    1    3    3  502    0  0.33635844882E+02 -0.97389273262E+02 -0.16114426583E+03  0.19131384533E+03  0.41800000000E+01 0.  1.
         -5    1    3    3    0  502 -0.36346875528E+02 -0.20112593989E+02  0.32905547497E+01  0.41879731950E+02  0.41800000000E+01 0.  1.
        -11    1    1    2    0    0  0.33826471643E+02  0.10528672731E+03 -0.32328089656E+03  0.34167245018E+03  0.00000000000E+00 0.  1.
         11    1    1    2    0    0 -0.31115440997E+02  0.12215139940E+02 -0.19789621826E+03  0.20069951050E+03  0.00000000000E+00 0. -1.
</event>
<event>
 7    1  0.2841804E-009  0.1614547E+03  0.7561462E-02  0.1187064E+00
         -1   -1    0    0    0  501 -0.00000000000E+00  0.00000000000E+00  0.94230753948E+02  0.94230753948E+02  0.00000000000E+00 0.  1.
          1   -1    0    0  501    0  0.00000000000E+00 -0.00000000000E+00 -0.45751220714E+03  0.45751220714E+03  0.00000000000E+00 0. -1.
         25    2    1    2    0    0  0.65757982979E+02  0.13216870398E+03 -0.31960270052E+03  0.37361251622E+03  0.12509095676E+03 0.  0.
          5    1    3    3  502    0  0.67104197237E+02  0.13612594443E+03 -0.32909600732E+03  0.36242916614E+03  0.41800000000E+01 0.  1.
         -5    1    3    3    0  502 -0.13462142585E+01 -0.39572404530E+01  0.94933068081E+01  0.11183350079E+02  0.41800000000E+01 0.  1.
        -11    1    1    2    0    0 -0.32612320227E+02 -0.12761522737E+03 -0.12347975732E+02  0.13229392348E+03  0.00000000000E+00 0.  1.
         11    1    1    2    0    0 -0.33145662751E+02 -0.45534766117E+01 -0.31330776944E+02  0.45836521382E+02  0.00000000000E+00 0. -1.
</event>
<event>
 7    1  0.2841804E-009  0.1766703E+03  0.7561462E-02  0.1171065E+00
         -2   -1    0    0    0  501 -0.00000000000E+00  0.00000000000E+00  0.60418113556E+02  0.60418113556E+02  0.00000000000E+00 0. -1.
          2   -1    0    0  501    0  0.00000000000E+00 -0.00000000000E+00 -0.62701990786E+03  0.62701990786E+03  0.00000000000E+00 0.  1.
         25    2    1    2    0    0  0.74596547354E+02 -0.14028012237E+03 -0.37809303275E+03  0.42877130036E+03  0.12508928409E+03 0.  0.
          5    1    3    3  502    0  0.94430716449E+02 -0.63133741285E+02 -0.28097054333E+03  0.30309230956E+03  0.41800000000E+01 0.  1.
         -5    1    3    3    0  502 -0.19834169096E+02 -0.77146381080E+02 -0.97122489421E+02  0.12567899080E+03  0.41800000000E+01 0.  1.
        -11    1    1    2    0    0 -0.20652862167E+02  0.57554672906E+02 -0.21832429381E+02  0.64928699831E+02  0.00000000000E+00 0. -1.
         11    1    1    2    0    0 -0.53943685187E+02  0.82725449459E+02 -0.16667633217E+03  0.19373802122E+03  0.00000000000E+00 0.  1.
</event>
<event>
 7    1  0.2841804E-009  0.1024957E+03  0.7561462E-02  0.1275134E+00
         -2   -1    0    0    0  501 -0.00000000000E+00  0.00000000000E+00  0.92199320657E+02  0.92199320657E+02  0.00000000000E+00 0.  1.
          2   -1    0    0  501    0  0.00000000000E+00 -0.00000000000E+00 -0.18114911941E+03  0.18114911941E+03  0.00000000000E+00 0. -1.
         25    2    1    2    0    0 -0.11837013578E+01 -0.66902316679E+02 -0.23709357823E+02  0.14382141814E+03  0.12508055621E+03 0.  0.
          5    1    3    3  502    0 -0.27414704705E+02  0.26691308676E+02 -0.26096056888E+02  0.46502350242E+02  0.41800000000E+01 0. -1.
         -5    1    3    3    0  502  0.26231003347E+02 -0.93593625355E+02  0.23866990655E+01  0.97319067895E+02  0.41800000000E+01 0. -1.
        -11    1    1    2    0    0  0.94567581266E+01  0.35564045431E+02  0.17438008758E+02  0.40722423198E+02  0.00000000000E+00 0.  1.
         11    1    1    2    0    0 -0.82730567689E+01  0.31338271248E+02 -0.82678449683E+02  0.88804598727E+02  0.00000000000E+00 0. -1.
</event>
<event>
 7    1  0.2841804E-009  0.1100351E+03  0.7561462E-02  0.1260505E+00
          2   -1    0    0  501    0  0.00000000000E+00  0.00000000000E+00  0.51772224264E+02  0.51772224264E+02  0.00000000000E+00 0. -1.
         -2   -1    0    0    0  501 -0.00000000000E+00 -0.00000000000E+00 -0.39005150470E+03  0.39005150470E+03  0.00000000000E+00 0.  1.
         25    2    1    2    0    0  0.20472474929E+02 -0.26592770051E+02 -0.31818494644E+03  0.34353245072E+03  0.12508631782E+03 0.  0.
          5    1    3    3  502    0 -0.22150161635E+02 -0.64079882330E+02 -0.12661242796E+03  0.14368382057E+03  0.41800000000E+01 0. -1.
         -5    1    3    3    0  502  0.42622636564E+02  0.37487112279E+02 -0.19157251848E+03  0.19984863015E+03  0.41800000000E+01 0. -1.
        -11    1    1    2    0    0  0.35475714986E+02  0.95434580040E+01 -0.14649461732E+02  0.39550103331E+02  0.00000000000E+00 0.  1.
         11    1    1    2    0    0 -0.55948189916E+02  0.17049312047E+02 -0.54448722598E+01  0.58741174912E+02  0.00000000000E+00 0. -1.
</event>
<event>
 7    1  0.2841804E-009  0.1294086E+03  0.7561462E-02  0.1228336E+00
         -1   -1    0    0    0  501 -0.00000000000E+00  0.00000000000E+00  0.21763309010E+03  0.21763309010E+03  0.00000000000E+00 0.  1.
          1   -1    0    0  501    0  0.00000000000E+00 -0.00000000000E+00 -0.12064728399E+03  0.12064728399E+03  0.00000000000E+00 0. -1.
         25    2    1    2    0    0 -0.11953066932E+03  0.12397166879E+02  0.54949409652E+02  0.18193858694E+03  0.12506374832E+03 0.  0.
          5    1    3    3  502    0 -0.42050527724E+02  0.89029345017E+01 -0.40277067620E+02  0.59052719672E+02  0.41800000000E+01 0. -1.
         -5    1    3    3    0  502 -0.77480141595E+02  0.34942323775E+01  0.95226477271E+02  0.12288586727E+03  0.41800000000E+01 0. -1.
        -11    1    1    2    0    0  0.65097473388E+02 -0.40533512835E+02  0.54155172110E+02  0.93879866695E+02  0.00000000000E+00 0.  1.
         11    1    1    2    0    0  0.54433195931E+02  0.28136345956E+02 -0.12118775660E+02  0.62461920452E+02  0.00000000000E+00 0. -1.
</event>
<event>
 7    1  0.2841804E-009  0.1080223E+03  0.7561462E-02  0.1264277E+00
         -2   -1    0    0    0  501 -0.00000000000E+00  0.00000000000E+00  0.17730357697E+02  0.17730357697E+02  0.00000000000E+00 0.  1.
          2   -1    0    0  501    0  0.00000000000E+00 -0.00000000000E+00 -0.83712943654E+03  0.83712943654E+03  0.00000000000E+00 0. -1.
         25    2    1    2    0    0 -0.45866480542E+02 -0.75364623270E+01 -0.35271775657E+03  0.37711642901E+03  0.12508578229E+03 0.  0.
          5    1    3    3  502    0 -0.77272621398E+02 -0.25594835424E+02 -0.31192801509E+03  0.32240147738E+03  0.41800000000E+01 0. -1.
         -5    1    3    3    0  502  0.31406140856E+02  0.18058373097E+02 -0.40789741478E+02  0.54714951633E+02  0.41800000000E+01 0. -1.
        -11    1    1    2    0    0 -0.21505205715E+02  0.20213776456E+02 -0.85606729561E+02  0.90551547627E+02  0.00000000000E+00 0.  1.
         11    1    1    2    0    0  0.67371686257E+02 -0.12677314129E+02 -0.38107459271E+03  0.38719181760E+03  0.00000000000E+00 0. -1.
</event>
<event>
 7    1  0.2841804E-009  0.1416990E+03  0.7561462E-02  0.1211061E+00
          1   -1    0    0  501    0  0.00000000000E+00  0.00000000000E+00  0.53107731288E+03  0.53107731288E+03  0.00000000000E+00 0. -1.
         -1   -1    0    0    0  501 -0.00000000000E+00 -0.00000000000E+00 -0.66147322826E+02  0.66147322826E+02  0.00000000000E+00 0.  1.
         25    2    1    2    0    0 -0.44879868522E+02  0.12412450814E+03  0.36681781972E+03  0.40942045026E+03  0.12509474850E+03 0.  0.
          5    1    3    3  502    0  0.67812323629E+01  0.73374957282E+02  0.30595323438E+03  0.31472960378E+03  0.41800000000E+01 0.  1.
         -5    1    3    3    0  502 -0.51661100885E+02  0.50749550861E+02  0.60864585342E+02  0.94690846474E+02  0.41800000000E+01 0.  1.
        -11    1    1    2    0    0  0.32831693322E+02 -0.38556610044E+02 -0.76648019561E+01  0.51217979787E+02  0.00000000000E+00 0. -1.
         11    1    1    2    0    0  0.12048175200E+02 -0.85567898099E+02  0.10577697228E+03  0.13658620566E+03  0.00000000000E+00 0.  1.
</event>
<event>
 7    1  0.2841804E-009  0.3146744E+03  0.7561462E-02  0.1078127E+00
          2   -1    0    0  501    0  0.00000000000E+00  0.00000000000E+00  0.80292087035E+03  0.80292087035E+03  0.00000000000E+00 0. -1.
         -2   -1    0    0    0  501 -0.00000000000E+00 -0.00000000000E+00 -0.12964231271E+03  0.12964231271E+03  0.00000000000E+00 0.  1.
         25    2    1    2    0    0 -0.73755014770E+02  0.29370093374E+03  0.36735939781E+03  0.49224043991E+03  0.12509069848E+03 0.  0.
          5    1    3    3  502    0 -0.30332980369E+02  0.24644075354E+03  0.22123838627E+03  0.33259138694E+03  0.41800000000E+01 0. -1.
         -5    1    3    3    0  502 -0.43422034401E+02  0.47260180195E+02  0.14612101154E+03  0.15964905298E+03  0.41800000000E+01 0. -1.
        -11    1    1    2    0    0 -0.22271100810E+02 -0.62434457115E+02  0.63857748572E+02  0.92042791240E+02  0.00000000000E+00 0.  1.
         11    1    1    2    0    0  0.96026115580E+02 -0.23126647662E+03  0.24206141126E+03  0.34827995191E+03  0.00000000000E+00 0. -1.
</event>
<event>
 7    1  0.2841804E-009  0.1710445E+03  0.7561462E-02  0.1176763E+00
          2   -1    0    0  501    0  0.00000000000E+00  0.00000000000E+00  0.99249826816E+03  0.99249826816E+03  0.00000000000E+00 0. -1.
         -2   -1    0    0    0  501 -0.00000000000E+00 -0.00000000000E+00 -0.31126271084E+02  0.31126271084E+02  0.00000000000E+00 0.  1.
         25    2    1    2    0    0 -0.13340691212E+03 -0.15740979331E+02  0.59781636053E+03  0.62536295239E+03  0.12509691712E+03 0.  0.
          5    1    3    3  502    0 -0.14728440782E+03  0.13651328518E+02  0.52609153016E+03  0.54650601649E+03  0.41800000000E+01 0.  1.
         -5    1    3    3    0  502  0.13877495699E+02 -0.29392307849E+02  0.71724830371E+02  0.78856935898E+02  0.41800000000E+01 0.  1.
        -11    1    1    2    0    0  0.68526812524E+02  0.52904807362E+02  0.17019706951E+03  0.19094995456E+03  0.00000000000E+00 0. -1.
         11    1    1    2    0    0  0.64880099598E+02 -0.37163828030E+02  0.19335856704E+03  0.20731163229E+03  0.00000000000E+00 0.  1.
</event>
<event>
 7    1  0.2841804E-009  0.1053781E+03  0.7561462E-02  0.1269377E+00
         -2   -1    0    0    0  501 -0.00000000000E+00  0.00000000000E+00  0.68386950471E+03  0.68386950471E+03  0.00000000000E+00 0.  1.
          2   -1    0    0  501    0  0.00000000000E+00 -0.00000000000E+00 -0.18921205685E+02  0.18921205685E+02  0.00000000000E+00 0. -1.
         25    2    1    2    0    0  0.19043867237E+02 -0.28096157643E+02  0.37134518148E+03  0.39331470464E+03  0.12508856910E+03 0.  0.
          5    1    3    3  502    0 -0.36465070247E+02  0.22449746832E+02  0.22175815083E+03  0.22589343138E+03  0.41800000000E+01 0.  1.
         -5    1    3    3    0  502  0.55508937484E+02 -0.50545904475E+02  0.14958703066E+03  0.16742127326E+03  0.41800000000E+01 0.  1.
        -11    1    1    2    0    0  0.27556844245E+02 -0.12943039010E+02  0.14941757811E+03  0.15248775220E+03  0.00000000000E+00 0.  1.
         11    1    1    2    0    0 -0.46600711482E+02  0.41039196653E+02  0.14418553943E+03  0.15698825355E+03  0.00000000000E+00 0. -1.
</event>
<event>
 7    1  0.2841804E-009  0.1116164E+03  0.7561462E-02  0.1257606E+00
          2   -1    0    0  501    0  0.00000000000E+00  0.00000000000E+00  0.31468830951E+03  0.31468830951E+03  0.00000000000E+00 0.  1.
         -2   -1    0    0    0  501 -0.00000000000E+00 -0.00000000000E+00 -0.79037140006E+02  0.79037140006E+02  0.00000000000E+00 0. -1.
         25    2    1    2    0    0  0.78237213849E+02 -0.55184348476E+02  0.19983605577E+03  0.25445655981E+03  0.12508923893E+03 0.  0.
          5    1    3    3  502    0  0.31599514246E+02 -0.26471409527E+02  0.19495925420E+03  0.19931344165E+03  0.41800000000E+01 0. -1.
         -5    1    3    3    0  502  0.46637699603E+02 -0.28712938948E+02  0.48768015724E+01  0.55143118164E+02  0.41800000000E+01 0. -1.
        -11    1    1    2    0    0 -0.11781810953E+02  0.59137141865E+02  0.40329797182E+02  0.72543126194E+02  0.00000000000E+00 0.  1.
         11    1    1    2    0    0 -0.66455402896E+02 -0.39527933897E+01 -0.45146834491E+01  0.66725763512E+02  0.00000000000E+00 0. -1.
</event>
<event>
 7    1  0.3683313E-009  0.9996605E+02  0.7561462E-02  0.1280367E+00
          2   -1    0    0  501    0  0.00000000000E+00  0.00000000000E+00  0.13817752805E+03  0.13817752805E+03  0.00000000000E+00 0. -1.
         -2   -1    0    0    0  501 -0.00000000000E+00 -0.00000000000E+00 -0.15393194743E+03  0.15393194743E+03  0.00000000000E+00 0.  1.
         25    2    1    2    0    0 -0.66962046303E+02 -0.67209171514E+02 -0.29103255816E+02  0.15967142802E+03  0.12508787729E+03 0.  0.
          5    1    3    3  502    0 -0.40869769423E+02 -0.10384099892E+02  0.45542095529E+02  0.62207093232E+02  0.41800000000E+01 0.  1.
         -5    1    3    3    0  502 -0.26092276880E+02 -0.56825071622E+02 -0.74645351345E+02  0.97464334785E+02  0.41800000000E+01 0.  1.
        -11    1    1    2    0    0  0.28502700364E+02  0.29786891690E+02 -0.39518715107E+02  0.57108595572E+02  0.00000000000E+00 0.  1.
         11    1    1    2    0    0  0.38459345939E+02  0.37422279824E+02  0.52867551539E+02  0.75329451896E+02  0.00000000000E+00 0. -1.
</event>
<event>
 7    1  0.2841804E-009  0.1481009E+03  0.7561462E-02  0.1202826E+00
          1   -1    0    0  501    0  0.00000000000E+00  0.00000000000E+00  0.34297024628E+03  0.34297024628E+03  0.00000000000E+00 0. -1.
         -1   -1    0    0    0  501 -0.00000000000E+00 -0.00000000000E+00 -0.18863220124E+03  0.18863220124E+03  0.00000000000E+00 0.  1.
         25    2    1    2    0    0  0.10641174766E+03  0.52886114996E+02 -0.12621062152E+03  0.21376766342E+03  0.12508833575E+03 0.  0.
          5    1    3    3  502    0  0.90098157961E+02 -0.14003847808E+02 -0.31411099074E+02  0.96529349767E+02  0.41800000000E+01 0. -1.
         -5    1    3    3    0  502  0.16313589696E+02  0.66889962803E+02 -0.94799522441E+02  0.11723831365E+03  0.41800000000E+01 0. -1.
        -11    1    1    2    0    0 -0.89568482084E+02 -0.10307487008E+02  0.11533360723E+03  0.14639193362E+03  0.00000000000E+00 0.  1.
         11    1    1    2    0    0 -0.16843265573E+02 -0.42578627988E+02  0.16521505932E+03  0.17144285048E+03  0.00000000000E+00 0. -1.
</event>
<event>
 7    1  0.3197154E-009  0.7739551E+02  0.7561462E-02  0.1336609E+00
         -2   -1    0    0    0  501 -0.00000000000E+00  0.00000000000E+00  0.13953690996E+03  0.13953690996E+03  0.00000000000E+00 0.  1.
          2   -1    0    0  501    0  0.00000000000E+00 -0.00000000000E+00 -0.10450855036E+03  0.10450855036E+03  0.00000000000E+00 0. -1.
         25    2    1    2    0    0  0.33224799486E+02 -0.41350596853E+02  0.22729827796E+02  0.13775755826E+03  0.12508693227E+03 0.  0.
          5    1    3    3  502    0  0.18318550760E+02 -0.18957014137E+02 -0.51876046140E+02  0.58339817021E+02  0.41800000000E+01 0.  1.
         -5    1    3    3    0  502  0.14906248726E+02 -0.22393582716E+02  0.74605873936E+02  0.79417741240E+02  0.41800000000E+01 0.  1.
        -11    1    1    2    0    0  0.27549200457E+02  0.26692338562E+02  0.20065617313E+02  0.43290511453E+02  0.00000000000E+00 0.  1.
         11    1    1    2    0    0 -0.60773999943E+02  0.14658258291E+02 -0.77670855102E+01  0.62997390601E+02  0.00000000000E+00 0. -1.
</event>
<event>
 7    1  0.2841804E-009  0.1169798E+03  0.7561462E-02  0.1248164E+00
         -2   -1    0    0    0  501 -0.00000000000E+00  0.00000000000E+00  0.43995420790E+02  0.43995420790E+02  0.00000000000E+00 0.  1.
          2   -1    0    0  501    0  0.00000000000E+00 -0.00000000000E+00 -0.35230547591E+03  0.35230547591E+03  0.00000000000E+00 0. -1.
         25    2    1    2    0    0 -0.40470684302E+02  0.42097086156E+02 -0.14433951867E+03  0.19970741909E+03  0.12505644980E+03 0.  0.
          5    1    3    3  502    0  0.26293009983E+02 -0.23200788123E+02 -0.11238940541E+02  0.37059211108E+02  0.41800000000E+01 0.  1.
         -5    1    3    3    0  502 -0.66763694286E+02  0.65297874278E+02 -0.13310057813E+03  0.16264820798E+03  0.41800000000E+01 0.  1.
        -11    1    1    2    0    0 -0.27929823398E+02 -0.10818108617E+02 -0.26970630265E+02  0.40305352076E+02  0.00000000000E+00 0.  1.
         11    1    1    2    0    0  0.68400507701E+02 -0.31278977538E+02 -0.13699990618E+03  0.15628812554E+03  0.00000000000E+00 0. -1.
</event>
<event>
 7    1  0.2841804E-009  0.1316476E+03  0.7561462E-02  0.1225031E+00
          1   -1    0    0  501    0  0.00000000000E+00  0.00000000000E+00  0.13000640810E+03  0.13000640810E+03  0.00000000000E+00 0. -1.
         -1   -1    0    0    0  501 -0.00000000000E+00 -0.00000000000E+00 -0.14662607853E+03  0.14662607853E+03  0.00000000000E+00 0.  1.
         25    2    1    2    0    0 -0.82573599014E+02  0.19022926904E+02 -0.68271332230E+01  0.15124167968E+03  0.12508862827E+03 0.  0.
          5    1    3    3  502    0 -0.87682584834E+02 -0.34910237199E+02  0.83182750246E+01  0.94834732265E+02  0.41800000000E+01 0. -1.
         -5    1    3    3    0  502  0.51089858197E+01  0.53933164102E+02 -0.15145408248E+02  0.56406947419E+02  0.41800000000E+01 0. -1.
        -11    1    1    2    0    0  0.20851475856E+02  0.29397731133E+02 -0.27053711961E+02  0.45065662893E+02  0.00000000000E+00 0.  1.
         11    1    1    2    0    0  0.61722123158E+02 -0.48420658036E+02  0.17261174753E+02  0.80325144044E+02  0.00000000000E+00 0. -1.
</event>
<event>
 7    1  0.2841804E-009  0.1379371E+03  0.7561462E-02  0.1216132E+00
         -1   -1    0    0    0  501 -0.00000000000E+00  0.00000000000E+00  0.25149950209E+03  0.25149950209E+03  0.00000000000E+00 0.  1.
          1   -1    0    0  501    0  0.00000000000E+00 -0.00000000000E+00 -0.92650619879E+02  0.92650619879E+02  0.00000000000E+00 0. -1.
         25    2    1    2    0    0  0.38015423694E+02 -0.99238811853E+02  0.93573331343E+02  0.18893750144E+03  0.12509155405E+03 0.  0.
          5    1    3    3  502    0  0.58832631840E+02 -0.11752694845E+03  0.58176786642E+02  0.14379107443E+03  0.41800000000E+01 0.  1.
         -5    1    3    3    0  502 -0.20817208146E+02  0.18288136597E+02  0.35396544700E+02  0.45146427012E+02  0.41800000000E+01 0.  1.
        -11    1    1    2    0    0 -0.43388094561E+02  0.47482489573E+02 -0.85562507170E+01  0.64887001718E+02  0.00000000000E+00 0.  1.
         11    1    1    2    0    0  0.53726708666E+01  0.51756322280E+02  0.73831801582E+02  0.90325618808E+02  0.00000000000E+00 0. -1.
</event>
<event>
 7    1  0.2841804E-009  0.1171820E+03  0.7561462E-02  0.1247820E+00
         -2   -1    0    0    0  501 -0.00000000000E+00  0.00000000000E+00  0.22587967043E+02  0.22587967043E+02  0.00000000000E+00 0.  1.
          2   -1    0    0  501    0  0.00000000000E+00 -0.00000000000E+00 -0.71696652388E+03  0.71696652388E+03  0.00000000000E+00 0. -1.
         25    2    1    2    0    0  0.47448284771E+02  0.33439501889E+02 -0.47658048529E+03  0.49613159170E+03  0.12509219526E+03 0.  0.
          5    1    3    3  502    0 -0.42674906785E+02  0.98627482609E+01 -0.17616065203E+03  0.18157221482E+03  0.41800000000E+01 0. -1.
         -5    1    3    3    0  502  0.90123191556E+02  0.23576753628E+02 -0.30041983326E+03  0.31455937688E+03  0.41800000000E+01 0. -1.
        -11    1    1    2    0    0 -0.43964593803E+02  0.16570925862E+02 -0.51403687583E+02  0.69640650408E+02  0.00000000000E+00 0.  1.
         11    1    1    2    0    0 -0.34836909676E+01 -0.50010427750E+02 -0.16639438397E+03  0.17378224881E+03  0.00000000000E+00 0. -1.
</event>
<event>
 7    1  0.2841804E-009  0.1171409E+03  0.7561462E-02  0.1247890E+00
         -2   -1    0    0    0  501 -0.00000000000E+00  0.00000000000E+00  0.15859202048E+04  0.15859202048E+04  0.00000000000E+00 0.  1.
          2   -1    0    0  501    0  0.00000000000E+00 -0.00000000000E+00 -0.11416333830E+02  0.11416333830E+02  0.00000000000E+00 0. -1.
         25    2    1    2    0    0  0.61906543848E+02  0.21700153550E+02  0.11145412732E+04  0.11234558341E+04  0.12508974723E+03 0.  0.
          5    1    3    3  502    0  0.70710237694E+02 -0.37817645534E+02  0.68863875514E+03  0.69330434840E+03  0.41800000000E+01 0. -1.
         -5    1    3    3    0  502 -0.88036938464E+01  0.59517799084E+02  0.42590251802E+03  0.43015148575E+03  0.41800000000E+01 0. -1.
        -11    1    1    2    0    0 -0.63431567592E+02 -0.40209581695E+02  0.44095911824E+03  0.44730897396E+03  0.00000000000E+00 0.  1.
         11    1    1    2    0    0  0.15250237442E+01  0.18509428145E+02  0.19003479594E+02  0.26571730549E+02  0.00000000000E+00 0. -1.
</event>
<event>
 7    1  0.2841804E-009  0.1232136E+03  0.7561462E-02  0.1237888E+00
         -2   -1    0    0    0  501 -0.00000000000E+00  0.00000000000E+00  0.24051260095E+02  0.24051260095E+02  0.00000000000E+00 0.  1.
          2   -1    0    0  501    0  0.00000000000E+00 -0.00000000000E+00 -0.13193652300E+04  0.13193652300E+04  0.00000000000E+00 0. -1.
         25    2    1    2    0    0 -0.35427187589E+01 -0.10419180503E+03 -0.10394314057E+04  0.10521089284E+04  0.12508823704E+03 0.  0.
          5    1    3    3  502    0  0.29595897165E+02 -0.88220121405E+02 -0.36621080772E+03  0.37787105610E+03  0.41800000000E+01 0. -1.
         -5    1    3    3    0  502 -0.33138615924E+02 -0.15971683630E+02 -0.67322059795E+03  0.67423787230E+03  0.41800000000E+01 0. -1.
        -11    1    1    2    0    0 -0.13037558472E+02  0.25651559398E+01  0.21754378920E+01  0.13464415544E+02  0.00000000000E+00 0.  1.
         11    1    1    2    0    0  0.16580277231E+02  0.10162664910E+03 -0.25805800216E+03  0.27784314618E+03  0.00000000000E+00 0. -1.
</event>
<event>
 7    1  0.2841804E-009  0.1396902E+03  0.7561462E-02  0.1213746E+00
          3   -1    0    0  501    0  0.00000000000E+00  0.00000000000E+00  0.13594890641E+03  0.13594890641E+03  0.00000000000E+00 0. -1.
         -3   -1    0    0    0  501 -0.00000000000E+00 -0.00000000000E+00 -0.16271385603E+03  0.16271385603E+03  0.00000000000E+00 0.  1.
         25    2    1    2    0    0 -0.21164991705E+02 -0.85351501763E+02  0.36492805552E+02  0.15720200227E+03  0.12509160217E+03 0.  0.
          5    1    3    3  502    0 -0.63021035893E+02 -0.90620576721E+02  0.28263059950E+02  0.11401759885E+03  0.41800000000E+01 0.  1.
         -5    1    3    3    0  502  0.41856044188E+02  0.52690749584E+01  0.82297456013E+01  0.43184403419E+02  0.41800000000E+01 0.  1.
        -11    1    1    2    0    0 -0.11524536983E+01 -0.19395796979E+02 -0.98797377510E+01  0.21797575736E+02  0.00000000000E+00 0.  1.
         11    1    1    2    0    0  0.22317445404E+02  0.10474729874E+03 -0.53378017424E+02  0.11966318443E+03  0.00000000000E+00 0. -1.
</event>
<event>
 7    1  0.2841804E-009  0.1687975E+03  0.7561462E-02  0.1179108E+00
          1   -1    0    0  501    0  0.00000000000E+00  0.00000000000E+00  0.14667867776E+03  0.14667867776E+03  0.00000000000E+00 0. -1.
         -1   -1    0    0    0  501 -0.00000000000E+00 -0.00000000000E+00 -0.22050872243E+03  0.22050872243E+03  0.00000000000E+00 0.  1.
         25    2    1    2    0    0  0.18433566443E+02  0.14104179851E+03 -0.58628866250E+02  0.19828403883E+03  0.12508649327E+03 0.  0.
          5    1    3    3  502    0  0.66555076446E+02  0.78917190860E+02 -0.60193651973E+02  0.11957528738E+03  0.41800000000E+01 0. -1.
         -5    1    3    3    0  502 -0.48121510003E+02  0.62124607649E+02  0.15647857238E+01  0.78708751450E+02  0.41800000000E+01 0. -1.
        -11    1    1    2    0    0  0.16272474792E+02 -0.10222645616E+03  0.20823673771E+02  0.10558724906E+03  0.00000000000E+00 0. -1.
         11    1    1    2    0    0 -0.34706041236E+02 -0.38815342345E+02 -0.36024852192E+02  0.63316112286E+02  0.00000000000E+00 0.  1.
</event>
<event>
 7    1  0.2841804E-009  0.9457923E+02  0.7561462E-02  0.1292127E+00
          2   -1    0    0  501    0  0.00000000000E+00  0.00000000000E+00  0.89071373117E+03  0.89071373117E+03  0.00000000000E+00 0. -1.
         -2   -1    0    0    0  501 -0.00000000000E+00 -0.00000000000E+00 -0.14729012375E+02  0.14729012375E+02  0.00000000000E+00 0.  1.
         25    2    1    2    0    0 -0.35556605876E+01  0.12929028081E+02  0.62622918706E+03  0.63874114197E+03  0.12508976467E+03 0.  0.
          5    1    3    3  502    0 -0.49480791981E+02 -0.13874347808E+02  0.48571682652E+03  0.48844565129E+03  0.41800000000E+01 0.  1.
         -5    1    3    3    0  502  0.45925131393E+02  0.26803375888E+02  0.14051236054E+03  0.15029549067E+03  0.41800000000E+01 0.  1.
        -11    1    1    2    0    0  0.37200362759E+02  0.15415579984E+02  0.17828957521E+03  0.18278041395E+03  0.00000000000E+00 0. -1.
         11    1    1    2    0    0 -0.33644702172E+02 -0.28344608065E+02  0.71465956523E+02  0.83921187624E+02  0.00000000000E+00 0.  1.
</event>
<event>
 7    1  0.2841804E-009  0.1096459E+03  0.7561462E-02  0.1261227E+00
         -3   -1    0    0    0  501 -0.00000000000E+00  0.00000000000E+00  0.26887551520E+03  0.26887551520E+03  0.00000000000E+00 0.  1.
          3   -1    0    0  501    0  0.00000000000E+00 -0.00000000000E+00 -0.49061285160E+02  0.49061285160E+02  0.00000000000E+00 0. -1.
         25    2    1    2    0    0  0.36647308807E+02 -0.23901766549E+02  0.10972612995E+03  0.17205087296E+03  0.12508940645E+03 0.  0.
          5    1    3    3  502    0 -0.43113389410E+02  0.71245284510E+01  0.55042264353E+02  0.70403455293E+02  0.41800000000E+01 0. -1.
         -5    1    3    3    0  502  0.79760698217E+02 -0.31026295000E+02  0.54683865597E+02  0.10164741767E+03  0.41800000000E+01 0. -1.
        -11    1    1    2    0    0  0.24182916525E+02  0.14388925480E+02  0.13181181643E+02  0.31074075652E+02  0.00000000000E+00 0. -1.
         11    1    1    2    0    0 -0.60830225332E+02  0.95128410690E+01  0.96906918448E+02  0.11481185175E+03  0.00000000000E+00 0.  1.
</event>
<event>
 7    1  0.2841804E-009  0.1270568E+03  0.7561462E-02  0.1231889E+00
          1   -1    0    0  501    0  0.00000000000E+00  0.00000000000E+00  0.45671546443E+03  0.45671546443E+03  0.00000000000E+00 0. -1.
         -1   -1    0    0    0  501 -0.00000000000E+00 -0.00000000000E+00 -0.43605158060E+02  0.43605158060E+02  0.00000000000E+00 0.  1.
         25    2    1    2    0    0 -0.32145623625E+02  0.66970732543E+02  0.14796804707E+03  0.20751023969E+03  0.12509011346E+03 0.  0.
          5    1    3    3  502    0  0.95080472115E+01 -0.34269999492E+02  0.40166800320E+02  0.53811523625E+02  0.41800000000E+01 0. -1.
         -5    1    3    3    0  502 -0.41653670837E+02  0.10124073203E+03  0.10780124675E+03  0.15369871606E+03  0.41800000000E+01 0. -1.
        -11    1    1    2    0    0 -0.22927831568E+02 -0.42906658597E+02  0.19238179548E+03  0.19843745121E+03  0.00000000000E+00 0.  1.
         11    1    1    2    0    0  0.55073455194E+02 -0.24064073946E+02  0.72760463813E+02  0.94372931586E+02  0.00000000000E+00 0. -1.
</event>
<event>
 7    1  0.2841804E-009  0.1179201E+03  0.7561462E-02  0.1246568E+00
          1   -1    0    0  501    0  0.00000000000E+00  0.00000000000E+00  0.42600186918E+03  0.42600186918E+03  0.00000000000E+00 0. -1.
         -1   -1    0    0    0  501 -0.00000000000E+00 -0.00000000000E+00 -0.41830759361E+02  0.41830759361E+02  0.00000000000E+00 0.  1.
         25    2    1    2    0    0 -0.50141512353E+02  0.60023165072E+02  0.20922985445E+03  0.25600979591E+03  0.12508769725E+03 0.  0.
          5    1    3    3  502    0 -0.81162140450E+02  0.50153127672E+02  0.20044805323E+03  0.22203496054E+03  0.41800000000E+01 0.  1.
         -5    1    3    3    0  502  0.31020628097E+02  0.98700374000E+01  0.87818012147E+01  0.33974835369E+02  0.41800000000E+01 0.  1.
        -11    1    1    2    0    0  0.68353562563E+02 -0.35640293545E+02  0.75783647644E+02  0.10809995971E+03  0.00000000000E+00 0. -1.
         11    1    1    2    0    0 -0.18212050209E+02 -0.24382871527E+02  0.99157607734E+02  0.10372287293E+03  0.00000000000E+00 0.  1.
</event>
<event>
 7    1  0.2841804E-009  0.2133571E+03  0.7561462E-02  0.1138935E+00
         -2   -1    0    0    0  501 -0.00000000000E+00  0.00000000000E+00  0.43095511825E+02  0.43095511825E+02  0.00000000000E+00 0.  1.
          2   -1    0    0  501    0  0.00000000000E+00 -0.00000000000E+00 -0.16603875341E+04  0.16603875341E+04  0.00000000000E+00 0. -1.
         25    2    1    2    0    0  0.14007957755E+03 -0.14254798823E+03 -0.12704756462E+04  0.12921666087E+04  0.12507581724E+03 0.  0.
          5    1    3    3  502    0  0.67987043086E+02 -0.17167602740E+02 -0.20043503054E+03  0.21238794334E+03  0.41800000000E+01 0. -1.
         -5    1    3    3    0  502  0.72092534462E+02 -0.12538038549E+03 -0.10700406157E+04  0.10797786654E+04  0.41800000000E+01 0. -1.
        -11    1    1    2    0    0 -0.82346027583E+02  0.34514530368E+02 -0.20697973063E+03  0.22541679165E+03  0.00000000000E+00 0.  1.
         11    1    1    2    0    0 -0.57733549965E+02  0.10803345786E+03 -0.13983664537E+03  0.18589964550E+03  0.00000000000E+00 0. -1.
</event>
<event>
 7    1  0.2841804E-009  0.2404238E+03  0.7561462E-02  0.1119511E+00
         -3   -1    0    0    0  501 -0.00000000000E+00  0.00000000000E+00  0.89148096830E+03  0.89148096830E+03  0.00000000000E+00 0.  1.
          3   -1    0    0  501    0  0.00000000000E+00 -0.00000000000E+00 -0.82965330941E+02  0.82965330941E+02  0.00000000000E+00 0. -1.
         25    2    1    2    0    0 -0.10766101378E+03  0.21431345256E+03  0.53468861638E+03  0.59921680413E+03  0.12509081516E+03 0.  0.
          5    1    3    3  502    0 -0.99052728021E+02  0.19772688490E+03  0.53617776804E+03  0.58000985791E+03  0.41800000000E+01 0.  1.
         -5    1    3    3    0  502 -0.86082857567E+01  0.16586567659E+02 -0.14891516602E+01  0.19206946219E+02  0.41800000000E+01 0.  1.
        -11    1    1    2    0    0  0.61117791726E+02 -0.10163522111E+03  0.69966468761E+02  0.13769680238E+03  0.00000000000E+00 0. -1.
         11    1    1    2    0    0  0.46543222052E+02 -0.11267823145E+03  0.20386055223E+03  0.23753269273E+03  0.00000000000E+00 0.  1.
</event>
<event>
 7    1  0.2841804E-009  0.9170437E+02  0.7561462E-02  0.1298776E+00
         -2   -1    0    0    0  501 -0.00000000000E+00  0.00000000000E+00  0.80912452268E+02  0.80912452268E+02  0.00000000000E+00 0. -1.
          2   -1    0    0  501    0  0.00000000000E+00 -0.00000000000E+00 -0.22706255738E+03  0.22706255738E+03  0.00000000000E+00 0.  1.
         25    2    1    2    0    0 -0.22044480488E+02  0.19608412927E+02 -0.16627928829E+03  0.21015599462E+03  0.12508513655E+03 0.  0.
          5    1    3    3  502    0  0.23108622571E+02 -0.40801521855E+02 -0.34872011424E+02  0.58585853272E+02  0.41800000000E+01 0.  1.
         -5    1    3    3    0  502 -0.45153103058E+02  0.60409934782E+02 -0.13140727686E+03  0.15157014135E+03  0.41800000000E+01 0.  1.
        -11    1    1    2    0    0  0.17964266746E+02  0.16539484403E+02 -0.28216828103E+02  0.37315664435E+02  0.00000000000E+00 0.  1.
         11    1    1    2    0    0  0.40802137414E+01 -0.36147897331E+02  0.48346011281E+02  0.60503350588E+02  0.00000000000E+00 0. -1.
</event>
<event>
 7    1  0.2841804E-009  0.9587078E+02  0.7561462E-02  0.1289227E+00
         -2   -1    0    0    0  501 -0.00000000000E+00  0.00000000000E+00  0.13787980031E+02  0.13787980031E+02  0.00000000000E+00 0.  1.
          2   -1    0    0  501    0  0.00000000000E+00 -0.00000000000E+00 -0.13445898072E+04  0.13445898072E+04  0.00000000000E+00 0. -1.
         25    2    1    2    0    0  0.34553924645E+02  0.59718676690E+02 -0.93631919361E+03  0.94715444965E+03  0.12509046776E+03 0.  0.
          5    1    3    3  502    0  0.19765142311E+02 -0.20605031792E+01 -0.19585569644E+02  0.28213001652E+02  0.41800000000E+01 0. -1.
         -5    1    3    3    0  502  0.14788782334E+02  0.61779179869E+02 -0.91673362396E+03  0.91894144800E+03  0.41800000000E+01 0. -1.
        -11    1    1    2    0    0  0.14857339713E+02 -0.56317441113E+02 -0.28738536558E+03  0.29322814166E+03  0.00000000000E+00 0. -1.
         11    1    1    2    0    0 -0.49411264358E+02 -0.34012355761E+01 -0.10709726800E+03  0.11799519593E+03  0.00000000000E+00 0.  1.
</event>
<event>
 7    1  0.2841804E-009  0.1249615E+03  0.7561462E-02  0.1235129E+00
         -1   -1    0    0    0  501 -0.00000000000E+00  0.00000000000E+00  0.13989270451E+03  0.13989270451E+03  0.00000000000E+00 0. -1.
          1   -1    0    0  501    0  0.00000000000E+00 -0.00000000000E+00 -0.12118062638E+03  0.12118062638E+03  0.00000000000E+00 0.  1.
         25    2    1    2    0    0 -0.43982107051E+02 -0.56564715358E+02  0.61299575115E+01  0.14428954467E+03  0.12509158069E+03 0.  0.
          5    1    3    3  502    0  0.34125843594E+02 -0.56091464250E+02  0.60605887698E+01  0.66068363828E+02  0.41800000000E+01 0. -1.
         -5    1    3    3    0  502 -0.78107950645E+02 -0.47325110798E+00  0.69368741700E-01  0.78221180844E+02  0.41800000000E+01 0. -1.
        -11    1    1    2    0    0  0.56757381871E+02  0.10006189268E+02 -0.17092411661E+02  0.60113848296E+02  0.00000000000E+00 0.  1.
         11    1    1    2    0    0 -0.12775274820E+02  0.46558526090E+02  0.29674532278E+02  0.56669937924E+02  0.00000000000E+00 0. -1.
</event>
<event>
 7    1  0.2841804E-009  0.1147952E+03  0.7561462E-02  0.1251939E+00
         -2   -1    0    0    0  501 -0.00000000000E+00  0.00000000000E+00  0.45435992784E+02  0.45435992784E+02  0.00000000000E+00 0.  1.
          2   -1    0    0  501    0  0.00000000000E+00 -0.00000000000E+00 -0.33862848278E+03  0.33862848278E+03  0.00000000000E+00 0. -1.
         25    2    1    2    0    0  0.34091854749E+02  0.37965920002E+02 -0.11586376897E+03  0.17797493460E+03  0.12508796403E+03 0.  0.
          5    1    3    3  502    0  0.47420596376E+02  0.78099508951E+02 -0.89485479219E+02  0.12795846846E+03  0.41800000000E+01 0.  1.
         -5    1    3    3    0  502 -0.13328741626E+02 -0.40133588949E+02 -0.26378289749E+02  0.50016466143E+02  0.41800000000E+01 0.  1.
        -11    1    1    2    0    0 -0.47261977446E+02  0.78947190820E+01 -0.46249292339E+02  0.66595931883E+02  0.00000000000E+00 0.  1.
         11    1    1    2    0    0  0.13170122697E+02 -0.45860639084E+02 -0.13107942869E+03  0.13949360908E+03  0.00000000000E+00 0. -1.
</event>
<event>
 7    1  0.2841804E-009  0.1671957E+03  0.7561462E-02  0.1180804E+00
         -2   -1    0    0    0  501 -0.00000000000E+00  0.00000000000E+00  0.13119563472E+03  0.13119563472E+03  0.00000000000E+00 0. -1.
          2   -1    0    0  501    0  0.00000000000E+00 -0.00000000000E+00 -0.29435004725E+03  0.29435004725E+03  0.00000000000E+00 0.  1.
         25    2    1    2    0    0  0.76073468972E+02 -0.13358989440E+03 -0.14452382498E+03  0.24529220232E+03  0.12509075091E+03 0.  0.
          5    1    3    3  502    0  0.40022289172E+02 -0.13052087855E+03 -0.52505232690E+02  0.14632756141E+03  0.41800000000E+01 0.  1.
         -5    1    3    3    0  502  0.36051179799E+02 -0.30690158535E+01 -0.92018592286E+02  0.98964640905E+02  0.41800000000E+01 0.  1.
        -11    1    1    2    0    0 -0.54738368239E+02  0.46816559909E+02 -0.47578568238E+02  0.86323805492E+02  0.00000000000E+00 0.  1.
         11    1    1    2    0    0 -0.21335100733E+02  0.86773334495E+02  0.28947980679E+02  0.93929674162E+02  0.00000000000E+00 0. -1.
</event>
<event>
 7    1  0.2841804E-009  0.1920341E+03  0.7561462E-02  0.1156639E+00
         -2   -1    0    0    0  501 -0.00000000000E+00  0.00000000000E+00  0.24940415377E+03  0.24940415377E+03  0.00000000000E+00 0.  1.
          2   -1    0    0  501    0  0.00000000000E+00 -0.00000000000E+00 -0.21617623718E+03  0.21617623718E+03  0.00000000000E+00 0. -1.
         25    2    1    2    0    0  0.93257254689E+01 -0.17141668768E+03 -0.93565117223E+02  0.23210511979E+03  0.12509078904E+03 0.  0.
          5    1    3    3  502    0 -0.10988131622E+02 -0.16778275273E+03 -0.37649316429E+02  0.17235641728E+03  0.41800000000E+01 0.  1.
         -5    1    3    3    0  502  0.20313857091E+02 -0.36339349458E+01 -0.55915800794E+02  0.59748702510E+02  0.41800000000E+01 0.  1.
        -11    1    1    2    0    0  0.40645588288E+02  0.57417271670E+02  0.58541993755E+02  0.91520336353E+02  0.00000000000E+00 0.  1.
         11    1    1    2    0    0 -0.49971313757E+02  0.11399941601E+03  0.68251040054E+02  0.14195493481E+03  0.00000000000E+00 0. -1.
</event>
<event>
 7    1  0.2841804E-009  0.8802874E+02  0.7561462E-02  0.1307697E+00
          1   -1    0    0  501    0  0.00000000000E+00  0.00000000000E+00  0.50223142885E+03  0.50223142885E+03  0.00000000000E+00 0. -1.
         -1   -1    0    0    0  501 -0.00000000000E+00 -0.00000000000E+00 -0.35042600203E+02  0.35042600203E+02  0.00000000000E+00 0.  1.
         25    2    1    2    0    0 -0.53040750235E+02  0.19221270483E+02  0.36270636839E+03  0.38779728763E+03  0.12509215882E+03 0.  0.
          5    1    3    3  502    0 -0.31836577571E+02  0.50800397438E+02  0.33551211781E+03  0.34085202309E+03  0.41800000000E+01 0. -1.
         -5    1    3    3    0  502 -0.21204172664E+02 -0.31579126954E+02  0.27194250580E+02  0.46945264534E+02  0.41800000000E+01 0. -1.
        -11    1    1    2    0    0 -0.75125745533E+01 -0.15261864638E+02 -0.10124614264E+02  0.19795734456E+02  0.00000000000E+00 0.  1.
         11    1    1    2    0    0  0.60553324788E+02 -0.39594058453E+01  0.11460707452E+03  0.12968100697E+03  0.00000000000E+00 0. -1.
</event>
<event>
 7    1  0.2841804E-009  0.2030032E+03  0.7561462E-02  0.1147230E+00
          2   -1    0    0  501    0  0.00000000000E+00  0.00000000000E+00  0.57653981097E+03  0.57653981097E+03  0.00000000000E+00 0.  1.
         -2   -1    0    0    0  501 -0.00000000000E+00 -0.00000000000E+00 -0.89538820884E+02  0.89538820884E+02  0.00000000000E+00 0. -1.
         25    2    1    2    0    0  0.16349152956E+03 -0.53694801708E+02  0.39797984831E+03  0.45127386616E+03  0.12509009013E+03 0.  0.
          5    1    3    3  502    0  0.13276466225E+03  0.17655957935E+02  0.23080711322E+03  0.26688496455E+03  0.41800000000E+01 0. -1.
         -5    1    3    3    0  502  0.30726867305E+02 -0.71350759642E+02  0.16717273510E+03  0.18438890161E+03  0.41800000000E+01 0. -1.
        -11    1    1    2    0    0 -0.16819873609E+03  0.30999735673E+02  0.85982676661E+02  0.19142836550E+03  0.00000000000E+00 0.  1.
         11    1    1    2    0    0  0.47072065324E+01  0.22695066035E+02  0.30384651130E+01  0.23376400191E+02  0.00000000000E+00 0. -1.
</event>
<event>
 7    1  0.2841804E-009  0.9748289E+02  0.7561462E-02  0.1285680E+00
          1   -1    0    0  501    0  0.00000000000E+00  0.00000000000E+00  0.17851552461E+03  0.17851552461E+03  0.00000000000E+00 0. -1.
         -1   -1    0    0    0  501 -0.00000000000E+00 -0.00000000000E+00 -0.74539165160E+02  0.74539165160E+02  0.00000000000E+00 0.  1.
         25    2    1    2    0    0  0.72673546076E+00 -0.28801843235E+02  0.92706707780E+02  0.15834123109E+03  0.12508931800E+03 0.  0.
          5    1    3    3  502    0 -0.11414604437E+02 -0.77199605866E+02  0.60106136054E+02  0.98591542901E+02  0.41800000000E+01 0. -1.
         -5    1    3    3    0  502  0.12141339897E+02  0.48397762631E+02  0.32600571726E+02  0.59749688192E+02  0.41800000000E+01 0. -1.
        -11    1    1    2    0    0  0.84487129743E+01 -0.17557298017E+02 -0.27419991513E+02  0.33637707995E+02  0.00000000000E+00 0.  1.
         11    1    1    2    0    0 -0.91754484351E+01  0.46359141252E+02  0.38689643178E+02  0.61075750677E+02  0.00000000000E+00 0. -1.
</event>
<event>
 7    1  0.2841804E-009  0.1697514E+03  0.7561462E-02  0.1178107E+00
          1   -1    0    0  501    0  0.00000000000E+00  0.00000000000E+00  0.99313947514E+02  0.99313947514E+02  0.00000000000E+00 0. -1.
         -1   -1    0    0    0  501 -0.00000000000E+00 -0.00000000000E+00 -0.37216876397E+03  0.37216876397E+03  0.00000000000E+00 0.  1.
         25    2    1    2    0    0 -0.12110088383E+03 -0.87576922584E+02 -0.20568353580E+03  0.28335078686E+03  0.12508720990E+03 0.  0.
          5    1    3    3  502    0 -0.79039855175E+02 -0.10121066817E+03 -0.20118253025E+03  0.23871066364E+03  0.41800000000E+01 0.  1.
         -5    1    3    3    0  502 -0.42061028652E+02  0.13633745584E+02 -0.45010055469E+01  0.44640123217E+02  0.41800000000E+01 0.  1.
        -11    1    1    2    0    0  0.26278742781E+02  0.63575669792E+02 -0.57836545317E+02  0.89874935804E+02  0.00000000000E+00 0.  1.
         11    1    1    2    0    0  0.94822141046E+02  0.24001252792E+02 -0.93347353395E+01  0.98256988821E+02  0.00000000000E+00 0. -1.
</event>
<event>
 7    1  0.2841804E-009  0.8397498E+02  0.7561462E-02  0.1318135E+00
          2   -1    0    0  501    0  0.00000000000E+00  0.00000000000E+00  0.14322931272E+03  0.14322931272E+03  0.00000000000E+00 0. -1.
         -2   -1    0    0    0  501 -0.00000000000E+00 -0.00000000000E+00 -0.99068768519E+02  0.99068768519E+02  0.00000000000E+00 0.  1.
         25    2    1    2    0    0 -0.20986522522E+02  0.40103751833E+02  0.33859836146E+01  0.13306537191E+03  0.12508470442E+03 0.  0.
          5    1    3    3  502    0 -0.45747991907E+02  0.68091750684E+01  0.51531314702E+02  0.69369967735E+02  0.41800000000E+01 0. -1.
         -5    1    3    3    0  502  0.24761469385E+02  0.33294576764E+02 -0.48145331087E+02  0.63695404179E+02  0.41800000000E+01 0. -1.
        -11    1    1    2    0    0 -0.21134421290E+02 -0.29643844749E+02  0.52857298451E+02  0.64181892262E+02  0.00000000000E+00 0. -1.
         11    1    1    2    0    0  0.42120943812E+02 -0.10459907084E+02 -0.12082737865E+02  0.45050817064E+02  0.00000000000E+00 0.  1.
</event>
<event>
 7    1  0.2841804E-009  0.1101957E+03  0.7561462E-02  0.1260208E+00
         -3   -1    0    0    0  501 -0.00000000000E+00  0.00000000000E+00  0.66925712954E+02  0.66925712954E+02  0.00000000000E+00 0.  1.
          3   -1    0    0  501    0  0.00000000000E+00 -0.00000000000E+00 -0.23060820256E+03  0.23060820256E+03  0.00000000000E+00 0. -1.
         25    2    1    2    0    0  0.32735137075E+02  0.47593802014E+02 -0.11355402076E+03  0.17854787096E+03  0.12509223558E+03 0.  0.
          5    1    3    3  502    0 -0.26059798551E+02 -0.15927324274E+02 -0.79805286844E+02  0.85552024916E+02  0.41800000000E+01 0. -1.
         -5    1    3    3    0  502  0.58794935625E+02  0.63521126288E+02 -0.33748733917E+02  0.92995846042E+02  0.41800000000E+01 0. -1.
        -11    1    1    2    0    0 -0.15869681124E+02 -0.71729824637E+02 -0.51160508794E+02  0.89523249391E+02  0.00000000000E+00 0. -1.
         11    1    1    2    0    0 -0.16865455950E+02  0.24136022624E+02  0.10320399486E+01  0.29462795165E+02  0.00000000000E+00 0.  1.
</event>
<event>
 7    1  0.2841804E-009  0.8864248E+02  0.7561462E-02  0.1306173E+00
          1   -1    0    0  501    0  0.00000000000E+00  0.00000000000E+00  0.54926223485E+03  0.54926223485E+03  0.00000000000E+00 0. -1.
         -1   -1    0    0    0  501 -0.00000000000E+00 -0.00000000000E+00 -0.34274188013E+02  0.34274188013E+02  0.00000000000E+00 0.  1.
         25    2    1    2    0    0 -0.53645267311E+02  0.34272848454E+02  0.40912917866E+03  0.43253577545E+03  0.12509224343E+03 0.  0.
          5    1    3    3  502    0  0.14925122047E+01  0.51253522259E+02  0.61744015784E+02  0.80367574443E+02  0.41800000000E+01 0. -1.
         -5    1    3    3    0  502 -0.55137779515E+02 -0.16980673806E+02  0.34738516288E+03  0.35216820101E+03  0.41800000000E+01 0. -1.
        -11    1    1    2    0    0  0.26474855677E+02 -0.31196566324E+01 -0.96242763065E+01  0.28342140622E+02  0.00000000000E+00 0.  1.
         11    1    1    2    0    0  0.27170411634E+02 -0.31153191821E+02  0.11548314448E+03  0.12265850679E+03  0.00000000000E+00 0. -1.
</event>
<event>
 7    1  0.2924126E-009  0.1057428E+03  0.7561462E-02  0.1268663E+00
          1   -1    0    0  501    0  0.00000000000E+00  0.00000000000E+00  0.56208578942E+03  0.56208578942E+03  0.00000000000E+00 0. -1.
         -1   -1    0    0    0  501 -0.00000000000E+00 -0.00000000000E+00 -0.26086761014E+02  0.26086761014E+02  0.00000000000E+00 0.  1.
         25    2    1    2    0    0  0.37548340647E+02  0.37115512322E+02  0.27256655940E+03  0.30451234844E+03  0.12509117437E+03 0.  0.
          5    1    3    3  502    0 -0.16172963746E-02  0.67212753174E+02  0.23154681542E+03  0.24114094286E+03  0.41800000000E+01 0.  1.
         -5    1    3    3    0  502  0.37549957944E+02 -0.30097240852E+02  0.41019743978E+02  0.63371405575E+02  0.41800000000E+01 0.  1.
        -11    1    1    2    0    0  0.12876873487E+02 -0.43171462663E+02  0.18356548078E+03  0.18901289584E+03  0.00000000000E+00 0. -1.
         11    1    1    2    0    0 -0.50425214134E+02  0.60559503414E+01  0.79866988226E+02  0.94647306160E+02  0.00000000000E+00 0.  1.
</event>
<event>
 7    1  0.3662996E-009  0.2474387E+03  0.7561462E-02  0.1114934E+00
          1   -1    0    0  501    0  0.00000000000E+00  0.00000000000E+00  0.37857739739E+03  0.37857739739E+03  0.00000000000E+00 0. -1.
         -1   -1    0    0    0  501 -0.00000000000E+00 -0.00000000000E+00 -0.16419692451E+03  0.16419692451E+03  0.00000000000E+00 0.  1.
         25    2    1    2    0    0  0.91094677778E+02  0.20387832408E+03  0.13124557577E+03  0.28763993843E+03  0.12508685652E+03 0.  0.
          5    1    3    3  502    0  0.90278919041E+02  0.55242005900E+02  0.40261792086E+02  0.11331569503E+03  0.41800000000E+01 0. -1.
         -5    1    3    3    0  502  0.81575873671E+00  0.14863631818E+03  0.90983783683E+02  0.17432424340E+03  0.41800000000E+01 0. -1.
        -11    1    1    2    0    0 -0.85622912822E+01 -0.12756275945E+03  0.55514350032E+02  0.13938225673E+03  0.00000000000E+00 0. -1.
         11    1    1    2    0    0 -0.82532386496E+02 -0.76315564625E+02  0.27620547079E+02  0.11575212674E+03  0.00000000000E+00 0.  1.
</event>
<event>
 6    1  0.2841804E-009  0.1112584E+03  0.7561462E-02  0.1258257E+00
         -2   -1    0    0    0  501 -0.00000000000E+00  0.00000000000E+00  0.15135351176E+03  0.15135351176E+03  0.00000000000E+00 0.  1.
          2   -1    0    0  501    0  0.00000000000E+00 -0.00000000000E+00 -0.11214136484E+03  0.11214136484E+03  0.00000000000E+00 0. -1.
          5    1    1    2  502    0 -0.20515940114E+02  0.46156971651E+02 -0.43896182877E+02  0.67050108889E+02  0.41800000000E+01 0. -1.
         -5    1    1    2    0  502 -0.29605752774E+02 -0.62404028164E+02  0.17473606718E+02  0.71369199660E+02  0.41800000000E+01 0. -1.
        -11    1    1    2    0    0 -0.19307350603E+02  0.26148935978E+02  0.37196273237E+02  0.49397402592E+02  0.00000000000E+00 0.  1.
         11    1    1    2    0    0  0.69429043491E+02 -0.99018794660E+01  0.28438449840E+02  0.75678165453E+02  0.00000000000E+00 0. -1.
</event>
<event>
 7    1  0.2841804E-009  0.1103222E+03  0.7561462E-02  0.1259974E+00
          1   -1    0    0  501    0  0.00000000000E+00  0.00000000000E+00  0.40196550061E+03  0.40196550061E+03  0.00000000000E+00 0. -1.
         -1   -1    0    0    0  501 -0.00000000000E+00 -0.00000000000E+00 -0.41486661755E+02  0.41486661755E+02  0.00000000000E+00 0.  1.
         25    2    1    2    0    0 -0.53444568601E+02  0.86566510508E+00  0.11750462672E+03  0.17975473718E+03  0.12508939583E+03 0.  0.
          5    1    3    3  502    0 -0.44604335573E+02 -0.57792180256E+02  0.84486307637E+02  0.11173581086E+03  0.41800000000E+01 0.  1.
         -5    1    3    3    0  502 -0.88402330284E+01  0.58657845361E+02  0.33018319078E+02  0.68018926316E+02  0.41800000000E+01 0.  1.
        -11    1    1    2    0    0  0.50290047757E+02  0.28979904874E+02  0.21490413035E+03  0.22260437783E+03  0.00000000000E+00 0. -1.
         11    1    1    2    0    0  0.31545208441E+01 -0.29845569979E+02  0.28070081794E+02  0.41093047357E+02  0.00000000000E+00 0.  1.
</event>
<event>
 7    1  0.3438510E-009  0.1058127E+03  0.7561462E-02  0.1268527E+00
          1   -1    0    0  501    0  0.00000000000E+00  0.00000000000E+00  0.54074750199E+03  0.54074750199E+03  0.00000000000E+00 0. -1.
         -1   -1    0    0    0  501 -0.00000000000E+00 -0.00000000000E+00 -0.44330820269E+02  0.44330820269E+02  0.00000000000E+00 0.  1.
         25    2    1    2    0    0  0.80675779519E+02  0.15545104938E+02  0.40698426211E+03  0.43362942528E+03  0.12509219471E+03 0.  0.
          5    1    3    3  502    0  0.45617316665E+02  0.47833370674E+02  0.83262669175E+02  0.10639133145E+03  0.41800000000E+01 0.  1.
         -5    1    3    3    0  502  0.35058462855E+02 -0.32288265736E+02  0.32372159293E+03  0.32723809383E+03  0.41800000000E+01 0.  1.
        -11    1    1    2    0    0 -0.34821386597E+02  0.19434265605E+02 -0.56165670019E+01  0.40271149338E+02  0.00000000000E+00 0.  1.
         11    1    1    2    0    0 -0.45854392922E+02 -0.34979370543E+02  0.95048986613E+02  0.11117774764E+03  0.00000000000E+00 0. -1.
</event>
<event>
 7    1  0.2841804E-009  0.2721643E+03  0.7561462E-02  0.1100047E+00
         -2   -1    0    0    0  501 -0.00000000000E+00  0.00000000000E+00  0.32158459242E+02  0.32158459242E+02  0.00000000000E+00 0.  1.
          2   -1    0    0  501    0  0.00000000000E+00 -0.00000000000E+00 -0.24386945642E+04  0.24386945642E+04  0.00000000000E+00 0. -1.
         25    2    1    2    0    0  0.47781268229E+01 -0.25752704429E+03 -0.12713099416E+04  0.13031572563E+04  0.12508740121E+03 0.  0.
          5    1    3    3  502    0 -0.22044815945E+02 -0.11164859659E+02 -0.28811031691E+03  0.28919829721E+03  0.41800000000E+01 0. -1.
         -5    1    3    3    0  502  0.26822942768E+02 -0.24636218463E+03 -0.98319962467E+03  0.10139589590E+04  0.41800000000E+01 0. -1.
        -11    1    1    2    0    0  0.38129588886E+02  0.77878950820E+02 -0.29932317407E+03  0.31163016392E+03  0.00000000000E+00 0. -1.
         11    1    1    2    0    0 -0.42907715709E+02  0.17964809347E+03 -0.83590298930E+03  0.85606560326E+03  0.00000000000E+00 0.  1.
</event>
<event>
 7    1  0.2841804E-009  0.9042976E+02  0.7561462E-02  0.1301814E+00
          3   -1    0    0  501    0  0.00000000000E+00  0.00000000000E+00  0.30413128711E+03  0.30413128711E+03  0.00000000000E+00 0. -1.
         -3   -1    0    0    0  501 -0.00000000000E+00 -0.00000000000E+00 -0.39970778511E+02  0.39970778511E+02  0.00000000000E+00 0.  1.
         25    2    1    2    0    0  0.33403653912E+01  0.72062483156E+01  0.12456865959E+03  0.17671256690E+03  0.12508753851E+03 0.  0.
          5    1    3    3  502    0 -0.93775433680E+01 -0.57920358251E+02  0.56615920542E+02  0.81642765009E+02  0.41800000000E+01 0.  1.
         -5    1    3    3    0  502  0.12717908759E+02  0.65126606567E+02  0.67952739053E+02  0.95069801888E+02  0.41800000000E+01 0.  1.
        -11    1    1    2    0    0  0.19449620201E+02  0.14356129433E+02  0.13319396810E+03  0.13536993506E+03  0.00000000000E+00 0. -1.
         11    1    1    2    0    0 -0.22789985592E+02 -0.21562377749E+02  0.63978809029E+01  0.32019563668E+02  0.00000000000E+00 0.  1.
</event>
<event>
 7    1  0.3390900E-009  0.1203568E+03  0.7561462E-02  0.1242510E+00
          2   -1    0    0  501    0  0.00000000000E+00  0.00000000000E+00  0.19458435266E+03  0.19458435266E+03  0.00000000000E+00 0.  1.
         -2   -1    0    0    0  501 -0.00000000000E+00 -0.00000000000E+00 -0.10498365662E+03  0.10498365662E+03  0.00000000000E+00 0. -1.
         25    2    1    2    0    0  0.63294924731E+02 -0.58626631132E+02  0.12942748735E+02  0.15250551600E+03  0.12508832196E+03 0.  0.
          5    1    3    3  502    0 -0.13516181736E+01 -0.80283669221E+02 -0.86508676195E+01  0.80867820089E+02  0.41800000000E+01 0.  1.
         -5    1    3    3    0  502  0.64646542905E+02  0.21657038089E+02  0.21593616354E+02  0.71637695912E+02  0.41800000000E+01 0.  1.
        -11    1    1    2    0    0 -0.54661095312E+02  0.30526419442E+02  0.93992961254E+02  0.11293526637E+03  0.00000000000E+00 0.  1.
         11    1    1    2    0    0 -0.86338294195E+01  0.28100211690E+02 -0.17335013954E+02  0.34127226905E+02  0.00000000000E+00 0. -1.
</event>
<event>
 7    1  0.2841804E-009  0.1568705E+03  0.7561462E-02  0.1192276E+00
         -2   -1    0    0    0  501 -0.00000000000E+00  0.00000000000E+00  0.35712462982E+02  0.35712462982E+02  0.00000000000E+00 0.  1.
          2   -1    0    0  501    0  0.00000000000E+00 -0.00000000000E+00 -0.74254424200E+03  0.74254424200E+03  0.00000000000E+00 0. -1.
         25    2    1    2    0    0 -0.13130302029E+03 -0.31265875895E+02 -0.39631578576E+03  0.43695649703E+03  0.12508693026E+03 0.  0.
          5    1    3    3  502    0 -0.23842998570E+02 -0.62005136734E+02 -0.98980450590E+02  0.11928003840E+03  0.41800000000E+01 0. -1.
         -5    1    3    3    0  502 -0.10746002172E+03  0.30739260840E+02 -0.29733533518E+03  0.31767645863E+03  0.41800000000E+01 0. -1.
        -11    1    1    2    0    0  0.86722790412E+02  0.15847441404E+02 -0.24643688437E+03  0.26173101031E+03  0.00000000000E+00 0. -1.
         11    1    1    2    0    0  0.44580229881E+02  0.15418434491E+02 -0.64079108877E+02  0.79569197639E+02  0.00000000000E+00 0.  1.
</event>
<event>
 7    1  0.2841804E-009  0.8879340E+02  0.7561462E-02  0.1305800E+00
         -2   -1    0    0    0  501 -0.00000000000E+00  0.00000000000E+00  0.11486755242E+02  0.11486755242E+02  0.00000000000E+00 0.  1.
          2   -1    0    0  501    0  0.00000000000E+00 -0.00000000000E+00 -0.13661570775E+04  0.13661570775E+04  0.00000000000E+00 0. -1.
         25    2    1    2    0    0  0.46070321939E+02  0.36478960566E+02 -0.86503972908E+03  0.87601044189E+03  0.12508945711E+03 0.  0.
          5    1    3    3  502    0  0.50481819663E+02  0.26122000522E+02 -0.86164999563E+03  0.86353283689E+03  0.41800000000E+01 0.  1.
         -5    1    3    3    0  502 -0.44114977240E+01  0.10356960044E+02 -0.33897334530E+01  0.12477604995E+02  0.41800000000E+01 0.  1.
        -11    1    1    2    0    0  0.20601057286E+02 -0.36501422970E+02 -0.21268861678E+03  0.21677916216E+03  0.00000000000E+00 0.  1.
         11    1    1    2    0    0 -0.66671379225E+02  0.22462404553E-01 -0.27694197635E+03  0.28485422865E+03  0.00000000000E+00 0. -1.
</event>
<event>
 7    1  0.2841804E-009  0.1225799E+03  0.7561462E-02  0.1238901E+00
         -1   -1    0    0    0  501 -0.00000000000E+00  0.00000000000E+00  0.87205556180E+02  0.87205556180E+02  0.00000000000E+00 0.  1.
          1   -1    0    0  501    0  0.00000000000E+00 -0.00000000000E+00 -0.32017653315E+03  0.32017653315E+03  0.00000000000E+00 0. -1.
         25    2    1    2    0    0  0.10451919189E+03 -0.22154260944E+02 -0.21272772673E+03  0.26891577991E+03  0.12509012037E+03 0.  0.
          5    1    3    3  502    0  0.62258548367E+02  0.15074429176E+01 -0.13523087519E+02  0.63865057151E+02  0.41800000000E+01 0. -1.
         -5    1    3    3    0  502  0.42260643526E+02 -0.23661703861E+02 -0.19920463921E+03  0.20505072276E+03  0.41800000000E+01 0. -1.
        -11    1    1    2    0    0 -0.86030736007E+02 -0.19801584717E+02 -0.26548950643E+02  0.92185883277E+02  0.00000000000E+00 0.  1.
         11    1    1    2    0    0 -0.18488455885E+02  0.41955845661E+02  0.63057004062E+01  0.46280426141E+02  0.00000000000E+00 0. -1.
</event>
<event>
 7    1  0.2841804E-009  0.1157020E+03  0.7561462E-02  0.1250361E+00
         -2   -1    0    0    0  501 -0.00000000000E+00  0.00000000000E+00  0.27742541894E+03  0.27742541894E+03  0.00000000000E+00 0.  1.
          2   -1    0    0  501    0  0.00000000000E+00 -0.00000000000E+00 -0.58214207962E+02  0.58214207962E+02  0.00000000000E+00 0. -1.
         25    2    1    2    0    0 -0.29333661290E+02  0.27431812790E+02  0.97294500528E+02  0.16348584793E+03  0.12509370329E+03 0.  0.
          5    1    3    3  502    0 -0.64636253783E+02 -0.23309066673E+02  0.43455169572E+02  0.81406277736E+02  0.41800000000E+01 0.  1.
         -5    1    3    3    0  502  0.35302592493E+02  0.50740879462E+02  0.53839330956E+02  0.82079570193E+02  0.41800000000E+01 0.  1.
        -11    1    1    2    0    0  0.63052446436E+02 -0.16708218022E+02  0.26532582434E+02  0.70418417206E+02  0.00000000000E+00 0. -1.
         11    1    1    2    0    0 -0.33718785146E+02 -0.10723594767E+02  0.95384128016E+02  0.10173536177E+03  0.00000000000E+00 0.  1.
</event>
<event>
 7    1  0.2841804E-009  0.9887172E+02  0.7561462E-02  0.1282687E+00
         -3   -1    0    0    0  501 -0.00000000000E+00  0.00000000000E+00  0.43438847171E+03  0.43438847171E+03  0.00000000000E+00 0.  1.
          3   -1    0    0  501    0  0.00000000000E+00 -0.00000000000E+00 -0.52315159006E+02  0.52315159006E+02  0.00000000000E+00 0. -1.
         25    2    1    2    0    0  0.35195841155E+02  0.90031534408E+02  0.14178288544E+03  0.21235688928E+03  0.12509451386E+03 0.  0.
          5    1    3    3  502    0  0.70858883451E+00  0.38858838183E+02  0.14524153740E+03  0.15040973369E+03  0.41800000000E+01 0. -1.
         -5    1    3    3    0  502  0.34487252320E+02  0.51172696224E+02 -0.34586519623E+01  0.61947155583E+02  0.41800000000E+01 0. -1.
        -11    1    1    2    0    0 -0.24026324967E+02 -0.54585768140E+02  0.42844753595E+02  0.73433938240E+02  0.00000000000E+00 0. -1.
         11    1    1    2    0    0 -0.11169516188E+02 -0.35445766268E+02  0.19744567367E+03  0.20091280319E+03  0.00000000000E+00 0.  1.
</event>
<event>
 7    1  0.2841804E-009  0.8322450E+02  0.7561462E-02  0.1320142E+00
          1   -1    0    0  501    0  0.00000000000E+00  0.00000000000E+00  0.40975358621E+03  0.40975358621E+03  0.00000000000E+00 0. -1.
         -1   -1    0    0    0  501 -0.00000000000E+00 -0.00000000000E+00 -0.32661342032E+02  0.32661342032E+02  0.00000000000E+00 0.  1.
         25    2    1    2    0    0 -0.61109343118E+01 -0.23939709471E+01  0.30662089568E+03  0.33121880693E+03  0.12508576970E+03 0.  0.
          5    1    3    3  502    0  0.36799996126E+02  0.22898911945E+01  0.21638596594E+02  0.42955611730E+02  0.41800000000E+01 0.  1.
         -5    1    3    3    0  502 -0.42910930438E+02 -0.46838621415E+01  0.28498229908E+03  0.28826319520E+03  0.41800000000E+01 0.  1.
        -11    1    1    2    0    0  0.95231256967E+01  0.43599472876E+02  0.34888582787E+02  0.56646422367E+02  0.00000000000E+00 0. -1.
         11    1    1    2    0    0 -0.34121913849E+01 -0.41205501929E+02  0.35582765714E+02  0.54549698947E+02  0.00000000000E+00 0.  1.
</event>
<event>
 7    1  0.2841804E-009  0.1201845E+03  0.7561462E-02  0.1242793E+00
          1   -1    0    0  501    0  0.00000000000E+00  0.00000000000E+00  0.75602558033E+03  0.75602558033E+03  0.00000000000E+00 0. -1.
         -1   -1    0    0    0  501 -0.00000000000E+00 -0.00000000000E+00 -0.21181206362E+02  0.21181206362E+02  0.00000000000E+00 0.  1.
         25    2    1    2    0    0  0.38760040345E+02 -0.35809830178E+02  0.52999563369E+03  0.54710824036E+03  0.12508944905E+03 0.  0.
          5    1    3    3  502    0 -0.45333294948E+02 -0.45171639190E+01  0.16535803994E+03  0.17157000371E+03  0.41800000000E+01 0.  1.
         -5    1    3    3    0  502  0.84093335292E+02 -0.31292666259E+02  0.36463759376E+03  0.37553823665E+03  0.41800000000E+01 0.  1.
        -11    1    1    2    0    0 -0.66593834473E+02  0.10973260014E+02  0.13145970520E+03  0.14777281656E+03  0.00000000000E+00 0.  1.
         11    1    1    2    0    0  0.27833794128E+02  0.24836570164E+02  0.73389035071E+02  0.82325729768E+02  0.00000000000E+00 0. -1.
</event>
<event>
 7    1  0.2841804E-009  0.1104993E+03  0.7561462E-02  0.1259648E+00
         -2   -1    0    0    0  501 -0.00000000000E+00  0.00000000000E+00  0.57183915417E+03  0.57183915417E+03  0.00000000000E+00 0.  1.
          2   -1    0    0  501    0  0.00000000000E+00 -0.00000000000E+00 -0.31947253961E+02  0.31947253961E+02  0.00000000000E+00 0. -1.
         25    2    1    2    0    0 -0.16966546842E+01  0.54845784913E+02  0.42778562600E+03  0.44906409860E+03  0.12508830512E+03 0.  0.
          5    1    3    3  502    0 -0.32655043975E+02  0.84546664733E+02  0.32904721360E+03  0.34132686913E+03  0.41800000000E+01 0. -1.
         -5    1    3    3    0  502  0.30958389290E+02 -0.29700879820E+02  0.98738412402E+02  0.10773722947E+03  0.41800000000E+01 0. -1.
        -11    1    1    2    0    0  0.32182144979E+02 -0.44607297976E+02  0.22337770754E+02  0.59367309948E+02  0.00000000000E+00 0. -1.
         11    1    1    2    0    0 -0.30485490294E+02 -0.10238486937E+02  0.89768503452E+02  0.95354999582E+02  0.00000000000E+00 0.  1.
</event>
<event>
 7    1  0.2841804E-009  0.9829272E+02  0.7561462E-02  0.1283928E+00
         -1   -1    0    0    0  501 -0.00000000000E+00  0.00000000000E+00  0.12563820727E+02  0.12563820727E+02  0.00000000000E+00 0.  1.
          1   -1    0    0  501    0  0.00000000000E+00 -0.00000000000E+00 -0.10587774891E+04  0.10587774891E+04  0.00000000000E+00 0. -1.
         25    2    1    2    0    0 -0.34852741728E+02 -0.61861532926E+01 -0.55386494070E+03  0.56891604784E+03  0.12508443092E+03 0.  0.
          5    1    3    3  502    0 -0.54422620068E+02  0.24538099942E+02 -0.50110693104E+03  0.50466778049E+03  0.41800000000E+01 0.  1.
         -5    1    3    3    0  502  0.19569878341E+02 -0.30724253235E+02 -0.52758009656E+02  0.64248267354E+02  0.41800000000E+01 0.  1.
        -11    1    1    2    0    0  0.62198016707E+02 -0.16715990187E+02 -0.32403494004E+03  0.33037351585E+03  0.00000000000E+00 0. -1.
         11    1    1    2    0    0 -0.27345274979E+02  0.22902143480E+02 -0.16831378765E+03  0.17205174615E+03  0.00000000000E+00 0.  1.
</event>
<event>
 7    1  0.2841804E-009  0.1052238E+03  0.7561462E-02  0.1269679E+00
         -1   -1    0    0    0  501 -0.00000000000E+00  0.00000000000E+00  0.53118694424E+02  0.53118694424E+02  0.00000000000E+00 0.  1.
          1   -1    0    0  501    0  0.00000000000E+00 -0.00000000000E+00 -0.28581482436E+03  0.28581482436E+03  0.00000000000E+00 0. -1.
         25    2    1    2    0    0 -0.18740881596E+02 -0.46842066133E+02 -0.10572555796E+03  0.17137417418E+03  0.12508322896E+03 0.  0.
          5    1    3    3  502    0  0.10605963199E+02 -0.66381427708E+02 -0.11624254982E+03  0.13434575984E+03  0.41800000000E+01 0. -1.
         -5    1    3    3    0  502 -0.29346844795E+02  0.19539361575E+02  0.10516991862E+02  0.37028414333E+02  0.41800000000E+01 0. -1.
        -11    1    1    2    0    0 -0.72119449211E+01 -0.27719230163E+02 -0.21500964466E+02  0.35814233809E+02  0.00000000000E+00 0.  1.
         11    1    1    2    0    0  0.25952826517E+02  0.74561296296E+02 -0.10546960751E+03  0.13174511079E+03  0.00000000000E+00 0. -1.
</event>
<event>
 7    1  0.2841804E-009  0.1760292E+03  0.7561462E-02  0.1171702E+00
         -3   -1    0    0    0  501 -0.00000000000E+00  0.00000000000E+00  0.60743222179E+02  0.60743222179E+02  0.00000000000E+00 0.  1.
          3   -1    0    0  501    0  0.00000000000E+00 -0.00000000000E+00 -0.93696679727E+03  0.93696679727E+03  0.00000000000E+00 0. -1.
         25    2    1    2    0    0  0.15063268634E+03 -0.26168640019E+02 -0.75959102156E+03  0.78485773314E+03  0.12509251504E+03 0.  0.
          5    1    3    3  502    0 -0.12782573206E+02 -0.40455512576E+00 -0.88747842635E+01  0.16118065590E+02  0.41800000000E+01 0. -1.
         -5    1    3    3    0  502  0.16341525954E+03 -0.25764084894E+02 -0.75071623730E+03  0.76873966755E+03  0.41800000000E+01 0. -1.
        -11    1    1    2    0    0 -0.67877806717E+02 -0.28836683863E+02 -0.25531333984E+02  0.78043577544E+02  0.00000000000E+00 0.  1.
         11    1    1    2    0    0 -0.82754879622E+02  0.55005323882E+02 -0.91101219548E+02  0.13480870877E+03  0.00000000000E+00 0. -1.
</event>
<event>
 6    1  0.2841804E-009  0.8844883E+02  0.7561462E-02  0.1306652E+00
          1   -1    0    0  501    0  0.00000000000E+00  0.00000000000E+00  0.34382001089E+03  0.34382001089E+03  0.00000000000E+00 0. -1.
         -1   -1    0    0    0  501 -0.00000000000E+00 -0.00000000000E+00 -0.39063156756E+02  0.39063156756E+02  0.00000000000E+00 0.  1.
          5    1    1    2  502    0 -0.64272807012E+02  0.22524933861E+02  0.20227214642E+03  0.21347098160E+03  0.41800000000E+01 0. -1.
         -5    1    1    2    0  502  0.26302778419E+02 -0.19067921767E+02  0.73556502343E+01  0.33570817437E+02  0.41800000000E+01 0. -1.
        -11    1    1    2    0    0  0.51896724895E+02 -0.18791556555E+02  0.21300303375E+02  0.59161605595E+02  0.00000000000E+00 0.  1.
         11    1    1    2    0    0 -0.13926696302E+02  0.15334544461E+02  0.73828754102E+02  0.76679763015E+02  0.00000000000E+00 0. -1.
</event>
<event>
 7    1  0.2841804E-009  0.1280637E+03  0.7561462E-02  0.1230357E+00
         -1   -1    0    0    0  501 -0.00000000000E+00  0.00000000000E+00  0.45638254994E+03  0.45638254994E+03  0.00000000000E+00 0.  1.
          1   -1    0    0  501    0  0.00000000000E+00 -0.00000000000E+00 -0.38509467414E+02  0.38509467414E+02  0.00000000000E+00 0. -1.
         25    2    1    2    0    0  0.15908182064E+02 -0.72960611906E+02  0.25571961386E+03  0.29430511207E+03  0.12508659773E+03 0.  0.
          5    1    3    3  502    0 -0.51210198993E+02 -0.37391478666E+02  0.75477123538E+02  0.98665473877E+02  0.41800000000E+01 0. -1.
         -5    1    3    3    0  502  0.67118381057E+02 -0.35569133240E+02  0.18024249032E+03  0.19563963820E+03  0.41800000000E+01 0. -1.
        -11    1    1    2    0    0  0.26235958882E+02 -0.60803672123E+01  0.24825789506E+02  0.36628079782E+02  0.00000000000E+00 0. -1.
         11    1    1    2    0    0 -0.42144140946E+02  0.79040979119E+02  0.13732767916E+03  0.16395882550E+03  0.00000000000E+00 0.  1.
</event>
<event>
 7    1  0.2841804E-009  0.8841937E+02  0.7561462E-02  0.1306725E+00
          1   -1    0    0  501    0  0.00000000000E+00  0.00000000000E+00  0.18990001907E+03  0.18990001907E+03  0.00000000000E+00 0. -1.
         -1   -1    0    0    0  501 -0.00000000000E+00 -0.00000000000E+00 -0.63425203332E+02  0.63425203332E+02  0.00000000000E+00 0.  1.
         25    2    1    2    0    0  0.58021650753E+01 -0.32383046737E+01  0.54530862908E+02  0.13661941947E+03  0.12508836488E+03 0.  0.
          5    1    3    3  502    0  0.58812971725E+02 -0.23322721627E+02  0.47748171969E+02  0.79374273626E+02  0.41800000000E+01 0. -1.
         -5    1    3    3    0  502 -0.53010806650E+02  0.20084416954E+02  0.67826909391E+01  0.57245145841E+02  0.41800000000E+01 0. -1.
        -11    1    1    2    0    0 -0.30718249060E+02 -0.31184065386E+01 -0.86861310685E+01  0.32074665355E+02  0.00000000000E+00 0.  1.
         11    1    1    2    0    0  0.24916083985E+02  0.63567112123E+01  0.80630083902E+02  0.84631137583E+02  0.00000000000E+00 0. -1.
</event>
<event>
 7    1  0.2841804E-009  0.1161787E+03  0.7561462E-02  0.1249537E+00
          3   -1    0    0  501    0  0.00000000000E+00  0.00000000000E+00  0.18597167832E+02  0.18597167832E+02  0.00000000000E+00 0. -1.
         -3   -1    0    0    0  501 -0.00000000000E+00 -0.00000000000E+00 -0.88970625651E+03  0.88970625651E+03  0.00000000000E+00 0.  1.
         25    2    1    2    0    0 -0.67527831564E+02  0.29915790602E+02 -0.60084339718E+03  0.61815491758E+03  0.12509097345E+03 0.  0.
          5    1    3    3  502    0  0.34013887617E+02 -0.49533385463E+01 -0.97333854064E+02  0.10330939774E+03  0.41800000000E+01 0.  1.
         -5    1    3    3    0  502 -0.10154171918E+03  0.34869129148E+02 -0.50350954311E+03  0.51484551985E+03  0.41800000000E+01 0.  1.
        -11    1    1    2    0    0  0.61037747569E+02 -0.43689241158E+02 -0.26256936849E+03  0.27308795230E+03  0.00000000000E+00 0.  1.
         11    1    1    2    0    0  0.64900839952E+01  0.13773450556E+02 -0.76963230046E+01  0.17060554454E+02  0.00000000000E+00 0. -1.
</event>
<event>
 7    1  0.2841804E-009  0.1496437E+03  0.7561462E-02  0.1200912E+00
         -3   -1    0    0    0  501 -0.00000000000E+00  0.00000000000E+00  0.39895243789E+03  0.39895243789E+03  0.00000000000E+00 0.  1.
          3   -1    0    0  501    0  0.00000000000E+00 -0.00000000000E+00 -0.82454922472E+02  0.82454922472E+02  0.00000000000E+00 0. -1.
         25    2    1    2    0    0 -0.11668562016E+03 -0.30617478006E+02  0.27640988087E+03  0.32650067193E+03  0.12508917865E+03 0.  0.
          5    1    3    3  502    0 -0.87193771647E+02 -0.77741532558E+02  0.20399119509E+03  0.23510929325E+03  0.41800000000E+01 0.  1.
         -5    1    3    3    0  502 -0.29491848516E+02  0.47124054552E+02  0.72418685778E+02  0.91391378675E+02  0.41800000000E+01 0.  1.
        -11    1    1    2    0    0  0.48770897317E+02 -0.65777630357E+01  0.57352304758E+02  0.75572179092E+02  0.00000000000E+00 0.  1.
         11    1    1    2    0    0  0.67914722845E+02  0.37195241042E+02 -0.17264670209E+02  0.79334509343E+02  0.00000000000E+00 0. -1.
</event>
<event>
 7    1  0.2841804E-009  0.1206523E+03  0.7561462E-02  0.1242025E+00
         -2   -1    0    0    0  501 -0.00000000000E+00  0.00000000000E+00  0.23247847977E+03  0.23247847977E+03  0.00000000000E+00 0.  1.
          2   -1    0    0  501    0  0.00000000000E+00 -0.00000000000E+00 -0.17755367917E+03  0.17755367917E+03  0.00000000000E+00 0. -1.
         25    2    1    2    0    0 -0.52666961965E+02 -0.63277134354E+02 -0.12266465691E+03  0.19357711856E+03  0.12509067975E+03 0.  0.
          5    1    3    3  502    0  0.21221504983E+02 -0.51041007180E+02 -0.72199341424E+01  0.55902920645E+02  0.41800000000E+01 0.  1.
         -5    1    3    3    0  502 -0.73888466948E+02 -0.12236127174E+02 -0.11544472277E+03  0.13767419792E+03  0.41800000000E+01 0.  1.
        -11    1    1    2    0    0  0.41693434688E+02 -0.47399452440E+01  0.24534349606E+02  0.48608064018E+02  0.00000000000E+00 0.  1.
         11    1    1    2    0    0  0.10973527277E+02  0.68017079598E+02  0.15305510791E+03  0.16784697637E+03  0.00000000000E+00 0. -1.
</event>
<event>
 7    1  0.2841804E-009  0.9924184E+02  0.7561462E-02  0.1281898E+00
         -2   -1    0    0    0  501 -0.00000000000E+00  0.00000000000E+00  0.40762388375E+02  0.40762388375E+02  0.00000000000E+00 0.  1.
          2   -1    0    0  501    0  0.00000000000E+00 -0.00000000000E+00 -0.29983855429E+03  0.29983855429E+03  0.00000000000E+00 0. -1.
         25    2    1    2    0    0  0.29099520030E+02 -0.11032982753E+02 -0.16674659851E+03  0.21076520808E+03  0.12509610725E+03 0.  0.
          5    1    3    3  502    0 -0.86336283570E+01  0.53327013645E+02 -0.69315908986E+02  0.87979983869E+02  0.41800000000E+01 0.  1.
         -5    1    3    3    0  502  0.37733148387E+02 -0.64359996399E+02 -0.97430689519E+02  0.12278522421E+03  0.41800000000E+01 0.  1.
        -11    1    1    2    0    0  0.29385393263E+01  0.31450342937E+02 -0.85614865569E+02  0.91256037009E+02  0.00000000000E+00 0. -1.
         11    1    1    2    0    0 -0.32038059357E+02 -0.20417360183E+02 -0.67147018347E+01  0.38579697574E+02  0.00000000000E+00 0.  1.
</event>
<event>
 7    1  0.2841804E-009  0.2210081E+03  0.7561462E-02  0.1133134E+00
         -2   -1    0    0    0  501 -0.00000000000E+00  0.00000000000E+00  0.73228952685E+03  0.73228952685E+03  0.00000000000E+00 0.  1.
          2   -1    0    0  501    0  0.00000000000E+00 -0.00000000000E+00 -0.88215130518E+02  0.88215130518E+02  0.00000000000E+00 0. -1.
         25    2    1    2    0    0 -0.18490176571E+03  0.11653514582E+03  0.21968120139E+03  0.33418204943E+03  0.12509479902E+03 0.  0.
          5    1    3    3  502    0 -0.81711602872E+02  0.30983554139E+02  0.16995662853E+03  0.19115306603E+03  0.41800000000E+01 0. -1.
         -5    1    3    3    0  502 -0.10319016284E+03  0.85551591681E+02  0.49724572859E+02  0.14302898340E+03  0.41800000000E+01 0. -1.
        -11    1    1    2    0    0  0.93543425303E+02 -0.42114153856E+02  0.28987966944E+03  0.30749666198E+03  0.00000000000E+00 0.  1.
         11    1    1    2    0    0  0.91358340406E+02 -0.74420991965E+02  0.13451352550E+03  0.17882594596E+03  0.00000000000E+00 0. -1.
</event>
<event>
 7    1  0.2841804E-009  0.2543661E+03  0.7561462E-02  0.1110576E+00
          2   -1    0    0  501    0  0.00000000000E+00  0.00000000000E+00  0.43869258173E+03  0.43869258173E+03  0.00000000000E+00 0. -1.
         -2   -1    0    0    0  501 -0.00000000000E+00 -0.00000000000E+00 -0.18997169271E+03  0.18997169271E+03  0.00000000000E+00 0.  1.
         25    2    1    2    0    0 -0.23520311570E+03  0.36761309115E+02  0.25911807335E+03  0.37344661538E+03  0.12509316175E+03 0.  0.
          5    1    3    3  502    0  0.13556844856E+02  0.77599230921E+00  0.28987027022E+01  0.14500520124E+02  0.41800000000E+01 0. -1.
         -5    1    3    3    0  502 -0.24875996056E+03  0.35985316805E+02  0.25621937065E+03  0.35894609526E+03  0.41800000000E+01 0. -1.
        -11    1    1    2    0    0  0.11946396830E+02 -0.14483714033E+02  0.21558661937E+02  0.28587939309E+02  0.00000000000E+00 0. -1.
         11    1    1    2    0    0  0.22325671887E+03 -0.22277595081E+02 -0.31955846270E+02  0.22662971975E+03  0.00000000000E+00 0.  1.
</event>
<event>
 7    1  0.2841804E-009  0.8629307E+02  0.7561462E-02  0.1312085E+00
         -1   -1    0    0    0  501 -0.00000000000E+00  0.00000000000E+00  0.27593288132E+03  0.27593288132E+03  0.00000000000E+00 0.  1.
          1   -1    0    0  501    0  0.00000000000E+00 -0.00000000000E+00 -0.54532762268E+02  0.54532762268E+02  0.00000000000E+00 0. -1.
         25    2    1    2    0    0 -0.25816186302E+01  0.54212686372E+02  0.99640426592E+02  0.16888257159E+03  0.12508968085E+03 0.  0.
          5    1    3    3  502    0 -0.14626180866E+02 -0.25161288176E+02  0.81261443709E+02  0.86417071364E+02  0.41800000000E+01 0.  1.
         -5    1    3    3    0  502  0.12044562236E+02  0.79373974548E+02  0.18378982883E+02  0.82465500222E+02  0.41800000000E+01 0.  1.
        -11    1    1    2    0    0  0.14456311330E+02 -0.46346612820E+02  0.13417487851E+03  0.14268809159E+03  0.00000000000E+00 0.  1.
         11    1    1    2    0    0 -0.11874692700E+02 -0.78660735516E+01 -0.12415186058E+02  0.18894980410E+02  0.00000000000E+00 0. -1.
</event>
<event>
 7    1  0.2841804E-009  0.4514330E+03  0.7561462E-02  0.1027296E+00
          2   -1    0    0  501    0  0.00000000000E+00  0.00000000000E+00  0.15506615044E+04  0.15506615044E+04  0.00000000000E+00 0. -1.
         -2   -1    0    0    0  501 -0.00000000000E+00 -0.00000000000E+00 -0.13245822026E+03  0.13245822026E+03  0.00000000000E+00 0.  1.
         25    2    1    2    0    0  0.26957449279E+03 -0.34701407036E+03  0.75010864658E+03  0.87829347777E+03  0.12508908514E+03 0.  0.
          5    1    3    3  502    0  0.16976307821E+03 -0.12555637538E+03  0.39704225637E+03  0.44971538985E+03  0.41800000000E+01 0. -1.
         -5    1    3    3    0  502  0.99811414576E+02 -0.22145769499E+03  0.35306639021E+03  0.42857808792E+03  0.41800000000E+01 0. -1.
        -11    1    1    2    0    0 -0.12179793604E+02  0.68161063074E+02  0.99164911721E+02  0.12094609381E+03  0.00000000000E+00 0.  1.
         11    1    1    2    0    0 -0.25739469918E+03  0.27885300729E+03  0.56892972581E+03  0.68388015307E+03  0.00000000000E+00 0. -1.
</event>
<event>
 7    1  0.2841804E-009  0.1485593E+03  0.7561462E-02  0.1202255E+00
          2   -1    0    0  501    0  0.00000000000E+00  0.00000000000E+00  0.45272011063E+03  0.45272011063E+03  0.00000000000E+00 0. -1.
         -2   -1    0    0    0  501 -0.00000000000E+00 -0.00000000000E+00 -0.72625855479E+02  0.72625855479E+02  0.00000000000E+00 0.  1.
         25    2    1    2    0    0  0.36339260111E+02 -0.11312646415E+03  0.32479393280E+03  0.36777332922E+03  0.12509190294E+03 0.  0.
          5    1    3    3  502    0  0.38776151657E+02  0.22693322315E+01  0.24698135396E+02  0.46219152936E+02  0.41800000000E+01 0. -1.
         -5    1    3    3    0  502 -0.24368915458E+01 -0.11539579638E+03  0.30009579741E+03  0.32155417628E+03  0.41800000000E+01 0. -1.
        -11    1    1    2    0    0 -0.13202604656E+02  0.11814467091E+03  0.29357869744E+02  0.12245144568E+03  0.00000000000E+00 0.  1.
         11    1    1    2    0    0 -0.23136655454E+02 -0.50182067646E+01  0.25942452602E+02  0.35121191206E+02  0.00000000000E+00 0. -1.
</event>
<event>
 7    1  0.2841804E-009  0.1120795E+03  0.7561462E-02  0.1256767E+00
          1   -1    0    0  501    0  0.00000000000E+00  0.00000000000E+00  0.19999320243E+02  0.19999320243E+02  0.00000000000E+00 0. -1.
         -1   -1    0    0    0  501 -0.00000000000E+00 -0.00000000000E+00 -0.11278529565E+04  0.11278529565E+04  0.00000000000E+00 0.  1.
         25    2    1    2    0    0 -0.30732232206E+02  0.44344301319E+01 -0.97066351679E+03  0.97918267747E+03  0.12508764437E+03 0.  0.
          5    1    3    3  502    0 -0.79443853262E+02  0.40997530780E+01 -0.56674916767E+03  0.57232003743E+03  0.41800000000E+01 0.  1.
         -5    1    3    3    0  502  0.48711621056E+02  0.33467705389E+00 -0.40391434912E+03  0.40686264004E+03  0.41800000000E+01 0.  1.
        -11    1    1    2    0    0 -0.14671657631E+02 -0.36953694485E+02 -0.38917786011E+02  0.55636562993E+02  0.00000000000E+00 0.  1.
         11    1    1    2    0    0  0.45403889837E+02  0.32519264353E+02 -0.98272333453E+02  0.11303303627E+03  0.00000000000E+00 0. -1.
</event>
<event>
 7    1  0.2841804E-009  0.1894898E+03  0.7561462E-02  0.1158922E+00
         -1   -1    0    0    0  501 -0.00000000000E+00  0.00000000000E+00  0.42730793368E+02  0.42730793368E+02  0.00000000000E+00 0.  1.
          1   -1    0    0  501    0  0.00000000000E+00 -0.00000000000E+00 -0.10262405115E+04  0.10262405115E+04  0.00000000000E+00 0. -1.
         25    2    1    2    0    0 -0.12781415906E+03  0.11217022852E+03 -0.36233316219E+03  0.41934693386E+03  0.12509161079E+03 0.  0.
          5    1    3    3  502    0  0.17137481604E+02  0.41778915707E+02 -0.47651282650E+02  0.65782126840E+02  0.41800000000E+01 0. -1.
         -5    1    3    3    0  502 -0.14495164067E+03  0.70391312817E+02 -0.31468187954E+03  0.35356480702E+03  0.41800000000E+01 0. -1.
        -11    1    1    2    0    0  0.74424613142E+01 -0.18407831914E+02 -0.15971664680E+02  0.25482005000E+02  0.00000000000E+00 0.  1.
         11    1    1    2    0    0  0.12037169775E+03 -0.93762396610E+02 -0.60520489123E+03  0.62414236598E+03  0.00000000000E+00 0. -1.
</event>
<event>
 7    1  0.2841804E-009  0.1597879E+03  0.7561462E-02  0.1188936E+00
         -4   -1    0    0    0  501 -0.00000000000E+00  0.00000000000E+00  0.23947315319E+03  0.23947315319E+03  0.00000000000E+00 0.  1.
          4   -1    0    0  501    0  0.00000000000E+00 -0.00000000000E+00 -0.14472846771E+03  0.14472846771E+03  0.00000000000E+00 0. -1.
         25    2    1    2    0    0 -0.77382812357E+02  0.10347937630E+03  0.13602159140E+03  0.22548801054E+03  0.12508752376E+03 0.  0.
          5    1    3    3  502    0 -0.53101127376E+02  0.12566778560E+03  0.13549897547E+03  0.19232671895E+03  0.41800000000E+01 0. -1.
         -5    1    3    3    0  502 -0.24281684980E+02 -0.22188409301E+02  0.52261593411E+00  0.33161291594E+02  0.41800000000E+01 0. -1.
        -11    1    1    2    0    0 -0.13515943499E+02 -0.19538115763E+01 -0.14344837626E+02  0.19805869707E+02  0.00000000000E+00 0. -1.
         11    1    1    2    0    0  0.90898755856E+02 -0.10152556473E+03 -0.26932068300E+02  0.13890774065E+03  0.00000000000E+00 0.  1.
</event>
<event>
 7    1  0.2841804E-009  0.2104713E+03  0.7561462E-02  0.1141193E+00
          4   -1    0    0  501    0  0.00000000000E+00  0.00000000000E+00  0.19659617467E+03  0.19659617467E+03  0.00000000000E+00 0. -1.
         -4   -1    0    0    0  501 -0.00000000000E+00 -0.00000000000E+00 -0.45540346895E+03  0.45540346895E+03  0.00000000000E+00 0.  1.
         25    2    1    2    0    0  0.10217240586E+03 -0.16682143509E+03  0.84196288691E+02  0.24699024332E+03  0.12508626439E+03 0.  0.
          5    1    3    3  502    0  0.76088109021E+02 -0.63884390142E+02  0.98253126115E+02  0.13979186253E+03  0.41800000000E+01 0.  1.
         -5    1    3    3    0  502  0.26084296840E+02 -0.10293704495E+03 -0.14056837424E+02  0.10719838079E+03  0.41800000000E+01 0.  1.
        -11    1    1    2    0    0 -0.80932593102E+02  0.47100373440E+02 -0.15628319480E+03  0.18218937066E+03  0.00000000000E+00 0. -1.
         11    1    1    2    0    0 -0.21239812759E+02  0.11972106165E+03 -0.18672038817E+03  0.22282002964E+03  0.00000000000E+00 0.  1.
</event>
<event>
 7    1  0.2841804E-009  0.1436051E+03  0.7561462E-02  0.1208559E+00
         -2   -1    0    0    0  501 -0.00000000000E+00  0.00000000000E+00  0.25828940086E+02  0.25828940086E+02  0.00000000000E+00 0.  1.
          2   -1    0    0  501    0  0.00000000000E+00 -0.00000000000E+00 -0.94376481824E+03  0.94376481824E+03  0.00000000000E+00 0. -1.
         25    2    1    2    0    0  0.20672697027E+02 -0.10801759947E+03 -0.57209211845E+03  0.59584561383E+03  0.12508973312E+03 0.  0.
          5    1    3    3  502    0  0.33525718823E+02  0.32898598226E+01 -0.41888502338E+02  0.53915823543E+02  0.41800000000E+01 0.  1.
         -5    1    3    3    0  502 -0.12853021796E+02 -0.11130745929E+03 -0.53020361612E+03  0.54192979029E+03  0.41800000000E+01 0.  1.
        -11    1    1    2    0    0  0.23545968787E+02  0.90608143620E+02 -0.21321041814E+03  0.23285817731E+03  0.00000000000E+00 0.  1.
         11    1    1    2    0    0 -0.44218665814E+02  0.17409455847E+02 -0.13263334156E+03  0.14088996718E+03  0.00000000000E+00 0. -1.
</event>
<event>
 7    1  0.2841804E-009  0.1420822E+03  0.7561462E-02  0.1210554E+00
          2   -1    0    0  501    0  0.00000000000E+00  0.00000000000E+00  0.53832910021E+03  0.53832910021E+03  0.00000000000E+00 0. -1.
         -2   -1    0    0    0  501 -0.00000000000E+00 -0.00000000000E+00 -0.39920730711E+02  0.39920730711E+02  0.00000000000E+00 0.  1.
         25    2    1    2    0    0  0.87252565691E+02 -0.40967559516E+02  0.29513124407E+03  0.33472512536E+03  0.12508839740E+03 0.  0.
          5    1    3    3  502    0  0.78742322931E+02  0.31151427987E+02  0.17060368167E+03  0.19050945773E+03  0.41800000000E+01 0. -1.
         -5    1    3    3    0  502  0.85102427598E+01 -0.72118987503E+02  0.12452756240E+03  0.14421566762E+03  0.41800000000E+01 0. -1.
        -11    1    1    2    0    0 -0.12089951921E+02 -0.24270721066E+02  0.83510163229E+02  0.87801948731E+02  0.00000000000E+00 0.  1.
         11    1    1    2    0    0 -0.75162613769E+02  0.65238280582E+02  0.11976696220E+03  0.15572275684E+03  0.00000000000E+00 0. -1.
</event>
<event>
 7    1  0.2841804E-009  0.1094379E+03  0.7561462E-02  0.1261614E+00
          1   -1    0    0  501    0  0.00000000000E+00  0.00000000000E+00  0.28040468747E+03  0.28040468747E+03  0.00000000000E+00 0. -1.
         -1   -1    0    0    0  501 -0.00000000000E+00 -0.00000000000E+00 -0.49721784255E+02  0.49721784255E+02  0.00000000000E+00 0.  1.
         25    2    1    2    0    0  0.21125669104E+01  0.57552446505E+02  0.16705267311E+03  0.21649575712E+03  0.12508824972E+03 0.  0.
          5    1    3    3  502    0 -0.41796291685E+02  0.74218463460E+02  0.77247297287E+02  0.11506488454E+03  0.41800000000E+01 0.  1.
         -5    1    3    3    0  502  0.43908858595E+02 -0.16666016955E+02  0.89805375825E+02  0.10143087257E+03  0.41800000000E+01 0.  1.
        -11    1    1    2    0    0 -0.28952714771E+02 -0.79154719759E+01  0.20186121758E+01  0.30083038150E+02  0.00000000000E+00 0.  1.
         11    1    1    2    0    0  0.26840147860E+02 -0.49636974529E+02  0.61611617924E+02  0.83547676453E+02  0.00000000000E+00 0. -1.
</event>
<event>
 7    1  0.2841804E-009  0.7011397E+02  0.7561462E-02  0.1359706E+00
          1   -1    0    0  501    0  0.00000000000E+00  0.00000000000E+00  0.69080543853E+02  0.69080543853E+02  0.00000000000E+00 0. -1.
         -1   -1    0    0    0  501 -0.00000000000E+00 -0.00000000000E+00 -0.22757787177E+03  0.22757787177E+03  0.00000000000E+00 0.  1.
         25    2    1    2    0    0 -0.30373891165E+02 -0.53395197220E+02 -0.91536640499E+02  0.16673369081E+03  0.12509015447E+03 0.  0.
          5    1    3    3  502    0 -0.17009516510E+02 -0.27297641835E+02 -0.12081194831E+03  0.12508990430E+03  0.41800000000E+01 0.  1.
         -5    1    3    3    0  502 -0.13364374654E+02 -0.26097555386E+02  0.29275307815E+02  0.41643786508E+02  0.41800000000E+01 0.  1.
        -11    1    1    2    0    0  0.43210867517E+02  0.46966819756E+02 -0.85364161989E+02  0.10658377635E+03  0.00000000000E+00 0.  1.
         11    1    1    2    0    0 -0.12836976352E+02  0.64283774643E+01  0.18403474574E+02  0.23340948462E+02  0.00000000000E+00 0. -1.
</event>
<event>
 7    1  0.2841804E-009  0.5217405E+02  0.7561462E-02  0.1433956E+00
         -2   -1    0    0    0  501 -0.00000000000E+00  0.00000000000E+00  0.12841648808E+03  0.12841648808E+03  0.00000000000E+00 0.  1.
          2   -1    0    0  501    0  0.00000000000E+00 -0.00000000000E+00 -0.10630236389E+03  0.10630236389E+03  0.00000000000E+00 0. -1.
         25    2    1    2    0    0 -0.14678038868E+02 -0.78793893836E+01 -0.29688483681E+02  0.12963779718E+03  0.12508806015E+03 0.  0.
          5    1    3    3  502    0  0.10668171011E+02  0.19802554122E+02  0.42443982573E+02  0.48217373208E+02  0.41800000000E+01 0.  1.
         -5    1    3    3    0  502 -0.25346209879E+02 -0.27681943506E+02 -0.72132466253E+02  0.81420423969E+02  0.41800000000E+01 0.  1.
        -11    1    1    2    0    0  0.26271792389E+02  0.14848482743E+02  0.73532890045E+02  0.79484403712E+02  0.00000000000E+00 0.  1.
         11    1    1    2    0    0 -0.11593753521E+02 -0.69690933595E+01 -0.21730282180E+02  0.25596651081E+02  0.00000000000E+00 0. -1.
</event>
<event>
 7    1  0.2841804E-009  0.9181113E+02  0.7561462E-02  0.1298524E+00
          1   -1    0    0  501    0  0.00000000000E+00  0.00000000000E+00  0.21988694191E+03  0.21988694191E+03  0.00000000000E+00 0. -1.
         -1   -1    0    0    0  501 -0.00000000000E+00 -0.00000000000E+00 -0.75890758825E+02  0.75890758825E+02  0.00000000000E+00 0.  1.
         25    2    1    2    0    0  0.21886377442E+02 -0.15851344521E+02  0.50883422686E+01  0.12807746540E+03  0.12509063624E+03 0.  0.
          5    1    3    3  502    0 -0.17321298352E+01 -0.53265712225E+02 -0.38460228483E+02  0.65855128483E+02  0.41800000000E+01 0.  1.
         -5    1    3    3    0  502  0.23618507277E+02  0.37414367704E+02  0.43548570751E+02  0.62222336915E+02  0.41800000000E+01 0.  1.
        -11    1    1    2    0    0 -0.24328734184E+02  0.47823910246E+02  0.11742522786E+03  0.12910343851E+03  0.00000000000E+00 0. -1.
         11    1    1    2    0    0  0.24423567418E+01 -0.31972565725E+02  0.21482612955E+02  0.38596796821E+02  0.00000000000E+00 0.  1.
</event>
<event>
 6    1  0.2841804E-009  0.5966191E+02  0.7561462E-02  0.1399256E+00
         -2   -1    0    0    0  501 -0.00000000000E+00  0.00000000000E+00  0.45423384585E+02  0.45423384585E+02  0.00000000000E+00 0.  1.
          2   -1    0    0  501    0  0.00000000000E+00 -0.00000000000E+00 -0.34853539265E+03  0.34853539265E+03  0.00000000000E+00 0. -1.
          5    1    1    2  502    0  0.23064960433E+02 -0.76909607973E+00  0.15021475079E+02  0.27851409697E+02  0.41800000000E+01 0. -1.
         -5    1    1    2    0  502  0.60282688701E+01 -0.39599910149E+02 -0.21079588718E+03  0.21460864699E+03  0.41800000000E+01 0. -1.
        -11    1    1    2    0    0 -0.21356081635E+02  0.88076208707E+01 -0.11566779256E+03  0.11795208622E+03  0.00000000000E+00 0. -1.
         11    1    1    2    0    0 -0.77371476683E+01  0.31561385359E+02  0.83301965931E+01  0.33546634333E+02  0.00000000000E+00 0.  1.
</event>
<event>
 7    1  0.2841804E-009  0.1165909E+03  0.7561462E-02  0.1248829E+00
          1   -1    0    0  501    0  0.00000000000E+00  0.00000000000E+00  0.23443098239E+03  0.23443098239E+03  0.00000000000E+00 0. -1.
         -1   -1    0    0    0  501 -0.00000000000E+00 -0.00000000000E+00 -0.10576669252E+03  0.10576669252E+03  0.00000000000E+00 0.  1.
         25    2    1    2    0    0 -0.42672590042E+01 -0.65479825214E+02  0.17118517946E+03  0.22194714041E+03  0.12510136074E+03 0.  0.
          5    1    3    3  502    0 -0.55779661898E+02 -0.23112526743E+02  0.13012874215E+03  0.14351488253E+03  0.41800000000E+01 0.  1.
         -5    1    3    3    0  502  0.51512402894E+02 -0.42367298470E+02  0.41056437314E+02  0.78432257882E+02  0.41800000000E+01 0.  1.
        -11    1    1    2    0    0 -0.28102029637E+02  0.67785127321E+02 -0.44362264929E+02  0.85747058873E+02  0.00000000000E+00 0. -1.
         11    1    1    2    0    0  0.32369288642E+02 -0.23053021073E+01  0.18413753410E+01  0.32503475631E+02  0.00000000000E+00 0.  1.
</event>
<event>
 7    1  0.2841804E-009  0.1322558E+03  0.7561462E-02  0.1224146E+00
         -1   -1    0    0    0  501 -0.00000000000E+00  0.00000000000E+00  0.41608819130E+03  0.41608819130E+03  0.00000000000E+00 0.  1.
          1   -1    0    0  501    0  0.00000000000E+00 -0.00000000000E+00 -0.48037448850E+02  0.48037448850E+02  0.00000000000E+00 0. -1.
         25    2    1    2    0    0  0.26666037954E+02  0.85660549438E+02  0.18260454804E+03  0.23883558688E+03  0.12509679965E+03 0.  0.
          5    1    3    3  502    0  0.68587508290E+02  0.81022148033E+02  0.15618519816E+03  0.18889182960E+03  0.41800000000E+01 0.  1.
         -5    1    3    3    0  502 -0.41921470336E+02  0.46384014054E+01  0.26419349884E+02  0.49943757278E+02  0.41800000000E+01 0.  1.
        -11    1    1    2    0    0 -0.50461052300E+02 -0.73536882812E+02  0.92123286655E+02  0.12822125751E+03  0.00000000000E+00 0. -1.
         11    1    1    2    0    0  0.23795014345E+02 -0.12123666626E+02  0.93322907747E+02  0.97068795762E+02  0.00000000000E+00 0.  1.
</event>
<event>
 7    1  0.2841804E-009  0.1142763E+03  0.7561462E-02  0.1252850E+00
          2   -1    0    0  501    0  0.00000000000E+00  0.00000000000E+00  0.63495967134E+03  0.63495967134E+03  0.00000000000E+00 0.  1.
         -2   -1    0    0    0  501 -0.00000000000E+00 -0.00000000000E+00 -0.31126244855E+02  0.31126244855E+02  0.00000000000E+00 0. -1.
         25    2    1    2    0    0 -0.66817329826E+02  0.50011697717E+02  0.41135794689E+03  0.43798017822E+03  0.12508217528E+03 0.  0.
          5    1    3    3  502    0 -0.49402573515E+02 -0.29806310773E+02  0.25541298769E+03  0.26188221992E+03  0.41800000000E+01 0.  1.
         -5    1    3    3    0  502 -0.17414756311E+02  0.79818008490E+02  0.15594495920E+03  0.17609795830E+03  0.41800000000E+01 0.  1.
        -11    1    1    2    0    0  0.33734579325E+02 -0.66893775091E+01  0.16209187454E+03  0.16570016718E+03  0.00000000000E+00 0.  1.
         11    1    1    2    0    0  0.33082750501E+02 -0.43322320208E+02  0.30383605054E+02  0.62405570785E+02  0.00000000000E+00 0. -1.
</event>
<event>
 7    1  0.2841804E-009  0.7893170E+02  0.7561462E-02  0.1332111E+00
          2   -1    0    0  501    0  0.00000000000E+00  0.00000000000E+00  0.74876709840E+02  0.74876709840E+02  0.00000000000E+00 0.  1.
         -2   -1    0    0    0  501 -0.00000000000E+00 -0.00000000000E+00 -0.24476646504E+03  0.24476646504E+03  0.00000000000E+00 0. -1.
         25    2    1    2    0    0 -0.69904205836E+02  0.19264489723E+02 -0.13412305541E+03  0.19721661719E+03  0.12509069329E+03 0.  0.
          5    1    3    3  502    0 -0.19782075791E+02  0.27266782171E+02 -0.14171618891E+03  0.14572494135E+03  0.41800000000E+01 0. -1.
         -5    1    3    3    0  502 -0.50122130044E+02 -0.80022924481E+01  0.75931335019E+01  0.51491675842E+02  0.41800000000E+01 0. -1.
        -11    1    1    2    0    0  0.27732937991E+02 -0.34339408480E+01  0.31095156133E+02  0.41806895775E+02  0.00000000000E+00 0.  1.
         11    1    1    2    0    0  0.42171267844E+02 -0.15830548875E+02 -0.66861855928E+02  0.80619661916E+02  0.00000000000E+00 0. -1.
</event>
<event>
 7    1  0.2841804E-009  0.1434700E+03  0.7561462E-02  0.1208735E+00
          1   -1    0    0  501    0  0.00000000000E+00  0.00000000000E+00  0.12385313703E+04  0.12385313703E+04  0.00000000000E+00 0. -1.
         -1   -1    0    0    0  501 -0.00000000000E+00 -0.00000000000E+00 -0.21513332044E+02  0.21513332044E+02  0.00000000000E+00 0.  1.
         25    2    1    2    0    0 -0.28607707874E+02 -0.11153204255E+03  0.80788856826E+03  0.82558388604E+03  0.12508803579E+03 0.  0.
          5    1    3    3  502    0 -0.63810584718E+02 -0.50782739623E+02  0.61253100985E+03  0.61795014993E+03  0.41800000000E+01 0. -1.
         -5    1    3    3    0  502  0.35202876844E+02 -0.60749302929E+02  0.19535755841E+03  0.20763373612E+03  0.41800000000E+01 0. -1.
        -11    1    1    2    0    0  0.52227092605E+02  0.73238515088E+02  0.34212094723E+03  0.35374891071E+03  0.00000000000E+00 0. -1.
         11    1    1    2    0    0 -0.23619384731E+02  0.38293527465E+02  0.67008522732E+02  0.80711905562E+02  0.00000000000E+00 0.  1.
</event>
<event>
 7    1  0.2841804E-009  0.8994723E+02  0.7561462E-02  0.1302980E+00
         -3   -1    0    0    0  501 -0.00000000000E+00  0.00000000000E+00  0.44684230960E+03  0.44684230960E+03  0.00000000000E+00 0.  1.
          3   -1    0    0  501    0  0.00000000000E+00 -0.00000000000E+00 -0.32450519381E+02  0.32450519381E+02  0.00000000000E+00 0. -1.
         25    2    1    2    0    0 -0.49270681806E+02 -0.93470719713E+01  0.24407105247E+03  0.27880362123E+03  0.12508322317E+03 0.  0.
          5    1    3    3  502    0 -0.71589219752E+02  0.13381742815E+02  0.23404143251E+03  0.24514679675E+03  0.41800000000E+01 0. -1.
         -5    1    3    3    0  502  0.22318537946E+02 -0.22728814786E+02  0.10029619960E+02  0.33656824481E+02  0.41800000000E+01 0. -1.
        -11    1    1    2    0    0 -0.85205021929E+00  0.22883474371E+02  0.49511908448E+00  0.22904683621E+02  0.00000000000E+00 0. -1.
         11    1    1    2    0    0  0.50122732025E+02 -0.13536402400E+02  0.16982561866E+03  0.17758452413E+03  0.00000000000E+00 0.  1.
</event>
<event>
 7    1  0.2841804E-009  0.2340128E+03  0.7561462E-02  0.1123847E+00
          1   -1    0    0  501    0  0.00000000000E+00  0.00000000000E+00  0.13223103407E+04  0.13223103407E+04  0.00000000000E+00 0. -1.
         -1   -1    0    0    0  501 -0.00000000000E+00 -0.00000000000E+00 -0.56498778225E+02  0.56498778225E+02  0.00000000000E+00 0.  1.
         25    2    1    2    0    0 -0.44038827098E+02 -0.22504598881E+03  0.39463581846E+03  0.47325499989E+03  0.12509096827E+03 0.  0.
          5    1    3    3  502    0  0.81795480758E-01 -0.49712906392E+02  0.20591206484E+03  0.21186937155E+03  0.41800000000E+01 0.  1.
         -5    1    3    3    0  502 -0.44120622579E+02 -0.17533308242E+03  0.18872375361E+03  0.26138562834E+03  0.41800000000E+01 0.  1.
        -11    1    1    2    0    0  0.51566141201E+02  0.10471180804E+03  0.55565041107E+03  0.56777725296E+03  0.00000000000E+00 0.  1.
         11    1    1    2    0    0 -0.75273141027E+01  0.12033418077E+03  0.31552533295E+03  0.33777686607E+03  0.00000000000E+00 0. -1.
</event>
<event>
 7    1  0.2841804E-009  0.1882731E+03  0.7561462E-02  0.1160028E+00
         -2   -1    0    0    0  501 -0.00000000000E+00  0.00000000000E+00  0.19109921959E+02  0.19109921959E+02  0.00000000000E+00 0.  1.
          2   -1    0    0  501    0  0.00000000000E+00 -0.00000000000E+00 -0.25563827086E+04  0.25563827086E+04  0.00000000000E+00 0. -1.
         25    2    1    2    0    0 -0.15709459051E+03  0.68017678404E+02 -0.18227168792E+04  0.18350070617E+04  0.12509588322E+03 0.  0.
          5    1    3    3  502    0 -0.16733147477E+03  0.82507918496E+02 -0.17545179889E+04  0.17644144142E+04  0.41800000000E+01 0. -1.
         -5    1    3    3    0  502  0.10236884263E+02 -0.14490240091E+02 -0.68198890244E+02  0.70592647549E+02  0.41800000000E+01 0. -1.
        -11    1    1    2    0    0  0.21132168141E+02 -0.43575300597E+01 -0.18494857692E+02  0.28418591795E+02  0.00000000000E+00 0.  1.
         11    1    1    2    0    0  0.13596242237E+03 -0.63660148345E+02 -0.69606104980E+03  0.71206697707E+03  0.00000000000E+00 0. -1.
</event>
<event>
 7    1  0.2841804E-009  0.1016221E+03  0.7561462E-02  0.1276921E+00
          3   -1    0    0  501    0  0.00000000000E+00  0.00000000000E+00  0.36307705943E+02  0.36307705943E+02  0.00000000000E+00 0. -1.
         -3   -1    0    0    0  501 -0.00000000000E+00 -0.00000000000E+00 -0.48104052211E+03  0.48104052211E+03  0.00000000000E+00 0.  1.
         25    2    1    2    0    0 -0.50927135563E+02  0.58563538598E+02 -0.25019304748E+03  0.29028438257E+03  0.12508077616E+03 0.  0.
          5    1    3    3  502    0  0.28050196031E+02  0.59871475118E+01 -0.78975994273E+01  0.30041702838E+02  0.41800000000E+01 0.  1.
         -5    1    3    3    0  502 -0.78977331594E+02  0.52576391086E+02 -0.24229544805E+03  0.26024267973E+03  0.41800000000E+01 0.  1.
        -11    1    1    2    0    0  0.11543212359E+02 -0.25030663863E+02 -0.16542787922E+03  0.16770856600E+03  0.00000000000E+00 0.  1.
         11    1    1    2    0    0  0.39383923204E+02 -0.33532874735E+02 -0.29111889467E+02  0.59355279490E+02  0.00000000000E+00 0. -1.
</event>
<event>
 7    1  0.2841804E-009  0.9991991E+02  0.7561462E-02  0.1280464E+00
          2   -1    0    0  501    0  0.00000000000E+00  0.00000000000E+00  0.47218779755E+03  0.47218779755E+03  0.00000000000E+00 0. -1.
         -2   -1    0    0    0  501 -0.00000000000E+00 -0.00000000000E+00 -0.28904681837E+02  0.28904681837E+02  0.00000000000E+00 0.  1.
         25    2    1    2    0    0 -0.31992803139E+02  0.22334477347E+02  0.20448846889E+03  0.24287414867E+03  0.12509975960E+03 0.  0.
          5    1    3    3  502    0  0.29916535981E+02 -0.29121434658E+02  0.11508814471E+03  0.12249820625E+03  0.41800000000E+01 0.  1.
         -5    1    3    3    0  502 -0.61909339120E+02  0.51455912005E+02  0.89400324181E+02  0.12037594242E+03  0.41800000000E+01 0.  1.
        -11    1    1    2    0    0 -0.19277256493E+02 -0.17039512772E+02  0.17783081922E+02  0.31276118942E+02  0.00000000000E+00 0.  1.
         11    1    1    2    0    0  0.51270059631E+02 -0.52949645751E+01  0.22101156490E+03  0.22694221177E+03  0.00000000000E+00 0. -1.
</event>
<event>
 7    1  0.2841804E-009  0.1088822E+03  0.7561462E-02  0.1262654E+00
          2   -1    0    0  501    0  0.00000000000E+00  0.00000000000E+00  0.32075974592E+03  0.32075974592E+03  0.00000000000E+00 0. -1.
         -2   -1    0    0    0  501 -0.00000000000E+00 -0.00000000000E+00 -0.76425415202E+02  0.76425415202E+02  0.00000000000E+00 0.  1.
         25    2    1    2    0    0  0.74942237010E+02  0.31370330598E+02  0.33312470473E+02  0.15283210700E+03  0.12508995049E+03 0.  0.
          5    1    3    3  502    0  0.46075855204E+02  0.72540478635E+02  0.50216397157E+02  0.99620602371E+02  0.41800000000E+01 0. -1.
         -5    1    3    3    0  502  0.28866381806E+02 -0.41170148037E+02 -0.16903926684E+02  0.53211504633E+02  0.41800000000E+01 0. -1.
        -11    1    1    2    0    0 -0.12204989947E+02 -0.59697815426E+01 -0.75484407568E+01  0.15542812781E+02  0.00000000000E+00 0.  1.
         11    1    1    2    0    0 -0.62737247063E+02 -0.25400549056E+02  0.21857030100E+03  0.22881024134E+03  0.00000000000E+00 0. -1.
</event>
<event>
 7    1  0.2841804E-009  0.8974588E+02  0.7561462E-02  0.1303468E+00
          1   -1    0    0  501    0  0.00000000000E+00  0.00000000000E+00  0.50028830306E+03  0.50028830306E+03  0.00000000000E+00 0. -1.
         -1   -1    0    0    0  501 -0.00000000000E+00 -0.00000000000E+00 -0.25492977871E+02  0.25492977871E+02  0.00000000000E+00 0.  1.
         25    2    1    2    0    0  0.56788336683E+01  0.30194548555E+02  0.30668903964E+03  0.33264003064E+03  0.12508902043E+03 0.  0.
          5    1    3    3  502    0  0.44544301165E+02  0.23905738113E+02  0.28077646078E+03  0.28532187509E+03  0.41800000000E+01 0. -1.
         -5    1    3    3    0  502 -0.38865467497E+02  0.62888104417E+01  0.25912578866E+02  0.47318155543E+02  0.41800000000E+01 0. -1.
        -11    1    1    2    0    0  0.20453332037E+02  0.22468093384E+02  0.28486641145E+02  0.41649042431E+02  0.00000000000E+00 0.  1.
         11    1    1    2    0    0 -0.26132165705E+02 -0.52662641939E+02  0.13961964440E+03  0.15149220786E+03  0.00000000000E+00 0. -1.
</event>
<event>
 7    1  0.2841804E-009  0.1500007E+03  0.7561462E-02  0.1200472E+00
          2   -1    0    0  501    0  0.00000000000E+00  0.00000000000E+00  0.26918623899E+03  0.26918623899E+03  0.00000000000E+00 0.  1.
         -2   -1    0    0    0  501 -0.00000000000E+00 -0.00000000000E+00 -0.10073057198E+03  0.10073057198E+03  0.00000000000E+00 0. -1.
         25    2    1    2    0    0  0.95833914255E+02 -0.63813042735E+02  0.37825039375E+02  0.17416838668E+03  0.12509056628E+03 0.  0.
          5    1    3    3  502    0  0.12938615830E+02 -0.78628514765E+02  0.41168535214E+02  0.89789597423E+02  0.41800000000E+01 0. -1.
         -5    1    3    3    0  502  0.82895298424E+02  0.14815472030E+02 -0.33434958397E+01  0.84378789258E+02  0.41800000000E+01 0. -1.
        -11    1    1    2    0    0 -0.12996426253E+02  0.50311120145E+02  0.86538967134E+02  0.10094111520E+03  0.00000000000E+00 0.  1.
         11    1    1    2    0    0 -0.82837488002E+02  0.13501922590E+02  0.44091660503E+02  0.94807309096E+02  0.00000000000E+00 0. -1.
</event>
<event>
 7    1  0.2841804E-009  0.1064046E+03  0.7561462E-02  0.1267377E+00
         -2   -1    0    0    0  501 -0.00000000000E+00  0.00000000000E+00  0.24385526405E+02  0.24385526405E+02  0.00000000000E+00 0.  1.
          2   -1    0    0  501    0  0.00000000000E+00 -0.00000000000E+00 -0.78160292393E+03  0.78160292393E+03  0.00000000000E+00 0. -1.
         25    2    1    2    0    0 -0.71387286303E+01 -0.46965304783E+02 -0.64266893597E+03  0.65645036942E+03  0.12508806876E+03 0.  0.
          5    1    3    3  502    0  0.18402890883E+02 -0.76319464875E+02 -0.25584205490E+03  0.26764894277E+03  0.41800000000E+01 0. -1.
         -5    1    3    3    0  502 -0.25541619513E+02  0.29354160092E+02 -0.38682688108E+03  0.38880142665E+03  0.41800000000E+01 0. -1.
        -11    1    1    2    0    0  0.31790890691E+01 -0.23885018683E+02 -0.39374264051E+02  0.46162034123E+02  0.00000000000E+00 0.  1.
         11    1    1    2    0    0  0.39596395611E+01  0.70850323466E+02 -0.75174197500E+02  0.10337604679E+03  0.00000000000E+00 0. -1.
</event>
<event>
 7    1  0.2841804E-009  0.1671750E+03  0.7561462E-02  0.1180826E+00
         -2   -1    0    0    0  501 -0.00000000000E+00  0.00000000000E+00  0.28668595495E+02  0.28668595495E+02  0.00000000000E+00 0. -1.
          2   -1    0    0  501    0  0.00000000000E+00 -0.00000000000E+00 -0.11069411803E+04  0.11069411803E+04  0.00000000000E+00 0.  1.
         25    2    1    2    0    0  0.13883459058E+03 -0.13450372420E+02 -0.58789979863E+03  0.61703306791E+03  0.12509067748E+03 0.  0.
          5    1    3    3  502    0  0.46328018247E+02 -0.51151499865E+02 -0.11930720547E+03  0.13789286744E+03  0.41800000000E+01 0.  1.
         -5    1    3    3    0  502  0.92506572338E+02  0.37701127444E+02 -0.46859259316E+03  0.47914020047E+03  0.41800000000E+01 0.  1.
        -11    1    1    2    0    0 -0.12780231358E+03 -0.20585813255E+02 -0.42199687594E+03  0.44140522240E+03  0.00000000000E+00 0. -1.
         11    1    1    2    0    0 -0.11032277002E+02  0.34036185675E+02 -0.68375910191E+02  0.77171485444E+02  0.00000000000E+00 0.  1.
</event>
<event>
 6    1  0.2841804E-009  0.1336878E+03  0.7561462E-02  0.1222084E+00
          2   -1    0    0  501    0  0.00000000000E+00  0.00000000000E+00  0.35497548116E+03  0.35497548116E+03  0.00000000000E+00 0. -1.
         -2   -1    0    0    0  501 -0.00000000000E+00 -0.00000000000E+00 -0.61799465607E+02  0.61799465607E+02  0.00000000000E+00 0.  1.
          5    1    1    2  502    0  0.13865121241E+02  0.74559127575E+02  0.17067402176E+03  0.18681113242E+03  0.41800000000E+01 0.  1.
         -5    1    1    2    0  502 -0.59948337427E+02  0.10071958440E+02  0.28402151563E+02  0.67226498648E+02  0.41800000000E+01 0.  1.
        -11    1    1    2    0    0  0.30744122613E+02  0.11738035648E+02  0.37644433974E+02  0.50000859646E+02  0.00000000000E+00 0.  1.
         11    1    1    2    0    0  0.15339093573E+02 -0.96369121664E+02  0.56455408253E+02  0.11273645605E+03  0.00000000000E+00 0. -1.
</event>
<event>
 7    1  0.2841804E-009  0.1324429E+03  0.7561462E-02  0.1223875E+00
         -3   -1    0    0    0  501 -0.00000000000E+00  0.00000000000E+00  0.63790889103E+03  0.63790889103E+03  0.00000000000E+00 0.  1.
          3   -1    0    0  501    0  0.00000000000E+00 -0.00000000000E+00 -0.36608794883E+02  0.36608794883E+02  0.00000000000E+00 0. -1.
         25    2    1    2    0    0 -0.31768265266E+02 -0.10136824545E+03  0.33972581111E+03  0.37728963205E+03  0.12509634629E+03 0.  0.
          5    1    3    3  502    0 -0.53803949137E+02 -0.55994584891E+02  0.30774360726E+03  0.31741748327E+03  0.41800000000E+01 0. -1.
         -5    1    3    3    0  502  0.22035683871E+02 -0.45373660555E+02  0.31982203851E+02  0.59872148775E+02  0.41800000000E+01 0. -1.
        -11    1    1    2    0    0 -0.82732851460E+01  0.95707594285E+02  0.14587583098E+03  0.17466582069E+03  0.00000000000E+00 0. -1.
         11    1    1    2    0    0  0.40041550412E+02  0.56606511613E+01  0.11569845406E+03  0.12256223318E+03  0.00000000000E+00 0.  1.
</event>
<event>
 7    1  0.2841804E-009  0.1151566E+03  0.7561462E-02  0.1251308E+00
         -2   -1    0    0    0  501 -0.00000000000E+00  0.00000000000E+00  0.38855201655E+02  0.38855201655E+02  0.00000000000E+00 0.  1.
          2   -1    0    0  501    0  0.00000000000E+00 -0.00000000000E+00 -0.73400546828E+03  0.73400546828E+03  0.00000000000E+00 0. -1.
         25    2    1    2    0    0 -0.15115931254E+02 -0.80119907772E+02 -0.59826978554E+03  0.61662147791E+03  0.12509044616E+03 0.  0.
          5    1    3    3  502    0  0.33054995256E+02 -0.92959018803E+02 -0.42113138789E+03  0.43255419332E+03  0.41800000000E+01 0. -1.
         -5    1    3    3    0  502 -0.48170926510E+02  0.12839111031E+02 -0.17713839765E+03  0.18406728459E+03  0.41800000000E+01 0. -1.
        -11    1    1    2    0    0  0.12669865192E+02  0.68440555744E+02 -0.11507098677E+03  0.13448407769E+03  0.00000000000E+00 0. -1.
         11    1    1    2    0    0  0.24460660625E+01  0.11679352028E+02  0.18190505689E+02  0.21755114345E+02  0.00000000000E+00 0.  1.
</event>
<event>
 7    1  0.2841804E-009  0.1108653E+03  0.7561462E-02  0.1258976E+00
         -2   -1    0    0    0  501 -0.00000000000E+00  0.00000000000E+00  0.81931838725E+02  0.81931838725E+02  0.00000000000E+00 0.  1.
          2   -1    0    0  501    0  0.00000000000E+00 -0.00000000000E+00 -0.23067208404E+03  0.23067208404E+03  0.00000000000E+00 0. -1.
         25    2    1    2    0    0 -0.41381204333E+02 -0.62397713472E+02 -0.12662655145E+03  0.19309017484E+03  0.12507459122E+03 0.  0.
          5    1    3    3  502    0 -0.15977004941E+02 -0.74715869262E+02 -0.14153099848E+03  0.16089195672E+03  0.41800000000E+01 0.  1.
         -5    1    3    3    0  502 -0.25404199393E+02  0.12318155791E+02  0.14904447028E+02  0.32198218119E+02  0.41800000000E+01 0.  1.
        -11    1    1    2    0    0 -0.23069637812E+02  0.43941260896E+02 -0.16226288180E+02  0.52214318208E+02  0.00000000000E+00 0.  1.
         11    1    1    2    0    0  0.64450842145E+02  0.18456452576E+02 -0.58874056857E+01  0.67299429720E+02  0.00000000000E+00 0. -1.
</event>
<event>
 7    1  0.2841804E-009  0.1017315E+03  0.7561462E-02  0.1276696E+00
          3   -1    0    0  501    0  0.00000000000E+00  0.00000000000E+00  0.57028744756E+03  0.57028744756E+03  0.00000000000E+00 0. -1.
         -3   -1    0    0    0  501 -0.00000000000E+00 -0.00000000000E+00 -0.20550908348E+02  0.20550908348E+02  0.00000000000E+00 0.  1.
         25    2    1    2    0    0  0.10103000297E+02 -0.11067867653E+01  0.33061127001E+03  0.35363066532E+03  0.12509012752E+03 0.  0.
          5    1    3    3  502    0 -0.36326076503E+02 -0.44055427622E+02  0.20622938314E+03  0.21402919288E+03  0.41800000000E+01 0. -1.
         -5    1    3    3    0  502  0.46429076800E+02  0.42948640856E+02  0.12438188688E+03  0.13960147244E+03  0.41800000000E+01 0. -1.
        -11    1    1    2    0    0  0.35885971517E+02 -0.56949250613E+01  0.49992140165E+02  0.61801692545E+02  0.00000000000E+00 0.  1.
         11    1    1    2    0    0 -0.45988971814E+02  0.68017118266E+01  0.16913312904E+03  0.17540599804E+03  0.00000000000E+00 0. -1.
</event>
<event>
 7    1  0.2841804E-009  0.1703913E+03  0.7561462E-02  0.1177440E+00
         -2   -1    0    0    0  501 -0.00000000000E+00  0.00000000000E+00  0.42490718174E+02  0.42490718174E+02  0.00000000000E+00 0. -1.
          2   -1    0    0  501    0  0.00000000000E+00 -0.00000000000E+00 -0.74273219410E+03  0.74273219410E+03  0.00000000000E+00 0.  1.
         25    2    1    2    0    0  0.62765087214E+02  0.11868153068E+03 -0.46466588562E+03  0.49958623979E+03  0.12508902364E+03 0.  0.
          5    1    3    3  502    0  0.73662055189E+01 -0.26487572569E+02 -0.80402619982E+02  0.85075884858E+02  0.41800000000E+01 0. -1.
         -5    1    3    3    0  502  0.55398881695E+02  0.14516910325E+03 -0.38426326563E+03  0.41451035493E+03  0.41800000000E+01 0. -1.
        -11    1    1    2    0    0 -0.43644950609E+02 -0.12873699064E+03 -0.17679830007E+03  0.22301509675E+03  0.00000000000E+00 0. -1.
         11    1    1    2    0    0 -0.19120136605E+02  0.10055459955E+02 -0.58777290246E+02  0.62621575733E+02  0.00000000000E+00 0.  1.
</event>
<event>
 7    1  0.2841804E-009  0.1377610E+03  0.7561462E-02  0.1216374E+00
          1   -1    0    0  501    0  0.00000000000E+00  0.00000000000E+00  0.21371948211E+03  0.21371948211E+03  0.00000000000E+00 0. -1.
         -1   -1    0    0    0  501 -0.00000000000E+00 -0.00000000000E+00 -0.13849976953E+03  0.13849976953E+03  0.00000000000E+00 0.  1.
         25    2    1    2    0    0  0.53146069937E+02 -0.80246004967E+02 -0.54556057209E+02  0.16699686096E+03  0.12509061568E+03 0.  0.
          5    1    3    3  502    0 -0.22421843341E+02 -0.77930501668E+02 -0.19244318941E+02  0.83448896700E+02  0.41800000000E+01 0.  1.
         -5    1    3    3    0  502  0.75567913278E+02 -0.23155032991E+01 -0.35311738268E+02  0.83547964262E+02  0.41800000000E+01 0.  1.
        -11    1    1    2    0    0  0.17080442763E+02  0.14521986401E+02 -0.15132121937E+01  0.22470412216E+02  0.00000000000E+00 0.  1.
         11    1    1    2    0    0 -0.70226512700E+02  0.65724018566E+02  0.13128898198E+03  0.16275197846E+03  0.00000000000E+00 0. -1.
</event>
<event>
 7    1  0.2841804E-009  0.1202979E+03  0.7561462E-02  0.1242606E+00
         -1   -1    0    0    0  501 -0.00000000000E+00  0.00000000000E+00  0.95567415591E+02  0.95567415591E+02  0.00000000000E+00 0.  1.
          1   -1    0    0  501    0  0.00000000000E+00 -0.00000000000E+00 -0.15676674819E+03  0.15676674819E+03  0.00000000000E+00 0. -1.
         25    2    1    2    0    0 -0.29714820790E+02  0.50091272740E+02 -0.35493988551E+02  0.14246728317E+03  0.12507996391E+03 0.  0.
          5    1    3    3  502    0 -0.13685596513E+02 -0.41619049879E+02 -0.18478675165E+02  0.47732323436E+02  0.41800000000E+01 0. -1.
         -5    1    3    3    0  502 -0.16029224277E+02  0.91710322618E+02 -0.17015313385E+02  0.94734959731E+02  0.41800000000E+01 0. -1.
        -11    1    1    2    0    0  0.58768012706E+02 -0.21356721475E+02 -0.18608885863E+01  0.62555989129E+02  0.00000000000E+00 0.  1.
         11    1    1    2    0    0 -0.29053191916E+02 -0.28734551265E+02 -0.23844455463E+02  0.47310891486E+02  0.00000000000E+00 0. -1.
</event>
<event>
 7    1  0.2841804E-009  0.1494422E+03  0.7561462E-02  0.1201160E+00
          2   -1    0    0  501    0  0.00000000000E+00  0.00000000000E+00  0.11099807003E+04  0.11099807003E+04  0.00000000000E+00 0. -1.
         -2   -1    0    0    0  501 -0.00000000000E+00 -0.00000000000E+00 -0.23140122974E+02  0.23140122974E+02  0.00000000000E+00 0.  1.
         25    2    1    2    0    0 -0.53162929236E+02  0.10207893459E+03  0.67333735752E+03  0.69446084315E+03  0.12508500989E+03 0.  0.
          5    1    3    3  502    0 -0.81261107296E+02  0.10844742484E+03  0.47399973189E+03  0.49300854937E+03  0.41800000000E+01 0.  1.
         -5    1    3    3    0  502  0.28098178060E+02 -0.63684902516E+01  0.19933762563E+03  0.20145229378E+03  0.41800000000E+01 0.  1.
        -11    1    1    2    0    0  0.24877371043E+01 -0.78084495085E+02  0.14856585276E+03  0.16785466873E+03  0.00000000000E+00 0.  1.
         11    1    1    2    0    0  0.50675192132E+02 -0.23994439501E+02  0.26493736709E+03  0.27080531145E+03  0.00000000000E+00 0. -1.
</event>
<event>
 7    1  0.2841804E-009  0.1146455E+03  0.7561462E-02  0.1252201E+00
          2   -1    0    0  501    0  0.00000000000E+00  0.00000000000E+00  0.24708285875E+03  0.24708285875E+03  0.00000000000E+00 0. -1.
         -2   -1    0    0    0  501 -0.00000000000E+00 -0.00000000000E+00 -0.70406233138E+02  0.70406233138E+02  0.00000000000E+00 0.  1.
         25    2    1    2    0    0  0.57661360619E+02 -0.36924107703E+02  0.51749804770E+02  0.15170830238E+03  0.12509654063E+03 0.  0.
          5    1    3    3  502    0  0.46393607818E+02 -0.74471181105E+02  0.15171467894E+01  0.87852705114E+02  0.41800000000E+01 0. -1.
         -5    1    3    3    0  502  0.11267752801E+02  0.37547073402E+02  0.50232657981E+02  0.63855597264E+02  0.41800000000E+01 0. -1.
        -11    1    1    2    0    0  0.17181004810E+02 -0.26220746169E+01  0.34479452971E+01  0.17718649168E+02  0.00000000000E+00 0.  1.
         11    1    1    2    0    0 -0.74842365429E+02  0.39546182320E+02  0.12147887555E+03  0.14806214034E+03  0.00000000000E+00 0. -1.
</event>
<event>
 7    1  0.2841804E-009  0.1333321E+03  0.7561462E-02  0.1222594E+00
          1   -1    0    0  501    0  0.00000000000E+00  0.00000000000E+00  0.13253689974E+03  0.13253689974E+03  0.00000000000E+00 0. -1.
         -1   -1    0    0    0  501 -0.00000000000E+00 -0.00000000000E+00 -0.21093659630E+03  0.21093659630E+03  0.00000000000E+00 0.  1.
         25    2    1    2    0    0 -0.95173971366E+02  0.27815130101E+02  0.38946598129E+02  0.16430471899E+03  0.12508971536E+03 0.  0.
          5    1    3    3  502    0 -0.77054922843E+02  0.62370875097E+02 -0.12057129435E+02  0.99952158380E+02  0.41800000000E+01 0.  1.
         -5    1    3    3    0  502 -0.18119048523E+02 -0.34555744996E+02  0.51003727564E+02  0.64352560609E+02  0.41800000000E+01 0.  1.
        -11    1    1    2    0    0  0.10974179665E+03 -0.29219855966E+02 -0.11893629169E+03  0.16444726631E+03  0.00000000000E+00 0.  1.
         11    1    1    2    0    0 -0.14567825286E+02  0.14047258646E+01  0.15899970017E+01  0.14721510751E+02  0.00000000000E+00 0. -1.
</event>
<event>
 7    1  0.3946018E-009  0.1206334E+03  0.7561462E-02  0.1242056E+00
         -2   -1    0    0    0  501 -0.00000000000E+00  0.00000000000E+00  0.49330591159E+02  0.49330591159E+02  0.00000000000E+00 0.  1.
          2   -1    0    0  501    0  0.00000000000E+00 -0.00000000000E+00 -0.48333642467E+03  0.48333642467E+03  0.00000000000E+00 0. -1.
         25    2    1    2    0    0  0.12562960059E+02 -0.10735966136E+03 -0.26164132180E+03  0.30949470322E+03  0.12508743019E+03 0.  0.
          5    1    3    3  502    0  0.22100391285E+02  0.24301412039E+01  0.29742784767E+01  0.22817791604E+02  0.41800000000E+01 0.  1.
         -5    1    3    3    0  502 -0.95374312256E+01 -0.10978980256E+03 -0.26461560028E+03  0.28667691162E+03  0.41800000000E+01 0.  1.
        -11    1    1    2    0    0 -0.56782991789E+01  0.77943394339E+02 -0.17616660286E+03  0.19272282627E+03  0.00000000000E+00 0. -1.
         11    1    1    2    0    0 -0.68846608805E+01  0.29416267022E+02  0.38020911570E+01  0.30449486336E+02  0.00000000000E+00 0.  1.
</event>
<event>
 7    1  0.2841804E-009  0.9905340E+02  0.7561462E-02  0.1282299E+00
          2   -1    0    0  501    0  0.00000000000E+00  0.00000000000E+00  0.27302893598E+03  0.27302893598E+03  0.00000000000E+00 0. -1.
         -2   -1    0    0    0  501 -0.00000000000E+00 -0.00000000000E+00 -0.56053970355E+02  0.56053970355E+02  0.00000000000E+00 0.  1.
         25    2    1    2    0    0 -0.42673606591E+02 -0.32401560778E+02  0.14861672765E+03  0.20150784958E+03  0.12509030285E+03 0.  0.
          5    1    3    3  502    0 -0.38823513264E+02  0.44220493850E+02  0.70721142558E+02  0.92095980711E+02  0.41800000000E+01 0. -1.
         -5    1    3    3    0  502 -0.38500933275E+01 -0.76622054627E+02  0.77895585088E+02  0.10941186887E+03  0.41800000000E+01 0. -1.
        -11    1    1    2    0    0  0.91778696390E+01  0.26790151432E+02  0.85115965448E+02  0.89703250102E+02  0.00000000000E+00 0. -1.
         11    1    1    2    0    0  0.33495736952E+02  0.56114093461E+01 -0.16757727470E+02  0.37871806648E+02  0.00000000000E+00 0.  1.
</event>
<event>
 7    1  0.2841804E-009  0.1071876E+03  0.7561462E-02  0.1265868E+00
         -2   -1    0    0    0  501 -0.00000000000E+00  0.00000000000E+00  0.71364042702E+02  0.71364042702E+02  0.00000000000E+00 0.  1.
          2   -1    0    0  501    0  0.00000000000E+00 -0.00000000000E+00 -0.20573556070E+03  0.20573556070E+03  0.00000000000E+00 0. -1.
         25    2    1    2    0    0 -0.17754274298E+02  0.52438936414E+02 -0.77159371310E+02  0.15705559519E+03  0.12509130702E+03 0.  0.
          5    1    3    3  502    0  0.45323802021E+01 -0.32950551578E+02  0.78724954150E+01  0.34434429045E+02  0.41800000000E+01 0. -1.
         -5    1    3    3    0  502 -0.22286654500E+02  0.85389487992E+02 -0.85031866725E+02  0.12262116615E+03  0.41800000000E+01 0. -1.
        -11    1    1    2    0    0  0.33391367341E+02  0.42840087532E+01 -0.50681746135E+02  0.60843861935E+02  0.00000000000E+00 0.  1.
         11    1    1    2    0    0 -0.15637093043E+02 -0.56722945167E+02 -0.65304005483E+01  0.59200146271E+02  0.00000000000E+00 0. -1.
</event>
<event>
 7    1  0.2841804E-009  0.1392932E+03  0.7561462E-02  0.1214283E+00
          1   -1    0    0  501    0  0.00000000000E+00  0.00000000000E+00  0.19123798186E+03  0.19123798186E+03  0.00000000000E+00 0. -1.
         -1   -1    0    0    0  501 -0.00000000000E+00 -0.00000000000E+00 -0.17108374464E+03  0.17108374464E+03  0.00000000000E+00 0.  1.
         25    2    1    2    0    0  0.17521039282E+02  0.12835993612E+03 -0.53124389279E+02  0.18775441927E+03  0.12508501590E+03 0.  0.
          5    1    3    3  502    0  0.89351680155E+01  0.12975574551E+02  0.37393193120E+02  0.40791249725E+02  0.41800000000E+01 0.  1.
         -5    1    3    3    0  502  0.85858712668E+01  0.11538436157E+03 -0.90517582400E+02  0.14696316955E+03  0.41800000000E+01 0.  1.
        -11    1    1    2    0    0  0.23252400239E+02 -0.79705099557E+02  0.78394445644E+01  0.83396845884E+02  0.00000000000E+00 0.  1.
         11    1    1    2    0    0 -0.40773439521E+02 -0.48654836561E+02  0.65439181935E+02  0.91170461353E+02  0.00000000000E+00 0. -1.
</event>
<event>
 7    1  0.2841804E-009  0.1248631E+03  0.7561462E-02  0.1235283E+00
          1   -1    0    0  501    0  0.00000000000E+00  0.00000000000E+00  0.80400533549E+03  0.80400533549E+03  0.00000000000E+00 0. -1.
         -1   -1    0    0    0  501 -0.00000000000E+00 -0.00000000000E+00 -0.21758547487E+02  0.21758547487E+02  0.00000000000E+00 0.  1.
         25    2    1    2    0    0 -0.12058042225E+02  0.63462109417E+02  0.31130312446E+03  0.34165884064E+03  0.12509313482E+03 0.  0.
          5    1    3    3  502    0 -0.67723490886E+02  0.23710916786E+02  0.14676542654E+03  0.16342044432E+03  0.41800000000E+01 0. -1.
         -5    1    3    3    0  502  0.55665448661E+02  0.39751192631E+02  0.16453769791E+03  0.17823839633E+03  0.41800000000E+01 0. -1.
        -11    1    1    2    0    0  0.17149217813E+02  0.19634048846E+02  0.72174052699E+02  0.76737770548E+02  0.00000000000E+00 0.  1.
         11    1    1    2    0    0 -0.50911755882E+01 -0.83096158263E+02  0.39876961085E+03  0.40736727178E+03  0.00000000000E+00 0. -1.
</event>
<event>
 7    1  0.2841804E-009  0.1148992E+03  0.7561462E-02  0.1251757E+00
         -2   -1    0    0    0  501 -0.00000000000E+00  0.00000000000E+00  0.24860672685E+02  0.24860672685E+02  0.00000000000E+00 0.  1.
          2   -1    0    0  501    0  0.00000000000E+00 -0.00000000000E+00 -0.68404691540E+03  0.68404691540E+03  0.00000000000E+00 0. -1.
         25    2    1    2    0    0  0.31473536028E+02 -0.35481771997E+02 -0.51299462496E+03  0.53015123527E+03  0.12508919778E+03 0.  0.
          5    1    3    3  502    0 -0.45653293480E+02  0.18858053734E+01 -0.22571864816E+03  0.23033488662E+03  0.41800000000E+01 0. -1.
         -5    1    3    3    0  502  0.77126829508E+02 -0.37367577371E+02 -0.28727597680E+03  0.29981634865E+03  0.41800000000E+01 0. -1.
        -11    1    1    2    0    0  0.26682987886E+02 -0.51386210182E+01 -0.19123305258E+02  0.33227820761E+02  0.00000000000E+00 0. -1.
         11    1    1    2    0    0 -0.58156523915E+02  0.40620393016E+02 -0.12706831250E+03  0.14552853206E+03  0.00000000000E+00 0.  1.
</event>
<event>
 7    1  0.2841804E-009  0.6580665E+02  0.7561462E-02  0.1374963E+00
         -2   -1    0    0    0  501 -0.00000000000E+00  0.00000000000E+00  0.35671646422E+02  0.35671646422E+02  0.00000000000E+00 0. -1.
          2   -1    0    0  501    0  0.00000000000E+00 -0.00000000000E+00 -0.47997390057E+03  0.47997390057E+03  0.00000000000E+00 0.  1.
         25    2    1    2    0    0  0.35664685747E+00 -0.38769193959E+02 -0.32904798932E+03  0.35415142653E+03  0.12508987183E+03 0.  0.
          5    1    3    3  502    0  0.13592762319E+02 -0.51831740033E+01 -0.31472613437E+03  0.31508989278E+03  0.41800000000E+01 0. -1.
         -5    1    3    3    0  502 -0.13236115461E+02 -0.33586019955E+02 -0.14321854955E+02  0.39061533742E+02  0.41800000000E+01 0. -1.
        -11    1    1    2    0    0  0.28959362094E+02  0.41595934298E+02 -0.93095847203E+01  0.51531881109E+02  0.00000000000E+00 0. -1.
         11    1    1    2    0    0 -0.29316008952E+02 -0.28267403392E+01 -0.10594468010E+03  0.10996223935E+03  0.00000000000E+00 0.  1.
</event>
<event>
 7    1  0.2841804E-009  0.7850972E+02  0.7561462E-02  0.1333335E+00
         -2   -1    0    0    0  501 -0.00000000000E+00  0.00000000000E+00  0.36168406371E+02  0.36168406371E+02  0.00000000000E+00 0.  1.
          2   -1    0    0  501    0  0.00000000000E+00 -0.00000000000E+00 -0.32483357595E+03  0.32483357595E+03  0.00000000000E+00 0. -1.
         25    2    1    2    0    0  0.42656832882E+01 -0.13150582706E+02 -0.18475372524E+03  0.22354480093E+03  0.12508878907E+03 0.  0.
          5    1    3    3  502    0 -0.42981102223E+02 -0.22996132329E+01 -0.16576668649E+03  0.17131471075E+03  0.41800000000E+01 0.  1.
         -5    1    3    3    0  502  0.47246785511E+02 -0.10850969473E+02 -0.18987038755E+02  0.52230090181E+02  0.41800000000E+01 0.  1.
        -11    1    1    2    0    0  0.16197803473E+02  0.32904492802E+02 -0.81618493815E+01  0.37572466904E+02  0.00000000000E+00 0.  1.
         11    1    1    2    0    0 -0.20463486761E+02 -0.19753910097E+02 -0.95749594957E+02  0.99884714491E+02  0.00000000000E+00 0. -1.
</event>
<event>
 7    1  0.2841804E-009  0.1415686E+03  0.7561462E-02  0.1211234E+00
          1   -1    0    0  501    0  0.00000000000E+00  0.00000000000E+00  0.30369196624E+03  0.30369196624E+03  0.00000000000E+00 0. -1.
         -1   -1    0    0    0  501 -0.00000000000E+00 -0.00000000000E+00 -0.86357624165E+02  0.86357624165E+02  0.00000000000E+00 0.  1.
         25    2    1    2    0    0 -0.37128099887E+02  0.11020363814E+03  0.14986432774E+03  0.22722058786E+03  0.12508613496E+03 0.  0.
          5    1    3    3  502    0  0.33918187658E+02 -0.43295603053E-01  0.10388724659E+02  0.35718949152E+02  0.41800000000E+01 0. -1.
         -5    1    3    3    0  502 -0.71046287544E+02  0.11024693374E+03  0.13947560308E+03  0.19150163871E+03  0.41800000000E+01 0. -1.
        -11    1    1    2    0    0  0.86774924343E+01 -0.54544898233E+02  0.81798899399E+02  0.98699061501E+02  0.00000000000E+00 0. -1.
         11    1    1    2    0    0  0.28450607453E+02 -0.55658739902E+02 -0.14328885060E+02  0.64129941049E+02  0.00000000000E+00 0.  1.
</event>
<event>
 6    1  0.2841804E-009  0.9933662E+02  0.7561462E-02  0.1281697E+00
          1   -1    0    0  501    0  0.00000000000E+00  0.00000000000E+00  0.72832600266E+02  0.72832600266E+02  0.00000000000E+00 0. -1.
         -1   -1    0    0    0  501 -0.00000000000E+00 -0.00000000000E+00 -0.25602309461E+03  0.25602309461E+03  0.00000000000E+00 0.  1.
          5    1    1    2  502    0  0.30113831081E+02  0.25951679126E+01 -0.10092049498E+03  0.10543242587E+03  0.41800000000E+01 0.  1.
         -5    1    1    2    0  502 -0.26070092123E+02  0.80000036998E+02 -0.18215119660E+02  0.86191174764E+02  0.41800000000E+01 0.  1.
        -11    1    1    2    0    0 -0.88514965154E+01 -0.35962741614E+02  0.19176639457E+02  0.41706249841E+02  0.00000000000E+00 0. -1.
         11    1    1    2    0    0  0.48077575569E+01 -0.46632463297E+02 -0.83231519165E+02  0.95525844401E+02  0.00000000000E+00 0.  1.
</event>
<event>
 7    1  0.2841804E-009  0.1121727E+03  0.7561462E-02  0.1256598E+00
          1   -1    0    0  501    0  0.00000000000E+00  0.00000000000E+00  0.75626319828E+03  0.75626319828E+03  0.00000000000E+00 0. -1.
         -1   -1    0    0    0  501 -0.00000000000E+00 -0.00000000000E+00 -0.26996385241E+02  0.26996385241E+02  0.00000000000E+00 0.  1.
         25    2    1    2    0    0 -0.30347070386E+01 -0.49574243428E+02  0.51934928583E+03  0.53650501181E+03  0.12508849646E+03 0.  0.
          5    1    3    3  502    0 -0.46338467378E+02  0.10073751340E+02  0.32747951609E+03  0.33092150109E+03  0.41800000000E+01 0.  1.
         -5    1    3    3    0  502  0.43303760340E+02 -0.59647994768E+02  0.19186976974E+03  0.20558351072E+03  0.41800000000E+01 0.  1.
        -11    1    1    2    0    0 -0.43566751457E+02  0.22943590770E+02  0.27064744030E+02  0.56186925164E+02  0.00000000000E+00 0.  1.
         11    1    1    2    0    0  0.46601458496E+02  0.26630652658E+02  0.18285278318E+03  0.19056764655E+03  0.00000000000E+00 0. -1.
</event>
<event>
 7    1  0.2841804E-009  0.1064225E+03  0.7561462E-02  0.1267342E+00
         -4   -1    0    0    0  501 -0.00000000000E+00  0.00000000000E+00  0.28654161605E+03  0.28654161605E+03  0.00000000000E+00 0.  1.
          4   -1    0    0  501    0  0.00000000000E+00 -0.00000000000E+00 -0.59428421876E+02  0.59428421876E+02  0.00000000000E+00 0. -1.
         25    2    1    2    0    0 -0.35750900027E+02  0.63602410776E+02  0.12391633017E+03  0.19059022239E+03  0.12508390176E+03 0.  0.
          5    1    3    3  502    0 -0.45861166020E+02  0.70352152449E+02  0.14399594706E+03  0.16674824459E+03  0.41800000000E+01 0.  1.
         -5    1    3    3    0  502  0.10110265993E+02 -0.67497416723E+01 -0.20079616891E+02  0.23841977804E+02  0.41800000000E+01 0.  1.
        -11    1    1    2    0    0 -0.44634701758E+01 -0.74187629968E+02  0.61175069706E+02  0.96260667772E+02  0.00000000000E+00 0. -1.
         11    1    1    2    0    0  0.40214370203E+02  0.10585219192E+02  0.42021794296E+02  0.59119147761E+02  0.00000000000E+00 0.  1.
</event>
<event>
 7    1  0.2841804E-009  0.8708421E+02  0.7561462E-02  0.1310070E+00
         -2   -1    0    0    0  501 -0.00000000000E+00  0.00000000000E+00  0.25294790729E+02  0.25294790729E+02  0.00000000000E+00 0.  1.
          2   -1    0    0  501    0  0.00000000000E+00 -0.00000000000E+00 -0.93134330359E+03  0.93134330359E+03  0.00000000000E+00 0. -1.
         25    2    1    2    0    0  0.68497578370E+02 -0.48337378737E+02 -0.69795707438E+03  0.71401700039E+03  0.12509108180E+03 0.  0.
          5    1    3    3  502    0  0.84991529573E+01 -0.35007185247E+01  0.17943944911E+01  0.10255870649E+02  0.41800000000E+01 0.  1.
         -5    1    3    3    0  502  0.59998425413E+02 -0.44836660213E+02 -0.69975146887E+03  0.70376112974E+03  0.41800000000E+01 0.  1.
        -11    1    1    2    0    0 -0.36809917612E+02  0.43523178170E+02 -0.20213818078E+03  0.21002162079E+03  0.00000000000E+00 0. -1.
         11    1    1    2    0    0 -0.31687660759E+02  0.48142005677E+01 -0.59532577072E+01  0.32599473137E+02  0.00000000000E+00 0.  1.
</event>
<event>
 7    1  0.3066582E-009  0.2023231E+03  0.7561462E-02  0.1147794E+00
          2   -1    0    0  501    0  0.00000000000E+00  0.00000000000E+00  0.28830034317E+03  0.28830034317E+03  0.00000000000E+00 0. -1.
         -2   -1    0    0    0  501 -0.00000000000E+00 -0.00000000000E+00 -0.17790332664E+03  0.17790332664E+03  0.00000000000E+00 0.  1.
         25    2    1    2    0    0  0.39269208709E+02 -0.18088208218E+03  0.13125575913E+03  0.25910576461E+03  0.12508926629E+03 0.  0.
          5    1    3    3  502    0  0.31555655268E+02 -0.18931745647E+03  0.82669151825E+02  0.20901798910E+03  0.41800000000E+01 0. -1.
         -5    1    3    3    0  502  0.77135534419E+01  0.84353742873E+01  0.48586607308E+02  0.50087775513E+02  0.41800000000E+01 0. -1.
        -11    1    1    2    0    0  0.15956347306E+02  0.10740394871E+03 -0.35031252186E+02  0.11409382914E+03  0.00000000000E+00 0.  1.
         11    1    1    2    0    0 -0.55225556016E+02  0.73478133472E+02  0.14172509575E+02  0.93004076058E+02  0.00000000000E+00 0. -1.
</event>
<event>
 7    1  0.2841804E-009  0.1279501E+03  0.7561462E-02  0.1230529E+00
         -2   -1    0    0    0  501 -0.00000000000E+00  0.00000000000E+00  0.10496830386E+03  0.10496830386E+03  0.00000000000E+00 0.  1.
          2   -1    0    0  501    0  0.00000000000E+00 -0.00000000000E+00 -0.17256213949E+03  0.17256213949E+03  0.00000000000E+00 0. -1.
         25    2    1    2    0    0  0.46461799648E+02 -0.67263696835E+02 -0.41008010960E+02  0.15495770784E+03  0.12508849075E+03 0.  0.
          5    1    3    3  502    0 -0.10494235875E+02 -0.81390816858E+02  0.18166364860E+01  0.82191037367E+02  0.41800000000E+01 0. -1.
         -5    1    3    3    0  502  0.56956035523E+02  0.14127120023E+02 -0.42824647446E+02  0.72766670472E+02  0.41800000000E+01 0. -1.
        -11    1    1    2    0    0 -0.48699714944E+02  0.11153432106E+01  0.54950161275E+01  0.49021438457E+02  0.00000000000E+00 0. -1.
         11    1    1    2    0    0  0.22379152964E+01  0.66148353624E+02 -0.32080840794E+02  0.73551297052E+02  0.00000000000E+00 0.  1.
</event>
<event>
 7    1  0.2841804E-009  0.1190871E+03  0.7561462E-02  0.1244611E+00
          1   -1    0    0  501    0  0.00000000000E+00  0.00000000000E+00  0.13895166381E+03  0.13895166381E+03  0.00000000000E+00 0. -1.
         -1   -1    0    0    0  501 -0.00000000000E+00 -0.00000000000E+00 -0.12035410424E+03  0.12035410424E+03  0.00000000000E+00 0.  1.
         25    2    1    2    0    0 -0.35164540385E+02 -0.62531866566E+02 -0.53485181516E+01  0.14430484844E+03  0.12509397828E+03 0.  0.
          5    1    3    3  502    0 -0.52694381505E+02  0.15197328315E+02  0.23015397471E+02  0.59622458444E+02  0.41800000000E+01 0. -1.
         -5    1    3    3    0  502  0.17529841121E+02 -0.77729194881E+02 -0.28363915622E+02  0.84682389999E+02  0.41800000000E+01 0. -1.
        -11    1    1    2    0    0  0.37732519903E+02 -0.29520407589E+01 -0.12693450929E+02  0.39919685612E+02  0.00000000000E+00 0.  1.
         11    1    1    2    0    0 -0.25679795177E+01  0.65483907325E+02  0.36639528653E+02  0.75081233989E+02  0.00000000000E+00 0. -1.
</event>
<event>
 7    1  0.2841804E-009  0.1903850E+03  0.7561462E-02  0.1158115E+00
          2   -1    0    0  501    0  0.00000000000E+00  0.00000000000E+00  0.98987505202E+03  0.98987505202E+03  0.00000000000E+00 0. -1.
         -2   -1    0    0    0  501 -0.00000000000E+00 -0.00000000000E+00 -0.70953591249E+02  0.70953591249E+02  0.00000000000E+00 0.  1.
         25    2    1    2    0    0 -0.17819062212E+03  0.25291939268E+02  0.14955938806E+03  0.26534694662E+03  0.12509760796E+03 0.  0.
          5    1    3    3  502    0 -0.85859941210E+02 -0.73412249131E+01 -0.30516632627E+00  0.86275075279E+02  0.41800000000E+01 0. -1.
         -5    1    3    3    0  502 -0.92330680912E+02  0.32633164181E+02  0.14986455439E+03  0.17907187134E+03  0.41800000000E+01 0. -1.
        -11    1    1    2    0    0  0.60801618491E+02 -0.47313632599E+02  0.21464853707E+03  0.22805571930E+03  0.00000000000E+00 0.  1.
         11    1    1    2    0    0  0.11738900363E+03  0.22021693331E+02  0.55471353564E+03  0.56742597735E+03  0.00000000000E+00 0. -1.
</event>
<event>
 7    1  0.2841804E-009  0.1275022E+03  0.7561462E-02  0.1231210E+00
          1   -1    0    0  501    0  0.00000000000E+00  0.00000000000E+00  0.27227264936E+03  0.27227264936E+03  0.00000000000E+00 0. -1.
         -1   -1    0    0    0  501 -0.00000000000E+00 -0.00000000000E+00 -0.77175763208E+02  0.77175763208E+02  0.00000000000E+00 0.  1.
         25    2    1    2    0    0  0.24233739498E+02 -0.90687429640E+02  0.11519716075E+03  0.19424050601E+03  0.12508998482E+03 0.  0.
          5    1    3    3  502    0 -0.38920093263E+02  0.37851832454E+01  0.13194610554E+02  0.41480976598E+02  0.41800000000E+01 0. -1.
         -5    1    3    3    0  502  0.63153832762E+02 -0.94472612886E+02  0.10200255020E+03  0.15275952941E+03  0.41800000000E+01 0. -1.
        -11    1    1    2    0    0 -0.50571276959E+01  0.79703861009E+02  0.98156751179E+02  0.12654259284E+03  0.00000000000E+00 0. -1.
         11    1    1    2    0    0 -0.19176611802E+02  0.10983568631E+02 -0.18257025785E+02  0.28665313719E+02  0.00000000000E+00 0.  1.
</event>
<event>
 7    1  0.2841804E-009  0.1847523E+03  0.7561462E-02  0.1163281E+00
          1   -1    0    0  501    0  0.00000000000E+00  0.00000000000E+00  0.62977598294E+03  0.62977598294E+03  0.00000000000E+00 0. -1.
         -1   -1    0    0    0  501 -0.00000000000E+00 -0.00000000000E+00 -0.57719550192E+02  0.57719550192E+02  0.00000000000E+00 0.  1.
         25    2    1    2    0    0  0.14886521354E+03 -0.44713437240E+02  0.27891356916E+03  0.34293453010E+03  0.12510463461E+03 0.  0.
          5    1    3    3  502    0 -0.64718141973E+01 -0.35766193704E+02  0.96133469193E+02  0.10286020265E+03  0.41800000000E+01 0.  1.
         -5    1    3    3    0  502  0.15533702774E+03 -0.89472435360E+01  0.18278009997E+03  0.24007432745E+03  0.41800000000E+01 0.  1.
        -11    1    1    2    0    0 -0.15257629035E+02 -0.22906553039E+02  0.75666867702E+02  0.80516956498E+02  0.00000000000E+00 0. -1.
         11    1    1    2    0    0 -0.13360758451E+03  0.67619990279E+02  0.21747599589E+03  0.26404404653E+03  0.00000000000E+00 0.  1.
</event>
<event>
 7    1  0.2841804E-009  0.1785959E+03  0.7561462E-02  0.1169169E+00
         -3   -1    0    0    0  501 -0.00000000000E+00  0.00000000000E+00  0.19677390615E+03  0.19677390615E+03  0.00000000000E+00 0.  1.
          3   -1    0    0  501    0  0.00000000000E+00 -0.00000000000E+00 -0.24781615661E+03  0.24781615661E+03  0.00000000000E+00 0. -1.
         25    2    1    2    0    0 -0.15328986314E+03 -0.32744182796E+02 -0.13846655205E+03  0.24369747705E+03  0.12508201563E+03 0.  0.
          5    1    3    3  502    0  0.20668620936E+02 -0.14257457784E+02 -0.20136697059E+02  0.32456524186E+02  0.41800000000E+01 0. -1.
         -5    1    3    3    0  502 -0.17395848408E+03 -0.18486725013E+02 -0.11832985500E+03  0.21124095287E+03  0.41800000000E+01 0. -1.
        -11    1    1    2    0    0  0.55549474831E+02  0.12144173328E+02 -0.13978769375E+02  0.58554513857E+02  0.00000000000E+00 0. -1.
         11    1    1    2    0    0  0.97740388311E+02  0.20600009469E+02  0.10140307097E+03  0.14233807185E+03  0.00000000000E+00 0.  1.
</event>
<event>
 7    1  0.2841804E-009  0.1115239E+03  0.7561462E-02  0.1257774E+00
          1   -1    0    0  501    0  0.00000000000E+00  0.00000000000E+00  0.16851809194E+03  0.16851809194E+03  0.00000000000E+00 0. -1.
         -1   -1    0    0    0  501 -0.00000000000E+00 -0.00000000000E+00 -0.14348499001E+03  0.14348499001E+03  0.00000000000E+00 0.  1.
         25    2    1    2    0    0  0.55261585630E+02 -0.40135649141E+02 -0.73612459436E+02  0.16041240927E+03  0.12509449902E+03 0.  0.
          5    1    3    3  502    0 -0.39691552610E+02 -0.24023404642E+01 -0.25277427092E+02  0.47303396376E+02  0.41800000000E+01 0.  1.
         -5    1    3    3    0  502  0.94953138240E+02 -0.37733308676E+02 -0.48335032343E+02  0.11310901289E+03  0.41800000000E+01 0.  1.
        -11    1    1    2    0    0 -0.48042112801E+02  0.49499084803E+02  0.11337025745E+03  0.13270651556E+03  0.00000000000E+00 0. -1.
         11    1    1    2    0    0 -0.72194728290E+01 -0.93634356626E+01 -0.14724696089E+02  0.18884157123E+02  0.00000000000E+00 0.  1.
</event>
<event>
 7    1  0.2841804E-009  0.1777463E+03  0.7561462E-02  0.1170002E+00
         -2   -1    0    0    0  501 -0.00000000000E+00  0.00000000000E+00  0.52311716531E+02  0.52311716531E+02  0.00000000000E+00 0.  1.
          2   -1    0    0  501    0  0.00000000000E+00 -0.00000000000E+00 -0.98887060789E+03  0.98887060789E+03  0.00000000000E+00 0. -1.
         25    2    1    2    0    0  0.13137294610E+03 -0.91858975488E+02 -0.21262206470E+03  0.29419733910E+03  0.12508800737E+03 0.  0.
          5    1    3    3  502    0  0.10102776579E+03 -0.34852896656E+02 -0.20206897126E+03  0.22862780979E+03  0.41800000000E+01 0. -1.
         -5    1    3    3    0  502  0.30345180310E+02 -0.57006078832E+02 -0.10553093449E+02  0.65569529304E+02  0.41800000000E+01 0. -1.
        -11    1    1    2    0    0 -0.39451973293E+02  0.82476800819E+02 -0.38135918068E+03  0.39216540587E+03  0.00000000000E+00 0.  1.
         11    1    1    2    0    0 -0.91920972811E+02  0.93821746690E+01 -0.34257764597E+03  0.35481957945E+03  0.00000000000E+00 0. -1.
</event>
<event>
 6    1  0.2841804E-009  0.1546640E+03  0.7561462E-02  0.1194856E+00
          2   -1    0    0  501    0  0.00000000000E+00  0.00000000000E+00  0.18390385232E+04  0.18390385232E+04  0.00000000000E+00 0. -1.
         -2   -1    0    0    0  501 -0.00000000000E+00 -0.00000000000E+00 -0.18936091255E+02  0.18936091255E+02  0.00000000000E+00 0.  1.
          5    1    1    2  502    0  0.13827040272E+03 -0.16231059259E+02  0.12935678250E+04  0.13010447117E+04  0.41800000000E+01 0.  1.
         -5    1    1    2    0  502 -0.10266564580E+02  0.72983158413E+01  0.99287303571E+01  0.16574674926E+02  0.41800000000E+01 0.  1.
        -11    1    1    2    0    0 -0.17129968312E+02 -0.33845407315E+02  0.94215651913E+02  0.10156542953E+03  0.00000000000E+00 0. -1.
         11    1    1    2    0    0 -0.11087386983E+03  0.42778150733E+02  0.42239022463E+03  0.43878979826E+03  0.00000000000E+00 0.  1.
</event>
<event>
 7    1  0.2841804E-009  0.9321217E+02  0.7561462E-02  0.1295254E+00
          2   -1    0    0  501    0  0.00000000000E+00  0.00000000000E+00  0.11620467600E+03  0.11620467600E+03  0.00000000000E+00 0. -1.
         -2   -1    0    0    0  501 -0.00000000000E+00 -0.00000000000E+00 -0.10320898485E+03  0.10320898485E+03  0.00000000000E+00 0.  1.
         25    2    1    2    0    0 -0.38197630211E+01  0.47308163689E+01 -0.16401487081E+02  0.12630453988E+03  0.12508739666E+03 0.  0.
          5    1    3    3  502    0  0.30686950941E+02 -0.48208586870E+02  0.91278321538E+01  0.58021948656E+02  0.41800000000E+01 0.  1.
         -5    1    3    3    0  502 -0.34506713962E+02  0.52939403238E+02 -0.25529319235E+02  0.68282591224E+02  0.41800000000E+01 0.  1.
        -11    1    1    2    0    0 -0.19517234957E+02 -0.27147386316E+02 -0.16234772232E+02  0.37168143263E+02  0.00000000000E+00 0.  1.
         11    1    1    2    0    0  0.23336997978E+02  0.22416569947E+02  0.45631950472E+02  0.55940977706E+02  0.00000000000E+00 0. -1.
</event>
<event>
 7    1  0.2841804E-009  0.1086726E+03  0.7561462E-02  0.1263048E+00
          1   -1    0    0  501    0  0.00000000000E+00  0.00000000000E+00  0.52429473608E+02  0.52429473608E+02  0.00000000000E+00 0. -1.
         -1   -1    0    0    0  501 -0.00000000000E+00 -0.00000000000E+00 -0.36970434407E+03  0.36970434407E+03  0.00000000000E+00 0.  1.
         25    2    1    2    0    0 -0.89146056011E+02 -0.11689258910E+02 -0.15083909971E+03  0.21560054649E+03  0.12508998189E+03 0.  0.
          5    1    3    3  502    0 -0.82887218726E+01  0.30619191465E+02  0.74410756660E+01  0.32849350120E+02  0.41800000000E+01 0.  1.
         -5    1    3    3    0  502 -0.80857334138E+02 -0.42308450375E+02 -0.15828017537E+03  0.18275119637E+03  0.41800000000E+01 0.  1.
        -11    1    1    2    0    0  0.41643678997E+02 -0.82949728216E+01 -0.12595316106E+02  0.44290456786E+02  0.00000000000E+00 0. -1.
         11    1    1    2    0    0  0.47502377014E+02  0.19984231732E+02 -0.15384045465E+03  0.16224281440E+03  0.00000000000E+00 0.  1.
</event>
<event>
 7    1  0.2841804E-009  0.1202073E+03  0.7561462E-02  0.1242755E+00
          1   -1    0    0  501    0  0.00000000000E+00  0.00000000000E+00  0.73543207524E+03  0.73543207524E+03  0.00000000000E+00 0. -1.
         -1   -1    0    0    0  501 -0.00000000000E+00 -0.00000000000E+00 -0.31536928501E+02  0.31536928501E+02  0.00000000000E+00 0.  1.
         25    2    1    2    0    0 -0.98638180984E+02 -0.32850586545E+02  0.48503677106E+03  0.51158641238E+03  0.12510530073E+03 0.  0.
          5    1    3    3  502    0 -0.11323246905E+03 -0.36126015913E+02  0.25881478885E+03  0.28483196521E+03  0.41800000000E+01 0. -1.
         -5    1    3    3    0  502  0.14594288069E+02  0.32754293686E+01  0.22622198220E+03  0.22675444717E+03  0.41800000000E+01 0. -1.
        -11    1    1    2    0    0  0.90439300558E+02  0.23348320541E+02  0.22331686869E+03  0.24206370029E+03  0.00000000000E+00 0. -1.
         11    1    1    2    0    0  0.81988804261E+01  0.95022660031E+01 -0.44584930065E+01  0.13318891070E+02  0.00000000000E+00 0.  1.
</event>
<event>
 7    1  0.2841804E-009  0.8665193E+02  0.7561462E-02  0.1311168E+00
          1   -1    0    0  501    0  0.00000000000E+00  0.00000000000E+00  0.45084229331E+03  0.45084229331E+03  0.00000000000E+00 0. -1.
         -1   -1    0    0    0  501 -0.00000000000E+00 -0.00000000000E+00 -0.32623762096E+02  0.32623762096E+02  0.00000000000E+00 0.  1.
         25    2    1    2    0    0  0.73079176791E+01 -0.44733733987E+02  0.29443191237E+03  0.32309838038E+03  0.12509156552E+03 0.  0.
          5    1    3    3  502    0 -0.35909032322E+02 -0.16600965285E+02  0.25490567504E+03  0.25799113593E+03  0.41800000000E+01 0. -1.
         -5    1    3    3    0  502  0.43216950001E+02 -0.28132768702E+02  0.39526237335E+02  0.65107244452E+02  0.41800000000E+01 0. -1.
        -11    1    1    2    0    0 -0.36799937850E+02  0.14507305374E+02  0.12732298969E+02  0.41554888666E+02  0.00000000000E+00 0.  1.
         11    1    1    2    0    0  0.29492020171E+02  0.30226428612E+02  0.11105431987E+03  0.11881278636E+03  0.00000000000E+00 0. -1.
</event>
<event>
 7    1  0.2841804E-009  0.8179391E+02  0.7561462E-02  0.1324036E+00
         -1   -1    0    0    0  501 -0.00000000000E+00  0.00000000000E+00  0.43212727208E+02  0.43212727208E+02  0.00000000000E+00 0.  1.
          1   -1    0    0  501    0  0.00000000000E+00 -0.00000000000E+00 -0.33879470661E+03  0.33879470661E+03  0.00000000000E+00 0. -1.
         25    2    1    2    0    0 -0.96471249734E+01  0.78619213095E+01 -0.24652101704E+03  0.27672276846E+03  0.12509197382E+03 0.  0.
          5    1    3    3  502    0 -0.50073195967E+02  0.46932509039E+02 -0.12216688882E+03  0.14018632773E+03  0.41800000000E+01 0.  1.
         -5    1    3    3    0  502  0.40426070994E+02 -0.39070587730E+02 -0.12435412822E+03  0.13653644073E+03  0.41800000000E+01 0.  1.
        -11    1    1    2    0    0 -0.83099166084E+01  0.10084869476E+02  0.24335159771E+02  0.27621718040E+02  0.00000000000E+00 0.  1.
         11    1    1    2    0    0  0.17957041582E+02 -0.17946790785E+02 -0.73396122135E+02  0.77662947320E+02  0.00000000000E+00 0. -1.
</event>
<event>
 7    1  0.2841804E-009  0.1012662E+03  0.7561462E-02  0.1277656E+00
          1   -1    0    0  501    0  0.00000000000E+00  0.00000000000E+00  0.16022563244E+03  0.16022563244E+03  0.00000000000E+00 0.  1.
         -1   -1    0    0    0  501 -0.00000000000E+00 -0.00000000000E+00 -0.11644754582E+03  0.11644754582E+03  0.00000000000E+00 0. -1.
         25    2    1    2    0    0  0.29361547976E+02 -0.76659480448E+02  0.24489429172E+02  0.15160753029E+03  0.12508530952E+03 0.  0.
          5    1    3    3  502    0  0.15346764590E+01 -0.36059752453E+01 -0.45944585326E+02  0.46300492547E+02  0.41800000000E+01 0.  1.
         -5    1    3    3    0  502  0.27826871517E+02 -0.73053505202E+02  0.70434014498E+02  0.10530703775E+03  0.41800000000E+01 0.  1.
        -11    1    1    2    0    0 -0.39991892284E+02 -0.11267446898E+01  0.23579289154E+02  0.46439249338E+02  0.00000000000E+00 0.  1.
         11    1    1    2    0    0  0.10630344308E+02  0.77786225137E+02 -0.42906317094E+01  0.78626398631E+02  0.00000000000E+00 0. -1.
</event>
<event>
 7    1  0.2841804E-009  0.1304165E+03  0.7561462E-02  0.1226839E+00
         -1   -1    0    0    0  501 -0.00000000000E+00  0.00000000000E+00  0.35881794991E+02  0.35881794991E+02  0.00000000000E+00 0.  1.
          1   -1    0    0  501    0  0.00000000000E+00 -0.00000000000E+00 -0.80289143483E+03  0.80289143483E+03  0.00000000000E+00 0. -1.
         25    2    1    2    0    0 -0.90235217280E+02  0.28859557170E+02 -0.69049297271E+03  0.70809837793E+03  0.12508996360E+03 0.  0.
          5    1    3    3  502    0 -0.99504448737E+00  0.60163711492E+02 -0.32470430151E+03  0.33025901670E+03  0.41800000000E+01 0.  1.
         -5    1    3    3    0  502 -0.89240172792E+02 -0.31304154321E+02 -0.36578867120E+03  0.37783936123E+03  0.41800000000E+01 0.  1.
        -11    1    1    2    0    0  0.43579784563E+02 -0.38570491306E+02 -0.44549557599E+02  0.73290814598E+02  0.00000000000E+00 0.  1.
         11    1    1    2    0    0  0.46655432717E+02  0.97109341361E+01 -0.31967109530E+02  0.57384037289E+02  0.00000000000E+00 0. -1.
</event>
<event>
 7    1  0.2841804E-009  0.1914957E+03  0.7561462E-02  0.1157119E+00
          2   -1    0    0  501    0  0.00000000000E+00  0.00000000000E+00  0.80001593671E+03  0.80001593671E+03  0.00000000000E+00 0. -1.
         -2   -1    0    0    0  501 -0.00000000000E+00 -0.00000000000E+00 -0.53114601170E+02  0.53114601170E+02  0.00000000000E+00 0.  1.
         25    2    1    2    0    0 -0.10335768773E+03 -0.13675288598E+03  0.31789859562E+03  0.38221794842E+03  0.12508748762E+03 0.  0.
          5    1    3    3  502    0 -0.22991670823E+02 -0.11080185661E+03  0.11038702487E+03  0.15814055778E+03  0.41800000000E+01 0. -1.
         -5    1    3    3    0  502 -0.80366016911E+02 -0.25951029364E+02  0.20751157075E+03  0.22407739064E+03  0.41800000000E+01 0. -1.
        -11    1    1    2    0    0  0.60884041503E+02  0.12812563843E+03  0.25718460692E+03  0.29371238954E+03  0.00000000000E+00 0.  1.
         11    1    1    2    0    0  0.42473646231E+02  0.86272475470E+01  0.17181813300E+03  0.17720019992E+03  0.00000000000E+00 0. -1.
</event>
<event>
 7    1  0.2841804E-009  0.1155364E+03  0.7561462E-02  0.1250648E+00
          2   -1    0    0  501    0  0.00000000000E+00  0.00000000000E+00  0.13404172281E+03  0.13404172281E+03  0.00000000000E+00 0. -1.
         -2   -1    0    0    0  501 -0.00000000000E+00 -0.00000000000E+00 -0.14265943338E+03  0.14265943338E+03  0.00000000000E+00 0.  1.
         25    2    1    2    0    0 -0.69002541857E+02 -0.53898235707E+02 -0.37603437513E+01  0.15273022249E+03  0.12508401209E+03 0.  0.
          5    1    3    3  502    0 -0.80060232405E+01  0.28644801424E+02  0.32071986884E+02  0.43939797444E+02  0.41800000000E+01 0.  1.
         -5    1    3    3    0  502 -0.60996518617E+02 -0.82543037131E+02 -0.35832330635E+02  0.10879042504E+03  0.41800000000E+01 0.  1.
        -11    1    1    2    0    0  0.47803625122E+02  0.89676084821E+01 -0.40118866878E+02  0.63048616609E+02  0.00000000000E+00 0.  1.
         11    1    1    2    0    0  0.21198916735E+02  0.44930627225E+02  0.35261500064E+02  0.60922317096E+02  0.00000000000E+00 0. -1.
</event>
<event>
 7    1  0.2841804E-009  0.9747356E+02  0.7561462E-02  0.1285700E+00
          3   -1    0    0  501    0  0.00000000000E+00  0.00000000000E+00  0.60031071279E+02  0.60031071279E+02  0.00000000000E+00 0. -1.
         -3   -1    0    0    0  501 -0.00000000000E+00 -0.00000000000E+00 -0.27905529892E+03  0.27905529892E+03  0.00000000000E+00 0.  1.
         25    2    1    2    0    0 -0.48070591216E+02 -0.53475549707E+02 -0.10768585198E+03  0.18003438876E+03  0.12508286159E+03 0.  0.
          5    1    3    3  502    0  0.15418764709E+02  0.10060018181E+02  0.17607305496E+02  0.25815341907E+02  0.41800000000E+01 0.  1.
         -5    1    3    3    0  502 -0.63489355925E+02 -0.63535567888E+02 -0.12529315747E+03  0.15421904685E+03  0.41800000000E+01 0.  1.
        -11    1    1    2    0    0  0.61001110222E+01  0.42273109482E+02 -0.35722511952E+01  0.42860099375E+02  0.00000000000E+00 0. -1.
         11    1    1    2    0    0  0.41970480194E+02  0.11202440225E+02 -0.10776612446E+03  0.11619188206E+03  0.00000000000E+00 0.  1.
</event>
<event>
 7    1  0.2841804E-009  0.7069005E+02  0.7561462E-02  0.1357762E+00
          1   -1    0    0  501    0  0.00000000000E+00  0.00000000000E+00  0.11229519579E+03  0.11229519579E+03  0.00000000000E+00 0. -1.
         -1   -1    0    0    0  501 -0.00000000000E+00 -0.00000000000E+00 -0.13563419457E+03  0.13563419457E+03  0.00000000000E+00 0.  1.
         25    2    1    2    0    0  0.61682097659E+02 -0.95799162815E+01  0.88473324193E+01  0.14007918629E+03  0.12508975647E+03 0.  0.
          5    1    3    3  502    0  0.64327745511E+02 -0.15728319560E+02 -0.48501044520E+02  0.82190404539E+02  0.41800000000E+01 0.  1.
         -5    1    3    3    0  502 -0.26456478519E+01  0.61484032783E+01  0.57348376940E+02  0.57888781755E+02  0.41800000000E+01 0.  1.
        -11    1    1    2    0    0 -0.16215556158E+02 -0.83752811465E+01  0.26056168041E+02  0.31812159449E+02  0.00000000000E+00 0. -1.
         11    1    1    2    0    0 -0.45466541501E+02  0.17955197428E+02 -0.58242499245E+02  0.76038044616E+02  0.00000000000E+00 0.  1.
</event>
<event>
 7    1  0.2841804E-009  0.1071022E+03  0.7561462E-02  0.1266032E+00
          2   -1    0    0  501    0  0.00000000000E+00  0.00000000000E+00  0.44677097167E+03  0.44677097167E+03  0.00000000000E+00 0.  1.
         -2   -1    0    0    0  501 -0.00000000000E+00 -0.00000000000E+00 -0.32486030248E+02  0.32486030248E+02  0.00000000000E+00 0. -1.
         25    2    1    2    0    0  0.30794671200E+02 -0.61150576041E+01  0.31595763237E+03  0.34126520515E+03  0.12508800539E+03 0.  0.
          5    1    3    3  502    0  0.17408436819E+02 -0.59706036758E+02  0.23530449712E+03  0.24342050707E+03  0.41800000000E+01 0.  1.
         -5    1    3    3    0  502  0.13386234381E+02  0.53590979154E+02  0.80653135246E+02  0.97844698081E+02  0.41800000000E+01 0.  1.
        -11    1    1    2    0    0 -0.52396905971E+02  0.33049636528E+02  0.68582141165E+02  0.92418744401E+02  0.00000000000E+00 0.  1.
         11    1    1    2    0    0  0.21602234771E+02 -0.26934578924E+02  0.29745167886E+02  0.45573052360E+02  0.00000000000E+00 0. -1.
</event>
<event>
 7    1  0.2841804E-009  0.9819367E+02  0.7561462E-02  0.1284141E+00
          1   -1    0    0  501    0  0.00000000000E+00  0.00000000000E+00  0.86858778060E+02  0.86858778060E+02  0.00000000000E+00 0. -1.
         -1   -1    0    0    0  501 -0.00000000000E+00 -0.00000000000E+00 -0.19269270936E+03  0.19269270936E+03  0.00000000000E+00 0.  1.
         25    2    1    2    0    0 -0.48756022524E+00  0.20135645659E+02  0.12901485180E+02  0.12733841269E+03  0.12507174375E+03 0.  0.
          5    1    3    3  502    0 -0.44010552843E+02 -0.27717260989E+02 -0.18436775386E+02  0.55340422883E+02  0.41800000000E+01 0.  1.
         -5    1    3    3    0  502  0.43522992618E+02  0.47852906647E+02  0.31338260567E+02  0.71997989808E+02  0.41800000000E+01 0.  1.
        -11    1    1    2    0    0  0.37091311228E+02  0.10303455141E+01 -0.98659121912E+02  0.10540611613E+03  0.00000000000E+00 0.  1.
         11    1    1    2    0    0 -0.36603751003E+02 -0.21165991173E+02 -0.20076294566E+02  0.46806958599E+02  0.00000000000E+00 0. -1.
</event>
<event>
 7    1  0.2841804E-009  0.1076504E+03  0.7561462E-02  0.1264984E+00
          1   -1    0    0  501    0  0.00000000000E+00  0.00000000000E+00  0.17347375015E+02  0.17347375015E+02  0.00000000000E+00 0. -1.
         -1   -1    0    0    0  501 -0.00000000000E+00 -0.00000000000E+00 -0.77013916112E+03  0.77013916112E+03  0.00000000000E+00 0.  1.
         25    2    1    2    0    0  0.34932951429E+02 -0.15306503586E+02 -0.47133213010E+03  0.48913652943E+03  0.12508384153E+03 0.  0.
          5    1    3    3  502    0  0.66694919316E+02 -0.45783774448E+02 -0.23152385303E+03  0.24528581937E+03  0.41800000000E+01 0. -1.
         -5    1    3    3    0  502 -0.31761967887E+02  0.30477270862E+02 -0.23980827707E+03  0.24385071006E+03  0.41800000000E+01 0. -1.
        -11    1    1    2    0    0 -0.57916477326E+02 -0.66446579540E+01 -0.11554083352E+03  0.12941465928E+03  0.00000000000E+00 0. -1.
         11    1    1    2    0    0  0.22983525898E+02  0.21951161540E+02 -0.16591882248E+03  0.16893534742E+03  0.00000000000E+00 0.  1.
</event>
<event>
 7    1  0.2841804E-009  0.1501774E+03  0.7561462E-02  0.1200255E+00
          2   -1    0    0  501    0  0.00000000000E+00  0.00000000000E+00  0.18766439963E+04  0.18766439963E+04  0.00000000000E+00 0. -1.
         -2   -1    0    0    0  501 -0.00000000000E+00 -0.00000000000E+00 -0.14956567250E+02  0.14956567250E+02  0.00000000000E+00 0.  1.
         25    2    1    2    0    0 -0.64835519607E+02 -0.95072283837E+02  0.12971461064E+04  0.13082342633E+04  0.12508590051E+03 0.  0.
          5    1    3    3  502    0  0.29438341002E+02 -0.25045449505E+02  0.59962512865E+03  0.60088406350E+03  0.41800000000E+01 0. -1.
         -5    1    3    3    0  502 -0.94273860609E+02 -0.70026834332E+02  0.69752097779E+03  0.70735019982E+03  0.41800000000E+01 0. -1.
        -11    1    1    2    0    0 -0.21571439711E+02  0.16213119635E+02  0.15963508247E+03  0.16189982031E+03  0.00000000000E+00 0.  1.
         11    1    1    2    0    0  0.86406959318E+02  0.78859164202E+02  0.40490624009E+03  0.42146647988E+03  0.00000000000E+00 0. -1.
</event>
<event>
 7    1  0.2841804E-009  0.3054522E+03  0.7561462E-02  0.1082546E+00
         -1   -1    0    0    0  501 -0.00000000000E+00  0.00000000000E+00  0.12705450494E+03  0.12705450494E+03  0.00000000000E+00 0.  1.
          1   -1    0    0  501    0  0.00000000000E+00 -0.00000000000E+00 -0.84358749711E+03  0.84358749711E+03  0.00000000000E+00 0. -1.
         25    2    1    2    0    0 -0.21394731845E+03 -0.20955382131E+03 -0.47571027675E+03  0.57587655910E+03  0.12508910751E+03 0.  0.
          5    1    3    3  502    0 -0.17108226891E+02 -0.38731877297E+02 -0.12471799541E+02  0.44338109230E+02  0.41800000000E+01 0.  1.
         -5    1    3    3    0  502 -0.19683909156E+03 -0.17082194401E+03 -0.46323847721E+03  0.53153844987E+03  0.41800000000E+01 0.  1.
        -11    1    1    2    0    0  0.53194537338E+02  0.14891411035E+02 -0.73293169350E+02  0.91778546505E+02  0.00000000000E+00 0. -1.
         11    1    1    2    0    0  0.16075278111E+03  0.19466241027E+03 -0.16752954607E+03  0.30298689644E+03  0.00000000000E+00 0.  1.
</event>
<event>
 7    1  0.3821523E-009  0.9721443E+02  0.7561462E-02  0.1286265E+00
         -1   -1    0    0    0  501 -0.00000000000E+00  0.00000000000E+00  0.50964588551E+02  0.50964588551E+02  0.00000000000E+00 0.  1.
          1   -1    0    0  501    0  0.00000000000E+00 -0.00000000000E+00 -0.39724616500E+03  0.39724616500E+03  0.00000000000E+00 0. -1.
         25    2    1    2    0    0  0.61117451898E+02  0.62680312624E+02 -0.23084534706E+03  0.27676807244E+03  0.12508727811E+03 0.  0.
          5    1    3    3  502    0  0.39254939807E+02  0.41071718241E+02 -0.15279024099E+02  0.58980991141E+02  0.41800000000E+01 0.  1.
         -5    1    3    3    0  502  0.21862512091E+02  0.21608594383E+02 -0.21556632296E+03  0.21778708130E+03  0.41800000000E+01 0.  1.
        -11    1    1    2    0    0 -0.69281284038E+02 -0.35079174545E+02 -0.33455644036E+02  0.84556046044E+02  0.00000000000E+00 0.  1.
         11    1    1    2    0    0  0.81638321406E+01 -0.27601138079E+02 -0.81980585353E+02  0.86886635067E+02  0.00000000000E+00 0. -1.
</event>
<event>
 7    1  0.2841804E-009  0.1007826E+03  0.7561462E-02  0.1278659E+00
          1   -1    0    0  501    0  0.00000000000E+00  0.00000000000E+00  0.21484838132E+03  0.21484838132E+03  0.00000000000E+00 0. -1.
         -1   -1    0    0    0  501 -0.00000000000E+00 -0.00000000000E+00 -0.68768880953E+02  0.68768880953E+02  0.00000000000E+00 0.  1.
         25    2    1    2    0    0  0.21706231359E+02 -0.50388683683E+02  0.86742100654E+02  0.16180797998E+03  0.12508976951E+03 0.  0.
          5    1    3    3  502    0 -0.47731902660E+02 -0.25352193177E+02  0.97713600466E+01  0.55081939940E+02  0.41800000000E+01 0. -1.
         -5    1    3    3    0  502  0.69438134018E+02 -0.25036490505E+02  0.76970740607E+02  0.10672604004E+03  0.41800000000E+01 0. -1.
        -11    1    1    2    0    0 -0.37514598097E+02  0.33549685493E+02 -0.76916277986E+01  0.50912548603E+02  0.00000000000E+00 0.  1.
         11    1    1    2    0    0  0.15808366738E+02  0.16838998190E+02  0.67029027508E+02  0.70896733688E+02  0.00000000000E+00 0. -1.
</event>
<event>
 7    1  0.2841804E-009  0.9248281E+02  0.7561462E-02  0.1296948E+00
         -3   -1    0    0    0  501 -0.00000000000E+00  0.00000000000E+00  0.18940665364E+03  0.18940665364E+03  0.00000000000E+00 0.  1.
          3   -1    0    0  501    0  0.00000000000E+00 -0.00000000000E+00 -0.74487024468E+02  0.74487024468E+02  0.00000000000E+00 0. -1.
         25    2    1    2    0    0  0.92819461390E+01 -0.32321276582E+02  0.10573794902E+03  0.16721127716E+03  0.12509307696E+03 0.  0.
          5    1    3    3  502    0  0.27437473022E+01  0.34082446889E+02 -0.79222534950E+01  0.35346510940E+02  0.41800000000E+01 0.  1.
         -5    1    3    3    0  502  0.65381988368E+01 -0.66403723471E+02  0.11366020252E+03  0.13186476622E+03  0.41800000000E+01 0.  1.
        -11    1    1    2    0    0 -0.42137872950E+02  0.82631192772E+01 -0.19208189366E+02  0.47040769718E+02  0.00000000000E+00 0. -1.
         11    1    1    2    0    0  0.32855926811E+02  0.24058157305E+02  0.28389869512E+02  0.49641631223E+02  0.00000000000E+00 0.  1.
</event>
<event>
 7    1  0.2841804E-009  0.1236141E+03  0.7561462E-02  0.1237251E+00
         -3   -1    0    0    0  501 -0.00000000000E+00  0.00000000000E+00  0.38901166146E+03  0.38901166146E+03  0.00000000000E+00 0.  1.
          3   -1    0    0  501    0  0.00000000000E+00 -0.00000000000E+00 -0.63598291044E+02  0.63598291044E+02  0.00000000000E+00 0. -1.
         25    2    1    2    0    0 -0.26855378142E+02 -0.99443933206E+02  0.10748845857E+03  0.19445175462E+03  0.12508960372E+03 0.  0.
          5    1    3    3  502    0  0.22168065193E+02 -0.47594630360E+02  0.11102638636E+03  0.12288613763E+03  0.41800000000E+01 0. -1.
         -5    1    3    3    0  502 -0.49023443335E+02 -0.51849302846E+02 -0.35379277811E+01  0.71565616989E+02  0.41800000000E+01 0. -1.
        -11    1    1    2    0    0  0.49247262555E+02  0.76807584420E+02  0.97236249976E+02  0.13334011476E+03  0.00000000000E+00 0. -1.
         11    1    1    2    0    0 -0.22391884413E+02  0.22636348786E+02  0.12068866186E+03  0.12481808313E+03  0.00000000000E+00 0.  1.
</event>
<event>
 7    1  0.2841804E-009  0.1150634E+03  0.7561462E-02  0.1251471E+00
         -2   -1    0    0    0  501 -0.00000000000E+00  0.00000000000E+00  0.33092188532E+02  0.33092188532E+02  0.00000000000E+00 0. -1.
          2   -1    0    0  501    0  0.00000000000E+00 -0.00000000000E+00 -0.57949658138E+03  0.57949658138E+03  0.00000000000E+00 0.  1.
         25    2    1    2    0    0  0.18772676539E+02 -0.63917216067E+02 -0.42070211575E+03  0.44393273357E+03  0.12509267701E+03 0.  0.
          5    1    3    3  502    0  0.81243913869E+01 -0.91660592568E+02 -0.39102161337E+03  0.40172508571E+03  0.41800000000E+01 0. -1.
         -5    1    3    3    0  502  0.10648285152E+02  0.27743376501E+02 -0.29680502384E+02  0.42207647863E+02  0.41800000000E+01 0. -1.
        -11    1    1    2    0    0  0.64534537802E+01 -0.19664882360E+02 -0.81833661620E+01  0.22255833969E+02  0.00000000000E+00 0. -1.
         11    1    1    2    0    0 -0.25226130319E+02  0.83582098427E+02 -0.11751891093E+03  0.14640020238E+03  0.00000000000E+00 0.  1.
</event>
<event>
 7    1  0.2841804E-009  0.9670546E+02  0.7561462E-02  0.1287381E+00
          1   -1    0    0  501    0  0.00000000000E+00  0.00000000000E+00  0.57594388313E+03  0.57594388313E+03  0.00000000000E+00 0. -1.
         -1   -1    0    0    0  501 -0.00000000000E+00 -0.00000000000E+00 -0.22048518790E+02  0.22048518790E+02  0.00000000000E+00 0.  1.
         25    2    1    2    0    0  0.19768607513E+02  0.45539788864E+01  0.29939969194E+03  0.32512427400E+03  0.12511627171E+03 0.  0.
          5    1    3    3  502    0  0.17549065794E+02 -0.57878778812E+02  0.10941392201E+03  0.12508717551E+03  0.41800000000E+01 0. -1.
         -5    1    3    3    0  502  0.22195417190E+01  0.62432757698E+02  0.18998576993E+03  0.20003709850E+03  0.41800000000E+01 0. -1.
        -11    1    1    2    0    0  0.57896773594E+01  0.28109504844E+02  0.20608984233E+02  0.35332631626E+02  0.00000000000E+00 0.  1.
         11    1    1    2    0    0 -0.25558284872E+02 -0.32663483731E+02  0.23388668817E+03  0.23753549629E+03  0.00000000000E+00 0. -1.
</event>
<event>
 7    1  0.2841804E-009  0.1063341E+03  0.7561462E-02  0.1267513E+00
         -2   -1    0    0    0  501 -0.00000000000E+00  0.00000000000E+00  0.65356221469E+02  0.65356221469E+02  0.00000000000E+00 0. -1.
          2   -1    0    0  501    0  0.00000000000E+00 -0.00000000000E+00 -0.26092771399E+03  0.26092771399E+03  0.00000000000E+00 0.  1.
         25    2    1    2    0    0 -0.43614566905E+02 -0.29542642094E+02 -0.16813294136E+03  0.21608222635E+03  0.12509134433E+03 0.  0.
          5    1    3    3  502    0 -0.15005938702E+01  0.34944794175E+02 -0.49297633381E+01  0.35569163449E+02  0.41800000000E+01 0. -1.
         -5    1    3    3    0  502 -0.42113973035E+02 -0.64487436269E+02 -0.16320317803E+03  0.18051306290E+03  0.41800000000E+01 0. -1.
        -11    1    1    2    0    0  0.10634035701E+02 -0.30226977997E+02 -0.27052454221E+02  0.41935524243E+02  0.00000000000E+00 0.  1.
         11    1    1    2    0    0  0.32980531204E+02  0.59769620091E+02 -0.38609693114E+00  0.68266184859E+02  0.00000000000E+00 0. -1.
</event>
<event>
 7    1  0.2841804E-009  0.9912250E+02  0.7561462E-02  0.1282152E+00
          1   -1    0    0  501    0  0.00000000000E+00  0.00000000000E+00  0.10601620234E+03  0.10601620234E+03  0.00000000000E+00 0. -1.
         -1   -1    0    0    0  501 -0.00000000000E+00 -0.00000000000E+00 -0.11450102186E+03  0.11450102186E+03  0.00000000000E+00 0.  1.
         25    2    1    2    0    0  0.10956877359E+02 -0.13602302861E+02 -0.29880372829E+01  0.12635118339E+03  0.12510242753E+03 0.  0.
          5    1    3    3  502    0  0.40341842769E+02 -0.59281386569E+02 -0.26012961294E+01  0.71874795395E+02  0.41800000000E+01 0. -1.
         -5    1    3    3    0  502 -0.29384965410E+02  0.45679083708E+02 -0.38674115347E+00  0.54476387998E+02  0.41800000000E+01 0. -1.
        -11    1    1    2    0    0  0.11228699272E+01 -0.28305748508E+02  0.27496433988E+02  0.39478223334E+02  0.00000000000E+00 0. -1.
         11    1    1    2    0    0 -0.12079747286E+02  0.41908051369E+02 -0.32993216222E+02  0.54687817480E+02  0.00000000000E+00 0.  1.
</event>
<event>
 7    1  0.2841804E-009  0.8507816E+02  0.7561462E-02  0.1315228E+00
          3   -1    0    0  501    0  0.00000000000E+00  0.00000000000E+00  0.10792236898E+03  0.10792236898E+03  0.00000000000E+00 0. -1.
         -3   -1    0    0    0  501 -0.00000000000E+00 -0.00000000000E+00 -0.13283652294E+03  0.13283652294E+03  0.00000000000E+00 0.  1.
         25    2    1    2    0    0  0.11737423955E+02 -0.49784198482E+02 -0.17797819130E+02  0.13631460560E+03  0.12509466733E+03 0.  0.
          5    1    3    3  502    0  0.38741131349E+02 -0.32127646745E+02  0.43671822438E+02  0.66766469269E+02  0.41800000000E+01 0.  1.
         -5    1    3    3    0  502 -0.27003707394E+02 -0.17656551737E+02 -0.61469641568E+02  0.69548136329E+02  0.41800000000E+01 0.  1.
        -11    1    1    2    0    0 -0.41535060266E+02  0.26081982796E+02 -0.32362218995E+02  0.58760056809E+02  0.00000000000E+00 0.  1.
         11    1    1    2    0    0  0.29797636312E+02  0.23702215686E+02  0.25245884164E+02  0.45684229505E+02  0.00000000000E+00 0. -1.
</event>
<event>
 7    1  0.2841804E-009  0.5497179E+02  0.7561462E-02  0.1420232E+00
         -1   -1    0    0    0  501 -0.00000000000E+00  0.00000000000E+00  0.44846563914E+02  0.44846563914E+02  0.00000000000E+00 0.  1.
          1   -1    0    0  501    0  0.00000000000E+00 -0.00000000000E+00 -0.23051390640E+03  0.23051390640E+03  0.00000000000E+00 0. -1.
         25    2    1    2    0    0 -0.18288689298E+02 -0.29617227917E+00 -0.11572016486E+03  0.17138039838E+03  0.12508205515E+03 0.  0.
          5    1    3    3  502    0 -0.16381002223E+02  0.18295235821E+02  0.21454218490E+02  0.32875656322E+02  0.41800000000E+01 0.  1.
         -5    1    3    3    0  502 -0.19076870747E+01 -0.18591408101E+02 -0.13717438335E+03  0.13850474206E+03  0.41800000000E+01 0.  1.
        -11    1    1    2    0    0  0.41094200716E+02  0.78921764246E+01 -0.15784753098E+02  0.44723351972E+02  0.00000000000E+00 0.  1.
         11    1    1    2    0    0 -0.22805511418E+02 -0.75960041454E+01 -0.54162424526E+02  0.59256719961E+02  0.00000000000E+00 0. -1.
</event>
<event>
 7    1  0.2841804E-009  0.1200404E+03  0.7561462E-02  0.1243030E+00
          2   -1    0    0  501    0  0.00000000000E+00  0.00000000000E+00  0.11672646754E+03  0.11672646754E+03  0.00000000000E+00 0. -1.
         -2   -1    0    0    0  501 -0.00000000000E+00 -0.00000000000E+00 -0.16414543239E+03  0.16414543239E+03  0.00000000000E+00 0.  1.
         25    2    1    2    0    0  0.11917403562E+02 -0.83856759696E+02 -0.35528507703E+02  0.15518819818E+03  0.12508845407E+03 0.  0.
          5    1    3    3  502    0 -0.49512648412E+02 -0.33384204867E+02  0.13929533693E+02  0.61461465947E+02  0.41800000000E+01 0. -1.
         -5    1    3    3    0  502  0.61430051974E+02 -0.50472554829E+02 -0.49458041396E+02  0.93726732234E+02  0.41800000000E+01 0. -1.
        -11    1    1    2    0    0 -0.25601253646E+02  0.83037994404E+02 -0.39045834464E+02  0.95264420913E+02  0.00000000000E+00 0.  1.
         11    1    1    2    0    0  0.13683850084E+02  0.81876529182E+00  0.27155377318E+02  0.30419280843E+02  0.00000000000E+00 0. -1.
</event>
<event>
 7    1  0.2841804E-009  0.9685626E+02  0.7561462E-02  0.1287049E+00
          1   -1    0    0  501    0  0.00000000000E+00  0.00000000000E+00  0.23934082126E+03  0.23934082126E+03  0.00000000000E+00 0. -1.
         -1   -1    0    0    0  501 -0.00000000000E+00 -0.00000000000E+00 -0.76697379909E+02  0.76697379909E+02  0.00000000000E+00 0.  1.
         25    2    1    2    0    0  0.60403209942E+02  0.24898829436E+02  0.14531188954E+03  0.20256119369E+03  0.12508793895E+03 0.  0.
          5    1    3    3  502    0  0.48043839836E+01  0.56384641970E+02  0.12176489318E+03  0.13433715631E+03  0.41800000000E+01 0.  1.
         -5    1    3    3    0  502  0.55598825959E+02 -0.31485812534E+02  0.23546996362E+02  0.68224037381E+02  0.41800000000E+01 0.  1.
        -11    1    1    2    0    0 -0.24692856257E+02 -0.27711311847E+02  0.51826926711E+02  0.63747033552E+02  0.00000000000E+00 0. -1.
         11    1    1    2    0    0 -0.35710353685E+02  0.28124824116E+01 -0.34495374896E+02  0.49729973927E+02  0.00000000000E+00 0.  1.
</event>
<event>
 7    1  0.3149555E-009  0.7571689E+02  0.7561462E-02  0.1341665E+00
          2   -1    0    0  501    0  0.00000000000E+00  0.00000000000E+00  0.12344574175E+03  0.12344574175E+03  0.00000000000E+00 0. -1.
         -2   -1    0    0    0  501 -0.00000000000E+00 -0.00000000000E+00 -0.14897188478E+03  0.14897188478E+03  0.00000000000E+00 0.  1.
         25    2    1    2    0    0  0.23840244449E+02 -0.28635690681E+02 -0.86343961665E+02  0.15650648588E+03  0.12510251944E+03 0.  0.
          5    1    3    3  502    0  0.53329214100E+02 -0.16048819796E+02 -0.10517874692E+03  0.11908656892E+03  0.41800000000E+01 0. -1.
         -5    1    3    3    0  502 -0.29488969651E+02 -0.12586870885E+02  0.18834785256E+02  0.37419916962E+02  0.41800000000E+01 0. -1.
        -11    1    1    2    0    0 -0.19948048649E+02 -0.11434190737E+02  0.70794654196E+02  0.74434860284E+02  0.00000000000E+00 0. -1.
         11    1    1    2    0    0 -0.38921957998E+01  0.40069881419E+02 -0.99768355652E+01  0.41476280365E+02  0.00000000000E+00 0.  1.
</event>
<event>
 7    1  0.2841804E-009  0.1091176E+03  0.7561462E-02  0.1262213E+00
          2   -1    0    0  501    0  0.00000000000E+00  0.00000000000E+00  0.41519863022E+03  0.41519863022E+03  0.00000000000E+00 0. -1.
         -2   -1    0    0    0  501 -0.00000000000E+00 -0.00000000000E+00 -0.29722985541E+02  0.29722985541E+02  0.00000000000E+00 0.  1.
         25    2    1    2    0    0  0.28810682734E+02 -0.14875539588E+01  0.22519827323E+03  0.25921888496E+03  0.12509156565E+03 0.  0.
          5    1    3    3  502    0 -0.48417100761E+02  0.32124265159E+01  0.64563308297E+02  0.80872915791E+02  0.41800000000E+01 0.  1.
         -5    1    3    3    0  502  0.77227783495E+02 -0.46999804747E+01  0.16063496493E+03  0.17834596917E+03  0.41800000000E+01 0.  1.
        -11    1    1    2    0    0 -0.59374511150E+02 -0.83088092581E+01  0.86490439003E+02  0.10523765925E+03  0.00000000000E+00 0.  1.
         11    1    1    2    0    0  0.30563828416E+02  0.97963632168E+01  0.73786932453E+02  0.80465071557E+02  0.00000000000E+00 0. -1.
</event>
<event>
 7    1  0.2841804E-009  0.1242295E+03  0.7561462E-02  0.1236278E+00
         -2   -1    0    0    0  501 -0.00000000000E+00  0.00000000000E+00  0.25588368842E+02  0.25588368842E+02  0.00000000000E+00 0.  1.
          2   -1    0    0  501    0  0.00000000000E+00 -0.00000000000E+00 -0.73512259272E+03  0.73512259272E+03  0.00000000000E+00 0. -1.
         25    2    1    2    0    0  0.37646619686E+01  0.63990385879E+02 -0.53393622417E+03  0.55212794495E+03  0.12509370064E+03 0.  0.
          5    1    3    3  502    0  0.25614547121E+02  0.95208022462E+02 -0.43434513581E+03  0.44541423637E+03  0.41800000000E+01 0.  1.
         -5    1    3    3    0  502 -0.21849885152E+02 -0.31217636582E+02 -0.99591088369E+02  0.10671370857E+03  0.41800000000E+01 0.  1.
        -11    1    1    2    0    0 -0.38951976744E+02 -0.61691408399E+00 -0.75963132946E+02  0.85369986776E+02  0.00000000000E+00 0. -1.
         11    1    1    2    0    0  0.35187314776E+02 -0.63373471795E+02 -0.99634866757E+02  0.12321302984E+03  0.00000000000E+00 0.  1.
</event>
<event>
 7    1  0.2841804E-009  0.1391284E+03  0.7561462E-02  0.1214507E+00
         -1   -1    0    0    0  501 -0.00000000000E+00  0.00000000000E+00  0.26235778774E+02  0.26235778774E+02  0.00000000000E+00 0.  1.
          1   -1    0    0  501    0  0.00000000000E+00 -0.00000000000E+00 -0.94511370193E+03  0.94511370193E+03  0.00000000000E+00 0. -1.
         25    2    1    2    0    0  0.72740283525E+02 -0.51362742061E+02 -0.27459878707E+03  0.31461280786E+03  0.12508974735E+03 0.  0.
          5    1    3    3  502    0  0.10113707644E+03 -0.64344327465E+02 -0.19409489582E+03  0.22816485639E+03  0.41800000000E+01 0. -1.
         -5    1    3    3    0  502 -0.28396792916E+02  0.12981585404E+02 -0.80503891247E+02  0.86447951470E+02  0.41800000000E+01 0. -1.
        -11    1    1    2    0    0 -0.70525292181E+02 -0.47220491964E+01 -0.33003434471E+03  0.33751856730E+03  0.00000000000E+00 0.  1.
         11    1    1    2    0    0 -0.22149913435E+01  0.56084791257E+02 -0.31424479138E+03  0.31921810555E+03  0.00000000000E+00 0. -1.
</event>
<event>
 7    1  0.2841804E-009  0.1439425E+03  0.7561462E-02  0.1208120E+00
          2   -1    0    0  501    0  0.00000000000E+00  0.00000000000E+00  0.84459107677E+02  0.84459107677E+02  0.00000000000E+00 0. -1.
         -2   -1    0    0    0  501 -0.00000000000E+00 -0.00000000000E+00 -0.36916429836E+03  0.36916429836E+03  0.00000000000E+00 0.  1.
         25    2    1    2    0    0  0.95273458769E+02  0.84023570202E+02 -0.77243319076E+02  0.19429743589E+03  0.12509185008E+03 0.  0.
          5    1    3    3  502    0  0.24561413413E+00  0.17286598633E+02 -0.76042450930E+02  0.78094900999E+02  0.41800000000E+01 0.  1.
         -5    1    3    3    0  502  0.95027844635E+02  0.66736971569E+02 -0.12008681460E+01  0.11620253489E+03  0.41800000000E+01 0.  1.
        -11    1    1    2    0    0 -0.10596288608E+03 -0.92187651709E+02 -0.19849571349E+03  0.24316094388E+03  0.00000000000E+00 0.  1.
         11    1    1    2    0    0  0.10689427308E+02  0.81640815074E+01 -0.89661581177E+01  0.16165026273E+02  0.00000000000E+00 0. -1.
</event>
<event>
 7    1  0.2841804E-009  0.1164727E+03  0.7561462E-02  0.1249032E+00
          2   -1    0    0  501    0  0.00000000000E+00  0.00000000000E+00  0.27274910769E+03  0.27274910769E+03  0.00000000000E+00 0. -1.
         -2   -1    0    0    0  501 -0.00000000000E+00 -0.00000000000E+00 -0.64554623048E+02  0.64554623048E+02  0.00000000000E+00 0.  1.
         25    2    1    2    0    0 -0.54201932909E+02  0.98937289350E+01  0.49060835339E+02  0.14522586358E+03  0.12509136855E+03 0.  0.
          5    1    3    3  502    0 -0.70972395536E+02 -0.40882963001E+02  0.20845477092E+02  0.84619760736E+02  0.41800000000E+01 0. -1.
         -5    1    3    3    0  502  0.16770462627E+02  0.50776691936E+02  0.28215358247E+02  0.60606102842E+02  0.41800000000E+01 0. -1.
        -11    1    1    2    0    0  0.57226706470E+01 -0.39882451095E+02  0.27928160192E+02  0.49023881899E+02  0.00000000000E+00 0.  1.
         11    1    1    2    0    0  0.48479262262E+02  0.29988722160E+02  0.13120548911E+03  0.14305398526E+03  0.00000000000E+00 0. -1.
</event>
<event>
 7    1  0.2841804E-009  0.1047871E+03  0.7561462E-02  0.1270540E+00
         -4   -1    0    0    0  501 -0.00000000000E+00  0.00000000000E+00  0.30476045719E+02  0.30476045719E+02  0.00000000000E+00 0.  1.
          4   -1    0    0  501    0  0.00000000000E+00 -0.00000000000E+00 -0.72157181732E+03  0.72157181732E+03  0.00000000000E+00 0. -1.
         25    2    1    2    0    0  0.79658042269E+02  0.21842594650E+01 -0.52884813111E+03  0.54925944898E+03  0.12512162814E+03 0.  0.
          5    1    3    3  502    0  0.16498327638E+02  0.24349625208E+02 -0.42241423789E+03  0.42345762460E+03  0.41800000000E+01 0. -1.
         -5    1    3    3    0  502  0.63159714631E+02 -0.22165365743E+02 -0.10643389322E+03  0.12580182438E+03  0.41800000000E+01 0. -1.
        -11    1    1    2    0    0 -0.82741355233E+02 -0.27580341566E+02 -0.86500717228E+02  0.12283802826E+03  0.00000000000E+00 0.  1.
         11    1    1    2    0    0  0.30833129639E+01  0.25396082101E+02 -0.75746923267E+02  0.79950385798E+02  0.00000000000E+00 0. -1.
</event>
<event>
 7    1  0.2841804E-009  0.1490723E+03  0.7561462E-02  0.1201618E+00
         -1   -1    0    0    0  501 -0.00000000000E+00  0.00000000000E+00  0.26916676381E+02  0.26916676381E+02  0.00000000000E+00 0.  1.
          1   -1    0    0  501    0  0.00000000000E+00 -0.00000000000E+00 -0.11186924695E+04  0.11186924695E+04  0.00000000000E+00 0. -1.
         25    2    1    2    0    0 -0.12480947435E+03  0.15992512805E+02 -0.73127835044E+03  0.75249641345E+03  0.12509860547E+03 0.  0.
          5    1    3    3  502    0  0.49276499777E+01  0.37900464133E+02 -0.27272261317E+03  0.27541935852E+03  0.41800000000E+01 0.  1.
         -5    1    3    3    0  502 -0.12973712432E+03 -0.21907951328E+02 -0.45855573727E+03  0.47707705493E+03  0.41800000000E+01 0.  1.
        -11    1    1    2    0    0  0.48202311847E+02 -0.17920284204E+02 -0.26849854549E+03  0.27337898307E+03  0.00000000000E+00 0. -1.
         11    1    1    2    0    0  0.76607162499E+02  0.19277713993E+01 -0.91998897150E+02  0.11973374932E+03  0.00000000000E+00 0.  1.
</event>
<event>
 7    1  0.2841804E-009  0.3448410E+03  0.7561462E-02  0.1064753E+00
          3   -1    0    0  501    0  0.00000000000E+00  0.00000000000E+00  0.21647240689E+03  0.21647240689E+03  0.00000000000E+00 0. -1.
         -3   -1    0    0    0  501 -0.00000000000E+00 -0.00000000000E+00 -0.60104183115E+03  0.60104183115E+03  0.00000000000E+00 0.  1.
         25    2    1    2    0    0 -0.47763192430E+02  0.33448290420E+03 -0.26546211481E+03  0.44752421520E+03  0.12509057935E+03 0.  0.
          5    1    3    3  502    0 -0.38377340062E+02  0.47506884806E+02 -0.96695837963E+02  0.11444335635E+03  0.41800000000E+01 0.  1.
         -5    1    3    3    0  502 -0.93858523671E+01  0.28697601939E+03 -0.16876627685E+03  0.33308085885E+03  0.41800000000E+01 0.  1.
        -11    1    1    2    0    0  0.29682376180E+02 -0.67802094392E+02 -0.62260500177E+02  0.96718857220E+02  0.00000000000E+00 0.  1.
         11    1    1    2    0    0  0.18080816250E+02 -0.26668080980E+03 -0.56846809274E+02  0.27327116562E+03  0.00000000000E+00 0. -1.
</event>
<event>
 7    1  0.2841804E-009  0.1098172E+03  0.7561462E-02  0.1260909E+00
         -1   -1    0    0    0  501 -0.00000000000E+00  0.00000000000E+00  0.35967001468E+02  0.35967001468E+02  0.00000000000E+00 0.  1.
          1   -1    0    0  501    0  0.00000000000E+00 -0.00000000000E+00 -0.49158204010E+03  0.49158204010E+03  0.00000000000E+00 0. -1.
         25    2    1    2    0    0  0.20332773500E+02 -0.19218925464E+01 -0.39807084264E+03  0.41776239190E+03  0.12509158635E+03 0.  0.
          5    1    3    3  502    0  0.21566807085E+02 -0.62287807693E+02 -0.19668833664E+03  0.20748173974E+03  0.41800000000E+01 0.  1.
         -5    1    3    3    0  502 -0.12340335843E+01  0.60365915146E+02 -0.20138250600E+03  0.21028065216E+03  0.41800000000E+01 0.  1.
        -11    1    1    2    0    0  0.35630434454E+02  0.87384751489E+01 -0.17574807480E+02  0.40678774137E+02  0.00000000000E+00 0. -1.
         11    1    1    2    0    0 -0.55963207954E+02 -0.68165826026E+01 -0.39969388520E+02  0.69107875539E+02  0.00000000000E+00 0.  1.
</event>
<event>
 7    1  0.2841804E-009  0.9066616E+02  0.7561462E-02  0.1301246E+00
          2   -1    0    0  501    0  0.00000000000E+00  0.00000000000E+00  0.31272808583E+03  0.31272808583E+03  0.00000000000E+00 0. -1.
         -2   -1    0    0    0  501 -0.00000000000E+00 -0.00000000000E+00 -0.41743289000E+02  0.41743289000E+02  0.00000000000E+00 0.  1.
         25    2    1    2    0    0 -0.24210316975E+02  0.17845346479E+02  0.12792117021E+03  0.18142756803E+03  0.12509013076E+03 0.  0.
          5    1    3    3  502    0  0.37625933856E+02 -0.29671697176E+02  0.32169052805E+02  0.57865714117E+02  0.41800000000E+01 0.  1.
         -5    1    3    3    0  502 -0.61836250831E+02  0.47517043655E+02  0.95752117408E+02  0.12356185391E+03  0.41800000000E+01 0.  1.
        -11    1    1    2    0    0  0.30426299531E+01  0.15414283616E+02 -0.74958763210E+01  0.17408213528E+02  0.00000000000E+00 0.  1.
         11    1    1    2    0    0  0.21167687022E+02 -0.33259630094E+02  0.15055950294E+03  0.15563559327E+03  0.00000000000E+00 0. -1.
</event>
<event>
 6    1  0.2841804E-009  0.8246632E+02  0.7561462E-02  0.1322195E+00
          1   -1    0    0  501    0  0.00000000000E+00  0.00000000000E+00  0.19286331260E+04  0.19286331260E+04  0.00000000000E+00 0. -1.
         -1   -1    0    0    0  501 -0.00000000000E+00 -0.00000000000E+00 -0.10946184817E+02  0.10946184817E+02  0.00000000000E+00 0.  1.
          5    1    1    2  502    0  0.39868797920E+02  0.31573773373E+02  0.15900156870E+04  0.15908343036E+04  0.41800000000E+01 0.  1.
         -5    1    1    2    0  502 -0.13701848937E+02  0.48069038805E+01  0.23033702280E+02  0.27547610240E+02  0.41800000000E+01 0.  1.
        -11    1    1    2    0    0  0.32259393099E+02 -0.20594029441E+02  0.82196200845E+02  0.90669718898E+02  0.00000000000E+00 0.  1.
         11    1    1    2    0    0 -0.58426342081E+02 -0.15786647812E+02  0.22244135101E+03  0.23052767803E+03  0.00000000000E+00 0. -1.
</event>
<event>
 7    1  0.2841804E-009  0.1054238E+03  0.7561462E-02  0.1269287E+00
          1   -1    0    0  501    0  0.00000000000E+00  0.00000000000E+00  0.15011714629E+03  0.15011714629E+03  0.00000000000E+00 0. -1.
         -1   -1    0    0    0  501 -0.00000000000E+00 -0.00000000000E+00 -0.12279041072E+03  0.12279041072E+03  0.00000000000E+00 0.  1.
         25    2    1    2    0    0 -0.53362204839E+02  0.60304123390E+02  0.25030782002E+02  0.15086824793E+03  0.12510226211E+03 0.  0.
          5    1    3    3  502    0  0.15934755732E+02  0.12712409086E+02 -0.39608741594E+02  0.44742000354E+02  0.41800000000E+01 0. -1.
         -5    1    3    3    0  502 -0.69296960571E+02  0.47591714304E+02  0.64639523596E+02  0.10612624758E+03  0.41800000000E+01 0. -1.
        -11    1    1    2    0    0 -0.14733899946E+02 -0.25363427107E+02 -0.27211906727E+02  0.40010987365E+02  0.00000000000E+00 0.  1.
         11    1    1    2    0    0  0.68096104785E+02 -0.34940696283E+02  0.29507860292E+02  0.82028321711E+02  0.00000000000E+00 0. -1.
</event>
<event>
 7    1  0.2841804E-009  0.1068833E+03  0.7561462E-02  0.1266453E+00
          1   -1    0    0  501    0  0.00000000000E+00  0.00000000000E+00  0.15687465141E+03  0.15687465141E+03  0.00000000000E+00 0. -1.
         -1   -1    0    0    0  501 -0.00000000000E+00 -0.00000000000E+00 -0.93631099300E+02  0.93631099300E+02  0.00000000000E+00 0.  1.
         25    2    1    2    0    0  0.59792773109E+01  0.32180563690E+02  0.79991933562E+02  0.15204521066E+03  0.12509075191E+03 0.  0.
          5    1    3    3  502    0  0.59093913383E+02  0.28927387218E+02  0.14404790097E+02  0.67482254763E+02  0.41800000000E+01 0.  1.
         -5    1    3    3    0  502 -0.53114636072E+02  0.32531764718E+01  0.65587143465E+02  0.84562955897E+02  0.41800000000E+01 0.  1.
        -11    1    1    2    0    0 -0.26523085619E+01 -0.63204370120E+02 -0.21679232968E+02  0.66871640365E+02  0.00000000000E+00 0.  1.
         11    1    1    2    0    0 -0.33269687489E+01  0.31023806430E+02  0.49308515139E+01  0.31588899682E+02  0.00000000000E+00 0. -1.
</event>
<event>
 7    1  0.2841804E-009  0.1175854E+03  0.7561462E-02  0.1247134E+00
          1   -1    0    0  501    0  0.00000000000E+00  0.00000000000E+00  0.13692048578E+03  0.13692048578E+03  0.00000000000E+00 0. -1.
         -1   -1    0    0    0  501 -0.00000000000E+00 -0.00000000000E+00 -0.11662039770E+03  0.11662039770E+03  0.00000000000E+00 0.  1.
         25    2    1    2    0    0  0.25626939045E+02 -0.49153483686E+02 -0.21639846741E+02  0.13852406156E+03  0.12509127748E+03 0.  0.
          5    1    3    3  502    0  0.66143497789E+02  0.22981009751E+01 -0.29215528400E+02  0.72465599201E+02  0.41800000000E+01 0. -1.
         -5    1    3    3    0  502 -0.40516558744E+02 -0.51451584661E+02  0.75756816588E+01  0.66058462358E+02  0.41800000000E+01 0. -1.
        -11    1    1    2    0    0  0.15225163355E+02 -0.18648798713E+02 -0.25557753208E+01  0.24209817845E+02  0.00000000000E+00 0.  1.
         11    1    1    2    0    0 -0.40852102400E+02  0.67802282398E+02  0.44495710146E+02  0.90807004082E+02  0.00000000000E+00 0. -1.
</event>
<event>
 7    1  0.2841804E-009  0.1398131E+03  0.7561462E-02  0.1213581E+00
         -2   -1    0    0    0  501 -0.00000000000E+00  0.00000000000E+00  0.30825685981E+02  0.30825685981E+02  0.00000000000E+00 0.  1.
          2   -1    0    0  501    0  0.00000000000E+00 -0.00000000000E+00 -0.82297930555E+03  0.82297930555E+03  0.00000000000E+00 0. -1.
         25    2    1    2    0    0  0.11299023642E+03 -0.18739648603E+02 -0.50140459582E+03  0.52931194196E+03  0.12508635113E+03 0.  0.
          5    1    3    3  502    0  0.45666459020E+01  0.22375452493E+02 -0.26450820064E+03  0.26552509436E+03  0.41800000000E+01 0.  1.
         -5    1    3    3    0  502  0.10842359051E+03 -0.41115101096E+02 -0.23689639518E+03  0.26378684760E+03  0.41800000000E+01 0.  1.
        -11    1    1    2    0    0  0.11185199680E+02  0.11421810628E+02 -0.14722616688E+02  0.21732967861E+02  0.00000000000E+00 0.  1.
         11    1    1    2    0    0 -0.12417543610E+03  0.73178379752E+01 -0.27602640706E+03  0.30276008171E+03  0.00000000000E+00 0. -1.
</event>
<event>
 7    1  0.3006899E-009  0.2069843E+03  0.7561462E-02  0.1143977E+00
          1   -1    0    0  501    0  0.00000000000E+00  0.00000000000E+00  0.26189385857E+03  0.26189385857E+03  0.00000000000E+00 0. -1.
         -1   -1    0    0    0  501 -0.00000000000E+00 -0.00000000000E+00 -0.20644570558E+03  0.20644570558E+03  0.00000000000E+00 0.  1.
         25    2    1    2    0    0  0.14850749075E+03  0.13477305088E+03 -0.15487961343E+02  0.23686567569E+03  0.12508885371E+03 0.  0.
          5    1    3    3  502    0  0.20514572625E+02  0.89691466798E+01  0.42497554120E+02  0.48216260622E+02  0.41800000000E+01 0.  1.
         -5    1    3    3    0  502  0.12799291812E+03  0.12580390420E+03 -0.57985515463E+02  0.18864941507E+03  0.41800000000E+01 0.  1.
        -11    1    1    2    0    0 -0.86067907363E+02 -0.32803206770E+02 -0.65905203624E+00  0.92109551090E+02  0.00000000000E+00 0.  1.
         11    1    1    2    0    0 -0.62439583386E+02 -0.10196984411E+03  0.71595166371E+02  0.13936433736E+03  0.00000000000E+00 0. -1.
</event>
<event>
 7    1  0.2841804E-009  0.1092284E+03  0.7561462E-02  0.1262005E+00
          1   -1    0    0  501    0  0.00000000000E+00  0.00000000000E+00  0.37270776406E+03  0.37270776406E+03  0.00000000000E+00 0. -1.
         -1   -1    0    0    0  501 -0.00000000000E+00 -0.00000000000E+00 -0.50793737231E+02  0.50793737231E+02  0.00000000000E+00 0.  1.
         25    2    1    2    0    0 -0.66971175545E+02  0.34709859900E+02  0.11877557501E+03  0.18826867509E+03  0.12509014379E+03 0.  0.
          5    1    3    3  502    0 -0.82380897075E+02  0.37018407672E+02  0.13686409972E+03  0.16403118271E+03  0.41800000000E+01 0.  1.
         -5    1    3    3    0  502  0.15409721530E+02 -0.23085477721E+01 -0.18088524713E+02  0.24237492377E+02  0.41800000000E+01 0.  1.
        -11    1    1    2    0    0  0.84432320708E+02 -0.40327836753E+02  0.13221076966E+03  0.16197172226E+03  0.00000000000E+00 0.  1.
         11    1    1    2    0    0 -0.17461145163E+02  0.56179768533E+01  0.70927682164E+02  0.73261103946E+02  0.00000000000E+00 0. -1.
</event>
<event>
 7    1  0.2841804E-009  0.1410716E+03  0.7561462E-02  0.1211894E+00
          4   -1    0    0  501    0  0.00000000000E+00  0.00000000000E+00  0.24545808120E+03  0.24545808120E+03  0.00000000000E+00 0. -1.
         -4   -1    0    0    0  501 -0.00000000000E+00 -0.00000000000E+00 -0.98662331459E+02  0.98662331459E+02  0.00000000000E+00 0.  1.
         25    2    1    2    0    0 -0.88489466955E+02 -0.37911076360E+02  0.18466379319E+02  0.15891569449E+03  0.12508219425E+03 0.  0.
          5    1    3    3  502    0  0.58188601170E+01  0.35908198029E+02 -0.45216335591E+01  0.36894110489E+02  0.41800000000E+01 0. -1.
         -5    1    3    3    0  502 -0.94308327072E+02 -0.73819274389E+02  0.22988012878E+02  0.12202158400E+03  0.41800000000E+01 0. -1.
        -11    1    1    2    0    0  0.43813054734E+02 -0.23523666703E+02  0.82967421751E+02  0.96729208269E+02  0.00000000000E+00 0. -1.
         11    1    1    2    0    0  0.44676412220E+02  0.61434743063E+02  0.45361948668E+02  0.88475509894E+02  0.00000000000E+00 0.  1.
</event>
<event>
 7    1  0.2841804E-009  0.1073474E+03  0.7561462E-02  0.1265562E+00
         -1   -1    0    0    0  501 -0.00000000000E+00  0.00000000000E+00  0.18365543412E+02  0.18365543412E+02  0.00000000000E+00 0.  1.
          1   -1    0    0  501    0  0.00000000000E+00 -0.00000000000E+00 -0.68174070438E+03  0.68174070438E+03  0.00000000000E+00 0. -1.
         25    2    1    2    0    0  0.20675385327E+02  0.88507241410E+01 -0.32081142014E+03  0.34506871552E+03  0.12508654708E+03 0.  0.
          5    1    3    3  502    0  0.72966358541E+02  0.13018925131E+02 -0.17735043564E+03  0.19226084186E+03  0.41800000000E+01 0.  1.
         -5    1    3    3    0  502 -0.52290973213E+02 -0.41682009901E+01 -0.14346098450E+03  0.15280787366E+03  0.41800000000E+01 0.  1.
        -11    1    1    2    0    0  0.19598614695E+02  0.27374128838E+02 -0.77520689364E+02  0.84515713966E+02  0.00000000000E+00 0.  1.
         11    1    1    2    0    0 -0.40274000022E+02 -0.36224852979E+02 -0.26504305146E+03  0.27052181831E+03  0.00000000000E+00 0. -1.
</event>
<event>
 7    1  0.2841804E-009  0.2850429E+03  0.7561462E-02  0.1092966E+00
         -2   -1    0    0    0  501 -0.00000000000E+00  0.00000000000E+00  0.88998948254E+02  0.88998948254E+02  0.00000000000E+00 0.  1.
          2   -1    0    0  501    0  0.00000000000E+00 -0.00000000000E+00 -0.10209872615E+04  0.10209872615E+04  0.00000000000E+00 0. -1.
         25    2    1    2    0    0 -0.27993955711E+03  0.20533541326E+02 -0.45476230615E+03  0.54885842915E+03  0.12509611588E+03 0.  0.
          5    1    3    3  502    0 -0.21429675547E+03 -0.63391514367E+01 -0.41576978584E+03  0.46780901174E+03  0.41800000000E+01 0.  1.
         -5    1    3    3    0  502 -0.65642801641E+02  0.26872692763E+02 -0.38992520304E+02  0.81049417415E+02  0.41800000000E+01 0.  1.
        -11    1    1    2    0    0  0.15027808028E+03  0.12502128885E+02 -0.17760895435E+03  0.23299086958E+03  0.00000000000E+00 0.  1.
         11    1    1    2    0    0  0.12966147683E+03 -0.33035670211E+02 -0.29961705273E+03  0.32813691101E+03  0.00000000000E+00 0. -1.
</event>
<event>
 7    1  0.2841804E-009  0.1065345E+03  0.7561462E-02  0.1267125E+00
         -2   -1    0    0    0  501 -0.00000000000E+00  0.00000000000E+00  0.20688167389E+03  0.20688167389E+03  0.00000000000E+00 0.  1.
          2   -1    0    0  501    0  0.00000000000E+00 -0.00000000000E+00 -0.21470783341E+03  0.21470783341E+03  0.00000000000E+00 0. -1.
         25    2    1    2    0    0  0.84709271938E-01  0.10093184613E+03 -0.15354825654E+03  0.22228684746E+03  0.12508849160E+03 0.  0.
          5    1    3    3  502    0  0.11826868796E+02  0.48701740439E+02  0.90078551810E+01  0.51091566841E+02  0.41800000000E+01 0.  1.
         -5    1    3    3    0  502 -0.11742159524E+02  0.52230105691E+02 -0.16255611172E+03  0.17119528062E+03  0.41800000000E+01 0.  1.
        -11    1    1    2    0    0  0.20289531789E+02 -0.40330455630E+02  0.12370084570E+03  0.13168185136E+03  0.00000000000E+00 0.  1.
         11    1    1    2    0    0 -0.20374241061E+02 -0.60601390499E+02  0.22021251314E+02  0.67620808474E+02  0.00000000000E+00 0. -1.
</event>
<event>
 7    1  0.2841804E-009  0.9470961E+02  0.7561462E-02  0.1291831E+00
         -3   -1    0    0    0  501 -0.00000000000E+00  0.00000000000E+00  0.56214738683E+02  0.56214738683E+02  0.00000000000E+00 0.  1.
          3   -1    0    0  501    0  0.00000000000E+00 -0.00000000000E+00 -0.35219403891E+03  0.35219403891E+03  0.00000000000E+00 0. -1.
         25    2    1    2    0    0 -0.52049811232E+02  0.36474079670E+02 -0.24821541284E+03  0.28512070500E+03  0.12507351403E+03 0.  0.
          5    1    3    3  502    0 -0.63510381825E+02  0.30233718482E+02 -0.49925302384E+02  0.86357712747E+02  0.41800000000E+01 0. -1.
         -5    1    3    3    0  502  0.11460570592E+02  0.62403611875E+01 -0.19829011045E+03  0.19876299225E+03  0.41800000000E+01 0. -1.
        -11    1    1    2    0    0 -0.23301852420E+02 -0.68563952937E+01  0.73133774552E+01  0.25366749347E+02  0.00000000000E+00 0.  1.
         11    1    1    2    0    0  0.75351663652E+02 -0.29617684376E+02 -0.55077264842E+02  0.97921323242E+02  0.00000000000E+00 0. -1.
</event>
<event>
 7    1  0.2841804E-009  0.9428813E+02  0.7561462E-02  0.1292787E+00
         -1   -1    0    0    0  501 -0.00000000000E+00  0.00000000000E+00  0.24245170508E+03  0.24245170508E+03  0.00000000000E+00 0.  1.
          1   -1    0    0  501    0  0.00000000000E+00 -0.00000000000E+00 -0.57980971495E+02  0.57980971495E+02  0.00000000000E+00 0. -1.
         25    2    1    2    0    0 -0.45275055405E+02  0.50084435742E+01  0.89946223332E+02  0.16066476507E+03  0.12509168035E+03 0.  0.
          5    1    3    3  502    0 -0.62310999549E+02 -0.93886444108E+01  0.11228199131E+03  0.12882362082E+03  0.41800000000E+01 0.  1.
         -5    1    3    3    0  502  0.17035944144E+02  0.14397087985E+02 -0.22335767981E+02  0.31841144242E+02  0.41800000000E+01 0.  1.
        -11    1    1    2    0    0 -0.27658616431E+02 -0.10513258873E+02  0.31514467170E+02  0.43228339270E+02  0.00000000000E+00 0.  1.
         11    1    1    2    0    0  0.72933671836E+02  0.55048152990E+01  0.63010043081E+02  0.96539572239E+02  0.00000000000E+00 0. -1.
</event>
<event>
 7    1  0.2841804E-009  0.1282549E+03  0.7561462E-02  0.1230068E+00
          2   -1    0    0  501    0  0.00000000000E+00  0.00000000000E+00  0.47437003884E+02  0.47437003884E+02  0.00000000000E+00 0. -1.
         -2   -1    0    0    0  501 -0.00000000000E+00 -0.00000000000E+00 -0.49825848016E+03  0.49825848016E+03  0.00000000000E+00 0.  1.
         25    2    1    2    0    0 -0.28526310412E+02 -0.10192136041E+03 -0.19653104724E+03  0.25587921470E+03  0.12509198972E+03 0.  0.
          5    1    3    3  502    0 -0.15555297550E+02 -0.14944880917E+01 -0.13779589090E+03  0.13874213753E+03  0.41800000000E+01 0. -1.
         -5    1    3    3    0  502 -0.12971012862E+02 -0.10042687232E+03 -0.58735156340E+02  0.11713707717E+03  0.41800000000E+01 0. -1.
        -11    1    1    2    0    0 -0.32895078298E+02  0.31540921223E+02 -0.86894462956E+02  0.98120148697E+02  0.00000000000E+00 0.  1.
         11    1    1    2    0    0  0.61421388710E+02  0.70380439187E+02 -0.16739596608E+03  0.19169612065E+03  0.00000000000E+00 0. -1.
</event>
<event>
 7    1  0.3915584E-009  0.9185687E+02  0.7561462E-02  0.1298416E+00
         -2   -1    0    0    0  501 -0.00000000000E+00  0.00000000000E+00  0.72096356428E+02  0.72096356428E+02  0.00000000000E+00 0.  1.
          2   -1    0    0  501    0  0.00000000000E+00 -0.00000000000E+00 -0.30169011719E+03  0.30169011719E+03  0.00000000000E+00 0. -1.
         25    2    1    2    0    0 -0.59872538317E+02  0.56587160459E+02 -0.19529367530E+03  0.24611852831E+03  0.12509149768E+03 0.  0.
          5    1    3    3  502    0 -0.10910249835E+02  0.49817938840E+02 -0.18937018159E+03  0.19616166459E+03  0.41800000000E+01 0.  1.
         -5    1    3    3    0  502 -0.48962288482E+02  0.67692216188E+01 -0.59234937109E+01  0.49956863717E+02  0.41800000000E+01 0.  1.
        -11    1    1    2    0    0  0.37319944418E+02 -0.28729505220E+02  0.28723517448E+02  0.55165235213E+02  0.00000000000E+00 0.  1.
         11    1    1    2    0    0  0.22552593899E+02 -0.27857655239E+02 -0.63023602918E+02  0.72502710099E+02  0.00000000000E+00 0. -1.
</event>
<event>
 7    1  0.2841804E-009  0.2226751E+03  0.7561462E-02  0.1131904E+00
         -1   -1    0    0    0  501 -0.00000000000E+00  0.00000000000E+00  0.53571473251E+03  0.53571473251E+03  0.00000000000E+00 0.  1.
          1   -1    0    0  501    0  0.00000000000E+00 -0.00000000000E+00 -0.10285734210E+03  0.10285734210E+03  0.00000000000E+00 0. -1.
         25    2    1    2    0    0  0.18142247488E+03 -0.91311954037E+02  0.16835931905E+03  0.29196566402E+03  0.12508837401E+03 0.  0.
          5    1    3    3  502    0  0.15322866431E+03 -0.12201788990E+03  0.14702249073E+03  0.24494994224E+03  0.41800000000E+01 0.  1.
         -5    1    3    3    0  502  0.28193810567E+02  0.30705935863E+02  0.21336828319E+02  0.47015721777E+02  0.41800000000E+01 0.  1.
        -11    1    1    2    0    0 -0.97252657448E+02  0.25090682591E+02  0.63415641139E+02  0.11878200737E+03  0.00000000000E+00 0. -1.
         11    1    1    2    0    0 -0.84169817430E+02  0.66221271445E+02  0.20108243023E+03  0.22782440322E+03  0.00000000000E+00 0.  1.
</event>
<event>
 7    1  0.2841804E-009  0.1135571E+03  0.7561462E-02  0.1254121E+00
          2   -1    0    0  501    0  0.00000000000E+00  0.00000000000E+00  0.18975947611E+02  0.18975947611E+02  0.00000000000E+00 0.  1.
         -2   -1    0    0    0  501 -0.00000000000E+00 -0.00000000000E+00 -0.85623778793E+03  0.85623778793E+03  0.00000000000E+00 0. -1.
         25    2    1    2    0    0  0.65610442125E+02  0.42407320503E+00 -0.42081722150E+03  0.44389037665E+03  0.12508646056E+03 0.  0.
          5    1    3    3  502    0  0.18421243483E+02  0.46524361476E+02 -0.65794538167E+02  0.82766249612E+02  0.41800000000E+01 0. -1.
         -5    1    3    3    0  502  0.47189198643E+02 -0.46100288271E+02 -0.35502268333E+03  0.36112412703E+03  0.41800000000E+01 0. -1.
        -11    1    1    2    0    0  0.33184683105E+01 -0.33976052232E+02 -0.97803721803E+02  0.10359031014E+03  0.00000000000E+00 0.  1.
         11    1    1    2    0    0 -0.68928910436E+02  0.33551979027E+02 -0.31864089701E+03  0.32773304875E+03  0.00000000000E+00 0. -1.
</event>
<event>
 7    1  0.2841804E-009  0.1488814E+03  0.7561462E-02  0.1201854E+00
         -2   -1    0    0    0  501 -0.00000000000E+00  0.00000000000E+00  0.10378635405E+03  0.10378635405E+03  0.00000000000E+00 0.  1.
          2   -1    0    0  501    0  0.00000000000E+00 -0.00000000000E+00 -0.27492324342E+03  0.27492324342E+03  0.00000000000E+00 0. -1.
         25    2    1    2    0    0 -0.83743912200E+02  0.71343405114E+02 -0.16842852046E+03  0.23689365629E+03  0.12509002200E+03 0.  0.
          5    1    3    3  502    0 -0.61744511829E+02  0.10523162253E+03 -0.14662152608E+03  0.19079157065E+03  0.41800000000E+01 0.  1.
         -5    1    3    3    0  502 -0.21999400371E+02 -0.33888217420E+02 -0.21806994377E+02  0.46102085640E+02  0.41800000000E+01 0.  1.
        -11    1    1    2    0    0  0.76426895825E+02 -0.88189259270E+02  0.13298482233E+02  0.11745324808E+03  0.00000000000E+00 0.  1.
         11    1    1    2    0    0  0.73170163751E+01  0.16845854156E+02 -0.16006851146E+02  0.24362693088E+02  0.00000000000E+00 0. -1.
</event>
<event>
 7    1  0.2841804E-009  0.5577589E+02  0.7561462E-02  0.1416465E+00
         -2   -1    0    0    0  501 -0.00000000000E+00  0.00000000000E+00  0.12886617178E+03  0.12886617178E+03  0.00000000000E+00 0.  1.
          2   -1    0    0  501    0  0.00000000000E+00 -0.00000000000E+00 -0.11096747534E+03  0.11096747534E+03  0.00000000000E+00 0. -1.
         25    2    1    2    0    0 -0.99225120204E+00 -0.11076742803E+02  0.63101109910E+02  0.14054377740E+03  0.12508846670E+03 0.  0.
          5    1    3    3  502    0 -0.29868144662E+02 -0.13267307570E+02  0.93027945696E+02  0.98690417955E+02  0.41800000000E+01 0. -1.
         -5    1    3    3    0  502  0.28875893460E+02  0.21905647670E+01 -0.29926835786E+02  0.41853359450E+02  0.41800000000E+01 0. -1.
        -11    1    1    2    0    0  0.24089505986E+02  0.10396130995E+02  0.18118054442E+02  0.31884913911E+02  0.00000000000E+00 0.  1.
         11    1    1    2    0    0 -0.23097254784E+02  0.68061180834E+00 -0.63320467908E+02  0.67404955805E+02  0.00000000000E+00 0. -1.
</event>
<event>
 7    1  0.2841804E-009  0.1252051E+03  0.7561462E-02  0.1234749E+00
         -1   -1    0    0    0  501 -0.00000000000E+00  0.00000000000E+00  0.70021390491E+02  0.70021390491E+02  0.00000000000E+00 0.  1.
          1   -1    0    0  501    0  0.00000000000E+00 -0.00000000000E+00 -0.25645068880E+03  0.25645068880E+03  0.00000000000E+00 0. -1.
         25    2    1    2    0    0 -0.77406366070E+02 -0.12110475713E+02 -0.10887460987E+03  0.18340849246E+03  0.12508631141E+03 0.  0.
          5    1    3    3  502    0  0.20613872593E+02  0.28909165775E+02 -0.75801261065E+01  0.36545893352E+02  0.41800000000E+01 0. -1.
         -5    1    3    3    0  502 -0.98020238663E+02 -0.41019641488E+02 -0.10129448376E+03  0.14686259911E+03  0.41800000000E+01 0. -1.
        -11    1    1    2    0    0  0.10595827767E+02  0.35876127247E+02  0.75875774076E+00  0.37415822664E+02  0.00000000000E+00 0.  1.
         11    1    1    2    0    0  0.66810538303E+02 -0.23765651534E+02 -0.78313446178E+02  0.10564776417E+03  0.00000000000E+00 0. -1.
</event>
<event>
 7    1  0.2841804E-009  0.1032922E+03  0.7561462E-02  0.1273521E+00
         -1   -1    0    0    0  501 -0.00000000000E+00  0.00000000000E+00  0.19958673292E+03  0.19958673292E+03  0.00000000000E+00 0.  1.
          1   -1    0    0  501    0  0.00000000000E+00 -0.00000000000E+00 -0.73605566094E+02  0.73605566094E+02  0.00000000000E+00 0. -1.
         25    2    1    2    0    0 -0.25148927729E+02 -0.26199158789E+02  0.26721149878E+02  0.13297004513E+03  0.12509255999E+03 0.  0.
          5    1    3    3  502    0  0.37352752591E+02  0.12967298335E+02 -0.21054203705E+02  0.44990341695E+02  0.41800000000E+01 0. -1.
         -5    1    3    3    0  502 -0.62501680320E+02 -0.39166457124E+02  0.47775353582E+02  0.87979703434E+02  0.41800000000E+01 0. -1.
        -11    1    1    2    0    0  0.46757239710E+02  0.44560897699E+02  0.44127661423E+02  0.78225082753E+02  0.00000000000E+00 0. -1.
         11    1    1    2    0    0 -0.21608311981E+02 -0.18361738910E+02  0.55132355524E+02  0.61997171130E+02  0.00000000000E+00 0.  1.
</event>
<event>
 7    1  0.2841804E-009  0.1560939E+03  0.7561462E-02  0.1193179E+00
         -2   -1    0    0    0  501 -0.00000000000E+00  0.00000000000E+00  0.64711997566E+02  0.64711997566E+02  0.00000000000E+00 0.  1.
          2   -1    0    0  501    0  0.00000000000E+00 -0.00000000000E+00 -0.44635585561E+03  0.44635585561E+03  0.00000000000E+00 0. -1.
         25    2    1    2    0    0 -0.53401876347E+02  0.85049158543E+02 -0.27875884070E+03  0.32161797941E+03  0.12508602498E+03 0.  0.
          5    1    3    3  502    0  0.24089454622E+02 -0.15997753632E+02 -0.83534521563E+02  0.88496997904E+02  0.41800000000E+01 0. -1.
         -5    1    3    3    0  502 -0.77491330969E+02  0.10104691218E+03 -0.19522431914E+03  0.23312098151E+03  0.41800000000E+01 0. -1.
        -11    1    1    2    0    0  0.91394785267E+02 -0.68009706128E+02 -0.91945750270E+02  0.14639790946E+03  0.00000000000E+00 0. -1.
         11    1    1    2    0    0 -0.37992908919E+02 -0.17039452416E+02 -0.10939267077E+02  0.43051964310E+02  0.00000000000E+00 0.  1.
</event>
<event>
 7    1  0.2841804E-009  0.1017572E+03  0.7561462E-02  0.1276644E+00
         -1   -1    0    0    0  501 -0.00000000000E+00  0.00000000000E+00  0.26028346062E+02  0.26028346062E+02  0.00000000000E+00 0.  1.
          1   -1    0    0  501    0  0.00000000000E+00 -0.00000000000E+00 -0.63081255011E+03  0.63081255011E+03  0.00000000000E+00 0. -1.
         25    2    1    2    0    0 -0.46154221455E+02  0.13120189360E+02 -0.47702224054E+03  0.49547832088E+03  0.12508475915E+03 0.  0.
          5    1    3    3  502    0 -0.31369250575E+02  0.65923200515E+02 -0.19761964837E+03  0.21071520133E+03  0.41800000000E+01 0.  1.
         -5    1    3    3    0  502 -0.14784970879E+02 -0.52803011155E+02 -0.27940259216E+03  0.28476311955E+03  0.41800000000E+01 0.  1.
        -11    1    1    2    0    0 -0.13452933391E+02 -0.78026547373E+01  0.45017083479E+01  0.16190374172E+02  0.00000000000E+00 0.  1.
         11    1    1    2    0    0  0.59607154846E+02 -0.53175346224E+01 -0.13226367186E+03  0.14517220112E+03  0.00000000000E+00 0. -1.
</event>
<event>
 7    1  0.2841804E-009  0.1166015E+03  0.7561462E-02  0.1248811E+00
         -1   -1    0    0    0  501 -0.00000000000E+00  0.00000000000E+00  0.22444747514E+02  0.22444747514E+02  0.00000000000E+00 0.  1.
          1   -1    0    0  501    0  0.00000000000E+00 -0.00000000000E+00 -0.65754745741E+03  0.65754745741E+03  0.00000000000E+00 0. -1.
         25    2    1    2    0    0  0.43289505955E+02  0.23079694749E+02 -0.29264213327E+03  0.32201400085E+03  0.12508774896E+03 0.  0.
          5    1    3    3  502    0 -0.17573613114E+02  0.56868424638E+02 -0.17896565650E+03  0.18865054520E+03  0.41800000000E+01 0. -1.
         -5    1    3    3    0  502  0.60863119069E+02 -0.33788729889E+02 -0.11367647677E+03  0.13336345564E+03  0.41800000000E+01 0. -1.
        -11    1    1    2    0    0  0.21589643254E+02 -0.31692665848E+02 -0.14312072241E+03  0.14816908905E+03  0.00000000000E+00 0.  1.
         11    1    1    2    0    0 -0.64879149209E+02  0.86129710989E+01 -0.19933985421E+03  0.20980911503E+03  0.00000000000E+00 0. -1.
</event>
<event>
 7    1  0.2841804E-009  0.1042070E+03  0.7561462E-02  0.1271690E+00
          2   -1    0    0  501    0  0.00000000000E+00  0.00000000000E+00  0.34166893405E+03  0.34166893405E+03  0.00000000000E+00 0. -1.
         -2   -1    0    0    0  501 -0.00000000000E+00 -0.00000000000E+00 -0.40510335043E+02  0.40510335043E+02  0.00000000000E+00 0.  1.
         25    2    1    2    0    0 -0.24515014082E+02  0.39181366024E+02  0.17123020169E+03  0.21703404696E+03  0.12509128750E+03 0.  0.
          5    1    3    3  502    0  0.22475879238E+01  0.78281507424E+02  0.69732962670E+02  0.10494381611E+03  0.41800000000E+01 0.  1.
         -5    1    3    3    0  502 -0.26762602006E+02 -0.39100141400E+02  0.10149723902E+03  0.11209023085E+03  0.41800000000E+01 0.  1.
        -11    1    1    2    0    0 -0.22603958727E+02 -0.25649752356E+01  0.91226145741E+02  0.94019826179E+02  0.00000000000E+00 0. -1.
         11    1    1    2    0    0  0.47118972810E+02 -0.36616390788E+02  0.38702251577E+02  0.71125395958E+02  0.00000000000E+00 0.  1.
</event>
<event>
 7    1  0.2841804E-009  0.1589598E+03  0.7561462E-02  0.1189876E+00
         -3   -1    0    0    0  501 -0.00000000000E+00  0.00000000000E+00  0.41048074523E+03  0.41048074523E+03  0.00000000000E+00 0.  1.
          3   -1    0    0  501    0  0.00000000000E+00 -0.00000000000E+00 -0.77489556226E+02  0.77489556226E+02  0.00000000000E+00 0. -1.
         25    2    1    2    0    0 -0.42248698840E+02  0.11728192903E+03  0.26990100569E+03  0.32254315245E+03  0.12509008309E+03 0.  0.
          5    1    3    3  502    0  0.44670421988E+02  0.43702039743E+02  0.97361359843E+02  0.11576710098E+03  0.41800000000E+01 0.  1.
         -5    1    3    3    0  502 -0.86919120828E+02  0.73579889283E+02  0.17253964585E+03  0.20677605147E+03  0.41800000000E+01 0.  1.
        -11    1    1    2    0    0 -0.28102488131E+01 -0.86988785862E+02  0.69260220755E+01  0.87309313054E+02  0.00000000000E+00 0. -1.
         11    1    1    2    0    0  0.45058947653E+02 -0.30293143165E+02  0.56164161230E+02  0.78117835947E+02  0.00000000000E+00 0.  1.
</event>
<event>
 7    1  0.2841804E-009  0.1079475E+03  0.7561462E-02  0.1264419E+00
          1   -1    0    0  501    0  0.00000000000E+00  0.00000000000E+00  0.26277398326E+02  0.26277398326E+02  0.00000000000E+00 0. -1.
         -1   -1    0    0    0  501 -0.00000000000E+00 -0.00000000000E+00 -0.73526919999E+03  0.73526919999E+03  0.00000000000E+00 0.  1.
         25    2    1    2    0    0 -0.40534146511E-01  0.81388815003E+02 -0.45601853081E+03  0.47981732035E+03  0.12509044574E+03 0.  0.
          5    1    3    3  502    0 -0.21675823809E+02  0.10201644674E+02 -0.79362162665E+01  0.25580672792E+02  0.41800000000E+01 0. -1.
         -5    1    3    3    0  502  0.21635289663E+02  0.71187170329E+02 -0.44808231455E+03  0.45423664756E+03  0.41800000000E+01 0. -1.
        -11    1    1    2    0    0  0.24722887831E+01  0.17733427214E+02 -0.13142505010E+02  0.22210630124E+02  0.00000000000E+00 0. -1.
         11    1    1    2    0    0 -0.24317546366E+01 -0.99122242216E+02 -0.23983076584E+03  0.25951864784E+03  0.00000000000E+00 0.  1.
</event>
<event>
 7    1  0.2841804E-009  0.1012670E+03  0.7561462E-02  0.1277654E+00
         -2   -1    0    0    0  501 -0.00000000000E+00  0.00000000000E+00  0.42656302176E+02  0.42656302176E+02  0.00000000000E+00 0.  1.
          2   -1    0    0  501    0  0.00000000000E+00 -0.00000000000E+00 -0.89997242399E+03  0.89997242399E+03  0.00000000000E+00 0. -1.
         25    2    1    2    0    0  0.52419658412E+01 -0.49404676424E+02 -0.82044889178E+03  0.83141589138E+03  0.12509076768E+03 0.  0.
          5    1    3    3  502    0 -0.30635074653E+02 -0.78056150070E+02 -0.62439248182E+03  0.63001167776E+03  0.41800000000E+01 0.  1.
         -5    1    3    3    0  502  0.35877040494E+02  0.28651473647E+02 -0.19605640995E+03  0.20140421361E+03  0.41800000000E+01 0.  1.
        -11    1    1    2    0    0 -0.28118161530E+02  0.17168576546E+02 -0.57765646177E+02  0.66500082005E+02  0.00000000000E+00 0. -1.
         11    1    1    2    0    0  0.22876195689E+02  0.32236099877E+02  0.20898416139E+02  0.44712752785E+02  0.00000000000E+00 0.  1.
</event>
<event>
 7    1  0.2841804E-009  0.1182216E+03  0.7561462E-02  0.1246060E+00
          2   -1    0    0  501    0  0.00000000000E+00  0.00000000000E+00  0.89885151240E+02  0.89885151240E+02  0.00000000000E+00 0. -1.
         -2   -1    0    0    0  501 -0.00000000000E+00 -0.00000000000E+00 -0.17631164677E+03  0.17631164677E+03  0.00000000000E+00 0.  1.
         25    2    1    2    0    0 -0.53678163393E+02 -0.20204597149E+02 -0.79685035262E+02  0.15900473724E+03  0.12507290133E+03 0.  0.
          5    1    3    3  502    0 -0.60676952155E+02  0.41204876195E+02 -0.57183416680E+02  0.93096454757E+02  0.41800000000E+01 0. -1.
         -5    1    3    3    0  502  0.69987887628E+01 -0.61409473345E+02 -0.22501618582E+02  0.65908282480E+02  0.41800000000E+01 0. -1.
        -11    1    1    2    0    0 -0.18448678605E+02 -0.12034255583E+02 -0.16591617847E+02  0.27576418051E+02  0.00000000000E+00 0.  1.
         11    1    1    2    0    0  0.72126841998E+02  0.32238852732E+02  0.98501575778E+01  0.79615642724E+02  0.00000000000E+00 0. -1.
</event>
<event>
 7    1  0.2841804E-009  0.1330796E+03  0.7561462E-02  0.1222956E+00
         -1   -1    0    0    0  501 -0.00000000000E+00  0.00000000000E+00  0.12119710025E+03  0.12119710025E+03  0.00000000000E+00 0.  1.
          1   -1    0    0  501    0  0.00000000000E+00 -0.00000000000E+00 -0.18740293768E+03  0.18740293768E+03  0.00000000000E+00 0. -1.
         25    2    1    2    0    0 -0.81662494368E+02 -0.50441413527E+02  0.74848756633E+01  0.15785104916E+03  0.12509129135E+03 0.  0.
          5    1    3    3  502    0 -0.39267397802E+02 -0.86893539284E+02 -0.16512860029E+02  0.96863629117E+02  0.41800000000E+01 0.  1.
         -5    1    3    3    0  502 -0.42395096565E+02  0.36452125757E+02  0.23997735692E+02  0.60987420042E+02  0.41800000000E+01 0.  1.
        -11    1    1    2    0    0  0.26905997363E+02 -0.13796825214E+02  0.10035185071E+02  0.31858908008E+02  0.00000000000E+00 0.  1.
         11    1    1    2    0    0  0.54756497005E+02  0.64238238740E+02 -0.83725898158E+02  0.11889008076E+03  0.00000000000E+00 0. -1.
</event>
<event>
 6    1  0.2841804E-009  0.9212754E+02  0.7561462E-02  0.1297780E+00
         -2   -1    0    0    0  501 -0.00000000000E+00  0.00000000000E+00  0.82147043139E+02  0.82147043139E+02  0.00000000000E+00 0.  1.
          2   -1    0    0  501    0  0.00000000000E+00 -0.00000000000E+00 -0.15849334128E+03  0.15849334128E+03  0.00000000000E+00 0. -1.
          5    1    1    2  502    0 -0.47102855474E+02 -0.24145530846E+02  0.59208317728E+01  0.53424847239E+02  0.41800000000E+01 0. -1.
         -5    1    1    2    0  502  0.29210206145E+02  0.46437404933E+02 -0.73034279687E+02  0.91439308447E+02  0.41800000000E+01 0. -1.
        -11    1    1    2    0    0  0.21104334432E+02 -0.46844021940E+02  0.22023986071E+02  0.55900011501E+02  0.00000000000E+00 0. -1.
         11    1    1    2    0    0 -0.32116851033E+01  0.24552147852E+02 -0.31256836298E+02  0.39876217232E+02  0.00000000000E+00 0.  1.
</event>
<event>
 7    1  0.2841804E-009  0.6676456E+02  0.7561462E-02  0.1371454E+00
          2   -1    0    0  501    0  0.00000000000E+00  0.00000000000E+00  0.17961495948E+03  0.17961495948E+03  0.00000000000E+00 0. -1.
         -2   -1    0    0    0  501 -0.00000000000E+00 -0.00000000000E+00 -0.92072848967E+02  0.92072848967E+02  0.00000000000E+00 0.  1.
         25    2    1    2    0    0 -0.96815788742E+01  0.10376991384E+02  0.11989624452E+03  0.17385459095E+03  0.12509554118E+03 0.  0.
          5    1    3    3  502    0  0.38137552691E+01 -0.13409056592E+02  0.13930297308E+03  0.14006119462E+03  0.41800000000E+01 0. -1.
         -5    1    3    3    0  502 -0.13495334143E+02  0.23786047976E+02 -0.19406728560E+02  0.33793396328E+02  0.41800000000E+01 0. -1.
        -11    1    1    2    0    0  0.45770336837E+02  0.13877340184E+02 -0.96914628619E+01  0.48799884806E+02  0.00000000000E+00 0. -1.
         11    1    1    2    0    0 -0.36088757963E+02 -0.24254331567E+02 -0.22662671152E+02  0.49033332691E+02  0.00000000000E+00 0.  1.
</event>
<event>
 7    1  0.2841804E-009  0.4993936E+02  0.7561462E-02  0.1445669E+00
          2   -1    0    0  501    0  0.00000000000E+00  0.00000000000E+00  0.78043446592E+02  0.78043446592E+02  0.00000000000E+00 0. -1.
         -2   -1    0    0    0  501 -0.00000000000E+00 -0.00000000000E+00 -0.15406114760E+03  0.15406114760E+03  0.00000000000E+00 0.  1.
         25    2    1    2    0    0  0.95569740746E+01 -0.15881895258E+01 -0.24175356198E+02  0.12777585331E+03  0.12509341607E+03 0.  0.
          5    1    3    3  502    0  0.21496382759E+02 -0.15607526354E+00  0.48910530146E+02  0.53589469025E+02  0.41800000000E+01 0. -1.
         -5    1    3    3    0  502 -0.11939408684E+02 -0.14321142623E+01 -0.73085886344E+02  0.74186384288E+02  0.41800000000E+01 0. -1.
        -11    1    1    2    0    0 -0.32914871439E+02  0.17215259275E+02  0.81959665845E+01  0.38038503941E+02  0.00000000000E+00 0. -1.
         11    1    1    2    0    0  0.23357897365E+02 -0.15627069749E+02 -0.60038311400E+02  0.66290236943E+02  0.00000000000E+00 0.  1.
</event>
<event>
 7    1  0.2841804E-009  0.1169119E+03  0.7561462E-02  0.1248280E+00
          1   -1    0    0  501    0  0.00000000000E+00  0.00000000000E+00  0.64917929193E+03  0.64917929193E+03  0.00000000000E+00 0. -1.
         -1   -1    0    0    0  501 -0.00000000000E+00 -0.00000000000E+00 -0.30846658861E+02  0.30846658861E+02  0.00000000000E+00 0.  1.
         25    2    1    2    0    0 -0.33284893180E+02 -0.78602617754E+02  0.37260342855E+03  0.40220251407E+03  0.12508913513E+03 0.  0.
          5    1    3    3  502    0  0.20352382330E+02 -0.10600783321E+02  0.25512622801E+03  0.25619028220E+03  0.41800000000E+01 0. -1.
         -5    1    3    3    0  502 -0.53637275510E+02 -0.68001834434E+02  0.11747720054E+03  0.14601223187E+03  0.41800000000E+01 0. -1.
        -11    1    1    2    0    0  0.21571201187E+02 -0.17003626097E+02  0.25617869150E+02  0.37559489358E+02  0.00000000000E+00 0.  1.
         11    1    1    2    0    0  0.11713691993E+02  0.95606243851E+02  0.22011133537E+03  0.24026394736E+03  0.00000000000E+00 0. -1.
</event>
<event>
 7    1  0.2841804E-009  0.1010449E+03  0.7561462E-02  0.1278114E+00
          2   -1    0    0  501    0  0.00000000000E+00  0.00000000000E+00  0.24053308191E+03  0.24053308191E+03  0.00000000000E+00 0. -1.
         -2   -1    0    0    0  501 -0.00000000000E+00 -0.00000000000E+00 -0.73819672766E+02  0.73819672766E+02  0.00000000000E+00 0.  1.
         25    2    1    2    0    0  0.81808471727E+01 -0.45354081797E+02  0.16506092564E+03  0.21217216109E+03  0.12509195727E+03 0.  0.
          5    1    3    3  502    0 -0.33069529842E+02 -0.75116598757E+02  0.10565471224E+03  0.13385248534E+03  0.41800000000E+01 0. -1.
         -5    1    3    3    0  502  0.41250377014E+02  0.29762516960E+02  0.59406213403E+02  0.78319675756E+02  0.41800000000E+01 0. -1.
        -11    1    1    2    0    0  0.21650368183E+02  0.23057221391E+02 -0.36884274742E+02  0.48588307482E+02  0.00000000000E+00 0.  1.
         11    1    1    2    0    0 -0.29831215356E+02  0.22296860406E+02  0.38536758246E+02  0.53592286103E+02  0.00000000000E+00 0. -1.
</event>
<event>
 7    1  0.3268056E-009  0.1157695E+03  0.7561462E-02  0.1250244E+00
          2   -1    0    0  501    0  0.00000000000E+00  0.00000000000E+00  0.41248189361E+03  0.41248189361E+03  0.00000000000E+00 0.  1.
         -2   -1    0    0    0  501 -0.00000000000E+00 -0.00000000000E+00 -0.41123355389E+02  0.41123355389E+02  0.00000000000E+00 0. -1.
         25    2    1    2    0    0  0.71376310356E+02  0.71453202974E+01  0.21024978200E+03  0.25494708992E+03  0.12508962605E+03 0.  0.
          5    1    3    3  502    0 -0.34826472634E+02  0.28259713210E+01  0.33082128444E+02  0.48298746696E+02  0.41800000000E+01 0.  1.
         -5    1    3    3    0  502  0.10620278299E+03  0.43193489764E+01  0.17716765356E+03  0.20664834323E+03  0.41800000000E+01 0.  1.
        -11    1    1    2    0    0 -0.43204349017E+02 -0.30907125499E+02  0.27022870032E+02  0.59599510781E+02  0.00000000000E+00 0. -1.
         11    1    1    2    0    0 -0.28171961339E+02  0.23761805202E+02  0.13408588619E+03  0.13905864830E+03  0.00000000000E+00 0.  1.
</event>
<event>
 7    1  0.2841804E-009  0.1698010E+03  0.7561462E-02  0.1178056E+00
          2   -1    0    0  501    0  0.00000000000E+00  0.00000000000E+00  0.10479306358E+04  0.10479306358E+04  0.00000000000E+00 0. -1.
         -2   -1    0    0    0  501 -0.00000000000E+00 -0.00000000000E+00 -0.32367845148E+02  0.32367845148E+02  0.00000000000E+00 0.  1.
         25    2    1    2    0    0 -0.13286403112E+03  0.50226747972E+02  0.64270502891E+03  0.66999465300E+03  0.12508998315E+03 0.  0.
          5    1    3    3  502    0 -0.14311799524E+03  0.72184575709E+02  0.49691148878E+03  0.52214162218E+03  0.41800000000E+01 0. -1.
         -5    1    3    3    0  502  0.10253964117E+02 -0.21957827737E+02  0.14579354014E+03  0.14785303083E+03  0.41800000000E+01 0. -1.
        -11    1    1    2    0    0  0.29329732020E+02 -0.41424148791E+02  0.21789636725E+03  0.22372979271E+03  0.00000000000E+00 0. -1.
         11    1    1    2    0    0  0.10353429910E+03 -0.88025991809E+01  0.15496139448E+03  0.18657403523E+03  0.00000000000E+00 0.  1.
</event>
<event>
 7    1  0.2841804E-009  0.9022782E+02  0.7561462E-02  0.1302301E+00
         -1   -1    0    0    0  501 -0.00000000000E+00  0.00000000000E+00  0.35892159431E+02  0.35892159431E+02  0.00000000000E+00 0.  1.
          1   -1    0    0  501    0  0.00000000000E+00 -0.00000000000E+00 -0.46207133163E+03  0.46207133163E+03  0.00000000000E+00 0. -1.
         25    2    1    2    0    0  0.29580735301E+01  0.49935550313E+02 -0.15207402362E+03  0.20316626134E+03  0.12509081382E+03 0.  0.
          5    1    3    3  502    0 -0.72230051843E+01  0.81296301761E+02 -0.49972218466E+02  0.95791207855E+02  0.41800000000E+01 0.  1.
         -5    1    3    3    0  502  0.10181078714E+02 -0.31360751448E+02 -0.10210180516E+03  0.10737505349E+03  0.41800000000E+01 0.  1.
        -11    1    1    2    0    0  0.11141712893E+02  0.23124729669E+01  0.35478618211E+01  0.11919422004E+02  0.00000000000E+00 0.  1.
         11    1    1    2    0    0 -0.14099786423E+02 -0.52248023280E+02 -0.27765301040E+03  0.28287780772E+03  0.00000000000E+00 0. -1.
</event>
<event>
 7    1  0.2841804E-009  0.9908422E+02  0.7561462E-02  0.1282234E+00
         -1   -1    0    0    0  501 -0.00000000000E+00  0.00000000000E+00  0.21049873353E+03  0.21049873353E+03  0.00000000000E+00 0.  1.
          1   -1    0    0  501    0  0.00000000000E+00 -0.00000000000E+00 -0.13222442958E+03  0.13222442958E+03  0.00000000000E+00 0. -1.
         25    2    1    2    0    0 -0.62889532801E+02 -0.23320082186E+02  0.15047786302E+03  0.20685997123E+03  0.12509412804E+03 0.  0.
          5    1    3    3  502    0  0.27353536580E+02 -0.28067936166E+02  0.11545062403E+02  0.41070498778E+02  0.41800000000E+01 0. -1.
         -5    1    3    3    0  502 -0.90243069380E+02  0.47478539802E+01  0.13893280062E+03  0.16578947246E+03  0.41800000000E+01 0. -1.
        -11    1    1    2    0    0  0.28982488601E+02  0.39797628236E+01 -0.88764016251E+02  0.93460546428E+02  0.00000000000E+00 0. -1.
         11    1    1    2    0    0  0.33907044200E+02  0.19340319362E+02  0.16560457175E+02  0.42402645451E+02  0.00000000000E+00 0.  1.
</event>
<event>
 7    1  0.2841804E-009  0.7656430E+02  0.7561462E-02  0.1339094E+00
          1   -1    0    0  501    0  0.00000000000E+00  0.00000000000E+00  0.50078845280E+03  0.50078845280E+03  0.00000000000E+00 0. -1.
         -1   -1    0    0    0  501 -0.00000000000E+00 -0.00000000000E+00 -0.27640827754E+02  0.27640827754E+02  0.00000000000E+00 0.  1.
         25    2    1    2    0    0  0.40844714589E+02 -0.20302811817E+02  0.24172158258E+03  0.27596560204E+03  0.12508874907E+03 0.  0.
          5    1    3    3  502    0 -0.12300468414E+02 -0.15572363578E+02 -0.70744900774E+01  0.21478380769E+02  0.41800000000E+01 0.  1.
         -5    1    3    3    0  502  0.53145183002E+02 -0.47304482389E+01  0.24879607266E+03  0.25448722127E+03  0.41800000000E+01 0.  1.
        -11    1    1    2    0    0 -0.24983553912E+02  0.44127099073E+02  0.59523668921E+02  0.78194923112E+02  0.00000000000E+00 0.  1.
         11    1    1    2    0    0 -0.15861160676E+02 -0.23824287256E+02  0.17190237354E+03  0.17426875540E+03  0.00000000000E+00 0. -1.
</event>
<event>
 7    1  0.2841804E-009  0.1180441E+03  0.7561462E-02  0.1246359E+00
          1   -1    0    0  501    0  0.00000000000E+00  0.00000000000E+00  0.11356162439E+04  0.11356162439E+04  0.00000000000E+00 0. -1.
         -1   -1    0    0    0  501 -0.00000000000E+00 -0.00000000000E+00 -0.36573417385E+02  0.36573417385E+02  0.00000000000E+00 0.  1.
         25    2    1    2    0    0 -0.20874796556E+02 -0.45371534846E+02  0.10433166465E+04  0.10519750563E+04  0.12509021081E+03 0.  0.
          5    1    3    3  502    0 -0.47820316551E+02 -0.78054669687E+02  0.66911201200E+03  0.67535743953E+03  0.41800000000E+01 0.  1.
         -5    1    3    3    0  502  0.26945519994E+02  0.32683134840E+02  0.37420463452E+03  0.37661761675E+03  0.41800000000E+01 0.  1.
        -11    1    1    2    0    0 -0.35176752104E+02  0.17158040799E+02  0.48651448872E+01  0.39439471185E+02  0.00000000000E+00 0.  1.
         11    1    1    2    0    0  0.56051548660E+02  0.28213494048E+02  0.50861035162E+02  0.80775133867E+02  0.00000000000E+00 0. -1.
</event>
<event>
 7    1  0.2841804E-009  0.1538903E+03  0.7561462E-02  0.1195773E+00
          2   -1    0    0  501    0  0.00000000000E+00  0.00000000000E+00  0.21452831498E+03  0.21452831498E+03  0.00000000000E+00 0. -1.
         -2   -1    0    0    0  501 -0.00000000000E+00 -0.00000000000E+00 -0.11967926228E+03  0.11967926228E+03  0.00000000000E+00 0.  1.
         25    2    1    2    0    0 -0.11383997729E+03  0.28786559530E+02  0.60117563671E+02  0.18180415202E+03  0.12510164583E+03 0.  0.
          5    1    3    3  502    0 -0.13452596564E+03  0.12635115037E+02  0.71461601111E+02  0.15290884343E+03  0.41800000000E+01 0.  1.
         -5    1    3    3    0  502  0.20685988352E+02  0.16151444493E+02 -0.11344037440E+02  0.28895308594E+02  0.41800000000E+01 0.  1.
        -11    1    1    2    0    0 -0.18705483784E+01  0.20260142300E+02  0.14792600498E+02  0.25155384051E+02  0.00000000000E+00 0. -1.
         11    1    1    2    0    0  0.11571052567E+03 -0.49046701831E+02  0.19938888533E+02  0.12724804119E+03  0.00000000000E+00 0.  1.
</event>
<event>
 7    1  0.2841804E-009  0.6680557E+02  0.7561462E-02  0.1371306E+00
         -2   -1    0    0    0  501 -0.00000000000E+00  0.00000000000E+00  0.15739904115E+03  0.15739904115E+03  0.00000000000E+00 0. -1.
          2   -1    0    0  501    0  0.00000000000E+00 -0.00000000000E+00 -0.89063613241E+02  0.89063613241E+02  0.00000000000E+00 0.  1.
         25    2    1    2    0    0 -0.46366177177E+02  0.82970472584E+01  0.48874874513E+02  0.14231821572E+03  0.12508820004E+03 0.  0.
          5    1    3    3  502    0  0.59416491391E+01 -0.11703297324E+02  0.77896806044E+02  0.79105342137E+02  0.41800000000E+01 0.  1.
         -5    1    3    3    0  502 -0.52307826316E+02  0.20000344583E+02 -0.29021931531E+02  0.63212873587E+02  0.41800000000E+01 0.  1.
        -11    1    1    2    0    0  0.53332036595E+02 -0.65075837181E+00 -0.24707878599E+02  0.58781024818E+02  0.00000000000E+00 0.  1.
         11    1    1    2    0    0 -0.69658594177E+01 -0.76462888866E+01  0.44168431994E+02  0.45363413848E+02  0.00000000000E+00 0. -1.
</event>
<event>
 7    1  0.2841804E-009  0.1092931E+03  0.7561462E-02  0.1261885E+00
          1   -1    0    0  501    0  0.00000000000E+00  0.00000000000E+00  0.11227137690E+03  0.11227137690E+03  0.00000000000E+00 0. -1.
         -1   -1    0    0    0  501 -0.00000000000E+00 -0.00000000000E+00 -0.21082770955E+03  0.21082770955E+03  0.00000000000E+00 0.  1.
         25    2    1    2    0    0 -0.88975569214E+01 -0.72687107570E+02  0.30363210115E+02  0.14809321848E+03  0.12508834760E+03 0.  0.
          5    1    3    3  502    0  0.36401313453E+02 -0.83178676740E+02 -0.26246429805E+01  0.90929142942E+02  0.41800000000E+01 0.  1.
         -5    1    3    3    0  502 -0.45298870374E+02  0.10491569170E+02  0.32987853095E+02  0.57164075543E+02  0.41800000000E+01 0.  1.
        -11    1    1    2    0    0 -0.13020860702E+02  0.19130126044E+02  0.94705507434E+01  0.25003917039E+02  0.00000000000E+00 0. -1.
         11    1    1    2    0    0  0.21918417624E+02  0.53556981526E+02 -0.13839009351E+03  0.15000195093E+03  0.00000000000E+00 0.  1.
</event>
<event>
 7    1  0.2841804E-009  0.9547976E+02  0.7561462E-02  0.1290099E+00
          2   -1    0    0  501    0  0.00000000000E+00  0.00000000000E+00  0.15217571961E+03  0.15217571961E+03  0.00000000000E+00 0.  1.
         -2   -1    0    0    0  501 -0.00000000000E+00 -0.00000000000E+00 -0.11567468737E+03  0.11567468737E+03  0.00000000000E+00 0. -1.
         25    2    1    2    0    0 -0.24116501308E+01  0.58941967028E+02 -0.24499862500E+02  0.14045288747E+03  0.12508716482E+03 0.  0.
          5    1    3    3  502    0 -0.55558241562E+02  0.50769751399E+02 -0.38629267934E+02  0.84699342404E+02  0.41800000000E+01 0. -1.
         -5    1    3    3    0  502  0.53146591432E+02  0.81722156288E+01  0.14129405434E+02  0.55753545062E+02  0.41800000000E+01 0. -1.
        -11    1    1    2    0    0 -0.69738452567E+01 -0.12946198666E+02 -0.25238119440E+02  0.29209608872E+02  0.00000000000E+00 0. -1.
         11    1    1    2    0    0  0.93854953875E+01 -0.45995768362E+02  0.86239014174E+02  0.98187910644E+02  0.00000000000E+00 0.  1.
</event>
<event>
 7    1  0.2841804E-009  0.7593872E+02  0.7561462E-02  0.1340989E+00
         -2   -1    0    0    0  501 -0.00000000000E+00  0.00000000000E+00  0.38954026427E+03  0.38954026427E+03  0.00000000000E+00 0.  1.
          2   -1    0    0  501    0  0.00000000000E+00 -0.00000000000E+00 -0.52234516110E+02  0.52234516110E+02  0.00000000000E+00 0. -1.
         25    2    1    2    0    0 -0.15548136849E+02  0.68510157315E+01  0.49081055594E+02  0.13544440591E+03  0.12509019186E+03 0.  0.
          5    1    3    3  502    0 -0.19568328645E+02 -0.15324717677E+02  0.87307394693E+02  0.90872548253E+02  0.41800000000E+01 0.  1.
         -5    1    3    3    0  502  0.40201917964E+01  0.22175733408E+02 -0.38226339099E+02  0.44571857659E+02  0.41800000000E+01 0.  1.
        -11    1    1    2    0    0 -0.24219107430E+02 -0.43425742036E+02  0.13901580751E+03  0.14764062779E+03  0.00000000000E+00 0.  1.
         11    1    1    2    0    0  0.39767244279E+02  0.36574726305E+02  0.14920888506E+03  0.15868974668E+03  0.00000000000E+00 0. -1.
</event>
<event>
 7    1  0.2841804E-009  0.1134604E+03  0.7561462E-02  0.1254293E+00
          1   -1    0    0  501    0  0.00000000000E+00  0.00000000000E+00  0.44782574436E+02  0.44782574436E+02  0.00000000000E+00 0. -1.
         -1   -1    0    0    0  501 -0.00000000000E+00 -0.00000000000E+00 -0.33209187084E+03  0.33209187084E+03  0.00000000000E+00 0.  1.
         25    2    1    2    0    0 -0.17708658627E+02  0.53399656680E+02 -0.16144898799E+03  0.21184638043E+03  0.12509193920E+03 0.  0.
          5    1    3    3  502    0 -0.11564639899E+02  0.89057053247E+02 -0.14770979251E+03  0.17291776899E+03  0.41800000000E+01 0. -1.
         -5    1    3    3    0  502 -0.61440187277E+01 -0.35657396567E+02 -0.13739195480E+02  0.38928611438E+02  0.41800000000E+01 0. -1.
        -11    1    1    2    0    0  0.42698019181E+02 -0.11913710023E+01 -0.81815998159E+02  0.92295166513E+02  0.00000000000E+00 0.  1.
         11    1    1    2    0    0 -0.24989360554E+02 -0.52208285678E+02 -0.44044310249E+02  0.72732898331E+02  0.00000000000E+00 0. -1.
</event>
<event>
 7    1  0.2841804E-009  0.1230305E+03  0.7561462E-02  0.1238180E+00
         -2   -1    0    0    0  501 -0.00000000000E+00  0.00000000000E+00  0.39535946167E+02  0.39535946167E+02  0.00000000000E+00 0. -1.
          2   -1    0    0  501    0  0.00000000000E+00 -0.00000000000E+00 -0.79801894698E+03  0.79801894698E+03  0.00000000000E+00 0.  1.
         25    2    1    2    0    0 -0.82098534462E+02  0.59781813370E+02 -0.17433729969E+03  0.23739697110E+03  0.12509913372E+03 0.  0.
          5    1    3    3  502    0 -0.29769968541E+02  0.45804169421E+02  0.38672193111E-02  0.54788186485E+02  0.41800000000E+01 0. -1.
         -5    1    3    3    0  502 -0.52328565921E+02  0.13977643949E+02 -0.17434116691E+03  0.18260878462E+03  0.41800000000E+01 0. -1.
        -11    1    1    2    0    0 -0.63406091226E+01 -0.47193922898E+02 -0.17410586215E+03  0.18050019645E+03  0.00000000000E+00 0.  1.
         11    1    1    2    0    0  0.88439143585E+02 -0.12587890471E+02 -0.41003983897E+03  0.41965772559E+03  0.00000000000E+00 0. -1.
</event>
<event>
 7    1  0.2841804E-009  0.1121997E+03  0.7561462E-02  0.1256550E+00
         -1   -1    0    0    0  501 -0.00000000000E+00  0.00000000000E+00  0.17225060820E+03  0.17225060820E+03  0.00000000000E+00 0.  1.
          1   -1    0    0  501    0  0.00000000000E+00 -0.00000000000E+00 -0.10071677664E+03  0.10071677664E+03  0.00000000000E+00 0. -1.
         25    2    1    2    0    0  0.41712282807E+01  0.33361118618E+02  0.10920524784E+03  0.16941865740E+03  0.12508609811E+03 0.  0.
          5    1    3    3  502    0  0.43192207587E+02  0.65592350389E+02  0.69506266843E+02  0.10495959583E+03  0.41800000000E+01 0. -1.
         -5    1    3    3    0  502 -0.39020979306E+02 -0.32231231771E+02  0.39698980993E+02  0.64459061577E+02  0.41800000000E+01 0. -1.
        -11    1    1    2    0    0 -0.44196320062E+02 -0.32630477980E+02 -0.12761805345E+02  0.56399702800E+02  0.00000000000E+00 0.  1.
         11    1    1    2    0    0  0.40025091782E+02 -0.73064063784E+00 -0.24909610929E+02  0.47149024640E+02  0.00000000000E+00 0. -1.
</event>
<event>
 7    1  0.2868219E-009  0.8055106E+02  0.7561462E-02  0.1327495E+00
          1   -1    0    0  501    0  0.00000000000E+00  0.00000000000E+00  0.43351540387E+03  0.43351540387E+03  0.00000000000E+00 0. -1.
         -1   -1    0    0    0  501 -0.00000000000E+00 -0.00000000000E+00 -0.44137752329E+02  0.44137752329E+02  0.00000000000E+00 0.  1.
         25    2    1    2    0    0  0.29867849849E+02 -0.52041901867E+02  0.32038629250E+03  0.34913843722E+03  0.12509925628E+03 0.  0.
          5    1    3    3  502    0 -0.12059969994E+02  0.66670072313E+01 -0.54409043849E+01  0.15393755299E+02  0.41800000000E+01 0. -1.
         -5    1    3    3    0  502  0.41927819843E+02 -0.58708909099E+02  0.32582719688E+03  0.33374468192E+03  0.41800000000E+01 0. -1.
        -11    1    1    2    0    0 -0.29458509442E+01  0.46944943801E+02 -0.71643631728E+01  0.47579763408E+02  0.00000000000E+00 0.  1.
         11    1    1    2    0    0 -0.26921998904E+02  0.50969580662E+01  0.76155722221E+02  0.80934955573E+02  0.00000000000E+00 0. -1.
</event>
<event>
 7    1  0.2841804E-009  0.9905921E+02  0.7561462E-02  0.1282287E+00
          2   -1    0    0  501    0  0.00000000000E+00  0.00000000000E+00  0.11725295184E+04  0.11725295184E+04  0.00000000000E+00 0. -1.
         -2   -1    0    0    0  501 -0.00000000000E+00 -0.00000000000E+00 -0.10384319221E+02  0.10384319221E+02  0.00000000000E+00 0.  1.
         25    2    1    2    0    0  0.58389169434E+01 -0.11625250718E+02  0.83310957199E+03  0.84254909260E+03  0.12509266606E+03 0.  0.
          5    1    3    3  502    0  0.87136173985E+01 -0.62039643639E+02  0.63369506172E+03  0.63679804347E+03  0.41800000000E+01 0.  1.
         -5    1    3    3    0  502 -0.28747004551E+01  0.50414392921E+02  0.19941451027E+03  0.20575104914E+03  0.41800000000E+01 0.  1.
        -11    1    1    2    0    0  0.38992664588E+02  0.41820514032E+01  0.11331472819E+03  0.11990890321E+03  0.00000000000E+00 0.  1.
         11    1    1    2    0    0 -0.44831581531E+02  0.74431993145E+01  0.21572089899E+03  0.22045584179E+03  0.00000000000E+00 0. -1.
</event>
<event>
 7    1  0.2841804E-009  0.9485864E+02  0.7561462E-02  0.1291495E+00
         -2   -1    0    0    0  501 -0.00000000000E+00  0.00000000000E+00  0.94040722666E+02  0.94040722666E+02  0.00000000000E+00 0.  1.
          2   -1    0    0  501    0  0.00000000000E+00 -0.00000000000E+00 -0.14286828256E+03  0.14286828256E+03  0.00000000000E+00 0. -1.
         25    2    1    2    0    0  0.30995245488E+01 -0.14193935771E+02 -0.60390748664E+02  0.13966313963E+03  0.12509066785E+03 0.  0.
          5    1    3    3  502    0  0.24929386578E+02  0.32696547843E+02 -0.75105671913E+02  0.85725567420E+02  0.41800000000E+01 0.  1.
         -5    1    3    3    0  502 -0.21829862029E+02 -0.46890483614E+02  0.14714923249E+02  0.53937572210E+02  0.41800000000E+01 0.  1.
        -11    1    1    2    0    0  0.28056944574E+02  0.44775915567E+02  0.46494094110E+01  0.53044243435E+02  0.00000000000E+00 0.  1.
         11    1    1    2    0    0 -0.31156469123E+02 -0.30581979796E+02  0.69137793613E+01  0.44201622159E+02  0.00000000000E+00 0. -1.
</event>
<event>
 7    1  0.2841804E-009  0.1105171E+03  0.7561462E-02  0.1259615E+00
          1   -1    0    0  501    0  0.00000000000E+00  0.00000000000E+00  0.39990029076E+02  0.39990029076E+02  0.00000000000E+00 0. -1.
         -1   -1    0    0    0  501 -0.00000000000E+00 -0.00000000000E+00 -0.32965679161E+03  0.32965679161E+03  0.00000000000E+00 0.  1.
         25    2    1    2    0    0  0.38900129818E+02  0.31622039969E+01 -0.17468287772E+03  0.21836981083E+03  0.12509215354E+03 0.  0.
          5    1    3    3  502    0  0.11749085235E+02 -0.56181019683E+02 -0.44716834192E+02  0.72879459635E+02  0.41800000000E+01 0. -1.
         -5    1    3    3    0  502  0.27151044582E+02  0.59343223680E+02 -0.12996604353E+03  0.14549035119E+03  0.41800000000E+01 0. -1.
        -11    1    1    2    0    0  0.10892621747E+01 -0.42196331023E+02 -0.54409616219E+02  0.68863075599E+02  0.00000000000E+00 0. -1.
         11    1    1    2    0    0 -0.39989391992E+02  0.39034127026E+02 -0.60574268590E+02  0.82413934258E+02  0.00000000000E+00 0.  1.
</event>
<event>
 7    1  0.3405967E-009  0.9057913E+02  0.7561462E-02  0.1301455E+00
          2   -1    0    0  501    0  0.00000000000E+00  0.00000000000E+00  0.73509665036E+03  0.73509665036E+03  0.00000000000E+00 0. -1.
         -2   -1    0    0    0  501 -0.00000000000E+00 -0.00000000000E+00 -0.27674875523E+02  0.27674875523E+02  0.00000000000E+00 0.  1.
         25    2    1    2    0    0 -0.12963746043E+02 -0.69951551005E+02  0.54005594217E+03  0.55890049790E+03  0.12509223666E+03 0.  0.
          5    1    3    3  502    0 -0.30767819110E+02  0.13475110960E+01  0.39515867402E+03  0.39637901626E+03  0.41800000000E+01 0. -1.
         -5    1    3    3    0  502  0.17804073067E+02 -0.71299062101E+02  0.14489726815E+03  0.16252148163E+03  0.41800000000E+01 0. -1.
        -11    1    1    2    0    0  0.20663499753E+02  0.34680947332E+02  0.88928748859E+01  0.41338015840E+02  0.00000000000E+00 0.  1.
         11    1    1    2    0    0 -0.76997537098E+01  0.35270603674E+02  0.15847295778E+03  0.16253301215E+03  0.00000000000E+00 0. -1.
</event>
<event>
 7    1  0.2841804E-009  0.1517376E+03  0.7561462E-02  0.1198354E+00
         -3   -1    0    0    0  501 -0.00000000000E+00  0.00000000000E+00  0.74155419525E+03  0.74155419525E+03  0.00000000000E+00 0.  1.
          3   -1    0    0  501    0  0.00000000000E+00 -0.00000000000E+00 -0.31102517939E+02  0.31102517939E+02  0.00000000000E+00 0. -1.
         25    2    1    2    0    0  0.57457776501E+02  0.89688962848E+02  0.37490122786E+03  0.40932157996E+03  0.12509084314E+03 0.  0.
          5    1    3    3  502    0  0.96422418238E+02  0.75193682472E+02  0.27126473307E+03  0.29757923387E+03  0.41800000000E+01 0.  1.
         -5    1    3    3    0  502 -0.38964641737E+02  0.14495280376E+02  0.10363649479E+03  0.11174234609E+03  0.41800000000E+01 0.  1.
        -11    1    1    2    0    0 -0.32333029428E+02  0.12083332116E+02  0.81828310602E+02  0.88810495568E+02  0.00000000000E+00 0.  1.
         11    1    1    2    0    0 -0.25124747073E+02 -0.10177229496E+03  0.25372213885E+03  0.27452463765E+03  0.00000000000E+00 0. -1.
</event>
<event>
 7    1  0.2841804E-009  0.1403601E+03  0.7561462E-02  0.1212845E+00
          1   -1    0    0  501    0  0.00000000000E+00  0.00000000000E+00  0.22174939672E+03  0.22174939672E+03  0.00000000000E+00 0. -1.
         -1   -1    0    0    0  501 -0.00000000000E+00 -0.00000000000E+00 -0.10080549535E+03  0.10080549535E+03  0.00000000000E+00 0.  1.
         25    2    1    2    0    0 -0.35103307309E+02 -0.97733309160E+02  0.65386087288E+02  0.17522008486E+03  0.12507076327E+03 0.  0.
          5    1    3    3  502    0  0.38623865162E+02 -0.19116885889E+02  0.50205703302E+02  0.66297385546E+02  0.41800000000E+01 0. -1.
         -5    1    3    3    0  502 -0.73727172471E+02 -0.78616423271E+02  0.15180383987E+02  0.10892269932E+03  0.41800000000E+01 0. -1.
        -11    1    1    2    0    0 -0.24605818679E+02  0.36649206645E+02  0.41840108635E+02  0.60821092979E+02  0.00000000000E+00 0.  1.
         11    1    1    2    0    0  0.59709125988E+02  0.61084102515E+02  0.13717705452E+02  0.86513714226E+02  0.00000000000E+00 0. -1.
</event>
<event>
 7    1  0.2841804E-009  0.1520721E+03  0.7561462E-02  0.1197950E+00
         -1   -1    0    0    0  501 -0.00000000000E+00  0.00000000000E+00  0.31974953558E+02  0.31974953558E+02  0.00000000000E+00 0.  1.
          1   -1    0    0  501    0  0.00000000000E+00 -0.00000000000E+00 -0.96680720987E+03  0.96680720987E+03  0.00000000000E+00 0. -1.
         25    2    1    2    0    0 -0.71933717168E+02 -0.96502551768E+02 -0.68714512254E+03  0.70873308274E+03  0.12508781305E+03 0.  0.
          5    1    3    3  502    0 -0.93146829309E+02 -0.22655177766E+02 -0.41243904644E+03  0.42345369088E+03  0.41800000000E+01 0. -1.
         -5    1    3    3    0  502  0.21213112141E+02 -0.73847374002E+02 -0.27470607610E+03  0.28527939186E+03  0.41800000000E+01 0. -1.
        -11    1    1    2    0    0  0.18855054885E+02 -0.23906727042E+01 -0.11363897317E+03  0.11521737991E+03  0.00000000000E+00 0. -1.
         11    1    1    2    0    0  0.53078662283E+02  0.98893224472E+02 -0.13404816060E+03  0.17483170078E+03  0.00000000000E+00 0.  1.
</event>
<event>
 7    1  0.2841804E-009  0.1140523E+03  0.7561462E-02  0.1253244E+00
          1   -1    0    0  501    0  0.00000000000E+00  0.00000000000E+00  0.86962836785E+02  0.86962836785E+02  0.00000000000E+00 0. -1.
         -1   -1    0    0    0  501 -0.00000000000E+00 -0.00000000000E+00 -0.15315998327E+03  0.15315998327E+03  0.00000000000E+00 0.  1.
         25    2    1    2    0    0 -0.38117855178E+02  0.15044006779E+02 -0.48995153377E+02  0.14045531862E+03  0.12509148033E+03 0.  0.
          5    1    3    3  502    0 -0.54249583657E+02  0.61445221124E+02 -0.26339310096E+02  0.86196079855E+02  0.41800000000E+01 0.  1.
         -5    1    3    3    0  502  0.16131728479E+02 -0.46401214344E+02 -0.22655843281E+02  0.54259238763E+02  0.41800000000E+01 0.  1.
        -11    1    1    2    0    0  0.36404665628E+02  0.32711571724E+02 -0.17213729818E+02  0.51881201783E+02  0.00000000000E+00 0. -1.
         11    1    1    2    0    0  0.17131895500E+01 -0.47755578504E+02  0.11736714568E-01  0.47786299652E+02  0.00000000000E+00 0.  1.
</event>
<event>
 7    1  0.2841804E-009  0.1145755E+03  0.7561462E-02  0.1252324E+00
          1   -1    0    0  501    0  0.00000000000E+00  0.00000000000E+00  0.80434785084E+03  0.80434785084E+03  0.00000000000E+00 0. -1.
         -1   -1    0    0    0  501 -0.00000000000E+00 -0.00000000000E+00 -0.25134202365E+02  0.25134202365E+02  0.00000000000E+00 0.  1.
         25    2    1    2    0    0  0.85252716869E+02  0.31680427976E+02  0.40987344762E+03  0.43808134256E+03  0.12508934558E+03 0.  0.
          5    1    3    3  502    0  0.17748492426E+02 -0.13961888447E+02  0.30628787828E+01  0.23168878670E+02  0.41800000000E+01 0. -1.
         -5    1    3    3    0  502  0.67504224443E+02  0.45642316423E+02  0.40681056884E+03  0.41491246388E+03  0.41800000000E+01 0. -1.
        -11    1    1    2    0    0 -0.61104954059E+02  0.22625391268E+02  0.24607485183E+03  0.25455560580E+03  0.00000000000E+00 0. -1.
         11    1    1    2    0    0 -0.24147762810E+02 -0.54305819244E+02  0.12326534902E+03  0.13684510485E+03  0.00000000000E+00 0.  1.
</event>
<event>
 7    1  0.3138913E-009  0.9382876E+02  0.7561462E-02  0.1293836E+00
         -2   -1    0    0    0  501 -0.00000000000E+00  0.00000000000E+00  0.16928196095E+02  0.16928196095E+02  0.00000000000E+00 0.  1.
          2   -1    0    0  501    0  0.00000000000E+00 -0.00000000000E+00 -0.74345250351E+03  0.74345250351E+03  0.00000000000E+00 0. -1.
         25    2    1    2    0    0  0.20928835104E+02  0.37338360162E+01 -0.48793899852E+03  0.50416627173E+03  0.12508879086E+03 0.  0.
          5    1    3    3  502    0 -0.55030202005E+01 -0.58594603522E+02 -0.21983666438E+03  0.22761643657E+03  0.41800000000E+01 0. -1.
         -5    1    3    3    0  502  0.26431855305E+02  0.62328439538E+02 -0.26810233415E+03  0.27654983516E+03  0.41800000000E+01 0. -1.
        -11    1    1    2    0    0  0.17705648066E+02 -0.11907002930E+02 -0.88328817729E+01  0.23092996615E+02  0.00000000000E+00 0.  1.
         11    1    1    2    0    0 -0.38634483170E+02  0.81731669141E+01 -0.22975242712E+03  0.23312143126E+03  0.00000000000E+00 0. -1.
</event>
<event>
 7    1  0.2841804E-009  0.5576680E+02  0.7561462E-02  0.1416507E+00
         -1   -1    0    0    0  501 -0.00000000000E+00  0.00000000000E+00  0.61856915074E+02  0.61856915074E+02  0.00000000000E+00 0.  1.
          1   -1    0    0  501    0  0.00000000000E+00 -0.00000000000E+00 -0.23928563829E+03  0.23928563829E+03  0.00000000000E+00 0. -1.
         25    2    1    2    0    0 -0.49916312749E+02 -0.10724703325E+02 -0.15647962168E+03  0.20673651282E+03  0.12508979252E+03 0.  0.
          5    1    3    3  502    0 -0.14097464477E+02 -0.87273793198E+01  0.20164243165E+02  0.26438130738E+02  0.41800000000E+01 0.  1.
         -5    1    3    3    0  502 -0.35818848272E+02 -0.19973240056E+01 -0.17664386485E+03  0.18029838209E+03  0.41800000000E+01 0.  1.
        -11    1    1    2    0    0  0.24129959457E+01  0.10541010311E+02  0.25666022980E+02  0.27851035590E+02  0.00000000000E+00 0.  1.
         11    1    1    2    0    0  0.47503316804E+02  0.18369301417E+00 -0.46615124515E+02  0.66555004951E+02  0.00000000000E+00 0. -1.
</event>
<event>
 7    1  0.2841804E-009  0.1150539E+03  0.7561462E-02  0.1251487E+00
         -1   -1    0    0    0  501 -0.00000000000E+00  0.00000000000E+00  0.43441903128E+02  0.43441903128E+02  0.00000000000E+00 0.  1.
          1   -1    0    0  501    0  0.00000000000E+00 -0.00000000000E+00 -0.61957165824E+03  0.61957165824E+03  0.00000000000E+00 0. -1.
         25    2    1    2    0    0  0.83999244027E+02  0.64616540875E+02 -0.40188795726E+03  0.43404252692E+03  0.12509122526E+03 0.  0.
          5    1    3    3  502    0  0.61195407825E+02  0.75942941917E+02 -0.39562475268E+03  0.40749064493E+03  0.41800000000E+01 0.  1.
         -5    1    3    3    0  502  0.22803836202E+02 -0.11326401042E+02 -0.62632045755E+01  0.26551881998E+02  0.41800000000E+01 0.  1.
        -11    1    1    2    0    0 -0.28406526493E+02 -0.14766658664E+02  0.71565350764E+01  0.32805501822E+02  0.00000000000E+00 0.  1.
         11    1    1    2    0    0 -0.55592717534E+02 -0.49849882212E+02 -0.18139833293E+03  0.19616553262E+03  0.00000000000E+00 0. -1.
</event>
<event>
 6    1  0.2841804E-009  0.1069597E+03  0.7561462E-02  0.1266306E+00
          2   -1    0    0  501    0  0.00000000000E+00  0.00000000000E+00  0.49124470191E+02  0.49124470191E+02  0.00000000000E+00 0. -1.
         -2   -1    0    0    0  501 -0.00000000000E+00 -0.00000000000E+00 -0.28089373571E+03  0.28089373571E+03  0.00000000000E+00 0.  1.
          5    1    1    2  502    0 -0.22813588286E+02 -0.73452202872E+02 -0.94438637750E+02  0.12186802131E+03  0.41800000000E+01 0. -1.
         -5    1    1    2    0  502 -0.57050475539E+01  0.44735003320E+02 -0.11831486653E+02  0.46810517687E+02  0.41800000000E+01 0. -1.
        -11    1    1    2    0    0 -0.14295509024E+02 -0.21369365718E+02 -0.72036456693E+02  0.76487008455E+02  0.00000000000E+00 0.  1.
         11    1    1    2    0    0  0.42814144864E+02  0.50086565270E+02 -0.53462684425E+02  0.84852658455E+02  0.00000000000E+00 0. -1.
</event>
<event>
 7    1  0.2841804E-009  0.1417908E+03  0.7561462E-02  0.1210939E+00
         -1   -1    0    0    0  501 -0.00000000000E+00  0.00000000000E+00  0.89743031095E+02  0.89743031095E+02  0.00000000000E+00 0.  1.
          1   -1    0    0  501    0  0.00000000000E+00 -0.00000000000E+00 -0.26089267961E+03  0.26089267961E+03  0.00000000000E+00 0. -1.
         25    2    1    2    0    0 -0.88932682803E+02 -0.60180948863E+02 -0.87675010999E+02  0.18672121691E+03  0.12508851512E+03 0.  0.
          5    1    3    3  502    0  0.11328877515E+02 -0.47839125321E+02  0.49694880986E+01  0.49589248725E+02  0.41800000000E+01 0.  1.
         -5    1    3    3    0  502 -0.10026156032E+03 -0.12341823542E+02 -0.92644499098E+02  0.13713196819E+03  0.41800000000E+01 0.  1.
        -11    1    1    2    0    0  0.12217274264E+02  0.54896908168E+02 -0.62768737748E+02  0.84278388424E+02  0.00000000000E+00 0.  1.
         11    1    1    2    0    0  0.76715408539E+02  0.52840406952E+01 -0.20705899770E+02  0.79636105371E+02  0.00000000000E+00 0. -1.
</event>
<event>
 7    1  0.2841804E-009  0.1283331E+03  0.7561462E-02  0.1229950E+00
         -3   -1    0    0    0  501 -0.00000000000E+00  0.00000000000E+00  0.63800059565E+03  0.63800059565E+03  0.00000000000E+00 0.  1.
          3   -1    0    0  501    0  0.00000000000E+00 -0.00000000000E+00 -0.35845984686E+02  0.35845984686E+02  0.00000000000E+00 0. -1.
         25    2    1    2    0    0  0.95860744926E+02  0.15289101277E+02  0.41429070686E+03  0.44351693326E+03  0.12508973284E+03 0.  0.
          5    1    3    3  502    0  0.10067086264E+03  0.36234402938E+02  0.40636196959E+03  0.42023217067E+03  0.41800000000E+01 0.  1.
         -5    1    3    3    0  502 -0.48101177120E+01 -0.20945301661E+02  0.79287372739E+01  0.23284762589E+02  0.41800000000E+01 0.  1.
        -11    1    1    2    0    0 -0.30667350640E+02 -0.46275800131E+02  0.50001020201E+02  0.74713038314E+02  0.00000000000E+00 0.  1.
         11    1    1    2    0    0 -0.65193394286E+02  0.30986698854E+02  0.13786288390E+03  0.15561660876E+03  0.00000000000E+00 0. -1.
</event>
<event>
 7    1  0.2841804E-009  0.1089245E+03  0.7561462E-02  0.1262575E+00
         -2   -1    0    0    0  501 -0.00000000000E+00  0.00000000000E+00  0.32836363229E+02  0.32836363229E+02  0.00000000000E+00 0. -1.
          2   -1    0    0  501    0  0.00000000000E+00 -0.00000000000E+00 -0.47553137007E+03  0.47553137007E+03  0.00000000000E+00 0.  1.
         25    2    1    2    0    0  0.20513373838E+02  0.29425644495E+02 -0.35264627785E+03  0.37589177703E+03  0.12509421928E+03 0.  0.
          5    1    3    3  502    0  0.69761086279E+02 -0.46104604333E+01 -0.19674224674E+03  0.20883689702E+03  0.41800000000E+01 0. -1.
         -5    1    3    3    0  502 -0.49247712441E+02  0.34036104928E+02 -0.15590403111E+03  0.16705488001E+03  0.41800000000E+01 0. -1.
        -11    1    1    2    0    0  0.11232170771E+02  0.23521380643E+02 -0.36975736789E+01  0.26326584638E+02  0.00000000000E+00 0. -1.
         11    1    1    2    0    0 -0.31745544609E+02 -0.52947025137E+02 -0.86351155308E+02  0.10614937163E+03  0.00000000000E+00 0.  1.
</event>
<event>
 7    1  0.2841804E-009  0.1399612E+03  0.7561462E-02  0.1213381E+00
         -2   -1    0    0    0  501 -0.00000000000E+00  0.00000000000E+00  0.36353315793E+02  0.36353315793E+02  0.00000000000E+00 0.  1.
          2   -1    0    0  501    0  0.00000000000E+00 -0.00000000000E+00 -0.67788331508E+03  0.67788331508E+03  0.00000000000E+00 0. -1.
         25    2    1    2    0    0  0.14416949625E+02  0.10813127086E+03 -0.38360961159E+03  0.41797735633E+03  0.12509402912E+03 0.  0.
          5    1    3    3  502    0  0.46977860441E+02  0.19870672778E+02 -0.24577015418E+03  0.25104223568E+03  0.41800000000E+01 0. -1.
         -5    1    3    3    0  502 -0.32560910816E+02  0.88260598080E+02 -0.13783945741E+03  0.16693512065E+03  0.41800000000E+01 0. -1.
        -11    1    1    2    0    0 -0.43943753553E+02 -0.36597053897E+02 -0.56099255058E+02  0.80109451679E+02  0.00000000000E+00 0.  1.
         11    1    1    2    0    0  0.29526803928E+02 -0.71534216960E+02 -0.20182113264E+03  0.21614982287E+03  0.00000000000E+00 0. -1.
</event>
<event>
 7    1  0.2841804E-009  0.1895159E+03  0.7561462E-02  0.1158899E+00
          1   -1    0    0  501    0  0.00000000000E+00  0.00000000000E+00  0.33255642515E+03  0.33255642515E+03  0.00000000000E+00 0. -1.
         -1   -1    0    0    0  501 -0.00000000000E+00 -0.00000000000E+00 -0.11053329906E+03  0.11053329906E+03  0.00000000000E+00 0.  1.
         25    2    1    2    0    0  0.13219183261E+03  0.85325846312E+02  0.12557981929E+03  0.23700670610E+03  0.12508679812E+03 0.  0.
          5    1    3    3  502    0  0.73040347969E+02  0.11080381272E+03  0.62471985431E+02  0.14673990155E+03  0.41800000000E+01 0. -1.
         -5    1    3    3    0  502  0.59151484644E+02 -0.25477966408E+02  0.63107833857E+02  0.90266804541E+02  0.41800000000E+01 0. -1.
        -11    1    1    2    0    0 -0.70133947135E+02 -0.95851141787E+02  0.56395158371E+02  0.13147861351E+03  0.00000000000E+00 0. -1.
         11    1    1    2    0    0 -0.62057885478E+02  0.10525295475E+02  0.40048148429E+02  0.74604404611E+02  0.00000000000E+00 0.  1.
</event>
<event>
 7    1  0.2841804E-009  0.9960496E+02  0.7561462E-02  0.1281129E+00
         -1   -1    0    0    0  501 -0.00000000000E+00  0.00000000000E+00  0.18505309053E+03  0.18505309053E+03  0.00000000000E+00 0.  1.
          1   -1    0    0  501    0  0.00000000000E+00 -0.00000000000E+00 -0.79425593089E+02  0.79425593089E+02  0.00000000000E+00 0. -1.
         25    2    1    2    0    0 -0.39598995529E+02  0.37581700639E+02  0.62379778111E+02  0.15006567909E+03  0.12509199276E+03 0.  0.
          5    1    3    3  502    0 -0.28162764482E-01  0.67895041292E+02  0.72082072572E+02  0.99111225456E+02  0.41800000000E+01 0. -1.
         -5    1    3    3    0  502 -0.39570832765E+02 -0.30313340653E+02 -0.97022944613E+01  0.50954453633E+02  0.41800000000E+01 0. -1.
        -11    1    1    2    0    0  0.55768792884E+02 -0.29011294151E+02  0.61941268248E+02  0.88252672255E+02  0.00000000000E+00 0.  1.
         11    1    1    2    0    0 -0.16169797355E+02 -0.85704064875E+01 -0.18693548915E+02  0.26160332278E+02  0.00000000000E+00 0. -1.
</event>
<event>
 7    1  0.2841804E-009  0.9862553E+02  0.7561462E-02  0.1283213E+00
         -1   -1    0    0    0  501 -0.00000000000E+00  0.00000000000E+00  0.80067818535E+02  0.80067818535E+02  0.00000000000E+00 0.  1.
          1   -1    0    0  501    0  0.00000000000E+00 -0.00000000000E+00 -0.17052184119E+03  0.17052184119E+03  0.00000000000E+00 0. -1.
         25    2    1    2    0    0  0.17920453545E+02 -0.28482526460E+02 -0.72517113232E+02  0.14845423371E+03  0.12509009084E+03 0.  0.
          5    1    3    3  502    0 -0.13975322866E+02  0.41634189774E+02 -0.52850509582E+02  0.68843040102E+02  0.41800000000E+01 0.  1.
         -5    1    3    3    0  502  0.31895776411E+02 -0.70116716234E+02 -0.19666603649E+02  0.79611193606E+02  0.41800000000E+01 0.  1.
        -11    1    1    2    0    0 -0.25988779814E+02  0.48159708428E+02 -0.42759043025E+02  0.69448613755E+02  0.00000000000E+00 0. -1.
         11    1    1    2    0    0  0.80683262692E+01 -0.19677181968E+02  0.24822133604E+02  0.32686812259E+02  0.00000000000E+00 0.  1.
</event>
<event>
 7    1  0.2841804E-009  0.1400951E+03  0.7561462E-02  0.1213201E+00
         -1   -1    0    0    0  501 -0.00000000000E+00  0.00000000000E+00  0.28073235352E+03  0.28073235352E+03  0.00000000000E+00 0.  1.
          1   -1    0    0  501    0  0.00000000000E+00 -0.00000000000E+00 -0.11127159027E+03  0.11127159027E+03  0.00000000000E+00 0. -1.
         25    2    1    2    0    0  0.75812386465E+02  0.97500672822E+02  0.16006885131E+03  0.23774824436E+03  0.12509313088E+03 0.  0.
          5    1    3    3  502    0  0.79279078464E+02  0.54800980988E+02  0.16824157199E+03  0.19393560464E+03  0.41800000000E+01 0.  1.
         -5    1    3    3    0  502 -0.34666919992E+01  0.42699691833E+02 -0.81727206792E+01  0.43812639722E+02  0.41800000000E+01 0.  1.
        -11    1    1    2    0    0 -0.43834507935E+02 -0.66125515477E+01  0.32749284363E+02  0.55115383970E+02  0.00000000000E+00 0.  1.
         11    1    1    2    0    0 -0.31977878529E+02 -0.90888121274E+02 -0.23357372428E+02  0.99140315466E+02  0.00000000000E+00 0. -1.
</event>
<event>
 6    1  0.2841804E-009  0.6201002E+02  0.7561462E-02  0.1389585E+00
          3   -1    0    0  501    0  0.00000000000E+00  0.00000000000E+00  0.27574963717E+03  0.27574963717E+03  0.00000000000E+00 0. -1.
         -3   -1    0    0    0  501 -0.00000000000E+00 -0.00000000000E+00 -0.51371786967E+02  0.51371786967E+02  0.00000000000E+00 0.  1.
          5    1    1    2  502    0 -0.47375165756E+01 -0.47434892583E+02  0.18147800653E+03  0.18768125200E+03  0.41800000000E+01 0. -1.
         -5    1    1    2    0  502 -0.14955361199E+01  0.29853279431E+01 -0.20259676323E+02  0.20954133147E+02  0.41800000000E+01 0. -1.
        -11    1    1    2    0    0 -0.96960430486E+01  0.52206299807E+02  0.78687253588E+02  0.94927313601E+02  0.00000000000E+00 0. -1.
         11    1    1    2    0    0  0.15929095744E+02 -0.77567351668E+01 -0.15527733591E+02  0.23558725393E+02  0.00000000000E+00 0.  1.
</event>
<event>
 7    1  0.2841804E-009  0.1631317E+03  0.7561462E-02  0.1185206E+00
         -1   -1    0    0    0  501 -0.00000000000E+00  0.00000000000E+00  0.37672002699E+03  0.37672002699E+03  0.00000000000E+00 0.  1.
          1   -1    0    0  501    0  0.00000000000E+00 -0.00000000000E+00 -0.13204376520E+03  0.13204376520E+03  0.00000000000E+00 0. -1.
         25    2    1    2    0    0 -0.65752983771E+02 -0.13441682893E+03 -0.14540420352E+02  0.19557802762E+03  0.12509197532E+03 0.  0.
          5    1    3    3  502    0 -0.72390001589E+02 -0.51783527173E+02  0.38509725814E+02  0.97068622113E+02  0.41800000000E+01 0.  1.
         -5    1    3    3    0  502  0.66370178184E+01 -0.82633301755E+02 -0.53050146166E+02  0.98509405504E+02  0.41800000000E+01 0.  1.
        -11    1    1    2    0    0  0.64744806857E+02  0.96392666789E+02  0.24749833727E+03  0.27338409459E+03  0.00000000000E+00 0.  1.
         11    1    1    2    0    0  0.10081769144E+01  0.38024162139E+02  0.11718344871E+02  0.39801669985E+02  0.00000000000E+00 0. -1.
</event>
<event>
 7    1  0.2996392E-009  0.1914101E+03  0.7561462E-02  0.1157196E+00
          2   -1    0    0  501    0  0.00000000000E+00  0.00000000000E+00  0.76404053224E+03  0.76404053224E+03  0.00000000000E+00 0. -1.
         -2   -1    0    0    0  501 -0.00000000000E+00 -0.00000000000E+00 -0.53726621922E+02  0.53726621922E+02  0.00000000000E+00 0.  1.
         25    2    1    2    0    0 -0.12122251043E+03  0.12021198588E+03  0.38223787393E+03  0.43691749883E+03  0.12508113338E+03 0.  0.
          5    1    3    3  502    0 -0.37415636019E+02 -0.21931069716E+02  0.52923059353E+02  0.68550888024E+02  0.41800000000E+01 0.  1.
         -5    1    3    3    0  502 -0.83806874415E+02  0.14214305559E+03  0.32931481458E+03  0.36836661080E+03  0.41800000000E+01 0.  1.
        -11    1    1    2    0    0  0.47158807131E+02 -0.24432152658E+02  0.34622943937E+02  0.63400563250E+02  0.00000000000E+00 0.  1.
         11    1    1    2    0    0  0.74063703303E+02 -0.95779833218E+02  0.29345309244E+03  0.31744909208E+03  0.00000000000E+00 0. -1.
</event>
<event>
 7    1  0.2841804E-009  0.1538784E+03  0.7561462E-02  0.1195787E+00
         -3   -1    0    0    0  501 -0.00000000000E+00  0.00000000000E+00  0.30549103154E+03  0.30549103154E+03  0.00000000000E+00 0.  1.
          3   -1    0    0  501    0  0.00000000000E+00 -0.00000000000E+00 -0.88385003027E+02  0.88385003027E+02  0.00000000000E+00 0. -1.
         25    2    1    2    0    0  0.11177868224E+03  0.43906683646E+02  0.86981414480E+02  0.19399652308E+03  0.12508642545E+03 0.  0.
          5    1    3    3  502    0 -0.30279344225E+01 -0.26444665343E+02  0.45787487377E+02  0.53126783380E+02  0.41800000000E+01 0.  1.
         -5    1    3    3    0  502  0.11480661666E+03  0.70351348989E+02  0.41193927103E+02  0.14086973970E+03  0.41800000000E+01 0.  1.
        -11    1    1    2    0    0 -0.25217125794E+02 -0.53366168303E+02  0.79963223883E+02  0.99387969727E+02  0.00000000000E+00 0.  1.
         11    1    1    2    0    0 -0.86561556442E+02  0.94594846566E+01  0.50161390152E+02  0.10049154176E+03  0.00000000000E+00 0. -1.
</event>
<event>
 7    1  0.2841804E-009  0.1926021E+03  0.7561462E-02  0.1156135E+00
          3   -1    0    0  501    0  0.00000000000E+00  0.00000000000E+00  0.38126231740E+02  0.38126231740E+02  0.00000000000E+00 0. -1.
         -3   -1    0    0    0  501 -0.00000000000E+00 -0.00000000000E+00 -0.19259341393E+04  0.19259341393E+04  0.00000000000E+00 0.  1.
         25    2    1    2    0    0 -0.35757729931E+02  0.17555603150E+03 -0.15915703454E+04  0.16065000675E+04  0.12509103547E+03 0.  0.
          5    1    3    3  502    0 -0.21600222928E+02  0.18626915723E+03 -0.15471935065E+04  0.15585210899E+04  0.41800000000E+01 0. -1.
         -5    1    3    3    0  502 -0.14157507004E+02 -0.10713125728E+02 -0.44376838878E+02  0.47978977649E+02  0.41800000000E+01 0. -1.
        -11    1    1    2    0    0  0.15211054989E+02 -0.97802497562E+02 -0.23947559832E+03  0.25912403770E+03  0.00000000000E+00 0.  1.
         11    1    1    2    0    0  0.20546674942E+02 -0.77753533941E+02 -0.56761963872E+02  0.98436265848E+02  0.00000000000E+00 0. -1.
</event>
<event>
 7    1  0.2841804E-009  0.1363966E+03  0.7561462E-02  0.1218262E+00
          2   -1    0    0  501    0  0.00000000000E+00  0.00000000000E+00  0.86814310514E+02  0.86814310514E+02  0.00000000000E+00 0. -1.
         -2   -1    0    0    0  501 -0.00000000000E+00 -0.00000000000E+00 -0.22708157276E+03  0.22708157276E+03  0.00000000000E+00 0.  1.
         25    2    1    2    0    0 -0.52408138784E+02 -0.70069942662E+02 -0.92207501512E+02  0.17834386005E+03  0.12509156329E+03 0.  0.
          5    1    3    3  502    0 -0.12219474669E+02 -0.97217610859E+02 -0.37198937706E+02  0.10488952659E+03  0.41800000000E+01 0. -1.
         -5    1    3    3    0  502 -0.40188664115E+02  0.27147668197E+02 -0.55008563806E+02  0.73454333459E+02  0.41800000000E+01 0. -1.
        -11    1    1    2    0    0  0.76800429222E+02  0.66101997980E+02 -0.44154883701E+02  0.11053250119E+03  0.00000000000E+00 0. -1.
         11    1    1    2    0    0 -0.24392290437E+02  0.39679446824E+01 -0.39048770318E+01  0.25019522026E+02  0.00000000000E+00 0.  1.
</event>
<event>
 7    1  0.2841804E-009  0.1865056E+03  0.7561462E-02  0.1161651E+00
         -4   -1    0    0    0  501 -0.00000000000E+00  0.00000000000E+00  0.22383843610E+03  0.22383843610E+03  0.00000000000E+00 0.  1.
          4   -1    0    0  501    0  0.00000000000E+00 -0.00000000000E+00 -0.27291888891E+03  0.27291888891E+03  0.00000000000E+00 0. -1.
         25    2    1    2    0    0 -0.15624311113E+03 -0.74275009449E+02  0.11384140711E+03  0.24196402752E+03  0.12513208157E+03 0.  0.
          5    1    3    3  502    0 -0.35134286709E+02 -0.70374288593E+02  0.48245189237E+01  0.78915822117E+02  0.41800000000E+01 0.  1.
         -5    1    3    3    0  502 -0.12110882442E+03 -0.39007208556E+01  0.10901688818E+03  0.16304820540E+03  0.41800000000E+01 0.  1.
        -11    1    1    2    0    0  0.35351047094E+02  0.16904490220E+02 -0.99045249234E+02  0.10651488026E+03  0.00000000000E+00 0. -1.
         11    1    1    2    0    0  0.12089206404E+03  0.57370519228E+02 -0.63876610688E+02  0.14827841723E+03  0.00000000000E+00 0.  1.
</event>
<event>
 7    1  0.2841804E-009  0.1251548E+03  0.7561462E-02  0.1234828E+00
          1   -1    0    0  501    0  0.00000000000E+00  0.00000000000E+00  0.16313189583E+02  0.16313189583E+02  0.00000000000E+00 0. -1.
         -1   -1    0    0    0  501 -0.00000000000E+00 -0.00000000000E+00 -0.15629545191E+04  0.15629545191E+04  0.00000000000E+00 0.  1.
         25    2    1    2    0    0 -0.67660911455E+02 -0.39889505585E+02 -0.12603502596E+04  0.12689756061E+04  0.12508853039E+03 0.  0.
          5    1    3    3  502    0  0.24654879745E+02 -0.27920137622E+02 -0.14593800351E+03  0.15067438551E+03  0.41800000000E+01 0.  1.
         -5    1    3    3    0  502 -0.92315791200E+02 -0.11969367963E+02 -0.11144122561E+04  0.11183012206E+04  0.41800000000E+01 0.  1.
        -11    1    1    2    0    0  0.79688726703E+02  0.57536879610E+02 -0.23330670535E+03  0.25316556724E+03  0.00000000000E+00 0. -1.
         11    1    1    2    0    0 -0.12027815248E+02 -0.17647374024E+02 -0.52984364556E+02  0.57126535314E+02  0.00000000000E+00 0.  1.
</event>
<event>
 7    1  0.2841804E-009  0.1559164E+03  0.7561462E-02  0.1193386E+00
          1   -1    0    0  501    0  0.00000000000E+00  0.00000000000E+00  0.15263932728E+03  0.15263932728E+03  0.00000000000E+00 0. -1.
         -1   -1    0    0    0  501 -0.00000000000E+00 -0.00000000000E+00 -0.23098296202E+03  0.23098296202E+03  0.00000000000E+00 0.  1.
         25    2    1    2    0    0 -0.13948358520E+03  0.63480891917E+02 -0.41562697547E+02  0.20213740810E+03  0.12508628922E+03 0.  0.
          5    1    3    3  502    0 -0.81671837565E+02  0.55181634951E+02  0.35944339359E+02  0.10499890389E+03  0.41800000000E+01 0.  1.
         -5    1    3    3    0  502 -0.57811747631E+02  0.82992569662E+01 -0.77507036906E+02  0.97138504211E+02  0.41800000000E+01 0.  1.
        -11    1    1    2    0    0  0.16269287402E+02 -0.15272964624E+02 -0.43622522052E+02  0.48998750914E+02  0.00000000000E+00 0.  1.
         11    1    1    2    0    0  0.12321429779E+03 -0.48207927292E+02  0.68415848549E+01  0.13248613029E+03  0.00000000000E+00 0. -1.
</event>
<event>
 7    1  0.2841804E-009  0.2297522E+03  0.7561462E-02  0.1126814E+00
         -1   -1    0    0    0  501 -0.00000000000E+00  0.00000000000E+00  0.84638618355E+03  0.84638618355E+03  0.00000000000E+00 0.  1.
          1   -1    0    0  501    0  0.00000000000E+00 -0.00000000000E+00 -0.77205820965E+02  0.77205820965E+02  0.00000000000E+00 0. -1.
         25    2    1    2    0    0 -0.22372903959E+03  0.41657005237E+02  0.47588351576E+03  0.54212711724E+03  0.12508677564E+03 0.  0.
          5    1    3    3  502    0 -0.25256687200E+02  0.52912458653E+00  0.82522856829E+00  0.25619009023E+02  0.41800000000E+01 0. -1.
         -5    1    3    3    0  502 -0.19847235239E+03  0.41127880650E+02  0.47505828719E+03  0.51650810822E+03  0.41800000000E+01 0. -1.
        -11    1    1    2    0    0  0.52906893353E+02 -0.27845467759E+02  0.28956535186E+02  0.66430342231E+02  0.00000000000E+00 0.  1.
         11    1    1    2    0    0  0.17082214623E+03 -0.13811537478E+02  0.26434031164E+03  0.31503454504E+03  0.00000000000E+00 0. -1.
</event>
<event>
 7    1  0.2841804E-009  0.1697336E+03  0.7561462E-02  0.1178126E+00
         -1   -1    0    0    0  501 -0.00000000000E+00  0.00000000000E+00  0.11559828174E+03  0.11559828174E+03  0.00000000000E+00 0.  1.
          1   -1    0    0  501    0  0.00000000000E+00 -0.00000000000E+00 -0.10685729534E+04  0.10685729534E+04  0.00000000000E+00 0. -1.
         25    2    1    2    0    0  0.10973671545E+03  0.79798656297E+01 -0.92757330006E+03  0.94241028719E+03  0.12505637705E+03 0.  0.
          5    1    3    3  502    0  0.94884133972E+02  0.11597644894E+02 -0.30545576921E+03  0.32009093019E+03  0.41800000000E+01 0. -1.
         -5    1    3    3    0  502  0.14852581478E+02 -0.36177792638E+01 -0.62211753085E+03  0.62231935700E+03  0.41800000000E+01 0. -1.
        -11    1    1    2    0    0  0.25063444232E+02  0.68508023616E+02  0.27548244780E+02  0.77977120535E+02  0.00000000000E+00 0.  1.
         11    1    1    2    0    0 -0.13480015968E+03 -0.76487889246E+02 -0.52949616382E+02  0.16378382743E+03  0.00000000000E+00 0. -1.
</event>
<event>
 7    1  0.2841804E-009  0.1305510E+03  0.7561462E-02  0.1226640E+00
          1   -1    0    0  501    0  0.00000000000E+00  0.00000000000E+00  0.34733714030E+03  0.34733714030E+03  0.00000000000E+00 0. -1.
         -1   -1    0    0    0  501 -0.00000000000E+00 -0.00000000000E+00 -0.82870059936E+02  0.82870059936E+02  0.00000000000E+00 0.  1.
         25    2    1    2    0    0  0.10612200272E+03 -0.39708728556E+02  0.21917700783E+03  0.27663133827E+03  0.12509066299E+03 0.  0.
          5    1    3    3  502    0  0.10218382357E+03 -0.55080085278E+02  0.91404187573E+02  0.14780915905E+03  0.41800000000E+01 0.  1.
         -5    1    3    3    0  502  0.39381791506E+01  0.15371356722E+02  0.12777282026E+03  0.12882217922E+03  0.41800000000E+01 0.  1.
        -11    1    1    2    0    0 -0.30535240325E+02 -0.16154000706E+02  0.48484353875E+02  0.59532219942E+02  0.00000000000E+00 0. -1.
         11    1    1    2    0    0 -0.75586762394E+02  0.55862729263E+02 -0.31942813506E+01  0.94043642014E+02  0.00000000000E+00 0.  1.
</event>
<event>
 7    1  0.2841804E-009  0.2259198E+03  0.7561462E-02  0.1129545E+00
         -1   -1    0    0    0  501 -0.00000000000E+00  0.00000000000E+00  0.43268560100E+02  0.43268560100E+02  0.00000000000E+00 0.  1.
          1   -1    0    0  501    0  0.00000000000E+00 -0.00000000000E+00 -0.25038708419E+04  0.25038708419E+04  0.00000000000E+00 0. -1.
         25    2    1    2    0    0  0.18989177399E+03 -0.87811722362E+02 -0.21390836442E+04  0.21529273911E+04  0.12509088671E+03 0.  0.
          5    1    3    3  502    0  0.33098666393E+02 -0.78115936465E+02 -0.63484213558E+03  0.64049951659E+03  0.41800000000E+01 0. -1.
         -5    1    3    3    0  502  0.15679310760E+03 -0.96957858965E+01 -0.15042415086E+04  0.15124278745E+04  0.41800000000E+01 0. -1.
        -11    1    1    2    0    0 -0.69207015679E+02  0.24123619077E+02 -0.19424559217E+03  0.20761240352E+03  0.00000000000E+00 0. -1.
         11    1    1    2    0    0 -0.12068475831E+03  0.63688103285E+02 -0.12727304540E+03  0.18659960738E+03  0.00000000000E+00 0.  1.
</event>
<event>
 7    1  0.2841804E-009  0.7571872E+02  0.7561462E-02  0.1341660E+00
         -2   -1    0    0    0  501 -0.00000000000E+00  0.00000000000E+00  0.11614179268E+02  0.11614179268E+02  0.00000000000E+00 0.  1.
          2   -1    0    0  501    0  0.00000000000E+00 -0.00000000000E+00 -0.22019989007E+04  0.22019989007E+04  0.00000000000E+00 0. -1.
         25    2    1    2    0    0 -0.83479584762E+01 -0.22776998974E+02 -0.19750991541E+04  0.19792051651E+04  0.12509171379E+03 0.  0.
          5    1    3    3  502    0  0.11207864497E+02 -0.43420211952E+02 -0.18608974763E+04  0.18614424033E+04  0.41800000000E+01 0. -1.
         -5    1    3    3    0  502 -0.19555822973E+02  0.20643212977E+02 -0.11420167780E+03  0.11776276180E+03  0.41800000000E+01 0. -1.
        -11    1    1    2    0    0  0.38253256838E+02 -0.27334009764E+01 -0.17076189687E+03  0.17501545235E+03  0.00000000000E+00 0. -1.
         11    1    1    2    0    0 -0.29905298362E+02  0.25510399951E+02 -0.44523670504E+02  0.59392462577E+02  0.00000000000E+00 0.  1.
</event>
<event>
 7    1  0.2841804E-009  0.1358216E+03  0.7561462E-02  0.1219064E+00
          1   -1    0    0  501    0  0.00000000000E+00  0.00000000000E+00  0.21688555862E+03  0.21688555862E+03  0.00000000000E+00 0. -1.
         -1   -1    0    0    0  501 -0.00000000000E+00 -0.00000000000E+00 -0.91780600652E+02  0.91780600652E+02  0.00000000000E+00 0.  1.
         25    2    1    2    0    0  0.13106611828E+02  0.84755988041E+02  0.32511569924E+02  0.15511542862E+03  0.12509369782E+03 0.  0.
          5    1    3    3  502    0  0.37501196058E+02 -0.19550634219E+02 -0.18572836707E+01  0.42538087719E+02  0.41800000000E+01 0. -1.
         -5    1    3    3    0  502 -0.24394584230E+02  0.10430662226E+03  0.34368853594E+02  0.11257734090E+03  0.41800000000E+01 0. -1.
        -11    1    1    2    0    0  0.34905573789E+02 -0.55970347505E+02  0.57289967539E+02  0.87368296664E+02  0.00000000000E+00 0. -1.
         11    1    1    2    0    0 -0.48012185617E+02 -0.28785640536E+02  0.35303420502E+02  0.66182433983E+02  0.00000000000E+00 0.  1.
</event>
<event>
 7    1  0.2841804E-009  0.1514199E+03  0.7561462E-02  0.1198739E+00
         -1   -1    0    0    0  501 -0.00000000000E+00  0.00000000000E+00  0.12940239452E+03  0.12940239452E+03  0.00000000000E+00 0.  1.
          1   -1    0    0  501    0  0.00000000000E+00 -0.00000000000E+00 -0.24710426451E+03  0.24710426451E+03  0.00000000000E+00 0. -1.
         25    2    1    2    0    0  0.53301702810E+02 -0.12913016732E+03 -0.26146140364E+02  0.18933074839E+03  0.12508732948E+03 0.  0.
          5    1    3    3  502    0  0.95145785836E+01 -0.33183479623E+02 -0.67531632895E+02  0.75958306768E+02  0.41800000000E+01 0.  1.
         -5    1    3    3    0  502  0.43787124227E+02 -0.95946687693E+02  0.41385492531E+02  0.11337244162E+03  0.41800000000E+01 0.  1.
        -11    1    1    2    0    0  0.22679863934E+02  0.28396915292E+02 -0.28119867167E+02  0.45950929867E+02  0.00000000000E+00 0. -1.
         11    1    1    2    0    0 -0.75981566745E+02  0.10073325202E+03 -0.63435862459E+02  0.14122498077E+03  0.00000000000E+00 0.  1.
</event>
<event>
 7    1  0.2841804E-009  0.1237610E+03  0.7561462E-02  0.1237018E+00
         -1   -1    0    0    0  501 -0.00000000000E+00  0.00000000000E+00  0.38251788344E+03  0.38251788344E+03  0.00000000000E+00 0.  1.
          1   -1    0    0  501    0  0.00000000000E+00 -0.00000000000E+00 -0.59630971327E+02  0.59630971327E+02  0.00000000000E+00 0. -1.
         25    2    1    2    0    0 -0.28917551731E+02  0.66957438347E+02  0.27489444399E+03  0.31070158736E+03  0.12509595399E+03 0.  0.
          5    1    3    3  502    0  0.41317158207E+02  0.59397272067E+02  0.16183872966E+03  0.17732566174E+03  0.41800000000E+01 0. -1.
         -5    1    3    3    0  502 -0.70234709937E+02  0.75601662803E+01  0.11305571433E+03  0.13337592562E+03  0.41800000000E+01 0. -1.
        -11    1    1    2    0    0 -0.19487007023E+02 -0.48865673708E+02 -0.10237242188E+02  0.53594763151E+02  0.00000000000E+00 0.  1.
         11    1    1    2    0    0  0.48404558754E+02 -0.18091764639E+02  0.58229710313E+02  0.77852504257E+02  0.00000000000E+00 0. -1.
</event>
<event>
 7    1  0.2841804E-009  0.9853135E+02  0.7561462E-02  0.1283415E+00
         -1   -1    0    0    0  501 -0.00000000000E+00  0.00000000000E+00  0.10308750586E+03  0.10308750586E+03  0.00000000000E+00 0.  1.
          1   -1    0    0  501    0  0.00000000000E+00 -0.00000000000E+00 -0.14927798773E+03  0.14927798773E+03  0.00000000000E+00 0. -1.
         25    2    1    2    0    0 -0.37558786137E+02 -0.39737165522E+02  0.15241091460E+00  0.13651891192E+03  0.12509070846E+03 0.  0.
          5    1    3    3  502    0 -0.74684810230E+02 -0.58057754805E+02  0.36672668678E+01  0.94759933613E+02  0.41800000000E+01 0. -1.
         -5    1    3    3    0  502  0.37126024093E+02  0.18320589282E+02 -0.35148559532E+01  0.41758978304E+02  0.41800000000E+01 0. -1.
        -11    1    1    2    0    0  0.31567043953E+02  0.14345241257E+02 -0.71587792853E+02  0.79542921094E+02  0.00000000000E+00 0. -1.
         11    1    1    2    0    0  0.59917421838E+01  0.25391924265E+02  0.25244900065E+02  0.36303660581E+02  0.00000000000E+00 0.  1.
</event>
<event>
 7    1  0.2841804E-009  0.1167044E+03  0.7561462E-02  0.1248635E+00
         -2   -1    0    0    0  501 -0.00000000000E+00  0.00000000000E+00  0.10101498053E+03  0.10101498053E+03  0.00000000000E+00 0. -1.
          2   -1    0    0  501    0  0.00000000000E+00 -0.00000000000E+00 -0.27656436664E+03  0.27656436664E+03  0.00000000000E+00 0.  1.
         25    2    1    2    0    0 -0.59703033073E+02  0.12474244982E+02  0.31640315570E+02  0.14271943524E+03  0.12509064185E+03 0.  0.
          5    1    3    3  502    0 -0.79291544026E+02 -0.27742830427E+02  0.45596428007E+02  0.95672985953E+02  0.41800000000E+01 0. -1.
         -5    1    3    3    0  502  0.19588510953E+02  0.40217075409E+02 -0.13956112437E+02  0.47046449284E+02  0.41800000000E+01 0. -1.
        -11    1    1    2    0    0  0.36497933637E+02 -0.48999068198E+02 -0.81017298323E+02  0.10147320076E+03  0.00000000000E+00 0.  1.
         11    1    1    2    0    0  0.23205099436E+02  0.36524823215E+02 -0.12617240335E+03  0.13338671118E+03  0.00000000000E+00 0. -1.
</event>
<event>
 7    1  0.2841804E-009  0.1127942E+03  0.7561462E-02  0.1255481E+00
          2   -1    0    0  501    0  0.00000000000E+00  0.00000000000E+00  0.61526914709E+03  0.61526914709E+03  0.00000000000E+00 0. -1.
         -2   -1    0    0    0  501 -0.00000000000E+00 -0.00000000000E+00 -0.21998126071E+02  0.21998126071E+02  0.00000000000E+00 0.  1.
         25    2    1    2    0    0 -0.16546024970E+02  0.35568241004E+02  0.36255535519E+03  0.38553014752E+03  0.12509291888E+03 0.  0.
          5    1    3    3  502    0 -0.69076217713E+02  0.24110828163E+02  0.16115028627E+03  0.17703034500E+03  0.41800000000E+01 0.  1.
         -5    1    3    3    0  502  0.52530192742E+02  0.11457412842E+02  0.20140506892E+03  0.20849980251E+03  0.41800000000E+01 0.  1.
        -11    1    1    2    0    0  0.88871258736E+01  0.30550861912E+02  0.51222156524E+02  0.60299630918E+02  0.00000000000E+00 0.  1.
         11    1    1    2    0    0  0.76588990966E+01 -0.66119102917E+02  0.17949350930E+03  0.19143749472E+03  0.00000000000E+00 0. -1.
</event>
<event>
 7    1  0.2841804E-009  0.9966673E+02  0.7561462E-02  0.1280998E+00
          1   -1    0    0  501    0  0.00000000000E+00  0.00000000000E+00  0.80945035227E+03  0.80945035227E+03  0.00000000000E+00 0. -1.
         -1   -1    0    0    0  501 -0.00000000000E+00 -0.00000000000E+00 -0.53237096444E+02  0.53237096444E+02  0.00000000000E+00 0.  1.
         25    2    1    2    0    0  0.94829361455E+02  0.20095338703E+02  0.70098670604E+03  0.71862805964E+03  0.12508995014E+03 0.  0.
          5    1    3    3  502    0  0.61615394716E+01  0.23970588661E+01 -0.33428882645E+01  0.85063365685E+01  0.41800000000E+01 0.  1.
         -5    1    3    3    0  502  0.88667821984E+02  0.17698279837E+02  0.70432959430E+03  0.71012172307E+03  0.41800000000E+01 0.  1.
        -11    1    1    2    0    0 -0.59915377309E+01 -0.99070812067E+01 -0.22678371703E+02  0.25462861691E+02  0.00000000000E+00 0.  1.
         11    1    1    2    0    0 -0.88837823724E+02 -0.10188257496E+02  0.77904921485E+02  0.11859652738E+03  0.00000000000E+00 0. -1.
</event>
<event>
 7    1  0.2841804E-009  0.1572123E+03  0.7561462E-02  0.1191880E+00
         -1   -1    0    0    0  501 -0.00000000000E+00  0.00000000000E+00  0.22986748903E+03  0.22986748903E+03  0.00000000000E+00 0.  1.
          1   -1    0    0  501    0  0.00000000000E+00 -0.00000000000E+00 -0.21241133550E+03  0.21241133550E+03  0.00000000000E+00 0. -1.
         25    2    1    2    0    0  0.13787271275E+03 -0.26857155357E+02  0.13958394067E+03  0.23422465148E+03  0.12508924474E+03 0.  0.
          5    1    3    3  502    0  0.13260768359E+03 -0.16147355789E+02  0.16106615610E+03  0.20929719035E+03  0.41800000000E+01 0. -1.
         -5    1    3    3    0  502  0.52650291570E+01 -0.10709799568E+02 -0.21482215424E+02  0.24927461129E+02  0.41800000000E+01 0. -1.
        -11    1    1    2    0    0 -0.59722270509E+02 -0.34318374361E+02 -0.43862686805E+02  0.81660490491E+02  0.00000000000E+00 0. -1.
         11    1    1    2    0    0 -0.78150442243E+02  0.61175529719E+02 -0.78265100338E+02  0.12639368256E+03  0.00000000000E+00 0.  1.
</event>
<event>
 7    1  0.2841804E-009  0.1180458E+03  0.7561462E-02  0.1246356E+00
          2   -1    0    0  501    0  0.00000000000E+00  0.00000000000E+00  0.31024804978E+03  0.31024804978E+03  0.00000000000E+00 0. -1.
         -2   -1    0    0    0  501 -0.00000000000E+00 -0.00000000000E+00 -0.73945123243E+02  0.73945123243E+02  0.00000000000E+00 0.  1.
         25    2    1    2    0    0 -0.96186906038E+02 -0.36087121619E+02  0.10402688139E+03  0.19241402896E+03  0.12508942901E+03 0.  0.
          5    1    3    3  502    0 -0.90962815126E+01 -0.41309646158E+02 -0.14737537152E+02  0.44987738378E+02  0.41800000000E+01 0. -1.
         -5    1    3    3    0  502 -0.87090624525E+02  0.52225245389E+01  0.11876441855E+03  0.14742629058E+03  0.41800000000E+01 0. -1.
        -11    1    1    2    0    0  0.87045906561E+01  0.13201235471E+02 -0.13126942069E+02  0.20551377680E+02  0.00000000000E+00 0.  1.
         11    1    1    2    0    0  0.87482315382E+02  0.22885886148E+02  0.14540298721E+03  0.17122776638E+03  0.00000000000E+00 0. -1.
</event>
<event>
 7    1  0.2841804E-009  0.1140620E+03  0.7561462E-02  0.1253227E+00
          2   -1    0    0  501    0  0.00000000000E+00  0.00000000000E+00  0.31511893670E+03  0.31511893670E+03  0.00000000000E+00 0. -1.
         -2   -1    0    0    0  501 -0.00000000000E+00 -0.00000000000E+00 -0.73403935110E+02  0.73403935110E+02  0.00000000000E+00 0.  1.
         25    2    1    2    0    0  0.38133474732E+02  0.42663404420E+02  0.24541259059E+03  0.28133533394E+03  0.12509157659E+03 0.  0.
          5    1    3    3  502    0  0.55315088962E+02 -0.28485944754E+02  0.13620247287E+03  0.14979917934E+03  0.41800000000E+01 0.  1.
         -5    1    3    3    0  502 -0.17181614230E+02  0.71149349173E+02  0.10921011771E+03  0.13153615460E+03  0.41800000000E+01 0.  1.
        -11    1    1    2    0    0  0.95308848520E+01  0.14917100706E+02 -0.23914054125E+02  0.29752977065E+02  0.00000000000E+00 0.  1.
         11    1    1    2    0    0 -0.47664359584E+02 -0.57580505126E+02  0.20216465134E+02  0.77434560809E+02  0.00000000000E+00 0. -1.
</event>
<event>
 7    1  0.2841804E-009  0.1234157E+03  0.7561462E-02  0.1237566E+00
          1   -1    0    0  501    0  0.00000000000E+00  0.00000000000E+00  0.15813678379E+03  0.15813678379E+03  0.00000000000E+00 0. -1.
         -1   -1    0    0    0  501 -0.00000000000E+00 -0.00000000000E+00 -0.10344749346E+03  0.10344749346E+03  0.00000000000E+00 0.  1.
         25    2    1    2    0    0 -0.15267027331E+02 -0.66568716036E+02  0.29178863023E+02  0.14547499722E+03  0.12508833954E+03 0.  0.
          5    1    3    3  502    0 -0.64076850660E+02 -0.65374529318E+02  0.76607517291E+01  0.91955594669E+02  0.41800000000E+01 0. -1.
         -5    1    3    3    0  502  0.48809823329E+02 -0.11941867183E+01  0.21518111294E+02  0.53519402547E+02  0.41800000000E+01 0. -1.
        -11    1    1    2    0    0  0.17036020471E+02 -0.16138323594E+02 -0.10718060342E+02  0.25798222796E+02  0.00000000000E+00 0.  1.
         11    1    1    2    0    0 -0.17689931402E+01  0.82707039630E+02  0.36228487654E+02  0.90311057234E+02  0.00000000000E+00 0. -1.
</event>
<event>
 7    1  0.2841804E-009  0.9030938E+02  0.7561462E-02  0.1302104E+00
         -1   -1    0    0    0  501 -0.00000000000E+00  0.00000000000E+00  0.23370669037E+03  0.23370669037E+03  0.00000000000E+00 0.  1.
          1   -1    0    0  501    0  0.00000000000E+00 -0.00000000000E+00 -0.53803083902E+02  0.53803083902E+02  0.00000000000E+00 0. -1.
         25    2    1    2    0    0 -0.65833733344E+01  0.41071578980E+01  0.68088006031E+02  0.14263843458E+03  0.12509810912E+03 0.  0.
          5    1    3    3  502    0  0.45187706484E+02  0.12781787465E+02  0.75952426903E+02  0.89395449887E+02  0.41800000000E+01 0. -1.
         -5    1    3    3    0  502 -0.51771079819E+02 -0.86746295673E+01 -0.78644208717E+01  0.53242984696E+02  0.41800000000E+01 0. -1.
        -11    1    1    2    0    0 -0.30328664167E+02  0.20359878752E+02  0.17139186678E+02  0.40349773889E+02  0.00000000000E+00 0. -1.
         11    1    1    2    0    0  0.36912037501E+02 -0.24467036650E+02  0.94676413759E+02  0.10452156580E+03  0.00000000000E+00 0.  1.
</event>
<event>
 7    1  0.2841804E-009  0.1027384E+03  0.7561462E-02  0.1274641E+00
          3   -1    0    0  501    0  0.00000000000E+00  0.00000000000E+00  0.28467698357E+03  0.28467698357E+03  0.00000000000E+00 0.  1.
         -3   -1    0    0    0  501 -0.00000000000E+00 -0.00000000000E+00 -0.68648016631E+02  0.68648016631E+02  0.00000000000E+00 0. -1.
         25    2    1    2    0    0 -0.51526368001E+02 -0.31059097351E+02  0.37617462187E+02  0.14381266829E+03  0.12508947187E+03 0.  0.
          5    1    3    3  502    0  0.21685609975E+02 -0.79607315204E+00  0.57863109592E+02  0.61939577526E+02  0.41800000000E+01 0.  1.
         -5    1    3    3    0  502 -0.73211977976E+02 -0.30263024199E+02 -0.20245647405E+02  0.81873090767E+02  0.41800000000E+01 0.  1.
        -11    1    1    2    0    0  0.26836218980E+02 -0.28758187085E+02  0.37020970338E+02  0.54016369910E+02  0.00000000000E+00 0.  1.
         11    1    1    2    0    0  0.24690149022E+02  0.59817284436E+02  0.14139053441E+03  0.15549596200E+03  0.00000000000E+00 0. -1.
</event>
<event>
 7    1  0.2841804E-009  0.7909243E+02  0.7561462E-02  0.1331647E+00
          2   -1    0    0  501    0  0.00000000000E+00  0.00000000000E+00  0.20613045156E+03  0.20613045156E+03  0.00000000000E+00 0. -1.
         -2   -1    0    0    0  501 -0.00000000000E+00 -0.00000000000E+00 -0.57988824163E+02  0.57988824163E+02  0.00000000000E+00 0.  1.
         25    2    1    2    0    0 -0.11378329855E+02  0.10247523195E+02  0.85043381633E+02  0.15203237291E+03  0.12508791921E+03 0.  0.
          5    1    3    3  502    0 -0.42892288722E+02  0.50636085054E+01 -0.15792965548E+02  0.46176603640E+02  0.41800000000E+01 0. -1.
         -5    1    3    3    0  502  0.31513958867E+02  0.51839146899E+01  0.10083634718E+03  0.10585576927E+03  0.41800000000E+01 0. -1.
        -11    1    1    2    0    0 -0.14430492709E+02 -0.40396204541E+02  0.71438330687E+01  0.43487087877E+02  0.00000000000E+00 0.  1.
         11    1    1    2    0    0  0.25808822565E+02  0.30148681345E+02  0.55954412694E+02  0.68599814934E+02  0.00000000000E+00 0. -1.
</event>
<event>
 7    1  0.2841804E-009  0.8243785E+02  0.7561462E-02  0.1322272E+00
          3   -1    0    0  501    0  0.00000000000E+00  0.00000000000E+00  0.38326453044E+02  0.38326453044E+02  0.00000000000E+00 0. -1.
         -3   -1    0    0    0  501 -0.00000000000E+00 -0.00000000000E+00 -0.33124288599E+03  0.33124288599E+03  0.00000000000E+00 0.  1.
         25    2    1    2    0    0 -0.47400557497E+01 -0.10213318874E+02 -0.22204392662E+03  0.25510267250E+03  0.12508832141E+03 0.  0.
          5    1    3    3  502    0  0.12463260700E+01 -0.57022275233E+02 -0.47804297734E+02  0.74537349586E+02  0.41800000000E+01 0. -1.
         -5    1    3    3    0  502 -0.59863818197E+01  0.46808956359E+02 -0.17423962889E+03  0.18056532291E+03  0.41800000000E+01 0. -1.
        -11    1    1    2    0    0  0.27661306565E+02  0.21240924900E+02  0.42695474813E+01  0.35136217884E+02  0.00000000000E+00 0. -1.
         11    1    1    2    0    0 -0.22921250816E+02 -0.11027606026E+02 -0.75142053807E+02  0.79330448656E+02  0.00000000000E+00 0.  1.
</event>
<event>
 7    1  0.2841804E-009  0.1168804E+03  0.7561462E-02  0.1248334E+00
         -2   -1    0    0    0  501 -0.00000000000E+00  0.00000000000E+00  0.40753037936E+02  0.40753037936E+02  0.00000000000E+00 0.  1.
          2   -1    0    0  501    0  0.00000000000E+00 -0.00000000000E+00 -0.52794833790E+03  0.52794833790E+03  0.00000000000E+00 0. -1.
         25    2    1    2    0    0  0.86916866344E+01  0.82164809326E+02 -0.37103263584E+03  0.40017633742E+03  0.12509709376E+03 0.  0.
          5    1    3    3  502    0  0.40409373228E+02  0.69070739084E+02 -0.10590388011E+03  0.13280357173E+03  0.41800000000E+01 0.  1.
         -5    1    3    3    0  502 -0.31717686594E+02  0.13094070243E+02 -0.26512875573E+03  0.26737276569E+03  0.41800000000E+01 0.  1.
        -11    1    1    2    0    0  0.37015153195E+02 -0.20529043493E+02 -0.24211208408E+02  0.48762134955E+02  0.00000000000E+00 0. -1.
         11    1    1    2    0    0 -0.45706839829E+02 -0.61635765833E+02 -0.91951455725E+02  0.11976290347E+03  0.00000000000E+00 0.  1.
</event>
<event>
 7    1  0.2841804E-009  0.1007590E+03  0.7561462E-02  0.1278708E+00
          2   -1    0    0  501    0  0.00000000000E+00  0.00000000000E+00  0.24447455199E+04  0.24447455199E+04  0.00000000000E+00 0. -1.
         -2   -1    0    0    0  501 -0.00000000000E+00 -0.00000000000E+00 -0.95276801059E+01  0.95276801059E+01  0.00000000000E+00 0.  1.
         25    2    1    2    0    0  0.16516933974E+02  0.61069389026E+02  0.20187120283E+04  0.20235729276E+04  0.12508741311E+03 0.  0.
          5    1    3    3  502    0 -0.34883498922E+02  0.38197872766E+02  0.16261567450E+04  0.16269846858E+04  0.41800000000E+01 0. -1.
         -5    1    3    3    0  502  0.51400432896E+02  0.22871516260E+02  0.39255528328E+03  0.39658824186E+03  0.41800000000E+01 0. -1.
        -11    1    1    2    0    0 -0.18644254689E+02  0.10638662186E+02  0.26269413394E+02  0.33924496254E+02  0.00000000000E+00 0.  1.
         11    1    1    2    0    0  0.21273207149E+01 -0.71708051212E+02  0.39023639812E+03  0.39677577612E+03  0.00000000000E+00 0. -1.
</event>
<event>
 7    1  0.2841804E-009  0.8478439E+02  0.7561462E-02  0.1315997E+00
          1   -1    0    0  501    0  0.00000000000E+00  0.00000000000E+00  0.27519906456E+03  0.27519906456E+03  0.00000000000E+00 0. -1.
         -1   -1    0    0    0  501 -0.00000000000E+00 -0.00000000000E+00 -0.60835182785E+02  0.60835182785E+02  0.00000000000E+00 0.  1.
         25    2    1    2    0    0  0.54187961504E+02 -0.32701041743E+02  0.90744161725E+02  0.16699249548E+03  0.12508516042E+03 0.  0.
          5    1    3    3  502    0 -0.19374670978E+02 -0.24783465029E+02  0.87208214067E+02  0.92802710171E+02  0.41800000000E+01 0.  1.
         -5    1    3    3    0  502  0.73562632482E+02 -0.79175767144E+01  0.35359476579E+01  0.74189785311E+02  0.41800000000E+01 0.  1.
        -11    1    1    2    0    0 -0.34706883753E+02  0.16684025370E+02 -0.42188712258E+01  0.38739170833E+02  0.00000000000E+00 0.  1.
         11    1    1    2    0    0 -0.19481077751E+02  0.16017016374E+02  0.12783859127E+03  0.13030258103E+03  0.00000000000E+00 0. -1.
</event>
<event>
 7    1  0.2841804E-009  0.1122715E+03  0.7561462E-02  0.1256420E+00
         -2   -1    0    0    0  501 -0.00000000000E+00  0.00000000000E+00  0.12094080703E+03  0.12094080703E+03  0.00000000000E+00 0.  1.
          2   -1    0    0  501    0  0.00000000000E+00 -0.00000000000E+00 -0.15788667972E+03  0.15788667972E+03  0.00000000000E+00 0. -1.
         25    2    1    2    0    0 -0.13689163543E+02  0.56476870568E+02  0.43666544865E+02  0.14467507045E+03  0.12508828387E+03 0.  0.
          5    1    3    3  502    0 -0.59406401971E+02  0.49829378937E+02  0.57097561458E+02  0.96383045836E+02  0.41800000000E+01 0.  1.
         -5    1    3    3    0  502  0.45717238427E+02  0.66474916313E+01 -0.13431016593E+02  0.48292024612E+02  0.41800000000E+01 0.  1.
        -11    1    1    2    0    0  0.36917722465E+02  0.26174134395E+01 -0.53631255592E+02  0.65161957164E+02  0.00000000000E+00 0. -1.
         11    1    1    2    0    0 -0.23228558922E+02 -0.59094284007E+02 -0.26981161962E+02  0.68990459143E+02  0.00000000000E+00 0.  1.
</event>
<event>
 7    1  0.2841804E-009  0.1115513E+03  0.7561462E-02  0.1257724E+00
          1   -1    0    0  501    0  0.00000000000E+00  0.00000000000E+00  0.53415782659E+03  0.53415782659E+03  0.00000000000E+00 0.  1.
         -1   -1    0    0    0  501 -0.00000000000E+00 -0.00000000000E+00 -0.45541233790E+02  0.45541233790E+02  0.00000000000E+00 0. -1.
         25    2    1    2    0    0 -0.96436380210E+01 -0.77202547223E+02  0.42942288544E+03  0.45399415608E+03  0.12511373292E+03 0.  0.
          5    1    3    3  502    0  0.28790812841E+02 -0.95566300091E+02  0.24322797353E+03  0.26294324126E+03  0.41800000000E+01 0. -1.
         -5    1    3    3    0  502 -0.38434450862E+02  0.18363752868E+02  0.18619491191E+03  0.19105091482E+03  0.41800000000E+01 0. -1.
        -11    1    1    2    0    0 -0.61409573833E+01  0.14505127431E+02  0.58983725825E+02  0.61050716553E+02  0.00000000000E+00 0.  1.
         11    1    1    2    0    0  0.15784595404E+02  0.62697419792E+02  0.20998153192E+00  0.64654187744E+02  0.00000000000E+00 0. -1.
</event>
<event>
 7    1  0.2841804E-009  0.8199815E+02  0.7561462E-02  0.1323475E+00
         -1   -1    0    0    0  501 -0.00000000000E+00  0.00000000000E+00  0.16663280500E+03  0.16663280500E+03  0.00000000000E+00 0.  1.
          1   -1    0    0  501    0  0.00000000000E+00 -0.00000000000E+00 -0.80987655467E+02  0.80987655467E+02  0.00000000000E+00 0. -1.
         25    2    1    2    0    0 -0.20943562754E+02  0.11968293085E+02  0.86565678895E+02  0.15402332755E+03  0.12509075029E+03 0.  0.
          5    1    3    3  502    0 -0.54041973769E+01 -0.28101062792E+02  0.10363324836E+03  0.10759273975E+03  0.41800000000E+01 0.  1.
         -5    1    3    3    0  502 -0.15539365377E+02  0.40069355876E+02 -0.17067569469E+02  0.46430587809E+02  0.41800000000E+01 0.  1.
        -11    1    1    2    0    0  0.55610198641E+02 -0.12986180888E+01  0.81228576960E+01  0.56215313030E+02  0.00000000000E+00 0.  1.
         11    1    1    2    0    0 -0.34666635888E+02 -0.10669674996E+02 -0.90433870585E+01  0.37381819883E+02  0.00000000000E+00 0. -1.
</event>
<event>
 7    1  0.2841804E-009  0.1453086E+03  0.7561462E-02  0.1206359E+00
          2   -1    0    0  501    0  0.00000000000E+00  0.00000000000E+00  0.49375148823E+02  0.49375148823E+02  0.00000000000E+00 0. -1.
         -2   -1    0    0    0  501 -0.00000000000E+00 -0.00000000000E+00 -0.45779189444E+03  0.45779189444E+03  0.00000000000E+00 0.  1.
         25    2    1    2    0    0 -0.71063842283E+02  0.75856091429E+02 -0.25027844483E+03  0.29848136622E+03  0.12509040630E+03 0.  0.
          5    1    3    3  502    0  0.17551579758E+02 -0.17875450180E+02 -0.13372720811E+02  0.28703514298E+02  0.41800000000E+01 0.  1.
         -5    1    3    3    0  502 -0.88615422041E+02  0.93731541610E+02 -0.23690572402E+03  0.26977785193E+03  0.41800000000E+01 0.  1.
        -11    1    1    2    0    0 -0.42778494665E+01 -0.58746264881E+02 -0.69465597900E+02  0.91076302764E+02  0.00000000000E+00 0.  1.
         11    1    1    2    0    0  0.75341691750E+02 -0.17109826548E+02 -0.88672702882E+02  0.11760937427E+03  0.00000000000E+00 0. -1.
</event>
<event>
 7    1  0.2841804E-009  0.2671868E+03  0.7561462E-02  0.1102901E+00
          1   -1    0    0  501    0  0.00000000000E+00  0.00000000000E+00  0.16912368881E+04  0.16912368881E+04  0.00000000000E+00 0. -1.
         -1   -1    0    0    0  501 -0.00000000000E+00 -0.00000000000E+00 -0.46285944781E+02  0.46285944781E+02  0.00000000000E+00 0.  1.
         25    2    1    2    0    0 -0.25350843921E+03 -0.48646904597E+00  0.97982100251E+03  0.10197863449E+04  0.12509287301E+03 0.  0.
          5    1    3    3  502    0 -0.26148218750E+03  0.16066498556E+02  0.93820474430E+03  0.97410301374E+03  0.41800000000E+01 0.  1.
         -5    1    3    3    0  502  0.79737482872E+01 -0.16552967602E+02  0.41616258211E+02  0.45683331158E+02  0.41800000000E+01 0.  1.
        -11    1    1    2    0    0  0.74864378653E+02  0.13236738122E+01  0.99242790280E+02  0.12432038741E+03  0.00000000000E+00 0.  1.
         11    1    1    2    0    0  0.17864406056E+03 -0.83720476619E+00  0.56588715054E+03  0.59341610059E+03  0.00000000000E+00 0. -1.
</event>
<event>
 7    1  0.2841804E-009  0.7363864E+02  0.7561462E-02  0.1348139E+00
         -1   -1    0    0    0  501 -0.00000000000E+00  0.00000000000E+00  0.14411509239E+03  0.14411509239E+03  0.00000000000E+00 0.  1.
          1   -1    0    0  501    0  0.00000000000E+00 -0.00000000000E+00 -0.89601616984E+02  0.89601616984E+02  0.00000000000E+00 0. -1.
         25    2    1    2    0    0 -0.20041843046E+02 -0.29578730236E+02  0.37574155255E+02  0.13540638500E+03  0.12508595125E+03 0.  0.
          5    1    3    3  502    0 -0.22459081221E+02  0.25152982459E+02  0.65487792929E+02  0.73778088066E+02  0.41800000000E+01 0. -1.
         -5    1    3    3    0  502  0.24172381748E+01 -0.54731712696E+02 -0.27913637674E+02  0.61628296936E+02  0.41800000000E+01 0. -1.
        -11    1    1    2    0    0 -0.40536235117E+01  0.33670661812E+02 -0.30071456332E+02  0.45325906680E+02  0.00000000000E+00 0. -1.
         11    1    1    2    0    0  0.24095466558E+02 -0.40919315760E+01  0.47010776480E+02  0.52984417690E+02  0.00000000000E+00 0.  1.
</event>
<event>
 7    1  0.2841804E-009  0.1314840E+03  0.7561462E-02  0.1225270E+00
         -2   -1    0    0    0  501 -0.00000000000E+00  0.00000000000E+00  0.19853455604E+03  0.19853455604E+03  0.00000000000E+00 0.  1.
          2   -1    0    0  501    0  0.00000000000E+00 -0.00000000000E+00 -0.10983849847E+03  0.10983849847E+03  0.00000000000E+00 0. -1.
         25    2    1    2    0    0 -0.25739834234E+02 -0.71332875030E+02 -0.21052991383E+02  0.14778788170E+03  0.12508841435E+03 0.  0.
          5    1    3    3  502    0  0.14069113511E+02 -0.97234079836E+02 -0.18360339654E+02  0.10003489746E+03  0.41800000000E+01 0. -1.
         -5    1    3    3    0  502 -0.39808947746E+02  0.25901204807E+02 -0.26926517287E+01  0.47752984246E+02  0.41800000000E+01 0. -1.
        -11    1    1    2    0    0  0.59153595396E+02  0.42748380665E+02  0.73737647955E+02  0.10374879577E+03  0.00000000000E+00 0.  1.
         11    1    1    2    0    0 -0.33413761161E+02  0.28584494365E+02  0.36011401001E+02  0.56836377041E+02  0.00000000000E+00 0. -1.
</event>
<event>
 7    1  0.2841804E-009  0.1116700E+03  0.7561462E-02  0.1257508E+00
          1   -1    0    0  501    0  0.00000000000E+00  0.00000000000E+00  0.37020608897E+03  0.37020608897E+03  0.00000000000E+00 0. -1.
         -1   -1    0    0    0  501 -0.00000000000E+00 -0.00000000000E+00 -0.10717795512E+03  0.10717795512E+03  0.00000000000E+00 0.  1.
         25    2    1    2    0    0 -0.20674785210E+02  0.17304737045E+02 -0.58613510657E+02  0.14074962443E+03  0.12509201605E+03 0.  0.
          5    1    3    3  502    0  0.39485044911E+02 -0.28033513077E+02 -0.40232964065E+02  0.63096041275E+02  0.41800000000E+01 0.  1.
         -5    1    3    3    0  502 -0.60159830121E+02  0.45338250121E+02 -0.18380546592E+02  0.77653583158E+02  0.41800000000E+01 0.  1.
        -11    1    1    2    0    0  0.14612254524E+02  0.39523285581E+02  0.14213407239E+03  0.14824878623E+03  0.00000000000E+00 0. -1.
         11    1    1    2    0    0  0.60625306853E+01 -0.56828022625E+02  0.17950757212E+03  0.18838563343E+03  0.00000000000E+00 0.  1.
</event>
<event>
 7    1  0.2841804E-009  0.2632326E+03  0.7561462E-02  0.1105216E+00
         -2   -1    0    0    0  501 -0.00000000000E+00  0.00000000000E+00  0.55130100141E+03  0.55130100141E+03  0.00000000000E+00 0.  1.
          2   -1    0    0  501    0  0.00000000000E+00 -0.00000000000E+00 -0.22414208212E+03  0.22414208212E+03  0.00000000000E+00 0. -1.
         25    2    1    2    0    0  0.52993554725E+02 -0.24282732308E+03  0.40753167887E+03  0.49346081354E+03  0.12509228410E+03 0.  0.
          5    1    3    3  502    0 -0.88794298082E+01 -0.20366507862E+03  0.28056354042E+03  0.34683091145E+03  0.41800000000E+01 0.  1.
         -5    1    3    3    0  502  0.61872984533E+02 -0.39162244462E+02  0.12696813845E+03  0.14662990209E+03  0.41800000000E+01 0.  1.
        -11    1    1    2    0    0 -0.22225889622E+02  0.14423974465E+03  0.78508346862E+01  0.14615310367E+03  0.00000000000E+00 0.  1.
         11    1    1    2    0    0 -0.30767665103E+02  0.98587578433E+02 -0.88223594271E+02  0.13582916632E+03  0.00000000000E+00 0. -1.
</event>
<event>
 7    1  0.2841804E-009  0.2166325E+03  0.7561462E-02  0.1136419E+00
          2   -1    0    0  501    0  0.00000000000E+00  0.00000000000E+00  0.55413841965E+03  0.55413841965E+03  0.00000000000E+00 0.  1.
         -2   -1    0    0    0  501 -0.00000000000E+00 -0.00000000000E+00 -0.25400213119E+03  0.25400213119E+03  0.00000000000E+00 0. -1.
         25    2    1    2    0    0  0.78149074744E+02  0.17603077036E+03 -0.17418785279E+03  0.28824062777E+03  0.12508853442E+03 0.  0.
          5    1    3    3  502    0  0.19926530043E+02 -0.17799784913E+02 -0.16935642541E+02  0.31909047789E+02  0.41800000000E+01 0.  1.
         -5    1    3    3    0  502  0.58222544701E+02  0.19383055527E+03 -0.15725221024E+03  0.25633157998E+03  0.41800000000E+01 0.  1.
        -11    1    1    2    0    0 -0.77296972811E+02 -0.93750094334E+02  0.35280573891E+03  0.37314312482E+03  0.00000000000E+00 0.  1.
         11    1    1    2    0    0 -0.85210193328E+00 -0.82280676027E+02  0.12151840234E+03  0.14675679825E+03  0.00000000000E+00 0. -1.
</event>
<event>
 7    1  0.2841804E-009  0.5455927E+02  0.7561462E-02  0.1422195E+00
          2   -1    0    0  501    0  0.00000000000E+00  0.00000000000E+00  0.10801235255E+04  0.10801235255E+04  0.00000000000E+00 0. -1.
         -2   -1    0    0    0  501 -0.00000000000E+00 -0.00000000000E+00 -0.18612027218E+02  0.18612027218E+02  0.00000000000E+00 0.  1.
         25    2    1    2    0    0  0.28478888236E+02  0.20476299393E+01  0.92007638416E+03  0.92897998512E+03  0.12509204695E+03 0.  0.
          5    1    3    3  502    0 -0.64837340054E+01 -0.63721668618E+01  0.20170605174E+01  0.10207068644E+02  0.41800000000E+01 0.  1.
         -5    1    3    3    0  502  0.34962622242E+02  0.84197968011E+01  0.91805932364E+03  0.91877291648E+03  0.41800000000E+01 0.  1.
        -11    1    1    2    0    0 -0.18321918045E+02 -0.28889257810E+02  0.10606130688E+02  0.35815805251E+02  0.00000000000E+00 0.  1.
         11    1    1    2    0    0 -0.10156970191E+02  0.26841627870E+02  0.13082898347E+03  0.13393976238E+03  0.00000000000E+00 0. -1.
</event>
<event>
 7    1  0.2841804E-009  0.2261017E+03  0.7561462E-02  0.1129414E+00
          2   -1    0    0  501    0  0.00000000000E+00  0.00000000000E+00  0.58448557992E+03  0.58448557992E+03  0.00000000000E+00 0. -1.
         -2   -1    0    0    0  501 -0.00000000000E+00 -0.00000000000E+00 -0.98608117925E+02  0.98608117925E+02  0.00000000000E+00 0.  1.
         25    2    1    2    0    0  0.19847016525E+03  0.59515571417E+02  0.17505226755E+03  0.29870389390E+03  0.12509280604E+03 0.  0.
          5    1    3    3  502    0  0.53536254377E+02  0.63146447333E+02  0.17808967572E+02  0.84783465779E+02  0.41800000000E+01 0.  1.
         -5    1    3    3    0  502  0.14493391087E+03 -0.36308759152E+01  0.15724329998E+03  0.21392042812E+03  0.41800000000E+01 0.  1.
        -11    1    1    2    0    0  0.36344595350E+01 -0.17464844198E+02  0.40519807015E+02  0.44272845396E+02  0.00000000000E+00 0. -1.
         11    1    1    2    0    0 -0.20210462478E+03 -0.42050727220E+02  0.27030538743E+03  0.34011695855E+03  0.00000000000E+00 0.  1.
</event>
<event>
 7    1  0.2841804E-009  0.1120707E+03  0.7561462E-02  0.1256783E+00
         -2   -1    0    0    0  501 -0.00000000000E+00  0.00000000000E+00  0.62695750715E+02  0.62695750715E+02  0.00000000000E+00 0.  1.
          2   -1    0    0  501    0  0.00000000000E+00 -0.00000000000E+00 -0.37696850403E+03  0.37696850403E+03  0.00000000000E+00 0. -1.
         25    2    1    2    0    0 -0.47360885605E+02 -0.78185361658E+01 -0.30886138230E+03  0.33667042477E+03  0.12508972157E+03 0.  0.
          5    1    3    3  502    0  0.25135235859E+02  0.38170279873E+02 -0.80424992293E+02  0.92598067651E+02  0.41800000000E+01 0. -1.
         -5    1    3    3    0  502 -0.72496121464E+02 -0.45988816039E+02 -0.22843639001E+03  0.24407235712E+03  0.41800000000E+01 0. -1.
        -11    1    1    2    0    0  0.47799554920E+02 -0.28712253192E+02 -0.25485845364E+02  0.61308394596E+02  0.00000000000E+00 0. -1.
         11    1    1    2    0    0 -0.43866931536E+00  0.36530789358E+02  0.20074474356E+02  0.41685435377E+02  0.00000000000E+00 0.  1.
</event>
<event>
 7    1  0.2841804E-009  0.9269426E+02  0.7561462E-02  0.1296455E+00
          2   -1    0    0  501    0  0.00000000000E+00  0.00000000000E+00  0.26446020985E+03  0.26446020985E+03  0.00000000000E+00 0. -1.
         -2   -1    0    0    0  501 -0.00000000000E+00 -0.00000000000E+00 -0.51502106590E+02  0.51502106590E+02  0.00000000000E+00 0.  1.
         25    2    1    2    0    0 -0.34088002329E+02 -0.19548420030E+02  0.14153490761E+03  0.19293633666E+03  0.12509263489E+03 0.  0.
          5    1    3    3  502    0 -0.70199325325E+02 -0.24858980864E+02  0.39315620467E+02  0.84315506393E+02  0.41800000000E+01 0.  1.
         -5    1    3    3    0  502  0.36111322995E+02  0.53105608345E+01  0.10221928714E+03  0.10862083027E+03  0.41800000000E+01 0.  1.
        -11    1    1    2    0    0 -0.14541274646E+02 -0.95452278294E+01  0.63460779768E+02  0.65801448399E+02  0.00000000000E+00 0. -1.
         11    1    1    2    0    0  0.48629276975E+02  0.29093647859E+02  0.79624158852E+01  0.57224531379E+02  0.00000000000E+00 0.  1.
</event>
<event>
 7    1  0.2841804E-009  0.8645413E+02  0.7561462E-02  0.1311673E+00
          1   -1    0    0  501    0  0.00000000000E+00  0.00000000000E+00  0.33288239040E+03  0.33288239040E+03  0.00000000000E+00 0. -1.
         -1   -1    0    0    0  501 -0.00000000000E+00 -0.00000000000E+00 -0.49708596868E+02  0.49708596868E+02  0.00000000000E+00 0.  1.
         25    2    1    2    0    0  0.30370136065E+02 -0.38644553439E+01  0.97204133160E+02  0.16138165439E+03  0.12513239265E+03 0.  0.
          5    1    3    3  502    0  0.60307832907E+01  0.53995080405E+02  0.12560871821E+02  0.55920362623E+02  0.41800000000E+01 0. -1.
         -5    1    3    3    0  502  0.24339352774E+02 -0.57859535749E+02  0.84643261339E+02  0.10546129176E+03  0.41800000000E+01 0. -1.
        -11    1    1    2    0    0 -0.38652006111E+01 -0.19679574361E+02 -0.97534008426E+01  0.22301440554E+02  0.00000000000E+00 0.  1.
         11    1    1    2    0    0 -0.26504935454E+02  0.23544029705E+02  0.19572306121E+03  0.19890789233E+03  0.00000000000E+00 0. -1.
</event>
<event>
 7    1  0.2841804E-009  0.1133450E+03  0.7561462E-02  0.1254498E+00
          2   -1    0    0  501    0  0.00000000000E+00  0.00000000000E+00  0.44759521313E+03  0.44759521313E+03  0.00000000000E+00 0. -1.
         -2   -1    0    0    0  501 -0.00000000000E+00 -0.00000000000E+00 -0.37273784532E+02  0.37273784532E+02  0.00000000000E+00 0.  1.
         25    2    1    2    0    0  0.41400443148E+02 -0.55690063744E+02  0.23771782266E+03  0.27743904928E+03  0.12508910009E+03 0.  0.
          5    1    3    3  502    0  0.55810463383E+02  0.17490475915E+02  0.15633125687E+03  0.16696604099E+03  0.41800000000E+01 0.  1.
         -5    1    3    3    0  502 -0.14410020235E+02 -0.73180539659E+02  0.81386565791E+02  0.11047300828E+03  0.41800000000E+01 0.  1.
        -11    1    1    2    0    0  0.16733453354E+02  0.11008565544E+02  0.10758283373E+03  0.10943154522E+03  0.00000000000E+00 0. -1.
         11    1    1    2    0    0 -0.58133896502E+02  0.44681498200E+02  0.65020772208E+02  0.97998403162E+02  0.00000000000E+00 0.  1.
</event>
<event>
 7    1  0.2841804E-009  0.1104965E+03  0.7561462E-02  0.1259653E+00
          1   -1    0    0  501    0  0.00000000000E+00  0.00000000000E+00  0.33367107296E+02  0.33367107296E+02  0.00000000000E+00 0. -1.
         -1   -1    0    0    0  501 -0.00000000000E+00 -0.00000000000E+00 -0.43570136427E+03  0.43570136427E+03  0.00000000000E+00 0.  1.
         25    2    1    2    0    0  0.55045399501E+01  0.32574627425E+02 -0.30793416754E+03  0.33400782239E+03  0.12508544105E+03 0.  0.
          5    1    3    3  502    0 -0.54377869656E+02  0.35892365578E+02 -0.20092924246E+03  0.21127055519E+03  0.41800000000E+01 0. -1.
         -5    1    3    3    0  502  0.59882409606E+02 -0.33177381536E+01 -0.10700492509E+03  0.12273726720E+03  0.41800000000E+01 0. -1.
        -11    1    1    2    0    0 -0.35232608881E+02  0.15951878447E+02 -0.47938324603E+02  0.61594497483E+02  0.00000000000E+00 0.  1.
         11    1    1    2    0    0  0.29728068930E+02 -0.48526505871E+02 -0.46461764831E+02  0.73466151700E+02  0.00000000000E+00 0. -1.
</event>
<event>
 7    1  0.2841804E-009  0.8835636E+02  0.7561462E-02  0.1306882E+00
          1   -1    0    0  501    0  0.00000000000E+00  0.00000000000E+00  0.34460163305E+02  0.34460163305E+02  0.00000000000E+00 0. -1.
         -1   -1    0    0    0  501 -0.00000000000E+00 -0.00000000000E+00 -0.35748275703E+03  0.35748275703E+03  0.00000000000E+00 0.  1.
         25    2    1    2    0    0 -0.38804490840E+02  0.51594925861E+01 -0.20919079229E+03  0.24686247264E+03  0.12509150230E+03 0.  0.
          5    1    3    3  502    0 -0.26538632908E+02  0.40969677288E+02 -0.18441233071E+02  0.52348495403E+02  0.41800000000E+01 0. -1.
         -5    1    3    3    0  502 -0.12265857932E+02 -0.35810184702E+02 -0.19074955922E+03  0.19451397724E+03  0.41800000000E+01 0. -1.
        -11    1    1    2    0    0 -0.22279443102E+02 -0.16222257283E+02 -0.29585984097E+02  0.40433472165E+02  0.00000000000E+00 0.  1.
         11    1    1    2    0    0  0.61083933943E+02  0.11062764697E+02 -0.84245817339E+02  0.10464697553E+03  0.00000000000E+00 0. -1.
</event>
<event>
 7    1  0.2841804E-009  0.1650784E+03  0.7561462E-02  0.1183080E+00
          1   -1    0    0  501    0  0.00000000000E+00  0.00000000000E+00  0.43976940143E+03  0.43976940143E+03  0.00000000000E+00 0. -1.
         -1   -1    0    0    0  501 -0.00000000000E+00 -0.00000000000E+00 -0.75069630197E+02  0.75069630197E+02  0.00000000000E+00 0.  1.
         25    2    1    2    0    0 -0.48806131727E+02 -0.13119837842E+03  0.24955704682E+03  0.31230429730E+03  0.12514072678E+03 0.  0.
          5    1    3    3  502    0  0.49802118105E+01 -0.13264991386E+03  0.16238800835E+03  0.20978117126E+03  0.41800000000E+01 0.  1.
         -5    1    3    3    0  502 -0.53786343537E+02  0.14515354427E+01  0.87169038465E+02  0.10252312604E+03  0.41800000000E+01 0.  1.
        -11    1    1    2    0    0  0.32515666990E+02  0.11804610895E+03  0.46841381611E+02  0.13109640525E+03  0.00000000000E+00 0.  1.
         11    1    1    2    0    0  0.16290464737E+02  0.13152269469E+02  0.68301342799E+02  0.71438329080E+02  0.00000000000E+00 0. -1.
</event>
<event>
 7    1  0.2841804E-009  0.1084717E+03  0.7561462E-02  0.1263426E+00
         -1   -1    0    0    0  501 -0.00000000000E+00  0.00000000000E+00  0.61285962750E+02  0.61285962750E+02  0.00000000000E+00 0.  1.
          1   -1    0    0  501    0  0.00000000000E+00 -0.00000000000E+00 -0.22917527171E+03  0.22917527171E+03  0.00000000000E+00 0. -1.
         25    2    1    2    0    0 -0.12815601043E+02  0.41871163043E+02 -0.11262104697E+03  0.17391964374E+03  0.12508840207E+03 0.  0.
          5    1    3    3  502    0  0.28374332744E+02  0.63980554140E+02 -0.24851493561E+02  0.74388730322E+02  0.41800000000E+01 0.  1.
         -5    1    3    3    0  502 -0.41189933786E+02 -0.22109391097E+02 -0.87769553409E+02  0.99530913417E+02  0.41800000000E+01 0.  1.
        -11    1    1    2    0    0  0.40789596206E+02 -0.55418851419E+02 -0.25157013855E+02  0.73266060337E+02  0.00000000000E+00 0.  1.
         11    1    1    2    0    0 -0.27973995163E+02  0.13547688376E+02 -0.30111248136E+02  0.43275530384E+02  0.00000000000E+00 0. -1.
</event>
<event>
 7    1  0.2841804E-009  0.1427541E+03  0.7561462E-02  0.1209670E+00
          1   -1    0    0  501    0  0.00000000000E+00  0.00000000000E+00  0.61278438132E+03  0.61278438132E+03  0.00000000000E+00 0. -1.
         -1   -1    0    0    0  501 -0.00000000000E+00 -0.00000000000E+00 -0.51863945279E+02  0.51863945279E+02  0.00000000000E+00 0.  1.
         25    2    1    2    0    0 -0.10159872359E+03 -0.66966198196E+02  0.16561005284E+03  0.24058261524E+03  0.12508610162E+03 0.  0.
          5    1    3    3  502    0 -0.62499862197E+02 -0.94135787391E+01  0.15829345379E+03  0.17049673941E+03  0.41800000000E+01 0.  1.
         -5    1    3    3    0  502 -0.39098861397E+02 -0.57552619457E+02  0.73165990566E+01  0.70085875829E+02  0.41800000000E+01 0.  1.
        -11    1    1    2    0    0  0.74719926425E+02  0.90063132428E+02  0.32282146141E+03  0.34337753446E+03  0.00000000000E+00 0.  1.
         11    1    1    2    0    0  0.26878797169E+02 -0.23096934231E+02  0.72488921785E+02  0.80688176889E+02  0.00000000000E+00 0. -1.
</event>
<event>
 7    1  0.2841804E-009  0.1065889E+03  0.7561462E-02  0.1267020E+00
          4   -1    0    0  501    0  0.00000000000E+00  0.00000000000E+00  0.37354837950E+03  0.37354837950E+03  0.00000000000E+00 0.  1.
         -4   -1    0    0    0  501 -0.00000000000E+00 -0.00000000000E+00 -0.39635601315E+02  0.39635601315E+02  0.00000000000E+00 0. -1.
         25    2    1    2    0    0 -0.19597265123E+02 -0.45819146731E+02  0.16650474884E+03  0.21414197595E+03  0.12509799147E+03 0.  0.
          5    1    3    3  502    0 -0.72288033373E+02 -0.18839441383E+02  0.83670759466E+02  0.11224416560E+03  0.41800000000E+01 0. -1.
         -5    1    3    3    0  502  0.52690768251E+02 -0.26979705349E+02  0.82833989377E+02  0.10189781036E+03  0.41800000000E+01 0. -1.
        -11    1    1    2    0    0 -0.26736239545E+01  0.54898830795E+02  0.16609776645E+03  0.17495570270E+03  0.00000000000E+00 0.  1.
         11    1    1    2    0    0  0.22270889077E+02 -0.90796840632E+01  0.13102628926E+01  0.24086302162E+02  0.00000000000E+00 0. -1.
</event>
<event>
 7    1  0.2841804E-009  0.7822556E+02  0.7561462E-02  0.1334164E+00
          2   -1    0    0  501    0  0.00000000000E+00  0.00000000000E+00  0.10422174348E+04  0.10422174348E+04  0.00000000000E+00 0. -1.
         -2   -1    0    0    0  501 -0.00000000000E+00 -0.00000000000E+00 -0.15418258657E+02  0.15418258657E+02  0.00000000000E+00 0.  1.
         25    2    1    2    0    0  0.49293145240E+02  0.12592148414E+02  0.75329780532E+03  0.76530613049E+03  0.12509002156E+03 0.  0.
          5    1    3    3  502    0  0.13984542352E+02  0.25640279401E+02  0.34017864780E+02  0.45029755460E+02  0.41800000000E+01 0. -1.
         -5    1    3    3    0  502  0.35308602888E+02 -0.13048130987E+02  0.71927994054E+03  0.72027637503E+03  0.41800000000E+01 0. -1.
        -11    1    1    2    0    0 -0.51014396448E+02  0.21195418168E+02  0.88990007703E+02  0.10474223536E+03  0.00000000000E+00 0.  1.
         11    1    1    2    0    0  0.17212512080E+01 -0.33787566582E+02  0.18451136312E+03  0.18758732762E+03  0.00000000000E+00 0. -1.
</event>
<event>
 7    1  0.2841804E-009  0.1860921E+03  0.7561462E-02  0.1162034E+00
         -2   -1    0    0    0  501 -0.00000000000E+00  0.00000000000E+00  0.79979127451E+02  0.79979127451E+02  0.00000000000E+00 0. -1.
          2   -1    0    0  501    0  0.00000000000E+00 -0.00000000000E+00 -0.47210329170E+03  0.47210329170E+03  0.00000000000E+00 0.  1.
         25    2    1    2    0    0  0.60506589129E+02 -0.14352683169E+03 -0.13837427167E+03  0.24302068748E+03  0.12510242500E+03 0.  0.
          5    1    3    3  502    0 -0.10733355120E+02 -0.12273957380E+03 -0.68632469337E+02  0.14109605287E+03  0.41800000000E+01 0.  1.
         -5    1    3    3    0  502  0.71239944249E+02 -0.20787257888E+02 -0.69741802335E+02  0.10192463461E+03  0.41800000000E+01 0.  1.
        -11    1    1    2    0    0 -0.64182570315E+02  0.51002375877E+02 -0.14166107250E+03  0.16367194060E+03  0.00000000000E+00 0.  1.
         11    1    1    2    0    0  0.36759811865E+01  0.92524455813E+02 -0.11208882007E+03  0.14538979107E+03  0.00000000000E+00 0. -1.
</event>
<event>
 7    1  0.2841804E-009  0.2259620E+03  0.7561462E-02  0.1129515E+00
          1   -1    0    0  501    0  0.00000000000E+00  0.00000000000E+00  0.21324092618E+04  0.21324092618E+04  0.00000000000E+00 0. -1.
         -1   -1    0    0    0  501 -0.00000000000E+00 -0.00000000000E+00 -0.30650352864E+02  0.30650352864E+02  0.00000000000E+00 0.  1.
         25    2    1    2    0    0 -0.29861415302E+02  0.21536684285E+03  0.14393209797E+04  0.14610156951E+04  0.12508955806E+03 0.  0.
          5    1    3    3  502    0 -0.22182672263E+02  0.20337320181E+03  0.14273643871E+04  0.14419567595E+04  0.41800000000E+01 0. -1.
         -5    1    3    3    0  502 -0.76787430395E+01  0.11993641037E+02  0.11956592553E+02  0.19058935581E+02  0.41800000000E+01 0. -1.
        -11    1    1    2    0    0  0.55481954437E+02 -0.18273465824E+03  0.54651527189E+03  0.57892067246E+03  0.00000000000E+00 0. -1.
         11    1    1    2    0    0 -0.25620539135E+02 -0.32632184601E+02  0.11592265736E+03  0.12312324714E+03  0.00000000000E+00 0.  1.
</event>
<event>
 7    1  0.2841804E-009  0.7423110E+02  0.7561462E-02  0.1346269E+00
          1   -1    0    0  501    0  0.00000000000E+00  0.00000000000E+00  0.16606287279E+03  0.16606287279E+03  0.00000000000E+00 0. -1.
         -1   -1    0    0    0  501 -0.00000000000E+00 -0.00000000000E+00 -0.77667613926E+02  0.77667613926E+02  0.00000000000E+00 0.  1.
         25    2    1    2    0    0 -0.14343866957E+02  0.83733913769E+01  0.80499754181E+02  0.14967695750E+03  0.12508845262E+03 0.  0.
          5    1    3    3  502    0  0.31665742804E+01  0.27821224065E+02  0.10790315002E+03  0.11155541173E+03  0.41800000000E+01 0. -1.
         -5    1    3    3    0  502 -0.17510441237E+02 -0.19447832688E+02 -0.27403395838E+02  0.38121545772E+02  0.41800000000E+01 0. -1.
        -11    1    1    2    0    0 -0.21017183244E+02  0.33062235554E+02  0.14916719912E+01  0.39205337604E+02  0.00000000000E+00 0.  1.
         11    1    1    2    0    0  0.35361050200E+02 -0.41435626931E+02  0.64038326930E+01  0.54848191616E+02  0.00000000000E+00 0. -1.
</event>
<event>
 7    1  0.2841804E-009  0.1020151E+03  0.7561462E-02  0.1276115E+00
         -2   -1    0    0    0  501 -0.00000000000E+00  0.00000000000E+00  0.28728259878E+02  0.28728259878E+02  0.00000000000E+00 0.  1.
          2   -1    0    0  501    0  0.00000000000E+00 -0.00000000000E+00 -0.45324566656E+03  0.45324566656E+03  0.00000000000E+00 0. -1.
         25    2    1    2    0    0  0.23853741721E+00 -0.17941736503E+02 -0.31073515911E+03  0.33544882064E+03  0.12509040470E+03 0.  0.
          5    1    3    3  502    0  0.19045195389E+02  0.43955485291E+02 -0.21163344872E+03  0.21702763228E+03  0.41800000000E+01 0.  1.
         -5    1    3    3    0  502 -0.18806657971E+02 -0.61897221794E+02 -0.99101710392E+02  0.11842118836E+03  0.41800000000E+01 0.  1.
        -11    1    1    2    0    0 -0.19271769973E+02 -0.32176952502E+02 -0.35486908183E+02  0.51634078307E+02  0.00000000000E+00 0.  1.
         11    1    1    2    0    0  0.19033232555E+02  0.50118689005E+02 -0.78295339385E+02  0.94891027492E+02  0.00000000000E+00 0. -1.
</event>
<event>
 7    1  0.2841804E-009  0.1572171E+03  0.7561462E-02  0.1191875E+00
         -3   -1    0    0    0  501 -0.00000000000E+00  0.00000000000E+00  0.10409496496E+04  0.10409496496E+04  0.00000000000E+00 0.  1.
          3   -1    0    0  501    0  0.00000000000E+00 -0.00000000000E+00 -0.29843163645E+02  0.29843163645E+02  0.00000000000E+00 0. -1.
         25    2    1    2    0    0  0.12312249089E+03 -0.47265139077E+02  0.40652218911E+03  0.44531210537E+03  0.12509772106E+03 0.  0.
          5    1    3    3  502    0  0.14623359778E+03 -0.53438549905E+02  0.32760097167E+03  0.36273931793E+03  0.41800000000E+01 0. -1.
         -5    1    3    3    0  502 -0.23111106885E+02  0.61734108281E+01  0.78921217446E+02  0.82572787442E+02  0.41800000000E+01 0. -1.
        -11    1    1    2    0    0 -0.30731442038E+02  0.24357786785E+02  0.54043291196E+02  0.66771256017E+02  0.00000000000E+00 0. -1.
         11    1    1    2    0    0 -0.92391048852E+02  0.22907352292E+02  0.55054100568E+03  0.55870945189E+03  0.00000000000E+00 0.  1.
</event>
<event>
 7    1  0.2841804E-009  0.1475117E+03  0.7561462E-02  0.1203564E+00
          1   -1    0    0  501    0  0.00000000000E+00  0.00000000000E+00  0.10952106683E+04  0.10952106683E+04  0.00000000000E+00 0. -1.
         -1   -1    0    0    0  501 -0.00000000000E+00 -0.00000000000E+00 -0.24019818898E+02  0.24019818898E+02  0.00000000000E+00 0.  1.
         25    2    1    2    0    0 -0.10036974155E+03 -0.45783709072E+02  0.41024409372E+03  0.44284885811E+03  0.12507862194E+03 0.  0.
          5    1    3    3  502    0 -0.19657342629E+02 -0.74538709448E+02  0.14790684533E+03  0.16684225371E+03  0.41800000000E+01 0.  1.
         -5    1    3    3    0  502 -0.80712398924E+02  0.28755000376E+02  0.26233724838E+03  0.27600660441E+03  0.41800000000E+01 0.  1.
        -11    1    1    2    0    0  0.25330088112E+01  0.33315302698E+02  0.73827845308E+02  0.81036265155E+02  0.00000000000E+00 0.  1.
         11    1    1    2    0    0  0.97836732742E+02  0.12468406374E+02  0.58711891039E+03  0.59534536394E+03  0.00000000000E+00 0. -1.
</event>
<event>
 7    1  0.2841804E-009  0.1145736E+03  0.7561462E-02  0.1252327E+00
          2   -1    0    0  501    0  0.00000000000E+00  0.00000000000E+00  0.13101008153E+04  0.13101008153E+04  0.00000000000E+00 0. -1.
         -2   -1    0    0    0  501 -0.00000000000E+00 -0.00000000000E+00 -0.26698026625E+02  0.26698026625E+02  0.00000000000E+00 0.  1.
         25    2    1    2    0    0  0.43119550196E+01  0.79742061973E+02  0.11357812704E+04  0.11454369523E+04  0.12509727417E+03 0.  0.
          5    1    3    3  502    0  0.41152311220E+02  0.35286745256E+02  0.18318501187E+03  0.19108345842E+03  0.41800000000E+01 0.  1.
         -5    1    3    3    0  502 -0.36840356200E+02  0.44455316717E+02  0.95259625853E+03  0.95435349383E+03  0.41800000000E+01 0.  1.
        -11    1    1    2    0    0 -0.24740843625E+02 -0.90486062007E+02  0.93140382244E+02  0.13219291799E+03  0.00000000000E+00 0.  1.
         11    1    1    2    0    0  0.20428888606E+02  0.10744000034E+02  0.54481136006E+02  0.59168971656E+02  0.00000000000E+00 0. -1.
</event>
<event>
 7    1  0.2841804E-009  0.1597452E+03  0.7561462E-02  0.1188985E+00
         -2   -1    0    0    0  501 -0.00000000000E+00  0.00000000000E+00  0.67417098854E+02  0.67417098854E+02  0.00000000000E+00 0.  1.
          2   -1    0    0  501    0  0.00000000000E+00 -0.00000000000E+00 -0.41844279487E+03  0.41844279487E+03  0.00000000000E+00 0. -1.
         25    2    1    2    0    0 -0.78031929049E+01  0.12150792369E+03 -0.13180066140E+03  0.21873446848E+03  0.12509311739E+03 0.  0.
          5    1    3    3  502    0  0.58147055694E+02  0.47063899199E+02 -0.52958017094E+02  0.91750284295E+02  0.41800000000E+01 0.  1.
         -5    1    3    3    0  502 -0.65950248599E+02  0.74444024493E+02 -0.78842644301E+02  0.12698418419E+03  0.41800000000E+01 0.  1.
        -11    1    1    2    0    0 -0.35490516158E+02 -0.47691613524E+02 -0.50757146032E+02  0.78168757257E+02  0.00000000000E+00 0.  1.
         11    1    1    2    0    0  0.43293709063E+02 -0.73816310169E+02 -0.16846788859E+03  0.18895666798E+03  0.00000000000E+00 0. -1.
</event>
<event>
 7    1  0.2841804E-009  0.1600244E+03  0.7561462E-02  0.1188669E+00
         -3   -1    0    0    0  501 -0.00000000000E+00  0.00000000000E+00  0.72926068775E+02  0.72926068775E+02  0.00000000000E+00 0.  1.
          3   -1    0    0  501    0  0.00000000000E+00 -0.00000000000E+00 -0.45525119442E+03  0.45525119442E+03  0.00000000000E+00 0. -1.
         25    2    1    2    0    0 -0.11557450873E+03  0.86729312124E+02 -0.23398495204E+03  0.30211779616E+03  0.12508702700E+03 0.  0.
          5    1    3    3  502    0 -0.31302415786E+02  0.37562448848E+01  0.79593422049E+01  0.32783748078E+02  0.41800000000E+01 0.  1.
         -5    1    3    3    0  502 -0.84272092947E+02  0.82973067239E+02 -0.24194429425E+03  0.26933404808E+03  0.41800000000E+01 0.  1.
        -11    1    1    2    0    0  0.33270389399E+02 -0.80810917723E+02 -0.86309030255E+02  0.12282740711E+03  0.00000000000E+00 0.  1.
         11    1    1    2    0    0  0.82304119335E+02 -0.59183944010E+01 -0.62031143353E+02  0.10323205993E+03  0.00000000000E+00 0. -1.
</event>
<event>
 7    1  0.2841804E-009  0.1057842E+03  0.7561462E-02  0.1268582E+00
         -2   -1    0    0    0  501 -0.00000000000E+00  0.00000000000E+00  0.56542197648E+03  0.56542197648E+03  0.00000000000E+00 0.  1.
          2   -1    0    0  501    0  0.00000000000E+00 -0.00000000000E+00 -0.26225123365E+02  0.26225123365E+02  0.00000000000E+00 0. -1.
         25    2    1    2    0    0 -0.30539101377E+02  0.21868878764E+02  0.21238824454E+03  0.24933794560E+03  0.12509900131E+03 0.  0.
          5    1    3    3  502    0 -0.44509938542E+01 -0.46457633441E+02  0.38488537345E+02  0.60637966310E+02  0.41800000000E+01 0.  1.
         -5    1    3    3    0  502 -0.26088107523E+02  0.68326512205E+02  0.17389970719E+03  0.18869997929E+03  0.41800000000E+01 0.  1.
        -11    1    1    2    0    0 -0.29006888894E+02 -0.39754082548E+01  0.44735378974E+02  0.53464545318E+02  0.00000000000E+00 0. -1.
         11    1    1    2    0    0  0.59545990271E+02 -0.17893470509E+02  0.28207322961E+03  0.28884460893E+03  0.00000000000E+00 0.  1.
</event>
<event>
 7    1  0.2841804E-009  0.9409490E+02  0.7561462E-02  0.1293228E+00
         -1   -1    0    0    0  501 -0.00000000000E+00  0.00000000000E+00  0.29784852095E+03  0.29784852095E+03  0.00000000000E+00 0.  1.
          1   -1    0    0  501    0  0.00000000000E+00 -0.00000000000E+00 -0.51227260838E+02  0.51227260838E+02  0.00000000000E+00 0. -1.
         25    2    1    2    0    0 -0.34434617124E+02  0.46075772805E+02  0.16896876251E+03  0.21794038713E+03  0.12505538750E+03 0.  0.
          5    1    3    3  502    0  0.35792667605E+02  0.30492751214E+01  0.79436494308E+01  0.37026842956E+02  0.41800000000E+01 0.  1.
         -5    1    3    3    0  502 -0.70227284728E+02  0.43026497684E+02  0.16102511308E+03  0.18091354417E+03  0.41800000000E+01 0.  1.
        -11    1    1    2    0    0 -0.86087348218E+01 -0.11403396697E+02  0.74409806599E+02  0.75769169783E+02  0.00000000000E+00 0.  1.
         11    1    1    2    0    0  0.43043351946E+02 -0.34672376109E+02  0.32426909992E+01  0.55366224873E+02  0.00000000000E+00 0. -1.
</event>
<event>
 7    1  0.2841804E-009  0.1030834E+03  0.7561462E-02  0.1273942E+00
         -1   -1    0    0    0  501 -0.00000000000E+00  0.00000000000E+00  0.26667510159E+03  0.26667510159E+03  0.00000000000E+00 0.  1.
          1   -1    0    0  501    0  0.00000000000E+00 -0.00000000000E+00 -0.46332154546E+02  0.46332154546E+02  0.00000000000E+00 0. -1.
         25    2    1    2    0    0 -0.31757219901E+02  0.15601853398E+02  0.11668051015E+03  0.17468668666E+03  0.12509659549E+03 0.  0.
          5    1    3    3  502    0  0.32559941483E+02  0.34349505629E+02  0.98577616483E+01  0.48525108872E+02  0.41800000000E+01 0.  1.
         -5    1    3    3    0  502 -0.64317161384E+02 -0.18747652231E+02  0.10682274850E+03  0.12616157779E+03  0.41800000000E+01 0.  1.
        -11    1    1    2    0    0 -0.17445882161E+02  0.23087029480E+02  0.30682625099E+02  0.42175742051E+02  0.00000000000E+00 0.  1.
         11    1    1    2    0    0  0.49203102062E+02 -0.38688882878E+02  0.72979811788E+02  0.96144827419E+02  0.00000000000E+00 0. -1.
</event>
<event>
 7    1  0.2841804E-009  0.1116705E+03  0.7561462E-02  0.1257507E+00
         -2   -1    0    0    0  501 -0.00000000000E+00  0.00000000000E+00  0.24528251697E+02  0.24528251697E+02  0.00000000000E+00 0.  1.
          2   -1    0    0  501    0  0.00000000000E+00 -0.00000000000E+00 -0.65085402101E+03  0.65085402101E+03  0.00000000000E+00 0. -1.
         25    2    1    2    0    0 -0.20723477801E+02  0.45155862801E+02 -0.45616519598E+03  0.47560876489E+03  0.12509395165E+03 0.  0.
          5    1    3    3  502    0  0.39073897404E+02  0.51932776119E+02 -0.32178699443E+03  0.32831101851E+03  0.41800000000E+01 0. -1.
         -5    1    3    3    0  502 -0.59797375206E+02 -0.67769133182E+01 -0.13437820156E+03  0.14729774638E+03  0.41800000000E+01 0. -1.
        -11    1    1    2    0    0  0.37371281484E+02  0.11291375559E+02 -0.35305361761E+02  0.52636265168E+02  0.00000000000E+00 0.  1.
         11    1    1    2    0    0 -0.16647803683E+02 -0.56447238360E+02 -0.13485521157E+03  0.14713724264E+03  0.00000000000E+00 0. -1.
</event>
<event>
 7    1  0.2841804E-009  0.1534071E+03  0.7561462E-02  0.1196348E+00
         -1   -1    0    0    0  501 -0.00000000000E+00  0.00000000000E+00  0.25810635322E+02  0.25810635322E+02  0.00000000000E+00 0.  1.
          1   -1    0    0  501    0  0.00000000000E+00 -0.00000000000E+00 -0.11442977568E+04  0.11442977568E+04  0.00000000000E+00 0. -1.
         25    2    1    2    0    0  0.11033264795E+03  0.15951226990E+02 -0.83612869334E+03  0.85275208703E+03  0.12508874951E+03 0.  0.
          5    1    3    3  502    0  0.44143575321E+02  0.69407695722E+02 -0.40616595224E+03  0.41443254774E+03  0.41800000000E+01 0. -1.
         -5    1    3    3    0  502  0.66189072625E+02 -0.53456468731E+02 -0.42996274110E+03  0.43831953929E+03  0.41800000000E+01 0. -1.
        -11    1    1    2    0    0 -0.45536634783E+02 -0.48695525430E+02 -0.17929985681E+03  0.19129369555E+03  0.00000000000E+00 0.  1.
         11    1    1    2    0    0 -0.64796013163E+02  0.32744298439E+02 -0.10305857133E+03  0.12606260955E+03  0.00000000000E+00 0. -1.
</event>
<event>
 7    1  0.2841804E-009  0.8517863E+02  0.7561462E-02  0.1314966E+00
          2   -1    0    0  501    0  0.00000000000E+00  0.00000000000E+00  0.22724134407E+03  0.22724134407E+03  0.00000000000E+00 0. -1.
         -2   -1    0    0    0  501 -0.00000000000E+00 -0.00000000000E+00 -0.97632753014E+02  0.97632753014E+02  0.00000000000E+00 0.  1.
         25    2    1    2    0    0  0.59619789447E+02 -0.48093501859E+02 -0.55183720330E+01  0.14678617968E+03  0.12509286910E+03 0.  0.
          5    1    3    3  502    0  0.52035445397E+02 -0.29115172052E+02  0.55950637204E+02  0.81873848235E+02  0.41800000000E+01 0.  1.
         -5    1    3    3    0  502  0.75843440495E+01 -0.18978329807E+02 -0.61469009237E+02  0.64912331444E+02  0.41800000000E+01 0.  1.
        -11    1    1    2    0    0 -0.47478354967E+02  0.84018634281E+01  0.14241917406E+02  0.50275418555E+02  0.00000000000E+00 0.  1.
         11    1    1    2    0    0 -0.12141434480E+02  0.39691638431E+02  0.12088504569E+03  0.12781249885E+03  0.00000000000E+00 0. -1.
</event>
<event>
 7    1  0.2841804E-009  0.9778942E+02  0.7561462E-02  0.1285014E+00
         -1   -1    0    0    0  501 -0.00000000000E+00  0.00000000000E+00  0.18896596956E+02  0.18896596956E+02  0.00000000000E+00 0.  1.
          1   -1    0    0  501    0  0.00000000000E+00 -0.00000000000E+00 -0.72765750724E+03  0.72765750724E+03  0.00000000000E+00 0. -1.
         25    2    1    2    0    0  0.29426371014E+00 -0.34544876841E+02 -0.48764966183E+03  0.50462187081E+03  0.12509038618E+03 0.  0.
          5    1    3    3  502    0  0.60297717418E+02 -0.17459286334E+02 -0.17988445609E+03  0.19056896743E+03  0.41800000000E+01 0.  1.
         -5    1    3    3    0  502 -0.60003453708E+02 -0.17085590506E+02 -0.30776520573E+03  0.31405290338E+03  0.41800000000E+01 0.  1.
        -11    1    1    2    0    0  0.66954532759E+01 -0.16921525555E+02 -0.39178901766E+01  0.18614966697E+02  0.00000000000E+00 0.  1.
         11    1    1    2    0    0 -0.69897169860E+01  0.51466402396E+02 -0.21719335828E+03  0.22331726668E+03  0.00000000000E+00 0. -1.
</event>
<event>
 7    1  0.2841804E-009  0.7615658E+02  0.7561462E-02  0.1340326E+00
          1   -1    0    0  501    0  0.00000000000E+00  0.00000000000E+00  0.92907426378E+02  0.92907426378E+02  0.00000000000E+00 0. -1.
         -1   -1    0    0    0  501 -0.00000000000E+00 -0.00000000000E+00 -0.15150002653E+03  0.15150002653E+03  0.00000000000E+00 0.  1.
         25    2    1    2    0    0  0.26396907286E+02  0.40031253717E+02 -0.43125917428E+02  0.14073523176E+03  0.12508901916E+03 0.  0.
          5    1    3    3  502    0  0.13433141249E+02  0.39381176224E+01  0.43510648469E+02  0.45897788448E+02  0.41800000000E+01 0. -1.
         -5    1    3    3    0  502  0.12963766037E+02  0.36093136095E+02 -0.86636565897E+02  0.94837443309E+02  0.41800000000E+01 0. -1.
        -11    1    1    2    0    0 -0.17874124757E+02  0.26547551653E+02 -0.17584498112E+02  0.36516727789E+02  0.00000000000E+00 0.  1.
         11    1    1    2    0    0 -0.85227825293E+01 -0.66578805370E+02  0.21178153872E+01  0.67155493361E+02  0.00000000000E+00 0. -1.
</event>
<event>
 7    1  0.2841804E-009  0.1304369E+03  0.7561462E-02  0.1226809E+00
         -1   -1    0    0    0  501 -0.00000000000E+00  0.00000000000E+00  0.30093308886E+03  0.30093308886E+03  0.00000000000E+00 0.  1.
          1   -1    0    0  501    0  0.00000000000E+00 -0.00000000000E+00 -0.88207947767E+02  0.88207947767E+02  0.00000000000E+00 0. -1.
         25    2    1    2    0    0 -0.11317722473E+03 -0.16990693536E+01  0.16240926911E+03  0.23417072634E+03  0.12508871791E+03 0.  0.
          5    1    3    3  502    0 -0.14709809573E+02  0.94261771375E+01  0.12790184724E+03  0.12915721521E+03  0.41800000000E+01 0.  1.
         -5    1    3    3    0  502 -0.98467415156E+02 -0.11125246491E+02  0.34507421874E+02  0.10501351114E+03  0.41800000000E+01 0.  1.
        -11    1    1    2    0    0  0.76270180679E+02  0.43630256751E+02  0.15714782673E+02  0.89261941271E+02  0.00000000000E+00 0.  1.
         11    1    1    2    0    0  0.36907044050E+02 -0.41931187398E+02  0.34601089312E+02  0.65708369015E+02  0.00000000000E+00 0. -1.
</event>
<event>
 7    1  0.2841804E-009  0.1699160E+03  0.7561462E-02  0.1177935E+00
          1   -1    0    0  501    0  0.00000000000E+00  0.00000000000E+00  0.60592380935E+03  0.60592380935E+03  0.00000000000E+00 0. -1.
         -1   -1    0    0    0  501 -0.00000000000E+00 -0.00000000000E+00 -0.55492489960E+02  0.55492489960E+02  0.00000000000E+00 0.  1.
         25    2    1    2    0    0 -0.76849365467E+02  0.12282939046E+03  0.34128411257E+03  0.39129929846E+03  0.12508961330E+03 0.  0.
          5    1    3    3  502    0  0.20079773607E+02  0.34892253388E+02  0.17515378795E+03  0.17976926458E+03  0.41800000000E+01 0. -1.
         -5    1    3    3    0  502 -0.96929139074E+02  0.87937137069E+02  0.16613032461E+03  0.21153003388E+03  0.41800000000E+01 0. -1.
        -11    1    1    2    0    0 -0.19172451273E+02 -0.21945385957E+02  0.55876394389E+02  0.63018682170E+02  0.00000000000E+00 0. -1.
         11    1    1    2    0    0  0.96021816740E+02 -0.10088400450E+03  0.15327081244E+03  0.20709831868E+03  0.00000000000E+00 0.  1.
</event>
<event>
 7    1  0.2841804E-009  0.1760403E+03  0.7561462E-02  0.1171691E+00
          2   -1    0    0  501    0  0.00000000000E+00  0.00000000000E+00  0.99291852378E+02  0.99291852378E+02  0.00000000000E+00 0. -1.
         -2   -1    0    0    0  501 -0.00000000000E+00 -0.00000000000E+00 -0.33427131574E+03  0.33427131574E+03  0.00000000000E+00 0.  1.
         25    2    1    2    0    0 -0.12682301432E+03 -0.73405710113E+02 -0.12220178852E+03  0.22815353731E+03  0.12509310224E+03 0.  0.
          5    1    3    3  502    0 -0.12655225952E+03 -0.96338959541E+02 -0.12791855008E+03  0.20415018337E+03  0.41800000000E+01 0.  1.
         -5    1    3    3    0  502 -0.27075480110E+00  0.22933249428E+02  0.57167615605E+01  0.24003353937E+02  0.41800000000E+01 0.  1.
        -11    1    1    2    0    0  0.10539382525E+03  0.13763479610E+02 -0.85517076511E+02  0.13642016767E+03  0.00000000000E+00 0.  1.
         11    1    1    2    0    0  0.21429189066E+02  0.59642230503E+02 -0.27260598334E+02  0.68989463144E+02  0.00000000000E+00 0. -1.
</event>
<event>
 7    1  0.2841804E-009  0.9738659E+02  0.7561462E-02  0.1285890E+00
          1   -1    0    0  501    0  0.00000000000E+00  0.00000000000E+00  0.25705049533E+02  0.25705049533E+02  0.00000000000E+00 0.  1.
         -1   -1    0    0    0  501 -0.00000000000E+00 -0.00000000000E+00 -0.69381658507E+03  0.69381658507E+03  0.00000000000E+00 0. -1.
         25    2    1    2    0    0  0.11233061929E+01 -0.74885816428E+02 -0.32306602270E+03  0.35443553164E+03  0.12507495251E+03 0.  0.
          5    1    3    3  502    0  0.23244254603E+02 -0.21772315158E+02 -0.66486883847E+01  0.32802538569E+02  0.41800000000E+01 0. -1.
         -5    1    3    3    0  502 -0.22120948410E+02 -0.53113501271E+02 -0.31641733431E+03  0.32163299307E+03  0.41800000000E+01 0. -1.
        -11    1    1    2    0    0 -0.37333954197E+02  0.38628674837E+02 -0.88946770033E+02  0.10391114740E+03  0.00000000000E+00 0. -1.
         11    1    1    2    0    0  0.36210648004E+02  0.36257141591E+02 -0.25609874281E+03  0.26117495556E+03  0.00000000000E+00 0.  1.
</event>
<event>
 7    1  0.2841804E-009  0.1166961E+03  0.7561462E-02  0.1248649E+00
         -2   -1    0    0    0  501 -0.00000000000E+00  0.00000000000E+00  0.99939435533E+02  0.99939435533E+02  0.00000000000E+00 0.  1.
          2   -1    0    0  501    0  0.00000000000E+00 -0.00000000000E+00 -0.25776152048E+03  0.25776152048E+03  0.00000000000E+00 0. -1.
         25    2    1    2    0    0  0.11676960165E+02  0.50153439223E+02  0.33366051484E+02  0.13932791433E+03  0.12508899014E+03 0.  0.
          5    1    3    3  502    0  0.65102368546E+02  0.40375084046E+02  0.36093694525E+02  0.84786160348E+02  0.41800000000E+01 0. -1.
         -5    1    3    3    0  502 -0.53425408381E+02  0.97783551768E+01 -0.27276430412E+01  0.54541753980E+02  0.41800000000E+01 0. -1.
        -11    1    1    2    0    0 -0.32915495274E+02 -0.67289959111E+02 -0.11313535681E+03  0.13568705681E+03  0.00000000000E+00 0.  1.
         11    1    1    2    0    0  0.21238535109E+02  0.17136519888E+02 -0.78052779625E+02  0.82685984875E+02  0.00000000000E+00 0. -1.
</event>
<event>
 7    1  0.2841804E-009  0.2444497E+03  0.7561462E-02  0.1116864E+00
          2   -1    0    0  501    0  0.00000000000E+00  0.00000000000E+00  0.75700525233E+03  0.75700525233E+03  0.00000000000E+00 0. -1.
         -2   -1    0    0    0  501 -0.00000000000E+00 -0.00000000000E+00 -0.89483782661E+02  0.89483782661E+02  0.00000000000E+00 0.  1.
         25    2    1    2    0    0  0.15364801244E+03 -0.17500803134E+03  0.41204805047E+03  0.48955848294E+03  0.12509352327E+03 0.  0.
          5    1    3    3  502    0  0.37593861738E+02  0.44059438485E+01  0.19932042042E+02  0.42982199589E+02  0.41800000000E+01 0.  1.
         -5    1    3    3    0  502  0.11605415070E+03 -0.17941397518E+03  0.39211600843E+03  0.44657628335E+03  0.41800000000E+01 0.  1.
        -11    1    1    2    0    0 -0.15414248698E+03  0.16031183273E+03  0.25942604921E+03  0.34170406058E+03  0.00000000000E+00 0. -1.
         11    1    1    2    0    0  0.49447454545E+00  0.14696198602E+02 -0.39526300141E+01  0.15226491469E+02  0.00000000000E+00 0.  1.
</event>
<event>
 7    1  0.2841804E-009  0.1302681E+03  0.7561462E-02  0.1227058E+00
          2   -1    0    0  501    0  0.00000000000E+00  0.00000000000E+00  0.80610110170E+03  0.80610110170E+03  0.00000000000E+00 0. -1.
         -2   -1    0    0    0  501 -0.00000000000E+00 -0.00000000000E+00 -0.24334380560E+02  0.24334380560E+02  0.00000000000E+00 0.  1.
         25    2    1    2    0    0  0.81173768463E+02 -0.22255849845E+02  0.48301509111E+03  0.50599967476E+03  0.12509032365E+03 0.  0.
          5    1    3    3  502    0  0.10028861433E+03  0.12736215903E+02  0.41400210781E+03  0.42618685459E+03  0.41800000000E+01 0.  1.
         -5    1    3    3    0  502 -0.19114845863E+02 -0.34992065748E+02  0.69012983307E+02  0.79812820165E+02  0.41800000000E+01 0.  1.
        -11    1    1    2    0    0  0.14117408739E+02 -0.11461372059E+02  0.97998501650E+02  0.99671312847E+02  0.00000000000E+00 0. -1.
         11    1    1    2    0    0 -0.95291177202E+02  0.33717221904E+02  0.20075312838E+03  0.22476449466E+03  0.00000000000E+00 0.  1.
</event>
<event>
 7    1  0.2841804E-009  0.1329387E+03  0.7561462E-02  0.1223159E+00
          2   -1    0    0  501    0  0.00000000000E+00  0.00000000000E+00  0.36925698847E+02  0.36925698847E+02  0.00000000000E+00 0.  1.
         -2   -1    0    0    0  501 -0.00000000000E+00 -0.00000000000E+00 -0.62597181371E+03  0.62597181371E+03  0.00000000000E+00 0. -1.
         25    2    1    2    0    0 -0.59239297277E+02 -0.88319233354E+02 -0.33638920397E+03  0.37431884694E+03  0.12508925336E+03 0.  0.
          5    1    3    3  502    0 -0.69060797836E+02 -0.36206727479E+02 -0.77489886497E+02  0.11001125316E+03  0.41800000000E+01 0. -1.
         -5    1    3    3    0  502  0.98215005592E+01 -0.52112505875E+02 -0.25889931747E+03  0.26430759378E+03  0.41800000000E+01 0. -1.
        -11    1    1    2    0    0  0.76476364839E+02  0.89000102696E+02 -0.18762738145E+03  0.22129999306E+03  0.00000000000E+00 0.  1.
         11    1    1    2    0    0 -0.17237067562E+02 -0.68086934237E+00 -0.65029529442E+02  0.67278672554E+02  0.00000000000E+00 0. -1.
</event>
<event>
 7    1  0.2841804E-009  0.1616713E+03  0.7561462E-02  0.1186823E+00
          1   -1    0    0  501    0  0.00000000000E+00  0.00000000000E+00  0.22846569904E+02  0.22846569904E+02  0.00000000000E+00 0. -1.
         -1   -1    0    0    0  501 -0.00000000000E+00 -0.00000000000E+00 -0.15066290550E+04  0.15066290550E+04  0.00000000000E+00 0.  1.
         25    2    1    2    0    0 -0.13897017498E+03  0.33807978607E+02 -0.96490661269E+03  0.98343678120E+03  0.12508973766E+03 0.  0.
          5    1    3    3  502    0 -0.36737051766E+02  0.40992688201E+02 -0.64793866387E+03  0.65028608781E+03  0.41800000000E+01 0.  1.
         -5    1    3    3    0  502 -0.10223312321E+03 -0.71847095944E+01 -0.31696794881E+03  0.33315069339E+03  0.41800000000E+01 0.  1.
        -11    1    1    2    0    0  0.71566437116E+02 -0.59864356597E+02 -0.22870868654E+03  0.24700841971E+03  0.00000000000E+00 0. -1.
         11    1    1    2    0    0  0.67403737864E+02  0.26056377990E+02 -0.29016718592E+03  0.29903042403E+03  0.00000000000E+00 0.  1.
</event>
<event>
 7    1  0.2841804E-009  0.7385613E+02  0.7561462E-02  0.1347450E+00
         -2   -1    0    0    0  501 -0.00000000000E+00  0.00000000000E+00  0.61920364634E+02  0.61920364634E+02  0.00000000000E+00 0. -1.
          2   -1    0    0  501    0  0.00000000000E+00 -0.00000000000E+00 -0.26742502249E+03  0.26742502249E+03  0.00000000000E+00 0.  1.
         25    2    1    2    0    0 -0.23433732826E+02  0.21909570165E+02 -0.18968997432E+03  0.22947628056E+03  0.12509159798E+03 0.  0.
          5    1    3    3  502    0 -0.39180465042E+01 -0.16294140584E+02  0.13401372471E+02  0.21861365234E+02  0.41800000000E+01 0.  1.
         -5    1    3    3    0  502 -0.19515686321E+02  0.38203710749E+02 -0.20309134679E+03  0.20761491533E+03  0.41800000000E+01 0.  1.
        -11    1    1    2    0    0 -0.19852600609E+02 -0.36590507924E+02 -0.30780908500E+02  0.51773114153E+02  0.00000000000E+00 0.  1.
         11    1    1    2    0    0  0.43286333434E+02  0.14680937759E+02  0.14966224964E+02  0.48095992404E+02  0.00000000000E+00 0. -1.
</event>
<event>
 7    1  0.2841804E-009  0.1243421E+03  0.7561462E-02  0.1236101E+00
          2   -1    0    0  501    0  0.00000000000E+00  0.00000000000E+00  0.31832298235E+03  0.31832298235E+03  0.00000000000E+00 0. -1.
         -2   -1    0    0    0  501 -0.00000000000E+00 -0.00000000000E+00 -0.60129266608E+02  0.60129266608E+02  0.00000000000E+00 0.  1.
         25    2    1    2    0    0  0.13263536507E+02  0.66304945059E+02  0.70082064130E+02  0.15852656030E+03  0.12508759918E+03 0.  0.
          5    1    3    3  502    0  0.31673018742E+02  0.95707240389E+02  0.71325887124E+02  0.12356338678E+03  0.41800000000E+01 0. -1.
         -5    1    3    3    0  502 -0.18409482235E+02 -0.29402295330E+02 -0.12438229950E+01  0.34963173519E+02  0.41800000000E+01 0. -1.
        -11    1    1    2    0    0 -0.44308204215E+02 -0.68654709893E+02  0.12180463133E+03  0.14667329125E+03  0.00000000000E+00 0. -1.
         11    1    1    2    0    0  0.31044667708E+02  0.23497648341E+01  0.66307020277E+02  0.73252397407E+02  0.00000000000E+00 0.  1.
</event>
<event>
 7    1  0.2841804E-009  0.3271314E+03  0.7561462E-02  0.1072413E+00
         -1   -1    0    0    0  501 -0.00000000000E+00  0.00000000000E+00  0.41331522518E+03  0.41331522518E+03  0.00000000000E+00 0.  1.
          1   -1    0    0  501    0  0.00000000000E+00 -0.00000000000E+00 -0.26996805983E+03  0.26996805983E+03  0.00000000000E+00 0. -1.
         25    2    1    2    0    0 -0.95976004837E+02 -0.29627792761E+03  0.22338121234E+02  0.33636320722E+03  0.12509680899E+03 0.  0.
          5    1    3    3  502    0 -0.89303491885E+02 -0.97867232121E+02  0.35912907907E+02  0.13733287349E+03  0.41800000000E+01 0. -1.
         -5    1    3    3    0  502 -0.66725129514E+01 -0.19841069549E+03 -0.13574786673E+02  0.19903033374E+03  0.41800000000E+01 0. -1.
        -11    1    1    2    0    0  0.11240276445E+03  0.25272946330E+03  0.11659302629E+03  0.30016744803E+03  0.00000000000E+00 0. -1.
         11    1    1    2    0    0 -0.16426759615E+02  0.43548464310E+02  0.44160178290E+01  0.46752629751E+02  0.00000000000E+00 0.  1.
</event>
<event>
 7    1  0.2841804E-009  0.1834553E+03  0.7561462E-02  0.1164500E+00
         -2   -1    0    0    0  501 -0.00000000000E+00  0.00000000000E+00  0.22131767709E+02  0.22131767709E+02  0.00000000000E+00 0.  1.
          2   -1    0    0  501    0  0.00000000000E+00 -0.00000000000E+00 -0.18100346298E+04  0.18100346298E+04  0.00000000000E+00 0. -1.
         25    2    1    2    0    0  0.10284910365E+03 -0.13227905127E+03 -0.94868405571E+03  0.97145629356E+03  0.12510078820E+03 0.  0.
          5    1    3    3  502    0  0.66952056374E+02 -0.17761443167E+02 -0.17081498387E+03  0.18437266020E+03  0.41800000000E+01 0. -1.
         -5    1    3    3    0  502  0.35897047279E+02 -0.11451760810E+03 -0.77786907184E+03  0.78708363336E+03  0.41800000000E+01 0. -1.
        -11    1    1    2    0    0 -0.49843366706E+02  0.10837087265E+03 -0.69581872629E+03  0.70596905534E+03  0.00000000000E+00 0. -1.
         11    1    1    2    0    0 -0.53005736948E+02  0.23908178614E+02 -0.14340008008E+03  0.15474104859E+03  0.00000000000E+00 0.  1.
</event>
<event>
 7    1  0.2841804E-009  0.1847790E+03  0.7561462E-02  0.1163256E+00
          3   -1    0    0  501    0  0.00000000000E+00  0.00000000000E+00  0.19021661961E+03  0.19021661961E+03  0.00000000000E+00 0. -1.
         -3   -1    0    0    0  501 -0.00000000000E+00 -0.00000000000E+00 -0.23124626780E+03  0.23124626780E+03  0.00000000000E+00 0.  1.
         25    2    1    2    0    0 -0.16248988066E+03 -0.40898560504E+02  0.39991891859E+02  0.21289113282E+03  0.12509048506E+03 0.  0.
          5    1    3    3  502    0  0.80540581799E+01  0.15812955434E+02  0.27090747088E+02  0.32654224696E+02  0.41800000000E+01 0.  1.
         -5    1    3    3    0  502 -0.17054393884E+03 -0.56711515938E+02  0.12901144771E+02  0.18023690812E+03  0.41800000000E+01 0.  1.
        -11    1    1    2    0    0  0.16961486568E+02 -0.69919170242E+01  0.18360287579E+02  0.25955328745E+02  0.00000000000E+00 0. -1.
         11    1    1    2    0    0  0.14552839409E+03  0.47890477528E+02 -0.99381827632E+02  0.18261642584E+03  0.00000000000E+00 0.  1.
</event>
<event>
 7    1  0.2841804E-009  0.1129003E+03  0.7561462E-02  0.1255291E+00
         -1   -1    0    0    0  501 -0.00000000000E+00  0.00000000000E+00  0.12759551202E+02  0.12759551202E+02  0.00000000000E+00 0.  1.
          1   -1    0    0  501    0  0.00000000000E+00 -0.00000000000E+00 -0.15189721769E+04  0.15189721769E+04  0.00000000000E+00 0. -1.
         25    2    1    2    0    0 -0.38025565140E+02  0.55977053946E+02 -0.11745733556E+04  0.11831524001E+04  0.12509060702E+03 0.  0.
          5    1    3    3  502    0 -0.56758870568E+02 -0.10489509463E+02 -0.28056851510E+03  0.28647471662E+03  0.41800000000E+01 0. -1.
         -5    1    3    3    0  502  0.18733305428E+02  0.66466563409E+02 -0.89400484054E+03  0.89667768350E+03  0.41800000000E+01 0. -1.
        -11    1    1    2    0    0  0.35576295924E+02 -0.73180589230E+02 -0.31162835958E+03  0.32207655296E+03  0.00000000000E+00 0.  1.
         11    1    1    2    0    0  0.24492692165E+01  0.17203535284E+02 -0.20010910508E+02  0.26502775049E+02  0.00000000000E+00 0. -1.
</event>
<event>
 7    1  0.2841804E-009  0.1076540E+03  0.7561462E-02  0.1264977E+00
          2   -1    0    0  501    0  0.00000000000E+00  0.00000000000E+00  0.26274948054E+03  0.26274948054E+03  0.00000000000E+00 0. -1.
         -2   -1    0    0    0  501 -0.00000000000E+00 -0.00000000000E+00 -0.57055592940E+02  0.57055592940E+02  0.00000000000E+00 0.  1.
         25    2    1    2    0    0  0.24092297255E+02  0.31619417013E+02  0.16651643867E+03  0.21202443616E+03  0.12508561413E+03 0.  0.
          5    1    3    3  502    0  0.62097862115E+01 -0.44717998957E+02  0.29457023178E+02  0.54068932762E+02  0.41800000000E+01 0.  1.
         -5    1    3    3    0  502  0.17882511043E+02  0.76337415971E+02  0.13705941549E+03  0.15795550340E+03  0.41800000000E+01 0.  1.
        -11    1    1    2    0    0  0.12140408296E+02  0.22942067761E+02  0.33012730743E+02  0.41994861327E+02  0.00000000000E+00 0. -1.
         11    1    1    2    0    0 -0.36232705551E+02 -0.54561484774E+02  0.61647181827E+01  0.65785775990E+02  0.00000000000E+00 0.  1.
</event>
<event>
 7    1  0.2841804E-009  0.2260494E+03  0.7561462E-02  0.1129452E+00
          1   -1    0    0  501    0  0.00000000000E+00  0.00000000000E+00  0.19308874893E+03  0.19308874893E+03  0.00000000000E+00 0. -1.
         -1   -1    0    0    0  501 -0.00000000000E+00 -0.00000000000E+00 -0.27367304283E+03  0.27367304283E+03  0.00000000000E+00 0.  1.
         25    2    1    2    0    0 -0.20067394737E+03 -0.26929314250E+02 -0.40208655542E+02  0.24137110162E+03  0.12509217242E+03 0.  0.
          5    1    3    3  502    0 -0.21432198144E+03 -0.23225503765E+02 -0.20264709699E+02  0.21656746435E+03  0.41800000000E+01 0. -1.
         -5    1    3    3    0  502  0.13648034078E+02 -0.37038104851E+01 -0.19943945843E+02  0.24803637276E+02  0.41800000000E+01 0. -1.
        -11    1    1    2    0    0  0.14536223581E+03 -0.23061145740E+02 -0.25798546650E+02  0.14942409796E+03  0.00000000000E+00 0. -1.
         11    1    1    2    0    0  0.55311711558E+02  0.49990459990E+02 -0.14577091706E+02  0.75966592184E+02  0.00000000000E+00 0.  1.
</event>
<event>
 7    1  0.2841804E-009  0.2131090E+03  0.7561462E-02  0.1139127E+00
         -3   -1    0    0    0  501 -0.00000000000E+00  0.00000000000E+00  0.16676089757E+03  0.16676089757E+03  0.00000000000E+00 0.  1.
          3   -1    0    0  501    0  0.00000000000E+00 -0.00000000000E+00 -0.34471083902E+03  0.34471083902E+03  0.00000000000E+00 0. -1.
         25    2    1    2    0    0  0.14982362136E+03  0.90913619957E+02 -0.18788320274E+03  0.28576580443E+03  0.12509833452E+03 0.  0.
          5    1    3    3  502    0 -0.15066961310E+02 -0.12583458784E+02 -0.12109334721E+02  0.23440672889E+02  0.41800000000E+01 0.  1.
         -5    1    3    3    0  502  0.16489058267E+03  0.10349707874E+03 -0.17577386802E+03  0.26232513154E+03  0.41800000000E+01 0.  1.
        -11    1    1    2    0    0  0.13815491861E+02  0.11841398086E+02 -0.23383031499E+02  0.29628578874E+02  0.00000000000E+00 0.  1.
         11    1    1    2    0    0 -0.16363911322E+03 -0.10275501804E+03  0.33316292785E+02  0.19607735329E+03  0.00000000000E+00 0. -1.
</event>
<event>
 7    1  0.2841804E-009  0.1495005E+03  0.7561462E-02  0.1201088E+00
          2   -1    0    0  501    0  0.00000000000E+00  0.00000000000E+00  0.18468671374E+04  0.18468671374E+04  0.00000000000E+00 0. -1.
         -2   -1    0    0    0  501 -0.00000000000E+00 -0.00000000000E+00 -0.16176121621E+02  0.16176121621E+02  0.00000000000E+00 0.  1.
         25    2    1    2    0    0 -0.13070260225E+03  0.54852194007E+01  0.11228911153E+04  0.11373843042E+04  0.12508133670E+03 0.  0.
          5    1    3    3  502    0 -0.85910483408E+02  0.27067751352E+02  0.30698554456E+03  0.31995448316E+03  0.41800000000E+01 0. -1.
         -5    1    3    3    0  502 -0.44792118847E+02 -0.21582531951E+02  0.81590557073E+03  0.81742982105E+03  0.41800000000E+01 0. -1.
        -11    1    1    2    0    0  0.13061830739E+03 -0.30326677888E+02  0.62449180331E+03  0.63872596786E+03  0.00000000000E+00 0. -1.
         11    1    1    2    0    0  0.84294867439E-01  0.24841458487E+02  0.83308097205E+02  0.86932986980E+02  0.00000000000E+00 0.  1.
</event>
<event>
 7    1  0.2841804E-009  0.6610686E+02  0.7561462E-02  0.1373856E+00
          2   -1    0    0  501    0  0.00000000000E+00  0.00000000000E+00  0.15676362804E+03  0.15676362804E+03  0.00000000000E+00 0.  1.
         -2   -1    0    0    0  501 -0.00000000000E+00 -0.00000000000E+00 -0.84343915278E+02  0.84343915278E+02  0.00000000000E+00 0. -1.
         25    2    1    2    0    0  0.35582040455E+02  0.11909385183E+02  0.40643114843E+02  0.13677727991E+03  0.12509295127E+03 0.  0.
          5    1    3    3  502    0  0.21535476869E+02 -0.76357327515E+01 -0.43416570174E+02  0.49239741514E+02  0.41800000000E+01 0. -1.
         -5    1    3    3    0  502  0.14046563587E+02  0.19545117935E+02  0.84059685017E+02  0.87537538398E+02  0.41800000000E+01 0. -1.
        -11    1    1    2    0    0  0.10585211387E+02  0.23893353574E+02  0.37412641014E+02  0.45636002813E+02  0.00000000000E+00 0.  1.
         11    1    1    2    0    0 -0.46167251842E+02 -0.35802738757E+02 -0.56360430909E+01  0.58694260596E+02  0.00000000000E+00 0. -1.
</event>
<event>
 7    1  0.2841804E-009  0.9618346E+02  0.7561462E-02  0.1288533E+00
         -1   -1    0    0    0  501 -0.00000000000E+00  0.00000000000E+00  0.93224121519E+02  0.93224121519E+02  0.00000000000E+00 0.  1.
          1   -1    0    0  501    0  0.00000000000E+00 -0.00000000000E+00 -0.20275119134E+03  0.20275119134E+03  0.00000000000E+00 0. -1.
         25    2    1    2    0    0 -0.11434803917E+02 -0.82319145748E+02 -0.49047153398E+02  0.15798637565E+03  0.12508746994E+03 0.  0.
          5    1    3    3  502    0  0.31681466338E+01 -0.31233139907E+02 -0.86981878177E+02  0.92568167923E+02  0.41800000000E+01 0.  1.
         -5    1    3    3    0  502 -0.14602950551E+02 -0.51086005841E+02  0.37934724779E+02  0.65418207722E+02  0.41800000000E+01 0.  1.
        -11    1    1    2    0    0  0.40189527180E+02  0.46256380427E+02  0.81091419716E+00  0.61282203019E+02  0.00000000000E+00 0.  1.
         11    1    1    2    0    0 -0.28754723263E+02  0.36062765321E+02 -0.61290830623E+02  0.76706734196E+02  0.00000000000E+00 0. -1.
</event>
<event>
 7    1  0.2841804E-009  0.1030151E+03  0.7561462E-02  0.1274080E+00
         -1   -1    0    0    0  501 -0.00000000000E+00  0.00000000000E+00  0.57578372507E+02  0.57578372507E+02  0.00000000000E+00 0.  1.
          1   -1    0    0  501    0  0.00000000000E+00 -0.00000000000E+00 -0.29634799804E+03  0.29634799804E+03  0.00000000000E+00 0. -1.
         25    2    1    2    0    0  0.86226244597E+01 -0.34369392905E+02 -0.47020138522E+02  0.13825175603E+03  0.12508816810E+03 0.  0.
          5    1    3    3  502    0 -0.82396455208E+01  0.38795881966E+02 -0.48809999926E+02  0.63030950403E+02  0.41800000000E+01 0.  1.
         -5    1    3    3    0  502  0.16862269981E+02 -0.73165274871E+02  0.17898614037E+01  0.75220805631E+02  0.41800000000E+01 0.  1.
        -11    1    1    2    0    0  0.36962229303E+02  0.24393775121E+02 -0.13569575350E+03  0.14273962371E+03  0.00000000000E+00 0. -1.
         11    1    1    2    0    0 -0.45584853762E+02  0.99756177833E+01 -0.56053733512E+02  0.72934990802E+02  0.00000000000E+00 0.  1.
</event>
<event>
 7    1  0.2841804E-009  0.1008317E+03  0.7561462E-02  0.1278557E+00
          2   -1    0    0  501    0  0.00000000000E+00  0.00000000000E+00  0.20360688757E+03  0.20360688757E+03  0.00000000000E+00 0. -1.
         -2   -1    0    0    0  501 -0.00000000000E+00 -0.00000000000E+00 -0.59734532396E+02  0.59734532396E+02  0.00000000000E+00 0.  1.
         25    2    1    2    0    0 -0.16506475626E+02  0.59196553392E+00  0.84016800224E+02  0.15159654295E+03  0.12509946024E+03 0.  0.
          5    1    3    3  502    0  0.21187721426E+02  0.44932592119E+02  0.78495434241E+02  0.92988509884E+02  0.41800000000E+01 0.  1.
         -5    1    3    3    0  502 -0.37694197052E+02 -0.44340626585E+02  0.55213659826E+01  0.58608033064E+02  0.41800000000E+01 0.  1.
        -11    1    1    2    0    0  0.54690342638E+02  0.47986639739E+01  0.42639096675E+02  0.69513691595E+02  0.00000000000E+00 0. -1.
         11    1    1    2    0    0 -0.38183867013E+02 -0.53906295078E+01  0.17216458271E+02  0.42231185419E+02  0.00000000000E+00 0.  1.
</event>
<event>
 7    1  0.2841804E-009  0.7946174E+02  0.7561462E-02  0.1330586E+00
         -2   -1    0    0    0  501 -0.00000000000E+00  0.00000000000E+00  0.89344204619E+02  0.89344204619E+02  0.00000000000E+00 0.  1.
          2   -1    0    0  501    0  0.00000000000E+00 -0.00000000000E+00 -0.13178277957E+03  0.13178277957E+03  0.00000000000E+00 0. -1.
         25    2    1    2    0    0 -0.90152041613E+01  0.32755842894E+02 -0.24720748803E+02  0.13195591158E+03  0.12508808108E+03 0.  0.
          5    1    3    3  502    0  0.35033365915E+02 -0.11980809339E+02  0.30567717979E+02  0.48194753886E+02  0.41800000000E+01 0. -1.
         -5    1    3    3    0  502 -0.44048570076E+02  0.44736652233E+02 -0.55288466782E+02  0.83761157692E+02  0.41800000000E+01 0. -1.
        -11    1    1    2    0    0 -0.15379181662E+01 -0.43589940107E+02  0.20407707727E+02  0.48155192924E+02  0.00000000000E+00 0.  1.
         11    1    1    2    0    0  0.10553122327E+02  0.10834097214E+02 -0.38125533875E+02  0.41015879688E+02  0.00000000000E+00 0. -1.
</event>
<event>
 7    1  0.2841804E-009  0.1945277E+03  0.7561462E-02  0.1154440E+00
         -1   -1    0    0    0  501 -0.00000000000E+00  0.00000000000E+00  0.11948515802E+03  0.11948515802E+03  0.00000000000E+00 0.  1.
          1   -1    0    0  501    0  0.00000000000E+00 -0.00000000000E+00 -0.36995814339E+03  0.36995814339E+03  0.00000000000E+00 0. -1.
         25    2    1    2    0    0  0.99056942593E+02  0.14550861790E+03 -0.87830940865E+02  0.23312178272E+03  0.12508579314E+03 0.  0.
          5    1    3    3  502    0 -0.14379521477E+02  0.80026961423E+02 -0.13698662261E+02  0.82560347264E+02  0.41800000000E+01 0.  1.
         -5    1    3    3    0  502  0.11343646407E+03  0.65481656480E+02 -0.74132278604E+02  0.15056143546E+03  0.41800000000E+01 0.  1.
        -11    1    1    2    0    0 -0.86180889722E+02 -0.13401437715E+03 -0.92820118765E+02  0.18439786735E+03  0.00000000000E+00 0.  1.
         11    1    1    2    0    0 -0.12876052871E+02 -0.11494240757E+02 -0.69821925737E+02  0.71923651338E+02  0.00000000000E+00 0. -1.
</event>
<event>
 7    1  0.2841804E-009  0.9588606E+02  0.7561462E-02  0.1289193E+00
         -2   -1    0    0    0  501 -0.00000000000E+00  0.00000000000E+00  0.17438417984E+03  0.17438417984E+03  0.00000000000E+00 0.  1.
          2   -1    0    0  501    0  0.00000000000E+00 -0.00000000000E+00 -0.88463034599E+02  0.88463034599E+02  0.00000000000E+00 0. -1.
         25    2    1    2    0    0  0.31303350791E+02 -0.27309346232E+01  0.10217956046E+03  0.16454174539E+03  0.12508383438E+03 0.  0.
          5    1    3    3  502    0  0.24152184115E+02 -0.54491393301E+02  0.13078559765E+02  0.61165031406E+02  0.41800000000E+01 0. -1.
         -5    1    3    3    0  502  0.71511666757E+01  0.51760458678E+02  0.89101000700E+02  0.10337671398E+03  0.41800000000E+01 0. -1.
        -11    1    1    2    0    0 -0.30462458711E+01  0.35900076144E+02 -0.35583533892E+02  0.50638749642E+02  0.00000000000E+00 0. -1.
         11    1    1    2    0    0 -0.28257104920E+02 -0.33169141521E+02  0.19325118664E+02  0.47666719408E+02  0.00000000000E+00 0.  1.
</event>
<event>
 7    1  0.2841804E-009  0.8186350E+02  0.7561462E-02  0.1323845E+00
          1   -1    0    0  501    0  0.00000000000E+00  0.00000000000E+00  0.53691849909E+02  0.53691849909E+02  0.00000000000E+00 0.  1.
         -1   -1    0    0    0  501 -0.00000000000E+00 -0.00000000000E+00 -0.24180653379E+03  0.24180653379E+03  0.00000000000E+00 0. -1.
         25    2    1    2    0    0  0.16578991330E+02  0.14173299866E+02 -0.14306892677E+03  0.19128599802E+03  0.12508345154E+03 0.  0.
          5    1    3    3  502    0  0.32757654687E+02 -0.15674629252E+02 -0.15167109410E+03  0.15601394530E+03  0.41800000000E+01 0.  1.
         -5    1    3    3    0  502 -0.16178663357E+02  0.29847929119E+02  0.86021673234E+01  0.35272052724E+02  0.41800000000E+01 0.  1.
        -11    1    1    2    0    0 -0.41785004687E+02  0.23270719395E+02 -0.15550849943E+02  0.50292563384E+02  0.00000000000E+00 0. -1.
         11    1    1    2    0    0  0.25206013357E+02 -0.37444019261E+02 -0.29494907171E+02  0.53919822299E+02  0.00000000000E+00 0.  1.
</event>
<event>
 7    1  0.2841804E-009  0.1059400E+03  0.7561462E-02  0.1268278E+00
          2   -1    0    0  501    0  0.00000000000E+00  0.00000000000E+00  0.38215294065E+03  0.38215294065E+03  0.00000000000E+00 0. -1.
         -2   -1    0    0    0  501 -0.00000000000E+00 -0.00000000000E+00 -0.36487009391E+02  0.36487009391E+02  0.00000000000E+00 0.  1.
         25    2    1    2    0    0 -0.40244324906E+02  0.21403803148E+02  0.18001741520E+03  0.22390023722E+03  0.12508924004E+03 0.  0.
          5    1    3    3  502    0 -0.31332579824E+02  0.73309904258E+02  0.11740122497E+03  0.14197391537E+03  0.41800000000E+01 0. -1.
         -5    1    3    3    0  502 -0.89117450815E+01 -0.51906101109E+02  0.62616190234E+02  0.81926321852E+02  0.41800000000E+01 0. -1.
        -11    1    1    2    0    0  0.16106162343E+01 -0.37374938704E+02  0.14171311411E+03  0.14656768688E+03  0.00000000000E+00 0. -1.
         11    1    1    2    0    0  0.38633708671E+02  0.15971135555E+02  0.23935401948E+02  0.48172025939E+02  0.00000000000E+00 0.  1.
</event>
<event>
 7    1  0.3048799E-009  0.2832267E+03  0.7561462E-02  0.1093940E+00
          1   -1    0    0  501    0  0.00000000000E+00  0.00000000000E+00  0.10485542800E+04  0.10485542800E+04  0.00000000000E+00 0. -1.
         -1   -1    0    0    0  501 -0.00000000000E+00 -0.00000000000E+00 -0.99932427233E+02  0.99932427233E+02  0.00000000000E+00 0.  1.
         25    2    1    2    0    0  0.21151838978E+03  0.15632327200E+03  0.75608891364E+03  0.81024364942E+03  0.12508929412E+03 0.  0.
          5    1    3    3  502    0  0.51753650314E+02  0.11497898165E+03  0.33023691220E+03  0.35351449351E+03  0.41800000000E+01 0. -1.
         -5    1    3    3    0  502  0.15976473947E+03  0.41344290342E+02  0.42585200144E+03  0.45672915590E+03  0.41800000000E+01 0. -1.
        -11    1    1    2    0    0 -0.10059105693E+03 -0.12400589201E+03  0.13537860359E+03  0.20934036471E+03  0.00000000000E+00 0. -1.
         11    1    1    2    0    0 -0.11092733285E+03 -0.32317379991E+02  0.57154335559E+02  0.12890269313E+03  0.00000000000E+00 0.  1.
</event>
<event>
 7    1  0.2841804E-009  0.1361613E+03  0.7561462E-02  0.1218590E+00
          1   -1    0    0  501    0  0.00000000000E+00  0.00000000000E+00  0.44736750246E+02  0.44736750246E+02  0.00000000000E+00 0. -1.
         -1   -1    0    0    0  501 -0.00000000000E+00 -0.00000000000E+00 -0.44420333876E+03  0.44420333876E+03  0.00000000000E+00 0.  1.
         25    2    1    2    0    0 -0.75531567967E+02  0.49835443564E+02 -0.23161043033E+03  0.27835224638E+03  0.12509193590E+03 0.  0.
          5    1    3    3  502    0 -0.44851315267E+02 -0.38147150182E+02 -0.11272574824E+03  0.12724548033E+03  0.41800000000E+01 0. -1.
         -5    1    3    3    0  502 -0.30680252700E+02  0.87982593746E+02 -0.11888468209E+03  0.15110676604E+03  0.41800000000E+01 0. -1.
        -11    1    1    2    0    0 -0.55514527690E+01 -0.37616343064E+02 -0.23885627543E+02  0.44903575542E+02  0.00000000000E+00 0. -1.
         11    1    1    2    0    0  0.81083020736E+02 -0.12219100501E+02 -0.14397053064E+03  0.16568426709E+03  0.00000000000E+00 0.  1.
</event>
<event>
 7    1  0.2841804E-009  0.8577027E+02  0.7561462E-02  0.1313430E+00
          2   -1    0    0  501    0  0.00000000000E+00  0.00000000000E+00  0.26492877455E+03  0.26492877455E+03  0.00000000000E+00 0. -1.
         -2   -1    0    0    0  501 -0.00000000000E+00 -0.00000000000E+00 -0.55634430021E+02  0.55634430021E+02  0.00000000000E+00 0.  1.
         25    2    1    2    0    0 -0.35565038219E+02 -0.27769674543E+00  0.17124802965E+03  0.21503053868E+03  0.12508915160E+03 0.  0.
          5    1    3    3  502    0  0.92676735446E+01  0.31705640872E+02 -0.18378450961E+01  0.33346476735E+02  0.41800000000E+01 0.  1.
         -5    1    3    3    0  502 -0.44832711763E+02 -0.31983337618E+02  0.17308587475E+03  0.18168406195E+03  0.41800000000E+01 0.  1.
        -11    1    1    2    0    0  0.50656022624E+02  0.23083678755E+02  0.50795811493E+02  0.75359825625E+02  0.00000000000E+00 0. -1.
         11    1    1    2    0    0 -0.15090984405E+02 -0.22805982009E+02 -0.12749496614E+02  0.30172840264E+02  0.00000000000E+00 0.  1.
</event>
<event>
 7    1  0.2841804E-009  0.1291791E+03  0.7561462E-02  0.1228679E+00
          2   -1    0    0  501    0  0.00000000000E+00  0.00000000000E+00  0.53329248205E+02  0.53329248205E+02  0.00000000000E+00 0.  1.
         -2   -1    0    0    0  501 -0.00000000000E+00 -0.00000000000E+00 -0.36268358633E+03  0.36268358633E+03  0.00000000000E+00 0. -1.
         25    2    1    2    0    0  0.28692201770E+02 -0.82068043593E+02 -0.15483907857E+03  0.21721241579E+03  0.12509071547E+03 0.  0.
          5    1    3    3  502    0  0.44636659569E+02 -0.11054541834E+03 -0.12513407618E+03  0.17288357445E+03  0.41800000000E+01 0. -1.
         -5    1    3    3    0  502 -0.15944457799E+02  0.28477374747E+02 -0.29705002396E+02  0.44328841338E+02  0.41800000000E+01 0. -1.
        -11    1    1    2    0    0  0.13649676565E+02  0.53186374757E+02 -0.26630251417E+02  0.61026833611E+02  0.00000000000E+00 0.  1.
         11    1    1    2    0    0 -0.42341878335E+02  0.28881668837E+02 -0.12788500813E+03  0.13777358513E+03  0.00000000000E+00 0. -1.
</event>
<event>
 7    1  0.2841804E-009  0.1147334E+03  0.7561462E-02  0.1252047E+00
         -2   -1    0    0    0  501 -0.00000000000E+00  0.00000000000E+00  0.33689679672E+02  0.33689679672E+02  0.00000000000E+00 0.  1.
          2   -1    0    0  501    0  0.00000000000E+00 -0.00000000000E+00 -0.42136313715E+03  0.42136313715E+03  0.00000000000E+00 0. -1.
         25    2    1    2    0    0 -0.37437117773E+02 -0.21635713572E+02 -0.19112525967E+03  0.23247813500E+03  0.12509027334E+03 0.  0.
          5    1    3    3  502    0 -0.27482854189E+02  0.47855228311E+02 -0.49052637630E+02  0.73953118998E+02  0.41800000000E+01 0. -1.
         -5    1    3    3    0  502 -0.99542635838E+01 -0.69490941883E+02 -0.14207262204E+03  0.15852501601E+03  0.41800000000E+01 0. -1.
        -11    1    1    2    0    0 -0.27301587161E+02 -0.13153077505E+02 -0.69121821266E+02  0.75473215676E+02  0.00000000000E+00 0.  1.
         11    1    1    2    0    0  0.64738704935E+02  0.34788791077E+02 -0.12742637654E+03  0.14710146614E+03  0.00000000000E+00 0. -1.
</event>
<event>
 7    1  0.2841804E-009  0.1882029E+03  0.7561462E-02  0.1160092E+00
         -2   -1    0    0    0  501 -0.00000000000E+00  0.00000000000E+00  0.57843995832E+02  0.57843995832E+02  0.00000000000E+00 0.  1.
          2   -1    0    0  501    0  0.00000000000E+00 -0.00000000000E+00 -0.73348813871E+03  0.73348813871E+03  0.00000000000E+00 0. -1.
         25    2    1    2    0    0 -0.14706814804E+03 -0.82625887973E+02 -0.43670495112E+03  0.48457731133E+03  0.12509148168E+03 0.  0.
          5    1    3    3  502    0 -0.16073870194E+03 -0.48981590223E+02 -0.30919193319E+03  0.35192790516E+03  0.41800000000E+01 0.  1.
         -5    1    3    3    0  502  0.13670553895E+02 -0.33644297750E+02 -0.12751301793E+03  0.13264940617E+03  0.41800000000E+01 0.  1.
        -11    1    1    2    0    0  0.91104325698E+02  0.32790605563E+02 -0.62987948626E+02  0.11551062136E+03  0.00000000000E+00 0. -1.
         11    1    1    2    0    0  0.55963822344E+02  0.49835282410E+02 -0.17595124313E+03  0.19124420185E+03  0.00000000000E+00 0.  1.
</event>
<event>
 7    1  0.2841804E-009  0.6524980E+02  0.7561462E-02  0.1377034E+00
         -1   -1    0    0    0  501 -0.00000000000E+00  0.00000000000E+00  0.16285732462E+02  0.16285732462E+02  0.00000000000E+00 0.  1.
          1   -1    0    0  501    0  0.00000000000E+00 -0.00000000000E+00 -0.10819608089E+04  0.10819608089E+04  0.00000000000E+00 0. -1.
         25    2    1    2    0    0 -0.27673067798E+02 -0.44720295892E+02 -0.81099940376E+03  0.82227304227E+03  0.12508884687E+03 0.  0.
          5    1    3    3  502    0  0.37535906458E+01 -0.34852248911E+02 -0.53813123807E+02  0.64359097187E+02  0.41800000000E+01 0.  1.
         -5    1    3    3    0  502 -0.31426658444E+02 -0.98680469804E+01 -0.75718627995E+03  0.75791394509E+03  0.41800000000E+01 0.  1.
        -11    1    1    2    0    0 -0.69077703919E+01  0.14530405049E+02  0.10854951201E+01  0.16125391851E+02  0.00000000000E+00 0.  1.
         11    1    1    2    0    0  0.34580838190E+02  0.30189890842E+02 -0.25576116775E+03  0.25984810719E+03  0.00000000000E+00 0. -1.
</event>
<event>
 7    1  0.2841804E-009  0.1041162E+03  0.7561462E-02  0.1271871E+00
          2   -1    0    0  501    0  0.00000000000E+00  0.00000000000E+00  0.43922764225E+03  0.43922764225E+03  0.00000000000E+00 0. -1.
         -2   -1    0    0    0  501 -0.00000000000E+00 -0.00000000000E+00 -0.30336850695E+02  0.30336850695E+02  0.00000000000E+00 0.  1.
         25    2    1    2    0    0 -0.27231704535E+02 -0.17591244731E+02  0.18290429375E+03  0.22394634733E+03  0.12508784189E+03 0.  0.
          5    1    3    3  502    0  0.12464487924E+02 -0.58145771507E+02  0.44775988694E+02  0.74556393200E+02  0.41800000000E+01 0.  1.
         -5    1    3    3    0  502 -0.39696192460E+02  0.40554526776E+02  0.13812830505E+03  0.14938995413E+03  0.41800000000E+01 0.  1.
        -11    1    1    2    0    0  0.56157758690E+02 -0.29553631772E+01  0.17248569150E+03  0.18142144803E+03  0.00000000000E+00 0. -1.
         11    1    1    2    0    0 -0.28926054155E+02  0.20546607908E+02  0.53500806304E+02  0.64196697584E+02  0.00000000000E+00 0.  1.
</event>
<event>
 7    1  0.2841804E-009  0.1032567E+03  0.7561462E-02  0.1273593E+00
         -4   -1    0    0    0  501 -0.00000000000E+00  0.00000000000E+00  0.36611640049E+03  0.36611640049E+03  0.00000000000E+00 0.  1.
          4   -1    0    0  501    0  0.00000000000E+00 -0.00000000000E+00 -0.41590685971E+02  0.41590685971E+02  0.00000000000E+00 0. -1.
         25    2    1    2    0    0 -0.42289893139E+02  0.45895609710E+01  0.28641979174E+03  0.31542627582E+03  0.12509172332E+03 0.  0.
          5    1    3    3  502    0  0.34109468964E+02 -0.22772347695E+02  0.15934870958E+03  0.16459501613E+03  0.41800000000E+01 0.  1.
         -5    1    3    3    0  502 -0.76399362102E+02  0.27361908666E+02  0.12707108217E+03  0.15083125969E+03  0.41800000000E+01 0.  1.
        -11    1    1    2    0    0  0.10207227383E+02  0.33039367449E+02  0.14789025955E+02  0.37609873451E+02  0.00000000000E+00 0. -1.
         11    1    1    2    0    0  0.32082665756E+02 -0.37628928420E+02  0.23316896823E+02  0.54670937192E+02  0.00000000000E+00 0.  1.
</event>
<event>
 7    1  0.2841804E-009  0.2196818E+03  0.7561462E-02  0.1134121E+00
         -1   -1    0    0    0  501 -0.00000000000E+00  0.00000000000E+00  0.15490758850E+03  0.15490758850E+03  0.00000000000E+00 0.  1.
          1   -1    0    0  501    0  0.00000000000E+00 -0.00000000000E+00 -0.39867404555E+03  0.39867404555E+03  0.00000000000E+00 0. -1.
         25    2    1    2    0    0  0.21679410287E+03 -0.24572545398E+02 -0.17787207587E+03  0.30804081336E+03  0.12508866572E+03 0.  0.
          5    1    3    3  502    0  0.99771187914E+02  0.53624649114E+01 -0.15586918379E+03  0.18519103873E+03  0.41800000000E+01 0.  1.
         -5    1    3    3    0  502  0.11702291496E+03 -0.29935010309E+02 -0.22002892081E+02  0.12284977463E+03  0.41800000000E+01 0.  1.
        -11    1    1    2    0    0 -0.52557612072E+02  0.11040060930E+02  0.22859254935E+02  0.58367208844E+02  0.00000000000E+00 0.  1.
         11    1    1    2    0    0 -0.16423649080E+03  0.13532484467E+02 -0.88753636111E+02  0.18717361184E+03  0.00000000000E+00 0. -1.
</event>
<event>
 7    1  0.2841804E-009  0.1384313E+03  0.7561462E-02  0.1215455E+00
         -2   -1    0    0    0  501 -0.00000000000E+00  0.00000000000E+00  0.27839182363E+02  0.27839182363E+02  0.00000000000E+00 0. -1.
          2   -1    0    0  501    0  0.00000000000E+00 -0.00000000000E+00 -0.95269285118E+03  0.95269285118E+03  0.00000000000E+00 0.  1.
         25    2    1    2    0    0  0.92431077158E+02 -0.80769712679E+01 -0.26193278540E+03  0.30472875385E+03  0.12506833278E+03 0.  0.
          5    1    3    3  502    0  0.68801541754E+02  0.51349227670E+02 -0.18907458657E+03  0.20769464851E+03  0.41800000000E+01 0.  1.
         -5    1    3    3    0  502  0.23629535405E+02 -0.59426198938E+02 -0.72858198829E+02  0.97034105346E+02  0.41800000000E+01 0.  1.
        -11    1    1    2    0    0 -0.89040876943E+02  0.37925512252E+02 -0.56968423752E+03  0.57784665157E+03  0.00000000000E+00 0.  1.
         11    1    1    2    0    0 -0.33902002156E+01 -0.29848540984E+02 -0.93236645890E+02  0.97956628123E+02  0.00000000000E+00 0. -1.
</event>
<event>
 7    1  0.2841804E-009  0.1223079E+03  0.7561462E-02  0.1239338E+00
         -1   -1    0    0    0  501 -0.00000000000E+00  0.00000000000E+00  0.87102472310E+02  0.87102472310E+02  0.00000000000E+00 0. -1.
          1   -1    0    0  501    0  0.00000000000E+00 -0.00000000000E+00 -0.27099076736E+03  0.27099076736E+03  0.00000000000E+00 0.  1.
         25    2    1    2    0    0 -0.91141833524E+02  0.25226673471E+02 -0.38357486739E+02  0.16143084211E+03  0.12508157787E+03 0.  0.
          5    1    3    3  502    0 -0.52634777993E+02  0.44647776239E+02 -0.76916646151E+02  0.10342865479E+03  0.41800000000E+01 0. -1.
         -5    1    3    3    0  502 -0.38507055531E+02 -0.19421102768E+02  0.38559159411E+02  0.58002187312E+02  0.41800000000E+01 0. -1.
        -11    1    1    2    0    0  0.91782267023E+02 -0.51912239658E+02 -0.11963116068E+03  0.15946936938E+03  0.00000000000E+00 0.  1.
         11    1    1    2    0    0 -0.64043349895E+00  0.26685566188E+02 -0.25899647639E+02  0.37193028186E+02  0.00000000000E+00 0. -1.
</event>
<event>
 7    1  0.2841804E-009  0.1222228E+03  0.7561462E-02  0.1239475E+00
          1   -1    0    0  501    0  0.00000000000E+00  0.00000000000E+00  0.53571119901E+03  0.53571119901E+03  0.00000000000E+00 0. -1.
         -1   -1    0    0    0  501 -0.00000000000E+00 -0.00000000000E+00 -0.88288000467E+02  0.88288000467E+02  0.00000000000E+00 0.  1.
         25    2    1    2    0    0 -0.11323921489E+03  0.21258797964E+02  0.19295990101E+02  0.17115789893E+03  0.12509050665E+03 0.  0.
          5    1    3    3  502    0 -0.46929515266E+02  0.34128084744E+02  0.66718156198E+02  0.88520564491E+02  0.41800000000E+01 0.  1.
         -5    1    3    3    0  502 -0.66309699619E+02 -0.12869286780E+02 -0.47422166097E+02  0.82637334439E+02  0.41800000000E+01 0.  1.
        -11    1    1    2    0    0  0.29284790802E+02 -0.18407320835E+02  0.29504477951E+02  0.45463640987E+02  0.00000000000E+00 0.  1.
         11    1    1    2    0    0  0.83954424083E+02 -0.28514771293E+01  0.39862273049E+03  0.40737765956E+03  0.00000000000E+00 0. -1.
</event>
<event>
 7    1  0.2841804E-009  0.1132820E+03  0.7561462E-02  0.1254610E+00
          2   -1    0    0  501    0  0.00000000000E+00  0.00000000000E+00  0.11021853691E+04  0.11021853691E+04  0.00000000000E+00 0. -1.
         -2   -1    0    0    0  501 -0.00000000000E+00 -0.00000000000E+00 -0.15336057165E+02  0.15336057165E+02  0.00000000000E+00 0.  1.
         25    2    1    2    0    0 -0.63821475829E+02  0.26098701118E+02  0.69088358056E+03  0.70549346637E+03  0.12508631506E+03 0.  0.
          5    1    3    3  502    0  0.88309848272E+01  0.43646044803E+02  0.47298092339E+03  0.47509092794E+03  0.41800000000E+01 0.  1.
         -5    1    3    3    0  502 -0.72652460656E+02 -0.17547343685E+02  0.21790265718E+03  0.23040253843E+03  0.41800000000E+01 0.  1.
        -11    1    1    2    0    0  0.95895015443E+01 -0.47662520721E+02  0.11152239879E+03  0.12165903112E+03  0.00000000000E+00 0.  1.
         11    1    1    2    0    0  0.54231974284E+02  0.21563819602E+02  0.28444333260E+03  0.29036892880E+03  0.00000000000E+00 0. -1.
</event>
<event>
 7    1  0.2841804E-009  0.1576330E+03  0.7561462E-02  0.1191395E+00
         -1   -1    0    0    0  501 -0.00000000000E+00  0.00000000000E+00  0.14359657650E+03  0.14359657650E+03  0.00000000000E+00 0.  1.
          1   -1    0    0  501    0  0.00000000000E+00 -0.00000000000E+00 -0.22477977328E+03  0.22477977328E+03  0.00000000000E+00 0. -1.
         25    2    1    2    0    0 -0.12619990079E+03 -0.17837433711E+02  0.22556585070E+02  0.18000993246E+03  0.12510070844E+03 0.  0.
          5    1    3    3  502    0 -0.16249213917E+01 -0.49659503951E+02  0.88178898042E+01  0.50635306682E+02  0.41800000000E+01 0. -1.
         -5    1    3    3    0  502 -0.12457497940E+03  0.31822070239E+02  0.13738695266E+02  0.12937462578E+03  0.41800000000E+01 0. -1.
        -11    1    1    2    0    0  0.49104629159E+02 -0.17264404394E+02  0.29524115598E+01  0.52134834784E+02  0.00000000000E+00 0.  1.
         11    1    1    2    0    0  0.77095271633E+02  0.35101838105E+02 -0.10669219341E+03  0.13623158254E+03  0.00000000000E+00 0. -1.
</event>
<event>
 7    1  0.2841804E-009  0.1041786E+03  0.7561462E-02  0.1271747E+00
          3   -1    0    0  501    0  0.00000000000E+00  0.00000000000E+00  0.10729937426E+03  0.10729937426E+03  0.00000000000E+00 0. -1.
         -3   -1    0    0    0  501 -0.00000000000E+00 -0.00000000000E+00 -0.11919200614E+03  0.11919200614E+03  0.00000000000E+00 0.  1.
         25    2    1    2    0    0  0.96961969835E+00  0.23320039882E+02 -0.31933460656E+02  0.13119532695E+03  0.12509078097E+03 0.  0.
          5    1    3    3  502    0 -0.50543210840E+02  0.39067639818E+02  0.72878548720E+01  0.64431994161E+02  0.41800000000E+01 0. -1.
         -5    1    3    3    0  502  0.51512830538E+02 -0.15747599936E+02 -0.39221315528E+02  0.66763332792E+02  0.41800000000E+01 0. -1.
        -11    1    1    2    0    0 -0.32318686977E+02 -0.42626711316E+02  0.24407761819E+00  0.53493865250E+02  0.00000000000E+00 0.  1.
         11    1    1    2    0    0  0.31349067279E+02  0.19306671434E+02  0.19796751165E+02  0.41802188194E+02  0.00000000000E+00 0. -1.
</event>
<event>
 7    1  0.2841804E-009  0.1057060E+03  0.7561462E-02  0.1268735E+00
         -2   -1    0    0    0  501 -0.00000000000E+00  0.00000000000E+00  0.45666178579E+03  0.45666178579E+03  0.00000000000E+00 0.  1.
          2   -1    0    0  501    0  0.00000000000E+00 -0.00000000000E+00 -0.47491264164E+02  0.47491264164E+02  0.00000000000E+00 0. -1.
         25    2    1    2    0    0 -0.93167524620E+02  0.25337535000E+02  0.27509784602E+03  0.31726223454E+03  0.12511723404E+03 0.  0.
          5    1    3    3  502    0 -0.43806301477E+02  0.85656231259E+01  0.85592350333E+01  0.45640933963E+02  0.41800000000E+01 0. -1.
         -5    1    3    3    0  502 -0.49361223143E+02  0.16771911874E+02  0.26653861099E+03  0.27162130058E+03  0.41800000000E+01 0. -1.
        -11    1    1    2    0    0  0.39451416370E+02  0.19778690820E+02  0.11404808443E+02  0.45581580927E+02  0.00000000000E+00 0. -1.
         11    1    1    2    0    0  0.53716108251E+02 -0.45116225821E+02  0.12266786715E+03  0.14130923448E+03  0.00000000000E+00 0.  1.
</event>
<event>
 7    1  0.2846987E-009  0.8781226E+02  0.7561462E-02  0.1308238E+00
          2   -1    0    0  501    0  0.00000000000E+00  0.00000000000E+00  0.45235308587E+03  0.45235308587E+03  0.00000000000E+00 0. -1.
         -2   -1    0    0    0  501 -0.00000000000E+00 -0.00000000000E+00 -0.37748920608E+02  0.37748920608E+02  0.00000000000E+00 0.  1.
         25    2    1    2    0    0  0.31801609229E+02  0.41239037315E+02  0.13404853442E+03  0.19060093557E+03  0.12509079308E+03 0.  0.
          5    1    3    3  502    0  0.28047706794E+02  0.52631845063E+02  0.39841351385E+01  0.59917699421E+02  0.41800000000E+01 0. -1.
         -5    1    3    3    0  502  0.37539024349E+01 -0.11392807748E+02  0.13006439928E+03  0.13068323615E+03  0.41800000000E+01 0. -1.
        -11    1    1    2    0    0 -0.48786266354E+02 -0.60327686609E+02  0.18550741872E+03  0.20107842241E+03  0.00000000000E+00 0.  1.
         11    1    1    2    0    0  0.16984657126E+02  0.19088649294E+02  0.95048212121E+02  0.98422648496E+02  0.00000000000E+00 0. -1.
</event>
<event>
 7    1  0.2841804E-009  0.1293573E+03  0.7561462E-02  0.1228413E+00
          2   -1    0    0  501    0  0.00000000000E+00  0.00000000000E+00  0.54438573180E+03  0.54438573180E+03  0.00000000000E+00 0. -1.
         -2   -1    0    0    0  501 -0.00000000000E+00 -0.00000000000E+00 -0.52525167768E+02  0.52525167768E+02  0.00000000000E+00 0.  1.
         25    2    1    2    0    0  0.49570087566E+02  0.98376830290E+02  0.37945036471E+03  0.41444547317E+03  0.12508907480E+03 0.  0.
          5    1    3    3  502    0  0.25148958399E+02 -0.95683170364E+01  0.10423114799E+02  0.29157100706E+02  0.41800000000E+01 0. -1.
         -5    1    3    3    0  502  0.24421129167E+02  0.10794514733E+03  0.36902724991E+03  0.38528837247E+03  0.41800000000E+01 0. -1.
        -11    1    1    2    0    0 -0.35658926169E+02 -0.19509029942E+02  0.90850677285E+02  0.99528924579E+02  0.00000000000E+00 0. -1.
         11    1    1    2    0    0 -0.13911161397E+02 -0.78867800348E+02  0.21559522038E+02  0.82936501817E+02  0.00000000000E+00 0.  1.
</event>
<event>
 7    1  0.2841804E-009  0.1028778E+03  0.7561462E-02  0.1274358E+00
          1   -1    0    0  501    0  0.00000000000E+00  0.00000000000E+00  0.61198080298E+03  0.61198080298E+03  0.00000000000E+00 0. -1.
         -1   -1    0    0    0  501 -0.00000000000E+00 -0.00000000000E+00 -0.52172562619E+02  0.52172562619E+02  0.00000000000E+00 0.  1.
         25    2    1    2    0    0 -0.23808258143E+02  0.29100598150E+02  0.54784229630E+03  0.56319889856E+03  0.12509252478E+03 0.  0.
          5    1    3    3  502    0  0.35313763271E+02  0.29567599985E+02  0.41701203307E+03  0.41956860342E+03  0.41800000000E+01 0.  1.
         -5    1    3    3    0  502 -0.59122021414E+02 -0.46700183577E+00  0.13083026322E+03  0.14363029514E+03  0.41800000000E+01 0.  1.
        -11    1    1    2    0    0  0.61620265854E+01  0.34083074562E+02  0.46429130902E+01  0.34945431535E+02  0.00000000000E+00 0.  1.
         11    1    1    2    0    0  0.17646231558E+02 -0.63183672711E+02  0.73230309705E+01  0.66009035503E+02  0.00000000000E+00 0. -1.
</event>
<event>
 7    1  0.2841804E-009  0.1393795E+03  0.7561462E-02  0.1214166E+00
          2   -1    0    0  501    0  0.00000000000E+00  0.00000000000E+00  0.33170222461E+03  0.33170222461E+03  0.00000000000E+00 0.  1.
         -2   -1    0    0    0  501 -0.00000000000E+00 -0.00000000000E+00 -0.63641612695E+02  0.63641612695E+02  0.00000000000E+00 0. -1.
         25    2    1    2    0    0 -0.12091302109E+02 -0.85600097614E+02  0.18000652421E+03  0.23563219162E+03  0.12508638883E+03 0.  0.
          5    1    3    3  502    0  0.37697079024E+02 -0.89442572359E+02  0.89070744565E+02  0.13180331352E+03  0.41800000000E+01 0.  1.
         -5    1    3    3    0  502 -0.49788381134E+02  0.38424747455E+01  0.90935779649E+02  0.10382887810E+03  0.41800000000E+01 0.  1.
        -11    1    1    2    0    0  0.55318822207E+02  0.37531034656E+02  0.57640654272E+02  0.88267749929E+02  0.00000000000E+00 0.  1.
         11    1    1    2    0    0 -0.43227520098E+02  0.48069062958E+02  0.30413433431E+02  0.71443895754E+02  0.00000000000E+00 0. -1.
</event>
<event>
 7    1  0.2841804E-009  0.1142759E+03  0.7561462E-02  0.1252850E+00
         -2   -1    0    0    0  501 -0.00000000000E+00  0.00000000000E+00  0.24785417056E+02  0.24785417056E+02  0.00000000000E+00 0.  1.
          2   -1    0    0  501    0  0.00000000000E+00 -0.00000000000E+00 -0.72495457314E+03  0.72495457314E+03  0.00000000000E+00 0. -1.
         25    2    1    2    0    0  0.76986886944E+02 -0.55386155836E+01 -0.33245159321E+03  0.36349596982E+03  0.12509037221E+03 0.  0.
          5    1    3    3  502    0  0.10879927240E+03 -0.15889957716E+02 -0.28306500250E+03  0.30369893064E+03  0.41800000000E+01 0. -1.
         -5    1    3    3    0  502 -0.31812385456E+02  0.10351342132E+02 -0.49386590711E+02  0.59797039178E+02  0.41800000000E+01 0. -1.
        -11    1    1    2    0    0 -0.64816032083E+01 -0.10647527439E+02 -0.10507077807E+01  0.12509396770E+02  0.00000000000E+00 0.  1.
         11    1    1    2    0    0 -0.70505283735E+02  0.16186143023E+02 -0.36666685508E+03  0.37373462360E+03  0.00000000000E+00 0. -1.
</event>
<event>
 7    1  0.2841804E-009  0.1232531E+03  0.7561462E-02  0.1237825E+00
         -1   -1    0    0    0  501 -0.00000000000E+00  0.00000000000E+00  0.51678588204E+02  0.51678588204E+02  0.00000000000E+00 0.  1.
          1   -1    0    0  501    0  0.00000000000E+00 -0.00000000000E+00 -0.45525606413E+03  0.45525606413E+03  0.00000000000E+00 0. -1.
         25    2    1    2    0    0 -0.15322449162E+02  0.74909398563E+02 -0.32988119654E+03  0.36099305223E+03  0.12509270356E+03 0.  0.
          5    1    3    3  502    0  0.25589211474E+02  0.75821884886E+02 -0.10344804328E+03  0.13085387281E+03  0.41800000000E+01 0.  1.
         -5    1    3    3    0  502 -0.40911660636E+02 -0.91248632250E+00 -0.22643315326E+03  0.23013917941E+03  0.41800000000E+01 0.  1.
        -11    1    1    2    0    0  0.31062662421E+02  0.14623637541E+02 -0.27397222248E+02  0.43924339022E+02  0.00000000000E+00 0.  1.
         11    1    1    2    0    0 -0.15740213259E+02 -0.89533036104E+02 -0.46299057139E+02  0.10201726109E+03  0.00000000000E+00 0. -1.
</event>
<event>
 7    1  0.2841804E-009  0.1036654E+03  0.7561462E-02  0.1272772E+00
          2   -1    0    0  501    0  0.00000000000E+00  0.00000000000E+00  0.32351938794E+03  0.32351938794E+03  0.00000000000E+00 0. -1.
         -2   -1    0    0    0  501 -0.00000000000E+00 -0.00000000000E+00 -0.43515052062E+02  0.43515052062E+02  0.00000000000E+00 0.  1.
         25    2    1    2    0    0  0.38908939924E+02 -0.26954273548E+00  0.11231882283E+03  0.17256097998E+03  0.12509114913E+03 0.  0.
          5    1    3    3  502    0  0.84399676875E+02  0.67618504592E+01  0.71698553004E+02  0.11102784777E+03  0.41800000000E+01 0.  1.
         -5    1    3    3    0  502 -0.45490736951E+02 -0.70313931947E+01  0.40620269824E+02  0.61533132206E+02  0.41800000000E+01 0.  1.
        -11    1    1    2    0    0 -0.56907213271E+02 -0.61269182286E+01  0.16565559268E+03  0.17526478664E+03  0.00000000000E+00 0. -1.
         11    1    1    2    0    0  0.17998273347E+02  0.63964609640E+01  0.20299203670E+01  0.19208673380E+02  0.00000000000E+00 0.  1.
</event>
<event>
 7    1  0.2841804E-009  0.7543405E+02  0.7561462E-02  0.1342532E+00
          2   -1    0    0  501    0  0.00000000000E+00  0.00000000000E+00  0.41674738866E+03  0.41674738866E+03  0.00000000000E+00 0.  1.
         -2   -1    0    0    0  501 -0.00000000000E+00 -0.00000000000E+00 -0.36182601306E+02  0.36182601306E+02  0.00000000000E+00 0. -1.
         25    2    1    2    0    0  0.36887119167E+02 -0.38422771932E+02  0.25532415630E+03  0.28926633076E+03  0.12509043272E+03 0.  0.
          5    1    3    3  502    0  0.41668986362E+02 -0.34375783740E+02  0.26859634356E+03  0.27400632676E+03  0.41800000000E+01 0. -1.
         -5    1    3    3    0  502 -0.47818671949E+01 -0.40469881926E+01 -0.13272187261E+02  0.15260003997E+02  0.41800000000E+01 0. -1.
        -11    1    1    2    0    0 -0.50264866949E+02  0.50414670272E+02  0.12701994819E+03  0.14560996898E+03  0.00000000000E+00 0. -1.
         11    1    1    2    0    0  0.13377747782E+02 -0.11991898340E+02 -0.17793171311E+01  0.18053690231E+02  0.00000000000E+00 0.  1.
</event>
<event>
 7    1  0.2841804E-009  0.1030815E+03  0.7561462E-02  0.1273946E+00
         -1   -1    0    0    0  501 -0.00000000000E+00  0.00000000000E+00  0.17999755009E+03  0.17999755009E+03  0.00000000000E+00 0.  1.
          1   -1    0    0  501    0  0.00000000000E+00 -0.00000000000E+00 -0.73750117088E+02  0.73750117088E+02  0.00000000000E+00 0. -1.
         25    2    1    2    0    0  0.15268938380E+02 -0.21329722200E+02  0.93951708565E+02  0.15862727288E+03  0.12509032989E+03 0.  0.
          5    1    3    3  502    0  0.29874495533E+02 -0.69170178299E+02  0.70322159963E+02  0.10314881304E+03  0.41800000000E+01 0.  1.
         -5    1    3    3    0  502 -0.14605557153E+02  0.47840456099E+02  0.23629548602E+02  0.55478459844E+02  0.41800000000E+01 0.  1.
        -11    1    1    2    0    0  0.31179788687E+02  0.83615136651E+01 -0.19163780573E+02  0.37541238914E+02  0.00000000000E+00 0. -1.
         11    1    1    2    0    0 -0.46448727068E+02  0.12968208535E+02  0.31459505006E+02  0.57579155378E+02  0.00000000000E+00 0.  1.
</event>
<event>
 7    1  0.2879604E-009  0.8730270E+02  0.7561462E-02  0.1309518E+00
         -2   -1    0    0    0  501 -0.00000000000E+00  0.00000000000E+00  0.31969315591E+02  0.31969315591E+02  0.00000000000E+00 0.  1.
          2   -1    0    0  501    0  0.00000000000E+00 -0.00000000000E+00 -0.42003460375E+03  0.42003460375E+03  0.00000000000E+00 0. -1.
         25    2    1    2    0    0 -0.25756868262E+02 -0.22752995947E+02 -0.17640593213E+03  0.21896856644E+03  0.12508822930E+03 0.  0.
          5    1    3    3  502    0 -0.58777355657E+02  0.12725790880E+02 -0.15405913011E+03  0.16543400878E+03  0.41800000000E+01 0. -1.
         -5    1    3    3    0  502  0.33020487396E+02 -0.35478786828E+02 -0.22346802025E+02  0.53534557655E+02  0.41800000000E+01 0. -1.
        -11    1    1    2    0    0  0.36056793506E+02 -0.46908963020E+01 -0.19687581849E+03  0.20020535650E+03  0.00000000000E+00 0. -1.
         11    1    1    2    0    0 -0.10299925244E+02  0.27443892249E+02 -0.14783537539E+02  0.32829996406E+02  0.00000000000E+00 0.  1.
</event>
<event>
 7    1  0.2841804E-009  0.1202032E+03  0.7561462E-02  0.1242762E+00
         -2   -1    0    0    0  501 -0.00000000000E+00  0.00000000000E+00  0.19926653524E+03  0.19926653524E+03  0.00000000000E+00 0.  1.
          2   -1    0    0  501    0  0.00000000000E+00 -0.00000000000E+00 -0.10289456485E+03  0.10289456485E+03  0.00000000000E+00 0. -1.
         25    2    1    2    0    0  0.34632555177E+02  0.51403147453E+02 -0.21289575811E+02  0.14121908437E+03  0.12509151172E+03 0.  0.
          5    1    3    3  502    0 -0.40473043087E+02  0.47007343668E+02  0.24455911089E+01  0.62219055693E+02  0.41800000000E+01 0.  1.
         -5    1    3    3    0  502  0.75105598264E+02  0.43958037848E+01 -0.23735166919E+02  0.79000028672E+02  0.41800000000E+01 0.  1.
        -11    1    1    2    0    0  0.18795638309E+02 -0.45380224413E+02  0.28399925339E+02  0.56737963891E+02  0.00000000000E+00 0. -1.
         11    1    1    2    0    0 -0.53428193486E+02 -0.60229230398E+01  0.89261620861E+02  0.10420405184E+03  0.00000000000E+00 0.  1.
</event>
<event>
 7    1  0.2841804E-009  0.1201076E+03  0.7561462E-02  0.1242920E+00
          4   -1    0    0  501    0  0.00000000000E+00  0.00000000000E+00  0.31975622817E+03  0.31975622817E+03  0.00000000000E+00 0.  1.
         -4   -1    0    0    0  501 -0.00000000000E+00 -0.00000000000E+00 -0.55906226345E+02  0.55906226345E+02  0.00000000000E+00 0. -1.
         25    2    1    2    0    0 -0.61060415880E+02  0.37058177071E+02  0.10046317641E+03  0.17561689702E+03  0.12508701704E+03 0.  0.
          5    1    3    3  502    0  0.35811387765E+02 -0.23536285105E+01  0.43174683819E+02  0.56298497170E+02  0.41800000000E+01 0. -1.
         -5    1    3    3    0  502 -0.96871803644E+02  0.39411805581E+02  0.57288492591E+02  0.11931839985E+03  0.41800000000E+01 0. -1.
        -11    1    1    2    0    0  0.20449665106E+02 -0.52210700485E+02  0.13995976765E+03  0.15077427702E+03  0.00000000000E+00 0.  1.
         11    1    1    2    0    0  0.40610750774E+02  0.15152523415E+02  0.23427057762E+02  0.49271280475E+02  0.00000000000E+00 0. -1.
</event>
<event>
 7    1  0.2841804E-009  0.1365928E+03  0.7561462E-02  0.1217989E+00
         -1   -1    0    0    0  501 -0.00000000000E+00  0.00000000000E+00  0.21825322467E+02  0.21825322467E+02  0.00000000000E+00 0.  1.
          1   -1    0    0  501    0  0.00000000000E+00 -0.00000000000E+00 -0.13443565905E+04  0.13443565905E+04  0.00000000000E+00 0. -1.
         25    2    1    2    0    0 -0.44162982153E+02  0.10093949235E+03 -0.99497746419E+03  0.10088443828E+04  0.12509070419E+03 0.  0.
          5    1    3    3  502    0 -0.31709920880E+02 -0.14944891043E+02 -0.95109775648E+02  0.10145053314E+03  0.41800000000E+01 0.  1.
         -5    1    3    3    0  502 -0.12453061273E+02  0.11588438339E+03 -0.89986768855E+03  0.90739384963E+03  0.41800000000E+01 0.  1.
        -11    1    1    2    0    0  0.17413959311E+02 -0.91107529154E+02 -0.31065050551E+03  0.32420296794E+03  0.00000000000E+00 0. -1.
         11    1    1    2    0    0  0.26749022842E+02 -0.98319631976E+01 -0.16903298376E+02  0.33134562308E+02  0.00000000000E+00 0.  1.
</event>
<event>
 7    1  0.2841804E-009  0.1002252E+03  0.7561462E-02  0.1279823E+00
          1   -1    0    0  501    0  0.00000000000E+00  0.00000000000E+00  0.61235808822E+02  0.61235808822E+02  0.00000000000E+00 0. -1.
         -1   -1    0    0    0  501 -0.00000000000E+00 -0.00000000000E+00 -0.31788510309E+03  0.31788510309E+03  0.00000000000E+00 0.  1.
         25    2    1    2    0    0  0.29917344287E+02  0.88700380135E+01 -0.29865572819E+02  0.13233665383E+03  0.12508921793E+03 0.  0.
          5    1    3    3  502    0 -0.12516584545E+02  0.48528619273E+02 -0.49811477013E+02  0.70783807607E+02  0.41800000000E+01 0.  1.
         -5    1    3    3    0  502  0.42433928833E+02 -0.39658581259E+02  0.19945904194E+02  0.61552846220E+02  0.41800000000E+01 0.  1.
        -11    1    1    2    0    0  0.27809207635E+02 -0.18504292723E+02 -0.46607392573E+02  0.57341171255E+02  0.00000000000E+00 0. -1.
         11    1    1    2    0    0 -0.57726551922E+02  0.96342547093E+01 -0.18017632888E+03  0.18944308683E+03  0.00000000000E+00 0.  1.
</event>
<event>
 7    1  0.2841804E-009  0.8950609E+02  0.7561462E-02  0.1304052E+00
         -1   -1    0    0    0  501 -0.00000000000E+00  0.00000000000E+00  0.33690864505E+02  0.33690864505E+02  0.00000000000E+00 0.  1.
          1   -1    0    0  501    0  0.00000000000E+00 -0.00000000000E+00 -0.50608290776E+03  0.50608290776E+03  0.00000000000E+00 0. -1.
         25    2    1    2    0    0 -0.15625695631E+02  0.17171149024E+02 -0.40470399751E+03  0.42423134318E+03  0.12509155134E+03 0.  0.
          5    1    3    3  502    0 -0.54742986892E+02 -0.23610210216E+02 -0.29236527332E+03  0.29841106226E+03  0.41800000000E+01 0.  1.
         -5    1    3    3    0  502  0.39117291261E+02  0.40781359240E+02 -0.11233872419E+03  0.12582028092E+03  0.41800000000E+01 0.  1.
        -11    1    1    2    0    0  0.24618049315E+02  0.15237245292E+02 -0.75632081400E+02  0.80984157296E+02  0.00000000000E+00 0. -1.
         11    1    1    2    0    0 -0.89923536836E+01 -0.32408394316E+02  0.79440356471E+01  0.34558271793E+02  0.00000000000E+00 0.  1.
</event>
<event>
 6    1  0.2841804E-009  0.5803408E+02  0.7561462E-02  0.1406272E+00
          1   -1    0    0  501    0  0.00000000000E+00  0.00000000000E+00  0.19469411381E+02  0.19469411381E+02  0.00000000000E+00 0. -1.
         -1   -1    0    0    0  501 -0.00000000000E+00 -0.00000000000E+00 -0.76228766222E+03  0.76228766222E+03  0.00000000000E+00 0.  1.
          5    1    1    2  502    0  0.29520364007E+02 -0.22576527946E+02 -0.52464540369E+03  0.52597663781E+03  0.41800000000E+01 0. -1.
         -5    1    1    2    0  502 -0.93617751549E+00 -0.13738940357E+02  0.97194223831E+00  0.14424007148E+02  0.41800000000E+01 0. -1.
        -11    1    1    2    0    0 -0.36249491315E+02  0.11080367290E+02 -0.21007426247E+03  0.21346661545E+03  0.00000000000E+00 0.  1.
         11    1    1    2    0    0  0.76653048236E+01  0.25235101013E+02 -0.90705269096E+01  0.27889813187E+02  0.00000000000E+00 0. -1.
</event>
<event>
 6    1  0.2841804E-009  0.9362684E+02  0.7561462E-02  0.1294299E+00
          1   -1    0    0  501    0  0.00000000000E+00  0.00000000000E+00  0.29517929831E+03  0.29517929831E+03  0.00000000000E+00 0. -1.
         -1   -1    0    0    0  501 -0.00000000000E+00 -0.00000000000E+00 -0.48498524511E+02  0.48498524511E+02  0.00000000000E+00 0.  1.
          5    1    1    2  502    0 -0.23685103572E+02 -0.24567956476E+02  0.59812867429E-01  0.34380875413E+02  0.41800000000E+01 0.  1.
         -5    1    1    2    0  502  0.21216734118E+02  0.74983927994E+02  0.13903420652E+03  0.15943877272E+03  0.41800000000E+01 0.  1.
        -11    1    1    2    0    0  0.27283854528E+02 -0.13733840733E+02  0.10045966770E+03  0.10500081873E+03  0.00000000000E+00 0. -1.
         11    1    1    2    0    0 -0.24815485075E+02 -0.36682130785E+02  0.71270867087E+01  0.44857355956E+02  0.00000000000E+00 0.  1.
</event>
<event>
 7    1  0.2841804E-009  0.1489169E+03  0.7561462E-02  0.1201810E+00
         -1   -1    0    0    0  501 -0.00000000000E+00  0.00000000000E+00  0.43095110939E+02  0.43095110939E+02  0.00000000000E+00 0.  1.
          1   -1    0    0  501    0  0.00000000000E+00 -0.00000000000E+00 -0.54310847705E+03  0.54310847705E+03  0.00000000000E+00 0. -1.
         25    2    1    2    0    0 -0.77007048443E+02  0.72882042844E+02 -0.26416626102E+03  0.31092311702E+03  0.12508994187E+03 0.  0.
          5    1    3    3  502    0 -0.60944522136E+02 -0.22761694525E+02 -0.12867521518E+03  0.14424670851E+03  0.41800000000E+01 0. -1.
         -5    1    3    3    0  502 -0.16062526307E+02  0.95643737369E+02 -0.13549104584E+03  0.16667640851E+03  0.41800000000E+01 0. -1.
        -11    1    1    2    0    0  0.84991592076E+02 -0.27262417537E+02 -0.19093164531E+03  0.21076456845E+03  0.00000000000E+00 0. -1.
         11    1    1    2    0    0 -0.79845436325E+01 -0.45619625307E+02 -0.44915459773E+02  0.64515902511E+02  0.00000000000E+00 0.  1.
</event>
<event>
 7    1  0.2841804E-009  0.9740914E+02  0.7561462E-02  0.1285840E+00
          1   -1    0    0  501    0  0.00000000000E+00  0.00000000000E+00  0.46903916478E+02  0.46903916478E+02  0.00000000000E+00 0. -1.
         -1   -1    0    0    0  501 -0.00000000000E+00 -0.00000000000E+00 -0.29886475170E+03  0.29886475170E+03  0.00000000000E+00 0.  1.
         25    2    1    2    0    0 -0.22412311433E+02  0.70320345228E+01 -0.80074623500E+02  0.15036759871E+03  0.12508680266E+03 0.  0.
          5    1    3    3  502    0 -0.10256150614E+02  0.57499129751E+02 -0.78926839149E+02  0.98276430977E+02  0.41800000000E+01 0. -1.
         -5    1    3    3    0  502 -0.12156160819E+02 -0.50467095228E+02 -0.11477843508E+01  0.52091167730E+02  0.41800000000E+01 0. -1.
        -11    1    1    2    0    0  0.26017691488E+02  0.34101053810E+02 -0.45904524166E+02  0.62825372902E+02  0.00000000000E+00 0. -1.
         11    1    1    2    0    0 -0.36053800556E+01 -0.41133088333E+02 -0.12598168755E+03  0.13257569657E+03  0.00000000000E+00 0.  1.
</event>
<event>
 7    1  0.3003947E-009  0.6462988E+02  0.7561462E-02  0.1379369E+00
         -1   -1    0    0    0  501 -0.00000000000E+00  0.00000000000E+00  0.22441271587E+03  0.22441271587E+03  0.00000000000E+00 0.  1.
          1   -1    0    0  501    0  0.00000000000E+00 -0.00000000000E+00 -0.83164617271E+02  0.83164617271E+02  0.00000000000E+00 0. -1.
         25    2    1    2    0    0  0.35758585112E+02  0.41420136790E+02  0.79860570604E+01  0.13676701023E+03  0.12508850402E+03 0.  0.
          5    1    3    3  502    0  0.20792912855E+02  0.47039958172E+02 -0.52769197652E+02  0.73804901671E+02  0.41800000000E+01 0.  1.
         -5    1    3    3    0  502  0.14965672257E+02 -0.56198213821E+01  0.60755254712E+02  0.62962108555E+02  0.41800000000E+01 0.  1.
        -11    1    1    2    0    0 -0.30154142002E+02 -0.14173533010E+02 -0.13576153845E+01  0.33346730536E+02  0.00000000000E+00 0. -1.
         11    1    1    2    0    0 -0.56044431097E+01 -0.27246603779E+02  0.13461965692E+03  0.13746359238E+03  0.00000000000E+00 0.  1.
</event>
<event>
 7    1  0.2841804E-009  0.9768927E+02  0.7561462E-02  0.1285232E+00
         -2   -1    0    0    0  501 -0.00000000000E+00  0.00000000000E+00  0.42539567405E+02  0.42539567405E+02  0.00000000000E+00 0.  1.
          2   -1    0    0  501    0  0.00000000000E+00 -0.00000000000E+00 -0.47245421688E+03  0.47245421688E+03  0.00000000000E+00 0. -1.
         25    2    1    2    0    0  0.29494106022E+02 -0.46270694205E+02 -0.37233814289E+03  0.39660209830E+03  0.12508657919E+03 0.  0.
          5    1    3    3  502    0  0.56448396584E+02 -0.35886065009E+02 -0.87227925812E+02  0.11000188444E+03  0.41800000000E+01 0. -1.
         -5    1    3    3    0  502 -0.26954290562E+02 -0.10384629196E+02 -0.28511021708E+03  0.28660021386E+03  0.41800000000E+01 0. -1.
        -11    1    1    2    0    0  0.28998021138E+02  0.12027111513E+02 -0.34848857742E+02  0.46903939356E+02  0.00000000000E+00 0. -1.
         11    1    1    2    0    0 -0.58492127161E+02  0.34243582692E+02 -0.22727648839E+02  0.71487746622E+02  0.00000000000E+00 0.  1.
</event>
<event>
 7    1  0.2841804E-009  0.8423092E+02  0.7561462E-02  0.1317456E+00
         -2   -1    0    0    0  501 -0.00000000000E+00  0.00000000000E+00  0.22391914149E+02  0.22391914149E+02  0.00000000000E+00 0.  1.
          2   -1    0    0  501    0  0.00000000000E+00 -0.00000000000E+00 -0.56718255339E+03  0.56718255339E+03  0.00000000000E+00 0. -1.
         25    2    1    2    0    0 -0.13358778737E+01 -0.27559335443E+02 -0.33393723915E+03  0.35766309610E+03  0.12509000394E+03 0.  0.
          5    1    3    3  502    0 -0.32679916583E+02 -0.26788991002E+01 -0.30805024142E+03  0.30981861965E+03  0.41800000000E+01 0.  1.
         -5    1    3    3    0  502  0.31344038709E+02 -0.24880436343E+02 -0.25886997730E+02  0.47844476449E+02  0.41800000000E+01 0.  1.
        -11    1    1    2    0    0 -0.42322412545E+02 -0.21265721235E+01 -0.11369555277E+03  0.12133584645E+03  0.00000000000E+00 0.  1.
         11    1    1    2    0    0  0.43658290418E+02  0.29685907567E+02 -0.97157847318E+02  0.11057552499E+03  0.00000000000E+00 0. -1.
</event>
<event>
 7    1  0.2841804E-009  0.1124118E+03  0.7561462E-02  0.1256168E+00
          1   -1    0    0  501    0  0.00000000000E+00  0.00000000000E+00  0.38887903484E+02  0.38887903484E+02  0.00000000000E+00 0. -1.
         -1   -1    0    0    0  501 -0.00000000000E+00 -0.00000000000E+00 -0.43742472728E+03  0.43742472728E+03  0.00000000000E+00 0.  1.
         25    2    1    2    0    0  0.10417020912E+02 -0.71360040160E+02 -0.20503690711E+03  0.25077345647E+03  0.12508566479E+03 0.  0.
          5    1    3    3  502    0  0.38552731763E+02 -0.63497864584E+01 -0.16433636525E+03  0.16896906894E+03  0.41800000000E+01 0.  1.
         -5    1    3    3    0  502 -0.28135710850E+02 -0.65010253701E+02 -0.40700541857E+02  0.81804387528E+02  0.41800000000E+01 0.  1.
        -11    1    1    2    0    0 -0.53307332082E+00 -0.21337836938E+02 -0.50625570741E+02  0.54941203711E+02  0.00000000000E+00 0.  1.
         11    1    1    2    0    0 -0.98839475916E+01  0.92697877097E+02 -0.14287434595E+03  0.17059797059E+03  0.00000000000E+00 0. -1.
</event>
<event>
 7    1  0.2841804E-009  0.8643705E+02  0.7561462E-02  0.1311717E+00
         -1   -1    0    0    0  501 -0.00000000000E+00  0.00000000000E+00  0.97567790763E+02  0.97567790763E+02  0.00000000000E+00 0.  1.
          1   -1    0    0  501    0  0.00000000000E+00 -0.00000000000E+00 -0.14149725239E+03  0.14149725239E+03  0.00000000000E+00 0. -1.
         25    2    1    2    0    0  0.36473807768E+02  0.24314430037E+02 -0.38248180860E+02  0.13796011743E+03  0.12509412656E+03 0.  0.
          5    1    3    3  502    0  0.53947202108E+02 -0.71670149708E+01 -0.70693679828E+02  0.89312571828E+02  0.41800000000E+01 0. -1.
         -5    1    3    3    0  502 -0.17473394340E+02  0.31481445007E+02  0.32445498968E+02  0.48647545599E+02  0.41800000000E+01 0. -1.
        -11    1    1    2    0    0  0.19694105306E+02  0.24148680125E+01 -0.28604036806E+02  0.34812071080E+02  0.00000000000E+00 0. -1.
         11    1    1    2    0    0 -0.56167913073E+02 -0.26729298049E+02  0.22922756036E+02  0.66292854649E+02  0.00000000000E+00 0.  1.
</event>
<event>
 7    1  0.2841804E-009  0.1227416E+03  0.7561462E-02  0.1238642E+00
         -1   -1    0    0    0  501 -0.00000000000E+00  0.00000000000E+00  0.13749966254E+03  0.13749966254E+03  0.00000000000E+00 0.  1.
          1   -1    0    0  501    0  0.00000000000E+00 -0.00000000000E+00 -0.13198808884E+03  0.13198808884E+03  0.00000000000E+00 0. -1.
         25    2    1    2    0    0 -0.80155128665E+02 -0.11440524627E+02 -0.19106661770E+02  0.15022612412E+03  0.12508834314E+03 0.  0.
          5    1    3    3  502    0 -0.24421320816E+02 -0.61119418308E+02  0.15624990478E+02  0.67776079351E+02  0.41800000000E+01 0.  1.
         -5    1    3    3    0  502 -0.55733807849E+02  0.49678893681E+02 -0.34731652249E+02  0.82450044770E+02  0.41800000000E+01 0.  1.
        -11    1    1    2    0    0  0.83220979562E+01 -0.23459984872E+02 -0.16072571054E+02  0.29630318002E+02  0.00000000000E+00 0. -1.
         11    1    1    2    0    0  0.71833030709E+02  0.34900509500E+02  0.40690806522E+02  0.89631309259E+02  0.00000000000E+00 0.  1.
</event>
<event>
 7    1  0.2841804E-009  0.1240092E+03  0.7561462E-02  0.1236626E+00
          1   -1    0    0  501    0  0.00000000000E+00  0.00000000000E+00  0.36050096013E+03  0.36050096013E+03  0.00000000000E+00 0. -1.
         -1   -1    0    0    0  501 -0.00000000000E+00 -0.00000000000E+00 -0.61711875491E+02  0.61711875491E+02  0.00000000000E+00 0.  1.
         25    2    1    2    0    0 -0.45013431897E+02 -0.55883887382E+02  0.26171253797E+03  0.29881446660E+03  0.12508962786E+03 0.  0.
          5    1    3    3  502    0  0.32932568927E+02  0.12525215049E+02  0.36858470797E+02  0.51161063101E+02  0.41800000000E+01 0.  1.
         -5    1    3    3    0  502 -0.77946000824E+02 -0.68409102430E+02  0.22485406718E+03  0.24765340350E+03  0.41800000000E+01 0.  1.
        -11    1    1    2    0    0 -0.68666025588E+01  0.56445709036E+02  0.42843537859E+02  0.71195765573E+02  0.00000000000E+00 0. -1.
         11    1    1    2    0    0  0.51880034456E+02 -0.56182165433E+00 -0.57669911970E+01  0.52202603443E+02  0.00000000000E+00 0.  1.
</event>
<event>
 7    1  0.2841804E-009  0.1101715E+03  0.7561462E-02  0.1260253E+00
         -1   -1    0    0    0  501 -0.00000000000E+00  0.00000000000E+00  0.15381988956E+03  0.15381988956E+03  0.00000000000E+00 0.  1.
          1   -1    0    0  501    0  0.00000000000E+00 -0.00000000000E+00 -0.11113439490E+03  0.11113439490E+03  0.00000000000E+00 0. -1.
         25    2    1    2    0    0  0.10681280253E+02  0.70441672458E+02  0.41938311031E+02  0.14994283731E+03  0.12509162066E+03 0.  0.
          5    1    3    3  502    0 -0.41228959312E+02  0.70495981382E+02 -0.20102707518E+01  0.81798680096E+02  0.41800000000E+01 0. -1.
         -5    1    3    3    0  502  0.51910239564E+02 -0.54308923530E-01  0.43948581782E+02  0.68144157209E+02  0.41800000000E+01 0. -1.
        -11    1    1    2    0    0  0.16572471254E+02 -0.80873523546E+01  0.34448201778E+02  0.39073401148E+02  0.00000000000E+00 0.  1.
         11    1    1    2    0    0 -0.27253751507E+02 -0.62354320104E+02 -0.33701018144E+02  0.75938046003E+02  0.00000000000E+00 0. -1.
</event>
<event>
 7    1  0.2841804E-009  0.1846447E+03  0.7561462E-02  0.1163382E+00
          2   -1    0    0  501    0  0.00000000000E+00  0.00000000000E+00  0.11374597239E+04  0.11374597239E+04  0.00000000000E+00 0. -1.
         -2   -1    0    0    0  501 -0.00000000000E+00 -0.00000000000E+00 -0.45988992565E+02  0.45988992565E+02  0.00000000000E+00 0.  1.
         25    2    1    2    0    0 -0.65930078978E+02 -0.13796236127E+03  0.90154476757E+03  0.92293588962E+03  0.12508916805E+03 0.  0.
          5    1    3    3  502    0  0.21514938971E+02  0.85447826591E+01  0.64183752146E+02  0.68358849823E+02  0.41800000000E+01 0.  1.
         -5    1    3    3    0  502 -0.87445017948E+02 -0.14650714393E+03  0.83736101543E+03  0.85457703980E+03  0.41800000000E+01 0.  1.
        -11    1    1    2    0    0 -0.13467310923E+01  0.95562083293E+02  0.78825153583E+02  0.12388434237E+03  0.00000000000E+00 0.  1.
         11    1    1    2    0    0  0.67276810070E+02  0.42400277982E+02  0.11110081015E+03  0.13662848445E+03  0.00000000000E+00 0. -1.
</event>
<event>
 7    1  0.2841804E-009  0.1027508E+03  0.7561462E-02  0.1274616E+00
         -1   -1    0    0    0  501 -0.00000000000E+00  0.00000000000E+00  0.72788543171E+02  0.72788543171E+02  0.00000000000E+00 0.  1.
          1   -1    0    0  501    0  0.00000000000E+00 -0.00000000000E+00 -0.19776135746E+03  0.19776135746E+03  0.00000000000E+00 0. -1.
         25    2    1    2    0    0  0.54527357003E+01 -0.65317915969E+02 -0.54044647725E+02  0.15121452755E+03  0.12509535132E+03 0.  0.
          5    1    3    3  502    0 -0.52206091239E+02  0.18428353481E+00 -0.97895821549E+01  0.53280561574E+02  0.41800000000E+01 0. -1.
         -5    1    3    3    0  502  0.57658826939E+02 -0.65502199504E+02 -0.44255065570E+02  0.97933965979E+02  0.41800000000E+01 0. -1.
        -11    1    1    2    0    0 -0.56065373079E+01  0.35074500072E+02  0.65903208741E+01  0.36125976043E+02  0.00000000000E+00 0.  1.
         11    1    1    2    0    0  0.15380160760E+00  0.30243415897E+02 -0.77518487439E+02  0.83209397035E+02  0.00000000000E+00 0. -1.
</event>
<event>
 7    1  0.2841804E-009  0.1001454E+03  0.7561462E-02  0.1279990E+00
          1   -1    0    0  501    0  0.00000000000E+00  0.00000000000E+00  0.30615684408E+03  0.30615684408E+03  0.00000000000E+00 0. -1.
         -1   -1    0    0    0  501 -0.00000000000E+00 -0.00000000000E+00 -0.46658815522E+02  0.46658815522E+02  0.00000000000E+00 0.  1.
         25    2    1    2    0    0 -0.12655379755E+02  0.26600056345E+02  0.20869309458E+03  0.24508734906E+03  0.12508908550E+03 0.  0.
          5    1    3    3  502    0 -0.59543626612E+02  0.43550605731E+02  0.91134810077E+02  0.11732486837E+03  0.41800000000E+01 0.  1.
         -5    1    3    3    0  502  0.46888246857E+02 -0.16950549386E+02  0.11755828450E+03  0.12776248069E+03  0.41800000000E+01 0.  1.
        -11    1    1    2    0    0  0.19612246779E+02 -0.49071321457E+02  0.12348167510E+01  0.52859810685E+02  0.00000000000E+00 0.  1.
         11    1    1    2    0    0 -0.69568670235E+01  0.22471265112E+02  0.49570117231E+02  0.54868499859E+02  0.00000000000E+00 0. -1.
</event>
<event>
 7    1  0.2841804E-009  0.8044176E+02  0.7561462E-02  0.1327802E+00
         -2   -1    0    0    0  501 -0.00000000000E+00  0.00000000000E+00  0.24521634803E+02  0.24521634803E+02  0.00000000000E+00 0.  1.
          2   -1    0    0  501    0  0.00000000000E+00 -0.00000000000E+00 -0.60421610041E+03  0.60421610041E+03  0.00000000000E+00 0. -1.
         25    2    1    2    0    0  0.31691780886E+02 -0.35775693737E+02 -0.28244439574E+03  0.31258082822E+03  0.12509064015E+03 0.  0.
          5    1    3    3  502    0  0.27450310628E+02 -0.47023385183E+02 -0.29174869225E+03  0.29681558270E+03  0.41800000000E+01 0.  1.
         -5    1    3    3    0  502  0.42414702580E+01  0.11247691446E+02  0.93042965113E+01  0.15765245522E+02  0.41800000000E+01 0.  1.
        -11    1    1    2    0    0 -0.46712006490E+02 -0.78870632888E+01 -0.71752474776E+02  0.85980433554E+02  0.00000000000E+00 0.  1.
         11    1    1    2    0    0  0.15020225604E+02  0.43662757026E+02 -0.22549759510E+03  0.23017647344E+03  0.00000000000E+00 0. -1.
</event>
<event>
 7    1  0.2841804E-009  0.1036272E+03  0.7561462E-02  0.1272848E+00
         -2   -1    0    0    0  501 -0.00000000000E+00  0.00000000000E+00  0.82111763924E+01  0.82111763924E+01  0.00000000000E+00 0.  1.
          2   -1    0    0  501    0  0.00000000000E+00 -0.00000000000E+00 -0.20680143141E+04  0.20680143141E+04  0.00000000000E+00 0. -1.
         25    2    1    2    0    0  0.24251776982E+02 -0.17545806626E+02 -0.16646455823E+04  0.16696073752E+04  0.12509144017E+03 0.  0.
          5    1    3    3  502    0  0.70066870945E+02  0.35533771574E+00 -0.12613828692E+04  0.12633343610E+04  0.41800000000E+01 0.  1.
         -5    1    3    3    0  502 -0.45815093963E+02 -0.17901144341E+02 -0.40326271315E+03  0.40627301415E+03  0.41800000000E+01 0.  1.
        -11    1    1    2    0    0 -0.16905237658E+02 -0.32755969877E+02 -0.90013003844E+02  0.97268090780E+02  0.00000000000E+00 0.  1.
         11    1    1    2    0    0 -0.73465393249E+01  0.50301776503E+02 -0.30514455149E+03  0.30935002451E+03  0.00000000000E+00 0. -1.
</event>
<event>
 7    1  0.2841804E-009  0.9614204E+02  0.7561462E-02  0.1288624E+00
          1   -1    0    0  501    0  0.00000000000E+00  0.00000000000E+00  0.27295521237E+03  0.27295521237E+03  0.00000000000E+00 0. -1.
         -1   -1    0    0    0  501 -0.00000000000E+00 -0.00000000000E+00 -0.49691648031E+02  0.49691648031E+02  0.00000000000E+00 0.  1.
         25    2    1    2    0    0  0.30810019435E+02 -0.44229159078E+02  0.13164963780E+03  0.18943017331E+03  0.12508672038E+03 0.  0.
          5    1    3    3  502    0  0.56059713483E+02 -0.49581726449E+01  0.77540599334E+01  0.56963784962E+02  0.41800000000E+01 0. -1.
         -5    1    3    3    0  502 -0.25249694048E+02 -0.39270986433E+02  0.12389557787E+03  0.13246638834E+03  0.41800000000E+01 0. -1.
        -11    1    1    2    0    0 -0.51749978179E+02  0.16679641467E+02  0.28865024324E+02  0.61558592497E+02  0.00000000000E+00 0.  1.
         11    1    1    2    0    0  0.20939958744E+02  0.27549517611E+02  0.62748902215E+02  0.71658094602E+02  0.00000000000E+00 0. -1.
</event>
<event>
 7    1  0.2841804E-009  0.1266517E+03  0.7561462E-02  0.1232510E+00
          2   -1    0    0  501    0  0.00000000000E+00  0.00000000000E+00  0.12751773286E+04  0.12751773286E+04  0.00000000000E+00 0. -1.
         -2   -1    0    0    0  501 -0.00000000000E+00 -0.00000000000E+00 -0.18156563243E+02  0.18156563243E+02  0.00000000000E+00 0.  1.
         25    2    1    2    0    0 -0.16022900051E+02 -0.10294637793E+03  0.76141274201E+03  0.77862131032E+03  0.12508833329E+03 0.  0.
          5    1    3    3  502    0  0.31218595198E+02 -0.39059798619E+02  0.94648183257E+02  0.10712618517E+03  0.41800000000E+01 0.  1.
         -5    1    3    3    0  502 -0.47241495248E+02 -0.63886579309E+02  0.66676455875E+03  0.67149512515E+03  0.41800000000E+01 0.  1.
        -11    1    1    2    0    0 -0.21224184538E+02  0.72223902024E+02  0.40604568184E+03  0.41296471251E+03  0.00000000000E+00 0. -1.
         11    1    1    2    0    0  0.37247084589E+02  0.30722475904E+02  0.89562341547E+02  0.10174786907E+03  0.00000000000E+00 0.  1.
</event>
<event>
 7    1  0.2841804E-009  0.1558537E+03  0.7561462E-02  0.1193459E+00
         -3   -1    0    0    0  501 -0.00000000000E+00  0.00000000000E+00  0.12803405073E+03  0.12803405073E+03  0.00000000000E+00 0.  1.
          3   -1    0    0  501    0  0.00000000000E+00 -0.00000000000E+00 -0.24434931058E+03  0.24434931058E+03  0.00000000000E+00 0. -1.
         25    2    1    2    0    0 -0.50011093333E+02 -0.12688282587E+03 -0.93968916485E+02  0.20755364557E+03  0.12509195645E+03 0.  0.
          5    1    3    3  502    0 -0.33946114807E+02  0.10900843778E+02  0.61609160392E+01  0.36422470977E+02  0.41800000000E+01 0. -1.
         -5    1    3    3    0  502 -0.16064978526E+02 -0.13778366965E+03 -0.10012983252E+03  0.17113117460E+03  0.41800000000E+01 0. -1.
        -11    1    1    2    0    0  0.46082645752E+02  0.10317449228E+03  0.21315692788E+02  0.11499106424E+03  0.00000000000E+00 0.  1.
         11    1    1    2    0    0  0.39284475811E+01  0.23708333590E+02 -0.43662036146E+02  0.49838651491E+02  0.00000000000E+00 0. -1.
</event>
<event>
 7    1  0.2841804E-009  0.5771440E+02  0.7561462E-02  0.1407682E+00
          1   -1    0    0  501    0  0.00000000000E+00  0.00000000000E+00  0.44326774266E+03  0.44326774266E+03  0.00000000000E+00 0. -1.
         -1   -1    0    0    0  501 -0.00000000000E+00 -0.00000000000E+00 -0.78336574866E+02  0.78336574866E+02  0.00000000000E+00 0.  1.
         25    2    1    2    0    0 -0.34120889523E+02 -0.33522260584E+02  0.39102015386E+03  0.41331743009E+03  0.12508621122E+03 0.  0.
          5    1    3    3  502    0 -0.38274134237E+02 -0.20523239750E+02  0.39585224568E+03  0.39824940117E+03  0.41800000000E+01 0. -1.
         -5    1    3    3    0  502  0.41532447135E+01 -0.12999020834E+02 -0.48320918196E+01  0.15068028924E+02  0.41800000000E+01 0. -1.
        -11    1    1    2    0    0  0.26207364898E+02  0.39642698355E+02 -0.57920106160E+02  0.74920679424E+02  0.00000000000E+00 0.  1.
         11    1    1    2    0    0  0.79135246249E+01 -0.61204377709E+01  0.31831120094E+02  0.33366208009E+02  0.00000000000E+00 0. -1.
</event>
<event>
 7    1  0.2841804E-009  0.1076907E+03  0.7561462E-02  0.1264907E+00
          1   -1    0    0  501    0  0.00000000000E+00  0.00000000000E+00  0.17704156481E+03  0.17704156481E+03  0.00000000000E+00 0. -1.
         -1   -1    0    0    0  501 -0.00000000000E+00 -0.00000000000E+00 -0.12356625267E+03  0.12356625267E+03  0.00000000000E+00 0.  1.
         25    2    1    2    0    0 -0.22043839785E+02 -0.42441725752E+01  0.12493374569E+03  0.17821570915E+03  0.12509378202E+03 0.  0.
          5    1    3    3  502    0 -0.74267595763E+02  0.13067883710E+01  0.71959298068E+02  0.10350360600E+03  0.41800000000E+01 0. -1.
         -5    1    3    3    0  502  0.52223755978E+02 -0.55509609462E+01  0.52974447621E+02  0.74712103147E+02  0.41800000000E+01 0. -1.
        -11    1    1    2    0    0 -0.24708359376E+02 -0.23363835878E+02 -0.56718993593E+02  0.66131808415E+02  0.00000000000E+00 0.  1.
         11    1    1    2    0    0  0.46752199161E+02  0.27608008453E+02 -0.14739439949E+02  0.56260299920E+02  0.00000000000E+00 0. -1.
</event>
<event>
 7    1  0.2841804E-009  0.8411997E+02  0.7561462E-02  0.1317750E+00
          1   -1    0    0  501    0  0.00000000000E+00  0.00000000000E+00  0.14269460886E+03  0.14269460886E+03  0.00000000000E+00 0. -1.
         -1   -1    0    0    0  501 -0.00000000000E+00 -0.00000000000E+00 -0.10784872982E+03  0.10784872982E+03  0.00000000000E+00 0.  1.
         25    2    1    2    0    0 -0.48433008696E+02  0.91704876655E+01  0.47456767358E+02  0.14259956573E+03  0.12511049997E+03 0.  0.
          5    1    3    3  502    0 -0.12836748986E+02 -0.43627206699E+02 -0.19898854088E+02  0.49815179242E+02  0.41800000000E+01 0.  1.
         -5    1    3    3    0  502 -0.35596259710E+02  0.52797694365E+02  0.67355621446E+02  0.92784386488E+02  0.41800000000E+01 0.  1.
        -11    1    1    2    0    0  0.93495633438E+01  0.11277288942E+02  0.38049256463E+02  0.40771773300E+02  0.00000000000E+00 0. -1.
         11    1    1    2    0    0  0.39083445352E+02 -0.20447776608E+02 -0.50660144781E+02  0.67171999658E+02  0.00000000000E+00 0.  1.
</event>
<event>
 6    1  0.2841804E-009  0.1302903E+03  0.7561462E-02  0.1227026E+00
          2   -1    0    0  501    0  0.00000000000E+00  0.00000000000E+00  0.46185784263E+02  0.46185784263E+02  0.00000000000E+00 0. -1.
         -2   -1    0    0    0  501 -0.00000000000E+00 -0.00000000000E+00 -0.43395687066E+03  0.43395687066E+03  0.00000000000E+00 0.  1.
          5    1    1    2  502    0 -0.24681617397E+02  0.33868358624E+02 -0.32519867051E+02  0.53209605395E+02  0.41800000000E+01 0. -1.
         -5    1    1    2    0  502 -0.18114457960E+02 -0.10406687342E+03 -0.13534937931E+03  0.17174101027E+03  0.41800000000E+01 0. -1.
        -11    1    1    2    0    0 -0.60684154807E+00 -0.16121612160E+02 -0.12938103210E+01  0.16184825623E+02  0.00000000000E+00 0. -1.
         11    1    1    2    0    0  0.43402916905E+02  0.86320126951E+02 -0.21860802971E+03  0.23900721363E+03  0.00000000000E+00 0.  1.
</event>
<event>
 7    1  0.2841804E-009  0.8600496E+02  0.7561462E-02  0.1312825E+00
          1   -1    0    0  501    0  0.00000000000E+00  0.00000000000E+00  0.17739162457E+03  0.17739162457E+03  0.00000000000E+00 0. -1.
         -1   -1    0    0    0  501 -0.00000000000E+00 -0.00000000000E+00 -0.96649351169E+02  0.96649351169E+02  0.00000000000E+00 0.  1.
         25    2    1    2    0    0  0.52962983088E+02  0.58680924931E+02  0.44867465228E+02  0.15462123487E+03  0.12508440474E+03 0.  0.
          5    1    3    3  502    0  0.22026605867E+02  0.45192854055E+02  0.86944194945E+02  0.10052030073E+03  0.41800000000E+01 0. -1.
         -5    1    3    3    0  502  0.30936377221E+02  0.13488070876E+02 -0.42076729717E+02  0.54100934144E+02  0.41800000000E+01 0. -1.
        -11    1    1    2    0    0 -0.24700651874E+02 -0.53354703776E+02  0.58414337450E+02  0.82879921801E+02  0.00000000000E+00 0. -1.
         11    1    1    2    0    0 -0.28262331214E+02 -0.53262211549E+01 -0.22539529277E+02  0.36539819067E+02  0.00000000000E+00 0.  1.
</event>
<event>
 7    1  0.2841804E-009  0.1193011E+03  0.7561462E-02  0.1244255E+00
         -2   -1    0    0    0  501 -0.00000000000E+00  0.00000000000E+00  0.88114238743E+02  0.88114238743E+02  0.00000000000E+00 0. -1.
          2   -1    0    0  501    0  0.00000000000E+00 -0.00000000000E+00 -0.21070834489E+03  0.21070834489E+03  0.00000000000E+00 0.  1.
         25    2    1    2    0    0  0.80159248110E+02  0.60861983875E+01 -0.81976416776E+02  0.16980104233E+03  0.12509881774E+03 0.  0.
          5    1    3    3  502    0 -0.18592773706E+02 -0.11949692379E+02 -0.63863402212E+02  0.67708883642E+02  0.41800000000E+01 0.  1.
         -5    1    3    3    0  502  0.98752021816E+02  0.18035890766E+02 -0.18113014564E+02  0.10209215869E+03  0.41800000000E+01 0.  1.
        -11    1    1    2    0    0 -0.18041750440E+02 -0.40704295722E+02 -0.36874272021E+02  0.57810521415E+02  0.00000000000E+00 0. -1.
         11    1    1    2    0    0 -0.62117497670E+02  0.34618097334E+02 -0.37434173473E+01  0.71211019887E+02  0.00000000000E+00 0.  1.
</event>
<event>
 7    1  0.2841804E-009  0.9425963E+02  0.7561462E-02  0.1292852E+00
         -1   -1    0    0    0  501 -0.00000000000E+00  0.00000000000E+00  0.34621386492E+02  0.34621386492E+02  0.00000000000E+00 0.  1.
          1   -1    0    0  501    0  0.00000000000E+00 -0.00000000000E+00 -0.55117328973E+03  0.55117328973E+03  0.00000000000E+00 0. -1.
         25    2    1    2    0    0  0.49239582994E+00 -0.66277249554E+02 -0.38287517687E+03  0.40820846217E+03  0.12509129172E+03 0.  0.
          5    1    3    3  502    0  0.77346880432E+01  0.18524299202E+02 -0.53574685414E+01  0.21193157604E+02  0.41800000000E+01 0. -1.
         -5    1    3    3    0  502 -0.72422922132E+01 -0.84801548756E+02 -0.37751770833E+03  0.38701530457E+03  0.41800000000E+01 0. -1.
        -11    1    1    2    0    0  0.20020006824E+02  0.89771020627E+01 -0.11018584805E+03  0.11234905494E+03  0.00000000000E+00 0. -1.
         11    1    1    2    0    0 -0.20512402654E+02  0.57300147491E+02 -0.23490878318E+02  0.65237159114E+02  0.00000000000E+00 0.  1.
</event>
<event>
 7    1  0.2841804E-009  0.1227446E+03  0.7561462E-02  0.1238637E+00
         -2   -1    0    0    0  501 -0.00000000000E+00  0.00000000000E+00  0.13554353778E+02  0.13554353778E+02  0.00000000000E+00 0.  1.
          2   -1    0    0  501    0  0.00000000000E+00 -0.00000000000E+00 -0.12350980587E+04  0.12350980587E+04  0.00000000000E+00 0. -1.
         25    2    1    2    0    0 -0.10407663890E+02 -0.69158144810E+02 -0.63767360673E+03  0.65357981917E+03  0.12509109819E+03 0.  0.
          5    1    3    3  502    0 -0.16430938119E+02 -0.99331089658E+02 -0.57353921871E+03  0.58232409266E+03  0.41800000000E+01 0. -1.
         -5    1    3    3    0  502  0.60232742289E+01  0.30172944847E+02 -0.64134388021E+02  0.71255726507E+02  0.41800000000E+01 0. -1.
        -11    1    1    2    0    0 -0.37697379042E+02  0.13350146189E+02 -0.16542434649E+03  0.17018969769E+03  0.00000000000E+00 0.  1.
         11    1    1    2    0    0  0.48105042932E+02  0.55807998621E+02 -0.41844575170E+03  0.42488289561E+03  0.00000000000E+00 0. -1.
</event>
<event>
 7    1  0.2841804E-009  0.1801262E+03  0.7561462E-02  0.1167681E+00
          2   -1    0    0  501    0  0.00000000000E+00  0.00000000000E+00  0.65188919013E+02  0.65188919013E+02  0.00000000000E+00 0. -1.
         -2   -1    0    0    0  501 -0.00000000000E+00 -0.00000000000E+00 -0.64951132488E+03  0.64951132488E+03  0.00000000000E+00 0.  1.
         25    2    1    2    0    0 -0.10146706017E+03 -0.10341481041E+03 -0.13593051278E+03  0.23476408562E+03  0.12508750650E+03 0.  0.
          5    1    3    3  502    0  0.16616180119E+02  0.15524260888E+02 -0.10556127163E+02  0.25416615403E+02  0.41800000000E+01 0. -1.
         -5    1    3    3    0  502 -0.11808324029E+03 -0.11893907130E+03 -0.12537438561E+03  0.20934747022E+03  0.41800000000E+01 0. -1.
        -11    1    1    2    0    0  0.11752525635E+03  0.96185768836E+02 -0.41898584260E+03  0.44566021171E+03  0.00000000000E+00 0.  1.
         11    1    1    2    0    0 -0.16058196180E+02  0.72290415782E+01 -0.29406050488E+02  0.34275946552E+02  0.00000000000E+00 0. -1.
</event>
<event>
 7    1  0.2921331E-009  0.1557005E+03  0.7561462E-02  0.1193638E+00
         -2   -1    0    0    0  501 -0.00000000000E+00  0.00000000000E+00  0.15751973781E+03  0.15751973781E+03  0.00000000000E+00 0.  1.
          2   -1    0    0  501    0  0.00000000000E+00 -0.00000000000E+00 -0.34190279871E+03  0.34190279871E+03  0.00000000000E+00 0. -1.
         25    2    1    2    0    0 -0.92030479425E+02  0.98677450868E+02 -0.26105840266E+03  0.31938300476E+03  0.12508863129E+03 0.  0.
          5    1    3    3  502    0 -0.10985681149E+03  0.45438971693E+02 -0.21859167046E+03  0.24886343639E+03  0.41800000000E+01 0.  1.
         -5    1    3    3    0  502  0.17826332062E+02  0.53238479175E+02 -0.42466732207E+02  0.70519568376E+02  0.41800000000E+01 0.  1.
        -11    1    1    2    0    0  0.35160313927E+02 -0.25335083107E+02 -0.18485546623E+02  0.47115067075E+02  0.00000000000E+00 0. -1.
         11    1    1    2    0    0  0.56870165497E+02 -0.73342367761E+02  0.95160888383E+02  0.13292446468E+03  0.00000000000E+00 0.  1.
</event>
<event>
 7    1  0.3360034E-009  0.1693149E+03  0.7561462E-02  0.1178564E+00
          3   -1    0    0  501    0  0.00000000000E+00  0.00000000000E+00  0.28639519144E+03  0.28639519144E+03  0.00000000000E+00 0. -1.
         -3   -1    0    0    0  501 -0.00000000000E+00 -0.00000000000E+00 -0.15010870583E+03  0.15010870583E+03  0.00000000000E+00 0.  1.
         25    2    1    2    0    0  0.95605482223E+01  0.15254085416E+03 -0.21147262767E+02  0.19862390700E+03  0.12507651033E+03 0.  0.
          5    1    3    3  502    0 -0.17786879525E+02  0.29163223522E+02 -0.57542920370E+02  0.67048689578E+02  0.41800000000E+01 0.  1.
         -5    1    3    3    0  502  0.27347427748E+02  0.12337763064E+03  0.36395657603E+02  0.13157521742E+03  0.41800000000E+01 0.  1.
        -11    1    1    2    0    0 -0.48551399986E+02 -0.10901710066E+03  0.96701197511E+02  0.15360041757E+03  0.00000000000E+00 0.  1.
         11    1    1    2    0    0  0.38990851764E+02 -0.43523753500E+02  0.60732550871E+02  0.84279572705E+02  0.00000000000E+00 0. -1.
</event>
<event>
 7    1  0.6054025E-009  0.9171706E+02  0.7561462E-02  0.1298746E+00
         -2   -1    0    0    0  501 -0.00000000000E+00  0.00000000000E+00  0.25814614840E+02  0.25814614840E+02  0.00000000000E+00 0.  1.
          2   -1    0    0  501    0  0.00000000000E+00 -0.00000000000E+00 -0.61750314559E+03  0.61750314559E+03  0.00000000000E+00 0. -1.
         25    2    1    2    0    0 -0.47653103053E+02 -0.14920177284E+02 -0.22521752932E+03  0.26241898749E+03  0.12508940627E+03 0.  0.
          5    1    3    3  502    0 -0.37900182420E+02 -0.45167131334E+02 -0.33302691804E+02  0.67845672389E+02  0.41800000000E+01 0. -1.
         -5    1    3    3    0  502 -0.97529206324E+01  0.30246954051E+02 -0.19191483751E+03  0.19457331510E+03  0.41800000000E+01 0. -1.
        -11    1    1    2    0    0  0.32513355326E+02 -0.30385598907E+02 -0.90791396339E+02  0.10111122858E+03  0.00000000000E+00 0.  1.
         11    1    1    2    0    0  0.15139747727E+02  0.45305776190E+02 -0.27567960509E+03  0.27978754437E+03  0.00000000000E+00 0. -1.
</event>
<event>
 7    1  0.2841804E-009  0.8783407E+02  0.7561462E-02  0.1308183E+00
         -2   -1    0    0    0  501 -0.00000000000E+00  0.00000000000E+00  0.35775138508E+02  0.35775138508E+02  0.00000000000E+00 0.  1.
          2   -1    0    0  501    0  0.00000000000E+00 -0.00000000000E+00 -0.46596216010E+03  0.46596216010E+03  0.00000000000E+00 0. -1.
         25    2    1    2    0    0  0.66200504108E+02 -0.21617054731E+02 -0.24140844884E+03  0.28066597701E+03  0.12508216371E+03 0.  0.
          5    1    3    3  502    0  0.40816035199E+02  0.42408415736E+01 -0.51037153109E+01  0.41562648816E+02  0.41800000000E+01 0. -1.
         -5    1    3    3    0  502  0.25384468909E+02 -0.25857896304E+02 -0.23630473353E+03  0.23910332819E+03  0.41800000000E+01 0. -1.
        -11    1    1    2    0    0  0.58921960221E+01 -0.15697698854E+02 -0.13534271395E+01  0.16821637504E+02  0.00000000000E+00 0.  1.
         11    1    1    2    0    0 -0.72092700130E+02  0.37314753585E+02 -0.18742514561E+03  0.20424968410E+03  0.00000000000E+00 0. -1.
</event>
<event>
 7    1  0.2841804E-009  0.1113033E+03  0.7561462E-02  0.1258175E+00
         -1   -1    0    0    0  501 -0.00000000000E+00  0.00000000000E+00  0.28594841512E+03  0.28594841512E+03  0.00000000000E+00 0.  1.
          1   -1    0    0  501    0  0.00000000000E+00 -0.00000000000E+00 -0.48704210188E+02  0.48704210188E+02  0.00000000000E+00 0. -1.
         25    2    1    2    0    0 -0.46599156812E+02 -0.79198306104E+01  0.17000569861E+03  0.21629520068E+03  0.12508985229E+03 0.  0.
          5    1    3    3  502    0 -0.37522663393E+02  0.52313120970E+02  0.12423700798E+03  0.13998899759E+03  0.41800000000E+01 0.  1.
         -5    1    3    3    0  502 -0.90764934182E+01 -0.60232951580E+02  0.45768690624E+02  0.76306203091E+02  0.41800000000E+01 0.  1.
        -11    1    1    2    0    0 -0.16164184863E+02 -0.22166582121E+02  0.23748940974E+02  0.36285678065E+02  0.00000000000E+00 0.  1.
         11    1    1    2    0    0  0.62763341675E+02  0.30086412732E+02  0.43489565354E+02  0.82071746563E+02  0.00000000000E+00 0. -1.
</event>
<event>
 7    1  0.2841804E-009  0.1015984E+03  0.7561462E-02  0.1276970E+00
         -1   -1    0    0    0  501 -0.00000000000E+00  0.00000000000E+00  0.57040791773E+02  0.57040791773E+02  0.00000000000E+00 0.  1.
          1   -1    0    0  501    0  0.00000000000E+00 -0.00000000000E+00 -0.26430517981E+03  0.26430517981E+03  0.00000000000E+00 0. -1.
         25    2    1    2    0    0 -0.42978161333E+02 -0.23117199174E+02 -0.81488507133E+02  0.15706270461E+03  0.12508712618E+03 0.  0.
          5    1    3    3  502    0  0.35580994562E+02  0.12993270453E+02  0.10159555602E+00  0.38109250488E+02  0.41800000000E+01 0. -1.
         -5    1    3    3    0  502 -0.78559155895E+02 -0.36110469628E+02 -0.81590102689E+02  0.11895345413E+03  0.41800000000E+01 0. -1.
        -11    1    1    2    0    0 -0.16006359401E+02  0.61751323905E+01 -0.93273599654E+02  0.94838284430E+02  0.00000000000E+00 0. -1.
         11    1    1    2    0    0  0.58984520734E+02  0.16942066784E+02 -0.32502281248E+02  0.69444982536E+02  0.00000000000E+00 0.  1.
</event>
<event>
 7    1  0.2841804E-009  0.1152842E+03  0.7561462E-02  0.1251086E+00
          2   -1    0    0  501    0  0.00000000000E+00  0.00000000000E+00  0.58391727275E+03  0.58391727275E+03  0.00000000000E+00 0. -1.
         -2   -1    0    0    0  501 -0.00000000000E+00 -0.00000000000E+00 -0.33212384460E+02  0.33212384460E+02  0.00000000000E+00 0.  1.
         25    2    1    2    0    0 -0.79442210842E+01  0.41214994518E+02  0.46850490879E+03  0.48673007139E+03  0.12509007318E+03 0.  0.
          5    1    3    3  502    0 -0.28158214946E+02 -0.38175355081E+02  0.21784359187E+03  0.22298777034E+03  0.41800000000E+01 0.  1.
         -5    1    3    3    0  502  0.20213993862E+02  0.79390349599E+02  0.25066131692E+03  0.26374230104E+03  0.41800000000E+01 0.  1.
        -11    1    1    2    0    0 -0.41843747941E+02 -0.13680465384E+02  0.40952503293E+02  0.60126216419E+02  0.00000000000E+00 0.  1.
         11    1    1    2    0    0  0.49787969025E+02 -0.27534529134E+02  0.41247476203E+02  0.70273369403E+02  0.00000000000E+00 0. -1.
</event>
<event>
 7    1  0.2841804E-009  0.1057626E+03  0.7561462E-02  0.1268624E+00
          3   -1    0    0  501    0  0.00000000000E+00  0.00000000000E+00  0.26188016749E+02  0.26188016749E+02  0.00000000000E+00 0. -1.
         -3   -1    0    0    0  501 -0.00000000000E+00 -0.00000000000E+00 -0.52712150007E+03  0.52712150007E+03  0.00000000000E+00 0.  1.
         25    2    1    2    0    0  0.25273549568E+02  0.38839420576E+02 -0.30548372737E+03  0.33334023478E+03  0.12509257185E+03 0.  0.
          5    1    3    3  502    0  0.59653250235E+02  0.45925730152E+02 -0.27943558676E+03  0.28942944304E+03  0.41800000000E+01 0. -1.
         -5    1    3    3    0  502 -0.34379700666E+02 -0.70863095756E+01 -0.26048140618E+02  0.43910791737E+02  0.41800000000E+01 0. -1.
        -11    1    1    2    0    0  0.27408644115E+02 -0.39512703469E+02 -0.99272797792E+02  0.11030673547E+03  0.00000000000E+00 0.  1.
         11    1    1    2    0    0 -0.52682193684E+02  0.67328289260E+00 -0.96176958151E+02  0.10966254657E+03  0.00000000000E+00 0. -1.
</event>
<event>
 7    1  0.2841804E-009  0.1331319E+03  0.7561462E-02  0.1222881E+00
          2   -1    0    0  501    0  0.00000000000E+00  0.00000000000E+00  0.61588713152E+03  0.61588713152E+03  0.00000000000E+00 0.  1.
         -2   -1    0    0    0  501 -0.00000000000E+00 -0.00000000000E+00 -0.52151101100E+02  0.52151101100E+02  0.00000000000E+00 0. -1.
         25    2    1    2    0    0 -0.11367398220E+03  0.19640838059E+02  0.12741758410E+03  0.21257796540E+03  0.12508642567E+03 0.  0.
          5    1    3    3  502    0  0.21424943209E+01 -0.18723829352E+02  0.78876583571E+02  0.81204432781E+02  0.41800000000E+01 0.  1.
         -5    1    3    3    0  502 -0.11581647653E+03  0.38364667411E+02  0.48541000525E+02  0.13137353262E+03  0.41800000000E+01 0.  1.
        -11    1    1    2    0    0  0.99405251501E+02 -0.33591430233E+02  0.40461821225E+03  0.41800201662E+03  0.00000000000E+00 0.  1.
         11    1    1    2    0    0  0.14268730703E+02  0.13950592175E+02  0.31700234067E+02  0.37458250597E+02  0.00000000000E+00 0. -1.
</event>
<event>
 7    1  0.2841804E-009  0.1443035E+03  0.7561462E-02  0.1207653E+00
         -1   -1    0    0    0  501 -0.00000000000E+00  0.00000000000E+00  0.82209002184E+02  0.82209002184E+02  0.00000000000E+00 0.  1.
          1   -1    0    0  501    0  0.00000000000E+00 -0.00000000000E+00 -0.38798709924E+03  0.38798709924E+03  0.00000000000E+00 0. -1.
         25    2    1    2    0    0 -0.93450852120E+02 -0.65502249209E+02 -0.50986208248E+02  0.17683714820E+03  0.12509267420E+03 0.  0.
          5    1    3    3  502    0 -0.10209511852E+03  0.73930118635E+00 -0.26484879902E+02  0.10555984585E+03  0.41800000000E+01 0. -1.
         -5    1    3    3    0  502  0.86442663985E+01 -0.66241550395E+02 -0.24501328347E+02  0.71277302356E+02  0.41800000000E+01 0. -1.
        -11    1    1    2    0    0  0.52344735168E+02  0.15157466679E+02 -0.20318929451E+03  0.21037017255E+03  0.00000000000E+00 0. -1.
         11    1    1    2    0    0  0.41106116952E+02  0.50344782530E+02 -0.51602594296E+02  0.82988780669E+02  0.00000000000E+00 0.  1.
</event>
<event>
 7    1  0.2841804E-009  0.9882122E+02  0.7561462E-02  0.1282794E+00
          3   -1    0    0  501    0  0.00000000000E+00  0.00000000000E+00  0.67446629232E+02  0.67446629232E+02  0.00000000000E+00 0. -1.
         -3   -1    0    0    0  501 -0.00000000000E+00 -0.00000000000E+00 -0.30446721874E+03  0.30446721874E+03  0.00000000000E+00 0.  1.
         25    2    1    2    0    0  0.55972701336E+02  0.29921126423E+02 -0.21960837301E+03  0.26058296779E+03  0.12508968184E+03 0.  0.
          5    1    3    3  502    0 -0.35702969948E+02  0.54039525170E+01 -0.10837965337E+03  0.11431328195E+03  0.41800000000E+01 0. -1.
         -5    1    3    3    0  502  0.91675671284E+02  0.24517173906E+02 -0.11122871964E+03  0.14626968583E+03  0.41800000000E+01 0. -1.
        -11    1    1    2    0    0 -0.41505782552E+01 -0.99217221342E+01  0.33989029468E+02  0.35649992905E+02  0.00000000000E+00 0. -1.
         11    1    1    2    0    0 -0.51822123081E+02 -0.19999404289E+02 -0.51401245964E+02  0.75680887278E+02  0.00000000000E+00 0.  1.
</event>
<event>
 7    1  0.2841804E-009  0.6751898E+02  0.7561462E-02  0.1368739E+00
          1   -1    0    0  501    0  0.00000000000E+00  0.00000000000E+00  0.30244336223E+03  0.30244336223E+03  0.00000000000E+00 0. -1.
         -1   -1    0    0    0  501 -0.00000000000E+00 -0.00000000000E+00 -0.45309413209E+02  0.45309413209E+02  0.00000000000E+00 0.  1.
         25    2    1    2    0    0 -0.76900049731E+01  0.13158981502E+02  0.85614531301E+02  0.15233439774E+03  0.12507448099E+03 0.  0.
          5    1    3    3  502    0  0.19039823923E+02  0.39000548190E+01  0.11180451781E+03  0.11355812575E+03  0.41800000000E+01 0.  1.
         -5    1    3    3    0  502 -0.26729828896E+02  0.92589266827E+01 -0.26189986506E+02  0.38776271988E+02  0.41800000000E+01 0.  1.
        -11    1    1    2    0    0 -0.51902065802E+01 -0.48588569977E+02  0.13222170017E+03  0.14096228351E+03  0.00000000000E+00 0.  1.
         11    1    1    2    0    0  0.12880211553E+02  0.35429588476E+02  0.39297717545E+02  0.54456094181E+02  0.00000000000E+00 0. -1.
</event>
<event>
 7    1  0.2841804E-009  0.1254548E+03  0.7561462E-02  0.1234360E+00
         -1   -1    0    0    0  501 -0.00000000000E+00  0.00000000000E+00  0.71771762298E+02  0.71771762298E+02  0.00000000000E+00 0.  1.
          1   -1    0    0  501    0  0.00000000000E+00 -0.00000000000E+00 -0.35781533379E+03  0.35781533379E+03  0.00000000000E+00 0. -1.
         25    2    1    2    0    0 -0.17436513664E+02 -0.11215194000E+03 -0.11221343328E+03  0.20278584716E+03  0.12509258790E+03 0.  0.
          5    1    3    3  502    0 -0.15165442777E+02 -0.11978712198E+03 -0.36030816305E+02  0.12607393612E+03  0.41800000000E+01 0.  1.
         -5    1    3    3    0  502 -0.22710708875E+01  0.76351819748E+01 -0.76182616970E+02  0.76711911039E+02  0.41800000000E+01 0.  1.
        -11    1    1    2    0    0 -0.14120366734E+02  0.34036588895E+02 -0.38018831862E+01  0.37044951829E+02  0.00000000000E+00 0.  1.
         11    1    1    2    0    0  0.31556880398E+02  0.78115351108E+02 -0.17002825503E+03  0.18975629710E+03  0.00000000000E+00 0. -1.
</event>
<event>
 7    1  0.2841804E-009  0.6841487E+02  0.7561462E-02  0.1365568E+00
         -2   -1    0    0    0  501 -0.00000000000E+00  0.00000000000E+00  0.61345196163E+02  0.61345196163E+02  0.00000000000E+00 0.  1.
          2   -1    0    0  501    0  0.00000000000E+00 -0.00000000000E+00 -0.21455333643E+03  0.21455333643E+03  0.00000000000E+00 0. -1.
         25    2    1    2    0    0  0.26913504482E+02  0.27957984010E+02 -0.81936968851E+02  0.15449406383E+03  0.12509501709E+03 0.  0.
          5    1    3    3  502    0  0.16341705780E+02 -0.15766413875E+02 -0.10234737812E+03  0.10491944225E+03  0.41800000000E+01 0.  1.
         -5    1    3    3    0  502  0.10571798702E+02  0.43724397884E+02  0.20410409270E+02  0.49574621579E+02  0.41800000000E+01 0.  1.
        -11    1    1    2    0    0 -0.33678180941E+02  0.57648348624E+01  0.79135815840E+01  0.35072467349E+02  0.00000000000E+00 0.  1.
         11    1    1    2    0    0  0.67646764591E+01 -0.33722818872E+02 -0.79184753004E+02  0.86332001416E+02  0.00000000000E+00 0. -1.
</event>
<event>
 7    1  0.2841804E-009  0.6821248E+02  0.7561462E-02  0.1366279E+00
          2   -1    0    0  501    0  0.00000000000E+00  0.00000000000E+00  0.11225277102E+04  0.11225277102E+04  0.00000000000E+00 0. -1.
         -2   -1    0    0    0  501 -0.00000000000E+00 -0.00000000000E+00 -0.11474146816E+02  0.11474146816E+02  0.00000000000E+00 0.  1.
         25    2    1    2    0    0 -0.25289777402E+02 -0.20973798510E+02  0.75943979915E+03  0.77037408402E+03  0.12509175724E+03 0.  0.
          5    1    3    3  502    0 -0.20611509025E+02 -0.27968716533E+02  0.76014636658E+03  0.76095141398E+03  0.41800000000E+01 0.  1.
         -5    1    3    3    0  502 -0.46782683772E+01  0.69949180222E+01 -0.70656743223E+00  0.94226700400E+01  0.41800000000E+01 0.  1.
        -11    1    1    2    0    0 -0.20854043131E+02  0.37592970462E+02  0.14274724296E+03  0.14908017278E+03  0.00000000000E+00 0.  1.
         11    1    1    2    0    0  0.46143820533E+02 -0.16619171952E+02  0.20886652128E+03  0.21454760022E+03  0.00000000000E+00 0. -1.
</event>
<event>
 7    1  0.2841804E-009  0.8042143E+02  0.7561462E-02  0.1327860E+00
         -1   -1    0    0    0  501 -0.00000000000E+00  0.00000000000E+00  0.24324997709E+02  0.24324997709E+02  0.00000000000E+00 0.  1.
          1   -1    0    0  501    0  0.00000000000E+00 -0.00000000000E+00 -0.58367302764E+03  0.58367302764E+03  0.00000000000E+00 0. -1.
         25    2    1    2    0    0  0.17748780616E+01 -0.42258810251E+02 -0.26012745311E+03  0.29172459432E+03  0.12509192553E+03 0.  0.
          5    1    3    3  502    0  0.17781064558E+02 -0.21373033862E+01  0.80379338876E+01  0.20070254203E+02  0.41800000000E+01 0.  1.
         -5    1    3    3    0  502 -0.16006186497E+02 -0.40121506865E+02 -0.26816538700E+03  0.27165434012E+03  0.41800000000E+01 0.  1.
        -11    1    1    2    0    0 -0.25240483210E+02 -0.20202912825E+02 -0.13908000581E+03  0.14278826176E+03  0.00000000000E+00 0. -1.
         11    1    1    2    0    0  0.23465605148E+02  0.62461723076E+02 -0.16014057101E+03  0.17348516927E+03  0.00000000000E+00 0.  1.
</event>
<event>
 7    1  0.2841804E-009  0.2622495E+03  0.7561462E-02  0.1105799E+00
         -1   -1    0    0    0  501 -0.00000000000E+00  0.00000000000E+00  0.23331831476E+03  0.23331831476E+03  0.00000000000E+00 0.  1.
          1   -1    0    0  501    0  0.00000000000E+00 -0.00000000000E+00 -0.36018030722E+03  0.36018030722E+03  0.00000000000E+00 0. -1.
         25    2    1    2    0    0 -0.17704416839E+03 -0.16023682628E+03  0.60597588195E+02  0.27629659105E+03  0.12508901022E+03 0.  0.
          5    1    3    3  502    0  0.19014734120E+02 -0.15890635697E+02  0.12594110674E+02  0.28109721453E+02  0.41800000000E+01 0. -1.
         -5    1    3    3    0  502 -0.19605890251E+03 -0.14434619058E+03  0.48003477521E+02  0.24818686960E+03  0.41800000000E+01 0. -1.
        -11    1    1    2    0    0  0.38567791142E+01  0.50919675315E+02 -0.36059778162E+02  0.62513963883E+02  0.00000000000E+00 0.  1.
         11    1    1    2    0    0  0.17318738928E+03  0.10931715096E+03 -0.15139980250E+03  0.25468806704E+03  0.00000000000E+00 0. -1.
</event>
<event>
 7    1  0.2841804E-009  0.1443583E+03  0.7561462E-02  0.1207582E+00
          2   -1    0    0  501    0  0.00000000000E+00  0.00000000000E+00  0.11581238987E+04  0.11581238987E+04  0.00000000000E+00 0. -1.
         -2   -1    0    0    0  501 -0.00000000000E+00 -0.00000000000E+00 -0.22798033782E+02  0.22798033782E+02  0.00000000000E+00 0.  1.
         25    2    1    2    0    0 -0.16162846913E+02  0.12190732157E+03  0.52671032895E+03  0.55515230615E+03  0.12509068605E+03 0.  0.
          5    1    3    3  502    0  0.29113467759E+02  0.41942222405E+02  0.36928658499E+03  0.37282274378E+03  0.41800000000E+01 0.  1.
         -5    1    3    3    0  502 -0.45276314672E+02  0.79965099161E+02  0.15742374395E+03  0.18232956237E+03  0.41800000000E+01 0.  1.
        -11    1    1    2    0    0 -0.30240480689E+02 -0.30283346991E+02  0.17506581262E+03  0.18022099358E+03  0.00000000000E+00 0. -1.
         11    1    1    2    0    0  0.46403327602E+02 -0.91623974575E+02  0.43354972334E+03  0.44554863274E+03  0.00000000000E+00 0.  1.
</event>
<event>
 7    1  0.2841804E-009  0.1214068E+03  0.7561462E-02  0.1240794E+00
         -2   -1    0    0    0  501 -0.00000000000E+00  0.00000000000E+00  0.24751578422E+02  0.24751578422E+02  0.00000000000E+00 0.  1.
          2   -1    0    0  501    0  0.00000000000E+00 -0.00000000000E+00 -0.65883534427E+03  0.65883534427E+03  0.00000000000E+00 0. -1.
         25    2    1    2    0    0 -0.39393136782E+02  0.59833654919E+02 -0.36533457358E+03  0.39274686524E+03  0.12509541965E+03 0.  0.
          5    1    3    3  502    0  0.44739652297E+02  0.11531875620E+02 -0.13630364031E+03  0.14398185790E+03  0.41800000000E+01 0.  1.
         -5    1    3    3    0  502 -0.84132789078E+02  0.48301779299E+02 -0.22903093327E+03  0.24876500734E+03  0.41800000000E+01 0.  1.
        -11    1    1    2    0    0 -0.15486535016E+02 -0.36569754644E+02 -0.48592103568E+02  0.62756451865E+02  0.00000000000E+00 0.  1.
         11    1    1    2    0    0  0.54879671798E+02 -0.23263900275E+02 -0.22015708870E+03  0.22808360559E+03  0.00000000000E+00 0. -1.
</event>
<event>
 7    1  0.2841804E-009  0.1272631E+03  0.7561462E-02  0.1231574E+00
         -2   -1    0    0    0  501 -0.00000000000E+00  0.00000000000E+00  0.15353805620E+02  0.15353805620E+02  0.00000000000E+00 0.  1.
          2   -1    0    0  501    0  0.00000000000E+00 -0.00000000000E+00 -0.16131046379E+04  0.16131046379E+04  0.00000000000E+00 0. -1.
         25    2    1    2    0    0 -0.61392468148E+02 -0.82801755760E+02 -0.11097682581E+04  0.11215430381E+04  0.12509210083E+03 0.  0.
          5    1    3    3  502    0 -0.62864932557E+02  0.13711143791E+01 -0.72065194779E+03  0.72340208871E+03  0.41800000000E+01 0. -1.
         -5    1    3    3    0  502  0.14724644090E+01 -0.84172870139E+02 -0.38911631036E+03  0.39814094942E+03  0.41800000000E+01 0. -1.
        -11    1    1    2    0    0  0.63959246343E+00  0.19389331347E+02 -0.11808559264E+02  0.22711171711E+02  0.00000000000E+00 0.  1.
         11    1    1    2    0    0  0.60752875684E+02  0.63412424413E+02 -0.47617401485E+03  0.48420423365E+03  0.00000000000E+00 0. -1.
</event>
<event>
 7    1  0.2841804E-009  0.8476794E+02  0.7561462E-02  0.1316041E+00
          3   -1    0    0  501    0  0.00000000000E+00  0.00000000000E+00  0.18370623041E+02  0.18370623041E+02  0.00000000000E+00 0. -1.
         -3   -1    0    0    0  501 -0.00000000000E+00 -0.00000000000E+00 -0.85166139544E+03  0.85166139544E+03  0.00000000000E+00 0.  1.
         25    2    1    2    0    0 -0.51106976287E+02 -0.10903832996E+02 -0.57752096217E+03  0.59321895560E+03  0.12508977150E+03 0.  0.
          5    1    3    3  502    0 -0.33566160993E+02 -0.30789271754E+02 -0.55837907522E+03  0.56024934669E+03  0.41800000000E+01 0. -1.
         -5    1    3    3    0  502 -0.17540815295E+02  0.19885438758E+02 -0.19141886952E+02  0.32969608913E+02  0.41800000000E+01 0. -1.
        -11    1    1    2    0    0  0.52439991677E+02  0.41161678581E+02 -0.22032937348E+03  0.23019398195E+03  0.00000000000E+00 0.  1.
         11    1    1    2    0    0 -0.13330153896E+01 -0.30257845585E+02 -0.35440436746E+02  0.46619080924E+02  0.00000000000E+00 0. -1.
</event>
<event>
 7    1  0.2841804E-009  0.1528353E+03  0.7561462E-02  0.1197032E+00
          2   -1    0    0  501    0  0.00000000000E+00  0.00000000000E+00  0.15477850537E+03  0.15477850537E+03  0.00000000000E+00 0. -1.
         -2   -1    0    0    0  501 -0.00000000000E+00 -0.00000000000E+00 -0.17800390517E+03  0.17800390517E+03  0.00000000000E+00 0.  1.
         25    2    1    2    0    0 -0.11271302448E+03 -0.37857783084E+02 -0.51649186535E+02  0.18014685207E+03  0.12509121557E+03 0.  0.
          5    1    3    3  502    0 -0.12661691094E+03 -0.64238741393E+02 -0.37695705735E+02  0.14695882642E+03  0.41800000000E+01 0. -1.
         -5    1    3    3    0  502  0.13903886460E+02  0.26380958309E+02 -0.13953480800E+02  0.33188025648E+02  0.41800000000E+01 0. -1.
        -11    1    1    2    0    0  0.68177537049E+02 -0.91186679773E+01  0.49292402095E+02  0.84623091222E+02  0.00000000000E+00 0.  1.
         11    1    1    2    0    0  0.44535487431E+02  0.46976451061E+02 -0.20868615352E+02  0.68012467252E+02  0.00000000000E+00 0. -1.
</event>
<event>
 7    1  0.2841804E-009  0.1631161E+03  0.7561462E-02  0.1185223E+00
         -2   -1    0    0    0  501 -0.00000000000E+00  0.00000000000E+00  0.90724005440E+02  0.90724005440E+02  0.00000000000E+00 0.  1.
          2   -1    0    0  501    0  0.00000000000E+00 -0.00000000000E+00 -0.33350778886E+03  0.33350778886E+03  0.00000000000E+00 0. -1.
         25    2    1    2    0    0  0.12619037520E+03  0.48362230455E+02 -0.10635112467E+03  0.21264865016E+03  0.12508385415E+03 0.  0.
          5    1    3    3  502    0  0.13293251809E+03  0.18711118458E+02 -0.11900768581E+03  0.17944765811E+03  0.41800000000E+01 0.  1.
         -5    1    3    3    0  502 -0.67421428895E+01  0.29651111997E+02  0.12656561138E+02  0.33200992052E+02  0.41800000000E+01 0.  1.
        -11    1    1    2    0    0 -0.29346205486E+02 -0.56888192289E+02 -0.46194335169E+02  0.78939108178E+02  0.00000000000E+00 0.  1.
         11    1    1    2    0    0 -0.96844169715E+02  0.85259618337E+01 -0.90238323585E+02  0.13264403596E+03  0.00000000000E+00 0. -1.
</event>
<event>
 7    1  0.2841804E-009  0.1666529E+03  0.7561462E-02  0.1181384E+00
          1   -1    0    0  501    0  0.00000000000E+00  0.00000000000E+00  0.55436936154E+02  0.55436936154E+02  0.00000000000E+00 0. -1.
         -1   -1    0    0    0  501 -0.00000000000E+00 -0.00000000000E+00 -0.68649676707E+03  0.68649676707E+03  0.00000000000E+00 0.  1.
         25    2    1    2    0    0 -0.14642003089E+03 -0.54078684361E+01 -0.20060374144E+03  0.27813332209E+03  0.12509281870E+03 0.  0.
          5    1    3    3  502    0 -0.15869864033E+02 -0.25788547833E+02 -0.11880688827E+03  0.12267620341E+03  0.41800000000E+01 0.  1.
         -5    1    3    3    0  502 -0.13055016685E+03  0.20380679397E+02 -0.81796853177E+02  0.15545711868E+03  0.41800000000E+01 0.  1.
        -11    1    1    2    0    0  0.96926676912E+02 -0.38582349679E+02 -0.29762687097E+03  0.31538093273E+03  0.00000000000E+00 0.  1.
         11    1    1    2    0    0  0.49493353976E+02  0.43990218115E+02 -0.13282921850E+03  0.14841944841E+03  0.00000000000E+00 0. -1.
</event>
<event>
 7    1  0.2841804E-009  0.1063900E+03  0.7561462E-02  0.1267405E+00
         -1   -1    0    0    0  501 -0.00000000000E+00  0.00000000000E+00  0.34856582830E+02  0.34856582830E+02  0.00000000000E+00 0. -1.
          1   -1    0    0  501    0  0.00000000000E+00 -0.00000000000E+00 -0.55286332288E+03  0.55286332288E+03  0.00000000000E+00 0.  1.
         25    2    1    2    0    0  0.98797011972E+01 -0.36564995415E+02 -0.11939679961E+03  0.17702663139E+03  0.12509286581E+03 0.  0.
          5    1    3    3  502    0 -0.23248057881E+02 -0.68723595144E+02 -0.34826829357E+02  0.80584025513E+02  0.41800000000E+01 0. -1.
         -5    1    3    3    0  502  0.33127759079E+02  0.32158599729E+02 -0.84569970257E+02  0.96442605872E+02  0.41800000000E+01 0. -1.
        -11    1    1    2    0    0  0.37923822854E+02  0.10723087660E+02 -0.23535226069E+03  0.23862918422E+03  0.00000000000E+00 0.  1.
         11    1    1    2    0    0 -0.47803524052E+02  0.25841907755E+02 -0.16325767975E+03  0.17206409011E+03  0.00000000000E+00 0. -1.
</event>
<event>
 7    1  0.2841804E-009  0.1149062E+03  0.7561462E-02  0.1251745E+00
         -1   -1    0    0    0  501 -0.00000000000E+00  0.00000000000E+00  0.56944756897E+02  0.56944756897E+02  0.00000000000E+00 0.  1.
          1   -1    0    0  501    0  0.00000000000E+00 -0.00000000000E+00 -0.40044493671E+03  0.40044493671E+03  0.00000000000E+00 0. -1.
         25    2    1    2    0    0 -0.54820761156E+02 -0.59097491433E+02 -0.88984516446E+02  0.17339824250E+03  0.12510346513E+03 0.  0.
          5    1    3    3  502    0 -0.40055902801E+02 -0.98535187808E+02 -0.61459261275E+02  0.12291611685E+03  0.41800000000E+01 0.  1.
         -5    1    3    3    0  502 -0.14764858355E+02  0.39437696375E+02 -0.27525255171E+02  0.50482125647E+02  0.41800000000E+01 0.  1.
        -11    1    1    2    0    0  0.43007645926E+02  0.40894988281E+02 -0.25546800539E+03  0.26227077507E+03  0.00000000000E+00 0. -1.
         11    1    1    2    0    0  0.11813115230E+02  0.18202503152E+02  0.95234202268E+00  0.21720676043E+02  0.00000000000E+00 0.  1.
</event>
<event>
 7    1  0.2841804E-009  0.1381815E+03  0.7561462E-02  0.1215797E+00
          1   -1    0    0  501    0  0.00000000000E+00  0.00000000000E+00  0.95066215100E+03  0.95066215100E+03  0.00000000000E+00 0. -1.
         -1   -1    0    0    0  501 -0.00000000000E+00 -0.00000000000E+00 -0.38726294322E+02  0.38726294322E+02  0.00000000000E+00 0.  1.
         25    2    1    2    0    0  0.12392497513E+03  0.42537769357E+02  0.68430412443E+03  0.70787419757E+03  0.12508750373E+03 0.  0.
          5    1    3    3  502    0  0.13048453902E+03  0.36790248845E+02  0.68488380274E+03  0.69818552906E+03  0.41800000000E+01 0.  1.
         -5    1    3    3    0  502 -0.65595638931E+01  0.57475205111E+01 -0.57967831137E+00  0.96886685070E+01  0.41800000000E+01 0.  1.
        -11    1    1    2    0    0 -0.59192766888E+02 -0.21874124407E+02  0.25145157706E+02  0.67930405023E+02  0.00000000000E+00 0. -1.
         11    1    1    2    0    0 -0.64732208240E+02 -0.20663644949E+02  0.20248657454E+03  0.21358384273E+03  0.00000000000E+00 0.  1.
</event>
<event>
 6    1  0.2841804E-009  0.8756605E+02  0.7561462E-02  0.1308855E+00
          2   -1    0    0  501    0  0.00000000000E+00  0.00000000000E+00  0.28523528404E+03  0.28523528404E+03  0.00000000000E+00 0. -1.
         -2   -1    0    0    0  501 -0.00000000000E+00 -0.00000000000E+00 -0.58802465988E+02  0.58802465988E+02  0.00000000000E+00 0.  1.
          5    1    1    2  502    0 -0.32832199593E+01 -0.10593417027E+02  0.11308241050E+03  0.11370182049E+03  0.41800000000E+01 0.  1.
         -5    1    1    2    0  502 -0.63251951497E+02  0.12288393446E+02 -0.47031394995E+01  0.64741068131E+02  0.41800000000E+01 0.  1.
        -11    1    1    2    0    0 -0.57611275159E+01 -0.22703552972E+02  0.75638407321E+02  0.79182135421E+02  0.00000000000E+00 0. -1.
         11    1    1    2    0    0  0.72296298972E+02  0.21008576553E+02  0.42415139723E+02  0.86412725981E+02  0.00000000000E+00 0.  1.
</event>
<event>
 7    1  0.2841804E-009  0.4681146E+03  0.7561462E-02  0.1022454E+00
         -3   -1    0    0    0  501 -0.00000000000E+00  0.00000000000E+00  0.18858225141E+03  0.18858225141E+03  0.00000000000E+00 0.  1.
          3   -1    0    0  501    0  0.00000000000E+00 -0.00000000000E+00 -0.12454300489E+04  0.12454300489E+04  0.00000000000E+00 0. -1.
         25    2    1    2    0    0  0.22946828991E+03  0.40780462031E+03 -0.43889983457E+03  0.65363660744E+03  0.12508974933E+03 0.  0.
          5    1    3    3  502    0  0.96391932388E+02  0.18497927573E+03 -0.28039328060E+03  0.34949478005E+03  0.41800000000E+01 0. -1.
         -5    1    3    3    0  502  0.13307635752E+03  0.22282534458E+03 -0.15850655397E+03  0.30414182739E+03  0.41800000000E+01 0. -1.
        -11    1    1    2    0    0 -0.42343037345E+02 -0.82942283236E+02 -0.18891290382E+03  0.21061918333E+03  0.00000000000E+00 0. -1.
         11    1    1    2    0    0 -0.18712525256E+03 -0.32486233708E+03 -0.42903505908E+03  0.56975650950E+03  0.00000000000E+00 0.  1.
</event>
<event>
 7    1  0.2841804E-009  0.1499876E+03  0.7561462E-02  0.1200488E+00
          2   -1    0    0  501    0  0.00000000000E+00  0.00000000000E+00  0.13644289331E+04  0.13644289331E+04  0.00000000000E+00 0. -1.
         -2   -1    0    0    0  501 -0.00000000000E+00 -0.00000000000E+00 -0.19092454267E+02  0.19092454267E+02  0.00000000000E+00 0.  1.
         25    2    1    2    0    0 -0.79971739233E+02 -0.76456011433E+02  0.91692713558E+03  0.93201235970E+03  0.12510262146E+03 0.  0.
          5    1    3    3  502    0  0.32567172196E+02 -0.13033262493E+02  0.26993990696E+03  0.27224164341E+03  0.41800000000E+01 0.  1.
         -5    1    3    3    0  502 -0.11253891143E+03 -0.63422748940E+02  0.64698722862E+03  0.65977071629E+03  0.41800000000E+01 0.  1.
        -11    1    1    2    0    0  0.56462487273E+02  0.11106482677E+01  0.11236642207E+03  0.12575952774E+03  0.00000000000E+00 0.  1.
         11    1    1    2    0    0  0.23509251960E+02  0.75345363165E+02  0.31604292120E+03  0.32574949995E+03  0.00000000000E+00 0. -1.
</event>
<event>
 7    1  0.2841804E-009  0.3497231E+03  0.7561462E-02  0.1062729E+00
         -2   -1    0    0    0  501 -0.00000000000E+00  0.00000000000E+00  0.13445884014E+03  0.13445884014E+03  0.00000000000E+00 0.  1.
          2   -1    0    0  501    0  0.00000000000E+00 -0.00000000000E+00 -0.93459609532E+03  0.93459609532E+03  0.00000000000E+00 0. -1.
         25    2    1    2    0    0  0.18819944068E+03  0.27433623710E+03 -0.32101616973E+03  0.47893381172E+03  0.12508722684E+03 0.  0.
          5    1    3    3  502    0  0.18641007509E+03  0.17442371505E+03 -0.23534026150E+03  0.34723890847E+03  0.41800000000E+01 0.  1.
         -5    1    3    3    0  502  0.17893655908E+01  0.99912522056E+02 -0.85675908224E+02  0.13169490325E+03  0.41800000000E+01 0.  1.
        -11    1    1    2    0    0 -0.12460441715E+03 -0.24328086163E+03 -0.39176361039E+03  0.47769296084E+03  0.00000000000E+00 0.  1.
         11    1    1    2    0    0 -0.63595023531E+02 -0.31055375475E+02 -0.87357475069E+02  0.11242816290E+03  0.00000000000E+00 0. -1.
</event>
<event>
 7    1  0.2841804E-009  0.1086079E+03  0.7561462E-02  0.1263170E+00
          1   -1    0    0  501    0  0.00000000000E+00  0.00000000000E+00  0.67435553324E+02  0.67435553324E+02  0.00000000000E+00 0. -1.
         -1   -1    0    0    0  501 -0.00000000000E+00 -0.00000000000E+00 -0.23325240337E+03  0.23325240337E+03  0.00000000000E+00 0.  1.
         25    2    1    2    0    0  0.24258822355E+02 -0.58194395499E+02 -0.97759032071E+02  0.17081847153E+03  0.12508814386E+03 0.  0.
          5    1    3    3  502    0 -0.14424853573E+02  0.27005331146E+02 -0.64332581932E+02  0.71368885440E+02  0.41800000000E+01 0. -1.
         -5    1    3    3    0  502  0.38683675929E+02 -0.85199726645E+02 -0.33426450139E+02  0.99449586086E+02  0.41800000000E+01 0. -1.
        -11    1    1    2    0    0 -0.47999467393E+02  0.43164383781E+02 -0.76909258440E+02  0.10040989459E+03  0.00000000000E+00 0.  1.
         11    1    1    2    0    0  0.23740645038E+02  0.15030011718E+02  0.88514404630E+01  0.29459590583E+02  0.00000000000E+00 0. -1.
</event>
<event>
 7    1  0.2841804E-009  0.1457919E+03  0.7561462E-02  0.1205741E+00
          1   -1    0    0  501    0  0.00000000000E+00  0.00000000000E+00  0.10029176393E+04  0.10029176393E+04  0.00000000000E+00 0. -1.
         -1   -1    0    0    0  501 -0.00000000000E+00 -0.00000000000E+00 -0.26737431185E+02  0.26737431185E+02  0.00000000000E+00 0.  1.
         25    2    1    2    0    0  0.84468812184E+02 -0.62793810331E+02  0.72191535154E+03  0.74019412740E+03  0.12509008199E+03 0.  0.
          5    1    3    3  502    0  0.31071163521E+02 -0.92101948645E+02  0.34873317713E+03  0.36205039342E+03  0.41800000000E+01 0. -1.
         -5    1    3    3    0  502  0.53397648663E+02  0.29308138313E+02  0.37318217441E+03  0.37814373399E+03  0.41800000000E+01 0. -1.
        -11    1    1    2    0    0  0.99267110880E+01  0.32679778228E+02  0.10404269889E+03  0.10950520851E+03  0.00000000000E+00 0.  1.
         11    1    1    2    0    0 -0.94395523272E+02  0.30114032104E+02  0.15022215766E+03  0.17995573455E+03  0.00000000000E+00 0. -1.
</event>
<event>
 7    1  0.2841804E-009  0.1035052E+03  0.7561462E-02  0.1273093E+00
          2   -1    0    0  501    0  0.00000000000E+00  0.00000000000E+00  0.83859926957E+03  0.83859926957E+03  0.00000000000E+00 0. -1.
         -2   -1    0    0    0  501 -0.00000000000E+00 -0.00000000000E+00 -0.16159407676E+02  0.16159407676E+02  0.00000000000E+00 0.  1.
         25    2    1    2    0    0 -0.33117385207E+02 -0.26089423115E+02  0.48878899968E+03  0.50629832869E+03  0.12508354099E+03 0.  0.
          5    1    3    3  502    0 -0.18843200598E+02 -0.63641915424E+02  0.13797021080E+03  0.15316204189E+03  0.41800000000E+01 0.  1.
         -5    1    3    3    0  502 -0.14274184609E+02  0.37552492309E+02  0.35081878888E+03  0.35313628680E+03  0.41800000000E+01 0.  1.
        -11    1    1    2    0    0  0.36406570980E+02  0.57758883666E+02  0.21273718283E+03  0.22342478827E+03  0.00000000000E+00 0.  1.
         11    1    1    2    0    0 -0.32891857725E+01 -0.31669460551E+02  0.12091367939E+03  0.12503556029E+03  0.00000000000E+00 0. -1.
</event>
<event>
 7    1  0.2841804E-009  0.1142947E+03  0.7561462E-02  0.1252817E+00
         -2   -1    0    0    0  501 -0.00000000000E+00  0.00000000000E+00  0.22264005709E+02  0.22264005709E+02  0.00000000000E+00 0.  1.
          2   -1    0    0  501    0  0.00000000000E+00 -0.00000000000E+00 -0.11098247021E+04  0.11098247021E+04  0.00000000000E+00 0. -1.
         25    2    1    2    0    0 -0.94280463369E+01 -0.90041775088E+02 -0.83497599864E+03  0.84913434632E+03  0.12509120867E+03 0.  0.
          5    1    3    3  502    0  0.25604346826E+02 -0.86785767559E+02 -0.76837263916E+03  0.77369330941E+03  0.41800000000E+01 0. -1.
         -5    1    3    3    0  502 -0.35032393163E+02 -0.32560075285E+01 -0.66603359483E+02  0.75441036911E+02  0.41800000000E+01 0. -1.
        -11    1    1    2    0    0  0.29269799415E+02  0.51942851470E+02 -0.56226391144E+02  0.81952352240E+02  0.00000000000E+00 0.  1.
         11    1    1    2    0    0 -0.19841753078E+02  0.38098923618E+02 -0.19635830658E+03  0.20100200922E+03  0.00000000000E+00 0. -1.
</event>
<event>
 7    1  0.2841804E-009  0.1235121E+03  0.7561462E-02  0.1237413E+00
         -2   -1    0    0    0  501 -0.00000000000E+00  0.00000000000E+00  0.60427628172E+02  0.60427628172E+02  0.00000000000E+00 0.  1.
          2   -1    0    0  501    0  0.00000000000E+00 -0.00000000000E+00 -0.34451923092E+03  0.34451923092E+03  0.00000000000E+00 0. -1.
         25    2    1    2    0    0 -0.50077620246E+02 -0.21702614106E+02 -0.13468426267E+03  0.19174493952E+03  0.12508996646E+03 0.  0.
          5    1    3    3  502    0  0.20349284710E+02  0.10748281894E+01 -0.11243293875E+03  0.11434109830E+03  0.41800000000E+01 0.  1.
         -5    1    3    3    0  502 -0.70426904955E+02 -0.22777442296E+02 -0.22251323921E+02  0.77403841218E+02  0.41800000000E+01 0.  1.
        -11    1    1    2    0    0  0.43181488191E+02  0.81318351640E+02 -0.91526637327E+02  0.12982465319E+03  0.00000000000E+00 0.  1.
         11    1    1    2    0    0  0.68961320544E+01 -0.59615737534E+02 -0.57880702751E+02  0.83377266386E+02  0.00000000000E+00 0. -1.
</event>
<event>
 7    1  0.2841804E-009  0.9855586E+02  0.7561462E-02  0.1283362E+00
          2   -1    0    0  501    0  0.00000000000E+00  0.00000000000E+00  0.16752120586E+03  0.16752120586E+03  0.00000000000E+00 0. -1.
         -2   -1    0    0    0  501 -0.00000000000E+00 -0.00000000000E+00 -0.13919692733E+03  0.13919692733E+03  0.00000000000E+00 0.  1.
         25    2    1    2    0    0  0.28251129088E+02 -0.82242578668E+02 -0.48902433296E+02  0.16000233742E+03  0.12508929593E+03 0.  0.
          5    1    3    3  502    0  0.75357204608E+01 -0.19457792066E+02 -0.82867737795E+02  0.85556572642E+02  0.41800000000E+01 0. -1.
         -5    1    3    3    0  502  0.20715408628E+02 -0.62784786601E+02  0.33965304499E+02  0.74445764775E+02  0.41800000000E+01 0. -1.
        -11    1    1    2    0    0  0.20487998621E+02  0.40609554547E+02  0.68209964496E+02  0.81984713603E+02  0.00000000000E+00 0. -1.
         11    1    1    2    0    0 -0.48739127710E+02  0.41633024121E+02  0.90167473263E+01  0.64731082176E+02  0.00000000000E+00 0.  1.
</event>
<event>
 7    1  0.2841804E-009  0.1072073E+03  0.7561462E-02  0.1265831E+00
          2   -1    0    0  501    0  0.00000000000E+00  0.00000000000E+00  0.34792638023E+03  0.34792638023E+03  0.00000000000E+00 0. -1.
         -2   -1    0    0    0  501 -0.00000000000E+00 -0.00000000000E+00 -0.36060146149E+02  0.36060146149E+02  0.00000000000E+00 0.  1.
         25    2    1    2    0    0 -0.19675656025E+02  0.18806541768E+02  0.16238565512E+03  0.20677520238E+03  0.12508423513E+03 0.  0.
          5    1    3    3  502    0  0.36020383483E+02  0.51186063650E+02  0.91005095261E+02  0.11053000001E+03  0.41800000000E+01 0. -1.
         -5    1    3    3    0  502 -0.55696039508E+02 -0.32379521882E+02  0.71380559856E+02  0.96245202371E+02  0.41800000000E+01 0. -1.
        -11    1    1    2    0    0  0.40362739677E+02  0.18551801337E+02  0.40307313803E+02  0.59983327960E+02  0.00000000000E+00 0.  1.
         11    1    1    2    0    0 -0.20687083652E+02 -0.37358343105E+02  0.10917326516E+03  0.11722799604E+03  0.00000000000E+00 0. -1.
</event>
<event>
 7    1  0.2841804E-009  0.2958929E+03  0.7561462E-02  0.1087312E+00
          2   -1    0    0  501    0  0.00000000000E+00  0.00000000000E+00  0.67982813454E+03  0.67982813454E+03  0.00000000000E+00 0. -1.
         -2   -1    0    0    0  501 -0.00000000000E+00 -0.00000000000E+00 -0.15561829966E+03  0.15561829966E+03  0.00000000000E+00 0.  1.
         25    2    1    2    0    0  0.26302131577E+03 -0.13323227732E+03  0.15950191623E+03  0.35780133029E+03  0.12509947407E+03 0.  0.
          5    1    3    3  502    0  0.15709582700E+03 -0.84450053429E+02  0.25675545515E+02  0.18024321463E+03  0.41800000000E+01 0.  1.
         -5    1    3    3    0  502  0.10592548877E+03 -0.48782223888E+02  0.13382637071E+03  0.17755811566E+03  0.41800000000E+01 0.  1.
        -11    1    1    2    0    0 -0.16072360108E+03  0.63144771221E+02  0.27450754990E+03  0.32430500001E+03  0.00000000000E+00 0.  1.
         11    1    1    2    0    0 -0.10229771468E+03  0.70087506095E+02  0.90200368759E+02  0.15334010390E+03  0.00000000000E+00 0. -1.
</event>
<event>
 7    1  0.2841804E-009  0.1196568E+03  0.7561462E-02  0.1243664E+00
          3   -1    0    0  501    0  0.00000000000E+00  0.00000000000E+00  0.18298876835E+03  0.18298876835E+03  0.00000000000E+00 0. -1.
         -3   -1    0    0    0  501 -0.00000000000E+00 -0.00000000000E+00 -0.91548916154E+02  0.91548916154E+02  0.00000000000E+00 0.  1.
         25    2    1    2    0    0  0.54175235472E+02  0.16134078553E+02  0.57552137162E+02  0.14884496072E+03  0.12508920501E+03 0.  0.
          5    1    3    3  502    0  0.30623034285E+02 -0.50182720048E+02  0.17987076656E+01  0.58964255015E+02  0.41800000000E+01 0.  1.
         -5    1    3    3    0  502  0.23552201187E+02  0.66316798601E+02  0.55753429496E+02  0.89880705705E+02  0.41800000000E+01 0.  1.
        -11    1    1    2    0    0 -0.46947912488E+02 -0.53869515196E+02  0.46500085005E+02  0.85254261242E+02  0.00000000000E+00 0. -1.
         11    1    1    2    0    0 -0.72273229836E+01  0.37735436643E+02 -0.12612369972E+02  0.40438462539E+02  0.00000000000E+00 0.  1.
</event>
<event>
 7    1  0.2841804E-009  0.1834357E+03  0.7561462E-02  0.1164519E+00
          1   -1    0    0  501    0  0.00000000000E+00  0.00000000000E+00  0.41241418821E+03  0.41241418821E+03  0.00000000000E+00 0. -1.
         -1   -1    0    0    0  501 -0.00000000000E+00 -0.00000000000E+00 -0.13534749711E+03  0.13534749711E+03  0.00000000000E+00 0.  1.
         25    2    1    2    0    0  0.49144956515E+02  0.14668194109E+03 -0.20727020697E+02  0.20001973951E+03  0.12508984057E+03 0.  0.
          5    1    3    3  502    0  0.50057474806E+02 -0.11811696435E+01 -0.12964550832E+02  0.51891212397E+02  0.41800000000E+01 0. -1.
         -5    1    3    3    0  502 -0.91251829131E+00  0.14786311074E+03 -0.77624698654E+01  0.14812852711E+03  0.41800000000E+01 0. -1.
        -11    1    1    2    0    0 -0.18698963630E+02  0.19663918938E+00  0.87235126074E+02  0.89216910555E+02  0.00000000000E+00 0. -1.
         11    1    1    2    0    0 -0.30445992886E+02 -0.14687858028E+03  0.21055858572E+03  0.25852503525E+03  0.00000000000E+00 0.  1.
</event>
<event>
 7    1  0.2841804E-009  0.1918401E+03  0.7561462E-02  0.1156812E+00
          1   -1    0    0  501    0  0.00000000000E+00  0.00000000000E+00  0.48000563282E+03  0.48000563282E+03  0.00000000000E+00 0. -1.
         -1   -1    0    0    0  501 -0.00000000000E+00 -0.00000000000E+00 -0.99058424737E+02  0.99058424737E+02  0.00000000000E+00 0.  1.
         25    2    1    2    0    0 -0.12940136219E+03  0.10871723414E+03  0.84377236050E+02  0.22656358940E+03  0.12508953811E+03 0.  0.
          5    1    3    3  502    0 -0.14530234001E+03  0.69249775289E+02  0.42082178420E+02  0.16642320610E+03  0.41800000000E+01 0.  1.
         -5    1    3    3    0  502  0.15900977819E+02  0.39467458847E+02  0.42295057630E+02  0.60140383299E+02  0.41800000000E+01 0.  1.
        -11    1    1    2    0    0  0.15582954021E+02 -0.48916083974E+02  0.14457434813E+03  0.15341888366E+03  0.00000000000E+00 0. -1.
         11    1    1    2    0    0  0.11381840817E+03 -0.59801150163E+02  0.15199562390E+03  0.19908158449E+03  0.00000000000E+00 0.  1.
</event>
<event>
 7    1  0.2841804E-009  0.1268648E+03  0.7561462E-02  0.1232183E+00
         -1   -1    0    0    0  501 -0.00000000000E+00  0.00000000000E+00  0.36659327157E+03  0.36659327157E+03  0.00000000000E+00 0.  1.
          1   -1    0    0  501    0  0.00000000000E+00 -0.00000000000E+00 -0.56129194640E+02  0.56129194640E+02  0.00000000000E+00 0. -1.
         25    2    1    2    0    0  0.82980568229E+01 -0.93463998724E+02  0.16920783593E+03  0.23039815318E+03  0.12509052898E+03 0.  0.
          5    1    3    3  502    0  0.97707280299E+01 -0.12423533677E+03  0.12702098614E+03  0.17799350929E+03  0.41800000000E+01 0.  1.
         -5    1    3    3    0  502 -0.14726712070E+01  0.30771338046E+02  0.42186849790E+02  0.52404643886E+02  0.41800000000E+01 0.  1.
        -11    1    1    2    0    0 -0.18255524166E+02  0.46741880907E+02  0.13514886637E+03  0.14416408594E+03  0.00000000000E+00 0.  1.
         11    1    1    2    0    0  0.99574673435E+01  0.46722117817E+02  0.61073746272E+01  0.48160227097E+02  0.00000000000E+00 0. -1.
</event>
<event>
 7    1  0.2841804E-009  0.1291374E+03  0.7561462E-02  0.1228741E+00
         -2   -1    0    0    0  501 -0.00000000000E+00  0.00000000000E+00  0.32549689000E+03  0.32549689000E+03  0.00000000000E+00 0.  1.
          2   -1    0    0  501    0  0.00000000000E+00 -0.00000000000E+00 -0.20881736471E+03  0.20881736471E+03  0.00000000000E+00 0. -1.
         25    2    1    2    0    0 -0.33329620108E+02 -0.70383942533E+02 -0.16942217316E+03  0.22453464001E+03  0.12508864401E+03 0.  0.
          5    1    3    3  502    0 -0.46036019630E+02 -0.10123043925E+03 -0.14591935286E+03  0.18351252511E+03  0.41800000000E+01 0. -1.
         -5    1    3    3    0  502  0.12706399521E+02  0.30846496714E+02 -0.23502820305E+02  0.41022114897E+02  0.41800000000E+01 0. -1.
        -11    1    1    2    0    0  0.45844055580E+02  0.83488744934E+02  0.26686176738E+03  0.28335005003E+03  0.00000000000E+00 0. -1.
         11    1    1    2    0    0 -0.12514435471E+02 -0.13104802400E+02  0.19239931074E+02  0.26429564674E+02  0.00000000000E+00 0.  1.
</event>
<event>
 7    1  0.2841804E-009  0.1867046E+03  0.7561462E-02  0.1161468E+00
          3   -1    0    0  501    0  0.00000000000E+00  0.00000000000E+00  0.10639560878E+04  0.10639560878E+04  0.00000000000E+00 0. -1.
         -3   -1    0    0    0  501 -0.00000000000E+00 -0.00000000000E+00 -0.33661336563E+02  0.33661336563E+02  0.00000000000E+00 0.  1.
         25    2    1    2    0    0  0.14645923748E+03  0.47019229236E+02  0.52874860820E+03  0.56469817531E+03  0.12509125616E+03 0.  0.
          5    1    3    3  502    0 -0.74711508782E+00  0.48424283903E+02  0.96543148131E+02  0.10809033862E+03  0.41800000000E+01 0.  1.
         -5    1    3    3    0  502  0.14720635257E+03 -0.14050546668E+01  0.43220546006E+03  0.45660783669E+03  0.41800000000E+01 0.  1.
        -11    1    1    2    0    0 -0.15882225310E+03 -0.43812239582E+02  0.48358373530E+03  0.51087889902E+03  0.00000000000E+00 0.  1.
         11    1    1    2    0    0  0.12363015621E+02 -0.32069896539E+01  0.17962407769E+02  0.22040350059E+02  0.00000000000E+00 0. -1.
</event>
<event>
 7    1  0.2841804E-009  0.1419310E+03  0.7561462E-02  0.1210754E+00
          2   -1    0    0  501    0  0.00000000000E+00  0.00000000000E+00  0.68924167912E+02  0.68924167912E+02  0.00000000000E+00 0. -1.
         -2   -1    0    0    0  501 -0.00000000000E+00 -0.00000000000E+00 -0.31926004284E+03  0.31926004284E+03  0.00000000000E+00 0.  1.
         25    2    1    2    0    0 -0.42715910351E+02  0.91343647646E+02 -0.12416447316E+03  0.20306098334E+03  0.12509450665E+03 0.  0.
          5    1    3    3  502    0  0.17696354655E+02 -0.16623531824E+02  0.39040168500E+01  0.24944268398E+02  0.41800000000E+01 0. -1.
         -5    1    3    3    0  502 -0.60412265006E+02  0.10796717947E+03 -0.12806849001E+03  0.17811671494E+03  0.41800000000E+01 0. -1.
        -11    1    1    2    0    0 -0.28638277498E+02 -0.26572224978E+02 -0.38242606854E+02  0.54669288063E+02  0.00000000000E+00 0.  1.
         11    1    1    2    0    0  0.71354187849E+02 -0.64771422668E+02 -0.87928794908E+02  0.13045393935E+03  0.00000000000E+00 0. -1.
</event>
<event>
 7    1  0.2841804E-009  0.1079653E+03  0.7561462E-02  0.1264385E+00
         -1   -1    0    0    0  501 -0.00000000000E+00  0.00000000000E+00  0.12319026621E+03  0.12319026621E+03  0.00000000000E+00 0.  1.
          1   -1    0    0  501    0  0.00000000000E+00 -0.00000000000E+00 -0.10988358987E+03  0.10988358987E+03  0.00000000000E+00 0. -1.
         25    2    1    2    0    0  0.35100371945E+02  0.29528626127E+02  0.15580573437E+02  0.13415069356E+03  0.12509867482E+03 0.  0.
          5    1    3    3  502    0  0.23930058945E+02  0.74141044808E+02  0.33112842932E+02  0.84755383389E+02  0.41800000000E+01 0. -1.
         -5    1    3    3    0  502  0.11170313001E+02 -0.44612418681E+02 -0.17532269495E+02  0.49395310170E+02  0.41800000000E+01 0. -1.
        -11    1    1    2    0    0  0.19953520295E+02  0.11537480446E+02  0.15747931681E+02  0.27915117400E+02  0.00000000000E+00 0.  1.
         11    1    1    2    0    0 -0.55053892240E+02 -0.41066106573E+02 -0.18021828780E+02  0.71008045124E+02  0.00000000000E+00 0. -1.
</event>
<event>
 6    1  0.2841804E-009  0.1134989E+03  0.7561462E-02  0.1254224E+00
         -2   -1    0    0    0  501 -0.00000000000E+00  0.00000000000E+00  0.21365147672E+02  0.21365147672E+02  0.00000000000E+00 0.  1.
          2   -1    0    0  501    0  0.00000000000E+00 -0.00000000000E+00 -0.64353679953E+03  0.64353679953E+03  0.00000000000E+00 0. -1.
          5    1    1    2  502    0  0.54265001152E+02  0.17478726667E+02 -0.15114713483E+03  0.16159555997E+03  0.41800000000E+01 0.  1.
         -5    1    1    2    0  502 -0.45212842336E+02 -0.59970253222E+02 -0.21676568927E+03  0.22944600416E+03  0.41800000000E+01 0.  1.
        -11    1    1    2    0    0 -0.29611028346E+01 -0.25841166838E+02 -0.31905107893E+02  0.41163939840E+02  0.00000000000E+00 0.  1.
         11    1    1    2    0    0 -0.60910559813E+01  0.68332693392E+02 -0.22235371987E+03  0.23269644322E+03  0.00000000000E+00 0. -1.
</event>
<event>
 7    1  0.2841804E-009  0.1445626E+03  0.7561462E-02  0.1207318E+00
          2   -1    0    0  501    0  0.00000000000E+00  0.00000000000E+00  0.38432689034E+03  0.38432689034E+03  0.00000000000E+00 0.  1.
         -2   -1    0    0    0  501 -0.00000000000E+00 -0.00000000000E+00 -0.73366495868E+02  0.73366495868E+02  0.00000000000E+00 0. -1.
         25    2    1    2    0    0 -0.28869649378E+02  0.11968925871E+03  0.20820273470E+03  0.27231501757E+03  0.12509242482E+03 0.  0.
          5    1    3    3  502    0 -0.63128002599E+02  0.46602097945E+02  0.15987837492E+03  0.17814451272E+03  0.41800000000E+01 0.  1.
         -5    1    3    3    0  502  0.34258353221E+02  0.73087160769E+02  0.48324359779E+02  0.94170504845E+02  0.41800000000E+01 0.  1.
        -11    1    1    2    0    0  0.16909589902E+02 -0.10553049874E+02  0.67016065152E+02  0.69917480510E+02  0.00000000000E+00 0.  1.
         11    1    1    2    0    0  0.11960059476E+02 -0.10913620884E+03  0.35741594620E+02  0.11546088813E+03  0.00000000000E+00 0. -1.
</event>
<event>
 7    1  0.2841804E-009  0.1102645E+03  0.7561462E-02  0.1260081E+00
          1   -1    0    0  501    0  0.00000000000E+00  0.00000000000E+00  0.12994916101E+03  0.12994916101E+03  0.00000000000E+00 0. -1.
         -1   -1    0    0    0  501 -0.00000000000E+00 -0.00000000000E+00 -0.11220769365E+03  0.11220769365E+03  0.00000000000E+00 0.  1.
         25    2    1    2    0    0  0.36690696696E+02  0.37294413434E+02  0.33171474990E+01  0.13563232533E+03  0.12509214088E+03 0.  0.
          5    1    3    3  502    0  0.62046532363E+02  0.61322938676E+02 -0.24582641602E+02  0.90730665457E+02  0.41800000000E+01 0. -1.
         -5    1    3    3    0  502 -0.25355835667E+02 -0.24028525242E+02  0.27899789101E+02  0.44901659876E+02  0.41800000000E+01 0. -1.
        -11    1    1    2    0    0  0.12251368057E+02 -0.46606788484E+02 -0.12650258597E+02  0.49822864175E+02  0.00000000000E+00 0. -1.
         11    1    1    2    0    0 -0.48942064753E+02  0.93123750499E+01  0.27074578460E+02  0.56701665144E+02  0.00000000000E+00 0.  1.
</event>
<event>
 7    1  0.2841804E-009  0.1111267E+03  0.7561462E-02  0.1258498E+00
         -2   -1    0    0    0  501 -0.00000000000E+00  0.00000000000E+00  0.15711084183E+02  0.15711084183E+02  0.00000000000E+00 0.  1.
          2   -1    0    0  501    0  0.00000000000E+00 -0.00000000000E+00 -0.12794655184E+04  0.12794655184E+04  0.00000000000E+00 0. -1.
         25    2    1    2    0    0  0.85054239939E+02 -0.14569089469E+02 -0.83449078072E+03  0.84821523805E+03  0.12509094635E+03 0.  0.
          5    1    3    3  502    0  0.75672250765E+02  0.18070231810E+02 -0.77993479285E+03  0.78381667264E+03  0.41800000000E+01 0.  1.
         -5    1    3    3    0  502  0.93819891736E+01 -0.32639321279E+02 -0.54555987868E+02  0.64398565408E+02  0.41800000000E+01 0.  1.
        -11    1    1    2    0    0 -0.39535699961E+02 -0.27486267247E+02 -0.89876712168E+02  0.10196268851E+03  0.00000000000E+00 0.  1.
         11    1    1    2    0    0 -0.45518539978E+02  0.42055356716E+02 -0.33938694133E+03  0.34499867602E+03  0.00000000000E+00 0. -1.
</event>
<event>
 7    1  0.2841804E-009  0.2194773E+03  0.7561462E-02  0.1134273E+00
          3   -1    0    0  501    0  0.00000000000E+00  0.00000000000E+00  0.14210051492E+03  0.14210051492E+03  0.00000000000E+00 0. -1.
         -3   -1    0    0    0  501 -0.00000000000E+00 -0.00000000000E+00 -0.47894512106E+03  0.47894512106E+03  0.00000000000E+00 0.  1.
         25    2    1    2    0    0 -0.11290136672E+03 -0.17761831844E+03 -0.43793908725E+02  0.24871646222E+03  0.12508791503E+03 0.  0.
          5    1    3    3  502    0  0.63244135047E+01 -0.50061004315E+02 -0.53672861197E+02  0.73785844092E+02  0.41800000000E+01 0.  1.
         -5    1    3    3    0  502 -0.11922578023E+03 -0.12755731413E+03  0.98789524721E+01  0.17493061813E+03  0.41800000000E+01 0.  1.
        -11    1    1    2    0    0  0.86307856283E+02  0.10257179014E+03 -0.24516141667E+03  0.27941749840E+03  0.00000000000E+00 0.  1.
         11    1    1    2    0    0  0.26593510438E+02  0.75046528304E+02 -0.47889280753E+02  0.92911675364E+02  0.00000000000E+00 0. -1.
</event>
<event>
 7    1  0.2841804E-009  0.1140103E+03  0.7561462E-02  0.1253319E+00
          3   -1    0    0  501    0  0.00000000000E+00  0.00000000000E+00  0.46104685818E+02  0.46104685818E+02  0.00000000000E+00 0. -1.
         -3   -1    0    0    0  501 -0.00000000000E+00 -0.00000000000E+00 -0.33367867883E+03  0.33367867883E+03  0.00000000000E+00 0.  1.
         25    2    1    2    0    0 -0.52785846589E+02 -0.14652677526E+02 -0.12009968091E+03  0.18185688568E+03  0.12508775701E+03 0.  0.
          5    1    3    3  502    0 -0.72233633162E+02  0.26355379603E+02 -0.11145003402E+03  0.13546544311E+03  0.41800000000E+01 0. -1.
         -5    1    3    3    0  502  0.19447786572E+02 -0.41008057129E+02 -0.86496468903E+01  0.46391442566E+02  0.41800000000E+01 0. -1.
        -11    1    1    2    0    0  0.76072780761E+02  0.24831937472E+02 -0.12962485165E+03  0.15233612591E+03  0.00000000000E+00 0.  1.
         11    1    1    2    0    0 -0.23286934172E+02 -0.10179259945E+02 -0.37849460452E+02  0.45590353066E+02  0.00000000000E+00 0. -1.
</event>
<event>
 7    1  0.2841804E-009  0.1154115E+03  0.7561462E-02  0.1250864E+00
          1   -1    0    0  501    0  0.00000000000E+00  0.00000000000E+00  0.23475409771E+03  0.23475409771E+03  0.00000000000E+00 0. -1.
         -1   -1    0    0    0  501 -0.00000000000E+00 -0.00000000000E+00 -0.64783556260E+02  0.64783556260E+02  0.00000000000E+00 0.  1.
         25    2    1    2    0    0  0.27960257045E+02  0.59028501983E+02  0.10168893618E+03  0.17393958397E+03  0.12509276203E+03 0.  0.
          5    1    3    3  502    0 -0.27244334084E+02 -0.18014936153E+02 -0.25063444818E+01  0.33023413315E+02  0.41800000000E+01 0. -1.
         -5    1    3    3    0  502  0.55204591130E+02  0.77043438137E+02  0.10419528066E+03  0.14091617066E+03  0.41800000000E+01 0. -1.
        -11    1    1    2    0    0  0.25896199041E+02 -0.43211406380E+01  0.64744322947E+01  0.27040777628E+02  0.00000000000E+00 0.  1.
         11    1    1    2    0    0 -0.53856456086E+02 -0.54707361345E+02  0.61807172980E+02  0.98557292370E+02  0.00000000000E+00 0. -1.
</event>
<event>
 7    1  0.2841804E-009  0.1102967E+03  0.7561462E-02  0.1260021E+00
         -4   -1    0    0    0  501 -0.00000000000E+00  0.00000000000E+00  0.30815038647E+02  0.30815038647E+02  0.00000000000E+00 0.  1.
          4   -1    0    0  501    0  0.00000000000E+00 -0.00000000000E+00 -0.46784541327E+03  0.46784541327E+03  0.00000000000E+00 0. -1.
         25    2    1    2    0    0 -0.25884471365E+02  0.42933155880E+02 -0.23252127218E+03  0.26875178219E+03  0.12509243254E+03 0.  0.
          5    1    3    3  502    0 -0.45750278948E+02  0.78205699629E+02 -0.18603495044E+03  0.20696785902E+03  0.41800000000E+01 0. -1.
         -5    1    3    3    0  502  0.19865807583E+02 -0.35272543749E+02 -0.46486321740E+02  0.61783923170E+02  0.41800000000E+01 0. -1.
        -11    1    1    2    0    0 -0.12139379579E+02 -0.49184714947E+02 -0.17258936217E+03  0.17987103339E+03  0.00000000000E+00 0. -1.
         11    1    1    2    0    0  0.38023850945E+02  0.62515590670E+01 -0.31919740274E+02  0.50037636341E+02  0.00000000000E+00 0.  1.
</event>
<event>
 7    1  0.2841804E-009  0.9269059E+02  0.7561462E-02  0.1296464E+00
          2   -1    0    0  501    0  0.00000000000E+00  0.00000000000E+00  0.10587761680E+04  0.10587761680E+04  0.00000000000E+00 0. -1.
         -2   -1    0    0    0  501 -0.00000000000E+00 -0.00000000000E+00 -0.16884752725E+02  0.16884752725E+02  0.00000000000E+00 0.  1.
         25    2    1    2    0    0  0.62692625519E+02 -0.17104674040E+01  0.76708075919E+03  0.77974222944E+03  0.12510700320E+03 0.  0.
          5    1    3    3  502    0  0.69060579560E+02 -0.10084399072E+02  0.18847528118E+03  0.20102602511E+03  0.41800000000E+01 0.  1.
         -5    1    3    3    0  502 -0.63679540403E+01  0.83739316683E+01  0.57860547801E+03  0.57871620433E+03  0.41800000000E+01 0.  1.
        -11    1    1    2    0    0  0.99612769288E+01 -0.24861156987E+02  0.35862236145E+02  0.44759402879E+02  0.00000000000E+00 0.  1.
         11    1    1    2    0    0 -0.72653902448E+02  0.26571624391E+02  0.23894841995E+03  0.25115928842E+03  0.00000000000E+00 0. -1.
</event>
<event>
 7    1  0.3882927E-009  0.1026277E+03  0.7561462E-02  0.1274865E+00
          1   -1    0    0  501    0  0.00000000000E+00  0.00000000000E+00  0.48534612954E+03  0.48534612954E+03  0.00000000000E+00 0. -1.
         -1   -1    0    0    0  501 -0.00000000000E+00 -0.00000000000E+00 -0.44677327092E+02  0.44677327092E+02  0.00000000000E+00 0.  1.
         25    2    1    2    0    0  0.69397382574E+02 -0.26473195957E+02  0.35944437411E+03  0.38776834164E+03  0.12508877601E+03 0.  0.
          5    1    3    3  502    0 -0.38640624868E+01  0.11070647844E+02 -0.55158343601E+01  0.13615691362E+02  0.41800000000E+01 0.  1.
         -5    1    3    3    0  502  0.73261445061E+02 -0.37543843801E+02  0.36496020847E+03  0.37415265027E+03  0.41800000000E+01 0.  1.
        -11    1    1    2    0    0 -0.44618928055E+02 -0.26501961682E+02  0.15249237832E+02  0.54090128196E+02  0.00000000000E+00 0.  1.
         11    1    1    2    0    0 -0.24778454519E+02  0.52975157639E+02  0.65975190504E+02  0.88164986799E+02  0.00000000000E+00 0. -1.
</event>
<event>
 7    1  0.2841804E-009  0.9337004E+02  0.7561462E-02  0.1294890E+00
         -1   -1    0    0    0  501 -0.00000000000E+00  0.00000000000E+00  0.27984051622E+02  0.27984051622E+02  0.00000000000E+00 0.  1.
          1   -1    0    0  501    0  0.00000000000E+00 -0.00000000000E+00 -0.46645197958E+03  0.46645197958E+03  0.00000000000E+00 0. -1.
         25    2    1    2    0    0  0.25071593793E+02  0.10317280086E+02 -0.23567630497E+03  0.26818953665E+03  0.12508907131E+03 0.  0.
          5    1    3    3  502    0 -0.26031256241E+02  0.34803257023E+02 -0.19094904517E+03  0.19587726579E+03  0.41800000000E+01 0. -1.
         -5    1    3    3    0  502  0.51102850034E+02 -0.24485976937E+02 -0.44727259792E+02  0.72312270858E+02  0.41800000000E+01 0. -1.
        -11    1    1    2    0    0 -0.53165849992E+02  0.64260338384E+01 -0.17600470800E+03  0.18397162486E+03  0.00000000000E+00 0. -1.
         11    1    1    2    0    0  0.28094256199E+02 -0.16743313924E+02 -0.26786914989E+02  0.42274869688E+02  0.00000000000E+00 0.  1.
</event>
<event>
 7    1  0.2841804E-009  0.2034039E+03  0.7561462E-02  0.1146899E+00
         -1   -1    0    0    0  501 -0.00000000000E+00  0.00000000000E+00  0.89653174620E+03  0.89653174620E+03  0.00000000000E+00 0.  1.
          1   -1    0    0  501    0  0.00000000000E+00 -0.00000000000E+00 -0.83449594413E+02  0.83449594413E+02  0.00000000000E+00 0. -1.
         25    2    1    2    0    0 -0.16885220208E+03 -0.75503755982E+02  0.11206713340E+03  0.24983688701E+03  0.12509014513E+03 0.  0.
          5    1    3    3  502    0 -0.29098830593E+02 -0.64569936440E+02  0.78151072444E+02  0.10555132002E+03  0.41800000000E+01 0. -1.
         -5    1    3    3    0  502 -0.13975337148E+03 -0.10933819542E+02  0.33916060958E+02  0.14428556699E+03  0.41800000000E+01 0. -1.
        -11    1    1    2    0    0  0.41344823880E+02  0.51209990632E+02  0.34460608248E+03  0.35083501776E+03  0.00000000000E+00 0.  1.
         11    1    1    2    0    0  0.12750737820E+03  0.24293765350E+02  0.35640893590E+03  0.37930943585E+03  0.00000000000E+00 0. -1.
</event>
<event>
 7    1  0.2841804E-009  0.2158338E+03  0.7561462E-02  0.1137028E+00
         -2   -1    0    0    0  501 -0.00000000000E+00  0.00000000000E+00  0.22705939157E+03  0.22705939157E+03  0.00000000000E+00 0.  1.
          2   -1    0    0  501    0  0.00000000000E+00 -0.00000000000E+00 -0.23699730055E+03  0.23699730055E+03  0.00000000000E+00 0. -1.
         25    2    1    2    0    0 -0.10721106817E+03 -0.17346309926E+03  0.12547324244E+02  0.23955936184E+03  0.12509033758E+03 0.  0.
          5    1    3    3  502    0 -0.55024277977E+02 -0.42802407459E+02 -0.49633337643E+02  0.85677639188E+02  0.41800000000E+01 0. -1.
         -5    1    3    3    0  502 -0.52186790193E+02 -0.13066069180E+03  0.62180661888E+02  0.15388172265E+03  0.41800000000E+01 0. -1.
        -11    1    1    2    0    0  0.84398627578E+02  0.55706031062E+02 -0.26304098438E+02  0.10449017097E+03  0.00000000000E+00 0. -1.
         11    1    1    2    0    0  0.22812440592E+02  0.11775706820E+03  0.38188652147E+01  0.12000715932E+03  0.00000000000E+00 0.  1.
</event>
<event>
 7    1  0.2841804E-009  0.6870413E+02  0.7561462E-02  0.1364556E+00
         -1   -1    0    0    0  501 -0.00000000000E+00  0.00000000000E+00  0.30516614083E+02  0.30516614083E+02  0.00000000000E+00 0.  1.
          1   -1    0    0  501    0  0.00000000000E+00 -0.00000000000E+00 -0.39890120100E+03  0.39890120100E+03  0.00000000000E+00 0. -1.
         25    2    1    2    0    0  0.12190172206E+02  0.11717445070E+01 -0.23747232201E+03  0.26868448995E+03  0.12509307789E+03 0.  0.
          5    1    3    3  502    0 -0.33584255883E+02  0.23200049630E+02 -0.20310883578E+03  0.20721200766E+03  0.41800000000E+01 0.  1.
         -5    1    3    3    0  502  0.45774428089E+02 -0.22028305123E+02 -0.34363486233E+02  0.61472482295E+02  0.41800000000E+01 0.  1.
        -11    1    1    2    0    0 -0.23659434991E+02 -0.14556712115E+02 -0.13870609750E+03  0.14146041218E+03  0.00000000000E+00 0. -1.
         11    1    1    2    0    0  0.11469262785E+02  0.13384967608E+02  0.77938325978E+01  0.19272912942E+02  0.00000000000E+00 0.  1.
</event>
<event>
 7    1  0.2841804E-009  0.9502312E+02  0.7561462E-02  0.1291124E+00
          1   -1    0    0  501    0  0.00000000000E+00  0.00000000000E+00  0.97167862989E+03  0.97167862989E+03  0.00000000000E+00 0. -1.
         -1   -1    0    0    0  501 -0.00000000000E+00 -0.00000000000E+00 -0.12426464408E+02  0.12426464408E+02  0.00000000000E+00 0.  1.
         25    2    1    2    0    0  0.10567770541E+02  0.94675201868E+01  0.62975642889E+03  0.64221580341E+03  0.12508663681E+03 0.  0.
          5    1    3    3  502    0 -0.43210299973E+02  0.12901858023E+02  0.10081746355E+03  0.11052249238E+03  0.41800000000E+01 0.  1.
         -5    1    3    3    0  502  0.53778070514E+02 -0.34343378359E+01  0.52893896534E+03  0.53169331103E+03  0.41800000000E+01 0.  1.
        -11    1    1    2    0    0 -0.44061960362E+02  0.17796578187E+02  0.15448809354E+03  0.16163151175E+03  0.00000000000E+00 0.  1.
         11    1    1    2    0    0  0.33494189821E+02 -0.27264098374E+02  0.17500764305E+03  0.18025777914E+03  0.00000000000E+00 0. -1.
</event>
<event>
 7    1  0.3054476E-009  0.2013422E+03  0.7561462E-02  0.1148612E+00
         -2   -1    0    0    0  501 -0.00000000000E+00  0.00000000000E+00  0.82691743881E+02  0.82691743881E+02  0.00000000000E+00 0.  1.
          2   -1    0    0  501    0  0.00000000000E+00 -0.00000000000E+00 -0.53875279781E+03  0.53875279781E+03  0.00000000000E+00 0. -1.
         25    2    1    2    0    0 -0.17681789812E+03  0.10642687665E+02 -0.28954143823E+03  0.36174548390E+03  0.12509082611E+03 0.  0.
          5    1    3    3  502    0  0.13289846330E+02  0.21937143485E+02 -0.28187679213E+02  0.38338961112E+02  0.41800000000E+01 0. -1.
         -5    1    3    3    0  502 -0.19010774445E+03 -0.11294455820E+02 -0.26135375902E+03  0.32340652279E+03  0.41800000000E+01 0. -1.
        -11    1    1    2    0    0  0.10345642592E+03 -0.34512713118E+02 -0.14138411110E+03  0.17856042759E+03  0.00000000000E+00 0.  1.
         11    1    1    2    0    0  0.73361472202E+02  0.23870025454E+02 -0.25135504605E+02  0.81138630199E+02  0.00000000000E+00 0. -1.
</event>
<event>
 7    1  0.2841804E-009  0.1226057E+03  0.7561462E-02  0.1238859E+00
          3   -1    0    0  501    0  0.00000000000E+00  0.00000000000E+00  0.21487235233E+02  0.21487235233E+02  0.00000000000E+00 0. -1.
         -3   -1    0    0    0  501 -0.00000000000E+00 -0.00000000000E+00 -0.87346362133E+03  0.87346362133E+03  0.00000000000E+00 0.  1.
         25    2    1    2    0    0  0.66635108402E+02 -0.19090382152E+01 -0.38758401130E+03  0.41269028992E+03  0.12509207601E+03 0.  0.
          5    1    3    3  502    0  0.22006749303E+02 -0.59732720167E+02 -0.23448336719E+03  0.24300661876E+03  0.41800000000E+01 0.  1.
         -5    1    3    3    0  502  0.44628359099E+02  0.57823681952E+02 -0.15310064411E+03  0.16968367116E+03  0.41800000000E+01 0.  1.
        -11    1    1    2    0    0 -0.51508298953E+02  0.41324067844E+02 -0.39897472171E+03  0.40440278437E+03  0.00000000000E+00 0.  1.
         11    1    1    2    0    0 -0.15126809449E+02 -0.39415029629E+02 -0.65417653087E+02  0.77857782271E+02  0.00000000000E+00 0. -1.
</event>
<event>
 7    1  0.2841804E-009  0.1386043E+03  0.7561462E-02  0.1215219E+00
          2   -1    0    0  501    0  0.00000000000E+00  0.00000000000E+00  0.14898083950E+04  0.14898083950E+04  0.00000000000E+00 0. -1.
         -2   -1    0    0    0  501 -0.00000000000E+00 -0.00000000000E+00 -0.24060382194E+02  0.24060382194E+02  0.00000000000E+00 0.  1.
         25    2    1    2    0    0  0.54422343757E+02  0.12152769068E+03  0.10913108401E+04  0.11064977410E+04  0.12508848853E+03 0.  0.
          5    1    3    3  502    0  0.51957528349E+02  0.76695981480E+02  0.30239665797E+03  0.31629585751E+03  0.41800000000E+01 0.  1.
         -5    1    3    3    0  502  0.24648154076E+01  0.44831709204E+02  0.78891418214E+03  0.79020188347E+03  0.41800000000E+01 0.  1.
        -11    1    1    2    0    0  0.19183237115E+01 -0.41319536493E+02  0.22421805261E+03  0.22800157714E+03  0.00000000000E+00 0. -1.
         11    1    1    2    0    0 -0.56340667468E+02 -0.80208154192E+02  0.15021912013E+03  0.17936945911E+03  0.00000000000E+00 0.  1.
</event>
<event>
 7    1  0.2841804E-009  0.6449119E+02  0.7561462E-02  0.1379896E+00
         -3   -1    0    0    0  501 -0.00000000000E+00  0.00000000000E+00  0.11736708757E+03  0.11736708757E+03  0.00000000000E+00 0.  1.
          3   -1    0    0  501    0  0.00000000000E+00 -0.00000000000E+00 -0.12122976364E+03  0.12122976364E+03  0.00000000000E+00 0. -1.
         25    2    1    2    0    0 -0.36079004753E+01 -0.49343178063E+02  0.23788004236E+01  0.13453648931E+03  0.12508653843E+03 0.  0.
          5    1    3    3  502    0 -0.21800194498E+02 -0.49138044864E+02  0.56012211160E+02  0.77747258037E+02  0.41800000000E+01 0.  1.
         -5    1    3    3    0  502  0.18192294023E+02 -0.20513319901E+00 -0.53633410736E+02  0.56789231273E+02  0.41800000000E+01 0.  1.
        -11    1    1    2    0    0  0.14734936996E+02  0.18783046577E+02 -0.46521672035E+02  0.52289455686E+02  0.00000000000E+00 0. -1.
         11    1    1    2    0    0 -0.11127036521E+02  0.30560131486E+02  0.40280195537E+02  0.51770906218E+02  0.00000000000E+00 0.  1.
</event>
<event>
 7    1  0.2841804E-009  0.9889969E+02  0.7561462E-02  0.1282627E+00
          1   -1    0    0  501    0  0.00000000000E+00  0.00000000000E+00  0.10689900791E+03  0.10689900791E+03  0.00000000000E+00 0. -1.
         -1   -1    0    0    0  501 -0.00000000000E+00 -0.00000000000E+00 -0.15972788077E+03  0.15972788077E+03  0.00000000000E+00 0.  1.
         25    2    1    2    0    0 -0.34827496436E+02 -0.41759307191E+02  0.19202166196E+02  0.13774275279E+03  0.12509016154E+03 0.  0.
          5    1    3    3  502    0 -0.19828882538E+02  0.19415344972E+02  0.57447232773E+02  0.63935883168E+02  0.41800000000E+01 0.  1.
         -5    1    3    3    0  502 -0.14998613898E+02 -0.61174652163E+02 -0.38245066577E+02  0.73806869623E+02  0.41800000000E+01 0.  1.
        -11    1    1    2    0    0  0.66430514158E+02  0.26583844844E+02 -0.44005100424E+02  0.84000969526E+02  0.00000000000E+00 0.  1.
         11    1    1    2    0    0 -0.31603017722E+02  0.15175462346E+02 -0.28025938634E+02  0.44883166364E+02  0.00000000000E+00 0. -1.
</event>
<event>
 7    1  0.2841804E-009  0.1245002E+03  0.7561462E-02  0.1235852E+00
         -1   -1    0    0    0  501 -0.00000000000E+00  0.00000000000E+00  0.21999176163E+02  0.21999176163E+02  0.00000000000E+00 0.  1.
          1   -1    0    0  501    0  0.00000000000E+00 -0.00000000000E+00 -0.11015610087E+04  0.11015610087E+04  0.00000000000E+00 0. -1.
         25    2    1    2    0    0  0.12341942026E+02 -0.10456204269E+03 -0.70212279040E+03  0.72090871150E+03  0.12508962076E+03 0.  0.
          5    1    3    3  502    0 -0.31087427304E+02 -0.40375681820E+02 -0.87017149114E+02  0.10092611386E+03  0.41800000000E+01 0.  1.
         -5    1    3    3    0  502  0.43429369330E+02 -0.64186360865E+02 -0.61510564129E+03  0.61998259765E+03  0.41800000000E+01 0.  1.
        -11    1    1    2    0    0 -0.26396844709E+02  0.10275400031E+03 -0.37301169476E+03  0.38780523774E+03  0.00000000000E+00 0. -1.
         11    1    1    2    0    0  0.14054902683E+02  0.18080423708E+01 -0.44273473499E+01  0.14846235590E+02  0.00000000000E+00 0.  1.
</event>
<event>
 7    1  0.2841804E-009  0.1106000E+03  0.7561462E-02  0.1259463E+00
          1   -1    0    0  501    0  0.00000000000E+00  0.00000000000E+00  0.10760180494E+04  0.10760180494E+04  0.00000000000E+00 0. -1.
         -1   -1    0    0    0  501 -0.00000000000E+00 -0.00000000000E+00 -0.17432195027E+02  0.17432195027E+02  0.00000000000E+00 0.  1.
         25    2    1    2    0    0  0.33597859310E+02  0.48981797540E+02  0.81991161115E+03  0.83152329133E+03  0.12509157163E+03 0.  0.
          5    1    3    3  502    0 -0.24948340300E+02  0.48443770672E+02  0.16141330891E+03  0.17041404665E+03  0.41800000000E+01 0. -1.
         -5    1    3    3    0  502  0.58546199610E+02  0.53802686745E+00  0.65849830223E+03  0.66110924468E+03  0.41800000000E+01 0. -1.
        -11    1    1    2    0    0 -0.12743284157E+02  0.26573517624E+02  0.68385122361E+02  0.74465213961E+02  0.00000000000E+00 0. -1.
         11    1    1    2    0    0 -0.20854575152E+02 -0.75555315163E+02  0.17028912087E+03  0.18746173914E+03  0.00000000000E+00 0.  1.
</event>
<event>
 7    1  0.2841804E-009  0.7633026E+02  0.7561462E-02  0.1339800E+00
          2   -1    0    0  501    0  0.00000000000E+00  0.00000000000E+00  0.69226044364E+03  0.69226044364E+03  0.00000000000E+00 0. -1.
         -2   -1    0    0    0  501 -0.00000000000E+00 -0.00000000000E+00 -0.21491110757E+02  0.21491110757E+02  0.00000000000E+00 0.  1.
         25    2    1    2    0    0 -0.47667167077E+02  0.15814465897E+02  0.47233042126E+03  0.49118749657E+03  0.12508746457E+03 0.  0.
          5    1    3    3  502    0 -0.26662056076E+02 -0.13371414037E+02  0.17328609700E+02  0.34747849742E+02  0.41800000000E+01 0.  1.
         -5    1    3    3    0  502 -0.21005111000E+02  0.29185879934E+02  0.45500181156E+03  0.45643964683E+03  0.41800000000E+01 0.  1.
        -11    1    1    2    0    0  0.40161874843E+02 -0.42586391282E+02  0.70478015199E+02  0.91617288432E+02  0.00000000000E+00 0.  1.
         11    1    1    2    0    0  0.75052922339E+01  0.26771925385E+02  0.12796089643E+03  0.13094676940E+03  0.00000000000E+00 0. -1.
</event>
<event>
 7    1  0.2841804E-009  0.1296379E+03  0.7561462E-02  0.1227994E+00
         -2   -1    0    0    0  501 -0.00000000000E+00  0.00000000000E+00  0.80045064819E+02  0.80045064819E+02  0.00000000000E+00 0.  1.
          2   -1    0    0  501    0  0.00000000000E+00 -0.00000000000E+00 -0.46472080269E+03  0.46472080269E+03  0.00000000000E+00 0. -1.
         25    2    1    2    0    0 -0.37128386037E+02  0.71429568047E+02 -0.80945877818E+01  0.14897539320E+03  0.12508974852E+03 0.  0.
          5    1    3    3  502    0 -0.15378720690E+02  0.10581898912E+03 -0.12912103970E+02  0.10778848889E+03  0.41800000000E+01 0.  1.
         -5    1    3    3    0  502 -0.21749665347E+02 -0.34389421071E+02  0.48175161882E+01  0.41186904309E+02  0.41800000000E+01 0.  1.
        -11    1    1    2    0    0  0.54176425458E+02 -0.20962679478E+02 -0.11498316861E+03  0.12882409740E+03  0.00000000000E+00 0. -1.
         11    1    1    2    0    0 -0.17048039421E+02 -0.50466888569E+02 -0.26159798148E+03  0.26696637691E+03  0.00000000000E+00 0.  1.
</event>
<event>
 7    1  0.3468587E-009  0.1014183E+03  0.7561462E-02  0.1277341E+00
         -1   -1    0    0    0  501 -0.00000000000E+00  0.00000000000E+00  0.18903535340E+03  0.18903535340E+03  0.00000000000E+00 0.  1.
          1   -1    0    0  501    0  0.00000000000E+00 -0.00000000000E+00 -0.11891561915E+03  0.11891561915E+03  0.00000000000E+00 0. -1.
         25    2    1    2    0    0 -0.13327483835E+02 -0.98633208830E+02  0.66964171605E+02  0.17330597099E+03  0.12507848573E+03 0.  0.
          5    1    3    3  502    0  0.40849886972E+01 -0.62410937370E+02  0.10206843482E+03  0.11978000677E+03  0.41800000000E+01 0.  1.
         -5    1    3    3    0  502 -0.17412472533E+02 -0.36222271461E+02 -0.35104263216E+02  0.53525964217E+02  0.41800000000E+01 0.  1.
        -11    1    1    2    0    0  0.11611720844E+02  0.62351535748E+02 -0.42467826011E+02  0.76328646766E+02  0.00000000000E+00 0. -1.
         11    1    1    2    0    0  0.17157629915E+01  0.36281673083E+02  0.45623388658E+02  0.58316354798E+02  0.00000000000E+00 0.  1.
</event>
<event>
 7    1  0.2841804E-009  0.1783892E+03  0.7561462E-02  0.1169371E+00
          2   -1    0    0  501    0  0.00000000000E+00  0.00000000000E+00  0.69865137107E+03  0.69865137107E+03  0.00000000000E+00 0. -1.
         -2   -1    0    0    0  501 -0.00000000000E+00 -0.00000000000E+00 -0.60456220078E+02  0.60456220078E+02  0.00000000000E+00 0.  1.
         25    2    1    2    0    0 -0.13258056918E+03 -0.76023577599E+02  0.48872853556E+03  0.52712397420E+03  0.12508761340E+03 0.  0.
          5    1    3    3  502    0  0.61891637838E+01  0.21602487938E+02  0.10624119345E+03  0.10867215291E+03  0.41800000000E+01 0. -1.
         -5    1    3    3    0  502 -0.13876973297E+03 -0.97626065537E+02  0.38248734212E+03  0.41845182129E+03  0.41800000000E+01 0. -1.
        -11    1    1    2    0    0  0.23778862303E+02 -0.97039135547E+01 -0.31552323861E+01  0.25875774811E+02  0.00000000000E+00 0.  1.
         11    1    1    2    0    0  0.10880170688E+03  0.85727491154E+02  0.15262184781E+03  0.20610784213E+03  0.00000000000E+00 0. -1.
</event>
<event>
 6    1  0.2841804E-009  0.1316672E+03  0.7561462E-02  0.1225003E+00
         -1   -1    0    0    0  501 -0.00000000000E+00  0.00000000000E+00  0.47984128190E+03  0.47984128190E+03  0.00000000000E+00 0.  1.
          1   -1    0    0  501    0  0.00000000000E+00 -0.00000000000E+00 -0.39391066120E+02  0.39391066120E+02  0.00000000000E+00 0. -1.
          5    1    1    2  502    0 -0.60987142515E+02  0.80066837697E+02  0.13412575871E+03  0.16774183020E+03  0.41800000000E+01 0. -1.
         -5    1    1    2    0  502  0.47524954627E+02  0.91705944876E+00  0.82968406931E+02  0.95711500139E+02  0.41800000000E+01 0. -1.
        -11    1    1    2    0    0 -0.70859711960E+01  0.15070971958E+02  0.68037298920E+01  0.17989883935E+02  0.00000000000E+00 0. -1.
         11    1    1    2    0    0  0.20548159085E+02 -0.96054869105E+02  0.21655232025E+03  0.23778913374E+03  0.00000000000E+00 0.  1.
</event>
<event>
 7    1  0.2841804E-009  0.1666393E+03  0.7561462E-02  0.1181399E+00
         -2   -1    0    0    0  501 -0.00000000000E+00  0.00000000000E+00  0.62130765165E+02  0.62130765165E+02  0.00000000000E+00 0. -1.
          2   -1    0    0  501    0  0.00000000000E+00 -0.00000000000E+00 -0.57352903056E+03  0.57352903056E+03  0.00000000000E+00 0.  1.
         25    2    1    2    0    0 -0.79448102525E+02 -0.12225242799E+03 -0.18589846799E+03  0.26732727036E+03  0.12509185399E+03 0.  0.
          5    1    3    3  502    0 -0.10379411472E+03 -0.87618066187E+02 -0.17818492727E+03  0.22409258015E+03  0.41800000000E+01 0. -1.
         -5    1    3    3    0  502  0.24346012194E+02 -0.34634361801E+02 -0.77135407188E+01  0.43234690210E+02  0.41800000000E+01 0. -1.
        -11    1    1    2    0    0  0.84740510512E+02  0.95953280833E+02 -0.31409806307E+03  0.33918369573E+03  0.00000000000E+00 0.  1.
         11    1    1    2    0    0 -0.52924079861E+01  0.26299147155E+02 -0.11401734341E+02  0.29148829640E+02  0.00000000000E+00 0. -1.
</event>
<event>
 7    1  0.2841804E-009  0.1161204E+03  0.7561462E-02  0.1249638E+00
         -1   -1    0    0    0  501 -0.00000000000E+00  0.00000000000E+00  0.23359811199E+02  0.23359811199E+02  0.00000000000E+00 0.  1.
          1   -1    0    0  501    0  0.00000000000E+00 -0.00000000000E+00 -0.84652493413E+03  0.84652493413E+03  0.00000000000E+00 0. -1.
         25    2    1    2    0    0 -0.45262016457E+02  0.10496766396E+02 -0.62058651573E+03  0.63477020482E+03  0.12508699845E+03 0.  0.
          5    1    3    3  502    0 -0.64112746358E+02 -0.42357540013E+02 -0.34065760213E+03  0.34924157789E+03  0.41800000000E+01 0.  1.
         -5    1    3    3    0  502  0.18850729901E+02  0.52854306409E+02 -0.27992891360E+03  0.28552862693E+03  0.41800000000E+01 0.  1.
        -11    1    1    2    0    0  0.70584020157E+02 -0.17542143087E+02 -0.19444301776E+03  0.20760038016E+03  0.00000000000E+00 0. -1.
         11    1    1    2    0    0 -0.25322003700E+02  0.70453766905E+01 -0.81355894329E+01  0.27514160345E+02  0.00000000000E+00 0.  1.
</event>
<event>
 7    1  0.2841804E-009  0.1141602E+03  0.7561462E-02  0.1253054E+00
          2   -1    0    0  501    0  0.00000000000E+00  0.00000000000E+00  0.34778684528E+03  0.34778684528E+03  0.00000000000E+00 0.  1.
         -2   -1    0    0    0  501 -0.00000000000E+00 -0.00000000000E+00 -0.49067865687E+02  0.49067865687E+02  0.00000000000E+00 0. -1.
         25    2    1    2    0    0  0.53304760011E+02 -0.20768953172E+02  0.97905608793E+02  0.16884771889E+03  0.12510514413E+03 0.  0.
          5    1    3    3  502    0 -0.36541941380E+02 -0.14727884368E+02  0.58055049119E+02  0.70285739563E+02  0.41800000000E+01 0.  1.
         -5    1    3    3    0  502  0.89846701391E+02 -0.60410688041E+01  0.39850559674E+02  0.98561979330E+02  0.41800000000E+01 0.  1.
        -11    1    1    2    0    0 -0.39067994788E+02  0.51525879183E+02  0.17118375233E+03  0.18298934806E+03  0.00000000000E+00 0.  1.
         11    1    1    2    0    0 -0.14236765224E+02 -0.30756926011E+02  0.29629618469E+02  0.45017644011E+02  0.00000000000E+00 0. -1.
</event>
<event>
 7    1  0.2841804E-009  0.1093172E+03  0.7561462E-02  0.1261840E+00
         -1   -1    0    0    0  501 -0.00000000000E+00  0.00000000000E+00  0.63276244891E+02  0.63276244891E+02  0.00000000000E+00 0.  1.
          1   -1    0    0  501    0  0.00000000000E+00 -0.00000000000E+00 -0.42661385983E+03  0.42661385983E+03  0.00000000000E+00 0. -1.
         25    2    1    2    0    0  0.11403161460E+02  0.55125298671E+02 -0.30903230774E+02  0.14061180208E+03  0.12509132091E+03 0.  0.
          5    1    3    3  502    0  0.62566560933E+01 -0.39901661228E+02 -0.46033970639E+00  0.40607543965E+02  0.41800000000E+01 0.  1.
         -5    1    3    3    0  502  0.51465053668E+01  0.95026959899E+02 -0.30442891068E+02  0.10000425812E+03  0.41800000000E+01 0.  1.
        -11    1    1    2    0    0 -0.12659906264E+02 -0.68337181064E+02 -0.32800486780E+03  0.33528709614E+03  0.00000000000E+00 0. -1.
         11    1    1    2    0    0  0.12567448040E+01  0.13211882394E+02 -0.44295163660E+01  0.13991206493E+02  0.00000000000E+00 0.  1.
</event>
<event>
 7    1  0.2841804E-009  0.7635741E+02  0.7561462E-02  0.1339718E+00
          1   -1    0    0  501    0  0.00000000000E+00  0.00000000000E+00  0.67780832226E+03  0.67780832226E+03  0.00000000000E+00 0. -1.
         -1   -1    0    0    0  501 -0.00000000000E+00 -0.00000000000E+00 -0.22962678802E+02  0.22962678802E+02  0.00000000000E+00 0.  1.
         25    2    1    2    0    0 -0.40978169813E+02  0.16475552791E+02  0.25259292808E+03  0.28530984426E+03  0.12509142924E+03 0.  0.
          5    1    3    3  502    0 -0.41414832120E+02  0.84949126511E+01  0.26587885002E+03  0.26925153137E+03  0.41800000000E+01 0. -1.
         -5    1    3    3    0  502  0.43666230702E+00  0.79806401399E+01 -0.13285921933E+02  0.16058312882E+02  0.41800000000E+01 0. -1.
        -11    1    1    2    0    0  0.52539743097E+02  0.24978980798E+02  0.18299380791E+03  0.19201850905E+03  0.00000000000E+00 0.  1.
         11    1    1    2    0    0 -0.11561573284E+02 -0.41454533589E+02  0.21925890746E+03  0.22344264775E+03  0.00000000000E+00 0. -1.
</event>
<event>
 7    1  0.2841804E-009  0.1005220E+03  0.7561462E-02  0.1279202E+00
          4   -1    0    0  501    0  0.00000000000E+00  0.00000000000E+00  0.11242555868E+04  0.11242555868E+04  0.00000000000E+00 0. -1.
         -4   -1    0    0    0  501 -0.00000000000E+00 -0.00000000000E+00 -0.12948336777E+02  0.12948336777E+02  0.00000000000E+00 0.  1.
         25    2    1    2    0    0  0.42234194394E+02 -0.14075297767E+02  0.74927555934E+03  0.76094890413E+03  0.12509008628E+03 0.  0.
          5    1    3    3  502    0  0.69397684749E+02 -0.25594548311E+02  0.69578202936E+03  0.69971510226E+03  0.41800000000E+01 0. -1.
         -5    1    3    3    0  502 -0.27163490355E+02  0.11519250544E+02  0.53493529981E+02  0.61233801868E+02  0.41800000000E+01 0. -1.
        -11    1    1    2    0    0 -0.55333375087E+02 -0.21411812500E+02  0.27549921075E+03  0.28181565470E+03  0.00000000000E+00 0.  1.
         11    1    1    2    0    0  0.13099180692E+02  0.35487110267E+02  0.86532479943E+02  0.94439364754E+02  0.00000000000E+00 0. -1.
</event>
<event>
 7    1  0.2841804E-009  0.1985341E+03  0.7561462E-02  0.1150982E+00
         -2   -1    0    0    0  501 -0.00000000000E+00  0.00000000000E+00  0.50521825415E+02  0.50521825415E+02  0.00000000000E+00 0.  1.
          2   -1    0    0  501    0  0.00000000000E+00 -0.00000000000E+00 -0.90933920479E+03  0.90933920479E+03  0.00000000000E+00 0. -1.
         25    2    1    2    0    0  0.45185388122E+02  0.17869170905E+03 -0.46408216272E+03  0.51477372354E+03  0.12508911425E+03 0.  0.
          5    1    3    3  502    0  0.75467515382E+02  0.11687075947E+03 -0.38738488449E+03  0.41162925239E+03  0.41800000000E+01 0.  1.
         -5    1    3    3    0  502 -0.30282127260E+02  0.61820949584E+02 -0.76697278234E+02  0.10314447114E+03  0.41800000000E+01 0.  1.
        -11    1    1    2    0    0 -0.50338446972E+02 -0.12175103726E+03 -0.34503261373E+03  0.36933017594E+03  0.00000000000E+00 0.  1.
         11    1    1    2    0    0  0.51530588503E+01 -0.56940671795E+02 -0.49702602925E+02  0.75757130737E+02  0.00000000000E+00 0. -1.
</event>
<event>
 7    1  0.2841804E-009  0.7977591E+02  0.7561462E-02  0.1329689E+00
          1   -1    0    0  501    0  0.00000000000E+00  0.00000000000E+00  0.26252913201E+03  0.26252913201E+03  0.00000000000E+00 0. -1.
         -1   -1    0    0    0  501 -0.00000000000E+00 -0.00000000000E+00 -0.43458712120E+02  0.43458712120E+02  0.00000000000E+00 0.  1.
         25    2    1    2    0    0 -0.79939960271E+01  0.34705646637E+01  0.12454664464E+03  0.17673626907E+03  0.12509153978E+03 0.  0.
          5    1    3    3  502    0 -0.47872099988E+02 -0.38794889775E+02  0.38349546428E+02  0.72697603407E+02  0.41800000000E+01 0. -1.
         -5    1    3    3    0  502  0.39878103961E+02  0.42265454439E+02  0.86197098207E+02  0.10403866567E+03  0.41800000000E+01 0. -1.
        -11    1    1    2    0    0 -0.23231274139E+01 -0.19953159367E+02  0.10517779115E+03  0.10707891128E+03  0.00000000000E+00 0. -1.
         11    1    1    2    0    0  0.10317123441E+02  0.16482594703E+02 -0.10654015894E+02  0.22172663776E+02  0.00000000000E+00 0.  1.
</event>
<event>
 7    1  0.2841804E-009  0.1466721E+03  0.7561462E-02  0.1204623E+00
          1   -1    0    0  501    0  0.00000000000E+00  0.00000000000E+00  0.95921883878E+02  0.95921883878E+02  0.00000000000E+00 0. -1.
         -1   -1    0    0    0  501 -0.00000000000E+00 -0.00000000000E+00 -0.48614997042E+03  0.48614997042E+03  0.00000000000E+00 0.  1.
         25    2    1    2    0    0  0.77076439082E+02  0.81552270114E+02 -0.40346915276E+03  0.43706571396E+03  0.12509009100E+03 0.  0.
          5    1    3    3  502    0 -0.21512149549E+02  0.42218157198E+02 -0.21981322949E+03  0.22490103075E+03  0.41800000000E+01 0. -1.
         -5    1    3    3    0  502  0.98588588631E+02  0.39334112916E+02 -0.18365592327E+03  0.21216468320E+03  0.41800000000E+01 0. -1.
        -11    1    1    2    0    0  0.15438571280E+02 -0.29753293085E+02 -0.12707359018E+02  0.35848080922E+02  0.00000000000E+00 0.  1.
         11    1    1    2    0    0 -0.92515010362E+02 -0.51798977029E+02  0.25948425235E+02  0.10915805942E+03  0.00000000000E+00 0. -1.
</event>
<event>
 7    1  0.4727696E-009  0.9772106E+02  0.7561462E-02  0.1285163E+00
         -1   -1    0    0    0  501 -0.00000000000E+00  0.00000000000E+00  0.39527492067E+02  0.39527492067E+02  0.00000000000E+00 0.  1.
          1   -1    0    0  501    0  0.00000000000E+00 -0.00000000000E+00 -0.38600187517E+03  0.38600187517E+03  0.00000000000E+00 0. -1.
         25    2    1    2    0    0  0.12098462651E+02  0.34996810347E+02 -0.27312965401E+03  0.30268570843E+03  0.12509068970E+03 0.  0.
          5    1    3    3  502    0 -0.47590704729E+02 -0.16398894413E+02 -0.88249529612E+02  0.10168210654E+03  0.41800000000E+01 0.  1.
         -5    1    3    3    0  502  0.59689167380E+02  0.51395704759E+02 -0.18488012440E+03  0.20100360188E+03  0.41800000000E+01 0.  1.
        -11    1    1    2    0    0 -0.34047315422E+02 -0.20322221827E+02  0.51902035791E+01  0.39989381098E+02  0.00000000000E+00 0.  1.
         11    1    1    2    0    0  0.21948852770E+02 -0.14674588519E+02 -0.78534932667E+02  0.82854277712E+02  0.00000000000E+00 0. -1.
</event>
<event>
 7    1  0.2841804E-009  0.9297323E+02  0.7561462E-02  0.1295807E+00
          2   -1    0    0  501    0  0.00000000000E+00  0.00000000000E+00  0.41921650002E+03  0.41921650002E+03  0.00000000000E+00 0. -1.
         -2   -1    0    0    0  501 -0.00000000000E+00 -0.00000000000E+00 -0.29344762507E+02  0.29344762507E+02  0.00000000000E+00 0.  1.
         25    2    1    2    0    0  0.12159840450E+02  0.10589746140E+02  0.19953687749E+03  0.23604461076E+03  0.12506833470E+03 0.  0.
          5    1    3    3  502    0  0.60087738270E+02  0.18600170073E+02  0.16400136066E+03  0.17569980454E+03  0.41800000000E+01 0.  1.
         -5    1    3    3    0  502 -0.47927897820E+02 -0.80104239332E+01  0.35535516838E+02  0.60344806222E+02  0.41800000000E+01 0.  1.
        -11    1    1    2    0    0  0.17161299264E+01 -0.40828401590E+02  0.16687825509E+03  0.17180877597E+03  0.00000000000E+00 0. -1.
         11    1    1    2    0    0 -0.13875970376E+02  0.30238655450E+02  0.23456604929E+02  0.40707875799E+02  0.00000000000E+00 0.  1.
</event>
<event>
 7    1  0.2981463E-009  0.1856617E+03  0.7561462E-02  0.1162433E+00
          1   -1    0    0  501    0  0.00000000000E+00  0.00000000000E+00  0.10955808641E+03  0.10955808641E+03  0.00000000000E+00 0. -1.
         -1   -1    0    0    0  501 -0.00000000000E+00 -0.00000000000E+00 -0.36867197975E+03  0.36867197975E+03  0.00000000000E+00 0.  1.
         25    2    1    2    0    0  0.14397728693E+03  0.86673486573E+02 -0.14959663119E+03  0.25742680420E+03  0.12509058730E+03 0.  0.
          5    1    3    3  502    0  0.65443057176E+02 -0.21258643563E+02 -0.83924619861E+02  0.10860726439E+03  0.41800000000E+01 0. -1.
         -5    1    3    3    0  502  0.78534229756E+02  0.10793213014E+03 -0.65672011332E+02  0.14881953982E+03  0.41800000000E+01 0. -1.
        -11    1    1    2    0    0 -0.75805336433E+02 -0.55089676492E+02 -0.73670718677E+01  0.93997846974E+02  0.00000000000E+00 0. -1.
         11    1    1    2    0    0 -0.68171950498E+02 -0.31583810081E+02 -0.10215019028E+03  0.12680541498E+03  0.00000000000E+00 0.  1.
</event>
<event>
 7    1  0.3186300E-009  0.1084003E+03  0.7561462E-02  0.1263561E+00
          2   -1    0    0  501    0  0.00000000000E+00  0.00000000000E+00  0.40365326013E+02  0.40365326013E+02  0.00000000000E+00 0. -1.
         -2   -1    0    0    0  501 -0.00000000000E+00 -0.00000000000E+00 -0.46955386998E+03  0.46955386998E+03  0.00000000000E+00 0.  1.
         25    2    1    2    0    0  0.34948397404E+02 -0.60981287445E+02 -0.32477596324E+03  0.35505981962E+03  0.12509173159E+03 0.  0.
          5    1    3    3  502    0  0.42962944806E+02  0.15762886805E+02 -0.43194682862E+02  0.63067711663E+02  0.41800000000E+01 0. -1.
         -5    1    3    3    0  502 -0.80145474019E+01 -0.76744174250E+02 -0.28158128038E+03  0.29199210796E+03  0.41800000000E+01 0. -1.
        -11    1    1    2    0    0 -0.26782997551E+02 -0.48651250839E+01 -0.79423556777E+02  0.83958917162E+02  0.00000000000E+00 0.  1.
         11    1    1    2    0    0 -0.81653998530E+01  0.65846412529E+02 -0.24989023945E+02  0.70900459205E+02  0.00000000000E+00 0. -1.
</event>
<event>
 7    1  0.2841804E-009  0.9219641E+02  0.7561462E-02  0.1297618E+00
         -2   -1    0    0    0  501 -0.00000000000E+00  0.00000000000E+00  0.20447916860E+02  0.20447916860E+02  0.00000000000E+00 0.  1.
          2   -1    0    0  501    0  0.00000000000E+00 -0.00000000000E+00 -0.66339701840E+03  0.66339701840E+03  0.00000000000E+00 0. -1.
         25    2    1    2    0    0  0.35362280716E+02  0.23230947301E+02 -0.37785666688E+03  0.40026683895E+03  0.12509082240E+03 0.  0.
          5    1    3    3  502    0 -0.23878738110E+02  0.50851148202E+01 -0.92096938820E+01  0.26426187540E+02  0.41800000000E+01 0.  1.
         -5    1    3    3    0  502  0.59241018827E+02  0.18145832480E+02 -0.36864697300E+03  0.37384065141E+03  0.41800000000E+01 0.  1.
        -11    1    1    2    0    0 -0.22094227669E+01  0.32555654257E+02 -0.57912400473E+02  0.66472537951E+02  0.00000000000E+00 0.  1.
         11    1    1    2    0    0 -0.33152857949E+02 -0.55786601557E+02 -0.20718003418E+03  0.21710555835E+03  0.00000000000E+00 0. -1.
</event>
<event>
 7    1  0.2841804E-009  0.9422925E+02  0.7561462E-02  0.1292922E+00
          1   -1    0    0  501    0  0.00000000000E+00  0.00000000000E+00  0.23262409076E+02  0.23262409076E+02  0.00000000000E+00 0. -1.
         -1   -1    0    0    0  501 -0.00000000000E+00 -0.00000000000E+00 -0.71623782130E+03  0.71623782130E+03  0.00000000000E+00 0.  1.
         25    2    1    2    0    0 -0.41569151988E+02 -0.79428296367E+01 -0.48380474416E+03  0.50150337122E+03  0.12509003930E+03 0.  0.
          5    1    3    3  502    0  0.34308937250E+02  0.93769813584E+01 -0.29612700138E+03  0.29828460286E+03  0.41800000000E+01 0.  1.
         -5    1    3    3    0  502 -0.75878089238E+02 -0.17319810995E+02 -0.18767774278E+03  0.20321876837E+03  0.41800000000E+01 0.  1.
        -11    1    1    2    0    0  0.57652138981E+02  0.99239726025E+01 -0.21338052875E+03  0.22125438846E+03  0.00000000000E+00 0.  1.
         11    1    1    2    0    0 -0.16082986992E+02 -0.19811429658E+01  0.42098606908E+01  0.16742470698E+02  0.00000000000E+00 0. -1.
</event>
<event>
 7    1  0.2841804E-009  0.7439077E+02  0.7561462E-02  0.1345768E+00
          2   -1    0    0  501    0  0.00000000000E+00  0.00000000000E+00  0.10958375200E+03  0.10958375200E+03  0.00000000000E+00 0.  1.
         -2   -1    0    0    0  501 -0.00000000000E+00 -0.00000000000E+00 -0.24594544545E+03  0.24594544545E+03  0.00000000000E+00 0. -1.
         25    2    1    2    0    0 -0.21074222400E+02  0.16665879177E+02 -0.20368279970E+03  0.24053454316E+03  0.12509320197E+03 0.  0.
          5    1    3    3  502    0  0.91020740898E+01  0.36091937766E+02 -0.40680497271E+01  0.37676214685E+02  0.41800000000E+01 0.  1.
         -5    1    3    3    0  502 -0.30176296490E+02 -0.19426058589E+02 -0.19961474998E+03  0.20285832847E+03  0.41800000000E+01 0.  1.
        -11    1    1    2    0    0  0.40701856980E+02  0.10163967191E+02  0.23554496554E+01  0.42017800202E+02  0.00000000000E+00 0. -1.
         11    1    1    2    0    0 -0.19627634580E+02 -0.26829846368E+02  0.64965656598E+02  0.72976854088E+02  0.00000000000E+00 0.  1.
</event>
<event>
 7    1  0.2841804E-009  0.8350846E+02  0.7561462E-02  0.1319380E+00
         -4   -1    0    0    0  501 -0.00000000000E+00  0.00000000000E+00  0.78301985967E+03  0.78301985967E+03  0.00000000000E+00 0.  1.
          4   -1    0    0  501    0  0.00000000000E+00 -0.00000000000E+00 -0.16313005867E+02  0.16313005867E+02  0.00000000000E+00 0. -1.
         25    2    1    2    0    0 -0.17848850947E+02 -0.12420138677E+02  0.46973802632E+03  0.48659378852E+03  0.12508741078E+03 0.  0.
          5    1    3    3  502    0 -0.94029562389E+01  0.27043502336E+02  0.42582271523E+03  0.42680466704E+03  0.41800000000E+01 0. -1.
         -5    1    3    3    0  502 -0.84458947077E+01 -0.39463641013E+02  0.43915311093E+02  0.59789121484E+02  0.41800000000E+01 0. -1.
        -11    1    1    2    0    0  0.80739644832E+01  0.54099354018E+02  0.18278341564E+03  0.19079231128E+03  0.00000000000E+00 0.  1.
         11    1    1    2    0    0  0.97748864634E+01 -0.41679215341E+02  0.11418541184E+03  0.12194676574E+03  0.00000000000E+00 0. -1.
</event>
<event>
 7    1  0.2841804E-009  0.1518930E+03  0.7561462E-02  0.1198166E+00
         -2   -1    0    0    0  501 -0.00000000000E+00  0.00000000000E+00  0.39755041427E+03  0.39755041427E+03  0.00000000000E+00 0.  1.
          2   -1    0    0  501    0  0.00000000000E+00 -0.00000000000E+00 -0.65611587499E+02  0.65611587499E+02  0.00000000000E+00 0. -1.
         25    2    1    2    0    0 -0.90016351378E+02 -0.76938639586E+02  0.20106381964E+03  0.26475761687E+03  0.12508972119E+03 0.  0.
          5    1    3    3  502    0 -0.88169373558E+02 -0.10703355315E+03  0.14324673068E+03  0.19941694558E+03  0.41800000000E+01 0. -1.
         -5    1    3    3    0  502 -0.18469778194E+01  0.30094913562E+02  0.57817088963E+02  0.65340671297E+02  0.41800000000E+01 0. -1.
        -11    1    1    2    0    0  0.13370919211E+02  0.52481299173E+02  0.13009337743E+02  0.55698394159E+02  0.00000000000E+00 0. -1.
         11    1    1    2    0    0  0.76645432166E+02  0.24457340413E+02  0.11786566939E+03  0.14270599074E+03  0.00000000000E+00 0.  1.
</event>
<event>
 7    1  0.2841804E-009  0.8091385E+02  0.7561462E-02  0.1326478E+00
          1   -1    0    0  501    0  0.00000000000E+00  0.00000000000E+00  0.17509643763E+03  0.17509643763E+03  0.00000000000E+00 0. -1.
         -1   -1    0    0    0  501 -0.00000000000E+00 -0.00000000000E+00 -0.10418678620E+03  0.10418678620E+03  0.00000000000E+00 0.  1.
         25    2    1    2    0    0  0.11363844347E+02  0.28101110311E+01  0.12412038548E+03  0.17660771301E+03  0.12508949005E+03 0.  0.
          5    1    3    3  502    0  0.43513044511E+02  0.51108989812E+02  0.61421998013E+02  0.91080448627E+02  0.41800000000E+01 0. -1.
         -5    1    3    3    0  502 -0.32149200163E+02 -0.48298878781E+02  0.62698387464E+02  0.85527264385E+02  0.41800000000E+01 0. -1.
        -11    1    1    2    0    0 -0.13165560245E+01  0.15479967136E+02 -0.72567693960E+02  0.74212080614E+02  0.00000000000E+00 0.  1.
         11    1    1    2    0    0 -0.10047288323E+02 -0.18290078167E+02  0.19356959912E+02  0.28463430205E+02  0.00000000000E+00 0. -1.
</event>
<event>
 7    1  0.2841804E-009  0.1232555E+03  0.7561462E-02  0.1237821E+00
         -1   -1    0    0    0  501 -0.00000000000E+00  0.00000000000E+00  0.54173568299E+02  0.54173568299E+02  0.00000000000E+00 0.  1.
          1   -1    0    0  501    0  0.00000000000E+00 -0.00000000000E+00 -0.32105795992E+03  0.32105795992E+03  0.00000000000E+00 0. -1.
         25    2    1    2    0    0  0.29822281619E+02 -0.51578902736E+02 -0.19397451843E+03  0.23837621512E+03  0.12508938582E+03 0.  0.
          5    1    3    3  502    0  0.38846675641E+02  0.32393289342E+02 -0.98732806847E+02  0.11101364308E+03  0.41800000000E+01 0. -1.
         -5    1    3    3    0  502 -0.90243940217E+01 -0.83972192078E+02 -0.95241711585E+02  0.12736257204E+03  0.41800000000E+01 0. -1.
        -11    1    1    2    0    0 -0.62585661143E+02  0.46668076142E+02 -0.67667132540E+02  0.10331367353E+03  0.00000000000E+00 0.  1.
         11    1    1    2    0    0  0.32763379524E+02  0.49108265945E+01 -0.52427406491E+01  0.33541639572E+02  0.00000000000E+00 0. -1.
</event>
<event>
 7    1  0.2841804E-009  0.1308277E+03  0.7561462E-02  0.1226233E+00
          1   -1    0    0  501    0  0.00000000000E+00  0.00000000000E+00  0.40021270225E+03  0.40021270225E+03  0.00000000000E+00 0. -1.
         -1   -1    0    0    0  501 -0.00000000000E+00 -0.00000000000E+00 -0.66901672971E+02  0.66901672971E+02  0.00000000000E+00 0.  1.
         25    2    1    2    0    0 -0.88086375502E+02  0.68128394045E+02  0.24566256991E+03  0.29731684542E+03  0.12508605315E+03 0.  0.
          5    1    3    3  502    0 -0.44155005083E+02  0.54256197479E+02  0.29117762979E+02  0.75886204014E+02  0.41800000000E+01 0.  1.
         -5    1    3    3    0  502 -0.43931370419E+02  0.13872196565E+02  0.21654480693E+03  0.22143064141E+03  0.41800000000E+01 0.  1.
        -11    1    1    2    0    0  0.71663760257E+02  0.35809255223E+01  0.46546411855E+02  0.85528276133E+02  0.00000000000E+00 0.  1.
         11    1    1    2    0    0  0.16422615245E+02 -0.71709319567E+02  0.41102047517E+02  0.84269253672E+02  0.00000000000E+00 0. -1.
</event>
<event>
 7    1  0.2841804E-009  0.1021825E+03  0.7561462E-02  0.1275772E+00
         -4   -1    0    0    0  501 -0.00000000000E+00  0.00000000000E+00  0.46038186252E+03  0.46038186252E+03  0.00000000000E+00 0.  1.
          4   -1    0    0  501    0  0.00000000000E+00 -0.00000000000E+00 -0.37599313413E+02  0.37599313413E+02  0.00000000000E+00 0. -1.
         25    2    1    2    0    0 -0.28292112582E+02  0.52303198887E+02  0.31293794562E+03  0.34222054885E+03  0.12509467614E+03 0.  0.
          5    1    3    3  502    0  0.37512704290E+02  0.43925763793E+02  0.22293342286E+03  0.23033336522E+03  0.41800000000E+01 0.  1.
         -5    1    3    3    0  502 -0.65804816871E+02  0.83774350943E+01  0.90004522764E+02  0.11188718363E+03  0.41800000000E+01 0.  1.
        -11    1    1    2    0    0 -0.11312997928E+02 -0.34963060649E+02  0.10619350123E+03  0.11237196819E+03  0.00000000000E+00 0.  1.
         11    1    1    2    0    0  0.39605110510E+02 -0.17340138238E+02  0.36511022561E+01  0.43388658890E+02  0.00000000000E+00 0. -1.
</event>
<event>
 7    1  0.2841804E-009  0.1328925E+03  0.7561462E-02  0.1223226E+00
          2   -1    0    0  501    0  0.00000000000E+00  0.00000000000E+00  0.13811104740E+03  0.13811104740E+03  0.00000000000E+00 0. -1.
         -2   -1    0    0    0  501 -0.00000000000E+00 -0.00000000000E+00 -0.19788536518E+03  0.19788536518E+03  0.00000000000E+00 0.  1.
         25    2    1    2    0    0 -0.67099833701E+02  0.93061609135E+02 -0.79246083528E+02  0.18732164941E+03  0.12508640136E+03 0.  0.
          5    1    3    3  502    0 -0.71839156228E+02  0.70076209642E+02  0.42055070047E+01  0.10053207555E+03  0.41800000000E+01 0. -1.
         -5    1    3    3    0  502  0.47393225272E+01  0.22985399492E+02 -0.83451590532E+02  0.86789573857E+02  0.41800000000E+01 0. -1.
        -11    1    1    2    0    0  0.15297474100E+01 -0.72881431585E+02  0.30806245801E+02  0.79139547493E+02  0.00000000000E+00 0. -1.
         11    1    1    2    0    0  0.65570086291E+02 -0.20180177550E+02 -0.11334480047E+02  0.69535215682E+02  0.00000000000E+00 0.  1.
</event>
<event>
 7    1  0.3753591E-009  0.1384625E+03  0.7561462E-02  0.1215413E+00
          2   -1    0    0  501    0  0.00000000000E+00  0.00000000000E+00  0.60827428238E+03  0.60827428238E+03  0.00000000000E+00 0. -1.
         -2   -1    0    0    0  501 -0.00000000000E+00 -0.00000000000E+00 -0.37513945753E+02  0.37513945753E+02  0.00000000000E+00 0.  1.
         25    2    1    2    0    0  0.53192364235E+02 -0.84448257503E+02  0.37178858890E+03  0.40476529949E+03  0.12508899643E+03 0.  0.
          5    1    3    3  502    0 -0.23731177510E+02 -0.53108689602E+02  0.66967880004E+02  0.88802427047E+02  0.41800000000E+01 0. -1.
         -5    1    3    3    0  502  0.76923541744E+02 -0.31339567900E+02  0.30482070889E+03  0.31596287244E+03  0.41800000000E+01 0. -1.
        -11    1    1    2    0    0  0.19619481196E+02  0.52273009387E+02  0.71178127377E+02  0.90463900921E+02  0.00000000000E+00 0. -1.
         11    1    1    2    0    0 -0.72811845431E+02  0.32175248115E+02  0.12779362035E+03  0.15055902772E+03  0.00000000000E+00 0.  1.
</event>
<event>
 7    1  0.2841804E-009  0.9720353E+02  0.7561462E-02  0.1286289E+00
          1   -1    0    0  501    0  0.00000000000E+00  0.00000000000E+00  0.38887611447E+02  0.38887611447E+02  0.00000000000E+00 0. -1.
         -1   -1    0    0    0  501 -0.00000000000E+00 -0.00000000000E+00 -0.32694266002E+03  0.32694266002E+03  0.00000000000E+00 0.  1.
         25    2    1    2    0    0  0.23982461478E+02  0.16255012173E+02 -0.18620220785E+03  0.22618343298E+03  0.12509316235E+03 0.  0.
          5    1    3    3  502    0  0.64275742152E+02  0.14369798756E+02 -0.46545041118E+02  0.80757509856E+02  0.41800000000E+01 0. -1.
         -5    1    3    3    0  502 -0.40293280674E+02  0.18852134169E+01 -0.13965716673E+03  0.14542592312E+03  0.41800000000E+01 0. -1.
        -11    1    1    2    0    0 -0.54848251011E+02 -0.52883631457E+01 -0.35216933404E+02  0.65395181949E+02  0.00000000000E+00 0. -1.
         11    1    1    2    0    0  0.30865789533E+02 -0.10966649028E+02 -0.66635907320E+02  0.74251656539E+02  0.00000000000E+00 0.  1.
</event>
<event>
 7    1  0.2841804E-009  0.1164192E+03  0.7561462E-02  0.1249124E+00
          1   -1    0    0  501    0  0.00000000000E+00  0.00000000000E+00  0.50094443967E+03  0.50094443967E+03  0.00000000000E+00 0. -1.
         -1   -1    0    0    0  501 -0.00000000000E+00 -0.00000000000E+00 -0.59926266165E+02  0.59926266165E+02  0.00000000000E+00 0.  1.
         25    2    1    2    0    0  0.28331285815E+02 -0.62027964115E+02  0.41636256192E+03  0.44006389165E+03  0.12509322794E+03 0.  0.
          5    1    3    3  502    0 -0.31226954047E+02 -0.40280101041E+02  0.32365677337E+03  0.32767176953E+03  0.41800000000E+01 0.  1.
         -5    1    3    3    0  502  0.59558239863E+02 -0.21747863074E+02  0.92705788555E+02  0.11239212212E+03  0.41800000000E+01 0.  1.
        -11    1    1    2    0    0  0.25825267011E+02 -0.10298593109E+02  0.79818842258E+01  0.28926042108E+02  0.00000000000E+00 0. -1.
         11    1    1    2    0    0 -0.54156552826E+02  0.72326557225E+02  0.16673727362E+02  0.91880772081E+02  0.00000000000E+00 0.  1.
</event>
<event>
 7    1  0.2841804E-009  0.1802109E+03  0.7561462E-02  0.1167599E+00
          2   -1    0    0  501    0  0.00000000000E+00  0.00000000000E+00  0.52637998509E+03  0.52637998509E+03  0.00000000000E+00 0. -1.
         -2   -1    0    0    0  501 -0.00000000000E+00 -0.00000000000E+00 -0.67481820754E+02  0.67481820754E+02  0.00000000000E+00 0.  1.
         25    2    1    2    0    0  0.49455723977E+02  0.13751695807E+03  0.31988483840E+03  0.37327075394E+03  0.12509182035E+03 0.  0.
          5    1    3    3  502    0 -0.31502823980E+02  0.94940214831E+02  0.18270601924E+03  0.20833874863E+03  0.41800000000E+01 0.  1.
         -5    1    3    3    0  502  0.80958547957E+02  0.42576743234E+02  0.13717881915E+03  0.16493200531E+03  0.41800000000E+01 0.  1.
        -11    1    1    2    0    0 -0.67995369091E+02 -0.65645591356E+02  0.58828367145E+02  0.11132605563E+03  0.00000000000E+00 0.  1.
         11    1    1    2    0    0  0.18539645114E+02 -0.71871366709E+02  0.80184958796E+02  0.10926499627E+03  0.00000000000E+00 0. -1.
</event>
<event>
 7    1  0.2841804E-009  0.2878693E+03  0.7561462E-02  0.1091467E+00
          2   -1    0    0  501    0  0.00000000000E+00  0.00000000000E+00  0.63271885087E+03  0.63271885087E+03  0.00000000000E+00 0. -1.
         -2   -1    0    0    0  501 -0.00000000000E+00 -0.00000000000E+00 -0.26136070088E+03  0.26136070088E+03  0.00000000000E+00 0.  1.
         25    2    1    2    0    0 -0.74756281529E+02 -0.27005285710E+03  0.48992919975E+03  0.57809778489E+03  0.12509748546E+03 0.  0.
          5    1    3    3  502    0 -0.31962707474E+02 -0.56564190982E+02  0.35436563543E+02  0.74123847757E+02  0.41800000000E+01 0. -1.
         -5    1    3    3    0  502 -0.42793574054E+02 -0.21348866612E+03  0.45449263620E+03  0.50397393713E+03  0.41800000000E+01 0. -1.
        -11    1    1    2    0    0  0.76178431484E+02  0.11586740558E+03 -0.58506853411E+02  0.15050402319E+03  0.00000000000E+00 0.  1.
         11    1    1    2    0    0 -0.14221499553E+01  0.15418545152E+03 -0.60064196348E+02  0.16547774368E+03  0.00000000000E+00 0. -1.
</event>
<event>
 7    1  0.2841804E-009  0.2231083E+03  0.7561462E-02  0.1131587E+00
         -2   -1    0    0    0  501 -0.00000000000E+00  0.00000000000E+00  0.25562615538E+03  0.25562615538E+03  0.00000000000E+00 0. -1.
          2   -1    0    0  501    0  0.00000000000E+00 -0.00000000000E+00 -0.19734776933E+03  0.19734776933E+03  0.00000000000E+00 0.  1.
         25    2    1    2    0    0  0.51937433843E+02  0.18892858215E+03  0.16348012234E+02  0.23304060467E+03  0.12509660159E+03 0.  0.
          5    1    3    3  502    0 -0.24215765338E+02  0.13630033972E+03 -0.23112950708E+01  0.13851714834E+03  0.41800000000E+01 0. -1.
         -5    1    3    3    0  502  0.76153199182E+02  0.52628242434E+02  0.18659307305E+02  0.94523456329E+02  0.41800000000E+01 0. -1.
        -11    1    1    2    0    0 -0.60506289227E+02 -0.57897923069E+02  0.25839729247E+02  0.87640585001E+02  0.00000000000E+00 0. -1.
         11    1    1    2    0    0  0.85688553840E+01 -0.13103065908E+03  0.16090644566E+02  0.13229273504E+03  0.00000000000E+00 0.  1.
</event>
<event>
 7    1  0.2841804E-009  0.1060154E+03  0.7561462E-02  0.1268132E+00
          2   -1    0    0  501    0  0.00000000000E+00  0.00000000000E+00  0.12077391530E+03  0.12077391530E+03  0.00000000000E+00 0. -1.
         -2   -1    0    0    0  501 -0.00000000000E+00 -0.00000000000E+00 -0.21164064603E+03  0.21164064603E+03  0.00000000000E+00 0.  1.
         25    2    1    2    0    0 -0.99577060155E+02 -0.70421046534E+01  0.16221762315E+02  0.16085864575E+03  0.12508867332E+03 0.  0.
          5    1    3    3  502    0 -0.73417500874E+02  0.49883075579E+01 -0.49635711575E+02  0.88860502533E+02  0.41800000000E+01 0.  1.
         -5    1    3    3    0  502 -0.26159559281E+02 -0.12030412211E+02  0.65857473890E+02  0.71998143218E+02  0.41800000000E+01 0.  1.
        -11    1    1    2    0    0  0.48557925984E+02 -0.18762424231E+02 -0.22073335779E+01  0.52103484149E+02  0.00000000000E+00 0.  1.
         11    1    1    2    0    0  0.51019134170E+02  0.25804528884E+02 -0.10488115947E+03  0.11945243143E+03  0.00000000000E+00 0. -1.
</event>
<event>
 7    1  0.2841804E-009  0.2067609E+03  0.7561462E-02  0.1144157E+00
          3   -1    0    0  501    0  0.00000000000E+00  0.00000000000E+00  0.26645193287E+03  0.26645193287E+03  0.00000000000E+00 0. -1.
         -3   -1    0    0    0  501 -0.00000000000E+00 -0.00000000000E+00 -0.17549044401E+03  0.17549044401E+03  0.00000000000E+00 0.  1.
         25    2    1    2    0    0  0.10381317354E+02 -0.17946676264E+03  0.10068397807E+03  0.24104154639E+03  0.12509065913E+03 0.  0.
          5    1    3    3  502    0 -0.52395897843E+02 -0.75303598187E+02  0.70199331770E+02  0.11559143823E+03  0.41800000000E+01 0.  1.
         -5    1    3    3    0  502  0.62777215197E+02 -0.10416316446E+03  0.30484646298E+02  0.12545010816E+03  0.41800000000E+01 0.  1.
        -11    1    1    2    0    0 -0.35966169927E+02  0.25916342602E+02 -0.89826926380E+01  0.45231747259E+02  0.00000000000E+00 0. -1.
         11    1    1    2    0    0  0.25584852573E+02  0.15355042004E+03 -0.73979656653E+00  0.15566908323E+03  0.00000000000E+00 0.  1.
</event>
<event>
 7    1  0.2841804E-009  0.9605201E+02  0.7561462E-02  0.1288824E+00
         -2   -1    0    0    0  501 -0.00000000000E+00  0.00000000000E+00  0.10689811103E+03  0.10689811103E+03  0.00000000000E+00 0.  1.
          2   -1    0    0  501    0  0.00000000000E+00 -0.00000000000E+00 -0.12539716577E+03  0.12539716577E+03  0.00000000000E+00 0. -1.
         25    2    1    2    0    0  0.57534042628E+01 -0.28365538752E+02  0.17083820901E+02  0.12952610360E+03  0.12508976428E+03 0.  0.
          5    1    3    3  502    0 -0.12843545313E+02 -0.59391186681E+02 -0.31690404494E+02  0.68658749250E+02  0.41800000000E+01 0.  1.
         -5    1    3    3    0  502  0.18596949576E+02  0.31025647930E+02  0.48774225395E+02  0.60867354352E+02  0.41800000000E+01 0.  1.
        -11    1    1    2    0    0 -0.46835726282E+02  0.26149592773E+02 -0.29385904895E+02  0.61163043295E+02  0.00000000000E+00 0. -1.
         11    1    1    2    0    0  0.41082322019E+02  0.22159459784E+01 -0.61969707401E+01  0.41606129902E+02  0.00000000000E+00 0.  1.
</event>
<event>
 7    1  0.2841804E-009  0.1066339E+03  0.7561462E-02  0.1266933E+00
          1   -1    0    0  501    0  0.00000000000E+00  0.00000000000E+00  0.20758264236E+03  0.20758264236E+03  0.00000000000E+00 0. -1.
         -1   -1    0    0    0  501 -0.00000000000E+00 -0.00000000000E+00 -0.62246860925E+02  0.62246860925E+02  0.00000000000E+00 0.  1.
         25    2    1    2    0    0  0.20544201351E+02  0.81757140357E+01  0.11427136244E+03  0.17086216760E+03  0.12508808709E+03 0.  0.
          5    1    3    3  502    0  0.63355685875E+02  0.31332750705E+02  0.38188751961E+02  0.80445866120E+02  0.41800000000E+01 0.  1.
         -5    1    3    3    0  502 -0.42811484525E+02 -0.23157036670E+02  0.76082610484E+02  0.90416301476E+02  0.41800000000E+01 0.  1.
        -11    1    1    2    0    0 -0.43976535260E+02  0.26809634309E+02  0.12811496372E+02  0.53073784343E+02  0.00000000000E+00 0. -1.
         11    1    1    2    0    0  0.23432333909E+02 -0.34985348345E+02  0.18252922621E+02  0.45893551349E+02  0.00000000000E+00 0.  1.
</event>
<event>
 7    1  0.2841804E-009  0.1163208E+03  0.7561462E-02  0.1249293E+00
          2   -1    0    0  501    0  0.00000000000E+00  0.00000000000E+00  0.40624613324E+03  0.40624613324E+03  0.00000000000E+00 0. -1.
         -2   -1    0    0    0  501 -0.00000000000E+00 -0.00000000000E+00 -0.47921156639E+02  0.47921156639E+02  0.00000000000E+00 0.  1.
         25    2    1    2    0    0  0.57873958408E+02  0.23396954435E+02  0.97431884073E+02  0.17040361909E+03  0.12509040262E+03 0.  0.
          5    1    3    3  502    0  0.12500369099E+02 -0.40717746383E+02  0.78642017893E+02  0.89533421002E+02  0.41800000000E+01 0.  1.
         -5    1    3    3    0  502  0.45373589309E+02  0.64114700817E+02  0.18789866180E+02  0.80870198088E+02  0.41800000000E+01 0.  1.
        -11    1    1    2    0    0  0.20428267928E+02 -0.25725375915E+02  0.88747388276E+02  0.94631960892E+02  0.00000000000E+00 0. -1.
         11    1    1    2    0    0 -0.78302226336E+02  0.23284214804E+01  0.17214570425E+03  0.18913170989E+03  0.00000000000E+00 0.  1.
</event>
<event>
 7    1  0.2841804E-009  0.1189689E+03  0.7561462E-02  0.1244808E+00
         -2   -1    0    0    0  501 -0.00000000000E+00  0.00000000000E+00  0.33972375398E+02  0.33972375398E+02  0.00000000000E+00 0.  1.
          2   -1    0    0  501    0  0.00000000000E+00 -0.00000000000E+00 -0.61441888954E+03  0.61441888954E+03  0.00000000000E+00 0. -1.
         25    2    1    2    0    0  0.61076174838E+02 -0.67974094972E+01 -0.49217607009E+03  0.51152842527E+03  0.12509013545E+03 0.  0.
          5    1    3    3  502    0  0.23674061819E+02 -0.65242539558E+02 -0.22865399693E+03  0.23899199335E+03  0.41800000000E+01 0.  1.
         -5    1    3    3    0  502  0.37402113019E+02  0.58445130061E+02 -0.26352207315E+03  0.27253643192E+03  0.41800000000E+01 0.  1.
        -11    1    1    2    0    0 -0.40961524407E+02 -0.34112263258E+02 -0.24992500970E+02  0.58873747045E+02  0.00000000000E+00 0.  1.
         11    1    1    2    0    0 -0.20114650431E+02  0.40909672755E+02 -0.63277943082E+02  0.77989092619E+02  0.00000000000E+00 0. -1.
</event>
<event>
 7    1  0.2841804E-009  0.1005186E+03  0.7561462E-02  0.1279209E+00
         -2   -1    0    0    0  501 -0.00000000000E+00  0.00000000000E+00  0.41990798996E+02  0.41990798996E+02  0.00000000000E+00 0. -1.
          2   -1    0    0  501    0  0.00000000000E+00 -0.00000000000E+00 -0.46763118111E+03  0.46763118111E+03  0.00000000000E+00 0.  1.
         25    2    1    2    0    0  0.38852799560E+02  0.19142279182E+02 -0.35319442868E+03  0.37718593101E+03  0.12508779001E+03 0.  0.
          5    1    3    3  502    0  0.25379793731E+01  0.69628974778E+02 -0.17514577673E+03  0.18854217293E+03  0.41800000000E+01 0.  1.
         -5    1    3    3    0  502  0.36314820187E+02 -0.50486695596E+02 -0.17804865196E+03  0.18864375808E+03  0.41800000000E+01 0.  1.
        -11    1    1    2    0    0 -0.10062890146E+02  0.18772256959E+02 -0.81273511182E+02  0.84018111198E+02  0.00000000000E+00 0.  1.
         11    1    1    2    0    0 -0.28789909415E+02 -0.37914536141E+02  0.88275577499E+01  0.48417937903E+02  0.00000000000E+00 0. -1.
</event>
<event>
 7    1  0.2841804E-009  0.1084334E+03  0.7561462E-02  0.1263499E+00
          2   -1    0    0  501    0  0.00000000000E+00  0.00000000000E+00  0.93395524289E+02  0.93395524289E+02  0.00000000000E+00 0. -1.
         -2   -1    0    0    0  501 -0.00000000000E+00 -0.00000000000E+00 -0.21265479821E+03  0.21265479821E+03  0.00000000000E+00 0.  1.
         25    2    1    2    0    0  0.61696991814E+02 -0.48111036181E+02 -0.20328476847E+02  0.14891804272E+03  0.12506856470E+03 0.  0.
          5    1    3    3  502    0  0.63019310092E+02 -0.18848940786E+02  0.43221092918E+02  0.78817836092E+02  0.41800000000E+01 0. -1.
         -5    1    3    3    0  502 -0.13223182782E+01 -0.29262095395E+02 -0.63549569765E+02  0.70100206632E+02  0.41800000000E+01 0. -1.
        -11    1    1    2    0    0 -0.21099306773E+02 -0.28027619853E+02 -0.21151521939E+02  0.40964803201E+02  0.00000000000E+00 0. -1.
         11    1    1    2    0    0 -0.40597685041E+02  0.76138656034E+02 -0.77779275140E+02  0.11616747658E+03  0.00000000000E+00 0.  1.
</event>
<event>
 7    1  0.2841804E-009  0.1343699E+03  0.7561462E-02  0.1221112E+00
          2   -1    0    0  501    0  0.00000000000E+00  0.00000000000E+00  0.37894182284E+03  0.37894182284E+03  0.00000000000E+00 0.  1.
         -2   -1    0    0    0  501 -0.00000000000E+00 -0.00000000000E+00 -0.15016543961E+03  0.15016543961E+03  0.00000000000E+00 0. -1.
         25    2    1    2    0    0  0.12466165905E+03 -0.20434134995E+02 -0.69923363075E+02  0.19103447418E+03  0.12508721162E+03 0.  0.
          5    1    3    3  502    0  0.67345494898E+02  0.17560726988E+02 -0.94895114120E+02  0.11775546654E+03  0.41800000000E+01 0. -1.
         -5    1    3    3    0  502  0.57316164151E+02 -0.37994861984E+02  0.24971751046E+02  0.73279007638E+02  0.41800000000E+01 0. -1.
        -11    1    1    2    0    0 -0.71268175693E+02  0.27244343033E+02  0.26210674614E+03  0.27298599500E+03  0.00000000000E+00 0.  1.
         11    1    1    2    0    0 -0.53393483356E+02 -0.68102080374E+01  0.36593000160E+02  0.65086793277E+02  0.00000000000E+00 0. -1.
</event>
<event>
 7    1  0.2841804E-009  0.1168612E+03  0.7561462E-02  0.1248367E+00
          2   -1    0    0  501    0  0.00000000000E+00  0.00000000000E+00  0.26021512666E+02  0.26021512666E+02  0.00000000000E+00 0. -1.
         -2   -1    0    0    0  501 -0.00000000000E+00 -0.00000000000E+00 -0.87737959223E+03  0.87737959223E+03  0.00000000000E+00 0.  1.
         25    2    1    2    0    0  0.36488830277E+02 -0.69783285334E+02 -0.67124038007E+03  0.68732350106E+03  0.12509518625E+03 0.  0.
          5    1    3    3  502    0 -0.26788905311E+01  0.21583363210E+02 -0.35748149170E+03  0.35816687078E+03  0.41800000000E+01 0. -1.
         -5    1    3    3    0  502  0.39167720808E+02 -0.91366648544E+02 -0.31375888838E+03  0.32915663028E+03  0.41800000000E+01 0. -1.
        -11    1    1    2    0    0  0.89609038739E+01 -0.14081428928E+02 -0.63652954328E+01  0.17863410224E+02  0.00000000000E+00 0. -1.
         11    1    1    2    0    0 -0.45449734151E+02  0.83864714262E+02 -0.17375240406E+03  0.19821419362E+03  0.00000000000E+00 0.  1.
</event>
<event>
 7    1  0.2841804E-009  0.1036848E+03  0.7561462E-02  0.1272733E+00
          2   -1    0    0  501    0  0.00000000000E+00  0.00000000000E+00  0.35170351741E+02  0.35170351741E+02  0.00000000000E+00 0. -1.
         -2   -1    0    0    0  501 -0.00000000000E+00 -0.00000000000E+00 -0.44691822131E+03  0.44691822131E+03  0.00000000000E+00 0.  1.
         25    2    1    2    0    0  0.89818273572E+01 -0.17174694239E+01 -0.10931699787E+03  0.16637654576E+03  0.12508927225E+03 0.  0.
          5    1    3    3  502    0 -0.40313441450E+02 -0.44367726308E+02 -0.51253323605E+02  0.78981290694E+02  0.41800000000E+01 0. -1.
         -5    1    3    3    0  502  0.49295268807E+02  0.42650256884E+02 -0.58063674261E+02  0.87395255064E+02  0.41800000000E+01 0. -1.
        -11    1    1    2    0    0  0.72459780067E+01 -0.38193134820E+02 -0.77626773046E+02  0.86816678341E+02  0.00000000000E+00 0. -1.
         11    1    1    2    0    0 -0.16227805364E+02  0.39910604244E+02 -0.22480409865E+03  0.22889534895E+03  0.00000000000E+00 0.  1.
</event>
<event>
 7    1  0.2841804E-009  0.6973101E+02  0.7561462E-02  0.1361010E+00
         -1   -1    0    0    0  501 -0.00000000000E+00  0.00000000000E+00  0.27153703375E+03  0.27153703375E+03  0.00000000000E+00 0.  1.
          1   -1    0    0  501    0  0.00000000000E+00 -0.00000000000E+00 -0.52710636018E+02  0.52710636018E+02  0.00000000000E+00 0. -1.
         25    2    1    2    0    0  0.26739949300E+02 -0.38307048646E+02  0.13946877088E+03  0.19308332692E+03  0.12508868142E+03 0.  0.
          5    1    3    3  502    0  0.19677934818E+02  0.22407946117E+02 -0.98505398969E+01  0.31683476831E+02  0.41800000000E+01 0. -1.
         -5    1    3    3    0  502  0.70620144824E+01 -0.60714994763E+02  0.14931931077E+03  0.16139985008E+03  0.41800000000E+01 0. -1.
        -11    1    1    2    0    0 -0.12957097653E+02  0.92457387084E+01 -0.20672300028E+02  0.26090497356E+02  0.00000000000E+00 0. -1.
         11    1    1    2    0    0 -0.13782851647E+02  0.29061309938E+02  0.10002992688E+03  0.10507384549E+03  0.00000000000E+00 0.  1.
</event>
<event>
 7    1  0.2841804E-009  0.1991746E+03  0.7561462E-02  0.1150437E+00
          2   -1    0    0  501    0  0.00000000000E+00  0.00000000000E+00  0.13958953752E+04  0.13958953752E+04  0.00000000000E+00 0. -1.
         -2   -1    0    0    0  501 -0.00000000000E+00 -0.00000000000E+00 -0.34981110950E+02  0.34981110950E+02  0.00000000000E+00 0.  1.
         25    2    1    2    0    0  0.13055717471E+03  0.11009499651E+03  0.41864837199E+03  0.46913803114E+03  0.12513172569E+03 0.  0.
          5    1    3    3  502    0  0.71867448046E+02 -0.10332984822E+02  0.10182964081E+03  0.12513372372E+03  0.41800000000E+01 0.  1.
         -5    1    3    3    0  502  0.58689726668E+02  0.12042798133E+03  0.31681873118E+03  0.34400430743E+03  0.41800000000E+01 0.  1.
        -11    1    1    2    0    0 -0.77463790894E+01 -0.57451169076E+02  0.24282762309E+03  0.24965155268E+03  0.00000000000E+00 0.  1.
         11    1    1    2    0    0 -0.12281079562E+03 -0.52643827430E+02  0.69943826917E+03  0.71208690233E+03  0.00000000000E+00 0. -1.
</event>
<event>
 7    1  0.2841804E-009  0.1709689E+03  0.7561462E-02  0.1176841E+00
          1   -1    0    0  501    0  0.00000000000E+00  0.00000000000E+00  0.57637230786E+03  0.57637230786E+03  0.00000000000E+00 0. -1.
         -1   -1    0    0    0  501 -0.00000000000E+00 -0.00000000000E+00 -0.65525018218E+02  0.65525018218E+02  0.00000000000E+00 0.  1.
         25    2    1    2    0    0  0.13713482131E+03  0.25600182088E+02  0.40077097477E+03  0.44240928874E+03  0.12508907231E+03 0.  0.
          5    1    3    3  502    0  0.11923372911E+03  0.69746865292E+02  0.31958990804E+03  0.34819030587E+03  0.41800000000E+01 0.  1.
         -5    1    3    3    0  502  0.17901092199E+02 -0.44146683204E+02  0.81181066723E+02  0.94218982876E+02  0.41800000000E+01 0.  1.
        -11    1    1    2    0    0 -0.13533419709E+03 -0.40223011985E+02  0.11685401807E+03  0.18327055720E+03  0.00000000000E+00 0. -1.
         11    1    1    2    0    0 -0.18006242137E+01  0.14622829896E+02 -0.67777031923E+01  0.16217480146E+02  0.00000000000E+00 0.  1.
</event>
<event>
 7    1  0.2841804E-009  0.1284518E+03  0.7561462E-02  0.1229771E+00
         -2   -1    0    0    0  501 -0.00000000000E+00  0.00000000000E+00  0.65321444386E+02  0.65321444386E+02  0.00000000000E+00 0.  1.
          2   -1    0    0  501    0  0.00000000000E+00 -0.00000000000E+00 -0.32124287438E+03  0.32124287438E+03  0.00000000000E+00 0. -1.
         25    2    1    2    0    0  0.82446805480E+02 -0.48938888780E+02 -0.12836718321E+03  0.20326886200E+03  0.12509039118E+03 0.  0.
          5    1    3    3  502    0  0.16953211715E+02 -0.77648434609E+02 -0.95897882930E+02  0.12462169609E+03  0.41800000000E+01 0. -1.
         -5    1    3    3    0  502  0.65493593765E+02  0.28709545829E+02 -0.32469300277E+02  0.78647165915E+02  0.41800000000E+01 0. -1.
        -11    1    1    2    0    0 -0.40962847806E+01  0.22685494304E+02  0.81181482440E+01  0.24440039520E+02  0.00000000000E+00 0.  1.
         11    1    1    2    0    0 -0.78350520699E+02  0.26253394476E+02 -0.13567239503E+03  0.15885541725E+03  0.00000000000E+00 0. -1.
</event>
<event>
 7    1  0.2841804E-009  0.8744063E+02  0.7561462E-02  0.1309171E+00
          1   -1    0    0  501    0  0.00000000000E+00  0.00000000000E+00  0.23497258356E+02  0.23497258356E+02  0.00000000000E+00 0. -1.
         -1   -1    0    0    0  501 -0.00000000000E+00 -0.00000000000E+00 -0.55777594726E+03  0.55777594726E+03  0.00000000000E+00 0.  1.
         25    2    1    2    0    0  0.20905595951E+02 -0.17169168493E+01 -0.38400150977E+03  0.40440567222E+03  0.12508715550E+03 0.  0.
          5    1    3    3  502    0  0.42399318210E+02 -0.26627216703E+02 -0.58054695015E+02  0.76775848203E+02  0.41800000000E+01 0. -1.
         -5    1    3    3    0  502 -0.21493722259E+02  0.24910299854E+02 -0.32594681476E+03  0.32762982402E+03  0.41800000000E+01 0. -1.
        -11    1    1    2    0    0  0.32800060141E+02 -0.13780313487E+02 -0.75929112812E+02  0.83850886444E+02  0.00000000000E+00 0. -1.
         11    1    1    2    0    0 -0.53705656092E+02  0.15497230336E+02 -0.74348066318E+02  0.93016646949E+02  0.00000000000E+00 0.  1.
</event>
<event>
 7    1  0.2841804E-009  0.3402214E+03  0.7561462E-02  0.1066702E+00
          1   -1    0    0  501    0  0.00000000000E+00  0.00000000000E+00  0.13313528684E+03  0.13313528684E+03  0.00000000000E+00 0. -1.
         -1   -1    0    0    0  501 -0.00000000000E+00 -0.00000000000E+00 -0.97454861204E+03  0.97454861204E+03  0.00000000000E+00 0.  1.
         25    2    1    2    0    0  0.11336774940E+03  0.30766095029E+03 -0.58318090231E+03  0.68062844796E+03  0.12509041697E+03 0.  0.
          5    1    3    3  502    0  0.10321303808E+03  0.11906076246E+03 -0.31935578610E+03  0.35613759546E+03  0.41800000000E+01 0.  1.
         -5    1    3    3    0  502  0.10154711322E+02  0.18860018783E+03 -0.26382511621E+03  0.32449085250E+03  0.41800000000E+01 0.  1.
        -11    1    1    2    0    0 -0.66893007745E+02 -0.25515472442E+03 -0.23474620715E+03  0.35310676806E+03  0.00000000000E+00 0.  1.
         11    1    1    2    0    0 -0.46474741654E+02 -0.52506225873E+02 -0.23486215739E+02  0.73948682861E+02  0.00000000000E+00 0. -1.
</event>
<event>
 7    1  0.2841804E-009  0.1363683E+03  0.7561462E-02  0.1218301E+00
          1   -1    0    0  501    0  0.00000000000E+00  0.00000000000E+00  0.48558179588E+03  0.48558179588E+03  0.00000000000E+00 0. -1.
         -1   -1    0    0    0  501 -0.00000000000E+00 -0.00000000000E+00 -0.44842045738E+02  0.44842045738E+02  0.00000000000E+00 0.  1.
         25    2    1    2    0    0  0.95552091060E+02 -0.21733656717E+02  0.19833876074E+03  0.25414190975E+03  0.12508913758E+03 0.  0.
          5    1    3    3  502    0  0.11767444420E+03 -0.19115617256E+02  0.10771069939E+03  0.16072258337E+03  0.41800000000E+01 0. -1.
         -5    1    3    3    0  502 -0.22122353137E+02 -0.26180394608E+01  0.90628061348E+02  0.93419326388E+02  0.41800000000E+01 0. -1.
        -11    1    1    2    0    0 -0.93905352049E+00 -0.25164621824E+02  0.66624533727E+02  0.71224774534E+02  0.00000000000E+00 0. -1.
         11    1    1    2    0    0 -0.94613037540E+02  0.46898278541E+02  0.17577645567E+03  0.20505715733E+03  0.00000000000E+00 0.  1.
</event>
<event>
 7    1  0.2841804E-009  0.7316385E+02  0.7561462E-02  0.1349653E+00
         -2   -1    0    0    0  501 -0.00000000000E+00  0.00000000000E+00  0.72740920500E+02  0.72740920500E+02  0.00000000000E+00 0.  1.
          2   -1    0    0  501    0  0.00000000000E+00 -0.00000000000E+00 -0.19853037433E+03  0.19853037433E+03  0.00000000000E+00 0. -1.
         25    2    1    2    0    0 -0.33103196509E+02 -0.39155452518E+02 -0.80096314055E+02  0.15713646199E+03  0.12508987601E+03 0.  0.
          5    1    3    3  502    0 -0.38232113088E+02 -0.50368513128E+01  0.25198200843E+02  0.46254578887E+02  0.41800000000E+01 0.  1.
         -5    1    3    3    0  502  0.51289165790E+01 -0.34118601205E+02 -0.10529451490E+03  0.11088188311E+03  0.41800000000E+01 0.  1.
        -11    1    1    2    0    0  0.11824858341E+02 -0.12325179211E+02  0.21109581686E+02  0.27154221704E+02  0.00000000000E+00 0.  1.
         11    1    1    2    0    0  0.21278338168E+02  0.51480631729E+02 -0.66802721457E+02  0.86980611130E+02  0.00000000000E+00 0. -1.
</event>
<event>
 7    1  0.2841804E-009  0.8481733E+02  0.7561462E-02  0.1315911E+00
         -2   -1    0    0    0  501 -0.00000000000E+00  0.00000000000E+00  0.29448742503E+03  0.29448742503E+03  0.00000000000E+00 0.  1.
          2   -1    0    0  501    0  0.00000000000E+00 -0.00000000000E+00 -0.50723462516E+02  0.50723462516E+02  0.00000000000E+00 0. -1.
         25    2    1    2    0    0 -0.11622114675E+02 -0.29722321434E+02  0.20335256272E+03  0.24086694047E+03  0.12508448466E+03 0.  0.
          5    1    3    3  502    0 -0.20290329744E+01 -0.71270503490E+02  0.17624357410E+03  0.19016537922E+03  0.41800000000E+01 0.  1.
         -5    1    3    3    0  502 -0.95930817001E+01  0.41548182056E+02  0.27108988623E+02  0.50701561247E+02  0.41800000000E+01 0.  1.
        -11    1    1    2    0    0  0.21035583606E+02  0.37605342913E+02  0.64347761186E+02  0.77442184648E+02  0.00000000000E+00 0.  1.
         11    1    1    2    0    0 -0.94134689318E+01 -0.78830214794E+01 -0.23936361397E+02  0.26901762431E+02  0.00000000000E+00 0. -1.
</event>
<event>
 7    1  0.2841804E-009  0.2024884E+03  0.7561462E-02  0.1147656E+00
          2   -1    0    0  501    0  0.00000000000E+00  0.00000000000E+00  0.73265448855E+03  0.73265448855E+03  0.00000000000E+00 0. -1.
         -2   -1    0    0    0  501 -0.00000000000E+00 -0.00000000000E+00 -0.65729086727E+02  0.65729086727E+02  0.00000000000E+00 0.  1.
         25    2    1    2    0    0  0.15667470744E+03  0.10607766412E+03  0.31257168216E+03  0.38619536472E+03  0.12508544468E+03 0.  0.
          5    1    3    3  502    0  0.72397067362E+02 -0.89285859414E+01  0.16750837301E+03  0.18275005455E+03  0.41800000000E+01 0.  1.
         -5    1    3    3    0  502  0.84277640075E+02  0.11500625006E+03  0.14506330914E+03  0.20344531017E+03  0.41800000000E+01 0.  1.
        -11    1    1    2    0    0 -0.13294180189E+03 -0.92081820066E+02  0.34825122182E+03  0.38396809474E+03  0.00000000000E+00 0. -1.
         11    1    1    2    0    0 -0.23732905545E+02 -0.13995844057E+02  0.61024978384E+01  0.28220115810E+02  0.00000000000E+00 0.  1.
</event>
<event>
 7    1  0.2841804E-009  0.1808498E+03  0.7561462E-02  0.1166983E+00
          2   -1    0    0  501    0  0.00000000000E+00  0.00000000000E+00  0.15109021905E+04  0.15109021905E+04  0.00000000000E+00 0.  1.
         -2   -1    0    0    0  501 -0.00000000000E+00 -0.00000000000E+00 -0.33743720993E+02  0.33743720993E+02  0.00000000000E+00 0. -1.
         25    2    1    2    0    0  0.26972566941E+02 -0.16111816089E+03  0.11439219594E+04  0.11622778923E+04  0.12508344596E+03 0.  0.
          5    1    3    3  502    0  0.44954459503E+02 -0.13410273315E+03  0.56560341009E+03  0.58303442126E+03  0.41800000000E+01 0. -1.
         -5    1    3    3    0  502 -0.17981892562E+02 -0.27015427744E+02  0.57831854934E+03  0.57924347101E+03  0.41800000000E+01 0. -1.
        -11    1    1    2    0    0 -0.46893070013E+02  0.31852138285E+02  0.10374636091E+03  0.11822362763E+03  0.00000000000E+00 0. -1.
         11    1    1    2    0    0  0.19920503073E+02  0.12926602261E+03  0.22949014916E+03  0.26414439158E+03  0.00000000000E+00 0.  1.
</event>
<event>
 7    1  0.2841804E-009  0.1109026E+03  0.7561462E-02  0.1258907E+00
          1   -1    0    0  501    0  0.00000000000E+00  0.00000000000E+00  0.14803932799E+04  0.14803932799E+04  0.00000000000E+00 0. -1.
         -1   -1    0    0    0  501 -0.00000000000E+00 -0.00000000000E+00 -0.14663750224E+02  0.14663750224E+02  0.00000000000E+00 0.  1.
         25    2    1    2    0    0 -0.66197155114E+02  0.64017676759E+02  0.10154344662E+04  0.10272458719E+04  0.12508637003E+03 0.  0.
          5    1    3    3  502    0 -0.58544308155E+02  0.43428135504E+02  0.99261810531E+03  0.99529976106E+03  0.41800000000E+01 0. -1.
         -5    1    3    3    0  502 -0.76528469596E+01  0.20589541255E+02  0.22816360892E+02  0.31946110875E+02  0.41800000000E+01 0. -1.
        -11    1    1    2    0    0 -0.12845820169E+02  0.11405262879E+02  0.74626760729E+02  0.76578381637E+02  0.00000000000E+00 0. -1.
         11    1    1    2    0    0  0.79042975283E+02 -0.75422939638E+02  0.37566830278E+03  0.39123277659E+03  0.00000000000E+00 0.  1.
</event>
<event>
 7    1  0.2841804E-009  0.1050779E+03  0.7561462E-02  0.1269966E+00
          2   -1    0    0  501    0  0.00000000000E+00  0.00000000000E+00  0.67729868047E+03  0.67729868047E+03  0.00000000000E+00 0.  1.
         -2   -1    0    0    0  501 -0.00000000000E+00 -0.00000000000E+00 -0.22128407125E+02  0.22128407125E+02  0.00000000000E+00 0. -1.
         25    2    1    2    0    0  0.50287171225E+02 -0.35343499556E+01  0.44551204219E+03  0.46547715120E+03  0.12508679920E+03 0.  0.
          5    1    3    3  502    0  0.63437770471E+01 -0.50675372115E+02  0.32247438928E+03  0.32652019997E+03  0.41800000000E+01 0. -1.
         -5    1    3    3    0  502  0.43943394178E+02  0.47141022159E+02  0.12303765291E+03  0.13895695123E+03  0.41800000000E+01 0. -1.
        -11    1    1    2    0    0  0.18718972586E+02 -0.13712125073E+02  0.10415991071E+03  0.10671321056E+03  0.00000000000E+00 0. -1.
         11    1    1    2    0    0 -0.69006143811E+02  0.17246475028E+02  0.10549832044E+03  0.12723672583E+03  0.00000000000E+00 0.  1.
</event>
<event>
 7    1  0.2841804E-009  0.1012029E+03  0.7561462E-02  0.1277787E+00
         -2   -1    0    0    0  501 -0.00000000000E+00  0.00000000000E+00  0.42280654721E+02  0.42280654721E+02  0.00000000000E+00 0.  1.
          2   -1    0    0  501    0  0.00000000000E+00 -0.00000000000E+00 -0.31772145828E+03  0.31772145828E+03  0.00000000000E+00 0. -1.
         25    2    1    2    0    0  0.86149174771E+01 -0.27219428759E+02 -0.10902414942E+03  0.16837225677E+03  0.12509131700E+03 0.  0.
          5    1    3    3  502    0  0.58327942805E+02 -0.13148329913E+02 -0.16252802648E+02  0.62101960398E+02  0.41800000000E+01 0.  1.
         -5    1    3    3    0  502 -0.49713025327E+02 -0.14071098846E+02 -0.92771346769E+02  0.10627029637E+03  0.41800000000E+01 0.  1.
        -11    1    1    2    0    0  0.82843424758E+01  0.56350093383E+02 -0.13053354408E+03  0.14241829056E+03  0.00000000000E+00 0. -1.
         11    1    1    2    0    0 -0.16899259953E+02 -0.29130664624E+02 -0.35883110058E+02  0.49211565672E+02  0.00000000000E+00 0.  1.
</event>
<event>
 7    1  0.2841804E-009  0.9160788E+02  0.7561462E-02  0.1299004E+00
          2   -1    0    0  501    0  0.00000000000E+00  0.00000000000E+00  0.14574199284E+03  0.14574199284E+03  0.00000000000E+00 0. -1.
         -2   -1    0    0    0  501 -0.00000000000E+00 -0.00000000000E+00 -0.10586457170E+03  0.10586457170E+03  0.00000000000E+00 0.  1.
         25    2    1    2    0    0  0.76591582398E+01  0.47906397336E+02 -0.18899127677E+02  0.13548851953E+03  0.12508507619E+03 0.  0.
          5    1    3    3  502    0  0.48800454252E+02  0.30509441015E+02  0.33328438450E+02  0.66637583508E+02  0.41800000000E+01 0. -1.
         -5    1    3    3    0  502 -0.41141296012E+02  0.17396956321E+02 -0.52227566128E+02  0.68850936017E+02  0.41800000000E+01 0. -1.
        -11    1    1    2    0    0  0.26976807103E+02 -0.33809727875E+02 -0.35875875001E+01  0.43401804162E+02  0.00000000000E+00 0.  1.
         11    1    1    2    0    0 -0.34635965343E+02 -0.14096669461E+02  0.62364136318E+02  0.72716240853E+02  0.00000000000E+00 0. -1.
</event>
<event>
 7    1  0.2841804E-009  0.9660496E+02  0.7561462E-02  0.1287602E+00
          2   -1    0    0  501    0  0.00000000000E+00  0.00000000000E+00  0.67709316035E+03  0.67709316035E+03  0.00000000000E+00 0.  1.
         -2   -1    0    0    0  501 -0.00000000000E+00 -0.00000000000E+00 -0.65117144141E+02  0.65117144141E+02  0.00000000000E+00 0. -1.
         25    2    1    2    0    0  0.21883378409E+02 -0.39836508308E+02  0.62345256114E+03  0.63750062832E+03  0.12509246769E+03 0.  0.
          5    1    3    3  502    0 -0.57875157559E+01 -0.70051939857E+02  0.53858039114E+03  0.54316395291E+03  0.41800000000E+01 0. -1.
         -5    1    3    3    0  502  0.27670894165E+02  0.30215431549E+02  0.84872170000E+02  0.94336675413E+02  0.41800000000E+01 0. -1.
        -11    1    1    2    0    0 -0.44003281673E+02  0.11163217918E+02  0.26229366707E+02  0.52429818903E+02  0.00000000000E+00 0.  1.
         11    1    1    2    0    0  0.22119903264E+02  0.28673290390E+02 -0.37705911645E+02  0.52279857261E+02  0.00000000000E+00 0. -1.
</event>
<event>
 7    1  0.2841804E-009  0.7794239E+02  0.7561462E-02  0.1334994E+00
         -1   -1    0    0    0  501 -0.00000000000E+00  0.00000000000E+00  0.33209892658E+03  0.33209892658E+03  0.00000000000E+00 0.  1.
          1   -1    0    0  501    0  0.00000000000E+00 -0.00000000000E+00 -0.40838176656E+02  0.40838176656E+02  0.00000000000E+00 0. -1.
         25    2    1    2    0    0 -0.23212676009E+02 -0.21975634604E+02  0.20662112176E+03  0.24364425972E+03  0.12509388671E+03 0.  0.
          5    1    3    3  502    0  0.90650539194E+01  0.18317866758E+02  0.18714951637E+03  0.18830861192E+03  0.41800000000E+01 0.  1.
         -5    1    3    3    0  502 -0.32277729928E+02 -0.40293501362E+02  0.19471605393E+02  0.55335647804E+02  0.41800000000E+01 0.  1.
        -11    1    1    2    0    0  0.10662201318E+02 -0.28911521139E+02  0.67413728606E+02  0.74122664524E+02  0.00000000000E+00 0.  1.
         11    1    1    2    0    0  0.12550474691E+02  0.50887155743E+02  0.17225899558E+02  0.55170178993E+02  0.00000000000E+00 0. -1.
</event>
<event>
 7    1  0.2841804E-009  0.9603304E+02  0.7561462E-02  0.1288866E+00
         -1   -1    0    0    0  501 -0.00000000000E+00  0.00000000000E+00  0.34803296365E+02  0.34803296365E+02  0.00000000000E+00 0.  1.
          1   -1    0    0  501    0  0.00000000000E+00 -0.00000000000E+00 -0.50948261696E+03  0.50948261696E+03  0.00000000000E+00 0. -1.
         25    2    1    2    0    0  0.12695656895E+01  0.47961686087E+02 -0.38349415908E+03  0.40622472614E+03  0.12509525549E+03 0.  0.
          5    1    3    3  502    0  0.29236701517E+02  0.53403237741E+02 -0.36895138880E+03  0.37396429002E+03  0.41800000000E+01 0. -1.
         -5    1    3    3    0  502 -0.27967135828E+02 -0.54415516539E+01 -0.14542770286E+02  0.32260436116E+02  0.41800000000E+01 0. -1.
        -11    1    1    2    0    0 -0.23745644084E+02  0.19758463736E+02 -0.38524668065E+02  0.49380183796E+02  0.00000000000E+00 0. -1.
         11    1    1    2    0    0  0.22476078395E+02 -0.67720149823E+02 -0.52660493446E+02  0.88681003389E+02  0.00000000000E+00 0.  1.
</event>
<event>
 7    1  0.2841804E-009  0.9013312E+02  0.7561462E-02  0.1302530E+00
          1   -1    0    0  501    0  0.00000000000E+00  0.00000000000E+00  0.71977531337E+03  0.71977531337E+03  0.00000000000E+00 0. -1.
         -1   -1    0    0    0  501 -0.00000000000E+00 -0.00000000000E+00 -0.25368621039E+02  0.25368621039E+02  0.00000000000E+00 0.  1.
         25    2    1    2    0    0  0.14643128937E+02 -0.33167076982E+02  0.58384098645E+03  0.59819093991E+03  0.12509047488E+03 0.  0.
          5    1    3    3  502    0 -0.16858900520E+02  0.37416741525E+02  0.99642661677E+02  0.10784418157E+03  0.41800000000E+01 0.  1.
         -5    1    3    3    0  502  0.31502029457E+02 -0.70583818507E+02  0.48419832477E+03  0.49034675833E+03  0.41800000000E+01 0.  1.
        -11    1    1    2    0    0  0.12083638879E+01  0.42958319964E+02  0.92773611731E+01  0.43965291171E+02  0.00000000000E+00 0.  1.
         11    1    1    2    0    0 -0.15851492825E+02 -0.97912429822E+01  0.10128834471E+03  0.10298770333E+03  0.00000000000E+00 0. -1.
</event>
<event>
 7    1  0.2841804E-009  0.1147885E+03  0.7561462E-02  0.1251951E+00
          2   -1    0    0  501    0  0.00000000000E+00  0.00000000000E+00  0.86353342534E+03  0.86353342534E+03  0.00000000000E+00 0. -1.
         -2   -1    0    0    0  501 -0.00000000000E+00 -0.00000000000E+00 -0.16315659997E+02  0.16315659997E+02  0.00000000000E+00 0.  1.
         25    2    1    2    0    0 -0.31466689126E+01  0.40435567533E+02  0.37441567690E+03  0.39683700478E+03  0.12509025783E+03 0.  0.
          5    1    3    3  502    0  0.46959176685E+02  0.60564416205E+02  0.23773305536E+03  0.24981531338E+03  0.41800000000E+01 0.  1.
         -5    1    3    3    0  502 -0.50105845597E+02 -0.20128848671E+02  0.13668262154E+03  0.14702169140E+03  0.41800000000E+01 0.  1.
        -11    1    1    2    0    0  0.43578640061E+02 -0.31914279863E+01  0.19762542489E+03  0.20239834892E+03  0.00000000000E+00 0.  1.
         11    1    1    2    0    0 -0.40431971148E+02 -0.37244139547E+02  0.27517666355E+03  0.28061373164E+03  0.00000000000E+00 0. -1.
</event>
<event>
 7    1  0.2841804E-009  0.1258646E+03  0.7561462E-02  0.1233724E+00
         -1   -1    0    0    0  501 -0.00000000000E+00  0.00000000000E+00  0.61335210502E+02  0.61335210502E+02  0.00000000000E+00 0.  1.
          1   -1    0    0  501    0  0.00000000000E+00 -0.00000000000E+00 -0.42207005829E+03  0.42207005829E+03  0.00000000000E+00 0. -1.
         25    2    1    2    0    0 -0.91431019460E+02 -0.69902910996E+01 -0.80250785072E+02  0.17463691225E+03  0.12509743053E+03 0.  0.
          5    1    3    3  502    0 -0.10777191194E+03 -0.28817393910E+02 -0.91993727973E+02  0.14465664721E+03  0.41800000000E+01 0.  1.
         -5    1    3    3    0  502  0.16340892478E+02  0.21827102811E+02  0.11742942900E+02  0.29980265043E+02  0.41800000000E+01 0.  1.
        -11    1    1    2    0    0  0.32871126920E+02 -0.28947272734E+02 -0.42371039896E+02  0.60940631812E+02  0.00000000000E+00 0. -1.
         11    1    1    2    0    0  0.58559892540E+02  0.35937563834E+02 -0.23811302282E+03  0.24782772473E+03  0.00000000000E+00 0.  1.
</event>
<event>
 7    1  0.2841804E-009  0.1043567E+03  0.7561462E-02  0.1271392E+00
         -2   -1    0    0    0  501 -0.00000000000E+00  0.00000000000E+00  0.76109507398E+02  0.76109507398E+02  0.00000000000E+00 0.  1.
          2   -1    0    0  501    0  0.00000000000E+00 -0.00000000000E+00 -0.19562742022E+03  0.19562742022E+03  0.00000000000E+00 0. -1.
         25    2    1    2    0    0  0.24236746265E+02 -0.68725869577E+01 -0.12636882094E+03  0.17958744290E+03  0.12509164009E+03 0.  0.
          5    1    3    3  502    0 -0.16379640139E+02  0.48210252677E+02 -0.85972674146E+02  0.10000647066E+03  0.41800000000E+01 0. -1.
         -5    1    3    3    0  502  0.40616386404E+02 -0.55082839635E+02 -0.40396146798E+02  0.79580972241E+02  0.41800000000E+01 0. -1.
        -11    1    1    2    0    0 -0.36456726042E+02 -0.31877605299E+02 -0.76083500275E+01  0.49022052012E+02  0.00000000000E+00 0. -1.
         11    1    1    2    0    0  0.12219979777E+02  0.38750192257E+02  0.14459258147E+02  0.43127432707E+02  0.00000000000E+00 0.  1.
</event>
<event>
 7    1  0.2841804E-009  0.2134675E+03  0.7561462E-02  0.1138849E+00
          2   -1    0    0  501    0  0.00000000000E+00  0.00000000000E+00  0.13441564535E+04  0.13441564535E+04  0.00000000000E+00 0. -1.
         -2   -1    0    0    0  501 -0.00000000000E+00 -0.00000000000E+00 -0.45813863546E+02  0.45813863546E+02  0.00000000000E+00 0.  1.
         25    2    1    2    0    0 -0.86581007104E+02  0.17810027415E+03  0.95790884463E+03  0.98613011750E+03  0.12508907056E+03 0.  0.
          5    1    3    3  502    0 -0.11481839566E+03  0.13594928737E+03  0.82073349945E+03  0.83981332583E+03  0.41800000000E+01 0.  1.
         -5    1    3    3    0  502  0.28237388560E+02  0.42150986780E+02  0.13717534518E+03  0.14631679167E+03  0.41800000000E+01 0.  1.
        -11    1    1    2    0    0  0.31685793418E+02 -0.65713144837E+02  0.52401304388E+02  0.89822623044E+02  0.00000000000E+00 0.  1.
         11    1    1    2    0    0  0.54895213685E+02 -0.11238712931E+03  0.28803244090E+03  0.31401757647E+03  0.00000000000E+00 0. -1.
</event>
<event>
 7    1  0.2841804E-009  0.8785191E+02  0.7561462E-02  0.1308139E+00
          1   -1    0    0  501    0  0.00000000000E+00  0.00000000000E+00  0.10495947928E+03  0.10495947928E+03  0.00000000000E+00 0. -1.
         -1   -1    0    0    0  501 -0.00000000000E+00 -0.00000000000E+00 -0.15417711909E+03  0.15417711909E+03  0.00000000000E+00 0.  1.
         25    2    1    2    0    0  0.47045008024E+02 -0.22856384618E+02 -0.64225023633E+02  0.15002626466E+03  0.12508948529E+03 0.  0.
          5    1    3    3  502    0  0.41518259192E+02  0.34751499979E+02  0.10611609439E+02  0.55330924916E+02  0.41800000000E+01 0.  1.
         -5    1    3    3    0  502  0.55267488325E+01 -0.57607884597E+02 -0.74836633073E+02  0.94695339748E+02  0.41800000000E+01 0.  1.
        -11    1    1    2    0    0 -0.32896558071E+02  0.32508856322E+02  0.51244748895E+02  0.69029222519E+02  0.00000000000E+00 0. -1.
         11    1    1    2    0    0 -0.14148449954E+02 -0.96524717037E+01 -0.36237365078E+02  0.40081111186E+02  0.00000000000E+00 0.  1.
</event>
<event>
 7    1  0.2841804E-009  0.1938419E+03  0.7561462E-02  0.1155041E+00
          2   -1    0    0  501    0  0.00000000000E+00  0.00000000000E+00  0.66092267003E+03  0.66092267003E+03  0.00000000000E+00 0. -1.
         -2   -1    0    0    0  501 -0.00000000000E+00 -0.00000000000E+00 -0.76668985508E+02  0.76668985508E+02  0.00000000000E+00 0.  1.
         25    2    1    2    0    0 -0.14059059953E+03  0.11094317769E+03  0.43713428475E+03  0.48868011614E+03  0.12509103745E+03 0.  0.
          5    1    3    3  502    0 -0.52982201843E+02  0.10841397616E+03  0.32220527090E+03  0.34408489204E+03  0.41800000000E+01 0. -1.
         -5    1    3    3    0  502 -0.87608397688E+02  0.25292015369E+01  0.11492901386E+03  0.14459522410E+03  0.41800000000E+01 0. -1.
        -11    1    1    2    0    0  0.10383649629E+03 -0.78427525421E+02  0.15141853309E+03  0.19965086243E+03  0.00000000000E+00 0. -1.
         11    1    1    2    0    0  0.36754103240E+02 -0.32515652273E+02 -0.42991333253E+01  0.49260676965E+02  0.00000000000E+00 0.  1.
</event>
<event>
 7    1  0.2841804E-009  0.3401218E+03  0.7561462E-02  0.1066744E+00
          1   -1    0    0  501    0  0.00000000000E+00  0.00000000000E+00  0.89155500226E+03  0.89155500226E+03  0.00000000000E+00 0. -1.
         -1   -1    0    0    0  501 -0.00000000000E+00 -0.00000000000E+00 -0.13520400877E+03  0.13520400877E+03  0.00000000000E+00 0.  1.
         25    2    1    2    0    0  0.22454114875E+03 -0.23871939152E+03  0.33985651797E+03  0.48842359632E+03  0.12509788674E+03 0.  0.
          5    1    3    3  502    0  0.32521609619E+02 -0.12126281168E+03  0.11813930781E+03  0.17244330384E+03  0.41800000000E+01 0. -1.
         -5    1    3    3    0  502  0.19201953913E+03 -0.11745657984E+03  0.22171721016E+03  0.31598029248E+03  0.41800000000E+01 0. -1.
        -11    1    1    2    0    0 -0.91792443858E+02  0.12237670911E+03  0.26376906927E+03  0.30491971663E+03  0.00000000000E+00 0. -1.
         11    1    1    2    0    0 -0.13274870489E+03  0.11634268241E+03  0.15272540624E+03  0.23341569809E+03  0.00000000000E+00 0.  1.
</event>
<event>
 7    1  0.2841804E-009  0.1183603E+03  0.7561462E-02  0.1245827E+00
         -2   -1    0    0    0  501 -0.00000000000E+00  0.00000000000E+00  0.42771299641E+02  0.42771299641E+02  0.00000000000E+00 0.  1.
          2   -1    0    0  501    0  0.00000000000E+00 -0.00000000000E+00 -0.41844472993E+03  0.41844472993E+03  0.00000000000E+00 0. -1.
         25    2    1    2    0    0 -0.17097719596E+02  0.73430210455E+02 -0.20308617620E+03  0.25015713880E+03  0.12510104438E+03 0.  0.
          5    1    3    3  502    0 -0.34216444903E+02 -0.95114988103E+01 -0.68830267631E+01  0.36415411145E+02  0.41800000000E+01 0. -1.
         -5    1    3    3    0  502  0.17118725308E+02  0.82941709266E+02 -0.19620314943E+03  0.21374172765E+03  0.41800000000E+01 0. -1.
        -11    1    1    2    0    0  0.22356990505E+01 -0.92200113813E+02 -0.15821919859E+03  0.18313703651E+03  0.00000000000E+00 0.  1.
         11    1    1    2    0    0  0.14862020545E+02  0.18769903358E+02 -0.14368055496E+02  0.27921854263E+02  0.00000000000E+00 0. -1.
</event>
<event>
 7    1  0.2841804E-009  0.1428523E+03  0.7561462E-02  0.1209542E+00
          1   -1    0    0  501    0  0.00000000000E+00  0.00000000000E+00  0.78286927149E+03  0.78286927149E+03  0.00000000000E+00 0. -1.
         -1   -1    0    0    0  501 -0.00000000000E+00 -0.00000000000E+00 -0.33454024180E+02  0.33454024180E+02  0.00000000000E+00 0.  1.
         25    2    1    2    0    0  0.35791811876E+02 -0.10055574206E+03  0.53636212579E+03  0.56100324221E+03  0.12509115370E+03 0.  0.
          5    1    3    3  502    0 -0.58658899973E+01  0.22688016289E+02  0.30642459244E+02  0.38801900175E+02  0.41800000000E+01 0.  1.
         -5    1    3    3    0  502  0.41657701873E+02 -0.12324375835E+03  0.50571966655E+03  0.52220134204E+03  0.41800000000E+01 0.  1.
        -11    1    1    2    0    0  0.22551968809E+02  0.48756338207E+02  0.45143019488E+02  0.70168825137E+02  0.00000000000E+00 0.  1.
         11    1    1    2    0    0 -0.58343780685E+02  0.51799403851E+02  0.16791010204E+03  0.18515122832E+03  0.00000000000E+00 0. -1.
</event>
<event>
 7    1  0.2841804E-009  0.1245642E+03  0.7561462E-02  0.1235752E+00
          2   -1    0    0  501    0  0.00000000000E+00  0.00000000000E+00  0.32003862155E+03  0.32003862155E+03  0.00000000000E+00 0. -1.
         -2   -1    0    0    0  501 -0.00000000000E+00 -0.00000000000E+00 -0.51620315374E+02  0.51620315374E+02  0.00000000000E+00 0.  1.
         25    2    1    2    0    0  0.66895579916E+02  0.82505569619E+01  0.16220340323E+03  0.21564055675E+03  0.12509122828E+03 0.  0.
          5    1    3    3  502    0  0.46800676612E+02  0.64977015403E+02  0.76418102061E+02  0.11076784093E+03  0.41800000000E+01 0. -1.
         -5    1    3    3    0  502  0.20094903304E+02 -0.56726458441E+02  0.85785301171E+02  0.10487271582E+03  0.41800000000E+01 0. -1.
        -11    1    1    2    0    0  0.12536545273E+02 -0.24517097868E+02  0.80310026828E+01  0.28683620053E+02  0.00000000000E+00 0.  1.
         11    1    1    2    0    0 -0.79432125188E+02  0.16266540906E+02  0.98183900265E+02  0.12733476013E+03  0.00000000000E+00 0. -1.
</event>
<event>
 7    1  0.2841804E-009  0.9015116E+02  0.7561462E-02  0.1302486E+00
          2   -1    0    0  501    0  0.00000000000E+00  0.00000000000E+00  0.30125149146E+03  0.30125149146E+03  0.00000000000E+00 0.  1.
         -2   -1    0    0    0  501 -0.00000000000E+00 -0.00000000000E+00 -0.69883857340E+02  0.69883857340E+02  0.00000000000E+00 0. -1.
         25    2    1    2    0    0  0.70497567815E+01 -0.55558068617E+02  0.27050563663E+02  0.13969795189E+03  0.12508951478E+03 0.  0.
          5    1    3    3  502    0  0.29275839309E+02 -0.50557353042E+02  0.69774627969E+02  0.91099351381E+02  0.41800000000E+01 0. -1.
         -5    1    3    3    0  502 -0.22226082528E+02 -0.50007155751E+01 -0.42724064305E+02  0.48598600510E+02  0.41800000000E+01 0. -1.
        -11    1    1    2    0    0  0.27699157689E+02 -0.55708557418E+01  0.11132093545E+03  0.11485046121E+03  0.00000000000E+00 0.  1.
         11    1    1    2    0    0 -0.34748914470E+02  0.61128924359E+02  0.92996135010E+02  0.11658693570E+03  0.00000000000E+00 0. -1.
</event>
<event>
 7    1  0.2841804E-009  0.1065532E+03  0.7561462E-02  0.1267089E+00
         -2   -1    0    0    0  501 -0.00000000000E+00  0.00000000000E+00  0.51679038375E+03  0.51679038375E+03  0.00000000000E+00 0.  1.
          2   -1    0    0  501    0  0.00000000000E+00 -0.00000000000E+00 -0.30884464090E+02  0.30884464090E+02  0.00000000000E+00 0. -1.
         25    2    1    2    0    0 -0.81154927496E+01 -0.45180921025E+02  0.36638147136E+03  0.38985861222E+03  0.12508868102E+03 0.  0.
          5    1    3    3  502    0 -0.57529373350E+02 -0.46618292639E+02  0.28548629442E+03  0.29496235473E+03  0.41800000000E+01 0. -1.
         -5    1    3    3    0  502  0.49413880601E+02  0.14373716137E+01  0.80895176938E+02  0.94896257487E+02  0.41800000000E+01 0. -1.
        -11    1    1    2    0    0 -0.27733807451E+02 -0.44686902683E+01  0.80349737303E+02  0.85118820205E+02  0.00000000000E+00 0. -1.
         11    1    1    2    0    0  0.35849300201E+02  0.49649611294E+02  0.39174710998E+02  0.72697415417E+02  0.00000000000E+00 0.  1.
</event>
<event>
 7    1  0.2841804E-009  0.1591658E+03  0.7561462E-02  0.1189642E+00
         -2   -1    0    0    0  501 -0.00000000000E+00  0.00000000000E+00  0.55090217418E+02  0.55090217418E+02  0.00000000000E+00 0.  1.
          2   -1    0    0  501    0  0.00000000000E+00 -0.00000000000E+00 -0.59741568074E+03  0.59741568074E+03  0.00000000000E+00 0. -1.
         25    2    1    2    0    0 -0.10922082602E+03 -0.60917450989E+02 -0.15031094602E+03  0.23212197465E+03  0.12508839254E+03 0.  0.
          5    1    3    3  502    0 -0.27033008368E+02 -0.84504063879E+02 -0.95762091150E+02  0.13061229213E+03  0.41800000000E+01 0.  1.
         -5    1    3    3    0  502 -0.82187817648E+02  0.23586612889E+02 -0.54548854871E+02  0.10150968252E+03  0.41800000000E+01 0.  1.
        -11    1    1    2    0    0  0.72966629213E+01  0.38964023565E+02 -0.17751718988E+03  0.18188949702E+03  0.00000000000E+00 0. -1.
         11    1    1    2    0    0  0.10192416309E+03  0.21953427424E+02 -0.21449732742E+03  0.23849442650E+03  0.00000000000E+00 0.  1.
</event>
<event>
 7    1  0.2841804E-009  0.1806356E+03  0.7561462E-02  0.1167189E+00
         -2   -1    0    0    0  501 -0.00000000000E+00  0.00000000000E+00  0.51585267064E+02  0.51585267064E+02  0.00000000000E+00 0.  1.
          2   -1    0    0  501    0  0.00000000000E+00 -0.00000000000E+00 -0.74769651299E+03  0.74769651299E+03  0.00000000000E+00 0. -1.
         25    2    1    2    0    0 -0.14844724467E+03  0.31663768176E+02 -0.24305729568E+03  0.31267181537E+03  0.12509051314E+03 0.  0.
          5    1    3    3  502    0 -0.33351143704E+02 -0.39820028092E+02 -0.11473516412E+03  0.12601414091E+03  0.41800000000E+01 0.  1.
         -5    1    3    3    0  502 -0.11509610096E+03  0.71483796267E+02 -0.12832213157E+03  0.18665767446E+03  0.41800000000E+01 0.  1.
        -11    1    1    2    0    0  0.79662437539E+02 -0.59474414909E+02 -0.30857258610E+03  0.32419184270E+03  0.00000000000E+00 0.  1.
         11    1    1    2    0    0  0.68784807129E+02  0.27810646733E+02 -0.14448136415E+03  0.16241812198E+03  0.00000000000E+00 0. -1.
</event>
<event>
 7    1  0.2841804E-009  0.1547284E+03  0.7561462E-02  0.1194780E+00
          1   -1    0    0  501    0  0.00000000000E+00  0.00000000000E+00  0.34694138751E+02  0.34694138751E+02  0.00000000000E+00 0. -1.
         -1   -1    0    0    0  501 -0.00000000000E+00 -0.00000000000E+00 -0.78693576477E+03  0.78693576477E+03  0.00000000000E+00 0.  1.
         25    2    1    2    0    0  0.11791801933E+03 -0.31242920433E+02 -0.35317436205E+03  0.39402986845E+03  0.12508648152E+03 0.  0.
          5    1    3    3  502    0  0.13490314118E+03 -0.48025921353E+02 -0.33294346188E+03  0.36245574603E+03  0.41800000000E+01 0.  1.
         -5    1    3    3    0  502 -0.16985121859E+02  0.16783000920E+02 -0.20230900174E+02  0.31574122416E+02  0.41800000000E+01 0.  1.
        -11    1    1    2    0    0 -0.10544258061E+03 -0.30287807287E+01 -0.35530042437E+03  0.37062879391E+03  0.00000000000E+00 0.  1.
         11    1    1    2    0    0 -0.12475438713E+02  0.34271701162E+02 -0.43766839601E+02  0.56971241169E+02  0.00000000000E+00 0. -1.
</event>
<event>
 7    1  0.2967748E-009  0.4605280E+02  0.7561462E-02  0.1467874E+00
          2   -1    0    0  501    0  0.00000000000E+00  0.00000000000E+00  0.90505842706E+02  0.90505842706E+02  0.00000000000E+00 0.  1.
         -2   -1    0    0    0  501 -0.00000000000E+00 -0.00000000000E+00 -0.18047567175E+03  0.18047567175E+03  0.00000000000E+00 0. -1.
         25    2    1    2    0    0  0.20405502141E+02 -0.20916300234E+02  0.14337663117E+02  0.12921468871E+03  0.12504795505E+03 0.  0.
          5    1    3    3  502    0  0.37983151418E+02 -0.15764976466E+02  0.63959761437E+02  0.76154958852E+02  0.41800000000E+01 0. -1.
         -5    1    3    3    0  502 -0.17577649277E+02 -0.51513237676E+01 -0.49622098320E+02  0.53059729856E+02  0.41800000000E+01 0. -1.
        -11    1    1    2    0    0 -0.17859590692E+02  0.93914084129E+01 -0.12024975093E+03  0.12193098921E+03  0.00000000000E+00 0. -1.
         11    1    1    2    0    0 -0.25459114491E+01  0.11524891821E+02  0.15942258766E+02  0.19835836538E+02  0.00000000000E+00 0.  1.
</event>
<event>
 7    1  0.2841804E-009  0.1381198E+03  0.7561462E-02  0.1215882E+00
         -2   -1    0    0    0  501 -0.00000000000E+00  0.00000000000E+00  0.57685837503E+02  0.57685837503E+02  0.00000000000E+00 0.  1.
          2   -1    0    0  501    0  0.00000000000E+00 -0.00000000000E+00 -0.38488854673E+03  0.38488854673E+03  0.00000000000E+00 0. -1.
         25    2    1    2    0    0 -0.47314074943E+02  0.89006965582E+02 -0.20504177247E+03  0.26048202573E+03  0.12509154912E+03 0.  0.
          5    1    3    3  502    0 -0.20131920087E+02  0.11238328970E+03 -0.10909185483E+03  0.15796772835E+03  0.41800000000E+01 0.  1.
         -5    1    3    3    0  502 -0.27182154856E+02 -0.23376324120E+02 -0.95949917644E+02  0.10251429738E+03  0.41800000000E+01 0.  1.
        -11    1    1    2    0    0  0.14409467587E+02 -0.91753053724E+02 -0.11583604079E+03  0.14847304122E+03  0.00000000000E+00 0.  1.
         11    1    1    2    0    0  0.32904607355E+02  0.27460881420E+01 -0.63248959676E+01  0.33619317279E+02  0.00000000000E+00 0. -1.
</event>
<event>
 7    1  0.2841804E-009  0.1589154E+03  0.7561462E-02  0.1189927E+00
         -1   -1    0    0    0  501 -0.00000000000E+00  0.00000000000E+00  0.57283444060E+03  0.57283444060E+03  0.00000000000E+00 0.  1.
          1   -1    0    0  501    0  0.00000000000E+00 -0.00000000000E+00 -0.71533588847E+02  0.71533588847E+02  0.00000000000E+00 0. -1.
         25    2    1    2    0    0  0.87810209686E+02 -0.90050472915E+02  0.44396176458E+03  0.47808912593E+03  0.12508974111E+03 0.  0.
          5    1    3    3  502    0  0.69002072822E+02 -0.12191668205E+03  0.35039282292E+03  0.37738251969E+03  0.41800000000E+01 0.  1.
         -5    1    3    3    0  502  0.18808136864E+02  0.31866209138E+02  0.93568941664E+02  0.10070660624E+03  0.41800000000E+01 0.  1.
        -11    1    1    2    0    0 -0.84002640043E+02  0.45127035168E+02  0.71318816304E+02  0.11907672483E+03  0.00000000000E+00 0.  1.
         11    1    1    2    0    0 -0.38075696432E+01  0.44923437747E+02 -0.13979729133E+02  0.47202178681E+02  0.00000000000E+00 0. -1.
</event>
<event>
 7    1  0.2841804E-009  0.9980163E+02  0.7561462E-02  0.1280714E+00
          2   -1    0    0  501    0  0.00000000000E+00  0.00000000000E+00  0.35536595113E+03  0.35536595113E+03  0.00000000000E+00 0. -1.
         -2   -1    0    0    0  501 -0.00000000000E+00 -0.00000000000E+00 -0.52722416100E+02  0.52722416100E+02  0.00000000000E+00 0.  1.
         25    2    1    2    0    0 -0.63986486147E+02 -0.47172056232E+02  0.12726103802E+03  0.19535021815E+03  0.12508741996E+03 0.  0.
          5    1    3    3  502    0 -0.10490151446E+02  0.22506661718E+02  0.10022913237E+03  0.10334381682E+03  0.41800000000E+01 0.  1.
         -5    1    3    3    0  502 -0.53496334701E+02 -0.69678717950E+02  0.27031905647E+02  0.92006401323E+02  0.41800000000E+01 0.  1.
        -11    1    1    2    0    0  0.32315334689E+02  0.44078135395E+02  0.26959956896E+02  0.60942613595E+02  0.00000000000E+00 0.  1.
         11    1    1    2    0    0  0.31671151457E+02  0.30939208368E+01  0.14842254011E+03  0.15179553549E+03  0.00000000000E+00 0. -1.
</event>
<event>
 7    1  0.2841804E-009  0.1312490E+03  0.7561462E-02  0.1225614E+00
         -1   -1    0    0    0  501 -0.00000000000E+00  0.00000000000E+00  0.10960089430E+03  0.10960089430E+03  0.00000000000E+00 0.  1.
          1   -1    0    0  501    0  0.00000000000E+00 -0.00000000000E+00 -0.16772530249E+03  0.16772530249E+03  0.00000000000E+00 0. -1.
         25    2    1    2    0    0  0.26247444747E+02  0.79139437813E+02 -0.21294269642E+02  0.15182798077E+03  0.12508521436E+03 0.  0.
          5    1    3    3  502    0  0.70247289155E+02  0.24151100701E+02 -0.31026756477E+02  0.80610727054E+02  0.41800000000E+01 0.  1.
         -5    1    3    3    0  502 -0.43999844409E+02  0.54988337113E+02  0.97324868346E+01  0.71217253713E+02  0.41800000000E+01 0.  1.
        -11    1    1    2    0    0 -0.16664068397E+02 -0.96387161298E+02 -0.20630984766E+02  0.99969063070E+02  0.00000000000E+00 0. -1.
         11    1    1    2    0    0 -0.95833763495E+01  0.17247723485E+02 -0.16199153780E+02  0.25529152960E+02  0.00000000000E+00 0.  1.
</event>
<event>
 7    1  0.2841804E-009  0.9757727E+02  0.7561462E-02  0.1285475E+00
          1   -1    0    0  501    0  0.00000000000E+00  0.00000000000E+00  0.54813884021E+03  0.54813884021E+03  0.00000000000E+00 0. -1.
         -1   -1    0    0    0  501 -0.00000000000E+00 -0.00000000000E+00 -0.23737163052E+02  0.23737163052E+02  0.00000000000E+00 0.  1.
         25    2    1    2    0    0 -0.29709145427E+02  0.22239936660E+02  0.29198250201E+03  0.31980940460E+03  0.12508807170E+03 0.  0.
          5    1    3    3  502    0 -0.10643019093E+02 -0.42147376197E+02  0.40772713044E+02  0.59745809098E+02  0.41800000000E+01 0. -1.
         -5    1    3    3    0  502 -0.19066126334E+02  0.64387312857E+02  0.25120978897E+03  0.26006359550E+03  0.41800000000E+01 0. -1.
        -11    1    1    2    0    0  0.34246426160E+01 -0.47573783317E+02  0.19095646472E+03  0.19682318068E+03  0.00000000000E+00 0. -1.
         11    1    1    2    0    0  0.26284502811E+02  0.25333846657E+02  0.41462710427E+02  0.55243417983E+02  0.00000000000E+00 0.  1.
</event>
<event>
 7    1  0.2841804E-009  0.8372148E+02  0.7561462E-02  0.1318810E+00
         -4   -1    0    0    0  501 -0.00000000000E+00  0.00000000000E+00  0.56995584986E+03  0.56995584986E+03  0.00000000000E+00 0. -1.
          4   -1    0    0  501    0  0.00000000000E+00 -0.00000000000E+00 -0.48166741818E+02  0.48166741818E+02  0.00000000000E+00 0.  1.
         25    2    1    2    0    0 -0.24036623942E+02  0.11787076021E+02  0.51754026221E+03  0.53311577351E+03  0.12509120871E+03 0.  0.
          5    1    3    3  502    0 -0.29545669291E+01  0.46134375331E+02  0.46221917282E+03  0.46454401963E+03  0.41800000000E+01 0. -1.
         -5    1    3    3    0  502 -0.21082057013E+02 -0.34347299310E+02  0.55321089396E+02  0.68571753877E+02  0.41800000000E+01 0. -1.
        -11    1    1    2    0    0 -0.24415641053E+02  0.11220691059E+02 -0.11316762728E+02  0.29156415323E+02  0.00000000000E+00 0.  1.
         11    1    1    2    0    0  0.48452264994E+02 -0.23007767081E+02  0.15565608561E+02  0.55850402854E+02  0.00000000000E+00 0. -1.
</event>
<event>
 7    1  0.2841804E-009  0.1265427E+03  0.7561462E-02  0.1232678E+00
         -1   -1    0    0    0  501 -0.00000000000E+00  0.00000000000E+00  0.25298147217E+03  0.25298147217E+03  0.00000000000E+00 0.  1.
          1   -1    0    0  501    0  0.00000000000E+00 -0.00000000000E+00 -0.77469585433E+02  0.77469585433E+02  0.00000000000E+00 0. -1.
         25    2    1    2    0    0 -0.83987305518E+02  0.10006050659E+02  0.64858124509E+02  0.16434441782E+03  0.12509405587E+03 0.  0.
          5    1    3    3  502    0 -0.20591167038E+02  0.59106762000E+02  0.26775647240E+01  0.62787317405E+02  0.41800000000E+01 0. -1.
         -5    1    3    3    0  502 -0.63396138480E+02 -0.49100711342E+02  0.62180559785E+02  0.10155710041E+03  0.41800000000E+01 0. -1.
        -11    1    1    2    0    0  0.23542679251E+02  0.29580250992E+02  0.78281097915E+02  0.86932038317E+02  0.00000000000E+00 0.  1.
         11    1    1    2    0    0  0.60444626267E+02 -0.39586301651E+02  0.32372664309E+02  0.79174601467E+02  0.00000000000E+00 0. -1.
</event>
<event>
 7    1  0.2841804E-009  0.1423588E+03  0.7561462E-02  0.1210190E+00
         -1   -1    0    0    0  501 -0.00000000000E+00  0.00000000000E+00  0.87016435252E+03  0.87016435252E+03  0.00000000000E+00 0.  1.
          1   -1    0    0  501    0  0.00000000000E+00 -0.00000000000E+00 -0.36747775396E+02  0.36747775396E+02  0.00000000000E+00 0. -1.
         25    2    1    2    0    0  0.11535307886E+03 -0.57826979120E+02  0.58715455598E+03  0.61404253631E+03  0.12508985361E+03 0.  0.
          5    1    3    3  502    0  0.50793284634E+02 -0.45485042380E+02  0.50080481709E+03  0.50544216689E+03  0.41800000000E+01 0.  1.
         -5    1    3    3    0  502  0.64559794227E+02 -0.12341936740E+02  0.86349738881E+02  0.10860036942E+03  0.41800000000E+01 0.  1.
        -11    1    1    2    0    0 -0.91014645769E+02  0.77272264391E+02  0.22631789793E+03  0.25587977550E+03  0.00000000000E+00 0.  1.
         11    1    1    2    0    0 -0.24338433092E+02 -0.19445285271E+02  0.19944123225E+02  0.36989816110E+02  0.00000000000E+00 0. -1.
</event>
<event>
 7    1  0.2841804E-009  0.2195737E+03  0.7561462E-02  0.1134201E+00
         -2   -1    0    0    0  501 -0.00000000000E+00  0.00000000000E+00  0.55540149325E+02  0.55540149325E+02  0.00000000000E+00 0.  1.
          2   -1    0    0  501    0  0.00000000000E+00 -0.00000000000E+00 -0.22832332871E+04  0.22832332871E+04  0.00000000000E+00 0. -1.
         25    2    1    2    0    0 -0.14535539910E+03 -0.12497079785E+03 -0.20484504488E+04  0.20611995919E+04  0.12509446134E+03 0.  0.
          5    1    3    3  502    0  0.19881295473E+02 -0.35588377441E+02 -0.37434056900E+03  0.37657686137E+03  0.41800000000E+01 0. -1.
         -5    1    3    3    0  502 -0.16523669458E+03 -0.89382420406E+02 -0.16741098798E+04  0.16846227305E+04  0.41800000000E+01 0. -1.
        -11    1    1    2    0    0  0.18258807844E+02  0.69016691004E+02 -0.77858527544E+02  0.10563445467E+03  0.00000000000E+00 0. -1.
         11    1    1    2    0    0  0.12709659126E+03  0.55954106843E+02 -0.10138416143E+03  0.17193938982E+03  0.00000000000E+00 0.  1.
</event>
<event>
 7    1  0.2841804E-009  0.1431098E+03  0.7561462E-02  0.1209205E+00
          3   -1    0    0  501    0  0.00000000000E+00  0.00000000000E+00  0.59179522293E+02  0.59179522293E+02  0.00000000000E+00 0. -1.
         -3   -1    0    0    0  501 -0.00000000000E+00 -0.00000000000E+00 -0.38454592923E+03  0.38454592923E+03  0.00000000000E+00 0.  1.
         25    2    1    2    0    0 -0.98687631266E+02  0.26637544089E+02 -0.24997731274E+03  0.29763282537E+03  0.12509130480E+03 0.  0.
          5    1    3    3  502    0  0.26102794868E+01 -0.39750462438E+02 -0.70219286424E+02  0.80840172000E+02  0.41800000000E+01 0.  1.
         -5    1    3    3    0  502 -0.10129791075E+03  0.66388006527E+02 -0.17975802631E+03  0.21679265337E+03  0.41800000000E+01 0.  1.
        -11    1    1    2    0    0  0.55406700458E+02 -0.51005593660E+02 -0.41798389704E+02  0.86131169863E+02  0.00000000000E+00 0. -1.
         11    1    1    2    0    0  0.43280930808E+02  0.24368049571E+02 -0.33590704501E+02  0.59961456290E+02  0.00000000000E+00 0.  1.
</event>
<event>
 7    1  0.2841804E-009  0.9300169E+02  0.7561462E-02  0.1295741E+00
          2   -1    0    0  501    0  0.00000000000E+00  0.00000000000E+00  0.43924392996E+03  0.43924392996E+03  0.00000000000E+00 0.  1.
         -2   -1    0    0    0  501 -0.00000000000E+00 -0.00000000000E+00 -0.34473575789E+02  0.34473575789E+02  0.00000000000E+00 0. -1.
         25    2    1    2    0    0  0.17665395138E+02  0.51447651849E+02  0.25770958390E+03  0.29157750711E+03  0.12507712001E+03 0.  0.
          5    1    3    3  502    0  0.22798271805E+02  0.69509232163E+02  0.65113466916E+02  0.98023112209E+02  0.41800000000E+01 0. -1.
         -5    1    3    3    0  502 -0.51328766662E+01 -0.18061580314E+02  0.19259611698E+03  0.19355439490E+03  0.41800000000E+01 0. -1.
        -11    1    1    2    0    0 -0.10319886880E+01 -0.69176950451E+02  0.14104032589E+03  0.15709515906E+03  0.00000000000E+00 0. -1.
         11    1    1    2    0    0 -0.16633406450E+02  0.17729298602E+02  0.60204443823E+01  0.25044839580E+02  0.00000000000E+00 0.  1.
</event>
<event>
 7    1  0.2841804E-009  0.2429854E+03  0.7561462E-02  0.1117820E+00
          1   -1    0    0  501    0  0.00000000000E+00  0.00000000000E+00  0.27806452228E+03  0.27806452228E+03  0.00000000000E+00 0. -1.
         -1   -1    0    0    0  501 -0.00000000000E+00 -0.00000000000E+00 -0.37352244896E+03  0.37352244896E+03  0.00000000000E+00 0.  1.
         25    2    1    2    0    0 -0.20538196644E+03  0.68543425359E+02  0.16538050373E+03  0.29979706506E+03  0.12509043093E+03 0.  0.
          5    1    3    3  502    0 -0.17202426053E+03  0.10402925390E+03  0.13629937420E+03  0.24291855361E+03  0.41800000000E+01 0. -1.
         -5    1    3    3    0  502 -0.33357705913E+02 -0.35485828545E+02  0.29081129525E+02  0.56878511458E+02  0.41800000000E+01 0. -1.
        -11    1    1    2    0    0  0.15459080255E+03 -0.50104848593E+01 -0.16793667300E+03  0.22831151379E+03  0.00000000000E+00 0. -1.
         11    1    1    2    0    0  0.50791163891E+02 -0.63532940500E+02 -0.92901757399E+02  0.12347839238E+03  0.00000000000E+00 0.  1.
</event>
<event>
 7    1  0.2841804E-009  0.1169016E+03  0.7561462E-02  0.1248298E+00
         -2   -1    0    0    0  501 -0.00000000000E+00  0.00000000000E+00  0.32713986134E+02  0.32713986134E+02  0.00000000000E+00 0.  1.
          2   -1    0    0  501    0  0.00000000000E+00 -0.00000000000E+00 -0.49639997400E+03  0.49639997400E+03  0.00000000000E+00 0. -1.
         25    2    1    2    0    0 -0.29526416876E+02 -0.40707698826E+02 -0.34461350434E+03  0.37004577547E+03  0.12508590061E+03 0.  0.
          5    1    3    3  502    0  0.46710936565E+02 -0.29672823620E+02 -0.11241609195E+03  0.12536840984E+03  0.41800000000E+01 0. -1.
         -5    1    3    3    0  502 -0.76237353441E+02 -0.11034875206E+02 -0.23219741239E+03  0.24467736563E+03  0.41800000000E+01 0. -1.
        -11    1    1    2    0    0  0.51067913494E+02  0.55199469423E+02 -0.10609618990E+03  0.13004351089E+03  0.00000000000E+00 0.  1.
         11    1    1    2    0    0 -0.21541496618E+02 -0.14491770597E+02 -0.12976293628E+02  0.29024673777E+02  0.00000000000E+00 0. -1.
</event>
<event>
 7    1  0.2841804E-009  0.7648668E+02  0.7561462E-02  0.1339328E+00
          2   -1    0    0  501    0  0.00000000000E+00  0.00000000000E+00  0.24025472978E+03  0.24025472978E+03  0.00000000000E+00 0. -1.
         -2   -1    0    0    0  501 -0.00000000000E+00 -0.00000000000E+00 -0.61619432321E+02  0.61619432321E+02  0.00000000000E+00 0.  1.
         25    2    1    2    0    0 -0.36980434036E+02  0.38796903807E+02  0.12493183416E+03  0.18473560340E+03  0.12508608129E+03 0.  0.
          5    1    3    3  502    0  0.22761559524E+02  0.23751322493E+02  0.11803232936E+03  0.12260227195E+03  0.41800000000E+01 0.  1.
         -5    1    3    3    0  502 -0.59741993560E+02  0.15045581314E+02  0.68995047975E+01  0.62133331458E+02  0.41800000000E+01 0.  1.
        -11    1    1    2    0    0  0.15508699572E+02 -0.31967921951E+02 -0.19510829674E+02  0.40535666651E+02  0.00000000000E+00 0.  1.
         11    1    1    2    0    0  0.21471734464E+02 -0.68289818560E+01  0.73214292977E+02  0.76602892048E+02  0.00000000000E+00 0. -1.
</event>
<event>
 7    1  0.2841804E-009  0.9939394E+02  0.7561462E-02  0.1281576E+00
          4   -1    0    0  501    0  0.00000000000E+00  0.00000000000E+00  0.13159684583E+02  0.13159684583E+02  0.00000000000E+00 0.  1.
         -4   -1    0    0    0  501 -0.00000000000E+00 -0.00000000000E+00 -0.13912501516E+04  0.13912501516E+04  0.00000000000E+00 0. -1.
         25    2    1    2    0    0 -0.52822039304E+02  0.46444113045E+02 -0.95767944204E+03  0.96837156839E+03  0.12508540000E+03 0.  0.
          5    1    3    3  502    0 -0.16629315976E+02  0.44518474068E+02 -0.10990448353E+03  0.11981192171E+03  0.41800000000E+01 0. -1.
         -5    1    3    3    0  502 -0.36192723328E+02  0.19256389765E+01 -0.84777495850E+03  0.84855964668E+03  0.41800000000E+01 0. -1.
        -11    1    1    2    0    0 -0.13064512121E+02 -0.46924260135E+02 -0.20883437784E+03  0.21443965360E+03  0.00000000000E+00 0.  1.
         11    1    1    2    0    0  0.65886551425E+02  0.48014708959E+00 -0.21157664714E+03  0.22159861420E+03  0.00000000000E+00 0. -1.
</event>
<event>
 7    1  0.2841804E-009  0.1259809E+03  0.7561462E-02  0.1233544E+00
         -1   -1    0    0    0  501 -0.00000000000E+00  0.00000000000E+00  0.14713248199E+04  0.14713248199E+04  0.00000000000E+00 0.  1.
          1   -1    0    0  501    0  0.00000000000E+00 -0.00000000000E+00 -0.16901904949E+02  0.16901904949E+02  0.00000000000E+00 0. -1.
         25    2    1    2    0    0 -0.69867510943E+02 -0.21135657212E+02  0.11926796868E+04  0.12014380063E+04  0.12506103537E+03 0.  0.
          5    1    3    3  502    0 -0.12749689599E+02  0.50657192492E+02  0.38363892736E+03  0.38720150402E+03  0.41800000000E+01 0.  1.
         -5    1    3    3    0  502 -0.57117821344E+02 -0.71792849703E+02  0.80904075949E+03  0.81423650232E+03  0.41800000000E+01 0.  1.
        -11    1    1    2    0    0  0.87718844172E+02  0.16236028680E+02  0.15833422780E+03  0.18173588513E+03  0.00000000000E+00 0. -1.
         11    1    1    2    0    0 -0.17851333229E+02  0.48996285316E+01  0.10340900031E+03  0.10505283339E+03  0.00000000000E+00 0.  1.
</event>
<event>
 7    1  0.2841804E-009  0.1425572E+03  0.7561462E-02  0.1209929E+00
         -1   -1    0    0    0  501 -0.00000000000E+00  0.00000000000E+00  0.12100026590E+03  0.12100026590E+03  0.00000000000E+00 0.  1.
          1   -1    0    0  501    0  0.00000000000E+00 -0.00000000000E+00 -0.24034907042E+03  0.24034907042E+03  0.00000000000E+00 0. -1.
         25    2    1    2    0    0 -0.11305445454E+03  0.42749133040E+02 -0.29695247910E+02  0.17646097638E+03  0.12509144803E+03 0.  0.
          5    1    3    3  502    0  0.19367637777E+02 -0.76964628156E+01 -0.27396644890E+02  0.34675488232E+02  0.41800000000E+01 0.  1.
         -5    1    3    3    0  502 -0.13242209232E+03  0.50445595856E+02 -0.22986030201E+01  0.14178548815E+03  0.41800000000E+01 0.  1.
        -11    1    1    2    0    0  0.60832908159E+02 -0.32147702699E+02  0.12256220685E+02  0.69887999323E+02  0.00000000000E+00 0.  1.
         11    1    1    2    0    0  0.52221546380E+02 -0.10601430341E+02 -0.10190977730E+03  0.11500036061E+03  0.00000000000E+00 0. -1.
</event>
<event>
 7    1  0.2841804E-009  0.1192573E+03  0.7561462E-02  0.1244327E+00
         -1   -1    0    0    0  501 -0.00000000000E+00  0.00000000000E+00  0.60081819821E+02  0.60081819821E+02  0.00000000000E+00 0.  1.
          1   -1    0    0  501    0  0.00000000000E+00 -0.00000000000E+00 -0.42673475180E+03  0.42673475180E+03  0.00000000000E+00 0. -1.
         25    2    1    2    0    0 -0.42012692238E+02  0.33618788012E+02 -0.39173975356E+02  0.14167738003E+03  0.12507034201E+03 0.  0.
          5    1    3    3  502    0  0.26524492789E+02 -0.26973566411E+02  0.76542812436E+01  0.38822447424E+02  0.41800000000E+01 0.  1.
         -5    1    3    3    0  502 -0.68537185027E+02  0.60592354423E+02 -0.46828256599E+02  0.10285493261E+03  0.41800000000E+01 0.  1.
        -11    1    1    2    0    0  0.63558483645E+02 -0.50763740752E+02 -0.25127696524E+03  0.26411503456E+03  0.00000000000E+00 0. -1.
         11    1    1    2    0    0 -0.21545791407E+02  0.17144952740E+02 -0.76201991387E+02  0.81024157034E+02  0.00000000000E+00 0.  1.
</event>
<event>
 7    1  0.2841804E-009  0.6559009E+02  0.7561462E-02  0.1375765E+00
         -2   -1    0    0    0  501 -0.00000000000E+00  0.00000000000E+00  0.25481407268E+03  0.25481407268E+03  0.00000000000E+00 0.  1.
          2   -1    0    0  501    0  0.00000000000E+00 -0.00000000000E+00 -0.58724315148E+02  0.58724315148E+02  0.00000000000E+00 0. -1.
         25    2    1    2    0    0  0.79054845830E+01 -0.33553908051E+02  0.89259225271E+02  0.15749218102E+03  0.12509283095E+03 0.  0.
          5    1    3    3  502    0  0.97544005988E+01 -0.52147091716E+02 -0.11905539357E+02  0.54531475066E+02  0.41800000000E+01 0.  1.
         -5    1    3    3    0  502 -0.18489160158E+01  0.18593183665E+02  0.10116476463E+03  0.10296070596E+03  0.41800000000E+01 0.  1.
        -11    1    1    2    0    0 -0.27158803268E+02  0.11367384657E+02  0.12021299411E+03  0.12376583528E+03  0.00000000000E+00 0.  1.
         11    1    1    2    0    0  0.19253318685E+02  0.22186523394E+02 -0.13382461850E+02  0.32280371526E+02  0.00000000000E+00 0. -1.
</event>
<event>
 7    1  0.2841804E-009  0.4969843E+03  0.7561462E-02  0.1014569E+00
         -2   -1    0    0    0  501 -0.00000000000E+00  0.00000000000E+00  0.60993604682E+03  0.60993604682E+03  0.00000000000E+00 0.  1.
          2   -1    0    0  501    0  0.00000000000E+00 -0.00000000000E+00 -0.45301974072E+03  0.45301974072E+03  0.00000000000E+00 0. -1.
         25    2    1    2    0    0  0.50464497753E+02 -0.49085030880E+03  0.21720270654E+03  0.55344843646E+03  0.12508982737E+03 0.  0.
          5    1    3    3  502    0  0.50212071483E+02 -0.48574744415E+03  0.22942293766E+03  0.53955925379E+03  0.41800000000E+01 0. -1.
         -5    1    3    3    0  502  0.25242627011E+00 -0.51028646507E+01 -0.12220231125E+02  0.13889182676E+02  0.41800000000E+01 0. -1.
        -11    1    1    2    0    0  0.12557368682E+02  0.24137469679E+03  0.12727856482E+02  0.24203600990E+03  0.00000000000E+00 0.  1.
         11    1    1    2    0    0 -0.63021866435E+02  0.24947561201E+03 -0.73014256927E+02  0.26747134118E+03  0.00000000000E+00 0. -1.
</event>
<event>
 7    1  0.2841804E-009  0.1439433E+03  0.7561462E-02  0.1208119E+00
          1   -1    0    0  501    0  0.00000000000E+00  0.00000000000E+00  0.93849597672E+03  0.93849597672E+03  0.00000000000E+00 0.  1.
         -1   -1    0    0    0  501 -0.00000000000E+00 -0.00000000000E+00 -0.28855058270E+02  0.28855058270E+02  0.00000000000E+00 0. -1.
         25    2    1    2    0    0 -0.24859437439E+02  0.11951228465E+03  0.43077356698E+03  0.46488191182E+03  0.12509255817E+03 0.  0.
          5    1    3    3  502    0  0.36090393678E+02  0.81061669669E+01  0.43265728842E+02  0.57075582791E+02  0.41800000000E+01 0. -1.
         -5    1    3    3    0  502 -0.60949831118E+02  0.11140611769E+03  0.38750783814E+03  0.40780632902E+03  0.41800000000E+01 0. -1.
        -11    1    1    2    0    0  0.19430231861E+02 -0.46585512829E+02  0.65547405616E+02  0.82729718353E+02  0.00000000000E+00 0. -1.
         11    1    1    2    0    0  0.54292055779E+01 -0.72926771824E+02  0.41331994586E+03  0.41973940483E+03  0.00000000000E+00 0.  1.
</event>
<event>
 7    1  0.2841804E-009  0.9366970E+02  0.7561462E-02  0.1294201E+00
          2   -1    0    0  501    0  0.00000000000E+00  0.00000000000E+00  0.31719888314E+03  0.31719888314E+03  0.00000000000E+00 0. -1.
         -2   -1    0    0    0  501 -0.00000000000E+00 -0.00000000000E+00 -0.37702654147E+02  0.37702654147E+02  0.00000000000E+00 0.  1.
         25    2    1    2    0    0  0.14277664141E+02 -0.31587599625E+01  0.14932951584E+03  0.19534862103E+03  0.12509176622E+03 0.  0.
          5    1    3    3  502    0 -0.47817294048E+02 -0.45459636122E+01  0.20744945887E+02  0.52487946950E+02  0.41800000000E+01 0.  1.
         -5    1    3    3    0  502  0.62094958189E+02  0.13872036497E+01  0.12858456996E+03  0.14286067408E+03  0.41800000000E+01 0.  1.
        -11    1    1    2    0    0  0.25109345516E+01 -0.35049846971E+02  0.10521623408E+03  0.11092904254E+03  0.00000000000E+00 0. -1.
         11    1    1    2    0    0 -0.16788598693E+02  0.38208606933E+02  0.24950479071E+02  0.48623873722E+02  0.00000000000E+00 0.  1.
</event>
<event>
 7    1  0.2841804E-009  0.9780091E+02  0.7561462E-02  0.1284989E+00
          4   -1    0    0  501    0  0.00000000000E+00  0.00000000000E+00  0.37209753157E+02  0.37209753157E+02  0.00000000000E+00 0. -1.
         -4   -1    0    0    0  501 -0.00000000000E+00 -0.00000000000E+00 -0.33732354551E+03  0.33732354551E+03  0.00000000000E+00 0.  1.
         25    2    1    2    0    0 -0.61158018358E+01 -0.15446545127E+02 -0.13220165336E+03  0.18276177224E+03  0.12509432223E+03 0.  0.
          5    1    3    3  502    0  0.23037096100E+01  0.50068046705E+02 -0.93293206720E+02  0.10598684446E+03  0.41800000000E+01 0. -1.
         -5    1    3    3    0  502 -0.84195114458E+01 -0.65514591832E+02 -0.38908446636E+02  0.76774927779E+02  0.41800000000E+01 0. -1.
        -11    1    1    2    0    0 -0.33272354021E+02 -0.66908464240E+01 -0.25748449264E+02  0.42600464874E+02  0.00000000000E+00 0. -1.
         11    1    1    2    0    0  0.39388155857E+02  0.22137391551E+02 -0.14216368974E+03  0.14917106156E+03  0.00000000000E+00 0.  1.
</event>
<event>
 7    1  0.2841804E-009  0.1274421E+03  0.7561462E-02  0.1231301E+00
          4   -1    0    0  501    0  0.00000000000E+00  0.00000000000E+00  0.46216308859E+03  0.46216308859E+03  0.00000000000E+00 0. -1.
         -4   -1    0    0    0  501 -0.00000000000E+00 -0.00000000000E+00 -0.41041119478E+02  0.41041119478E+02  0.00000000000E+00 0.  1.
         25    2    1    2    0    0  0.20067505841E+02  0.77179486448E+02  0.17833997823E+03  0.23197439836E+03  0.12509035029E+03 0.  0.
          5    1    3    3  502    0  0.65384789352E+02  0.34719502734E+02  0.50276860944E+02  0.89587106746E+02  0.41800000000E+01 0.  1.
         -5    1    3    3    0  502 -0.45317283511E+02  0.42459983714E+02  0.12806311729E+03  0.14238729161E+03  0.41800000000E+01 0.  1.
        -11    1    1    2    0    0 -0.51176452626E+02 -0.23195398504E+02  0.88357381108E+02  0.10470951538E+03  0.00000000000E+00 0.  1.
         11    1    1    2    0    0  0.31108946785E+02 -0.53984087944E+02  0.15442460977E+03  0.16652029433E+03  0.00000000000E+00 0. -1.
</event>
<event>
 7    1  0.2841804E-009  0.1712051E+03  0.7561462E-02  0.1176597E+00
         -1   -1    0    0    0  501 -0.00000000000E+00  0.00000000000E+00  0.27866640355E+02  0.27866640355E+02  0.00000000000E+00 0.  1.
          1   -1    0    0  501    0  0.00000000000E+00 -0.00000000000E+00 -0.12409839745E+04  0.12409839745E+04  0.00000000000E+00 0. -1.
         25    2    1    2    0    0 -0.73847359584E+02  0.13027366892E+03 -0.68697737766E+03  0.71414072077E+03  0.12503755561E+03 0.  0.
          5    1    3    3  502    0 -0.65920841443E+02  0.40207808665E+02 -0.14192351752E+03  0.16162296384E+03  0.41800000000E+01 0.  1.
         -5    1    3    3    0  502 -0.79265181417E+01  0.90065860253E+02 -0.54505386014E+03  0.55251775693E+03  0.41800000000E+01 0.  1.
        -11    1    1    2    0    0  0.52430610030E+02 -0.14113398156E+03 -0.47329897085E+03  0.49666858712E+03  0.00000000000E+00 0. -1.
         11    1    1    2    0    0  0.21416749554E+02  0.10860312641E+02 -0.52840985654E+02  0.58041306989E+02  0.00000000000E+00 0.  1.
</event>
<event>
 7    1  0.2841804E-009  0.1028580E+03  0.7561462E-02  0.1274398E+00
         -1   -1    0    0    0  501 -0.00000000000E+00  0.00000000000E+00  0.36093166284E+03  0.36093166284E+03  0.00000000000E+00 0.  1.
          1   -1    0    0  501    0  0.00000000000E+00 -0.00000000000E+00 -0.36270055594E+02  0.36270055594E+02  0.00000000000E+00 0. -1.
         25    2    1    2    0    0  0.19476499904E+02 -0.11460229126E+02  0.12787878975E+03  0.18030833747E+03  0.12508973096E+03 0.  0.
          5    1    3    3  502    0  0.71814870892E+02  0.13569381799E+01  0.84679836405E+02  0.11111869355E+03  0.41800000000E+01 0. -1.
         -5    1    3    3    0  502 -0.52338370988E+02 -0.12817167306E+02  0.43198953350E+02  0.69189643922E+02  0.41800000000E+01 0. -1.
        -11    1    1    2    0    0 -0.15409243112E+02  0.44158454504E+02  0.16350454726E+03  0.17006219701E+03  0.00000000000E+00 0.  1.
         11    1    1    2    0    0 -0.40672567922E+01 -0.32698225378E+02  0.33278270228E+02  0.46831183949E+02  0.00000000000E+00 0. -1.
</event>
<event>
 7    1  0.2841804E-009  0.9451881E+02  0.7561462E-02  0.1292264E+00
         -2   -1    0    0    0  501 -0.00000000000E+00  0.00000000000E+00  0.19541955612E+03  0.19541955612E+03  0.00000000000E+00 0.  1.
          2   -1    0    0  501    0  0.00000000000E+00 -0.00000000000E+00 -0.86832688362E+02  0.86832688362E+02  0.00000000000E+00 0. -1.
         25    2    1    2    0    0  0.13968876311E+02 -0.53024727854E+02  0.55592610324E+01  0.13669257524E+03  0.12508878237E+03 0.  0.
          5    1    3    3  502    0  0.49750261608E+02  0.19104620472E+02  0.14989220530E+02  0.55517782606E+02  0.41800000000E+01 0. -1.
         -5    1    3    3    0  502 -0.35781385297E+02 -0.72129348326E+02 -0.94299594980E+01  0.81174792638E+02  0.41800000000E+01 0. -1.
        -11    1    1    2    0    0 -0.61256819170E+01  0.16533972060E+02  0.10661530952E+03  0.10806350186E+03  0.00000000000E+00 0.  1.
         11    1    1    2    0    0 -0.78431943938E+01  0.36490755794E+02 -0.35877027899E+01  0.37496167378E+02  0.00000000000E+00 0. -1.
</event>
<event>
 7    1  0.3229942E-009  0.1218578E+03  0.7561462E-02  0.1240063E+00
          1   -1    0    0  501    0  0.00000000000E+00  0.00000000000E+00  0.61436589905E+02  0.61436589905E+02  0.00000000000E+00 0. -1.
         -1   -1    0    0    0  501 -0.00000000000E+00 -0.00000000000E+00 -0.35234010801E+03  0.35234010801E+03  0.00000000000E+00 0.  1.
         25    2    1    2    0    0 -0.19760255486E+02 -0.78342599726E+02 -0.23791229060E+03  0.28067310482E+03  0.12508838124E+03 0.  0.
          5    1    3    3  502    0  0.38963350499E+02 -0.47913588443E+02 -0.44531761582E+02  0.76252244748E+02  0.41800000000E+01 0. -1.
         -5    1    3    3    0  502 -0.58723605985E+02 -0.30429011283E+02 -0.19338052902E+03  0.20442086007E+03  0.41800000000E+01 0. -1.
        -11    1    1    2    0    0  0.26545218517E+02 -0.89328919253E+01 -0.33051382101E+02  0.43322500425E+02  0.00000000000E+00 0.  1.
         11    1    1    2    0    0 -0.67849630313E+01  0.87275491651E+02 -0.19939845397E+02  0.89781092668E+02  0.00000000000E+00 0. -1.
</event>
<event>
 7    1  0.2841804E-009  0.7709948E+02  0.7561462E-02  0.1337490E+00
          1   -1    0    0  501    0  0.00000000000E+00  0.00000000000E+00  0.11528234957E+04  0.11528234957E+04  0.00000000000E+00 0. -1.
         -1   -1    0    0    0  501 -0.00000000000E+00 -0.00000000000E+00 -0.12449753579E+02  0.12449753579E+02  0.00000000000E+00 0.  1.
         25    2    1    2    0    0  0.49962120018E+02 -0.29649132863E+01  0.70491909766E+03  0.71767903675E+03  0.12508901393E+03 0.  0.
          5    1    3    3  502    0  0.27563610695E+02  0.10161774084E+02  0.68243900813E+03  0.68308380636E+03  0.41800000000E+01 0. -1.
         -5    1    3    3    0  502  0.22398509323E+02 -0.13126687371E+02  0.22480089528E+02  0.34595230399E+02  0.41800000000E+01 0. -1.
        -11    1    1    2    0    0  0.84314291137E+01  0.31946229514E+02  0.86352660712E+02  0.92457734069E+02  0.00000000000E+00 0.  1.
         11    1    1    2    0    0 -0.58393549132E+02 -0.28981316227E+02  0.34910198373E+03  0.35513647843E+03  0.00000000000E+00 0. -1.
</event>
<event>
 7    1  0.2841804E-009  0.3911498E+03  0.7561462E-02  0.1046888E+00
          2   -1    0    0  501    0  0.00000000000E+00  0.00000000000E+00  0.52999670235E+03  0.52999670235E+03  0.00000000000E+00 0. -1.
         -2   -1    0    0    0  501 -0.00000000000E+00 -0.00000000000E+00 -0.31225717560E+03  0.31225717560E+03  0.00000000000E+00 0.  1.
         25    2    1    2    0    0 -0.72527975325E+02 -0.37878810875E+03  0.17503146777E+03  0.44161426614E+03  0.12508559795E+03 0.  0.
          5    1    3    3  502    0 -0.14939653868E+02 -0.12405135725E+02  0.43946206534E+02  0.48226778026E+02  0.41800000000E+01 0.  1.
         -5    1    3    3    0  502 -0.57588321457E+02 -0.36638297303E+03  0.13108526123E+03  0.39338748812E+03  0.41800000000E+01 0.  1.
        -11    1    1    2    0    0 -0.11308011126E+02  0.93462806095E+02 -0.21110132902E+02  0.96482148348E+02  0.00000000000E+00 0. -1.
         11    1    1    2    0    0  0.83835986451E+02  0.28532530266E+03  0.63818191890E+02  0.30415746346E+03  0.00000000000E+00 0.  1.
</event>
<event>
 7    1  0.2841804E-009  0.2697333E+03  0.7561462E-02  0.1101432E+00
          2   -1    0    0  501    0  0.00000000000E+00  0.00000000000E+00  0.10091941829E+04  0.10091941829E+04  0.00000000000E+00 0. -1.
         -2   -1    0    0    0  501 -0.00000000000E+00 -0.00000000000E+00 -0.80201181004E+02  0.80201181004E+02  0.00000000000E+00 0.  1.
         25    2    1    2    0    0  0.64178651725E+02  0.25355291922E+03  0.51330770178E+03  0.58953009145E+03  0.12511174940E+03 0.  0.
          5    1    3    3  502    0  0.89903022519E+01  0.92800924800E+01  0.13588398098E+03  0.13656088143E+03  0.41800000000E+01 0. -1.
         -5    1    3    3    0  502  0.55188349473E+02  0.24427282674E+03  0.37742372080E+03  0.45296921002E+03  0.41800000000E+01 0. -1.
        -11    1    1    2    0    0 -0.78470117773E+02 -0.13608593760E+03  0.20557183306E+03  0.25872131791E+03  0.00000000000E+00 0. -1.
         11    1    1    2    0    0  0.14291466048E+02 -0.11746698163E+03  0.21011346708E+03  0.24114395456E+03  0.00000000000E+00 0.  1.
</event>
<event>
 7    1  0.2841804E-009  0.1040009E+03  0.7561462E-02  0.1272101E+00
          1   -1    0    0  501    0  0.00000000000E+00  0.00000000000E+00  0.92793832235E+03  0.92793832235E+03  0.00000000000E+00 0. -1.
         -1   -1    0    0    0  501 -0.00000000000E+00 -0.00000000000E+00 -0.21291463575E+02  0.21291463575E+02  0.00000000000E+00 0.  1.
         25    2    1    2    0    0  0.48891474082E+02  0.34381285234E+02  0.71608994682E+03  0.72938667955E+03  0.12509063653E+03 0.  0.
          5    1    3    3  502    0  0.28354942685E+02  0.62200146258E+02  0.18691424709E+03  0.19906599190E+03  0.41800000000E+01 0.  1.
         -5    1    3    3    0  502  0.20536531397E+02 -0.27818861023E+02  0.52917569974E+03  0.53032068764E+03  0.41800000000E+01 0.  1.
        -11    1    1    2    0    0 -0.73056896345E+02 -0.17254494084E+02  0.10328902813E+03  0.12768575098E+03  0.00000000000E+00 0.  1.
         11    1    1    2    0    0  0.24165422263E+02 -0.17126791150E+02  0.87267883817E+02  0.92157355399E+02  0.00000000000E+00 0. -1.
</event>
<event>
 7    1  0.2841804E-009  0.7291786E+02  0.7561462E-02  0.1350443E+00
          2   -1    0    0  501    0  0.00000000000E+00  0.00000000000E+00  0.76232438676E+03  0.76232438676E+03  0.00000000000E+00 0. -1.
         -2   -1    0    0    0  501 -0.00000000000E+00 -0.00000000000E+00 -0.27788684658E+02  0.27788684658E+02  0.00000000000E+00 0.  1.
         25    2    1    2    0    0 -0.30608857248E+02  0.22655188292E+02  0.63628669050E+03  0.64958176520E+03  0.12508220286E+03 0.  0.
          5    1    3    3  502    0 -0.22693868924E+02 -0.10628179579E+01  0.61773788263E+03  0.61816964120E+03  0.41800000000E+01 0.  1.
         -5    1    3    3    0  502 -0.79149883236E+01  0.23718006249E+02  0.18548807873E+02  0.31412123999E+02  0.41800000000E+01 0.  1.
        -11    1    1    2    0    0 -0.23920523539E+02  0.17522889483E+02  0.15066160831E+02  0.33260070721E+02  0.00000000000E+00 0.  1.
         11    1    1    2    0    0  0.54529380787E+02 -0.40178077774E+02  0.83182850769E+02  0.10727123550E+03  0.00000000000E+00 0. -1.
</event>
<event>
 7    1  0.2841804E-009  0.1153861E+03  0.7561462E-02  0.1250909E+00
          1   -1    0    0  501    0  0.00000000000E+00  0.00000000000E+00  0.21982518160E+03  0.21982518160E+03  0.00000000000E+00 0. -1.
         -1   -1    0    0    0  501 -0.00000000000E+00 -0.00000000000E+00 -0.73653502697E+02  0.73653502697E+02  0.00000000000E+00 0.  1.
         25    2    1    2    0    0 -0.49649627282E+02  0.40868561017E+02  0.10473236828E+03  0.17536193658E+03  0.12509042755E+03 0.  0.
          5    1    3    3  502    0 -0.50453949714E+02  0.75704649580E+02  0.35509110219E+02  0.97750520808E+02  0.41800000000E+01 0. -1.
         -5    1    3    3    0  502  0.80432243187E+00 -0.34836088562E+02  0.69223258064E+02  0.77611415771E+02  0.41800000000E+01 0. -1.
        -11    1    1    2    0    0  0.44201202465E+02  0.16348966247E+02 -0.22381758922E+00  0.47128389438E+02  0.00000000000E+00 0.  1.
         11    1    1    2    0    0  0.54484248167E+01 -0.57217527264E+02  0.41663128212E+02  0.70988358282E+02  0.00000000000E+00 0. -1.
</event>
<event>
 7    1  0.2841804E-009  0.1190622E+03  0.7561462E-02  0.1244652E+00
          2   -1    0    0  501    0  0.00000000000E+00  0.00000000000E+00  0.87864026155E+03  0.87864026155E+03  0.00000000000E+00 0. -1.
         -2   -1    0    0    0  501 -0.00000000000E+00 -0.00000000000E+00 -0.24645312726E+02  0.24645312726E+02  0.00000000000E+00 0.  1.
         25    2    1    2    0    0 -0.95656206547E+02 -0.25143038258E+02  0.47773547447E+03  0.50364851532E+03  0.12509340987E+03 0.  0.
          5    1    3    3  502    0  0.91112493673E+01 -0.26831923014E+01  0.26699165732E+03  0.26719324816E+03  0.41800000000E+01 0.  1.
         -5    1    3    3    0  502 -0.10476745591E+03 -0.22459845957E+02  0.21074381715E+03  0.23645526716E+03  0.41800000000E+01 0.  1.
        -11    1    1    2    0    0  0.36104470411E+02  0.45045027339E+02  0.92674071976E+02  0.10918365669E+03  0.00000000000E+00 0.  1.
         11    1    1    2    0    0  0.59551736136E+02 -0.19901989081E+02  0.28358540238E+03  0.29045340227E+03  0.00000000000E+00 0. -1.
</event>
<event>
 7    1  0.2841804E-009  0.1873784E+03  0.7561462E-02  0.1160847E+00
          2   -1    0    0  501    0  0.00000000000E+00  0.00000000000E+00  0.82570363722E+03  0.82570363722E+03  0.00000000000E+00 0.  1.
         -2   -1    0    0    0  501 -0.00000000000E+00 -0.00000000000E+00 -0.59348093229E+02  0.59348093229E+02  0.00000000000E+00 0. -1.
         25    2    1    2    0    0 -0.17669246981E+03 -0.50370708677E+02  0.53094567129E+03  0.57559245760E+03  0.12508370876E+03 0.  0.
          5    1    3    3  502    0 -0.71425006728E+02 -0.31051491123E+02  0.39446649617E+03  0.40210324008E+03  0.41800000000E+01 0.  1.
         -5    1    3    3    0  502 -0.10526746308E+03 -0.19319217554E+02  0.13647917513E+03  0.17348921751E+03  0.41800000000E+01 0.  1.
        -11    1    1    2    0    0  0.52721698970E+02  0.38162948520E+02  0.13347653932E+03  0.14849907316E+03  0.00000000000E+00 0.  1.
         11    1    1    2    0    0  0.12397077084E+03  0.12207760157E+02  0.10193333338E+03  0.16096019969E+03  0.00000000000E+00 0. -1.
</event>
<event>
 7    1  0.2841804E-009  0.1568860E+03  0.7561462E-02  0.1192258E+00
          2   -1    0    0  501    0  0.00000000000E+00  0.00000000000E+00  0.42965532223E+03  0.42965532223E+03  0.00000000000E+00 0.  1.
         -2   -1    0    0    0  501 -0.00000000000E+00 -0.00000000000E+00 -0.11729688503E+03  0.11729688503E+03  0.00000000000E+00 0. -1.
         25    2    1    2    0    0 -0.12081259314E+03  0.72630896436E+02  0.33279289678E+03  0.38245146672E+03  0.12508829869E+03 0.  0.
          5    1    3    3  502    0 -0.11674640353E+03  0.91189158407E+02  0.33130672877E+03  0.36294187727E+03  0.41800000000E+01 0. -1.
         -5    1    3    3    0  502 -0.40661896152E+01 -0.18558261970E+02  0.14861680166E+01  0.19509589456E+02  0.41800000000E+01 0. -1.
        -11    1    1    2    0    0  0.38879279049E+02 -0.37116404389E+01  0.26915851443E+02  0.47432453795E+02  0.00000000000E+00 0.  1.
         11    1    1    2    0    0  0.81933314093E+02 -0.68919255997E+02 -0.47350311030E+02  0.11706828674E+03  0.00000000000E+00 0. -1.
</event>
<event>
 7    1  0.2841804E-009  0.1041036E+03  0.7561462E-02  0.1271896E+00
          2   -1    0    0  501    0  0.00000000000E+00  0.00000000000E+00  0.42940597840E+03  0.42940597840E+03  0.00000000000E+00 0. -1.
         -2   -1    0    0    0  501 -0.00000000000E+00 -0.00000000000E+00 -0.49658932486E+02  0.49658932486E+02  0.00000000000E+00 0.  1.
         25    2    1    2    0    0  0.52704776808E+02 -0.48469366327E+02  0.32424643725E+03  0.35483657969E+03  0.12508466429E+03 0.  0.
          5    1    3    3  502    0  0.96252907859E+00 -0.77132618203E+02  0.12492325988E+03  0.14687974848E+03  0.41800000000E+01 0.  1.
         -5    1    3    3    0  502  0.51742247729E+02  0.28663251876E+02  0.19932317737E+03  0.20795683121E+03  0.41800000000E+01 0.  1.
        -11    1    1    2    0    0 -0.44142715604E+02  0.41936134696E+02 -0.65607732566E+01  0.61239386671E+02  0.00000000000E+00 0.  1.
         11    1    1    2    0    0 -0.85620612041E+01  0.65332316312E+01  0.62061381912E+02  0.62988944526E+02  0.00000000000E+00 0. -1.
</event>
<event>
 7    1  0.2841804E-009  0.8682502E+02  0.7561462E-02  0.1310728E+00
         -1   -1    0    0    0  501 -0.00000000000E+00  0.00000000000E+00  0.68177930169E+02  0.68177930169E+02  0.00000000000E+00 0.  1.
          1   -1    0    0  501    0  0.00000000000E+00 -0.00000000000E+00 -0.20227967321E+03  0.20227967321E+03  0.00000000000E+00 0. -1.
         25    2    1    2    0    0  0.28244053978E+02 -0.18157547643E+02 -0.93144183047E+02  0.15953080459E+03  0.12508723218E+03 0.  0.
          5    1    3    3  502    0 -0.15678658252E+02  0.47284012860E+02 -0.28746927617E+02  0.57666770711E+02  0.41800000000E+01 0.  1.
         -5    1    3    3    0  502  0.43922712230E+02 -0.65441560503E+02 -0.64397255430E+02  0.10186403388E+03  0.41800000000E+01 0.  1.
        -11    1    1    2    0    0 -0.14875301818E+02  0.25469947616E+02 -0.71197054678E+02  0.77064994845E+02  0.00000000000E+00 0. -1.
         11    1    1    2    0    0 -0.13368752160E+02 -0.73123999726E+01  0.30239494685E+02  0.33861803946E+02  0.00000000000E+00 0.  1.
</event>
<event>
 7    1  0.2841804E-009  0.1960249E+03  0.7561462E-02  0.1153137E+00
         -1   -1    0    0    0  501 -0.00000000000E+00  0.00000000000E+00  0.22953458125E+03  0.22953458125E+03  0.00000000000E+00 0.  1.
          1   -1    0    0  501    0  0.00000000000E+00 -0.00000000000E+00 -0.20450287599E+03  0.20450287599E+03  0.00000000000E+00 0. -1.
         25    2    1    2    0    0 -0.18380608071E+03 -0.53193584163E+02  0.48832351441E+01  0.22865907635E+03  0.12508754738E+03 0.  0.
          5    1    3    3  502    0 -0.92219823759E+02 -0.21312637147E+02  0.64621625588E+02  0.11468282910E+03  0.41800000000E+01 0.  1.
         -5    1    3    3    0  502 -0.91586256951E+02 -0.31880947016E+02 -0.59738390444E+02  0.11397624725E+03  0.41800000000E+01 0.  1.
        -11    1    1    2    0    0  0.54026567935E+02  0.44808602286E+02  0.26862683576E+02  0.75155070691E+02  0.00000000000E+00 0.  1.
         11    1    1    2    0    0  0.12977951278E+03  0.83849818772E+01 -0.67142134641E+01  0.13022331020E+03  0.00000000000E+00 0. -1.
</event>
<event>
 7    1  0.2841804E-009  0.1338195E+03  0.7561462E-02  0.1221896E+00
         -3   -1    0    0    0  501 -0.00000000000E+00  0.00000000000E+00  0.20200141983E+03  0.20200141983E+03  0.00000000000E+00 0.  1.
          3   -1    0    0  501    0  0.00000000000E+00 -0.00000000000E+00 -0.14765213891E+03  0.14765213891E+03  0.00000000000E+00 0. -1.
         25    2    1    2    0    0  0.12818547160E+03 -0.92618875213E+01  0.97537288935E+02  0.20415296056E+03  0.12509041084E+03 0.  0.
          5    1    3    3  502    0  0.93859974872E+02  0.32375916445E+01  0.12631712817E+03  0.15746004621E+03  0.41800000000E+01 0.  1.
         -5    1    3    3    0  502  0.34325496726E+02 -0.12499479166E+02 -0.28779839233E+02  0.46692914358E+02  0.41800000000E+01 0.  1.
        -11    1    1    2    0    0 -0.10777364012E+03  0.25534099925E+02 -0.24604206649E+02  0.11345710532E+03  0.00000000000E+00 0.  1.
         11    1    1    2    0    0 -0.20411831482E+02 -0.16272212403E+02 -0.18583801365E+02  0.32043492851E+02  0.00000000000E+00 0. -1.
</event>
<event>
 7    1  0.2841804E-009  0.1465562E+03  0.7561462E-02  0.1204770E+00
          2   -1    0    0  501    0  0.00000000000E+00  0.00000000000E+00  0.93704337907E+02  0.93704337907E+02  0.00000000000E+00 0. -1.
         -2   -1    0    0    0  501 -0.00000000000E+00 -0.00000000000E+00 -0.29260708059E+03  0.29260708059E+03  0.00000000000E+00 0.  1.
         25    2    1    2    0    0 -0.10522566650E+03 -0.34508892899E+02 -0.17949871050E+03  0.24521612906E+03  0.12509139980E+03 0.  0.
          5    1    3    3  502    0 -0.29677270323E+01  0.39215684548E+02 -0.57091720695E+02  0.69452244674E+02  0.41800000000E+01 0.  1.
         -5    1    3    3    0  502 -0.10225793946E+03 -0.73724577447E+02 -0.12240698980E+03  0.17576388439E+03  0.41800000000E+01 0.  1.
        -11    1    1    2    0    0  0.73416233731E+02 -0.85322881613E+01 -0.39649801584E+02  0.83874013152E+02  0.00000000000E+00 0.  1.
         11    1    1    2    0    0  0.31809432765E+02  0.43041181060E+02  0.20245769405E+02  0.57221276276E+02  0.00000000000E+00 0. -1.
</event>
<event>
 7    1  0.2841804E-009  0.1380441E+03  0.7561462E-02  0.1215985E+00
          2   -1    0    0  501    0  0.00000000000E+00  0.00000000000E+00  0.28122716731E+03  0.28122716731E+03  0.00000000000E+00 0. -1.
         -2   -1    0    0    0  501 -0.00000000000E+00 -0.00000000000E+00 -0.88062099782E+02  0.88062099782E+02  0.00000000000E+00 0.  1.
         25    2    1    2    0    0  0.20367584075E+01  0.10605910182E+03  0.15085669701E+03  0.22284025459E+03  0.12508938632E+03 0.  0.
          5    1    3    3  502    0  0.34423421321E+02  0.96179763379E+02  0.15779783057E+03  0.18802432436E+03  0.41800000000E+01 0.  1.
         -5    1    3    3    0  502 -0.32386662913E+02  0.98793384436E+01 -0.69411335618E+01  0.34815930231E+02  0.41800000000E+01 0.  1.
        -11    1    1    2    0    0 -0.40968174952E+02 -0.87471606347E+02  0.23633992240E+02  0.99439624220E+02  0.00000000000E+00 0. -1.
         11    1    1    2    0    0  0.38931416544E+02 -0.18587495476E+02  0.18674378280E+02  0.47009388279E+02  0.00000000000E+00 0.  1.
</event>
<event>
 7    1  0.2841804E-009  0.1139996E+03  0.7561462E-02  0.1253337E+00
         -1   -1    0    0    0  501 -0.00000000000E+00  0.00000000000E+00  0.11531680729E+03  0.11531680729E+03  0.00000000000E+00 0.  1.
          1   -1    0    0  501    0  0.00000000000E+00 -0.00000000000E+00 -0.17567885539E+03  0.17567885539E+03  0.00000000000E+00 0. -1.
         25    2    1    2    0    0 -0.51027089997E+02  0.75822436771E+02 -0.37006649254E+02  0.15927415622E+03  0.12508380759E+03 0.  0.
          5    1    3    3  502    0 -0.71409914465E+02  0.30755022635E+02 -0.65752942582E+02  0.10191255644E+03  0.41800000000E+01 0.  1.
         -5    1    3    3    0  502  0.20382824468E+02  0.45067414136E+02  0.28746293328E+02  0.57361599788E+02  0.41800000000E+01 0.  1.
        -11    1    1    2    0    0  0.34421149164E+02 -0.76489623578E+02  0.19190322977E+02  0.86045026125E+02  0.00000000000E+00 0.  1.
         11    1    1    2    0    0  0.16605940833E+02  0.66718680776E+00 -0.42545721827E+02  0.45676480326E+02  0.00000000000E+00 0. -1.
</event>
<event>
 7    1  0.2841804E-009  0.1408509E+03  0.7561462E-02  0.1212189E+00
          1   -1    0    0  501    0  0.00000000000E+00  0.00000000000E+00  0.45998642196E+03  0.45998642196E+03  0.00000000000E+00 0. -1.
         -1   -1    0    0    0  501 -0.00000000000E+00 -0.00000000000E+00 -0.56344577334E+02  0.56344577334E+02  0.00000000000E+00 0.  1.
         25    2    1    2    0    0 -0.64364890037E+02 -0.85114500951E+02  0.29391434973E+03  0.33678017065E+03  0.12509165050E+03 0.  0.
          5    1    3    3  502    0 -0.33077864831E+02  0.27086765681E+02  0.11966413639E+03  0.12714092950E+03  0.41800000000E+01 0.  1.
         -5    1    3    3    0  502 -0.31287025206E+02 -0.11220126663E+03  0.17425021334E+03  0.20963924115E+03  0.41800000000E+01 0.  1.
        -11    1    1    2    0    0 -0.80549621553E+01  0.30327785519E+02 -0.65095941900E+01  0.32047336961E+02  0.00000000000E+00 0.  1.
         11    1    1    2    0    0  0.72419852192E+02  0.54786715432E+02  0.11623708909E+03  0.14750349168E+03  0.00000000000E+00 0. -1.
</event>
<event>
 7    1  0.2841804E-009  0.1572040E+03  0.7561462E-02  0.1191890E+00
          2   -1    0    0  501    0  0.00000000000E+00  0.00000000000E+00  0.33884412313E+03  0.33884412313E+03  0.00000000000E+00 0. -1.
         -2   -1    0    0    0  501 -0.00000000000E+00 -0.00000000000E+00 -0.90829414815E+02  0.90829414815E+02  0.00000000000E+00 0.  1.
         25    2    1    2    0    0 -0.44240768851E+02 -0.11579259720E+03  0.14897911266E+03  0.23066827632E+03  0.12509159243E+03 0.  0.
          5    1    3    3  502    0 -0.62806410618E+02 -0.72847303474E+02  0.27048164275E+02  0.10000225212E+03  0.41800000000E+01 0. -1.
         -5    1    3    3    0  502  0.18565641767E+02 -0.42945293729E+02  0.12193094838E+03  0.13066602420E+03  0.41800000000E+01 0. -1.
        -11    1    1    2    0    0  0.79692637369E+02  0.43857613926E+02  0.65435248950E+02  0.11205435536E+03  0.00000000000E+00 0.  1.
         11    1    1    2    0    0 -0.35451868519E+02  0.71934983276E+02  0.33600346703E+02  0.86950906257E+02  0.00000000000E+00 0. -1.
</event>
<event>
 7    1  0.2841804E-009  0.1189257E+03  0.7561462E-02  0.1244880E+00
          2   -1    0    0  501    0  0.00000000000E+00  0.00000000000E+00  0.33654167198E+03  0.33654167198E+03  0.00000000000E+00 0. -1.
         -2   -1    0    0    0  501 -0.00000000000E+00 -0.00000000000E+00 -0.56314777265E+02  0.56314777265E+02  0.00000000000E+00 0.  1.
         25    2    1    2    0    0 -0.23127913210E+02  0.75693998976E+02  0.11040982935E+03  0.18466833483E+03  0.12509029388E+03 0.  0.
          5    1    3    3  502    0 -0.12916103515E+02 -0.18513051104E+02  0.82737009211E+02  0.85862936616E+02  0.41800000000E+01 0. -1.
         -5    1    3    3    0  502 -0.10211809694E+02  0.94207050080E+02  0.27672820135E+02  0.98805398214E+02  0.41800000000E+01 0. -1.
        -11    1    1    2    0    0  0.43151918141E+01  0.21049586132E+02  0.24307303183E+02  0.32443041546E+02  0.00000000000E+00 0.  1.
         11    1    1    2    0    0  0.18812721396E+02 -0.96743585108E+02  0.14550976219E+03  0.17574507287E+03  0.00000000000E+00 0. -1.
</event>
<event>
 7    1  0.2841804E-009  0.2338636E+03  0.7561462E-02  0.1123950E+00
          2   -1    0    0  501    0  0.00000000000E+00  0.00000000000E+00  0.10313913409E+04  0.10313913409E+04  0.00000000000E+00 0. -1.
         -2   -1    0    0    0  501 -0.00000000000E+00 -0.00000000000E+00 -0.57475059554E+02  0.57475059554E+02  0.00000000000E+00 0.  1.
         25    2    1    2    0    0 -0.14439584178E+03  0.16875713168E+03  0.51765118942E+03  0.57700897915E+03  0.12508988567E+03 0.  0.
          5    1    3    3  502    0 -0.87308132502E+02  0.16674597161E+03  0.32048549310E+03  0.37169255136E+03  0.41800000000E+01 0.  1.
         -5    1    3    3    0  502 -0.57087709278E+02  0.20111600690E+01  0.19716569632E+03  0.20531642779E+03  0.41800000000E+01 0.  1.
        -11    1    1    2    0    0  0.38990897579E+02 -0.49779798382E+02  0.20505123758E+03  0.21457942225E+03  0.00000000000E+00 0.  1.
         11    1    1    2    0    0  0.10540494420E+03 -0.11897733330E+03  0.25121385432E+03  0.29727799902E+03  0.00000000000E+00 0. -1.
</event>
<event>
 7    1  0.2841804E-009  0.1172446E+03  0.7561462E-02  0.1247713E+00
          2   -1    0    0  501    0  0.00000000000E+00  0.00000000000E+00  0.90746060371E+03  0.90746060371E+03  0.00000000000E+00 0. -1.
         -2   -1    0    0    0  501 -0.00000000000E+00 -0.00000000000E+00 -0.20554666169E+02  0.20554666169E+02  0.00000000000E+00 0.  1.
         25    2    1    2    0    0  0.37240096240E+02 -0.63496763716E+02  0.61525487447E+03  0.63214068350E+03  0.12507845302E+03 0.  0.
          5    1    3    3  502    0 -0.16202025191E+02  0.25422374789E+02  0.26725145653E+03  0.26897883964E+03  0.41800000000E+01 0.  1.
         -5    1    3    3    0  502  0.53442121430E+02 -0.88919138506E+02  0.34800341794E+03  0.36316184386E+03  0.41800000000E+01 0.  1.
        -11    1    1    2    0    0 -0.36244792552E+01  0.66388377280E+02  0.94539708087E+02  0.11557815491E+03  0.00000000000E+00 0.  1.
         11    1    1    2    0    0 -0.33615616984E+02 -0.28916135637E+01  0.17711135499E+03  0.18029643147E+03  0.00000000000E+00 0. -1.
</event>
<event>
 7    1  0.2841804E-009  0.1332774E+03  0.7561462E-02  0.1222672E+00
         -1   -1    0    0    0  501 -0.00000000000E+00  0.00000000000E+00  0.51422908281E+02  0.51422908281E+02  0.00000000000E+00 0.  1.
          1   -1    0    0  501    0  0.00000000000E+00 -0.00000000000E+00 -0.41408912168E+03  0.41408912168E+03  0.00000000000E+00 0. -1.
         25    2    1    2    0    0  0.87092301080E+02 -0.33973244063E+02 -0.24352885024E+03  0.28929697925E+03  0.12508873286E+03 0.  0.
          5    1    3    3  502    0 -0.38048794638E+01  0.38487440986E+02 -0.75534356749E+02  0.84962766379E+02  0.41800000000E+01 0. -1.
         -5    1    3    3    0  502  0.90897180544E+02 -0.72460685049E+02 -0.16799449349E+03  0.20433421287E+03  0.41800000000E+01 0. -1.
        -11    1    1    2    0    0 -0.91641929428E+02  0.16293829205E+02 -0.51957181838E+02  0.10659869063E+03  0.00000000000E+00 0.  1.
         11    1    1    2    0    0  0.45496283479E+01  0.17679414858E+02 -0.67180181330E+02  0.69616360084E+02  0.00000000000E+00 0. -1.
</event>
<event>
 7    1  0.2841804E-009  0.1379728E+03  0.7561462E-02  0.1216083E+00
         -2   -1    0    0    0  501 -0.00000000000E+00  0.00000000000E+00  0.43615747981E+03  0.43615747981E+03  0.00000000000E+00 0. -1.
          2   -1    0    0  501    0  0.00000000000E+00 -0.00000000000E+00 -0.60409501865E+02  0.60409501865E+02  0.00000000000E+00 0.  1.
         25    2    1    2    0    0  0.76900142380E+02  0.53231120298E+02  0.31773467616E+03  0.35404812582E+03  0.12509023500E+03 0.  0.
          5    1    3    3  502    0  0.90406720606E+01  0.80277823131E+02  0.13755339107E+03  0.15957653472E+03  0.41800000000E+01 0. -1.
         -5    1    3    3    0  502  0.67859470319E+02 -0.27046702833E+02  0.18018128509E+03  0.19447159110E+03  0.41800000000E+01 0. -1.
        -11    1    1    2    0    0 -0.20682497826E+02 -0.61659650967E+02  0.57342671347E+01  0.65288284503E+02  0.00000000000E+00 0. -1.
         11    1    1    2    0    0 -0.56217644554E+02  0.84285306691E+01  0.52279034648E+02  0.77230571357E+02  0.00000000000E+00 0.  1.
</event>
<event>
 7    1  0.2841804E-009  0.1289270E+03  0.7561462E-02  0.1229057E+00
         -1   -1    0    0    0  501 -0.00000000000E+00  0.00000000000E+00  0.61294577006E+02  0.61294577006E+02  0.00000000000E+00 0.  1.
          1   -1    0    0  501    0  0.00000000000E+00 -0.00000000000E+00 -0.31230551756E+03  0.31230551756E+03  0.00000000000E+00 0. -1.
         25    2    1    2    0    0  0.59470990732E+02  0.40272709634E+02 -0.74609766318E+02  0.16239685834E+03  0.12508969777E+03 0.  0.
          5    1    3    3  502    0  0.59480924095E+02 -0.33113590778E+02 -0.51097384237E+02  0.85222680674E+02  0.41800000000E+01 0.  1.
         -5    1    3    3    0  502 -0.99333625362E-02  0.73386300412E+02 -0.23512382081E+02  0.77174177664E+02  0.41800000000E+01 0.  1.
        -11    1    1    2    0    0  0.83484014791E+01 -0.47235409097E+02 -0.73205469178E+02  0.87520971186E+02  0.00000000000E+00 0.  1.
         11    1    1    2    0    0 -0.67819392211E+02  0.69626994632E+01 -0.10319570506E+03  0.12368226505E+03  0.00000000000E+00 0. -1.
</event>
<event>
 7    1  0.2841804E-009  0.9347383E+02  0.7561462E-02  0.1294651E+00
          2   -1    0    0  501    0  0.00000000000E+00  0.00000000000E+00  0.32462329961E+03  0.32462329961E+03  0.00000000000E+00 0. -1.
         -2   -1    0    0    0  501 -0.00000000000E+00 -0.00000000000E+00 -0.70021436783E+02  0.70021436783E+02  0.00000000000E+00 0.  1.
         25    2    1    2    0    0 -0.46829677560E+02 -0.38035227591E+02  0.26089920875E+02  0.14130714038E+03  0.12508927497E+03 0.  0.
          5    1    3    3  502    0  0.13604196447E+02 -0.11410876248E+02  0.62965744679E+02  0.65554859932E+02  0.41800000000E+01 0. -1.
         -5    1    3    3    0  502 -0.60433874006E+02 -0.26624351343E+02 -0.36875823804E+02  0.75752280448E+02  0.41800000000E+01 0. -1.
        -11    1    1    2    0    0  0.69155633073E+02  0.15618613004E+02  0.11156090897E+03  0.13218274875E+03  0.00000000000E+00 0.  1.
         11    1    1    2    0    0 -0.22325955513E+02  0.22416614587E+02  0.11695103298E+03  0.12115484726E+03  0.00000000000E+00 0. -1.
</event>
<event>
 7    1  0.2841804E-009  0.9222680E+02  0.7561462E-02  0.1297547E+00
          2   -1    0    0  501    0  0.00000000000E+00  0.00000000000E+00  0.60059631842E+03  0.60059631842E+03  0.00000000000E+00 0. -1.
         -2   -1    0    0    0  501 -0.00000000000E+00 -0.00000000000E+00 -0.18470830687E+02  0.18470830687E+02  0.00000000000E+00 0.  1.
         25    2    1    2    0    0 -0.93746634278E+01  0.13992697646E+02  0.33471334216E+03  0.35772203295E+03  0.12509337128E+03 0.  0.
          5    1    3    3  502    0  0.23008902426E+02  0.48474451815E+02  0.28064852743E+03  0.28576257701E+03  0.41800000000E+01 0. -1.
         -5    1    3    3    0  502 -0.32383565854E+02 -0.34481754169E+02  0.54064814725E+02  0.71959455940E+02  0.41800000000E+01 0. -1.
        -11    1    1    2    0    0 -0.59286291459E+01  0.33100497549E+02  0.12084048406E+03  0.12543210980E+03  0.00000000000E+00 0.  1.
         11    1    1    2    0    0  0.15303292574E+02 -0.47093195194E+02  0.12657166152E+03  0.13591300635E+03  0.00000000000E+00 0. -1.
</event>
<event>
 7    1  0.2841804E-009  0.1448827E+03  0.7561462E-02  0.1206906E+00
          2   -1    0    0  501    0  0.00000000000E+00  0.00000000000E+00  0.74968137616E+03  0.74968137616E+03  0.00000000000E+00 0. -1.
         -2   -1    0    0    0  501 -0.00000000000E+00 -0.00000000000E+00 -0.49844759331E+02  0.49844759331E+02  0.00000000000E+00 0.  1.
         25    2    1    2    0    0 -0.11203232361E+03  0.25443243567E+02  0.59553731139E+03  0.61928330590E+03  0.12509405875E+03 0.  0.
          5    1    3    3  502    0 -0.13010683629E+02  0.60714423080E+02  0.27382024971E+03  0.28080334865E+03  0.41800000000E+01 0. -1.
         -5    1    3    3    0  502 -0.99021639982E+02 -0.35271179513E+02  0.32171706168E+03  0.33847995726E+03  0.41800000000E+01 0. -1.
        -11    1    1    2    0    0  0.82777070023E+02 -0.37266475984E+02  0.11537019689E+03  0.14680298323E+03  0.00000000000E+00 0. -1.
         11    1    1    2    0    0  0.29255253588E+02  0.11823232417E+02 -0.11070891450E+02  0.33439846363E+02  0.00000000000E+00 0.  1.
</event>
<event>
 7    1  0.2841804E-009  0.1641264E+03  0.7561462E-02  0.1184115E+00
         -2   -1    0    0    0  501 -0.00000000000E+00  0.00000000000E+00  0.12910738258E+03  0.12910738258E+03  0.00000000000E+00 0.  1.
          2   -1    0    0  501    0  0.00000000000E+00 -0.00000000000E+00 -0.25449911852E+03  0.25449911852E+03  0.00000000000E+00 0. -1.
         25    2    1    2    0    0  0.84597473680E+02  0.93059677690E+02 -0.14513089091E+03  0.22918989834E+03  0.12509275694E+03 0.  0.
          5    1    3    3  502    0 -0.28769416236E+02  0.97685794114E+00 -0.38753340110E+02  0.48455415917E+02  0.41800000000E+01 0.  1.
         -5    1    3    3    0  502  0.11336688992E+03  0.92082819749E+02 -0.10637755080E+03  0.18073448242E+03  0.41800000000E+01 0.  1.
        -11    1    1    2    0    0  0.14550350208E+02 -0.35598811716E+02  0.25817185881E+01  0.38544174107E+02  0.00000000000E+00 0.  1.
         11    1    1    2    0    0 -0.99147823888E+02 -0.57460865974E+02  0.17157436381E+02  0.11587242866E+03  0.00000000000E+00 0. -1.
</event>
<event>
 7    1  0.2841804E-009  0.1590343E+03  0.7561462E-02  0.1189791E+00
          1   -1    0    0  501    0  0.00000000000E+00  0.00000000000E+00  0.69020104685E+03  0.69020104685E+03  0.00000000000E+00 0. -1.
         -1   -1    0    0    0  501 -0.00000000000E+00 -0.00000000000E+00 -0.83765939318E+02  0.83765939318E+02  0.00000000000E+00 0.  1.
         25    2    1    2    0    0  0.11547039740E+03 -0.73457827313E+02  0.57768138403E+03  0.60670680679E+03  0.12509157795E+03 0.  0.
          5    1    3    3  502    0  0.52291703522E+02  0.26009776012E+02  0.11263020189E+03  0.12694079519E+03  0.41800000000E+01 0.  1.
         -5    1    3    3    0  502  0.63178693878E+02 -0.99467603325E+02  0.46505118215E+03  0.47976601160E+03  0.41800000000E+01 0.  1.
        -11    1    1    2    0    0 -0.10089357938E+03  0.46792474082E+02  0.57698251048E+02  0.12529221111E+03  0.00000000000E+00 0. -1.
         11    1    1    2    0    0 -0.14576818026E+02  0.26665353232E+02 -0.28944527545E+02  0.41967968280E+02  0.00000000000E+00 0.  1.
</event>
<event>
 7    1  0.2841804E-009  0.1057176E+03  0.7561462E-02  0.1268712E+00
          1   -1    0    0  501    0  0.00000000000E+00  0.00000000000E+00  0.61136838144E+03  0.61136838144E+03  0.00000000000E+00 0. -1.
         -1   -1    0    0    0  501 -0.00000000000E+00 -0.00000000000E+00 -0.29699358583E+02  0.29699358583E+02  0.00000000000E+00 0.  1.
         25    2    1    2    0    0  0.21635850742E+02  0.68935940623E+02  0.26443341063E+03  0.30131823574E+03  0.12508947430E+03 0.  0.
          5    1    3    3  502    0 -0.30288404702E+02  0.71558497275E+02  0.88645236307E+02  0.11795531489E+03  0.41800000000E+01 0. -1.
         -5    1    3    3    0  502  0.51924255444E+02 -0.26225566524E+01  0.17578817433E+03  0.18336292084E+03  0.41800000000E+01 0. -1.
        -11    1    1    2    0    0  0.96674757845E+01 -0.29894398059E+02  0.17697552127E+02  0.36060206248E+02  0.00000000000E+00 0.  1.
         11    1    1    2    0    0 -0.31303326527E+02 -0.39041542564E+02  0.29953806009E+03  0.30368929804E+03  0.00000000000E+00 0. -1.
</event>
<event>
 7    1  0.2841804E-009  0.9379439E+02  0.7561462E-02  0.1293915E+00
          2   -1    0    0  501    0  0.00000000000E+00  0.00000000000E+00  0.13781403212E+03  0.13781403212E+03  0.00000000000E+00 0. -1.
         -2   -1    0    0    0  501 -0.00000000000E+00 -0.00000000000E+00 -0.97719334996E+02  0.97719334996E+02  0.00000000000E+00 0.  1.
         25    2    1    2    0    0 -0.14647030326E+02 -0.31692072675E+02  0.40756357259E+02  0.13611584634E+03  0.12509004757E+03 0.  0.
          5    1    3    3  502    0  0.24267726309E+02 -0.67639066361E+02  0.41266222537E+02  0.82971919111E+02  0.41800000000E+01 0. -1.
         -5    1    3    3    0  502 -0.38914756635E+02  0.35946993686E+02 -0.50986527805E+00  0.53143927232E+02  0.41800000000E+01 0. -1.
        -11    1    1    2    0    0  0.34237707468E+02  0.20200957611E+02  0.37732185520E+02  0.54808914651E+02  0.00000000000E+00 0. -1.
         11    1    1    2    0    0 -0.19590677143E+02  0.11491115065E+02 -0.38393845653E+02  0.44608606125E+02  0.00000000000E+00 0.  1.
</event>
<event>
 7    1  0.2841804E-009  0.4551896E+03  0.7561462E-02  0.1026186E+00
          2   -1    0    0  501    0  0.00000000000E+00  0.00000000000E+00  0.11335305228E+04  0.11335305228E+04  0.00000000000E+00 0. -1.
         -2   -1    0    0    0  501 -0.00000000000E+00 -0.00000000000E+00 -0.19225955953E+03  0.19225955953E+03  0.00000000000E+00 0.  1.
         25    2    1    2    0    0 -0.27357844059E+03  0.34985310000E+03  0.60834797977E+03  0.76352986189E+03  0.12509288858E+03 0.  0.
          5    1    3    3  502    0 -0.16685029351E+03  0.12067686911E+03  0.23320195779E+03  0.31113108604E+03  0.41800000000E+01 0. -1.
         -5    1    3    3    0  502 -0.10672814708E+03  0.22917623089E+03  0.37514602198E+03  0.45239877585E+03  0.41800000000E+01 0. -1.
        -11    1    1    2    0    0  0.22231985117E+03 -0.32708439128E+03  0.30599399541E+03  0.50004263865E+03  0.00000000000E+00 0.  1.
         11    1    1    2    0    0  0.51258589427E+02 -0.22768708712E+02  0.26928988142E+02  0.62217581831E+02  0.00000000000E+00 0. -1.
</event>
<event>
 7    1  0.2841804E-009  0.1539593E+03  0.7561462E-02  0.1195691E+00
          1   -1    0    0  501    0  0.00000000000E+00  0.00000000000E+00  0.31379109581E+03  0.31379109581E+03  0.00000000000E+00 0. -1.
         -1   -1    0    0    0  501 -0.00000000000E+00 -0.00000000000E+00 -0.77778440384E+02  0.77778440384E+02  0.00000000000E+00 0.  1.
         25    2    1    2    0    0 -0.83291550182E+02 -0.75523165135E+02  0.15832254197E+03  0.23098749006E+03  0.12509181614E+03 0.  0.
          5    1    3    3  502    0 -0.15930891144E+02 -0.96157376219E+02  0.88758518616E+02  0.13189230956E+03  0.41800000000E+01 0. -1.
         -5    1    3    3    0  502 -0.67360659038E+02  0.20634211084E+02  0.69564023350E+02  0.99095180497E+02  0.41800000000E+01 0. -1.
        -11    1    1    2    0    0  0.14957566794E+02 -0.18351424924E+02  0.71884166795E+01  0.24742209592E+02  0.00000000000E+00 0. -1.
         11    1    1    2    0    0  0.68333983388E+02  0.93874590059E+02  0.70501696783E+02  0.13583983655E+03  0.00000000000E+00 0.  1.
</event>
<event>
 7    1  0.2841804E-009  0.1292676E+03  0.7561462E-02  0.1228546E+00
          1   -1    0    0  501    0  0.00000000000E+00  0.00000000000E+00  0.66116536173E+03  0.66116536173E+03  0.00000000000E+00 0. -1.
         -1   -1    0    0    0  501 -0.00000000000E+00 -0.00000000000E+00 -0.44856764805E+02  0.44856764805E+02  0.00000000000E+00 0.  1.
         25    2    1    2    0    0  0.11933104647E+03  0.32563927277E+01  0.20618396983E+03  0.26909072343E+03  0.12508990876E+03 0.  0.
          5    1    3    3  502    0  0.12466227266E+02  0.24246493730E+02 -0.80457166308E+01  0.28731606926E+02  0.41800000000E+01 0. -1.
         -5    1    3    3    0  502  0.10686481921E+03 -0.20990101003E+02  0.21422968646E+03  0.24035911650E+03  0.41800000000E+01 0. -1.
        -11    1    1    2    0    0 -0.33736316988E+02 -0.12269764942E+02  0.28825149545E+02  0.46038847313E+02  0.00000000000E+00 0.  1.
         11    1    1    2    0    0 -0.85594729486E+02  0.90133722139E+01  0.38129947756E+03  0.39089255580E+03  0.00000000000E+00 0. -1.
</event>
<event>
 7    1  0.2841804E-009  0.1033982E+03  0.7561462E-02  0.1273308E+00
         -1   -1    0    0    0  501 -0.00000000000E+00  0.00000000000E+00  0.29622893640E+02  0.29622893640E+02  0.00000000000E+00 0.  1.
          1   -1    0    0  501    0  0.00000000000E+00 -0.00000000000E+00 -0.48853215773E+03  0.48853215773E+03  0.00000000000E+00 0. -1.
         25    2    1    2    0    0  0.14937964145E+02 -0.48085622097E+02 -0.30681683457E+03  0.33514073357E+03  0.12508945398E+03 0.  0.
          5    1    3    3  502    0  0.25041400077E+02  0.29524322080E+02 -0.35368123744E+02  0.52603553960E+02  0.41800000000E+01 0.  1.
         -5    1    3    3    0  502 -0.10103435932E+02 -0.77609944178E+02 -0.27144871083E+03  0.28253717961E+03  0.41800000000E+01 0.  1.
        -11    1    1    2    0    0 -0.43895192461E+02  0.40072733232E+02 -0.13711498126E+03  0.14944273136E+03  0.00000000000E+00 0. -1.
         11    1    1    2    0    0  0.28957228316E+02  0.80128888658E+01 -0.14977448256E+02  0.33571586438E+02  0.00000000000E+00 0.  1.
</event>
<event>
 7    1  0.2841804E-009  0.1201110E+03  0.7561462E-02  0.1242914E+00
          4   -1    0    0  501    0  0.00000000000E+00  0.00000000000E+00  0.48182527146E+03  0.48182527146E+03  0.00000000000E+00 0. -1.
         -4   -1    0    0    0  501 -0.00000000000E+00 -0.00000000000E+00 -0.53752250156E+02  0.53752250156E+02  0.00000000000E+00 0.  1.
         25    2    1    2    0    0  0.31371206487E+02  0.75110891220E+02  0.86659486249E+02  0.17257570070E+03  0.12508679922E+03 0.  0.
          5    1    3    3  502    0 -0.18122623297E+02  0.65346585124E+02 -0.47269105831E+01  0.68105959697E+02  0.41800000000E+01 0. -1.
         -5    1    3    3    0  502  0.49493829784E+02  0.97643060964E+01  0.91386396832E+02  0.10446974101E+03  0.41800000000E+01 0. -1.
        -11    1    1    2    0    0  0.99327438484E+01 -0.79504473399E+02  0.25157260739E+03  0.26402347903E+03  0.00000000000E+00 0. -1.
         11    1    1    2    0    0 -0.41303950336E+02  0.43935821790E+01  0.89840927665E+02  0.98978341881E+02  0.00000000000E+00 0.  1.
</event>
<event>
 7    1  0.2841804E-009  0.1167203E+03  0.7561462E-02  0.1248608E+00
          2   -1    0    0  501    0  0.00000000000E+00  0.00000000000E+00  0.30127356308E+03  0.30127356308E+03  0.00000000000E+00 0. -1.
         -2   -1    0    0    0  501 -0.00000000000E+00 -0.00000000000E+00 -0.47460094905E+02  0.47460094905E+02  0.00000000000E+00 0.  1.
         25    2    1    2    0    0  0.48550842708E+02  0.84461092754E+01  0.16886548060E+03  0.21585601429E+03  0.12509894995E+03 0.  0.
          5    1    3    3  502    0  0.82850190954E+02 -0.23840034129E+02  0.12039504110E+03  0.14813824519E+03  0.41800000000E+01 0.  1.
         -5    1    3    3    0  502 -0.34299348246E+02  0.32286143404E+02  0.48470439502E+02  0.67717769098E+02  0.41800000000E+01 0.  1.
        -11    1    1    2    0    0 -0.67046121109E+02 -0.28237222333E+02  0.48373102252E+02  0.87364066425E+02  0.00000000000E+00 0. -1.
         11    1    1    2    0    0  0.18495278401E+02  0.19791113058E+02  0.36574885319E+02  0.45513577263E+02  0.00000000000E+00 0.  1.
</event>
<event>
 7    1  0.2841804E-009  0.9968735E+02  0.7561462E-02  0.1280955E+00
          2   -1    0    0  501    0  0.00000000000E+00  0.00000000000E+00  0.42252251996E+02  0.42252251996E+02  0.00000000000E+00 0. -1.
         -2   -1    0    0    0  501 -0.00000000000E+00 -0.00000000000E+00 -0.34289859957E+03  0.34289859957E+03  0.00000000000E+00 0.  1.
         25    2    1    2    0    0  0.10350738798E+02  0.69960322933E+01 -0.86752522925E+02  0.15274376741E+03  0.12509426841E+03 0.  0.
          5    1    3    3  502    0  0.15097932313E+02  0.64728784816E+02 -0.36506939587E+02  0.75947298713E+02  0.41800000000E+01 0.  1.
         -5    1    3    3    0  502 -0.47471935159E+01 -0.57732752522E+02 -0.50245583338E+02  0.76796468702E+02  0.41800000000E+01 0.  1.
        -11    1    1    2    0    0 -0.42279821603E+02 -0.15462328230E+01 -0.18235267555E+03  0.18719634726E+03  0.00000000000E+00 0.  1.
         11    1    1    2    0    0  0.31929082805E+02 -0.54497994703E+01 -0.31541149108E+02  0.45210736890E+02  0.00000000000E+00 0. -1.
</event>
<event>
 7    1  0.2841804E-009  0.9458683E+02  0.7561462E-02  0.1292109E+00
         -1   -1    0    0    0  501 -0.00000000000E+00  0.00000000000E+00  0.34815176908E+02  0.34815176908E+02  0.00000000000E+00 0.  1.
          1   -1    0    0  501    0  0.00000000000E+00 -0.00000000000E+00 -0.46233954977E+03  0.46233954977E+03  0.00000000000E+00 0. -1.
         25    2    1    2    0    0 -0.12642749081E+02  0.47065359798E+02 -0.32738804773E+03  0.35384390691E+03  0.12509032523E+03 0.  0.
          5    1    3    3  502    0 -0.11865271721E+02 -0.35993720476E+02 -0.18549751052E+03  0.18937563570E+03  0.41800000000E+01 0. -1.
         -5    1    3    3    0  502 -0.77747735965E+00  0.83059080274E+02 -0.14189053721E+03  0.16446827122E+03  0.41800000000E+01 0. -1.
        -11    1    1    2    0    0 -0.50799243975E+01 -0.49700573088E+02 -0.11143958404E+03  0.12212589196E+03  0.00000000000E+00 0.  1.
         11    1    1    2    0    0  0.17722673478E+02  0.26352132894E+01  0.11303258902E+02  0.21184927805E+02  0.00000000000E+00 0. -1.
</event>
<event>
 7    1  0.2841804E-009  0.1615633E+03  0.7561462E-02  0.1186943E+00
         -2   -1    0    0    0  501 -0.00000000000E+00  0.00000000000E+00  0.46198092119E+02  0.46198092119E+02  0.00000000000E+00 0.  1.
          2   -1    0    0  501    0  0.00000000000E+00 -0.00000000000E+00 -0.70517990714E+03  0.70517990714E+03  0.00000000000E+00 0. -1.
         25    2    1    2    0    0  0.14417732606E+03  0.47034647712E+01 -0.37258275104E+03  0.41866125516E+03  0.12510042474E+03 0.  0.
          5    1    3    3  502    0  0.10238894004E+03 -0.21023989548E+02 -0.34845397339E+03  0.36381746405E+03  0.41800000000E+01 0.  1.
         -5    1    3    3    0  502  0.41788386019E+02  0.25727454319E+02 -0.24128777644E+02  0.54843791102E+02  0.41800000000E+01 0.  1.
        -11    1    1    2    0    0 -0.56563057232E+02 -0.45526765437E+02 -0.11804488790E+03  0.13858809968E+03  0.00000000000E+00 0. -1.
         11    1    1    2    0    0 -0.87614268824E+02  0.40823300666E+02 -0.16835417609E+03  0.19412864442E+03  0.00000000000E+00 0.  1.
</event>
<event>
 7    1  0.2841804E-009  0.1106776E+03  0.7561462E-02  0.1259320E+00
         -2   -1    0    0    0  501 -0.00000000000E+00  0.00000000000E+00  0.77530923113E+02  0.77530923113E+02  0.00000000000E+00 0.  1.
          2   -1    0    0  501    0  0.00000000000E+00 -0.00000000000E+00 -0.22326968737E+03  0.22326968737E+03  0.00000000000E+00 0. -1.
         25    2    1    2    0    0 -0.12504986534E+02 -0.94398572580E-02 -0.11971215957E+03  0.17359336650E+03  0.12508909213E+03 0.  0.
          5    1    3    3  502    0  0.41093973882E+02  0.99606315499E+01 -0.55931391970E+00  0.42493694854E+02  0.41800000000E+01 0. -1.
         -5    1    3    3    0  502 -0.53598960416E+02 -0.99700714072E+01 -0.11915284565E+03  0.13109967165E+03  0.41800000000E+01 0. -1.
        -11    1    1    2    0    0  0.43666024351E+02  0.49309294737E+02 -0.18415249682E+02  0.68390420754E+02  0.00000000000E+00 0.  1.
         11    1    1    2    0    0 -0.31161037817E+02 -0.49299854880E+02 -0.76113550081E+01  0.58816823223E+02  0.00000000000E+00 0. -1.
</event>
<event>
 7    1  0.2841804E-009  0.1820888E+03  0.7561462E-02  0.1165797E+00
          1   -1    0    0  501    0  0.00000000000E+00  0.00000000000E+00  0.26127948590E+02  0.26127948590E+02  0.00000000000E+00 0. -1.
         -1   -1    0    0    0  501 -0.00000000000E+00 -0.00000000000E+00 -0.15144040416E+04  0.15144040416E+04  0.00000000000E+00 0.  1.
         25    2    1    2    0    0 -0.23017190687E+02  0.16070085800E+03 -0.91867481522E+03  0.94125747054E+03  0.12509057879E+03 0.  0.
          5    1    3    3  502    0  0.20391854032E+02  0.14572423234E+03 -0.53710332556E+03  0.55691007742E+03  0.41800000000E+01 0. -1.
         -5    1    3    3    0  502 -0.43409044719E+02  0.14976625661E+02 -0.38157148965E+03  0.38434739312E+03  0.41800000000E+01 0. -1.
        -11    1    1    2    0    0  0.39434441826E+02 -0.89620483349E+02 -0.20168940147E+03  0.22419973440E+03  0.00000000000E+00 0.  1.
         11    1    1    2    0    0 -0.16417251139E+02 -0.71080374652E+02 -0.36791187635E+03  0.37507478529E+03  0.00000000000E+00 0. -1.
</event>
<event>
 7    1  0.2841804E-009  0.1209487E+03  0.7561462E-02  0.1241540E+00
         -1   -1    0    0    0  501 -0.00000000000E+00  0.00000000000E+00  0.12068475578E+03  0.12068475578E+03  0.00000000000E+00 0.  1.
          1   -1    0    0  501    0  0.00000000000E+00 -0.00000000000E+00 -0.39255484019E+03  0.39255484019E+03  0.00000000000E+00 0. -1.
         25    2    1    2    0    0 -0.32676740430E+02 -0.69991051345E+02 -0.34305289156E+03  0.37322944502E+03  0.12509362728E+03 0.  0.
          5    1    3    3  502    0 -0.39110897552E+02  0.11034734874E+02 -0.32541363257E+02  0.52228731591E+02  0.41800000000E+01 0. -1.
         -5    1    3    3    0  502  0.64341571213E+01 -0.81025786219E+02 -0.31051152831E+03  0.32100071343E+03  0.41800000000E+01 0. -1.
        -11    1    1    2    0    0  0.42109606718E+02 -0.64809647038E+01  0.17282585061E+02  0.45977272949E+02  0.00000000000E+00 0.  1.
         11    1    1    2    0    0 -0.94328662881E+01  0.76472016049E+02  0.53900222091E+02  0.94032878008E+02  0.00000000000E+00 0. -1.
</event>
<event>
 7    1  0.2841804E-009  0.1046803E+03  0.7561462E-02  0.1270751E+00
          4   -1    0    0  501    0  0.00000000000E+00  0.00000000000E+00  0.11184862284E+02  0.11184862284E+02  0.00000000000E+00 0. -1.
         -4   -1    0    0    0  501 -0.00000000000E+00 -0.00000000000E+00 -0.11446665402E+04  0.11446665402E+04  0.00000000000E+00 0.  1.
         25    2    1    2    0    0  0.30440915660E+01 -0.13279871083E+01 -0.80891597432E+03  0.81853784785E+03  0.12509246500E+03 0.  0.
          5    1    3    3  502    0 -0.59864588827E+02  0.53523632386E+01 -0.33149219060E+03  0.33692278287E+03  0.41800000000E+01 0. -1.
         -5    1    3    3    0  502  0.62908680392E+02 -0.66803503469E+01 -0.47742378372E+03  0.48161506497E+03  0.41800000000E+01 0. -1.
        -11    1    1    2    0    0  0.38066597512E+02  0.17032578986E+02 -0.97854021505E+02  0.10637003393E+03  0.00000000000E+00 0. -1.
         11    1    1    2    0    0 -0.41110689078E+02 -0.15704591878E+02 -0.22671168205E+03  0.23094352067E+03  0.00000000000E+00 0.  1.
</event>
<event>
 7    1  0.2841804E-009  0.1459453E+03  0.7561462E-02  0.1205546E+00
         -2   -1    0    0    0  501 -0.00000000000E+00  0.00000000000E+00  0.80841322503E+02  0.80841322503E+02  0.00000000000E+00 0.  1.
          2   -1    0    0  501    0  0.00000000000E+00 -0.00000000000E+00 -0.40599115041E+03  0.40599115041E+03  0.00000000000E+00 0. -1.
         25    2    1    2    0    0 -0.14176906646E+03 -0.15251725763E+02 -0.11992516004E+03  0.22441180164E+03  0.12509008499E+03 0.  0.
          5    1    3    3  502    0 -0.61312471704E+01  0.79886309368E+01  0.23312091515E+02  0.25735897632E+02  0.41800000000E+01 0. -1.
         -5    1    3    3    0  502 -0.13563781929E+03 -0.23240356700E+02 -0.14323725155E+03  0.19867590401E+03  0.41800000000E+01 0. -1.
        -11    1    1    2    0    0  0.31507032506E+02 -0.25894355148E+01 -0.34601476930E+01  0.31802058041E+02  0.00000000000E+00 0.  1.
         11    1    1    2    0    0  0.11026203395E+03  0.17841161278E+02 -0.20176452018E+03  0.23061861324E+03  0.00000000000E+00 0. -1.
</event>
<event>
 7    1  0.2841804E-009  0.1180469E+03  0.7561462E-02  0.1246354E+00
         -1   -1    0    0    0  501 -0.00000000000E+00  0.00000000000E+00  0.18957284333E+02  0.18957284333E+02  0.00000000000E+00 0.  1.
          1   -1    0    0  501    0  0.00000000000E+00 -0.00000000000E+00 -0.84782842745E+03  0.84782842745E+03  0.00000000000E+00 0. -1.
         25    2    1    2    0    0 -0.50567678637E+02 -0.21663396568E+02 -0.34028861935E+03  0.36670210609E+03  0.12509075616E+03 0.  0.
          5    1    3    3  502    0 -0.72954943673E+02 -0.58298722354E+02 -0.23668950479E+03  0.25448095982E+03  0.41800000000E+01 0.  1.
         -5    1    3    3    0  502  0.22387265036E+02  0.36635325787E+02 -0.10359911456E+03  0.11222114627E+03  0.41800000000E+01 0.  1.
        -11    1    1    2    0    0 -0.84300341061E+01 -0.23635399420E+02 -0.59088005727E+02  0.64195716380E+02  0.00000000000E+00 0.  1.
         11    1    1    2    0    0  0.58997712743E+02  0.45298795988E+02 -0.42949451804E+03  0.43588788931E+03  0.00000000000E+00 0. -1.
</event>
<event>
 7    1  0.2841804E-009  0.1080790E+03  0.7561462E-02  0.1264169E+00
          1   -1    0    0  501    0  0.00000000000E+00  0.00000000000E+00  0.26661368416E+03  0.26661368416E+03  0.00000000000E+00 0. -1.
         -1   -1    0    0    0  501 -0.00000000000E+00 -0.00000000000E+00 -0.49090012186E+02  0.49090012186E+02  0.00000000000E+00 0.  1.
         25    2    1    2    0    0 -0.12069542415E+02  0.28652425370E+02  0.91882035747E+02  0.15829051805E+03  0.12508774631E+03 0.  0.
          5    1    3    3  502    0 -0.67371280995E+02  0.28915415339E+02  0.52475385814E+02  0.90255909853E+02  0.41800000000E+01 0.  1.
         -5    1    3    3    0  502  0.55301738579E+02 -0.26298996873E+00  0.39406649933E+02  0.68034608197E+02  0.41800000000E+01 0.  1.
        -11    1    1    2    0    0  0.50481920442E+01  0.28873634321E+02  0.15991265477E+02  0.33389992114E+02  0.00000000000E+00 0.  1.
         11    1    1    2    0    0  0.70213503712E+01 -0.57526059692E+02  0.10965037075E+03  0.12402318618E+03  0.00000000000E+00 0. -1.
</event>
<event>
 7    1  0.2841804E-009  0.2277251E+03  0.7561462E-02  0.1128251E+00
         -2   -1    0    0    0  501 -0.00000000000E+00  0.00000000000E+00  0.26379780525E+02  0.26379780525E+02  0.00000000000E+00 0.  1.
          2   -1    0    0  501    0  0.00000000000E+00 -0.00000000000E+00 -0.20962547254E+04  0.20962547254E+04  0.00000000000E+00 0. -1.
         25    2    1    2    0    0  0.17454123265E+03 -0.11150552741E+03 -0.11731992746E+04  0.11978907803E+04  0.12509060253E+03 0.  0.
          5    1    3    3  502    0  0.51699173132E+02 -0.10488513625E+03 -0.64610204040E+03  0.65661176910E+03  0.41800000000E+01 0.  1.
         -5    1    3    3    0  502  0.12284205952E+03 -0.66203911658E+01 -0.52709723424E+03  0.54127901115E+03  0.41800000000E+01 0.  1.
        -11    1    1    2    0    0 -0.62464862469E+02  0.74720326509E+02 -0.26916726015E+03  0.28624465091E+03  0.00000000000E+00 0. -1.
         11    1    1    2    0    0 -0.11207637018E+03  0.36785200904E+02 -0.62750841008E+03  0.63849907477E+03  0.00000000000E+00 0.  1.
</event>
<event>
 7    1  0.2841804E-009  0.1037158E+03  0.7561462E-02  0.1272671E+00
         -1   -1    0    0    0  501 -0.00000000000E+00  0.00000000000E+00  0.30562817170E+02  0.30562817170E+02  0.00000000000E+00 0.  1.
          1   -1    0    0  501    0  0.00000000000E+00 -0.00000000000E+00 -0.55476129458E+03  0.55476129458E+03  0.00000000000E+00 0. -1.
         25    2    1    2    0    0 -0.66442325237E+02 -0.28521752326E+01 -0.34140168725E+03  0.36962122463E+03  0.12506806208E+03 0.  0.
          5    1    3    3  502    0  0.34820653448E+02  0.12239483749E+02 -0.65395914004E+02  0.75208914614E+02  0.41800000000E+01 0. -1.
         -5    1    3    3    0  502 -0.10126297868E+03 -0.15091658982E+02 -0.27600577325E+03  0.29441231001E+03  0.41800000000E+01 0. -1.
        -11    1    1    2    0    0  0.31215017409E+02 -0.52996636625E+01 -0.17610761538E+03  0.17893114861E+03  0.00000000000E+00 0. -1.
         11    1    1    2    0    0  0.35227307827E+02  0.81518388951E+01 -0.66891747797E+01  0.36771738514E+02  0.00000000000E+00 0.  1.
</event>
<event>
 7    1  0.2841804E-009  0.1502437E+03  0.7561462E-02  0.1200174E+00
          2   -1    0    0  501    0  0.00000000000E+00  0.00000000000E+00  0.47373521132E+03  0.47373521132E+03  0.00000000000E+00 0. -1.
         -2   -1    0    0    0  501 -0.00000000000E+00 -0.00000000000E+00 -0.95017057186E+02  0.95017057186E+02  0.00000000000E+00 0.  1.
         25    2    1    2    0    0 -0.97113056106E+02 -0.43715620425E+02  0.39516971471E+03  0.42795746294E+03  0.12508591258E+03 0.  0.
          5    1    3    3  502    0 -0.81587729645E+01 -0.70582280110E+02  0.17833549647E+03  0.19201418058E+03  0.41800000000E+01 0.  1.
         -5    1    3    3    0  502 -0.88954283142E+02  0.26866659685E+02  0.21683421824E+03  0.23594328237E+03  0.41800000000E+01 0.  1.
        -11    1    1    2    0    0  0.67617954903E+02 -0.16183936663E+02  0.73418609709E+01  0.69914308648E+02  0.00000000000E+00 0. -1.
         11    1    1    2    0    0  0.29495101203E+02  0.59899557088E+02 -0.23793421548E+02  0.70880496918E+02  0.00000000000E+00 0.  1.
</event>
<event>
 7    1  0.2841804E-009  0.3476085E+03  0.7561462E-02  0.1063601E+00
         -2   -1    0    0    0  501 -0.00000000000E+00  0.00000000000E+00  0.10209136232E+03  0.10209136232E+03  0.00000000000E+00 0.  1.
          2   -1    0    0  501    0  0.00000000000E+00 -0.00000000000E+00 -0.13363929001E+04  0.13363929001E+04  0.00000000000E+00 0. -1.
         25    2    1    2    0    0 -0.23419524457E+03 -0.24257989585E+03 -0.42322334736E+03  0.55539050575E+03  0.12509274030E+03 0.  0.
          5    1    3    3  502    0 -0.17655826566E+03 -0.98251301386E+02 -0.20936377334E+03  0.29099278580E+03  0.41800000000E+01 0. -1.
         -5    1    3    3    0  502 -0.57636978914E+02 -0.14432859446E+03 -0.21385957402E+03  0.26439771996E+03  0.41800000000E+01 0. -1.
        -11    1    1    2    0    0  0.66206168477E+02  0.57364414362E+02 -0.32330247357E+03  0.33496032928E+03  0.00000000000E+00 0. -1.
         11    1    1    2    0    0  0.16798907610E+03  0.18521548149E+03 -0.48777571686E+03  0.54813342739E+03  0.00000000000E+00 0.  1.
</event>
<event>
 7    1  0.2841804E-009  0.1190961E+03  0.7561462E-02  0.1244596E+00
          1   -1    0    0  501    0  0.00000000000E+00  0.00000000000E+00  0.42421933988E+03  0.42421933988E+03  0.00000000000E+00 0. -1.
         -1   -1    0    0    0  501 -0.00000000000E+00 -0.00000000000E+00 -0.47553420104E+02  0.47553420104E+02  0.00000000000E+00 0.  1.
         25    2    1    2    0    0  0.22578178660E+02 -0.89157401942E+02  0.21993264221E+03  0.26922941614E+03  0.12512112106E+03 0.  0.
          5    1    3    3  502    0 -0.27648088544E+02 -0.11198222147E+02 -0.41608012572E+00  0.30124118279E+02  0.41800000000E+01 0.  1.
         -5    1    3    3    0  502  0.50226267205E+02 -0.77959179794E+02  0.22034872233E+03  0.23910529786E+03  0.41800000000E+01 0.  1.
        -11    1    1    2    0    0  0.17521128818E+02  0.67353188577E+02  0.47786632709E+02  0.84421586293E+02  0.00000000000E+00 0.  1.
         11    1    1    2    0    0 -0.40099307478E+02  0.21804213365E+02  0.10894664486E+03  0.11812175755E+03  0.00000000000E+00 0. -1.
</event>
<event>
 7    1  0.2841804E-009  0.6012050E+02  0.7561462E-02  0.1397327E+00
          4   -1    0    0  501    0  0.00000000000E+00  0.00000000000E+00  0.21791397873E+03  0.21791397873E+03  0.00000000000E+00 0. -1.
         -4   -1    0    0    0  501 -0.00000000000E+00 -0.00000000000E+00 -0.64200638022E+02  0.64200638022E+02  0.00000000000E+00 0.  1.
         25    2    1    2    0    0  0.11745272266E+02 -0.43201787922E+02  0.10529284975E+03  0.16952553568E+03  0.12509187479E+03 0.  0.
          5    1    3    3  502    0  0.54010283676E+01 -0.13616707644E+02  0.12959812716E+03  0.13049035519E+03  0.41800000000E+01 0. -1.
         -5    1    3    3    0  502  0.63442438986E+01 -0.29585080278E+02 -0.24305277410E+02  0.39035180487E+02  0.41800000000E+01 0. -1.
        -11    1    1    2    0    0  0.15986947027E+02 -0.67304516310E+01  0.52534922120E+02  0.55324492737E+02  0.00000000000E+00 0. -1.
         11    1    1    2    0    0 -0.27732219293E+02  0.49932239553E+02 -0.41144311620E+01  0.57264588337E+02  0.00000000000E+00 0.  1.
</event>
<event>
 7    1  0.2841804E-009  0.1700668E+03  0.7561462E-02  0.1177778E+00
          1   -1    0    0  501    0  0.00000000000E+00  0.00000000000E+00  0.49361538196E+03  0.49361538196E+03  0.00000000000E+00 0. -1.
         -1   -1    0    0    0  501 -0.00000000000E+00 -0.00000000000E+00 -0.65927883896E+02  0.65927883896E+02  0.00000000000E+00 0.  1.
         25    2    1    2    0    0 -0.11463699579E+03 -0.86597404683E+02  0.24428703409E+03  0.30978117372E+03  0.12508984477E+03 0.  0.
          5    1    3    3  502    0 -0.13994927309E+03 -0.86901479639E+02  0.21374457811E+03  0.26989235498E+03  0.41800000000E+01 0.  1.
         -5    1    3    3    0  502  0.25312277300E+02  0.30407495646E+00  0.30542455972E+02  0.39888818740E+02  0.41800000000E+01 0.  1.
        -11    1    1    2    0    0  0.65971842315E+02  0.74560658062E+02  0.17139724081E+03  0.19821349567E+03  0.00000000000E+00 0. -1.
         11    1    1    2    0    0  0.48665153473E+02  0.12036746621E+02  0.12003223171E+02  0.51548596472E+02  0.00000000000E+00 0.  1.
</event>
<event>
 7    1  0.2841804E-009  0.2351156E+03  0.7561462E-02  0.1123090E+00
          1   -1    0    0  501    0  0.00000000000E+00  0.00000000000E+00  0.69971811955E+03  0.69971811955E+03  0.00000000000E+00 0. -1.
         -1   -1    0    0    0  501 -0.00000000000E+00 -0.00000000000E+00 -0.10806979130E+03  0.10806979130E+03  0.00000000000E+00 0.  1.
         25    2    1    2    0    0  0.19612757516E+03 -0.12256367843E+03  0.15839698777E+03  0.30695947277E+03  0.12508649480E+03 0.  0.
          5    1    3    3  502    0  0.62393771792E+02 -0.31772266903E+02  0.12275702695E+03  0.14138323723E+03  0.41800000000E+01 0. -1.
         -5    1    3    3    0  502  0.13373380336E+03 -0.90791411530E+02  0.35639960821E+02  0.16557623554E+03  0.41800000000E+01 0. -1.
        -11    1    1    2    0    0 -0.17860156356E+02  0.36074027340E+02  0.14894617562E+03  0.15428961036E+03  0.00000000000E+00 0. -1.
         11    1    1    2    0    0 -0.17826741880E+03  0.86489651092E+02  0.28430516486E+03  0.34653882772E+03  0.00000000000E+00 0.  1.
</event>
<event>
 7    1  0.3424551E-009  0.1054264E+03  0.7561462E-02  0.1269282E+00
          3   -1    0    0  501    0  0.00000000000E+00  0.00000000000E+00  0.63724204264E+02  0.63724204264E+02  0.00000000000E+00 0. -1.
         -3   -1    0    0    0  501 -0.00000000000E+00 -0.00000000000E+00 -0.23903404530E+03  0.23903404530E+03  0.00000000000E+00 0.  1.
         25    2    1    2    0    0 -0.11092600651E+02 -0.57356937243E+02 -0.95675443590E+02  0.16797201806E+03  0.12509174355E+03 0.  0.
          5    1    3    3  502    0 -0.35034631185E+02  0.30662201977E+02 -0.32934912093E+02  0.57181962601E+02  0.41800000000E+01 0. -1.
         -5    1    3    3    0  502  0.23942030534E+02 -0.88019139221E+02 -0.62740531498E+02  0.11079005546E+03  0.41800000000E+01 0. -1.
        -11    1    1    2    0    0 -0.14620985139E+02  0.69072277215E+01 -0.76374659533E+02  0.78067737383E+02  0.00000000000E+00 0.  1.
         11    1    1    2    0    0  0.25713585790E+02  0.50449709522E+02 -0.32597379172E+01  0.56718494129E+02  0.00000000000E+00 0. -1.
</event>
<event>
 7    1  0.2841804E-009  0.8536600E+02  0.7561462E-02  0.1314478E+00
         -1   -1    0    0    0  501 -0.00000000000E+00  0.00000000000E+00  0.16966441943E+03  0.16966441943E+03  0.00000000000E+00 0.  1.
          1   -1    0    0  501    0  0.00000000000E+00 -0.00000000000E+00 -0.91017140632E+02  0.91017140632E+02  0.00000000000E+00 0. -1.
         25    2    1    2    0    0  0.38049810686E+02 -0.39972974919E+02  0.67438535195E+02  0.15244834280E+03  0.12508762679E+03 0.  0.
          5    1    3    3  502    0  0.50941700310E+02 -0.44589875913E+02  0.97719432945E+02  0.11895324224E+03  0.41800000000E+01 0.  1.
         -5    1    3    3    0  502 -0.12891889624E+02  0.46169009940E+01 -0.30280897750E+02  0.33495100558E+02  0.41800000000E+01 0.  1.
        -11    1    1    2    0    0 -0.85292592065E+01 -0.19998871449E+02  0.31592241581E+02  0.38350656447E+02  0.00000000000E+00 0.  1.
         11    1    1    2    0    0 -0.29520551480E+02  0.59971846367E+02 -0.20383497978E+02  0.69882560816E+02  0.00000000000E+00 0. -1.
</event>
<event>
 7    1  0.2841804E-009  0.1495306E+03  0.7561462E-02  0.1201051E+00
          1   -1    0    0  501    0  0.00000000000E+00  0.00000000000E+00  0.52799351498E+03  0.52799351498E+03  0.00000000000E+00 0. -1.
         -1   -1    0    0    0  501 -0.00000000000E+00 -0.00000000000E+00 -0.55092713032E+02  0.55092713032E+02  0.00000000000E+00 0.  1.
         25    2    1    2    0    0 -0.12238067720E+03 -0.36040781534E+02  0.30225505943E+03  0.35111422098E+03  0.12508839730E+03 0.  0.
          5    1    3    3  502    0 -0.13390978083E+03 -0.31125353554E+02  0.30753102144E+03  0.33688784274E+03  0.41800000000E+01 0.  1.
         -5    1    3    3    0  502  0.11529103631E+02 -0.49154279798E+01 -0.52759620104E+01  0.14226378243E+02  0.41800000000E+01 0.  1.
        -11    1    1    2    0    0  0.14537584740E+02 -0.21591418398E+02  0.57000815398E+01  0.26646231405E+02  0.00000000000E+00 0.  1.
         11    1    1    2    0    0  0.10784309246E+03  0.57632199932E+02  0.16494566099E+03  0.20532577563E+03  0.00000000000E+00 0. -1.
</event>
<event>
 7    1  0.2841804E-009  0.1258322E+03  0.7561462E-02  0.1233774E+00
          1   -1    0    0  501    0  0.00000000000E+00  0.00000000000E+00  0.15892286724E+03  0.15892286724E+03  0.00000000000E+00 0. -1.
         -1   -1    0    0    0  501 -0.00000000000E+00 -0.00000000000E+00 -0.17098417989E+03  0.17098417989E+03  0.00000000000E+00 0.  1.
         25    2    1    2    0    0  0.76530110133E+02  0.61787564831E+02  0.69382587360E+02  0.17359195443E+03  0.12508262186E+03 0.  0.
          5    1    3    3  502    0  0.52593075997E+02  0.79994978061E+02 -0.21831142157E+01  0.95851273051E+02  0.41800000000E+01 0.  1.
         -5    1    3    3    0  502  0.23937034135E+02 -0.18207413230E+02  0.71565701575E+02  0.77740681382E+02  0.41800000000E+01 0.  1.
        -11    1    1    2    0    0 -0.40126203745E+02 -0.76360725028E+02 -0.29361880486E+02  0.91121855663E+02  0.00000000000E+00 0.  1.
         11    1    1    2    0    0 -0.36403906388E+02  0.14573160197E+02 -0.52082019516E+02  0.65193237036E+02  0.00000000000E+00 0. -1.
</event>
<event>
 7    1  0.2841804E-009  0.1248850E+03  0.7561462E-02  0.1235249E+00
         -1   -1    0    0    0  501 -0.00000000000E+00  0.00000000000E+00  0.11529474835E+03  0.11529474835E+03  0.00000000000E+00 0.  1.
          1   -1    0    0  501    0  0.00000000000E+00 -0.00000000000E+00 -0.22012081224E+03  0.22012081224E+03  0.00000000000E+00 0. -1.
         25    2    1    2    0    0 -0.11015624219E+03  0.46729317600E+02 -0.34063713068E+02  0.17642895969E+03  0.12509522154E+03 0.  0.
          5    1    3    3  502    0 -0.23235928543E+02 -0.44068683081E+01  0.43126316015E+02  0.49362743001E+02  0.41800000000E+01 0.  1.
         -5    1    3    3    0  502 -0.86920313651E+02  0.51136185908E+02 -0.77190029083E+02  0.12706621669E+03  0.41800000000E+01 0.  1.
        -11    1    1    2    0    0  0.86994546658E+02 -0.51607308053E+02 -0.20184917642E+02  0.10314454078E+03  0.00000000000E+00 0.  1.
         11    1    1    2    0    0  0.23161695537E+02  0.48779904535E+01 -0.50577433181E+02  0.55842060118E+02  0.00000000000E+00 0. -1.
</event>
<event>
 7    1  0.2841804E-009  0.1483073E+03  0.7561462E-02  0.1202568E+00
          3   -1    0    0  501    0  0.00000000000E+00  0.00000000000E+00  0.18996695136E+03  0.18996695136E+03  0.00000000000E+00 0. -1.
         -3   -1    0    0    0  501 -0.00000000000E+00 -0.00000000000E+00 -0.17663933310E+03  0.17663933310E+03  0.00000000000E+00 0.  1.
         25    2    1    2    0    0 -0.10894999771E+03  0.23644253845E+02 -0.89195223376E+02  0.18982233894E+03  0.12509028638E+03 0.  0.
          5    1    3    3  502    0 -0.11089918897E+03  0.55915782891E+02 -0.95365972591E+02  0.15664401048E+03  0.41800000000E+01 0.  1.
         -5    1    3    3    0  502  0.19491912611E+01 -0.32271529046E+02  0.61707492152E+01  0.33178328461E+02  0.41800000000E+01 0.  1.
        -11    1    1    2    0    0  0.10872356472E+03 -0.45521204087E+02  0.68481709405E+02  0.13631851697E+03  0.00000000000E+00 0.  1.
         11    1    1    2    0    0  0.22643299092E+00  0.21876950243E+02  0.34041132230E+02  0.40465428545E+02  0.00000000000E+00 0. -1.
</event>
<event>
 7    1  0.2841804E-009  0.8633328E+02  0.7561462E-02  0.1311982E+00
         -2   -1    0    0    0  501 -0.00000000000E+00  0.00000000000E+00  0.41677512569E+02  0.41677512569E+02  0.00000000000E+00 0.  1.
          2   -1    0    0  501    0  0.00000000000E+00 -0.00000000000E+00 -0.36547152856E+03  0.36547152856E+03  0.00000000000E+00 0. -1.
         25    2    1    2    0    0  0.36606988607E+02  0.34732293990E+02 -0.19568597453E+03  0.23766927264E+03  0.12508908292E+03 0.  0.
          5    1    3    3  502    0  0.47228825182E+02  0.34585316099E+02 -0.20579058368E+02  0.62190642874E+02  0.41800000000E+01 0.  1.
         -5    1    3    3    0  502 -0.10621836574E+02  0.14697789100E+00 -0.17510691616E+03  0.17547862976E+03  0.41800000000E+01 0.  1.
        -11    1    1    2    0    0 -0.85295988789E+00  0.29253652231E+02 -0.70236576234E+02  0.76089949076E+02  0.00000000000E+00 0. -1.
         11    1    1    2    0    0 -0.35754028720E+02 -0.63985946221E+02 -0.57871465227E+02  0.93389819419E+02  0.00000000000E+00 0.  1.
</event>
<event>
 7    1  0.2841804E-009  0.1423730E+03  0.7561462E-02  0.1210171E+00
          2   -1    0    0  501    0  0.00000000000E+00  0.00000000000E+00  0.22671906506E+03  0.22671906506E+03  0.00000000000E+00 0. -1.
         -2   -1    0    0    0  501 -0.00000000000E+00 -0.00000000000E+00 -0.17208651283E+03  0.17208651283E+03  0.00000000000E+00 0.  1.
         25    2    1    2    0    0  0.76782248733E+02 -0.78878988405E+02  0.12367677228E+03  0.20750588769E+03  0.12508133710E+03 0.  0.
          5    1    3    3  502    0  0.41490088250E+02  0.83672060351E+01  0.10246397439E+03  0.11094041648E+03  0.41800000000E+01 0.  1.
         -5    1    3    3    0  502  0.35292160483E+02 -0.87246194440E+02  0.21212797889E+02  0.96565471211E+02  0.41800000000E+01 0.  1.
        -11    1    1    2    0    0 -0.98185422293E+02  0.79889630260E+02 -0.94544912211E+02  0.15799199536E+03  0.00000000000E+00 0.  1.
         11    1    1    2    0    0  0.21403173560E+02 -0.10106418544E+01  0.25500692159E+02  0.33307694846E+02  0.00000000000E+00 0. -1.
</event>
<event>
 7    1  0.2841804E-009  0.2078709E+03  0.7561462E-02  0.1143263E+00
          3   -1    0    0  501    0  0.00000000000E+00  0.00000000000E+00  0.27778740442E+03  0.27778740442E+03  0.00000000000E+00 0. -1.
         -3   -1    0    0    0  501 -0.00000000000E+00 -0.00000000000E+00 -0.16934067734E+03  0.16934067734E+03  0.00000000000E+00 0.  1.
         25    2    1    2    0    0 -0.18069653623E+03  0.47978146860E+02  0.46392250937E+02  0.22967863048E+03  0.12508753564E+03 0.  0.
          5    1    3    3  502    0 -0.19552245765E+02 -0.33337843263E+02 -0.10700460107E+02  0.40319652211E+02  0.41800000000E+01 0. -1.
         -5    1    3    3    0  502 -0.16114429046E+03  0.81315990123E+02  0.57092711044E+02  0.18935897827E+03  0.41800000000E+01 0. -1.
        -11    1    1    2    0    0  0.66040050688E+02  0.11691432728E+02 -0.12519245184E+02  0.68225430700E+02  0.00000000000E+00 0.  1.
         11    1    1    2    0    0  0.11465648554E+03 -0.59669579588E+02  0.74573721329E+02  0.14922402058E+03  0.00000000000E+00 0. -1.
</event>
<event>
 7    1  0.2841804E-009  0.3418447E+03  0.7561462E-02  0.1066013E+00
          1   -1    0    0  501    0  0.00000000000E+00  0.00000000000E+00  0.14767006703E+04  0.14767006703E+04  0.00000000000E+00 0. -1.
         -1   -1    0    0    0  501 -0.00000000000E+00 -0.00000000000E+00 -0.90527811732E+02  0.90527811732E+02  0.00000000000E+00 0.  1.
         25    2    1    2    0    0 -0.15260995802E+03 -0.29777027324E+03  0.49274855461E+03  0.60861127834E+03  0.12509842178E+03 0.  0.
          5    1    3    3  502    0 -0.10238291898E+03 -0.93840078800E+02  0.13488347127E+03  0.19364721973E+03  0.41800000000E+01 0. -1.
         -5    1    3    3    0  502 -0.50227039034E+02 -0.20393019444E+03  0.35786508334E+03  0.41496405860E+03  0.41800000000E+01 0. -1.
        -11    1    1    2    0    0  0.77189861769E+02  0.14265871835E+03  0.56282182352E+03  0.58572876804E+03  0.00000000000E+00 0. -1.
         11    1    1    2    0    0  0.75420096249E+02  0.15511155489E+03  0.33060248048E+03  0.37288843570E+03  0.00000000000E+00 0.  1.
</event>
<event>
 7    1  0.2841804E-009  0.1219970E+03  0.7561462E-02  0.1239838E+00
         -2   -1    0    0    0  501 -0.00000000000E+00  0.00000000000E+00  0.18088019574E+03  0.18088019574E+03  0.00000000000E+00 0. -1.
          2   -1    0    0  501    0  0.00000000000E+00 -0.00000000000E+00 -0.94729978524E+02  0.94729978524E+02  0.00000000000E+00 0.  1.
         25    2    1    2    0    0 -0.38091658014E+01  0.65073203285E+02  0.23317148823E+02  0.14297534619E+03  0.12509687710E+03 0.  0.
          5    1    3    3  502    0  0.36055314504E+02 -0.18792297289E+02 -0.13430434195E+02  0.43023076413E+02  0.41800000000E+01 0.  1.
         -5    1    3    3    0  502 -0.39864480305E+02  0.83865500575E+02  0.36747583018E+02  0.99952269781E+02  0.41800000000E+01 0.  1.
        -11    1    1    2    0    0  0.43684590656E+02 -0.52628755414E+02  0.16712109919E+02  0.70408976524E+02  0.00000000000E+00 0.  1.
         11    1    1    2    0    0 -0.39875424855E+02 -0.12444447872E+02  0.46120958470E+02  0.62225851544E+02  0.00000000000E+00 0. -1.
</event>
<event>
 7    1  0.2841804E-009  0.1279358E+03  0.7561462E-02  0.1230551E+00
         -2   -1    0    0    0  501 -0.00000000000E+00  0.00000000000E+00  0.13733998006E+02  0.13733998006E+02  0.00000000000E+00 0.  1.
          2   -1    0    0  501    0  0.00000000000E+00 -0.00000000000E+00 -0.21974158257E+04  0.21974158257E+04  0.00000000000E+00 0. -1.
         25    2    1    2    0    0  0.80948514133E+02 -0.17521364947E+02 -0.18080722400E+04  0.18142856425E+04  0.12508999780E+03 0.  0.
          5    1    3    3  502    0  0.81893645040E+00 -0.43625664671E+02 -0.24170660326E+03  0.24564898481E+03  0.41800000000E+01 0. -1.
         -5    1    3    3    0  502  0.80129577683E+02  0.26104299723E+02 -0.15663656367E+04  0.15686366577E+04  0.41800000000E+01 0. -1.
        -11    1    1    2    0    0 -0.79057465158E+02  0.51031299490E+02 -0.29124017592E+03  0.30606390900E+03  0.00000000000E+00 0.  1.
         11    1    1    2    0    0 -0.18910489755E+01 -0.33509934543E+02 -0.84369411802E+02  0.90800272175E+02  0.00000000000E+00 0. -1.
</event>
<event>
 7    1  0.2841804E-009  0.2153844E+03  0.7561462E-02  0.1137372E+00
          1   -1    0    0  501    0  0.00000000000E+00  0.00000000000E+00  0.21559120972E+03  0.21559120972E+03  0.00000000000E+00 0. -1.
         -1   -1    0    0    0  501 -0.00000000000E+00 -0.00000000000E+00 -0.33974019886E+03  0.33974019886E+03  0.00000000000E+00 0.  1.
         25    2    1    2    0    0 -0.93676628205E+02 -0.17305437723E+03  0.90757481602E+02  0.25021299687E+03  0.12508595119E+03 0.  0.
          5    1    3    3  502    0  0.22910704019E+02  0.13130636807E+01  0.75151372267E+01  0.24506615074E+02  0.41800000000E+01 0. -1.
         -5    1    3    3    0  502 -0.11658733222E+03 -0.17436744091E+03  0.83242344376E+02  0.22570638179E+03  0.41800000000E+01 0. -1.
        -11    1    1    2    0    0  0.85207209932E+02  0.16613389984E+03 -0.15056872152E+03  0.23985762694E+03  0.00000000000E+00 0. -1.
         11    1    1    2    0    0  0.84694182726E+01  0.69204773925E+01 -0.64337749223E+02  0.65260784766E+02  0.00000000000E+00 0.  1.
</event>
<event>
 7    1  0.2841804E-009  0.1075193E+03  0.7561462E-02  0.1265234E+00
         -4   -1    0    0    0  501 -0.00000000000E+00  0.00000000000E+00  0.69428947965E+03  0.69428947965E+03  0.00000000000E+00 0.  1.
          4   -1    0    0  501    0  0.00000000000E+00 -0.00000000000E+00 -0.26109460671E+02  0.26109460671E+02  0.00000000000E+00 0. -1.
         25    2    1    2    0    0  0.35975903052E+02  0.69264116098E+02  0.39527535851E+03  0.42187928499E+03  0.12509092165E+03 0.  0.
          5    1    3    3  502    0  0.14166130005E+02  0.74977009297E+02  0.10069973088E+03  0.12641257597E+03  0.41800000000E+01 0. -1.
         -5    1    3    3    0  502  0.21809773047E+02 -0.57128931990E+01  0.29457562762E+03  0.29546670902E+03  0.41800000000E+01 0. -1.
        -11    1    1    2    0    0  0.11512296274E+02  0.15034924417E+02  0.85957411752E+02  0.88018512558E+02  0.00000000000E+00 0.  1.
         11    1    1    2    0    0 -0.47488199326E+02 -0.84299040515E+02  0.18694724872E+03  0.21050114277E+03  0.00000000000E+00 0. -1.
</event>
<event>
 7    1  0.2841804E-009  0.1889043E+03  0.7561462E-02  0.1159453E+00
          2   -1    0    0  501    0  0.00000000000E+00  0.00000000000E+00  0.29940469840E+03  0.29940469840E+03  0.00000000000E+00 0. -1.
         -2   -1    0    0    0  501 -0.00000000000E+00 -0.00000000000E+00 -0.13905111176E+03  0.13905111176E+03  0.00000000000E+00 0.  1.
         25    2    1    2    0    0 -0.15482124015E+03  0.65632387837E+02  0.12646164762E+03  0.24477989148E+03  0.12508964872E+03 0.  0.
          5    1    3    3  502    0 -0.13582180388E+01 -0.26122390653E+02  0.35018454185E+02  0.43908866795E+02  0.41800000000E+01 0. -1.
         -5    1    3    3    0  502 -0.15346302211E+03  0.91754778490E+02  0.91443193435E+02  0.20087102468E+03  0.41800000000E+01 0. -1.
        -11    1    1    2    0    0  0.11421384182E+03 -0.29137519440E+02 -0.16934967713E+02  0.11908228178E+03  0.00000000000E+00 0.  1.
         11    1    1    2    0    0  0.40607398337E+02 -0.36494868396E+02  0.50826906731E+02  0.74593636905E+02  0.00000000000E+00 0. -1.
</event>
<event>
 6    1  0.2841804E-009  0.6936172E+02  0.7561462E-02  0.1362277E+00
         -2   -1    0    0    0  501 -0.00000000000E+00  0.00000000000E+00  0.27525159886E+02  0.27525159886E+02  0.00000000000E+00 0.  1.
          2   -1    0    0  501    0  0.00000000000E+00 -0.00000000000E+00 -0.49435811604E+03  0.49435811604E+03  0.00000000000E+00 0. -1.
          5    1    1    2  502    0 -0.32145980742E+02  0.20166957291E+01 -0.28394700760E+03  0.28579854210E+03  0.41800000000E+01 0.  1.
         -5    1    1    2    0  502 -0.75550878212E+01  0.79055823882E+01  0.11762264631E+02  0.16595205757E+02  0.41800000000E+01 0.  1.
        -11    1    1    2    0    0  0.66857406537E+02 -0.72924852275E+01 -0.16961509063E+03  0.18246197444E+03  0.00000000000E+00 0. -1.
         11    1    1    2    0    0 -0.27156337974E+02 -0.26297928898E+01 -0.25033122563E+02  0.37027553633E+02  0.00000000000E+00 0.  1.
</event>
<event>
 7    1  0.2841804E-009  0.1127297E+03  0.7561462E-02  0.1255597E+00
          1   -1    0    0  501    0  0.00000000000E+00  0.00000000000E+00  0.63270739881E+03  0.63270739881E+03  0.00000000000E+00 0. -1.
         -1   -1    0    0    0  501 -0.00000000000E+00 -0.00000000000E+00 -0.26921122087E+02  0.26921122087E+02  0.00000000000E+00 0.  1.
         25    2    1    2    0    0  0.59718660352E+02  0.41532353613E+02  0.31023956594E+03  0.34232612009E+03  0.12508928584E+03 0.  0.
          5    1    3    3  502    0 -0.21367864752E+02  0.28231028869E+01  0.19453910588E+03  0.19577408325E+03  0.41800000000E+01 0. -1.
         -5    1    3    3    0  502  0.81086525104E+02  0.38709250726E+02  0.11570046006E+03  0.14655203684E+03  0.41800000000E+01 0. -1.
        -11    1    1    2    0    0 -0.33199595358E+02 -0.68258746648E+02  0.16877913163E+03  0.18506178671E+03  0.00000000000E+00 0. -1.
         11    1    1    2    0    0 -0.26519064994E+02  0.26726393035E+02  0.12676757916E+03  0.13224061410E+03  0.00000000000E+00 0.  1.
</event>
<event>
 7    1  0.2841804E-009  0.1689134E+03  0.7561462E-02  0.1178986E+00
          2   -1    0    0  501    0  0.00000000000E+00  0.00000000000E+00  0.13167650762E+04  0.13167650762E+04  0.00000000000E+00 0.  1.
         -2   -1    0    0    0  501 -0.00000000000E+00 -0.00000000000E+00 -0.27691071280E+02  0.27691071280E+02  0.00000000000E+00 0. -1.
         25    2    1    2    0    0  0.12262371293E+03  0.96128459080E+02  0.70349466657E+03  0.73132077758E+03  0.12509227878E+03 0.  0.
          5    1    3    3  502    0  0.58590251751E+02  0.56606279220E+02  0.58655094904E+03  0.59219640041E+03  0.41800000000E+01 0. -1.
         -5    1    3    3    0  502  0.64033461180E+02  0.39522179860E+02  0.11694371753E+03  0.13912437716E+03  0.41800000000E+01 0. -1.
        -11    1    1    2    0    0 -0.20384335584E+02 -0.73364932821E+02  0.21752643006E+03  0.23046839758E+03  0.00000000000E+00 0. -1.
         11    1    1    2    0    0 -0.10223937735E+03 -0.22763526259E+02  0.36805290825E+03  0.38266697228E+03  0.00000000000E+00 0.  1.
</event>
<event>
 7    1  0.2841804E-009  0.2185767E+03  0.7561462E-02  0.1134949E+00
          1   -1    0    0  501    0  0.00000000000E+00  0.00000000000E+00  0.50446693993E+03  0.50446693993E+03  0.00000000000E+00 0. -1.
         -1   -1    0    0    0  501 -0.00000000000E+00 -0.00000000000E+00 -0.12194879351E+03  0.12194879351E+03  0.00000000000E+00 0.  1.
         25    2    1    2    0    0  0.19632852971E+03 -0.35851806571E+02  0.72132770871E+02  0.24633411333E+03  0.12508842930E+03 0.  0.
          5    1    3    3  502    0  0.18629410622E+03 -0.20807482174E+01  0.89618169481E+02  0.20678179859E+03  0.41800000000E+01 0. -1.
         -5    1    3    3    0  502  0.10034423486E+02 -0.33771058354E+02 -0.17485398610E+02  0.39552314744E+02  0.41800000000E+01 0. -1.
        -11    1    1    2    0    0 -0.14145973662E+03 -0.12738534352E+02  0.23742775865E+03  0.27666779343E+03  0.00000000000E+00 0.  1.
         11    1    1    2    0    0 -0.54868793082E+02  0.48590340923E+02  0.72957616899E+02  0.10341382668E+03  0.00000000000E+00 0. -1.
</event>
<event>
 6    1  0.2841804E-009  0.1075365E+03  0.7561462E-02  0.1265201E+00
          2   -1    0    0  501    0  0.00000000000E+00  0.00000000000E+00  0.26187945045E+03  0.26187945045E+03  0.00000000000E+00 0. -1.
         -2   -1    0    0    0  501 -0.00000000000E+00 -0.00000000000E+00 -0.51940356090E+02  0.51940356090E+02  0.00000000000E+00 0.  1.
          5    1    1    2  502    0 -0.34512933808E+02 -0.26814650002E+02  0.62000462151E+02  0.75971690528E+02  0.41800000000E+01 0.  1.
         -5    1    1    2    0  502  0.72162265867E+02  0.31564546824E+02  0.32032864648E+02  0.85131016961E+02  0.41800000000E+01 0.  1.
        -11    1    1    2    0    0  0.90438751778E+01 -0.35335777801E+02  0.75371053172E+02  0.83732935738E+02  0.00000000000E+00 0. -1.
         11    1    1    2    0    0 -0.46693207237E+02  0.30585880979E+02  0.40534714387E+02  0.68984163312E+02  0.00000000000E+00 0.  1.
</event>
<event>
 7    1  0.2841804E-009  0.2408257E+03  0.7561462E-02  0.1119244E+00
         -1   -1    0    0    0  501 -0.00000000000E+00  0.00000000000E+00  0.30972997193E+02  0.30972997193E+02  0.00000000000E+00 0.  1.
          1   -1    0    0  501    0  0.00000000000E+00 -0.00000000000E+00 -0.19795464894E+04  0.19795464894E+04  0.00000000000E+00 0. -1.
         25    2    1    2    0    0  0.18305098766E+03  0.12606111156E+03 -0.95051131563E+03  0.98413320075E+03  0.12508927905E+03 0.  0.
          5    1    3    3  502    0  0.17295934988E+03  0.61948484305E+02 -0.59535071139E+03  0.62306700552E+03  0.41800000000E+01 0.  1.
         -5    1    3    3    0  502  0.10091637781E+02  0.64112627259E+02 -0.35516060424E+03  0.36106619522E+03  0.41800000000E+01 0.  1.
        -11    1    1    2    0    0 -0.12810282829E+03 -0.46758407219E+02 -0.46179085629E+03  0.48150542906E+03  0.00000000000E+00 0. -1.
         11    1    1    2    0    0 -0.54948159366E+02 -0.79302704345E+02 -0.53627132031E+03  0.54488085682E+03  0.00000000000E+00 0.  1.
</event>
<event>
 7    1  0.2841804E-009  0.1102819E+03  0.7561462E-02  0.1260049E+00
         -2   -1    0    0    0  501 -0.00000000000E+00  0.00000000000E+00  0.20405035523E+02  0.20405035523E+02  0.00000000000E+00 0.  1.
          2   -1    0    0  501    0  0.00000000000E+00 -0.00000000000E+00 -0.79690939354E+03  0.79690939354E+03  0.00000000000E+00 0. -1.
         25    2    1    2    0    0  0.32538888080E+02  0.66446463566E+01 -0.24339677846E+03  0.27566502515E+03  0.12508510607E+03 0.  0.
          5    1    3    3  502    0 -0.27439284098E+02 -0.40024919118E+02 -0.13244249572E+03  0.14111483102E+03  0.41800000000E+01 0. -1.
         -5    1    3    3    0  502  0.59978172178E+02  0.46669565475E+02 -0.11095428274E+03  0.13455019412E+03  0.41800000000E+01 0. -1.
        -11    1    1    2    0    0 -0.43916980148E+02 -0.40677438060E+02 -0.32327587474E+03  0.32877141953E+03  0.00000000000E+00 0. -1.
         11    1    1    2    0    0  0.11378092068E+02  0.34032791704E+02 -0.20983170481E+03  0.21287798438E+03  0.00000000000E+00 0.  1.
</event>
<event>
 7    1  0.2841804E-009  0.3307071E+03  0.7561462E-02  0.1070824E+00
          1   -1    0    0  501    0  0.00000000000E+00  0.00000000000E+00  0.89189186285E+03  0.89189186285E+03  0.00000000000E+00 0. -1.
         -1   -1    0    0    0  501 -0.00000000000E+00 -0.00000000000E+00 -0.14203789225E+03  0.14203789225E+03  0.00000000000E+00 0.  1.
         25    2    1    2    0    0  0.12874544703E+03 -0.29163949322E+03  0.20571981840E+03  0.39948305439E+03  0.12504832235E+03 0.  0.
          5    1    3    3  502    0  0.47875476215E+01 -0.16407218582E+03  0.10741360987E+03  0.19620845740E+03  0.41800000000E+01 0. -1.
         -5    1    3    3    0  502  0.12395789941E+03 -0.12756730740E+03  0.98306208531E+02  0.20327459698E+03  0.41800000000E+01 0. -1.
        -11    1    1    2    0    0 -0.10564401085E+03  0.25453484603E+03  0.41547698702E+03  0.49856772019E+03  0.00000000000E+00 0. -1.
         11    1    1    2    0    0 -0.23101436182E+02  0.37104647186E+02  0.12865716518E+03  0.13587898053E+03  0.00000000000E+00 0.  1.
</event>
<event>
 7    1  0.2841804E-009  0.1383357E+03  0.7561462E-02  0.1215586E+00
         -1   -1    0    0    0  501 -0.00000000000E+00  0.00000000000E+00  0.13320635608E+03  0.13320635608E+03  0.00000000000E+00 0.  1.
          1   -1    0    0  501    0  0.00000000000E+00 -0.00000000000E+00 -0.18180722792E+03  0.18180722792E+03  0.00000000000E+00 0. -1.
         25    2    1    2    0    0  0.10376956288E+03 -0.16981105608E+02 -0.61714811740E+02  0.17468866918E+03  0.12510368909E+03 0.  0.
          5    1    3    3  502    0 -0.19894745280E+01 -0.51795296458E+02 -0.20041609093E+02  0.55730146592E+02  0.41800000000E+01 0. -1.
         -5    1    3    3    0  502  0.10575903741E+03  0.34814190850E+02 -0.41673202647E+02  0.11895852259E+03  0.41800000000E+01 0. -1.
        -11    1    1    2    0    0 -0.44465371086E+02  0.28529975179E+02 -0.34758328316E+02  0.63239782549E+02  0.00000000000E+00 0. -1.
         11    1    1    2    0    0 -0.59304191797E+02 -0.11548869571E+02  0.47872268219E+02  0.77085132273E+02  0.00000000000E+00 0.  1.
</event>
<event>
 7    1  0.2841804E-009  0.1142653E+03  0.7561462E-02  0.1252869E+00
         -4   -1    0    0    0  501 -0.00000000000E+00  0.00000000000E+00  0.35704959082E+02  0.35704959082E+02  0.00000000000E+00 0.  1.
          4   -1    0    0  501    0  0.00000000000E+00 -0.00000000000E+00 -0.47886771502E+03  0.47886771502E+03  0.00000000000E+00 0. -1.
         25    2    1    2    0    0  0.62565259074E+02  0.31671176554E+02 -0.26340779427E+03  0.29991425555E+03  0.12508964598E+03 0.  0.
          5    1    3    3  502    0 -0.11119029588E+02  0.61391648700E+02 -0.13630032512E+03  0.14995938909E+03  0.41800000000E+01 0. -1.
         -5    1    3    3    0  502  0.73684288662E+02 -0.29720472146E+02 -0.12710746916E+03  0.14995486646E+03  0.41800000000E+01 0. -1.
        -11    1    1    2    0    0 -0.10810030530E+02  0.13810512295E+02  0.43615534179E+01  0.18072358953E+02  0.00000000000E+00 0.  1.
         11    1    1    2    0    0 -0.51755228544E+02 -0.45481688849E+02 -0.18411651509E+03  0.19658605960E+03  0.00000000000E+00 0. -1.
</event>
<event>
 7    1  0.2841804E-009  0.1271620E+03  0.7561462E-02  0.1231729E+00
         -1   -1    0    0    0  501 -0.00000000000E+00  0.00000000000E+00  0.13390502026E+04  0.13390502026E+04  0.00000000000E+00 0.  1.
          1   -1    0    0  501    0  0.00000000000E+00 -0.00000000000E+00 -0.23464253746E+02  0.23464253746E+02  0.00000000000E+00 0. -1.
         25    2    1    2    0    0  0.40127984315E+02  0.10332529836E+03  0.10192784375E+04  0.10328902762E+04  0.12508963580E+03 0.  0.
          5    1    3    3  502    0  0.35942557548E+02  0.11426469431E+02  0.68813867837E+03  0.68918411525E+03  0.41800000000E+01 0. -1.
         -5    1    3    3    0  502  0.41854267668E+01  0.91898828928E+02  0.33113975915E+03  0.34370616091E+03  0.41800000000E+01 0. -1.
        -11    1    1    2    0    0  0.14338243492E+01 -0.72572443324E+02  0.83561077374E+02  0.11068545087E+03  0.00000000000E+00 0. -1.
         11    1    1    2    0    0 -0.41561808664E+02 -0.30752855035E+02  0.21274643395E+03  0.21893872930E+03  0.00000000000E+00 0.  1.
</event>
<event>
 7    1  0.2841804E-009  0.9997011E+02  0.7561462E-02  0.1280359E+00
          2   -1    0    0  501    0  0.00000000000E+00  0.00000000000E+00  0.77689065212E+03  0.77689065212E+03  0.00000000000E+00 0. -1.
         -2   -1    0    0    0  501 -0.00000000000E+00 -0.00000000000E+00 -0.23964424044E+02  0.23964424044E+02  0.00000000000E+00 0.  1.
         25    2    1    2    0    0 -0.17176564691E+02 -0.77443603499E+02  0.49643471587E+03  0.51806126407E+03  0.12508996808E+03 0.  0.
          5    1    3    3  502    0 -0.25658405949E+01 -0.30037505305E+01 -0.69239955957E+01  0.90011204979E+01  0.41800000000E+01 0. -1.
         -5    1    3    3    0  502 -0.14610724096E+02 -0.74439852969E+02  0.50335871146E+03  0.50906014357E+03  0.41800000000E+01 0. -1.
        -11    1    1    2    0    0  0.46798839300E+02  0.75113851004E+02  0.20603894221E+03  0.22424153870E+03  0.00000000000E+00 0. -1.
         11    1    1    2    0    0 -0.29622274609E+02  0.23297524956E+01  0.50452569996E+02  0.58552273388E+02  0.00000000000E+00 0.  1.
</event>
<event>
 7    1  0.2841804E-009  0.8351002E+02  0.7561462E-02  0.1319376E+00
          2   -1    0    0  501    0  0.00000000000E+00  0.00000000000E+00  0.10323907578E+03  0.10323907578E+03  0.00000000000E+00 0.  1.
         -2   -1    0    0    0  501 -0.00000000000E+00 -0.00000000000E+00 -0.71042748098E+02  0.71042748098E+02  0.00000000000E+00 0. -1.
         25    2    1    2    0    0  0.17930382961E+02 -0.63708001009E+01  0.34848239223E+02  0.13124081064E+03  0.12509062664E+03 0.  0.
          5    1    3    3  502    0 -0.52757972967E+02 -0.72437185104E+01  0.27463340386E+01  0.53487287463E+02  0.41800000000E+01 0. -1.
         -5    1    3    3    0  502  0.70688355928E+02  0.87291840959E+00  0.32101905184E+02  0.77753523180E+02  0.41800000000E+01 0. -1.
        -11    1    1    2    0    0 -0.13445345865E+02  0.22408690612E+02 -0.35000819941E+01  0.26366215396E+02  0.00000000000E+00 0. -1.
         11    1    1    2    0    0 -0.44850370960E+01 -0.16037890511E+02  0.84817045231E+00  0.16674797837E+02  0.00000000000E+00 0.  1.
</event>
<event>
 7    1  0.2841804E-009  0.1081978E+03  0.7561462E-02  0.1263944E+00
         -4   -1    0    0    0  501 -0.00000000000E+00  0.00000000000E+00  0.48025986052E+03  0.48025986052E+03  0.00000000000E+00 0.  1.
          4   -1    0    0  501    0  0.00000000000E+00 -0.00000000000E+00 -0.38522561496E+02  0.38522561496E+02  0.00000000000E+00 0. -1.
         25    2    1    2    0    0 -0.31312109142E+02  0.16150848215E+02  0.38453587791E+03  0.40590497390E+03  0.12509879440E+03 0.  0.
          5    1    3    3  502    0  0.46590692502E+02  0.20789117390E+02  0.13314793675E+03  0.14264895895E+03  0.41800000000E+01 0. -1.
         -5    1    3    3    0  502 -0.77902801644E+02 -0.46382691748E+01  0.25138794116E+03  0.26325601495E+03  0.41800000000E+01 0. -1.
        -11    1    1    2    0    0  0.44817004555E+02 -0.39722833190E+02  0.60956415352E+02  0.85452629840E+02  0.00000000000E+00 0. -1.
         11    1    1    2    0    0 -0.13504895413E+02  0.23571984975E+02 -0.37549942372E+01  0.27424818277E+02  0.00000000000E+00 0.  1.
</event>
<event>
 7    1  0.2841804E-009  0.1711672E+03  0.7561462E-02  0.1176636E+00
          2   -1    0    0  501    0  0.00000000000E+00  0.00000000000E+00  0.10242274099E+04  0.10242274099E+04  0.00000000000E+00 0. -1.
         -2   -1    0    0    0  501 -0.00000000000E+00 -0.00000000000E+00 -0.43704517199E+02  0.43704517199E+02  0.00000000000E+00 0.  1.
         25    2    1    2    0    0  0.15073788289E+03 -0.49059913221E+02  0.28867323026E+03  0.35229086944E+03  0.12509132021E+03 0.  0.
          5    1    3    3  502    0  0.11903602346E+03  0.46942909348E+01  0.10710427894E+03  0.16025108491E+03  0.41800000000E+01 0.  1.
         -5    1    3    3    0  502  0.31701859437E+02 -0.53754204156E+02  0.18156895132E+03  0.19203978453E+03  0.41800000000E+01 0.  1.
        -11    1    1    2    0    0 -0.10040543863E+03  0.45187786567E+02  0.60703780357E+03  0.61694252822E+03  0.00000000000E+00 0. -1.
         11    1    1    2    0    0 -0.50332444260E+02  0.38721266534E+01  0.84811858876E+02  0.98698529452E+02  0.00000000000E+00 0.  1.
</event>
<event>
 7    1  0.2841804E-009  0.1188954E+03  0.7561462E-02  0.1244930E+00
          1   -1    0    0  501    0  0.00000000000E+00  0.00000000000E+00  0.19718155403E+04  0.19718155403E+04  0.00000000000E+00 0. -1.
         -1   -1    0    0    0  501 -0.00000000000E+00 -0.00000000000E+00 -0.11762930608E+02  0.11762930608E+02  0.00000000000E+00 0.  1.
         25    2    1    2    0    0  0.70983794973E+02 -0.42497089264E+02  0.15026341668E+04  0.15100998426E+04  0.12508954222E+03 0.  0.
          5    1    3    3  502    0  0.57146024928E+02 -0.79692431092E+02  0.12917184757E+04  0.12954422583E+04  0.41800000000E+01 0.  1.
         -5    1    3    3    0  502  0.13837770045E+02  0.37195341827E+02  0.21091569112E+03  0.21465758429E+03  0.41800000000E+01 0.  1.
        -11    1    1    2    0    0  0.42408157258E+01  0.21102555559E+02  0.20873319831E+02  0.29983292846E+02  0.00000000000E+00 0.  1.
         11    1    1    2    0    0 -0.75224610699E+02  0.21394533706E+02  0.43654512303E+03  0.44349533546E+03  0.00000000000E+00 0. -1.
</event>
<event>
 7    1  0.2841804E-009  0.9538617E+02  0.7561462E-02  0.1290309E+00
          2   -1    0    0  501    0  0.00000000000E+00  0.00000000000E+00  0.37755319028E+03  0.37755319028E+03  0.00000000000E+00 0. -1.
         -2   -1    0    0    0  501 -0.00000000000E+00 -0.00000000000E+00 -0.38305808900E+02  0.38305808900E+02  0.00000000000E+00 0.  1.
         25    2    1    2    0    0  0.15053961111E+02 -0.53520289093E+02  0.15106781547E+03  0.20386325807E+03  0.12509076718E+03 0.  0.
          5    1    3    3  502    0  0.11853283993E+02 -0.82843237980E+02  0.47977945965E+02  0.96554948705E+02  0.41800000000E+01 0.  1.
         -5    1    3    3    0  502  0.32006771183E+01  0.29322948887E+02  0.10308986950E+03  0.10730830937E+03  0.41800000000E+01 0.  1.
        -11    1    1    2    0    0  0.15985317702E+02  0.40480043800E+02  0.37034673429E+02  0.57146577886E+02  0.00000000000E+00 0. -1.
         11    1    1    2    0    0 -0.31039278813E+02  0.13040245293E+02  0.15114489249E+03  0.15484916322E+03  0.00000000000E+00 0.  1.
</event>
<event>
 7    1  0.2841804E-009  0.1630477E+03  0.7561462E-02  0.1185298E+00
         -2   -1    0    0    0  501 -0.00000000000E+00  0.00000000000E+00  0.88285165801E+02  0.88285165801E+02  0.00000000000E+00 0.  1.
          2   -1    0    0  501    0  0.00000000000E+00 -0.00000000000E+00 -0.35106830936E+03  0.35106830936E+03  0.00000000000E+00 0. -1.
         25    2    1    2    0    0 -0.12362899785E+03 -0.57419060760E+02 -0.11702315950E+03  0.21893366387E+03  0.12512574341E+03 0.  0.
          5    1    3    3  502    0 -0.60817433865E+02  0.36944372746E+02 -0.51452636863E+02  0.87911848916E+02  0.41800000000E+01 0.  1.
         -5    1    3    3    0  502 -0.62811563988E+02 -0.94363433506E+02 -0.65570522639E+02  0.13102181495E+03  0.41800000000E+01 0.  1.
        -11    1    1    2    0    0  0.24018160666E+02 -0.40097143458E+01  0.93755869854E+01  0.26093130939E+02  0.00000000000E+00 0.  1.
         11    1    1    2    0    0  0.99610837187E+02  0.61428775106E+02 -0.15513557105E+03  0.19432668036E+03  0.00000000000E+00 0. -1.
</event>
<event>
 7    1  0.2841804E-009  0.2049407E+03  0.7561462E-02  0.1145636E+00
         -2   -1    0    0    0  501 -0.00000000000E+00  0.00000000000E+00  0.89985673744E+02  0.89985673744E+02  0.00000000000E+00 0.  1.
          2   -1    0    0  501    0  0.00000000000E+00 -0.00000000000E+00 -0.51162423865E+03  0.51162423865E+03  0.00000000000E+00 0. -1.
         25    2    1    2    0    0  0.15062438442E+03  0.10585464435E+03 -0.19766349556E+03  0.29767694223E+03  0.12509114095E+03 0.  0.
          5    1    3    3  502    0  0.16749731577E+03  0.82944502435E+02 -0.14111229941E+03  0.23423341931E+03  0.41800000000E+01 0.  1.
         -5    1    3    3    0  502 -0.16872931352E+02  0.22910141910E+02 -0.56551196146E+02  0.63443522918E+02  0.41800000000E+01 0.  1.
        -11    1    1    2    0    0 -0.11888976296E+03 -0.11023523283E+03 -0.14056059509E+03  0.21457833811E+03  0.00000000000E+00 0.  1.
         11    1    1    2    0    0 -0.31734621461E+02  0.43805884867E+01 -0.83414474260E+02  0.89354632062E+02  0.00000000000E+00 0. -1.
</event>
<event>
 7    1  0.2841804E-009  0.1032505E+03  0.7561462E-02  0.1273605E+00
         -1   -1    0    0    0  501 -0.00000000000E+00  0.00000000000E+00  0.30827079099E+02  0.30827079099E+02  0.00000000000E+00 0.  1.
          1   -1    0    0  501    0  0.00000000000E+00 -0.00000000000E+00 -0.36307406153E+03  0.36307406153E+03  0.00000000000E+00 0. -1.
         25    2    1    2    0    0 -0.11001235420E+02 -0.22110351296E+02 -0.18931912642E+03  0.22825068619E+03  0.12508696696E+03 0.  0.
          5    1    3    3  502    0 -0.37915423761E+02  0.39801522103E+02 -0.55055614619E+02  0.77912345760E+02  0.41800000000E+01 0. -1.
         -5    1    3    3    0  502  0.26914188342E+02 -0.61911873399E+02 -0.13426351180E+03  0.15033834043E+03  0.41800000000E+01 0. -1.
        -11    1    1    2    0    0  0.37453149529E+02  0.37607980559E+02 -0.91160086249E+02  0.10548582813E+03  0.00000000000E+00 0. -1.
         11    1    1    2    0    0 -0.26451914110E+02 -0.15497629263E+02 -0.51767769756E+02  0.60164626304E+02  0.00000000000E+00 0.  1.
</event>
<event>
 7    1  0.3015713E-009  0.9647449E+02  0.7561462E-02  0.1287889E+00
          1   -1    0    0  501    0  0.00000000000E+00  0.00000000000E+00  0.46015505234E+03  0.46015505234E+03  0.00000000000E+00 0. -1.
         -1   -1    0    0    0  501 -0.00000000000E+00 -0.00000000000E+00 -0.31428008581E+02  0.31428008581E+02  0.00000000000E+00 0.  1.
         25    2    1    2    0    0  0.36883277916E+02 -0.26639474632E+02  0.19064396684E+03  0.23251458669E+03  0.12509145908E+03 0.  0.
          5    1    3    3  502    0 -0.13598131056E+02 -0.66092425461E+02  0.81550459627E+02  0.10592954138E+03  0.41800000000E+01 0. -1.
         -5    1    3    3    0  502  0.50481408971E+02  0.39452950829E+02  0.10909350721E+03  0.12658504531E+03  0.41800000000E+01 0. -1.
        -11    1    1    2    0    0 -0.16233798684E+02 -0.10009116821E+02  0.18968985013E+01  0.19165512338E+02  0.00000000000E+00 0.  1.
         11    1    1    2    0    0 -0.20649479231E+02  0.36648591454E+02  0.23618617842E+03  0.23990296189E+03  0.00000000000E+00 0. -1.
</event>
<event>
 7    1  0.2841804E-009  0.9581603E+02  0.7561462E-02  0.1289349E+00
         -2   -1    0    0    0  501 -0.00000000000E+00  0.00000000000E+00  0.19350827412E+02  0.19350827412E+02  0.00000000000E+00 0.  1.
          2   -1    0    0  501    0  0.00000000000E+00 -0.00000000000E+00 -0.14971691257E+04  0.14971691257E+04  0.00000000000E+00 0. -1.
         25    2    1    2    0    0  0.50207995337E+02  0.12938228026E+02 -0.13360587223E+04  0.13429020831E+04  0.12507939398E+03 0.  0.
          5    1    3    3  502    0  0.80729796642E+02  0.28948922171E+02 -0.60998914273E+03  0.61600289513E+03  0.41800000000E+01 0. -1.
         -5    1    3    3    0  502 -0.30521801305E+02 -0.16010694146E+02 -0.72606957961E+03  0.72689918800E+03  0.41800000000E+01 0. -1.
        -11    1    1    2    0    0 -0.33236972396E+02 -0.31573654838E+02 -0.21300391338E+02  0.50549962265E+02  0.00000000000E+00 0.  1.
         11    1    1    2    0    0 -0.16971022941E+02  0.18635426813E+02 -0.12045918460E+03  0.12306790771E+03  0.00000000000E+00 0. -1.
</event>
<event>
 7    1  0.2841804E-009  0.1006978E+03  0.7561462E-02  0.1278835E+00
         -2   -1    0    0    0  501 -0.00000000000E+00  0.00000000000E+00  0.89807384533E+02  0.89807384533E+02  0.00000000000E+00 0.  1.
          2   -1    0    0  501    0  0.00000000000E+00 -0.00000000000E+00 -0.23738580343E+03  0.23738580343E+03  0.00000000000E+00 0. -1.
         25    2    1    2    0    0  0.57193349438E+02  0.35508945688E+02 -0.83507645348E+00  0.14205825327E+03  0.12509150861E+03 0.  0.
          5    1    3    3  502    0  0.49677091143E+02 -0.19556098972E+02  0.44961522461E+02  0.69923281484E+02  0.41800000000E+01 0. -1.
         -5    1    3    3    0  502  0.75162582947E+01  0.55065044660E+02 -0.45796598915E+02  0.72134971784E+02  0.41800000000E+01 0. -1.
        -11    1    1    2    0    0 -0.18760916236E+02 -0.48132346226E+02 -0.13255620482E+03  0.14226679925E+03  0.00000000000E+00 0. -1.
         11    1    1    2    0    0 -0.38432433202E+02  0.12623400538E+02 -0.14187137623E+02  0.42868135450E+02  0.00000000000E+00 0.  1.
</event>
<event>
 7    1  0.2841804E-009  0.7902028E+02  0.7561462E-02  0.1331855E+00
          2   -1    0    0  501    0  0.00000000000E+00  0.00000000000E+00  0.17432742792E+03  0.17432742792E+03  0.00000000000E+00 0.  1.
         -2   -1    0    0    0  501 -0.00000000000E+00 -0.00000000000E+00 -0.76296946954E+02  0.76296946954E+02  0.00000000000E+00 0. -1.
         25    2    1    2    0    0  0.37933331533E+02  0.96635406702E+01  0.67228010102E+02  0.14731124142E+03  0.12509466354E+03 0.  0.
          5    1    3    3  502    0  0.51490224880E+02  0.31186884420E+02 -0.14122575799E+02  0.61974063650E+02  0.41800000000E+01 0. -1.
         -5    1    3    3    0  502 -0.13556893347E+02 -0.21523343750E+02  0.81350585901E+02  0.85337177770E+02  0.41800000000E+01 0. -1.
        -11    1    1    2    0    0 -0.45114644289E+02  0.13962212140E+02  0.52376174140E+02  0.70523316107E+02  0.00000000000E+00 0.  1.
         11    1    1    2    0    0  0.71813127560E+01 -0.23625752810E+02 -0.21573703275E+02  0.32789817348E+02  0.00000000000E+00 0. -1.
</event>
<event>
 7    1  0.2841804E-009  0.1825719E+03  0.7561462E-02  0.1165337E+00
         -2   -1    0    0    0  501 -0.00000000000E+00  0.00000000000E+00  0.58933720406E+02  0.58933720406E+02  0.00000000000E+00 0.  1.
          2   -1    0    0  501    0  0.00000000000E+00 -0.00000000000E+00 -0.65132751160E+03  0.65132751160E+03  0.00000000000E+00 0. -1.
         25    2    1    2    0    0  0.14894306777E+03 -0.56928388088E+02 -0.21602254693E+03  0.29620638002E+03  0.12509036726E+03 0.  0.
          5    1    3    3  502    0 -0.37011367583E+01  0.21018265575E+02 -0.17938661571E+01  0.21821004946E+02  0.41800000000E+01 0.  1.
         -5    1    3    3    0  502  0.15264420453E+03 -0.77946653662E+02 -0.21422868077E+03  0.27438537508E+03  0.41800000000E+01 0.  1.
        -11    1    1    2    0    0 -0.14586379037E+03  0.35259434647E+02 -0.33931602519E+03  0.37101864916E+03  0.00000000000E+00 0. -1.
         11    1    1    2    0    0 -0.30792773926E+01  0.21668953441E+02 -0.37055219085E+02  0.43036202829E+02  0.00000000000E+00 0.  1.
</event>
<event>
 7    1  0.3811762E-009  0.8098935E+02  0.7561462E-02  0.1326267E+00
          1   -1    0    0  501    0  0.00000000000E+00  0.00000000000E+00  0.35411645791E+03  0.35411645791E+03  0.00000000000E+00 0. -1.
         -1   -1    0    0    0  501 -0.00000000000E+00 -0.00000000000E+00 -0.40632514006E+02  0.40632514006E+02  0.00000000000E+00 0.  1.
         25    2    1    2    0    0  0.38491500207E+02 -0.29629489915E+00  0.23178646818E+03  0.26618251532E+03  0.12508589548E+03 0.  0.
          5    1    3    3  502    0  0.88993465155E+01  0.32883840208E+02  0.21616636219E+03  0.21887419641E+03  0.41800000000E+01 0. -1.
         -5    1    3    3    0  502  0.29592153692E+02 -0.33180135107E+02  0.15620105999E+02  0.47308318901E+02  0.41800000000E+01 0. -1.
        -11    1    1    2    0    0  0.10802837115E+02 -0.25262086013E+02 -0.26290718679E+01  0.27600476415E+02  0.00000000000E+00 0.  1.
         11    1    1    2    0    0 -0.49294337322E+02  0.25558380912E+02  0.84326547585E+02  0.10096598018E+03  0.00000000000E+00 0. -1.
</event>
<event>
 7    1  0.2841804E-009  0.2418268E+03  0.7561462E-02  0.1118582E+00
         -1   -1    0    0    0  501 -0.00000000000E+00  0.00000000000E+00  0.30665609539E+02  0.30665609539E+02  0.00000000000E+00 0.  1.
          1   -1    0    0  501    0  0.00000000000E+00 -0.00000000000E+00 -0.21082507342E+04  0.21082507342E+04  0.00000000000E+00 0. -1.
         25    2    1    2    0    0  0.16005413495E+03  0.15212721436E+03 -0.13387376482E+04  0.13625808929E+04  0.12509269979E+03 0.  0.
          5    1    3    3  502    0  0.71489662112E+02 -0.33216176918E+01 -0.48681313597E+03  0.49206331573E+03  0.41800000000E+01 0.  1.
         -5    1    3    3    0  502  0.88564472840E+02  0.15544883206E+03 -0.85192451225E+03  0.87051757720E+03  0.41800000000E+01 0.  1.
        -11    1    1    2    0    0 -0.67149007035E+01 -0.46089827906E+02 -0.91432341052E+02  0.10261206127E+03  0.00000000000E+00 0. -1.
         11    1    1    2    0    0 -0.15333923425E+03 -0.10603738646E+03 -0.64741513538E+03  0.67372338953E+03  0.00000000000E+00 0.  1.
</event>
<event>
 7    1  0.2841804E-009  0.1011191E+03  0.7561462E-02  0.1277960E+00
         -2   -1    0    0    0  501 -0.00000000000E+00  0.00000000000E+00  0.20461377314E+02  0.20461377314E+02  0.00000000000E+00 0. -1.
          2   -1    0    0  501    0  0.00000000000E+00 -0.00000000000E+00 -0.62975572059E+03  0.62975572059E+03  0.00000000000E+00 0.  1.
         25    2    1    2    0    0  0.33686024560E-01 -0.10978953686E+01 -0.25177377991E+03  0.28113678860E+03  0.12508657459E+03 0.  0.
          5    1    3    3  502    0  0.50881824195E+02  0.20964429014E+02 -0.19083242368E+03  0.19865284706E+03  0.41800000000E+01 0. -1.
         -5    1    3    3    0  502 -0.50848138171E+02 -0.22062324383E+02 -0.60941356235E+02  0.82483941543E+02  0.41800000000E+01 0. -1.
        -11    1    1    2    0    0  0.40524569777E+02 -0.20605696807E+02 -0.18943777110E+03  0.19481659225E+03  0.00000000000E+00 0.  1.
         11    1    1    2    0    0 -0.40558255801E+02  0.21703592175E+02 -0.16808279226E+03  0.17426371705E+03  0.00000000000E+00 0. -1.
</event>
<event>
 7    1  0.2841804E-009  0.1092084E+03  0.7561462E-02  0.1262043E+00
         -1   -1    0    0    0  501 -0.00000000000E+00  0.00000000000E+00  0.44798162890E+03  0.44798162890E+03  0.00000000000E+00 0.  1.
          1   -1    0    0  501    0  0.00000000000E+00 -0.00000000000E+00 -0.36498633782E+02  0.36498633782E+02  0.00000000000E+00 0. -1.
         25    2    1    2    0    0  0.28446178677E+02 -0.64403220820E+02  0.23785145505E+03  0.27780970860E+03  0.12509180466E+03 0.  0.
          5    1    3    3  502    0  0.55017888933E+02 -0.23976103854E+01  0.38530002884E+02  0.67340553609E+02  0.41800000000E+01 0.  1.
         -5    1    3    3    0  502 -0.26571710256E+02 -0.62005610434E+02  0.19932145216E+03  0.21046915500E+03  0.41800000000E+01 0.  1.
        -11    1    1    2    0    0  0.12266887376E+02  0.51425466477E+02  0.39777518673E+02  0.66161213109E+02  0.00000000000E+00 0.  1.
         11    1    1    2    0    0 -0.40713066053E+02  0.12977754342E+02  0.13385402139E+03  0.14050934096E+03  0.00000000000E+00 0. -1.
</event>
<event>
 7    1  0.2841804E-009  0.9597817E+02  0.7561462E-02  0.1288988E+00
         -1   -1    0    0    0  501 -0.00000000000E+00  0.00000000000E+00  0.94573518997E+03  0.94573518997E+03  0.00000000000E+00 0.  1.
          1   -1    0    0  501    0  0.00000000000E+00 -0.00000000000E+00 -0.20218030333E+02  0.20218030333E+02  0.00000000000E+00 0. -1.
         25    2    1    2    0    0 -0.17377899628E+02 -0.45232707746E+02  0.75171306981E+03  0.76358746338E+03  0.12508111632E+03 0.  0.
          5    1    3    3  502    0  0.30635851277E+02  0.22223690439E+02  0.41799160735E+03  0.41972241305E+03  0.41800000000E+01 0. -1.
         -5    1    3    3    0  502 -0.48013750905E+02 -0.67456398185E+02  0.33372146246E+03  0.34386505033E+03  0.41800000000E+01 0. -1.
        -11    1    1    2    0    0 -0.79437469896E+01  0.44954374452E+02  0.17088182730E+03  0.17687452558E+03  0.00000000000E+00 0.  1.
         11    1    1    2    0    0  0.25321646617E+02  0.27833329452E+00  0.29222625224E+01  0.25491231337E+02  0.00000000000E+00 0. -1.
</event>
<event>
 7    1  0.2841804E-009  0.8558735E+02  0.7561462E-02  0.1313904E+00
          2   -1    0    0  501    0  0.00000000000E+00  0.00000000000E+00  0.25982162147E+03  0.25982162147E+03  0.00000000000E+00 0. -1.
         -2   -1    0    0    0  501 -0.00000000000E+00 -0.00000000000E+00 -0.54395385750E+02  0.54395385750E+02  0.00000000000E+00 0.  1.
         25    2    1    2    0    0 -0.15994165030E+02 -0.23217932937E+02  0.62814899043E+02  0.14279094784E+03  0.12509459428E+03 0.  0.
          5    1    3    3  502    0 -0.25563576484E+02 -0.49297957517E+02  0.88606838677E+02  0.10465385477E+03  0.41800000000E+01 0.  1.
         -5    1    3    3    0  502  0.95694114542E+01  0.26080024580E+02 -0.25791939633E+02  0.38137093068E+02  0.41800000000E+01 0.  1.
        -11    1    1    2    0    0  0.51007504080E+01  0.54257740406E+02  0.53214637660E+02  0.76169007542E+02  0.00000000000E+00 0.  1.
         11    1    1    2    0    0  0.10893414622E+02 -0.31039807469E+02  0.89396699016E+02  0.95257051837E+02  0.00000000000E+00 0. -1.
</event>
<event>
 7    1  0.2841804E-009  0.1093564E+03  0.7561462E-02  0.1261766E+00
          3   -1    0    0  501    0  0.00000000000E+00  0.00000000000E+00  0.39747508351E+03  0.39747508351E+03  0.00000000000E+00 0. -1.
         -3   -1    0    0    0  501 -0.00000000000E+00 -0.00000000000E+00 -0.32850201493E+02  0.32850201493E+02  0.00000000000E+00 0.  1.
         25    2    1    2    0    0 -0.59404367941E+01  0.24298655787E+02  0.16199664047E+03  0.20619348319E+03  0.12508847879E+03 0.  0.
          5    1    3    3  502    0 -0.45862452720E+02 -0.31259945387E+02  0.96431682282E+02  0.11134222246E+03  0.41800000000E+01 0. -1.
         -5    1    3    3    0  502  0.39922015926E+02  0.55558601174E+02  0.65564958190E+02  0.94851260732E+02  0.41800000000E+01 0. -1.
        -11    1    1    2    0    0  0.30309878803E+02  0.25148729569E+02  0.10293395593E+03  0.11021137253E+03  0.00000000000E+00 0.  1.
         11    1    1    2    0    0 -0.24369442009E+02 -0.49447385356E+02  0.99694285615E+02  0.11392042928E+03  0.00000000000E+00 0. -1.
</event>
<event>
 7    1  0.2841804E-009  0.1958644E+03  0.7561462E-02  0.1153276E+00
          2   -1    0    0  501    0  0.00000000000E+00  0.00000000000E+00  0.23050771263E+04  0.23050771263E+04  0.00000000000E+00 0. -1.
         -2   -1    0    0    0  501 -0.00000000000E+00 -0.00000000000E+00 -0.18921079539E+02  0.18921079539E+02  0.00000000000E+00 0.  1.
         25    2    1    2    0    0 -0.67403045210E+02 -0.15050731568E+03  0.15597058763E+04  0.15733797600E+04  0.12508327616E+03 0.  0.
          5    1    3    3  502    0  0.12587941280E+02 -0.11448287208E+03  0.73046805155E+03  0.73950377348E+03  0.41800000000E+01 0. -1.
         -5    1    3    3    0  502 -0.79990986489E+02 -0.36024443604E+02  0.82923782479E+03  0.83387598653E+03  0.41800000000E+01 0. -1.
        -11    1    1    2    0    0  0.34974630666E+02  0.29174843055E+00  0.11926793895E+03  0.12429059164E+03  0.00000000000E+00 0. -1.
         11    1    1    2    0    0  0.32428414544E+02  0.15021556725E+03  0.60718223148E+03  0.62632785419E+03  0.00000000000E+00 0.  1.
</event>
<event>
 7    1  0.2841804E-009  0.1051424E+03  0.7561462E-02  0.1269839E+00
         -2   -1    0    0    0  501 -0.00000000000E+00  0.00000000000E+00  0.56227375632E+03  0.56227375632E+03  0.00000000000E+00 0.  1.
          2   -1    0    0  501    0  0.00000000000E+00 -0.00000000000E+00 -0.24755855846E+02  0.24755855846E+02  0.00000000000E+00 0. -1.
         25    2    1    2    0    0  0.10133661213E+02  0.42880803146E+02  0.24953899014E+03  0.28259416431E+03  0.12509316422E+03 0.  0.
          5    1    3    3  502    0  0.26244805283E+02 -0.29850610056E+02  0.27920858594E+02  0.48753414954E+02  0.41800000000E+01 0.  1.
         -5    1    3    3    0  502 -0.16111144070E+02  0.72731413202E+02  0.22161813154E+03  0.23384074935E+03  0.41800000000E+01 0.  1.
        -11    1    1    2    0    0  0.22429471630E+02  0.16594232991E+02  0.53349289502E+02  0.60204621555E+02  0.00000000000E+00 0. -1.
         11    1    1    2    0    0 -0.32563132843E+02 -0.59475036138E+02  0.23462962083E+03  0.24423082630E+03  0.00000000000E+00 0.  1.
</event>
<event>
 7    1  0.2841804E-009  0.9266573E+02  0.7561462E-02  0.1296522E+00
          1   -1    0    0  501    0  0.00000000000E+00  0.00000000000E+00  0.25536451337E+02  0.25536451337E+02  0.00000000000E+00 0. -1.
         -1   -1    0    0    0  501 -0.00000000000E+00 -0.00000000000E+00 -0.57615170050E+03  0.57615170050E+03  0.00000000000E+00 0.  1.
         25    2    1    2    0    0  0.16687560738E+02 -0.11512204982E+02 -0.19133198222E+03  0.22949183159E+03  0.12509023861E+03 0.  0.
          5    1    3    3  502    0 -0.37644578667E+01 -0.48352028545E+02 -0.17883725491E+03  0.18534380472E+03  0.41800000000E+01 0. -1.
         -5    1    3    3    0  502  0.20452018604E+02  0.36839823563E+02 -0.12494727319E+02  0.44148026863E+02  0.41800000000E+01 0. -1.
        -11    1    1    2    0    0  0.23359605685E+02  0.39193913009E+02 -0.21909330530E+03  0.22379390166E+03  0.00000000000E+00 0.  1.
         11    1    1    2    0    0 -0.40047166423E+02 -0.27681708028E+02 -0.14018996164E+03  0.14840241859E+03  0.00000000000E+00 0. -1.
</event>
<event>
 7    1  0.2841804E-009  0.1333933E+03  0.7561462E-02  0.1222506E+00
          1   -1    0    0  501    0  0.00000000000E+00  0.00000000000E+00  0.65393354712E+03  0.65393354712E+03  0.00000000000E+00 0. -1.
         -1   -1    0    0    0  501 -0.00000000000E+00 -0.00000000000E+00 -0.68111190008E+02  0.68111190008E+02  0.00000000000E+00 0.  1.
         25    2    1    2    0    0  0.11652310887E+03 -0.40514654197E+02  0.79014171157E+02  0.19264438656E+03  0.12509815476E+03 0.  0.
          5    1    3    3  502    0  0.76189281454E+02 -0.26761218011E+02 -0.21261583398E+02  0.83609190443E+02  0.41800000000E+01 0.  1.
         -5    1    3    3    0  502  0.40333827419E+02 -0.13753436187E+02  0.10027575455E+03  0.10903519612E+03  0.41800000000E+01 0.  1.
        -11    1    1    2    0    0 -0.12607788942E+03  0.31460150063E+02  0.49481425036E+03  0.51159213989E+03  0.00000000000E+00 0. -1.
         11    1    1    2    0    0  0.95547805447E+01  0.90545041339E+01  0.11993935599E+02  0.17808210677E+02  0.00000000000E+00 0.  1.
</event>
<event>
 7    1  0.2841804E-009  0.1145503E+03  0.7561462E-02  0.1252368E+00
          2   -1    0    0  501    0  0.00000000000E+00  0.00000000000E+00  0.37284321112E+03  0.37284321112E+03  0.00000000000E+00 0. -1.
         -2   -1    0    0    0  501 -0.00000000000E+00 -0.00000000000E+00 -0.59434559705E+02  0.59434559705E+02  0.00000000000E+00 0.  1.
         25    2    1    2    0    0 -0.61414095329E+02  0.20801639981E+02  0.17178649556E+03  0.22217334606E+03  0.12508395705E+03 0.  0.
          5    1    3    3  502    0 -0.62493347006E+02  0.37292081254E+02  0.18613030847E+03  0.19989517722E+03  0.41800000000E+01 0.  1.
         -5    1    3    3    0  502  0.10792516774E+01 -0.16490441273E+02 -0.14343812916E+02  0.22278168833E+02  0.41800000000E+01 0.  1.
        -11    1    1    2    0    0 -0.34631982764E+02 -0.25487379603E+02  0.92760172412E+02  0.10224201844E+03  0.00000000000E+00 0. -1.
         11    1    1    2    0    0  0.96046078092E+02  0.46857396221E+01  0.48861983445E+02  0.10786240633E+03  0.00000000000E+00 0.  1.
</event>
<event>
 7    1  0.2841804E-009  0.9047033E+02  0.7561462E-02  0.1301717E+00
         -1   -1    0    0    0  501 -0.00000000000E+00  0.00000000000E+00  0.14540220997E+03  0.14540220997E+03  0.00000000000E+00 0.  1.
          1   -1    0    0  501    0  0.00000000000E+00 -0.00000000000E+00 -0.88881457386E+02  0.88881457386E+02  0.00000000000E+00 0. -1.
         25    2    1    2    0    0  0.31566403071E+02 -0.30241616148E+01  0.38172775818E+02  0.13457392572E+03  0.12508955717E+03 0.  0.
          5    1    3    3  502    0  0.24150231371E+02  0.56978010445E+02 -0.16674913519E+01  0.62048209297E+02  0.41800000000E+01 0. -1.
         -5    1    3    3    0  502  0.74161716998E+01 -0.60002172060E+02  0.39840267170E+02  0.72525716424E+02  0.41800000000E+01 0. -1.
        -11    1    1    2    0    0 -0.25230465249E+02 -0.21397155200E+02 -0.30330449114E+02  0.44881519256E+02  0.00000000000E+00 0. -1.
         11    1    1    2    0    0 -0.63359378217E+01  0.24421316815E+02  0.48678425880E+02  0.54828222378E+02  0.00000000000E+00 0.  1.
</event>
<event>
 7    1  0.2841804E-009  0.2191773E+03  0.7561462E-02  0.1134498E+00
          1   -1    0    0  501    0  0.00000000000E+00  0.00000000000E+00  0.12287465306E+04  0.12287465306E+04  0.00000000000E+00 0. -1.
         -1   -1    0    0    0  501 -0.00000000000E+00 -0.00000000000E+00 -0.56903492580E+02  0.56903492580E+02  0.00000000000E+00 0.  1.
         25    2    1    2    0    0 -0.16945931303E+03 -0.10994609731E+03  0.28263344539E+03  0.36924542521E+03  0.12512360488E+03 0.  0.
          5    1    3    3  502    0  0.33864249333E+01  0.15155038386E+02  0.13083741928E+01  0.16134661612E+02  0.41800000000E+01 0. -1.
         -5    1    3    3    0  502 -0.17284573797E+03 -0.12510113569E+03  0.28132507120E+03  0.35311076360E+03  0.41800000000E+01 0. -1.
        -11    1    1    2    0    0  0.32923636027E+02 -0.99428262527E+00  0.57263062768E+02  0.66060674873E+02  0.00000000000E+00 0.  1.
         11    1    1    2    0    0  0.13653567701E+03  0.11094037993E+03  0.83194652983E+03  0.85034392307E+03  0.00000000000E+00 0. -1.
</event>
<event>
 6    1  0.2841804E-009  0.1014086E+03  0.7561462E-02  0.1277361E+00
          1   -1    0    0  501    0  0.00000000000E+00  0.00000000000E+00  0.15176832628E+03  0.15176832628E+03  0.00000000000E+00 0. -1.
         -1   -1    0    0    0  501 -0.00000000000E+00 -0.00000000000E+00 -0.89462848687E+02  0.89462848687E+02  0.00000000000E+00 0.  1.
          5    1    1    2  502    0 -0.21639077625E+02  0.56840027667E+02 -0.32751687421E+02  0.69203929474E+02  0.41800000000E+01 0.  1.
         -5    1    1    2    0  502  0.24600818203E+02 -0.45693050104E+02  0.23564768276E+02  0.57147404035E+02  0.41800000000E+01 0.  1.
        -11    1    1    2    0    0 -0.17311275938E+02  0.36302884930E+02  0.28938423891E+02  0.49548078733E+02  0.00000000000E+00 0. -1.
         11    1    1    2    0    0  0.14349535360E+02 -0.47449862493E+02  0.42553972846E+02  0.65331762724E+02  0.00000000000E+00 0.  1.
</event>
<event>
 7    1  0.2841804E-009  0.1686891E+03  0.7561462E-02  0.1179222E+00
         -2   -1    0    0    0  501 -0.00000000000E+00  0.00000000000E+00  0.20374906885E+03  0.20374906885E+03  0.00000000000E+00 0. -1.
          2   -1    0    0  501    0  0.00000000000E+00 -0.00000000000E+00 -0.18521690542E+03  0.18521690542E+03  0.00000000000E+00 0.  1.
         25    2    1    2    0    0 -0.86088689220E+02 -0.13261781022E+03 -0.19127760983E+02  0.20251636166E+03  0.12509300340E+03 0.  0.
          5    1    3    3  502    0 -0.74698848922E+02 -0.12608334664E+03  0.31577564261E+02  0.14997180833E+03  0.41800000000E+01 0.  1.
         -5    1    3    3    0  502 -0.11389840299E+02 -0.65344635820E+01 -0.50705325244E+02  0.52544553328E+02  0.41800000000E+01 0.  1.
        -11    1    1    2    0    0  0.95357435772E+02  0.82719417608E+02  0.47269457306E+02  0.13479593540E+03  0.00000000000E+00 0. -1.
         11    1    1    2    0    0 -0.92687465516E+01  0.49898392611E+02 -0.96095328918E+01  0.51653677218E+02  0.00000000000E+00 0.  1.
</event>
<event>
 7    1  0.2841804E-009  0.1727968E+03  0.7561462E-02  0.1174962E+00
         -1   -1    0    0    0  501 -0.00000000000E+00  0.00000000000E+00  0.35822957069E+02  0.35822957069E+02  0.00000000000E+00 0.  1.
          1   -1    0    0  501    0  0.00000000000E+00 -0.00000000000E+00 -0.11257874003E+04  0.11257874003E+04  0.00000000000E+00 0. -1.
         25    2    1    2    0    0  0.15790798905E+03  0.39741526017E+02 -0.43984826344E+03  0.48541677404E+03  0.12509447539E+03 0.  0.
          5    1    3    3  502    0  0.54263314948E+02  0.55494794746E+02 -0.30394586324E+03  0.31372717411E+03  0.41800000000E+01 0. -1.
         -5    1    3    3    0  502  0.10364467410E+03 -0.15753268730E+02 -0.13590240020E+03  0.17168959993E+03  0.41800000000E+01 0. -1.
        -11    1    1    2    0    0 -0.53107737124E+02 -0.10392445962E+02 -0.85516604134E+02  0.10120041629E+03  0.00000000000E+00 0.  1.
         11    1    1    2    0    0 -0.10480025193E+03 -0.29349080054E+02 -0.56459957571E+03  0.57499316708E+03  0.00000000000E+00 0. -1.
</event>
<event>
 7    1  0.2841804E-009  0.1170897E+03  0.7561462E-02  0.1247977E+00
          2   -1    0    0  501    0  0.00000000000E+00  0.00000000000E+00  0.59104670302E+03  0.59104670302E+03  0.00000000000E+00 0. -1.
         -2   -1    0    0    0  501 -0.00000000000E+00 -0.00000000000E+00 -0.33736236127E+02  0.33736236127E+02  0.00000000000E+00 0.  1.
         25    2    1    2    0    0 -0.82735862695E+02 -0.36848561969E+02  0.31014194668E+03  0.34646524560E+03  0.12508836806E+03 0.  0.
          5    1    3    3  502    0 -0.11839638036E+02  0.14248565935E+02  0.22009916632E+03  0.22091698458E+03  0.41800000000E+01 0.  1.
         -5    1    3    3    0  502 -0.70896224659E+02 -0.51097127904E+02  0.90042780355E+02  0.12554826102E+03  0.41800000000E+01 0.  1.
        -11    1    1    2    0    0 -0.11619656352E+02  0.31062105701E+02  0.56907130474E+02  0.65865714322E+02  0.00000000000E+00 0.  1.
         11    1    1    2    0    0  0.94355519047E+02  0.57864562678E+01  0.19026138974E+03  0.21245197923E+03  0.00000000000E+00 0. -1.
</event>
<event>
 7    1  0.2841804E-009  0.1584130E+03  0.7561462E-02  0.1190500E+00
         -4   -1    0    0    0  501 -0.00000000000E+00  0.00000000000E+00  0.40071948828E+02  0.40071948828E+02  0.00000000000E+00 0.  1.
          4   -1    0    0  501    0  0.00000000000E+00 -0.00000000000E+00 -0.82688374737E+03  0.82688374737E+03  0.00000000000E+00 0. -1.
         25    2    1    2    0    0 -0.13919517294E+03 -0.31925609627E+02 -0.34373194494E+03  0.39267472313E+03  0.12508895834E+03 0.  0.
          5    1    3    3  502    0 -0.96039948503E+02 -0.40638181368E+01 -0.83525128510E+02  0.12741313048E+03  0.41800000000E+01 0.  1.
         -5    1    3    3    0  502 -0.43155224433E+02 -0.27861791490E+02 -0.26020681643E+03  0.26526159265E+03  0.41800000000E+01 0.  1.
        -11    1    1    2    0    0  0.17090311125E+02 -0.28193574797E+02 -0.93379788786E+02  0.99028992462E+02  0.00000000000E+00 0.  1.
         11    1    1    2    0    0  0.12210486181E+03  0.60119184424E+02 -0.34970006482E+03  0.37525198061E+03  0.00000000000E+00 0. -1.
</event>
<event>
 7    1  0.2841804E-009  0.4316303E+02  0.7561462E-02  0.1486146E+00
          2   -1    0    0  501    0  0.00000000000E+00  0.00000000000E+00  0.10191451545E+03  0.10191451545E+03  0.00000000000E+00 0. -1.
         -2   -1    0    0    0  501 -0.00000000000E+00 -0.00000000000E+00 -0.17988230963E+03  0.17988230963E+03  0.00000000000E+00 0.  1.
         25    2    1    2    0    0  0.53211433865E+01  0.29348329505E+02  0.35511284401E+02  0.13341311581E+03  0.12509344163E+03 0.  0.
          5    1    3    3  502    0  0.10822671495E+02  0.12789575655E+02 -0.46426531882E+02  0.49533813968E+02  0.41800000000E+01 0. -1.
         -5    1    3    3    0  502 -0.55015281085E+01  0.16558753850E+02  0.81937816282E+02  0.83879301843E+02  0.41800000000E+01 0. -1.
        -11    1    1    2    0    0 -0.22549376092E+02 -0.85672365170E+01 -0.11849714516E+03  0.12092743822E+03  0.00000000000E+00 0.  1.
         11    1    1    2    0    0  0.17228232705E+02 -0.20781092988E+02  0.50180665810E+01  0.27456271053E+02  0.00000000000E+00 0. -1.
</event>
<event>
 7    1  0.2841804E-009  0.1529623E+03  0.7561462E-02  0.1196879E+00
          1   -1    0    0  501    0  0.00000000000E+00  0.00000000000E+00  0.33920899240E+03  0.33920899240E+03  0.00000000000E+00 0. -1.
         -1   -1    0    0    0  501 -0.00000000000E+00 -0.00000000000E+00 -0.15442558305E+03  0.15442558305E+03  0.00000000000E+00 0.  1.
         25    2    1    2    0    0  0.10415070196E+03  0.78559821142E+02  0.26127272233E+03  0.31769400195E+03  0.12508808585E+03 0.  0.
          5    1    3    3  502    0  0.12389067533E+03  0.75173718929E+02  0.16664679934E+03  0.22088145142E+03  0.41800000000E+01 0. -1.
         -5    1    3    3    0  502 -0.19739973371E+02  0.33861022129E+01  0.94625922998E+02  0.96812550530E+02  0.41800000000E+01 0. -1.
        -11    1    1    2    0    0  0.41202867739E+01 -0.13638737094E+02 -0.43046139287E+02  0.45342717388E+02  0.00000000000E+00 0.  1.
         11    1    1    2    0    0 -0.10827098873E+03 -0.64921084048E+02 -0.33443173691E+02  0.13059785611E+03  0.00000000000E+00 0. -1.
</event>
<event>
 7    1  0.2841804E-009  0.2437111E+03  0.7561462E-02  0.1117345E+00
          1   -1    0    0  501    0  0.00000000000E+00  0.00000000000E+00  0.22111238438E+04  0.22111238438E+04  0.00000000000E+00 0. -1.
         -1   -1    0    0    0  501 -0.00000000000E+00 -0.00000000000E+00 -0.27067249398E+02  0.27067249398E+02  0.00000000000E+00 0.  1.
         25    2    1    2    0    0  0.21714676360E+03  0.16211323381E+02  0.11571814453E+04  0.11841163801E+04  0.12508868929E+03 0.  0.
          5    1    3    3  502    0 -0.11352328283E+02 -0.16210598432E+02  0.85877696095E+02  0.88227603082E+02  0.41800000000E+01 0.  1.
         -5    1    3    3    0  502  0.22849909189E+03  0.32421921812E+02  0.10713037492E+04  0.10958887770E+04  0.41800000000E+01 0.  1.
        -11    1    1    2    0    0 -0.22120581900E+03 -0.16071124176E+01  0.98517553995E+03  0.10097056213E+04  0.00000000000E+00 0. -1.
         11    1    1    2    0    0  0.40590554017E+01 -0.14604210963E+02  0.41699609153E+02  0.44369091855E+02  0.00000000000E+00 0.  1.
</event>
<event>
 7    1  0.2841804E-009  0.4706318E+02  0.7561462E-02  0.1461858E+00
         -1   -1    0    0    0  501 -0.00000000000E+00  0.00000000000E+00  0.40809314944E+03  0.40809314944E+03  0.00000000000E+00 0.  1.
          1   -1    0    0  501    0  0.00000000000E+00 -0.00000000000E+00 -0.30272998298E+02  0.30272998298E+02  0.00000000000E+00 0. -1.
         25    2    1    2    0    0 -0.65393404107E+00  0.10217559607E+01  0.26142795301E+03  0.28981688533E+03  0.12509108997E+03 0.  0.
          5    1    3    3  502    0  0.11867450079E+02  0.20185467731E+02  0.26518126383E+03  0.26624587239E+03  0.41800000000E+01 0. -1.
         -5    1    3    3    0  502 -0.12521384120E+02 -0.19163711770E+02 -0.37533108122E+01  0.23571012943E+02  0.41800000000E+01 0. -1.
        -11    1    1    2    0    0 -0.18730237609E+02 -0.14308006283E+02  0.12210941197E+03  0.12436337618E+03  0.00000000000E+00 0.  1.
         11    1    1    2    0    0  0.19384171650E+02  0.13286250322E+02 -0.57172138432E+01  0.24185886222E+02  0.00000000000E+00 0. -1.
</event>
<event>
 7    1  0.2841804E-009  0.8134032E+02  0.7561462E-02  0.1325290E+00
          1   -1    0    0  501    0  0.00000000000E+00  0.00000000000E+00  0.29916442900E+02  0.29916442900E+02  0.00000000000E+00 0. -1.
         -1   -1    0    0    0  501 -0.00000000000E+00 -0.00000000000E+00 -0.47492126046E+03  0.47492126046E+03  0.00000000000E+00 0.  1.
         25    2    1    2    0    0 -0.42032867016E+02  0.27505645574E+02 -0.23367619670E+03  0.26977047205E+03  0.12509284646E+03 0.  0.
          5    1    3    3  502    0  0.31687833294E+00 -0.57936101821E+01  0.14292983877E+02  0.15982118725E+02  0.41800000000E+01 0.  1.
         -5    1    3    3    0  502 -0.42349745349E+02  0.33299255757E+02 -0.24796918058E+03  0.25378835332E+03  0.41800000000E+01 0.  1.
        -11    1    1    2    0    0  0.24912526799E+02 -0.59888936642E+02 -0.15311955483E+03  0.16629166183E+03  0.00000000000E+00 0.  1.
         11    1    1    2    0    0  0.17120340216E+02  0.32383291068E+02 -0.58209066027E+02  0.68775569479E+02  0.00000000000E+00 0. -1.
</event>
<event>
 7    1  0.2841804E-009  0.1196844E+03  0.7561462E-02  0.1243619E+00
         -1   -1    0    0    0  501 -0.00000000000E+00  0.00000000000E+00  0.26351865133E+02  0.26351865133E+02  0.00000000000E+00 0.  1.
          1   -1    0    0  501    0  0.00000000000E+00 -0.00000000000E+00 -0.67555504819E+03  0.67555504819E+03  0.00000000000E+00 0. -1.
         25    2    1    2    0    0  0.21254182579E+02 -0.72132413006E+02 -0.34259700902E+03  0.37239088920E+03  0.12508972173E+03 0.  0.
          5    1    3    3  502    0  0.35463635161E+02  0.18132293758E+02 -0.41360662049E+02  0.57572790977E+02  0.41800000000E+01 0. -1.
         -5    1    3    3    0  502 -0.14209452581E+02 -0.90264706764E+02 -0.30123634697E+03  0.31481809822E+03  0.41800000000E+01 0. -1.
        -11    1    1    2    0    0  0.27690101804E+02  0.42208915471E+02 -0.71581639705E+02  0.87591468911E+02  0.00000000000E+00 0.  1.
         11    1    1    2    0    0 -0.48944284384E+02  0.29923497535E+02 -0.23502453433E+03  0.24192455522E+03  0.00000000000E+00 0. -1.
</event>
<event>
 7    1  0.2841804E-009  0.3369687E+03  0.7561462E-02  0.1068094E+00
         -2   -1    0    0    0  501 -0.00000000000E+00  0.00000000000E+00  0.59751356208E+02  0.59751356208E+02  0.00000000000E+00 0.  1.
          2   -1    0    0  501    0  0.00000000000E+00 -0.00000000000E+00 -0.21834088189E+04  0.21834088189E+04  0.00000000000E+00 0. -1.
         25    2    1    2    0    0 -0.32285512461E+03 -0.32463713779E+01 -0.14469655282E+04  0.14878180629E+04  0.12508948079E+03 0.  0.
          5    1    3    3  502    0 -0.32359301213E+03  0.14141615569E+02 -0.14102200067E+04  0.14469451829E+04  0.41800000000E+01 0. -1.
         -5    1    3    3    0  502  0.73788752014E+00 -0.17387986947E+02 -0.36745521538E+02  0.40872880021E+02  0.41800000000E+01 0. -1.
        -11    1    1    2    0    0  0.26732145547E+03 -0.27330590397E+02 -0.58618190135E+03  0.64483869549E+03  0.00000000000E+00 0.  1.
         11    1    1    2    0    0  0.55533669137E+02  0.30576961775E+02 -0.90510033152E+02  0.11050341669E+03  0.00000000000E+00 0. -1.
</event>
<event>
 7    1  0.2841804E-009  0.2206936E+03  0.7561462E-02  0.1133367E+00
         -2   -1    0    0    0  501 -0.00000000000E+00  0.00000000000E+00  0.32651854248E+02  0.32651854248E+02  0.00000000000E+00 0.  1.
          2   -1    0    0  501    0  0.00000000000E+00 -0.00000000000E+00 -0.18009682493E+04  0.18009682493E+04  0.00000000000E+00 0. -1.
         25    2    1    2    0    0  0.89976625918E+01 -0.21366516238E+03 -0.78885898319E+03  0.82684916776E+03  0.12508913350E+03 0.  0.
          5    1    3    3  502    0  0.90755884828E+01 -0.10929627350E+03 -0.60941107597E+03  0.61921512709E+03  0.41800000000E+01 0.  1.
         -5    1    3    3    0  502 -0.77925891005E-01 -0.10436888887E+03 -0.17944790722E+03  0.20763404067E+03  0.41800000000E+01 0.  1.
        -11    1    1    2    0    0  0.32049260341E+02  0.58768500211E+02 -0.19665459670E+03  0.20773522116E+03  0.00000000000E+00 0. -1.
         11    1    1    2    0    0 -0.41046922933E+02  0.15489666217E+03 -0.78280281513E+03  0.79903571460E+03  0.00000000000E+00 0.  1.
</event>
<event>
 7    1  0.2841804E-009  0.7216404E+02  0.7561462E-02  0.1352885E+00
         -1   -1    0    0    0  501 -0.00000000000E+00  0.00000000000E+00  0.19463848379E+02  0.19463848379E+02  0.00000000000E+00 0.  1.
          1   -1    0    0  501    0  0.00000000000E+00 -0.00000000000E+00 -0.63546312142E+03  0.63546312142E+03  0.00000000000E+00 0. -1.
         25    2    1    2    0    0 -0.16374828837E+02  0.28985575247E+02 -0.42431324617E+03  0.44361946174E+03  0.12509275506E+03 0.  0.
          5    1    3    3  502    0 -0.39798124343E+02  0.32355334977E+02 -0.62282152272E+02  0.80791690750E+02  0.41800000000E+01 0. -1.
         -5    1    3    3    0  502  0.23423295506E+02 -0.33697597295E+01 -0.36203109390E+03  0.36282777099E+03  0.41800000000E+01 0. -1.
        -11    1    1    2    0    0 -0.16141658760E+02 -0.32342734497E+02 -0.16556153627E+03  0.16946158241E+03  0.00000000000E+00 0. -1.
         11    1    1    2    0    0  0.32516487597E+02  0.33571592495E+01 -0.26124490606E+02  0.41845925648E+02  0.00000000000E+00 0.  1.
</event>
<event>
 7    1  0.2841804E-009  0.1249351E+03  0.7561462E-02  0.1235171E+00
          2   -1    0    0  501    0  0.00000000000E+00  0.00000000000E+00  0.12114615786E+03  0.12114615786E+03  0.00000000000E+00 0. -1.
         -2   -1    0    0    0  501 -0.00000000000E+00 -0.00000000000E+00 -0.18852715711E+03  0.18852715711E+03  0.00000000000E+00 0.  1.
         25    2    1    2    0    0 -0.86959727725E+02 -0.14395279527E+02 -0.96426111044E+02  0.18084861077E+03  0.12505601469E+03 0.  0.
          5    1    3    3  502    0  0.89609800516E+00  0.27299334488E+02  0.16166870263E+02  0.32014008640E+02  0.41800000000E+01 0. -1.
         -5    1    3    3    0  502 -0.87855825730E+02 -0.41694614015E+02 -0.11259298131E+03  0.14883460213E+03  0.41800000000E+01 0. -1.
        -11    1    1    2    0    0  0.69257931188E+02 -0.31221278712E+02  0.11457523656E+02  0.76829057818E+02  0.00000000000E+00 0.  1.
         11    1    1    2    0    0  0.17701796538E+02  0.45616558239E+02  0.17587588141E+02  0.51995646383E+02  0.00000000000E+00 0. -1.
</event>
<event>
 7    1  0.2841804E-009  0.1033567E+03  0.7561462E-02  0.1273392E+00
          3   -1    0    0  501    0  0.00000000000E+00  0.00000000000E+00  0.84587571807E+02  0.84587571807E+02  0.00000000000E+00 0. -1.
         -3   -1    0    0    0  501 -0.00000000000E+00 -0.00000000000E+00 -0.47811390372E+03  0.47811390372E+03  0.00000000000E+00 0.  1.
         25    2    1    2    0    0 -0.17854244999E+02  0.57852862550E+01 -0.44283554735E+03  0.46054502794E+03  0.12508460002E+03 0.  0.
          5    1    3    3  502    0 -0.49193463741E+02  0.45674001642E+02 -0.32965321275E+03  0.33644438527E+03  0.41800000000E+01 0. -1.
         -5    1    3    3    0  502  0.31339218741E+02 -0.39888715387E+02 -0.11318233460E+03  0.12410064267E+03  0.41800000000E+01 0. -1.
        -11    1    1    2    0    0 -0.35253755469E+02 -0.18181764376E+01  0.26881769149E+02  0.44370739827E+02  0.00000000000E+00 0. -1.
         11    1    1    2    0    0  0.53108000468E+02 -0.39671098175E+01  0.22427446290E+02  0.57785707758E+02  0.00000000000E+00 0.  1.
</event>
<event>
 7    1  0.4144060E-009  0.1488655E+03  0.7561462E-02  0.1201874E+00
          2   -1    0    0  501    0  0.00000000000E+00  0.00000000000E+00  0.80572463682E+03  0.80572463682E+03  0.00000000000E+00 0. -1.
         -2   -1    0    0    0  501 -0.00000000000E+00 -0.00000000000E+00 -0.35175783954E+02  0.35175783954E+02  0.00000000000E+00 0.  1.
         25    2    1    2    0    0 -0.11840925367E+03  0.31938084697E+02  0.31495926979E+03  0.36040012716E+03  0.12509243552E+03 0.  0.
          5    1    3    3  502    0 -0.12885440710E+03 -0.12112499720E+02  0.24098003898E+03  0.27356721746E+03  0.41800000000E+01 0. -1.
         -5    1    3    3    0  502  0.10445153426E+02  0.44050584417E+02  0.73979230802E+02  0.86832909704E+02  0.41800000000E+01 0. -1.
        -11    1    1    2    0    0  0.58489305070E+02 -0.12789836742E+02  0.81328963851E+02  0.10098999501E+03  0.00000000000E+00 0.  1.
         11    1    1    2    0    0  0.59919948600E+02 -0.19148247955E+02  0.37426061923E+03  0.37951029860E+03  0.00000000000E+00 0. -1.
</event>
<event>
 7    1  0.2841804E-009  0.1347398E+03  0.7561462E-02  0.1220587E+00
         -2   -1    0    0    0  501 -0.00000000000E+00  0.00000000000E+00  0.11784678516E+03  0.11784678516E+03  0.00000000000E+00 0.  1.
          2   -1    0    0  501    0  0.00000000000E+00 -0.00000000000E+00 -0.22144132848E+03  0.22144132848E+03  0.00000000000E+00 0. -1.
         25    2    1    2    0    0 -0.74776351782E+02 -0.83536955476E+02 -0.12877915241E+02  0.16847405926E+03  0.12509093583E+03 0.  0.
          5    1    3    3  502    0 -0.19761172058E+02  0.26598116964E+02  0.22550266442E+02  0.40298271225E+02  0.41800000000E+01 0.  1.
         -5    1    3    3    0  502 -0.55015179724E+02 -0.11013507244E+03 -0.35428181683E+02  0.12817578804E+03  0.41800000000E+01 0.  1.
        -11    1    1    2    0    0  0.43496766120E+02  0.58124918729E+02 -0.11600437397E+01  0.72607303638E+02  0.00000000000E+00 0.  1.
         11    1    1    2    0    0  0.31279585661E+02  0.25412036747E+02 -0.89556584346E+02  0.98206750738E+02  0.00000000000E+00 0. -1.
</event>
<event>
 7    1  0.2841804E-009  0.1322858E+03  0.7561462E-02  0.1224103E+00
          1   -1    0    0  501    0  0.00000000000E+00  0.00000000000E+00  0.12242609313E+04  0.12242609313E+04  0.00000000000E+00 0. -1.
         -1   -1    0    0    0  501 -0.00000000000E+00 -0.00000000000E+00 -0.15451460838E+02  0.15451460838E+02  0.00000000000E+00 0.  1.
         25    2    1    2    0    0  0.32913444657E+02 -0.71891418076E+02  0.52471955434E+03  0.54518756360E+03  0.12508876034E+03 0.  0.
          5    1    3    3  502    0  0.25480352693E+02  0.31686185076E+02  0.20382354928E+03  0.20788163540E+03  0.41800000000E+01 0. -1.
         -5    1    3    3    0  502  0.74330919639E+01 -0.10357760315E+03  0.32089600506E+03  0.33730592820E+03  0.41800000000E+01 0. -1.
        -11    1    1    2    0    0 -0.58160980189E+02  0.74356506599E+02  0.55382166870E+03  0.56180960334E+03  0.00000000000E+00 0. -1.
         11    1    1    2    0    0  0.25247535532E+02 -0.24650885237E+01  0.13026824743E+03  0.13271522520E+03  0.00000000000E+00 0.  1.
</event>
<event>
 7    1  0.2841804E-009  0.1147148E+03  0.7561462E-02  0.1252080E+00
          2   -1    0    0  501    0  0.00000000000E+00  0.00000000000E+00  0.66913613667E+02  0.66913613667E+02  0.00000000000E+00 0. -1.
         -2   -1    0    0    0  501 -0.00000000000E+00 -0.00000000000E+00 -0.23787082084E+03  0.23787082084E+03  0.00000000000E+00 0.  1.
         25    2    1    2    0    0 -0.11928149007E+02  0.53909965862E+02 -0.55545208266E+02  0.14758458744E+03  0.12508946850E+03 0.  0.
          5    1    3    3  502    0 -0.54768461410E+02  0.15955602953E+01 -0.57863779312E+02  0.79798618623E+02  0.41800000000E+01 0. -1.
         -5    1    3    3    0  502  0.42840312403E+02  0.52314405567E+02  0.23185710463E+01  0.67785968816E+02  0.41800000000E+01 0. -1.
        -11    1    1    2    0    0 -0.36145487936E+02 -0.45201597531E+02 -0.62744234171E+02  0.85361113156E+02  0.00000000000E+00 0. -1.
         11    1    1    2    0    0  0.48073636943E+02 -0.87083683309E+01 -0.52667764736E+02  0.71838733913E+02  0.00000000000E+00 0.  1.
</event>
<event>
 7    1  0.2841804E-009  0.1197299E+03  0.7561462E-02  0.1243543E+00
          4   -1    0    0  501    0  0.00000000000E+00  0.00000000000E+00  0.10477456817E+03  0.10477456817E+03  0.00000000000E+00 0. -1.
         -4   -1    0    0    0  501 -0.00000000000E+00 -0.00000000000E+00 -0.18415374781E+03  0.18415374781E+03  0.00000000000E+00 0.  1.
         25    2    1    2    0    0 -0.84050765957E+02 -0.13719563892E+02 -0.71820178395E+02  0.16749974530E+03  0.12508104957E+03 0.  0.
          5    1    3    3  502    0 -0.83204319538E+02  0.43449062968E+02 -0.42861675889E+02  0.10327330499E+03  0.41800000000E+01 0.  1.
         -5    1    3    3    0  502 -0.84644641884E+00 -0.57168626860E+02 -0.28958502506E+02  0.64226440318E+02  0.41800000000E+01 0.  1.
        -11    1    1    2    0    0  0.38487215460E+02  0.17846048326E+02  0.37933898413E+02  0.56909822030E+02  0.00000000000E+00 0. -1.
         11    1    1    2    0    0  0.45563550497E+02 -0.41264844341E+01 -0.45492899654E+02  0.64518748644E+02  0.00000000000E+00 0.  1.
</event>
<event>
 7    1  0.2841804E-009  0.2301243E+03  0.7561462E-02  0.1126552E+00
         -1   -1    0    0    0  501 -0.00000000000E+00  0.00000000000E+00  0.32756219622E+03  0.32756219622E+03  0.00000000000E+00 0.  1.
          1   -1    0    0  501    0  0.00000000000E+00 -0.00000000000E+00 -0.24363565268E+03  0.24363565268E+03  0.00000000000E+00 0. -1.
         25    2    1    2    0    0  0.11593023170E+03  0.17458235089E+03  0.19924750146E+03  0.31506588682E+03  0.12509248712E+03 0.  0.
          5    1    3    3  502    0  0.12688196004E+03  0.90826858119E+02  0.15344893629E+03  0.21888946614E+03  0.41800000000E+01 0. -1.
         -5    1    3    3    0  502 -0.10951728339E+02  0.83755492768E+02  0.45798565165E+02  0.96176420673E+02  0.41800000000E+01 0. -1.
        -11    1    1    2    0    0 -0.84969077393E+02 -0.16750099874E+03 -0.69261424421E+02  0.20018359974E+03  0.00000000000E+00 0.  1.
         11    1    1    2    0    0 -0.30961154306E+02 -0.70813521474E+01 -0.46059533496E+02  0.55948362353E+02  0.00000000000E+00 0. -1.
</event>
<event>
 7    1  0.2841804E-009  0.1092846E+03  0.7561462E-02  0.1261900E+00
         -2   -1    0    0    0  501 -0.00000000000E+00  0.00000000000E+00  0.25569135825E+02  0.25569135825E+02  0.00000000000E+00 0.  1.
          2   -1    0    0  501    0  0.00000000000E+00 -0.00000000000E+00 -0.60284893719E+03  0.60284893719E+03  0.00000000000E+00 0. -1.
         25    2    1    2    0    0  0.52224357442E+02  0.30866939757E+02 -0.35456777982E+03  0.38084925082E+03  0.12509072660E+03 0.  0.
          5    1    3    3  502    0 -0.34351856751E+02 -0.14276940824E+02 -0.14269120006E+03  0.14751993790E+03  0.41800000000E+01 0.  1.
         -5    1    3    3    0  502  0.86576214193E+02  0.45143880581E+02 -0.21187657976E+03  0.23332931292E+03  0.41800000000E+01 0.  1.
        -11    1    1    2    0    0 -0.22050760169E+02  0.16294546960E+02 -0.12690223381E+02  0.30212415563E+02  0.00000000000E+00 0.  1.
         11    1    1    2    0    0 -0.30173597273E+02 -0.47161486717E+02 -0.21002179817E+03  0.21735640664E+03  0.00000000000E+00 0. -1.
</event>
<event>
 7    1  0.2841804E-009  0.1158383E+03  0.7561462E-02  0.1250125E+00
         -2   -1    0    0    0  501 -0.00000000000E+00  0.00000000000E+00  0.22082841780E+02  0.22082841780E+02  0.00000000000E+00 0. -1.
          2   -1    0    0  501    0  0.00000000000E+00 -0.00000000000E+00 -0.69902683737E+03  0.69902683737E+03  0.00000000000E+00 0.  1.
         25    2    1    2    0    0 -0.54812803068E+02 -0.17167610852E+02 -0.33536079394E+03  0.36250983670E+03  0.12508936546E+03 0.  0.
          5    1    3    3  502    0  0.30699523787E+02  0.26951230771E+02 -0.11086553376E+03  0.11822634468E+03  0.41800000000E+01 0.  1.
         -5    1    3    3    0  502 -0.85512326854E+02 -0.44118841623E+02 -0.22449526018E+03  0.24428349202E+03  0.41800000000E+01 0.  1.
        -11    1    1    2    0    0  0.35315434120E+02 -0.28021850431E+02 -0.25544675088E+03  0.25939438415E+03  0.00000000000E+00 0.  1.
         11    1    1    2    0    0  0.19497368947E+02  0.45189461283E+02 -0.86136450766E+02  0.99205458305E+02  0.00000000000E+00 0. -1.
</event>
<event>
 7    1  0.2841804E-009  0.9895752E+02  0.7561462E-02  0.1282504E+00
          1   -1    0    0  501    0  0.00000000000E+00  0.00000000000E+00  0.13468842737E+03  0.13468842737E+03  0.00000000000E+00 0. -1.
         -1   -1    0    0    0  501 -0.00000000000E+00 -0.00000000000E+00 -0.17090603416E+03  0.17090603416E+03  0.00000000000E+00 0.  1.
         25    2    1    2    0    0 -0.31635760750E+02  0.45030387125E+02  0.71922302740E+02  0.15442758787E+03  0.12508599098E+03 0.  0.
          5    1    3    3  502    0  0.45523164678E+02  0.29086020754E+02  0.12374086220E+02  0.55578282947E+02  0.41800000000E+01 0.  1.
         -5    1    3    3    0  502 -0.77158925428E+02  0.15944366371E+02  0.59548216519E+02  0.98849304918E+02  0.41800000000E+01 0.  1.
        -11    1    1    2    0    0 -0.40961155554E+01 -0.21870531103E+02  0.10873394101E+02  0.24765479859E+02  0.00000000000E+00 0. -1.
         11    1    1    2    0    0  0.35731876306E+02 -0.23159856022E+02 -0.11901330363E+03  0.12640139381E+03  0.00000000000E+00 0.  1.
</event>
<event>
 7    1  0.2841804E-009  0.9048147E+02  0.7561462E-02  0.1301690E+00
         -1   -1    0    0    0  501 -0.00000000000E+00  0.00000000000E+00  0.37801388584E+02  0.37801388584E+02  0.00000000000E+00 0.  1.
          1   -1    0    0  501    0  0.00000000000E+00 -0.00000000000E+00 -0.36099823437E+03  0.36099823437E+03  0.00000000000E+00 0. -1.
         25    2    1    2    0    0  0.11439260680E+02  0.52723614823E+01 -0.25094614896E+03  0.28067942017E+03  0.12509321622E+03 0.  0.
          5    1    3    3  502    0 -0.23775556335E+02 -0.44403192596E+02 -0.18063622996E+03  0.18757356041E+03  0.41800000000E+01 0. -1.
         -5    1    3    3    0  502  0.35214817015E+02  0.49675554078E+02 -0.70309919008E+02  0.93105859758E+02  0.41800000000E+01 0. -1.
        -11    1    1    2    0    0  0.17119168838E+02 -0.28047649031E+02  0.44560195058E+01  0.33160106569E+02  0.00000000000E+00 0.  1.
         11    1    1    2    0    0 -0.28558429518E+02  0.22775287548E+02 -0.76706716333E+02  0.84960096222E+02  0.00000000000E+00 0. -1.
</event>
<event>
 7    1  0.2841804E-009  0.1943552E+03  0.7561462E-02  0.1154591E+00
          1   -1    0    0  501    0  0.00000000000E+00  0.00000000000E+00  0.96392898949E+03  0.96392898949E+03  0.00000000000E+00 0. -1.
         -1   -1    0    0    0  501 -0.00000000000E+00 -0.00000000000E+00 -0.40647501308E+02  0.40647501308E+02  0.00000000000E+00 0.  1.
         25    2    1    2    0    0 -0.41615073639E+02  0.15951132961E+03  0.47780400945E+03  0.52069160480E+03  0.12508955685E+03 0.  0.
          5    1    3    3  502    0 -0.17567041320E+02  0.17626198222E+03  0.41608934586E+03  0.45224407509E+03  0.41800000000E+01 0. -1.
         -5    1    3    3    0  502 -0.24048032319E+02 -0.16750652605E+02  0.61714663592E+02  0.68447529710E+02  0.41800000000E+01 0. -1.
        -11    1    1    2    0    0  0.63894378870E+02 -0.10338321550E+03  0.23038635771E+03  0.26047735932E+03  0.00000000000E+00 0.  1.
         11    1    1    2    0    0 -0.22279305231E+02 -0.56128114108E+02  0.21509112103E+03  0.22340752669E+03  0.00000000000E+00 0. -1.
</event>
<event>
 7    1  0.2841804E-009  0.1126950E+03  0.7561462E-02  0.1255659E+00
          2   -1    0    0  501    0  0.00000000000E+00  0.00000000000E+00  0.35262456845E+03  0.35262456845E+03  0.00000000000E+00 0.  1.
         -2   -1    0    0    0  501 -0.00000000000E+00 -0.00000000000E+00 -0.42911120058E+02  0.42911120058E+02  0.00000000000E+00 0. -1.
         25    2    1    2    0    0  0.36980931847E+02 -0.30279536991E+02  0.23393489977E+03  0.26955093981E+03  0.12509089551E+03 0.  0.
          5    1    3    3  502    0  0.27898981018E+01 -0.73525633910E+02  0.96580408739E+02  0.12148683108E+03  0.41800000000E+01 0. -1.
         -5    1    3    3    0  502  0.34191033745E+02  0.43246096919E+02  0.13735449103E+03  0.14806410873E+03  0.41800000000E+01 0. -1.
        -11    1    1    2    0    0 -0.52558115139E+02  0.49134222530E+02  0.70967537796E+02  0.10105898630E+03  0.00000000000E+00 0. -1.
         11    1    1    2    0    0  0.15577183292E+02 -0.18854685539E+02  0.48110108212E+01  0.24925762400E+02  0.00000000000E+00 0.  1.
</event>
<event>
 7    1  0.2841804E-009  0.1027619E+03  0.7561462E-02  0.1274593E+00
         -1   -1    0    0    0  501 -0.00000000000E+00  0.00000000000E+00  0.31740685856E+02  0.31740685856E+02  0.00000000000E+00 0.  1.
          1   -1    0    0  501    0  0.00000000000E+00 -0.00000000000E+00 -0.45904131821E+03  0.45904131821E+03  0.00000000000E+00 0. -1.
         25    2    1    2    0    0 -0.29156710520E+02 -0.25113659604E+02 -0.30952336845E+03  0.33604577732E+03  0.12506493982E+03 0.  0.
          5    1    3    3  502    0  0.91993017375E+01  0.44432693502E+02 -0.16393709532E+03  0.17015209380E+03  0.41800000000E+01 0. -1.
         -5    1    3    3    0  502 -0.38356012258E+02 -0.69546353106E+02 -0.14558627313E+03  0.16589368352E+03  0.41800000000E+01 0. -1.
        -11    1    1    2    0    0 -0.20829903394E+02 -0.58362639450E+01  0.15748131525E+01  0.21689326608E+02  0.00000000000E+00 0.  1.
         11    1    1    2    0    0  0.49986613914E+02  0.30949923549E+02 -0.11935207705E+03  0.13304690013E+03  0.00000000000E+00 0. -1.
</event>
<event>
 7    1  0.2841804E-009  0.8405165E+02  0.7561462E-02  0.1317931E+00
          4   -1    0    0  501    0  0.00000000000E+00  0.00000000000E+00  0.10897437018E+04  0.10897437018E+04  0.00000000000E+00 0. -1.
         -4   -1    0    0    0  501 -0.00000000000E+00 -0.00000000000E+00 -0.17001300270E+02  0.17001300270E+02  0.00000000000E+00 0.  1.
         25    2    1    2    0    0 -0.37823867884E+02  0.41657118136E+02  0.85038349328E+03  0.86137452671E+03  0.12509208267E+03 0.  0.
          5    1    3    3  502    0  0.65280550460E+01  0.24249288476E+02  0.28957011514E+02  0.38556768668E+02  0.41800000000E+01 0. -1.
         -5    1    3    3    0  502 -0.44351922930E+02  0.17407829660E+02  0.82142648177E+03  0.82281775804E+03  0.41800000000E+01 0. -1.
        -11    1    1    2    0    0 -0.19953390136E+02 -0.29754931655E+02  0.39954241150E+02  0.53664095274E+02  0.00000000000E+00 0.  1.
         11    1    1    2    0    0  0.57777258020E+02 -0.11902186481E+02  0.18240466713E+03  0.19170638012E+03  0.00000000000E+00 0. -1.
</event>
<event>
 7    1  0.2841804E-009  0.1135468E+03  0.7561462E-02  0.1254139E+00
         -1   -1    0    0    0  501 -0.00000000000E+00  0.00000000000E+00  0.62985222659E+02  0.62985222659E+02  0.00000000000E+00 0.  1.
          1   -1    0    0  501    0  0.00000000000E+00 -0.00000000000E+00 -0.26254853128E+03  0.26254853128E+03  0.00000000000E+00 0. -1.
         25    2    1    2    0    0 -0.40112275058E+02 -0.52382629643E+02 -0.10366105019E+03  0.17534534923E+03  0.12508974247E+03 0.  0.
          5    1    3    3  502    0 -0.58457273626E+01 -0.89832481978E+02 -0.72246790926E+02  0.11550375988E+03  0.41800000000E+01 0. -1.
         -5    1    3    3    0  502 -0.34266547696E+02  0.37449852335E+02 -0.31414259265E+02  0.59841589351E+02  0.41800000000E+01 0. -1.
        -11    1    1    2    0    0  0.52110026538E+02  0.52599304145E+02 -0.10941748236E+03  0.13211482547E+03  0.00000000000E+00 0. -1.
         11    1    1    2    0    0 -0.11997751480E+02 -0.21667450185E+00  0.13515223936E+02  0.18073579238E+02  0.00000000000E+00 0.  1.
</event>
<event>
 7    1  0.2841804E-009  0.1560421E+03  0.7561462E-02  0.1193239E+00
         -1   -1    0    0    0  501 -0.00000000000E+00  0.00000000000E+00  0.18277372263E+03  0.18277372263E+03  0.00000000000E+00 0.  1.
          1   -1    0    0  501    0  0.00000000000E+00 -0.00000000000E+00 -0.22616290853E+03  0.22616290853E+03  0.00000000000E+00 0. -1.
         25    2    1    2    0    0  0.10568504662E+03  0.70219082761E+02 -0.13967326318E+03  0.22639887168E+03  0.12509108677E+03 0.  0.
          5    1    3    3  502    0  0.13410611591E+03  0.63637647373E+02 -0.12052293481E+03  0.19125232209E+03  0.41800000000E+01 0. -1.
         -5    1    3    3    0  502 -0.28421069297E+02  0.65814353877E+01 -0.19150328368E+02  0.35146549593E+02  0.41800000000E+01 0. -1.
        -11    1    1    2    0    0 -0.19744993304E+01 -0.17801383484E+02  0.57196868865E+02  0.59935546293E+02  0.00000000000E+00 0.  1.
         11    1    1    2    0    0 -0.10371054729E+03 -0.52417699277E+02  0.39087208414E+02  0.12260221318E+03  0.00000000000E+00 0. -1.
</event>
<event>
 7    1  0.2841804E-009  0.2609245E+03  0.7561462E-02  0.1106589E+00
          2   -1    0    0  501    0  0.00000000000E+00  0.00000000000E+00  0.35924076917E+03  0.35924076917E+03  0.00000000000E+00 0. -1.
         -2   -1    0    0    0  501 -0.00000000000E+00 -0.00000000000E+00 -0.20484687091E+03  0.20484687091E+03  0.00000000000E+00 0.  1.
         25    2    1    2    0    0  0.11454155825E+03  0.21894814338E+03  0.10461491428E+03  0.29606109306E+03  0.12509929049E+03 0.  0.
          5    1    3    3  502    0 -0.24574961788E+02  0.34217755370E+02  0.30696357910E+00  0.42336156605E+02  0.41800000000E+01 0.  1.
         -5    1    3    3    0  502  0.13911652004E+03  0.18473038801E+03  0.10430795070E+03  0.25372493646E+03  0.41800000000E+01 0.  1.
        -11    1    1    2    0    0 -0.42470685425E+02 -0.58126308973E+02 -0.25523977585E+02  0.76379973469E+02  0.00000000000E+00 0.  1.
         11    1    1    2    0    0 -0.72070872828E+02 -0.16082183441E+03  0.75302961566E+02  0.19164657355E+03  0.00000000000E+00 0. -1.
</event>
<event>
 7    1  0.2841804E-009  0.9309813E+02  0.7561462E-02  0.1295518E+00
          2   -1    0    0  501    0  0.00000000000E+00  0.00000000000E+00  0.17029410027E+03  0.17029410027E+03  0.00000000000E+00 0. -1.
         -2   -1    0    0    0  501 -0.00000000000E+00 -0.00000000000E+00 -0.10301345522E+03  0.10301345522E+03  0.00000000000E+00 0.  1.
         25    2    1    2    0    0 -0.71668715434E+02  0.26390904275E+02  0.36899425389E+02  0.15115666443E+03  0.12511548668E+03 0.  0.
          5    1    3    3  502    0 -0.59521714454E+02 -0.88688769422E+01 -0.35223687698E+02  0.69854649414E+02  0.41800000000E+01 0.  1.
         -5    1    3    3    0  502 -0.12147000980E+02  0.35259781217E+02  0.72123113087E+02  0.81302015016E+02  0.41800000000E+01 0.  1.
        -11    1    1    2    0    0  0.37521754878E+02  0.96030600727E+01 -0.26304643596E+02  0.46819174774E+02  0.00000000000E+00 0.  1.
         11    1    1    2    0    0  0.34146960556E+02 -0.35993964348E+02  0.56685863260E+02  0.75331716283E+02  0.00000000000E+00 0. -1.
</event>
<event>
 7    1  0.2841804E-009  0.9262435E+02  0.7561462E-02  0.1296618E+00
          1   -1    0    0  501    0  0.00000000000E+00  0.00000000000E+00  0.89269172788E+02  0.89269172788E+02  0.00000000000E+00 0. -1.
         -1   -1    0    0    0  501 -0.00000000000E+00 -0.00000000000E+00 -0.15691985181E+03  0.15691985181E+03  0.00000000000E+00 0.  1.
         25    2    1    2    0    0  0.27708322494E+02  0.42007051625E+02 -0.43296159437E+02  0.14161316178E+03  0.12508951453E+03 0.  0.
          5    1    3    3  502    0  0.46003997911E+01 -0.30083163585E+02  0.24972312756E+02  0.39588498505E+02  0.41800000000E+01 0. -1.
         -5    1    3    3    0  502  0.23107922703E+02  0.72090215209E+02 -0.68268472193E+02  0.10202466327E+03  0.41800000000E+01 0. -1.
        -11    1    1    2    0    0  0.19397323203E+02 -0.10722531195E+02  0.22170157728E+02  0.31348759407E+02  0.00000000000E+00 0. -1.
         11    1    1    2    0    0 -0.47105645697E+02 -0.31284520429E+02 -0.46524677310E+02  0.73227103410E+02  0.00000000000E+00 0.  1.
</event>
<event>
 7    1  0.2841804E-009  0.1773766E+03  0.7561462E-02  0.1170366E+00
          1   -1    0    0  501    0  0.00000000000E+00  0.00000000000E+00  0.41064274796E+02  0.41064274796E+02  0.00000000000E+00 0. -1.
         -1   -1    0    0    0  501 -0.00000000000E+00 -0.00000000000E+00 -0.99162641972E+03  0.99162641972E+03  0.00000000000E+00 0.  1.
         25    2    1    2    0    0  0.16235508534E+03  0.37005773973E+02 -0.58823051039E+03  0.62401245473E+03  0.12509120374E+03 0.  0.
          5    1    3    3  502    0  0.12372660218E+03  0.54381637520E+02 -0.55136944648E+03  0.56770711947E+03  0.41800000000E+01 0.  1.
         -5    1    3    3    0  502  0.38628483165E+02 -0.17375863547E+02 -0.36861063915E+02  0.56305335259E+02  0.41800000000E+01 0.  1.
        -11    1    1    2    0    0 -0.86015067481E+02  0.11122034578E+02 -0.10621438904E+03  0.13712690446E+03  0.00000000000E+00 0. -1.
         11    1    1    2    0    0 -0.76340017860E+02 -0.48127808551E+02 -0.25611724548E+03  0.27155133532E+03  0.00000000000E+00 0.  1.
</event>
<event>
 7    1  0.2841804E-009  0.1097526E+03  0.7561462E-02  0.1261029E+00
          2   -1    0    0  501    0  0.00000000000E+00  0.00000000000E+00  0.69064809096E+03  0.69064809096E+03  0.00000000000E+00 0. -1.
         -2   -1    0    0    0  501 -0.00000000000E+00 -0.00000000000E+00 -0.23228057299E+02  0.23228057299E+02  0.00000000000E+00 0.  1.
         25    2    1    2    0    0 -0.81509507511E+01  0.47711162646E+02  0.49504873023E+03  0.51289731338E+03  0.12509043022E+03 0.  0.
          5    1    3    3  502    0 -0.34161508396E+02 -0.33888271853E+02  0.18705029687E+03  0.19318568680E+03  0.41800000000E+01 0. -1.
         -5    1    3    3    0  502  0.26010557645E+02  0.81599434499E+02  0.30799843337E+03  0.31971162659E+03  0.41800000000E+01 0. -1.
        -11    1    1    2    0    0 -0.45243791894E+01 -0.64368294089E+02  0.16748408080E+03  0.17948444114E+03  0.00000000000E+00 0. -1.
         11    1    1    2    0    0  0.12675329940E+02  0.16657131443E+02  0.48872226314E+01  0.21494393736E+02  0.00000000000E+00 0.  1.
</event>
<event>
 7    1  0.2841804E-009  0.1123040E+03  0.7561462E-02  0.1256362E+00
         -1   -1    0    0    0  501 -0.00000000000E+00  0.00000000000E+00  0.25101501298E+02  0.25101501298E+02  0.00000000000E+00 0. -1.
          1   -1    0    0  501    0  0.00000000000E+00 -0.00000000000E+00 -0.52394996765E+03  0.52394996765E+03  0.00000000000E+00 0.  1.
         25    2    1    2    0    0  0.23302330295E+02  0.36394638701E+02 -0.30627679173E+03  0.33365107010E+03  0.12509994044E+03 0.  0.
          5    1    3    3  502    0 -0.44118626559E+01 -0.43553100369E+02 -0.70229421132E+02  0.82861215755E+02  0.41800000000E+01 0. -1.
         -5    1    3    3    0  502  0.27714192951E+02  0.79947739070E+02 -0.23604737060E+03  0.25078985434E+03  0.41800000000E+01 0. -1.
        -11    1    1    2    0    0 -0.55123530195E+02 -0.32143516526E+02 -0.13897360169E+03  0.15292308917E+03  0.00000000000E+00 0.  1.
         11    1    1    2    0    0  0.31821199900E+02 -0.42511221754E+01 -0.53598072926E+02  0.62477309675E+02  0.00000000000E+00 0. -1.
</event>
<event>
 7    1  0.2841804E-009  0.1141421E+03  0.7561462E-02  0.1253086E+00
          1   -1    0    0  501    0  0.00000000000E+00  0.00000000000E+00  0.17087580160E+03  0.17087580160E+03  0.00000000000E+00 0. -1.
         -1   -1    0    0    0  501 -0.00000000000E+00 -0.00000000000E+00 -0.12082488521E+03  0.12082488521E+03  0.00000000000E+00 0.  1.
         25    2    1    2    0    0  0.62461536928E+01 -0.87636062587E+02 -0.12621425052E+02  0.15337997727E+03  0.12508806161E+03 0.  0.
          5    1    3    3  502    0  0.64822917259E+01 -0.11062988879E+03 -0.39534930295E+02  0.11773476765E+03  0.41800000000E+01 0. -1.
         -5    1    3    3    0  502 -0.23613803312E+00  0.22993826204E+02  0.26913505243E+02  0.35645209624E+02  0.41800000000E+01 0. -1.
        -11    1    1    2    0    0 -0.18609654865E+02  0.31974034640E+02 -0.16700858715E+02  0.40590353869E+02  0.00000000000E+00 0.  1.
         11    1    1    2    0    0  0.12363501172E+02  0.55662027946E+02  0.79373200158E+02  0.97730355671E+02  0.00000000000E+00 0. -1.
</event>
<event>
 7    1  0.2841804E-009  0.1511742E+03  0.7561462E-02  0.1199038E+00
         -2   -1    0    0    0  501 -0.00000000000E+00  0.00000000000E+00  0.45659188674E+02  0.45659188674E+02  0.00000000000E+00 0.  1.
          2   -1    0    0  501    0  0.00000000000E+00 -0.00000000000E+00 -0.69244127913E+03  0.69244127913E+03  0.00000000000E+00 0. -1.
         25    2    1    2    0    0 -0.43955499090E+02 -0.12331086916E+03 -0.44872455445E+03  0.48388030118E+03  0.12509501891E+03 0.  0.
          5    1    3    3  502    0 -0.60636893715E+02 -0.29291326246E+02 -0.29694311968E+03  0.30451191011E+03  0.41800000000E+01 0. -1.
         -5    1    3    3    0  502  0.16681394625E+02 -0.94019542915E+02 -0.15178143477E+03  0.17936839107E+03  0.41800000000E+01 0. -1.
        -11    1    1    2    0    0 -0.10160034006E+02  0.13695274340E+02  0.44968260989E+01  0.17635426709E+02  0.00000000000E+00 0.  1.
         11    1    1    2    0    0  0.54115533096E+02  0.10961559482E+03 -0.20255436211E+03  0.23658473991E+03  0.00000000000E+00 0. -1.
</event>
<event>
 7    1  0.2841804E-009  0.1160855E+03  0.7561462E-02  0.1249698E+00
          2   -1    0    0  501    0  0.00000000000E+00  0.00000000000E+00  0.35758231414E+03  0.35758231414E+03  0.00000000000E+00 0. -1.
         -2   -1    0    0    0  501 -0.00000000000E+00 -0.00000000000E+00 -0.50913032230E+02  0.50913032230E+02  0.00000000000E+00 0.  1.
         25    2    1    2    0    0 -0.23553869381E+02  0.35680306539E+02  0.27097164922E+03  0.30149686673E+03  0.12508739715E+03 0.  0.
          5    1    3    3  502    0  0.32413692704E+02  0.62022342463E+02  0.13830789195E+03  0.15506116153E+03  0.41800000000E+01 0. -1.
         -5    1    3    3    0  502 -0.55967562085E+02 -0.26342035924E+02  0.13266375727E+03  0.14643570519E+03  0.41800000000E+01 0. -1.
        -11    1    1    2    0    0  0.42983305323E+02  0.15208915883E+02  0.95870616748E+01  0.46591709674E+02  0.00000000000E+00 0. -1.
         11    1    1    2    0    0 -0.19429435942E+02 -0.50889222422E+02  0.26110571015E+02  0.60406769973E+02  0.00000000000E+00 0.  1.
</event>
<event>
 7    1  0.2841804E-009  0.1346724E+03  0.7561462E-02  0.1220683E+00
         -2   -1    0    0    0  501 -0.00000000000E+00  0.00000000000E+00  0.43735147133E+02  0.43735147133E+02  0.00000000000E+00 0.  1.
          2   -1    0    0  501    0  0.00000000000E+00 -0.00000000000E+00 -0.79704809193E+03  0.79704809193E+03  0.00000000000E+00 0. -1.
         25    2    1    2    0    0 -0.96254540668E+02 -0.29325470360E+02 -0.64978229311E+03  0.66931980214E+03  0.12508816604E+03 0.  0.
          5    1    3    3  502    0 -0.91190479915E+02  0.14589338353E+02 -0.24082022385E+03  0.25795426927E+03  0.41800000000E+01 0.  1.
         -5    1    3    3    0  502 -0.50640607528E+01 -0.43914808713E+02 -0.40896206927E+03  0.41136553287E+03  0.41800000000E+01 0.  1.
        -11    1    1    2    0    0  0.85312119577E+01 -0.26954371209E+02 -0.63832339116E+01  0.28983881381E+02  0.00000000000E+00 0.  1.
         11    1    1    2    0    0  0.87723328710E+02  0.56279841569E+02 -0.97147417767E+02  0.14247955554E+03  0.00000000000E+00 0. -1.
</event>
<event>
 7    1  0.2841804E-009  0.1237653E+03  0.7561462E-02  0.1237012E+00
          1   -1    0    0  501    0  0.00000000000E+00  0.00000000000E+00  0.47969252996E+03  0.47969252996E+03  0.00000000000E+00 0. -1.
         -1   -1    0    0    0  501 -0.00000000000E+00 -0.00000000000E+00 -0.53028447475E+02  0.53028447475E+02  0.00000000000E+00 0.  1.
         25    2    1    2    0    0  0.24184140197E+02  0.67006552974E+02  0.74099481975E+02  0.16190234258E+03  0.12508750748E+03 0.  0.
          5    1    3    3  502    0 -0.45038346684E+02 -0.26630830029E+01  0.18281458831E+02  0.48859275681E+02  0.41800000000E+01 0.  1.
         -5    1    3    3    0  502  0.69222486881E+02  0.69669635977E+02  0.55818023144E+02  0.11304306690E+03  0.41800000000E+01 0.  1.
        -11    1    1    2    0    0 -0.24602128881E+02  0.10256973592E+02  0.35023884349E+02  0.44012983626E+02  0.00000000000E+00 0.  1.
         11    1    1    2    0    0  0.41798868475E+00 -0.77263526566E+02  0.31754071617E+03  0.32680565123E+03  0.00000000000E+00 0. -1.
</event>
<event>
 7    1  0.2841804E-009  0.9683246E+02  0.7561462E-02  0.1287101E+00
         -1   -1    0    0    0  501 -0.00000000000E+00  0.00000000000E+00  0.37884928711E+03  0.37884928711E+03  0.00000000000E+00 0.  1.
          1   -1    0    0  501    0  0.00000000000E+00 -0.00000000000E+00 -0.54026986612E+02  0.54026986612E+02  0.00000000000E+00 0. -1.
         25    2    1    2    0    0 -0.25514683850E+02 -0.76248716114E+02  0.24592317616E+03  0.28738458171E+03  0.12508726326E+03 0.  0.
          5    1    3    3  502    0 -0.30492851493E+02 -0.74356396219E+02  0.25978166647E+03  0.27196079549E+03  0.41800000000E+01 0.  1.
         -5    1    3    3    0  502  0.49781676433E+01 -0.18923198948E+01 -0.13858490309E+02  0.15423786219E+02  0.41800000000E+01 0.  1.
        -11    1    1    2    0    0 -0.18791642791E+02  0.53315881087E+02  0.77055525596E+02  0.95568106812E+02  0.00000000000E+00 0.  1.
         11    1    1    2    0    0  0.44306326641E+02  0.22932835027E+02  0.18435987419E+01  0.49923585199E+02  0.00000000000E+00 0. -1.
</event>
<event>
 7    1  0.2841804E-009  0.1170786E+03  0.7561462E-02  0.1247996E+00
          2   -1    0    0  501    0  0.00000000000E+00  0.00000000000E+00  0.85399352584E+03  0.85399352584E+03  0.00000000000E+00 0. -1.
         -2   -1    0    0    0  501 -0.00000000000E+00 -0.00000000000E+00 -0.26363096569E+02  0.26363096569E+02  0.00000000000E+00 0.  1.
         25    2    1    2    0    0  0.24621617926E+02  0.95957118812E+02  0.53537448529E+03  0.55864812754E+03  0.12509155922E+03 0.  0.
          5    1    3    3  502    0  0.31892606444E+01  0.30899424089E+02  0.44019275991E+03  0.44130724452E+03  0.41800000000E+01 0.  1.
         -5    1    3    3    0  502  0.21432357282E+02  0.65057694723E+02  0.95181725386E+02  0.11734088302E+03  0.41800000000E+01 0.  1.
        -11    1    1    2    0    0 -0.56375420553E+02 -0.81984796888E+02  0.22554496058E+03  0.24651617433E+03  0.00000000000E+00 0.  1.
         11    1    1    2    0    0  0.31753802627E+02 -0.13972321924E+02  0.66710983393E+02  0.75192320529E+02  0.00000000000E+00 0. -1.
</event>
<event>
 7    1  0.2841804E-009  0.1616085E+03  0.7561462E-02  0.1186893E+00
          1   -1    0    0  501    0  0.00000000000E+00  0.00000000000E+00  0.23128937214E+03  0.23128937214E+03  0.00000000000E+00 0. -1.
         -1   -1    0    0    0  501 -0.00000000000E+00 -0.00000000000E+00 -0.14556450006E+03  0.14556450006E+03  0.00000000000E+00 0.  1.
         25    2    1    2    0    0  0.94255238386E+00 -0.13806348989E+03 -0.81721266855E+01  0.18648480499E+03  0.12508950072E+03 0.  0.
          5    1    3    3  502    0  0.29646109980E+02 -0.16600363368E+02 -0.44765617310E+02  0.56355095546E+02  0.41800000000E+01 0. -1.
         -5    1    3    3    0  502 -0.28703557596E+02 -0.12146312652E+03  0.36593490624E+02  0.13012970944E+03  0.41800000000E+01 0. -1.
        -11    1    1    2    0    0 -0.29520637779E+02  0.13151324430E+03  0.86420918653E+02  0.16011176304E+03  0.00000000000E+00 0.  1.
         11    1    1    2    0    0  0.28578085395E+02  0.65502455858E+01  0.74760801133E+01  0.30257304175E+02  0.00000000000E+00 0. -1.
</event>
<event>
 7    1  0.2841804E-009  0.1297859E+03  0.7561462E-02  0.1227774E+00
          2   -1    0    0  501    0  0.00000000000E+00  0.00000000000E+00  0.86147057486E+03  0.86147057486E+03  0.00000000000E+00 0.  1.
         -2   -1    0    0    0  501 -0.00000000000E+00 -0.00000000000E+00 -0.32369697887E+02  0.32369697887E+02  0.00000000000E+00 0. -1.
         25    2    1    2    0    0 -0.50817316907E+02  0.11471073739E+03  0.47560969534E+03  0.50753442217E+03  0.12508259037E+03 0.  0.
          5    1    3    3  502    0 -0.14999538387E+02  0.59388355224E+02  0.40955440913E+03  0.41413071527E+03  0.41800000000E+01 0.  1.
         -5    1    3    3    0  502 -0.35817778520E+02  0.55322382167E+02  0.66055286208E+02  0.93403706900E+02  0.41800000000E+01 0.  1.
        -11    1    1    2    0    0  0.30105822308E+02 -0.22378963695E+02  0.21701932045E+03  0.22023751725E+03  0.00000000000E+00 0.  1.
         11    1    1    2    0    0  0.20711494599E+02 -0.92331773695E+02  0.13647186118E+03  0.16606833333E+03  0.00000000000E+00 0. -1.
</event>
<event>
 7    1  0.2841804E-009  0.1167588E+03  0.7561462E-02  0.1248542E+00
          1   -1    0    0  501    0  0.00000000000E+00  0.00000000000E+00  0.21306739113E+03  0.21306739113E+03  0.00000000000E+00 0. -1.
         -1   -1    0    0    0  501 -0.00000000000E+00 -0.00000000000E+00 -0.10077305651E+03  0.10077305651E+03  0.00000000000E+00 0.  1.
         25    2    1    2    0    0 -0.49268673957E+02  0.78858241507E+02  0.91229997151E+02  0.18060257540E+03  0.12509337862E+03 0.  0.
          5    1    3    3  502    0 -0.62575987799E+02  0.57071216922E+02 -0.10116679048E+01  0.84801968857E+02  0.41800000000E+01 0.  1.
         -5    1    3    3    0  502  0.13307313842E+02  0.21787024585E+02  0.92241665056E+02  0.95800606545E+02  0.41800000000E+01 0.  1.
        -11    1    1    2    0    0  0.45188689364E+02 -0.95535206660E+02 -0.48599217969E+00  0.10568457573E+03  0.00000000000E+00 0.  1.
         11    1    1    2    0    0  0.40799845925E+01  0.16676965153E+02  0.21550329647E+02  0.27553296516E+02  0.00000000000E+00 0. -1.
</event>
<event>
 7    1  0.3333265E-009  0.6641771E+02  0.7561462E-02  0.1372717E+00
         -2   -1    0    0    0  501 -0.00000000000E+00  0.00000000000E+00  0.10948995800E+03  0.10948995800E+03  0.00000000000E+00 0.  1.
          2   -1    0    0  501    0  0.00000000000E+00 -0.00000000000E+00 -0.14549595812E+03  0.14549595812E+03  0.00000000000E+00 0. -1.
         25    2    1    2    0    0 -0.36710001404E+02 -0.16499496607E+02  0.30972676898E+02  0.13499632660E+03  0.12507935037E+03 0.  0.
          5    1    3    3  502    0 -0.13026902211E+02 -0.59115493506E+01 -0.48790703832E+02  0.51016191326E+02  0.41800000000E+01 0.  1.
         -5    1    3    3    0  502 -0.23683099193E+02 -0.10587947257E+02  0.79763380731E+02  0.83980135271E+02  0.41800000000E+01 0.  1.
        -11    1    1    2    0    0  0.55530338042E+02  0.34694362601E+02 -0.24139788701E+02  0.69785719441E+02  0.00000000000E+00 0.  1.
         11    1    1    2    0    0 -0.18820336638E+02 -0.18194865994E+02 -0.42838888308E+02  0.50203870081E+02  0.00000000000E+00 0. -1.
</event>
<event>
 7    1  0.2841804E-009  0.8242500E+02  0.7561462E-02  0.1322307E+00
          3   -1    0    0  501    0  0.00000000000E+00  0.00000000000E+00  0.15520323058E+03  0.15520323058E+03  0.00000000000E+00 0. -1.
         -3   -1    0    0    0  501 -0.00000000000E+00 -0.00000000000E+00 -0.93917522000E+02  0.93917522000E+02  0.00000000000E+00 0.  1.
         25    2    1    2    0    0 -0.31706790994E+01  0.23252057195E+02  0.87000492738E+02  0.15416642177E+03  0.12508992164E+03 0.  0.
          5    1    3    3  502    0  0.44922227678E+02  0.40653056039E+02  0.98719100965E+01  0.61527266426E+02  0.41800000000E+01 0.  1.
         -5    1    3    3    0  502 -0.48092906778E+02 -0.17400998844E+02  0.77128582642E+02  0.92639155347E+02  0.41800000000E+01 0.  1.
        -11    1    1    2    0    0 -0.13356286257E+02  0.93155935919E+01  0.26578608335E+02  0.31170387992E+02  0.00000000000E+00 0. -1.
         11    1    1    2    0    0  0.16526965357E+02 -0.32567650787E+02 -0.52293392497E+02  0.63783942811E+02  0.00000000000E+00 0.  1.
</event>
<event>
 7    1  0.2841804E-009  0.1362540E+03  0.7561462E-02  0.1218460E+00
         -1   -1    0    0    0  501 -0.00000000000E+00  0.00000000000E+00  0.31170590313E+02  0.31170590313E+02  0.00000000000E+00 0.  1.
          1   -1    0    0  501    0  0.00000000000E+00 -0.00000000000E+00 -0.64110989265E+03  0.64110989265E+03  0.00000000000E+00 0. -1.
         25    2    1    2    0    0 -0.76628489787E+02  0.46088823552E+02 -0.34150616927E+03  0.37454551813E+03  0.12514701913E+03 0.  0.
          5    1    3    3  502    0 -0.10626727620E+03  0.36613529288E+02 -0.31122668264E+03  0.33092718973E+03  0.41800000000E+01 0.  1.
         -5    1    3    3    0  502  0.29638786412E+02  0.94752942635E+01 -0.30279486628E+02  0.43618328393E+02  0.41800000000E+01 0.  1.
        -11    1    1    2    0    0  0.93005291180E+02 -0.56883804942E+02 -0.23268412325E+03  0.25695846486E+03  0.00000000000E+00 0. -1.
         11    1    1    2    0    0 -0.16376801393E+02  0.10794981390E+02 -0.35749009819E+02  0.40776499974E+02  0.00000000000E+00 0.  1.
</event>
<event>
 7    1  0.2841804E-009  0.9250741E+02  0.7561462E-02  0.1296891E+00
          1   -1    0    0  501    0  0.00000000000E+00  0.00000000000E+00  0.36803557662E+03  0.36803557662E+03  0.00000000000E+00 0. -1.
         -1   -1    0    0    0  501 -0.00000000000E+00 -0.00000000000E+00 -0.42924534138E+02  0.42924534138E+02  0.00000000000E+00 0.  1.
         25    2    1    2    0    0  0.78311653527E+01 -0.31310344270E+02  0.90145382393E+02  0.15753021926E+03  0.12509162723E+03 0.  0.
          5    1    3    3  502    0 -0.30157044705E+02 -0.45747798080E+02  0.10124386125E+03  0.11519592100E+03  0.41800000000E+01 0.  1.
         -5    1    3    3    0  502  0.37988210058E+02  0.14437453810E+02 -0.11098478860E+02  0.42334298257E+02  0.41800000000E+01 0.  1.
        -11    1    1    2    0    0 -0.25799641965E+02 -0.21399992633E+02  0.13395490760E+03  0.13808511317E+03  0.00000000000E+00 0.  1.
         11    1    1    2    0    0  0.17968476612E+02  0.52710336903E+02  0.10101075249E+03  0.11534477833E+03  0.00000000000E+00 0. -1.
</event>
<event>
 7    1  0.2841804E-009  0.8594312E+02  0.7561462E-02  0.1312984E+00
         -3   -1    0    0    0  501 -0.00000000000E+00  0.00000000000E+00  0.78726209530E+03  0.78726209530E+03  0.00000000000E+00 0.  1.
          3   -1    0    0  501    0  0.00000000000E+00 -0.00000000000E+00 -0.18243691252E+02  0.18243691252E+02  0.00000000000E+00 0. -1.
         25    2    1    2    0    0  0.35465016005E+02 -0.11899864694E+02  0.55199619346E+03  0.56722615797E+03  0.12508534108E+03 0.  0.
          5    1    3    3  502    0  0.12345239176E+02 -0.43892189735E+02  0.70289666562E+02  0.83887060239E+02  0.41800000000E+01 0.  1.
         -5    1    3    3    0  502  0.23119776829E+02  0.31992325041E+02  0.48170652690E+03  0.48333909773E+03  0.41800000000E+01 0.  1.
        -11    1    1    2    0    0 -0.60307350113E+02  0.12358240064E+02  0.19692403844E+03  0.20632202862E+03  0.00000000000E+00 0.  1.
         11    1    1    2    0    0  0.24842334109E+02 -0.45837536991E+00  0.20098172148E+02  0.31957599966E+02  0.00000000000E+00 0. -1.
</event>
<event>
 7    1  0.2841804E-009  0.1954469E+03  0.7561462E-02  0.1153638E+00
         -2   -1    0    0    0  501 -0.00000000000E+00  0.00000000000E+00  0.39256046167E+02  0.39256046167E+02  0.00000000000E+00 0.  1.
          2   -1    0    0  501    0  0.00000000000E+00 -0.00000000000E+00 -0.11590337111E+04  0.11590337111E+04  0.00000000000E+00 0. -1.
         25    2    1    2    0    0 -0.14355660181E+03  0.10521242492E+03 -0.70505292553E+03  0.73785349776E+03  0.12509997634E+03 0.  0.
          5    1    3    3  502    0 -0.67898194198E+02  0.10429731484E+03 -0.28493409421E+03  0.31095498887E+03  0.41800000000E+01 0.  1.
         -5    1    3    3    0  502 -0.75658407613E+02  0.91511008872E+00 -0.42011883132E+03  0.42689850889E+03  0.41800000000E+01 0.  1.
        -11    1    1    2    0    0  0.95542560966E+02 -0.10582673582E+03 -0.36229965922E+03  0.38934396366E+03  0.00000000000E+00 0. -1.
         11    1    1    2    0    0  0.48014040845E+02  0.61431089452E+00 -0.52425080195E+02  0.71092295852E+02  0.00000000000E+00 0.  1.
</event>
<event>
 7    1  0.2841804E-009  0.2993536E+03  0.7561462E-02  0.1085564E+00
          3   -1    0    0  501    0  0.00000000000E+00  0.00000000000E+00  0.49530506202E+03  0.49530506202E+03  0.00000000000E+00 0. -1.
         -3   -1    0    0    0  501 -0.00000000000E+00 -0.00000000000E+00 -0.19417373146E+03  0.19417373146E+03  0.00000000000E+00 0.  1.
         25    2    1    2    0    0  0.28950136880E+03  0.18126149192E+01  0.13465297264E+03  0.34291848762E+03  0.12508932010E+03 0.  0.
          5    1    3    3  502    0  0.17091650385E+03  0.44626040000E+02  0.30451250723E+02  0.17930054602E+03  0.41800000000E+01 0. -1.
         -5    1    3    3    0  502  0.11858486495E+03 -0.42813425081E+02  0.10420172192E+03  0.16361794160E+03  0.41800000000E+01 0. -1.
        -11    1    1    2    0    0 -0.17396571105E+03  0.28822370321E+02  0.59369454569E+02  0.18606324137E+03  0.00000000000E+00 0.  1.
         11    1    1    2    0    0 -0.11553565774E+03 -0.30634985240E+02  0.10710890335E+03  0.16049706449E+03  0.00000000000E+00 0. -1.
</event>
<event>
 7    1  0.2841804E-009  0.1010763E+03  0.7561462E-02  0.1278049E+00
          1   -1    0    0  501    0  0.00000000000E+00  0.00000000000E+00  0.40096204475E+03  0.40096204475E+03  0.00000000000E+00 0. -1.
         -1   -1    0    0    0  501 -0.00000000000E+00 -0.00000000000E+00 -0.39680115491E+02  0.39680115491E+02  0.00000000000E+00 0.  1.
         25    2    1    2    0    0 -0.37928231063E+02  0.45351733875E+01  0.11232213441E+03  0.17240010527E+03  0.12508563431E+03 0.  0.
          5    1    3    3  502    0 -0.62172696185E+02 -0.26944799771E+02  0.11369692452E+03  0.13242329641E+03  0.41800000000E+01 0.  1.
         -5    1    3    3    0  502  0.24244465122E+02  0.31479973159E+02 -0.13747901103E+01  0.39976808864E+02  0.41800000000E+01 0.  1.
        -11    1    1    2    0    0  0.55181499046E+02  0.24626217908E+02  0.19824423754E+03  0.20724918857E+03  0.00000000000E+00 0. -1.
         11    1    1    2    0    0 -0.17253267982E+02 -0.29161391295E+02  0.50715557301E+02  0.60992866392E+02  0.00000000000E+00 0.  1.
</event>
<event>
 7    1  0.2841804E-009  0.1512294E+03  0.7561462E-02  0.1198970E+00
         -1   -1    0    0    0  501 -0.00000000000E+00  0.00000000000E+00  0.61006875837E+02  0.61006875837E+02  0.00000000000E+00 0. -1.
          1   -1    0    0  501    0  0.00000000000E+00 -0.00000000000E+00 -0.41822582419E+03  0.41822582419E+03  0.00000000000E+00 0.  1.
         25    2    1    2    0    0  0.98366806954E+02 -0.62451089857E+02 -0.20884439727E+03  0.26988506859E+03  0.12508317491E+03 0.  0.
          5    1    3    3  502    0  0.30754104389E+02  0.31203609260E+02 -0.10750588765E+03  0.11616569393E+03  0.41800000000E+01 0.  1.
         -5    1    3    3    0  502  0.67612702565E+02 -0.93654699118E+02 -0.10133850962E+03  0.15371937466E+03  0.41800000000E+01 0.  1.
        -11    1    1    2    0    0 -0.11330291197E+03  0.52219683430E+02 -0.14436830953E+03  0.19080527769E+03  0.00000000000E+00 0.  1.
         11    1    1    2    0    0  0.14936105020E+02  0.10231406428E+02 -0.40062415537E+01  0.18542353736E+02  0.00000000000E+00 0. -1.
</event>
<event>
 7    1  0.2841804E-009  0.1273530E+03  0.7561462E-02  0.1231437E+00
         -2   -1    0    0    0  501 -0.00000000000E+00  0.00000000000E+00  0.20487376119E+02  0.20487376119E+02  0.00000000000E+00 0.  1.
          2   -1    0    0  501    0  0.00000000000E+00 -0.00000000000E+00 -0.12785218863E+04  0.12785218863E+04  0.00000000000E+00 0. -1.
         25    2    1    2    0    0  0.56389940992E+02  0.10211785346E+03 -0.74312430055E+03  0.76255174648E+03  0.12507421219E+03 0.  0.
          5    1    3    3  502    0  0.48379345113E+02  0.10180232892E+03 -0.74485511335E+03  0.75334645914E+03  0.41800000000E+01 0.  1.
         -5    1    3    3    0  502  0.80105958793E+01  0.31552454067E+00  0.17308128060E+01  0.92052873419E+01  0.41800000000E+01 0.  1.
        -11    1    1    2    0    0 -0.89430817878E+00 -0.67416222284E+02 -0.13444529007E+03  0.15040373279E+03  0.00000000000E+00 0.  1.
         11    1    1    2    0    0 -0.55495632813E+02 -0.34701631178E+02 -0.38046491960E+03  0.38605378319E+03  0.00000000000E+00 0. -1.
</event>
<event>
 7    1  0.2841804E-009  0.1344520E+03  0.7561462E-02  0.1220995E+00
         -2   -1    0    0    0  501 -0.00000000000E+00  0.00000000000E+00  0.41479720759E+02  0.41479720759E+02  0.00000000000E+00 0.  1.
          2   -1    0    0  501    0  0.00000000000E+00 -0.00000000000E+00 -0.12221928429E+04  0.12221928429E+04  0.00000000000E+00 0. -1.
         25    2    1    2    0    0  0.42708649908E+02  0.11105472659E+03 -0.10509581963E+04  0.10650431291E+04  0.12508619131E+03 0.  0.
          5    1    3    3  502    0  0.33225461039E+02  0.11616760667E+03 -0.51652679825E+03  0.53048680456E+03  0.41800000000E+01 0. -1.
         -5    1    3    3    0  502  0.94831888688E+01 -0.51128800796E+01 -0.53443139808E+03  0.53455632450E+03  0.41800000000E+01 0. -1.
        -11    1    1    2    0    0  0.12822280005E+02 -0.58858217450E+02 -0.10014883161E+03  0.11686953880E+03  0.00000000000E+00 0. -1.
         11    1    1    2    0    0 -0.55530929913E+02 -0.52196509141E+02 -0.29606094168E+02  0.81759895764E+02  0.00000000000E+00 0.  1.
</event>
<event>
 7    1  0.2841804E-009  0.1155838E+03  0.7561462E-02  0.1250565E+00
         -1   -1    0    0    0  501 -0.00000000000E+00  0.00000000000E+00  0.83652834753E+02  0.83652834753E+02  0.00000000000E+00 0.  1.
          1   -1    0    0  501    0  0.00000000000E+00 -0.00000000000E+00 -0.19298569607E+03  0.19298569607E+03  0.00000000000E+00 0. -1.
         25    2    1    2    0    0  0.19442000344E+01  0.68324182834E+02 -0.58260380435E+02  0.15399212992E+03  0.12508928921E+03 0.  0.
          5    1    3    3  502    0  0.28682052188E+02 -0.14708909004E+02 -0.58198664368E+02  0.66660100930E+02  0.41800000000E+01 0. -1.
         -5    1    3    3    0  502 -0.26737852154E+02  0.83033091838E+02 -0.61716067430E-01  0.87332028987E+02  0.41800000000E+01 0. -1.
        -11    1    1    2    0    0 -0.43308995412E+02 -0.49831905815E+02 -0.33643206502E+02  0.74099617168E+02  0.00000000000E+00 0. -1.
         11    1    1    2    0    0  0.41364795377E+02 -0.18492277019E+02 -0.17429274381E+02  0.48546783739E+02  0.00000000000E+00 0.  1.
</event>
<event>
 7    1  0.3626617E-009  0.1238053E+03  0.7561462E-02  0.1236948E+00
          1   -1    0    0  501    0  0.00000000000E+00  0.00000000000E+00  0.83947072225E+03  0.83947072225E+03  0.00000000000E+00 0. -1.
         -1   -1    0    0    0  501 -0.00000000000E+00 -0.00000000000E+00 -0.29965059617E+02  0.29965059617E+02  0.00000000000E+00 0.  1.
         25    2    1    2    0    0  0.69469238563E+02 -0.91635450329E+02  0.44226799215E+03  0.47378142354E+03  0.12507929307E+03 0.  0.
          5    1    3    3  502    0  0.42588163594E+02 -0.47190962639E+02  0.58493176995E+02  0.86485043725E+02  0.41800000000E+01 0. -1.
         -5    1    3    3    0  502  0.26881074969E+02 -0.44444487691E+02  0.38377481515E+03  0.38729637982E+03  0.41800000000E+01 0. -1.
        -11    1    1    2    0    0  0.12548031602E+02  0.96481448751E+01  0.71785077787E+01  0.17380183271E+02  0.00000000000E+00 0.  1.
         11    1    1    2    0    0 -0.82017270164E+02  0.81987305454E+02  0.36005916271E+03  0.37827417506E+03  0.00000000000E+00 0. -1.
</event>
<event>
 7    1  0.2841804E-009  0.1235762E+03  0.7561462E-02  0.1237311E+00
         -1   -1    0    0    0  501 -0.00000000000E+00  0.00000000000E+00  0.37885946647E+03  0.37885946647E+03  0.00000000000E+00 0.  1.
          1   -1    0    0  501    0  0.00000000000E+00 -0.00000000000E+00 -0.59239635357E+02  0.59239635357E+02  0.00000000000E+00 0. -1.
         25    2    1    2    0    0  0.21333028508E+02  0.63155725667E+02  0.28976609181E+03  0.32257330195E+03  0.12508158688E+03 0.  0.
          5    1    3    3  502    0 -0.27361844893E+02  0.79512278864E+02  0.22204958773E+03  0.23747497733E+03  0.41800000000E+01 0. -1.
         -5    1    3    3    0  502  0.48694873400E+02 -0.16356553196E+02  0.67716504083E+02  0.85098324620E+02  0.41800000000E+01 0. -1.
        -11    1    1    2    0    0 -0.20736054335E+02  0.19677426066E+02  0.10549078369E+02  0.30470774529E+02  0.00000000000E+00 0. -1.
         11    1    1    2    0    0 -0.59697417230E+00 -0.82833151734E+02  0.19304660937E+02  0.85055025355E+02  0.00000000000E+00 0.  1.
</event>
<event>
 7    1  0.2841804E-009  0.9699776E+02  0.7561462E-02  0.1286739E+00
         -1   -1    0    0    0  501 -0.00000000000E+00  0.00000000000E+00  0.82755874396E+02  0.82755874396E+02  0.00000000000E+00 0. -1.
          1   -1    0    0  501    0  0.00000000000E+00 -0.00000000000E+00 -0.15251622416E+03  0.15251622416E+03  0.00000000000E+00 0.  1.
         25    2    1    2    0    0 -0.20086721664E+02  0.94010354282E+01 -0.61417948337E+02  0.14110973040E+03  0.12509170948E+03 0.  0.
          5    1    3    3  502    0  0.30118116447E+02  0.33929120690E+02 -0.70903967032E+02  0.84280075403E+02  0.41800000000E+01 0. -1.
         -5    1    3    3    0  502 -0.50204838111E+02 -0.24528085261E+02  0.94860186947E+01  0.56829654997E+02  0.41800000000E+01 0. -1.
        -11    1    1    2    0    0 -0.29804157423E+02 -0.26278153079E+02 -0.11601282359E+02  0.41393464234E+02  0.00000000000E+00 0.  1.
         11    1    1    2    0    0  0.49890879087E+02  0.16877117651E+02  0.32588809306E+01  0.52768903923E+02  0.00000000000E+00 0. -1.
</event>
<event>
 7    1  0.2841804E-009  0.1732824E+03  0.7561462E-02  0.1174467E+00
         -1   -1    0    0    0  501 -0.00000000000E+00  0.00000000000E+00  0.77096956158E+02  0.77096956158E+02  0.00000000000E+00 0.  1.
          1   -1    0    0  501    0  0.00000000000E+00 -0.00000000000E+00 -0.44375258092E+03  0.44375258092E+03  0.00000000000E+00 0. -1.
         25    2    1    2    0    0  0.14416400411E+03 -0.14967519360E+01 -0.13618982253E+03  0.23448038901E+03  0.12509150540E+03 0.  0.
          5    1    3    3  502    0  0.21968593891E+01  0.37164376437E+02 -0.54503233169E+02  0.66136917776E+02  0.41800000000E+01 0.  1.
         -5    1    3    3    0  502  0.14196714472E+03 -0.38661128373E+02 -0.81686589359E+02  0.16834347124E+03  0.41800000000E+01 0.  1.
        -11    1    1    2    0    0 -0.78894971586E+02  0.37511953989E+02 -0.16698689723E+03  0.18845738796E+03  0.00000000000E+00 0. -1.
         11    1    1    2    0    0 -0.65269032522E+02 -0.36015202053E+02 -0.63478905013E+02  0.97911760105E+02  0.00000000000E+00 0.  1.
</event>
<event>
 7    1  0.2841804E-009  0.1144595E+03  0.7561462E-02  0.1252528E+00
          1   -1    0    0  501    0  0.00000000000E+00  0.00000000000E+00  0.77432028554E+03  0.77432028554E+03  0.00000000000E+00 0. -1.
         -1   -1    0    0    0  501 -0.00000000000E+00 -0.00000000000E+00 -0.24423751793E+02  0.24423751793E+02  0.00000000000E+00 0.  1.
         25    2    1    2    0    0  0.76105001536E+02 -0.42430692475E+02  0.33488245995E+03  0.36794927543E+03  0.12509225549E+03 0.  0.
          5    1    3    3  502    0  0.49800356212E+02 -0.62652596440E+02  0.32246814319E+03  0.33227789437E+03  0.41800000000E+01 0. -1.
         -5    1    3    3    0  502  0.26304645325E+02  0.20221903965E+02  0.12414316761E+02  0.35671381054E+02  0.41800000000E+01 0. -1.
        -11    1    1    2    0    0 -0.68889247363E+02 -0.33673109165E+01  0.26036595163E+03  0.26934642368E+03  0.00000000000E+00 0. -1.
         11    1    1    2    0    0 -0.72157541735E+01  0.45798003392E+02  0.15464812217E+03  0.16144833822E+03  0.00000000000E+00 0.  1.
</event>
<event>
 7    1  0.2841804E-009  0.2054377E+03  0.7561462E-02  0.1145231E+00
         -2   -1    0    0    0  501 -0.00000000000E+00  0.00000000000E+00  0.30647762887E+02  0.30647762887E+02  0.00000000000E+00 0.  1.
          2   -1    0    0  501    0  0.00000000000E+00 -0.00000000000E+00 -0.14370646198E+04  0.14370646198E+04  0.00000000000E+00 0. -1.
         25    2    1    2    0    0 -0.95668491813E+02  0.14576594369E+03 -0.87652763166E+03  0.90241234482E+03  0.12508868992E+03 0.  0.
          5    1    3    3  502    0 -0.43302388743E+02  0.15474957329E+03 -0.68493207349E+03  0.70354242587E+03  0.41800000000E+01 0.  1.
         -5    1    3    3    0  502 -0.52366103069E+02 -0.89836295936E+01 -0.19159555817E+03  0.19886991895E+03  0.41800000000E+01 0.  1.
        -11    1    1    2    0    0  0.34335913281E+02 -0.12865368156E+03 -0.35001462909E+03  0.37448760366E+03  0.00000000000E+00 0.  1.
         11    1    1    2    0    0  0.61332578531E+02 -0.17112262133E+02 -0.17987459619E+03  0.19081243424E+03  0.00000000000E+00 0. -1.
</event>
<event>
 7    1  0.2841804E-009  0.9671170E+02  0.7561462E-02  0.1287367E+00
         -3   -1    0    0    0  501 -0.00000000000E+00  0.00000000000E+00  0.17505082425E+03  0.17505082425E+03  0.00000000000E+00 0.  1.
          3   -1    0    0  501    0  0.00000000000E+00 -0.00000000000E+00 -0.72929022788E+02  0.72929022788E+02  0.00000000000E+00 0. -1.
         25    2    1    2    0    0  0.22390439705E+02 -0.12056020085E+02  0.65856254689E+02  0.14363651865E+03  0.12509086216E+03 0.  0.
          5    1    3    3  502    0  0.59434001389E+02  0.16386561989E+02 -0.12088254460E+01  0.61804964153E+02  0.41800000000E+01 0. -1.
         -5    1    3    3    0  502 -0.37043561684E+02 -0.28442582074E+02  0.67065080135E+02  0.81831554494E+02  0.41800000000E+01 0. -1.
        -11    1    1    2    0    0 -0.13728530729E+02  0.46883271149E+02  0.46060672122E+02  0.67142379955E+02  0.00000000000E+00 0.  1.
         11    1    1    2    0    0 -0.86619089760E+01 -0.34827251065E+02 -0.97951253513E+01  0.37200948435E+02  0.00000000000E+00 0. -1.
</event>
<event>
 7    1  0.2841804E-009  0.1280887E+03  0.7561462E-02  0.1230320E+00
         -1   -1    0    0    0  501 -0.00000000000E+00  0.00000000000E+00  0.37635054858E+02  0.37635054858E+02  0.00000000000E+00 0.  1.
          1   -1    0    0  501    0  0.00000000000E+00 -0.00000000000E+00 -0.59028277921E+03  0.59028277921E+03  0.00000000000E+00 0. -1.
         25    2    1    2    0    0 -0.61767251723E+02  0.83079869651E+02 -0.32115148064E+03  0.35986602556E+03  0.12509126551E+03 0.  0.
          5    1    3    3  502    0 -0.72079187456E+02  0.49249574370E+02 -0.31068923144E+03  0.32274789043E+03  0.41800000000E+01 0.  1.
         -5    1    3    3    0  502  0.10311935732E+02  0.33830295281E+02 -0.10462249197E+02  0.37118135131E+02  0.41800000000E+01 0.  1.
        -11    1    1    2    0    0  0.79870025991E+02 -0.46673491582E+02 -0.18055775042E+03  0.20287616199E+03  0.00000000000E+00 0. -1.
         11    1    1    2    0    0 -0.18102774268E+02 -0.36406378069E+02 -0.50938493295E+02  0.65175646522E+02  0.00000000000E+00 0.  1.
</event>
<event>
 7    1  0.2841804E-009  0.1292156E+03  0.7561462E-02  0.1228624E+00
          1   -1    0    0  501    0  0.00000000000E+00  0.00000000000E+00  0.23165070383E+03  0.23165070383E+03  0.00000000000E+00 0.  1.
         -1   -1    0    0    0  501 -0.00000000000E+00 -0.00000000000E+00 -0.11898025437E+03  0.11898025437E+03  0.00000000000E+00 0. -1.
         25    2    1    2    0    0 -0.93119659538E+02 -0.24831364417E+02 -0.24559936400E+02  0.15980730978E+03  0.12508924067E+03 0.  0.
          5    1    3    3  502    0 -0.68387429999E+02  0.28500047160E+02  0.29479093973E+02  0.79847245735E+02  0.41800000000E+01 0. -1.
         -5    1    3    3    0  502 -0.24732229539E+02 -0.53331411577E+02 -0.54039030373E+02  0.79960064047E+02  0.41800000000E+01 0. -1.
        -11    1    1    2    0    0  0.37234051784E+02 -0.29380441536E+02  0.84135890353E+02  0.96583813357E+02  0.00000000000E+00 0.  1.
         11    1    1    2    0    0  0.55885607754E+02  0.54211805953E+02  0.53094495512E+02  0.94239835061E+02  0.00000000000E+00 0. -1.
</event>
<event>
 7    1  0.2841804E-009  0.1709827E+03  0.7561462E-02  0.1176827E+00
         -1   -1    0    0    0  501 -0.00000000000E+00  0.00000000000E+00  0.72883426201E+02  0.72883426201E+02  0.00000000000E+00 0.  1.
          1   -1    0    0  501    0  0.00000000000E+00 -0.00000000000E+00 -0.45609774608E+03  0.45609774608E+03  0.00000000000E+00 0. -1.
         25    2    1    2    0    0 -0.42153108510E+02  0.13433871179E+03 -0.25686850934E+03  0.31851612058E+03  0.12508922390E+03 0.  0.
          5    1    3    3  502    0 -0.17741984809E+02 -0.16611320775E+02 -0.71615330125E+01  0.25680225037E+02  0.41800000000E+01 0. -1.
         -5    1    3    3    0  502 -0.24411123701E+02  0.15095003257E+03 -0.24970697633E+03  0.29283589555E+03  0.41800000000E+01 0. -1.
        -11    1    1    2    0    0  0.46556416871E+02 -0.21276549234E+02 -0.61637042508E+02  0.80120637218E+02  0.00000000000E+00 0.  1.
         11    1    1    2    0    0 -0.44033083608E+01 -0.11306216256E+03 -0.64708768033E+02  0.13034441448E+03  0.00000000000E+00 0. -1.
</event>
<event>
 7    1  0.2841804E-009  0.1080217E+03  0.7561462E-02  0.1264278E+00
         -1   -1    0    0    0  501 -0.00000000000E+00  0.00000000000E+00  0.20209642554E+03  0.20209642554E+03  0.00000000000E+00 0.  1.
          1   -1    0    0  501    0  0.00000000000E+00 -0.00000000000E+00 -0.63996810058E+02  0.63996810058E+02  0.00000000000E+00 0. -1.
         25    2    1    2    0    0  0.15895065537E+02 -0.27983573733E+02  0.42477264043E+02  0.13596628329E+03  0.12508708457E+03 0.  0.
          5    1    3    3  502    0 -0.13865300597E+02  0.46570791209E+02  0.15361538340E+02  0.51132518173E+02  0.41800000000E+01 0. -1.
         -5    1    3    3    0  502  0.29760366134E+02 -0.74554364942E+02  0.27115725703E+02  0.84833765122E+02  0.41800000000E+01 0. -1.
        -11    1    1    2    0    0 -0.48772572739E+02  0.21856640037E+02  0.47364915966E+02  0.71413666967E+02  0.00000000000E+00 0. -1.
         11    1    1    2    0    0  0.32877507201E+02  0.61269336954E+01  0.48257435470E+02  0.58713285332E+02  0.00000000000E+00 0.  1.
</event>
<event>
 7    1  0.2841804E-009  0.1641998E+03  0.7561462E-02  0.1184035E+00
          2   -1    0    0  501    0  0.00000000000E+00  0.00000000000E+00  0.28252802790E+03  0.28252802790E+03  0.00000000000E+00 0. -1.
         -2   -1    0    0    0  501 -0.00000000000E+00 -0.00000000000E+00 -0.10757323370E+03  0.10757323370E+03  0.00000000000E+00 0.  1.
         25    2    1    2    0    0  0.11529964121E+03  0.72702052085E+02  0.94068217788E+02  0.20754811588E+03  0.12509114744E+03 0.  0.
          5    1    3    3  502    0  0.13479587835E+03  0.86396536108E+02  0.75560694903E+02  0.17709088425E+03  0.41800000000E+01 0. -1.
         -5    1    3    3    0  502 -0.19496237139E+02 -0.13694484023E+02  0.18507522885E+02  0.30457231630E+02  0.41800000000E+01 0. -1.
        -11    1    1    2    0    0 -0.40285653186E+02 -0.52848136784E+02 -0.52009835294E+01  0.66655154668E+02  0.00000000000E+00 0.  1.
         11    1    1    2    0    0 -0.75013988025E+02 -0.19853915301E+02  0.86087559946E+02  0.11589799105E+03  0.00000000000E+00 0. -1.
</event>
<event>
 7    1  0.2841804E-009  0.1341430E+03  0.7561462E-02  0.1221435E+00
         -1   -1    0    0    0  501 -0.00000000000E+00  0.00000000000E+00  0.99385654281E+03  0.99385654281E+03  0.00000000000E+00 0.  1.
          1   -1    0    0  501    0  0.00000000000E+00 -0.00000000000E+00 -0.31025158271E+02  0.31025158271E+02  0.00000000000E+00 0. -1.
         25    2    1    2    0    0  0.11051403741E+03  0.42274074890E+02  0.30582287189E+03  0.35095902352E+03  0.12507660591E+03 0.  0.
          5    1    3    3  502    0  0.69404754929E+02  0.24597480245E+02  0.45226909837E+02  0.86515904980E+02  0.41800000000E+01 0. -1.
         -5    1    3    3    0  502  0.41109282480E+02  0.17676594645E+02  0.26059596205E+03  0.26444311854E+03  0.41800000000E+01 0. -1.
        -11    1    1    2    0    0 -0.10664686216E+03 -0.66087766724E+02  0.53050103374E+03  0.54513529781E+03  0.00000000000E+00 0.  1.
         11    1    1    2    0    0 -0.38671752453E+01  0.23813691835E+02  0.12650747891E+03  0.12878737975E+03  0.00000000000E+00 0. -1.
</event>
<event>
 7    1  0.2841804E-009  0.9893488E+02  0.7561462E-02  0.1282552E+00
         -1   -1    0    0    0  501 -0.00000000000E+00  0.00000000000E+00  0.10859363681E+02  0.10859363681E+02  0.00000000000E+00 0.  1.
          1   -1    0    0  501    0  0.00000000000E+00 -0.00000000000E+00 -0.13753077946E+04  0.13753077946E+04  0.00000000000E+00 0. -1.
         25    2    1    2    0    0  0.21703212967E+02  0.34325309164E+02 -0.98646385105E+03  0.99519284446E+03  0.12509441212E+03 0.  0.
          5    1    3    3  502    0  0.53675800942E+02  0.38658945579E+01 -0.19064766291E+03  0.19814146592E+03  0.41800000000E+01 0. -1.
         -5    1    3    3    0  502 -0.31972587975E+02  0.30459414606E+02 -0.79581618814E+03  0.79705137854E+03  0.41800000000E+01 0. -1.
        -11    1    1    2    0    0 -0.57560424739E+02 -0.20344779974E+02 -0.24864495856E+03  0.25603013101E+03  0.00000000000E+00 0. -1.
         11    1    1    2    0    0  0.35857211772E+02 -0.13980529190E+02 -0.12933962130E+03  0.13494418280E+03  0.00000000000E+00 0.  1.
</event>
<event>
 7    1  0.2841804E-009  0.8555973E+02  0.7561462E-02  0.1313975E+00
          2   -1    0    0  501    0  0.00000000000E+00  0.00000000000E+00  0.45074073536E+03  0.45074073536E+03  0.00000000000E+00 0. -1.
         -2   -1    0    0    0  501 -0.00000000000E+00 -0.00000000000E+00 -0.32208405091E+02  0.32208405091E+02  0.00000000000E+00 0.  1.
         25    2    1    2    0    0  0.16461050713E+01  0.35258962794E+02  0.34940087574E+03  0.37279523442E+03  0.12509760477E+03 0.  0.
          5    1    3    3  502    0 -0.44345291730E+02 -0.98273090415E+01  0.25104099463E+03  0.25515119888E+03  0.41800000000E+01 0. -1.
         -5    1    3    3    0  502  0.45991396801E+02  0.45086271836E+02  0.98359881102E+02  0.11764403554E+03  0.41800000000E+01 0. -1.
        -11    1    1    2    0    0 -0.25256243596E+02 -0.23874895047E+02 -0.15292572715E+01  0.34788318181E+02  0.00000000000E+00 0.  1.
         11    1    1    2    0    0  0.23610138525E+02 -0.11384067747E+02  0.70660711809E+02  0.75365587856E+02  0.00000000000E+00 0. -1.
</event>
<event>
 7    1  0.2841804E-009  0.9596108E+02  0.7561462E-02  0.1289026E+00
          2   -1    0    0  501    0  0.00000000000E+00  0.00000000000E+00  0.14457241305E+03  0.14457241305E+03  0.00000000000E+00 0. -1.
         -2   -1    0    0    0  501 -0.00000000000E+00 -0.00000000000E+00 -0.85591471080E+02  0.85591471080E+02  0.00000000000E+00 0.  1.
         25    2    1    2    0    0  0.57314133561E+01  0.26249597553E+02  0.33280856826E+02  0.13222433371E+03  0.12511502118E+03 0.  0.
          5    1    3    3  502    0  0.45912777226E+01 -0.49107963081E+02  0.27244374938E+02  0.56501329497E+02  0.41800000000E+01 0. -1.
         -5    1    3    3    0  502  0.11401356335E+01  0.75357560634E+02  0.60364818878E+01  0.75723004216E+02  0.41800000000E+01 0. -1.
        -11    1    1    2    0    0  0.23454202131E+02 -0.29373834147E+02  0.48079273498E+02  0.61028995323E+02  0.00000000000E+00 0. -1.
         11    1    1    2    0    0 -0.29185615487E+02  0.31242365938E+01 -0.22379188356E+02  0.36910555091E+02  0.00000000000E+00 0.  1.
</event>
<event>
 7    1  0.2841804E-009  0.8716571E+02  0.7561462E-02  0.1309864E+00
          2   -1    0    0  501    0  0.00000000000E+00  0.00000000000E+00  0.28919086773E+02  0.28919086773E+02  0.00000000000E+00 0. -1.
         -2   -1    0    0    0  501 -0.00000000000E+00 -0.00000000000E+00 -0.44263365235E+03  0.44263365235E+03  0.00000000000E+00 0.  1.
         25    2    1    2    0    0  0.27767077215E+02  0.58809391621E+01 -0.27079852561E+03  0.29964481880E+03  0.12509828113E+03 0.  0.
          5    1    3    3  502    0  0.37630340555E+02  0.33109649665E+02 -0.33233365631E+02  0.60284495705E+02  0.41800000000E+01 0.  1.
         -5    1    3    3    0  502 -0.98632633404E+01 -0.27228710503E+02 -0.23756515998E+03  0.23936032310E+03  0.41800000000E+01 0.  1.
        -11    1    1    2    0    0  0.31770157171E+02 -0.13940676738E+02 -0.63071057814E+02  0.71983634864E+02  0.00000000000E+00 0.  1.
         11    1    1    2    0    0 -0.59537234386E+02  0.80597375758E+01 -0.79844982157E+02  0.99924285455E+02  0.00000000000E+00 0. -1.
</event>
<event>
 7    1  0.2841804E-009  0.1992857E+03  0.7561462E-02  0.1150343E+00
         -2   -1    0    0    0  501 -0.00000000000E+00  0.00000000000E+00  0.78559612223E+02  0.78559612223E+02  0.00000000000E+00 0.  1.
          2   -1    0    0  501    0  0.00000000000E+00 -0.00000000000E+00 -0.72997925598E+03  0.72997925598E+03  0.00000000000E+00 0. -1.
         25    2    1    2    0    0 -0.12741325782E+03  0.14472770284E+03 -0.51114835165E+03  0.56044584231E+03  0.12508660413E+03 0.  0.
          5    1    3    3  502    0 -0.60792366244E+02  0.87837109291E+02 -0.42221923627E+03  0.43554290883E+03  0.41800000000E+01 0.  1.
         -5    1    3    3    0  502 -0.66620891574E+02  0.56890593550E+02 -0.88929115381E+02  0.12490293348E+03  0.41800000000E+01 0.  1.
        -11    1    1    2    0    0  0.87259383453E+02 -0.48822432997E+02 -0.78807607533E+02  0.12731248552E+03  0.00000000000E+00 0.  1.
         11    1    1    2    0    0  0.40153874365E+02 -0.95905269843E+02 -0.61463684570E+02  0.12078054037E+03  0.00000000000E+00 0. -1.
</event>
<event>
 7    1  0.2841804E-009  0.9047811E+02  0.7561462E-02  0.1301698E+00
         -1   -1    0    0    0  501 -0.00000000000E+00  0.00000000000E+00  0.42390894939E+02  0.42390894939E+02  0.00000000000E+00 0.  1.
          1   -1    0    0  501    0  0.00000000000E+00 -0.00000000000E+00 -0.42445795456E+03  0.42445795456E+03  0.00000000000E+00 0. -1.
         25    2    1    2    0    0 -0.53791507348E+02  0.14774290703E+02 -0.31415473807E+03  0.34271363039E+03  0.12509047553E+03 0.  0.
          5    1    3    3  502    0 -0.81052408788E+01 -0.33608490566E+02 -0.24190897093E+03  0.24440263539E+03  0.41800000000E+01 0.  1.
         -5    1    3    3    0  502 -0.45686266469E+02  0.48382781269E+02 -0.72245767144E+02  0.98310994998E+02  0.41800000000E+01 0.  1.
        -11    1    1    2    0    0  0.28225578383E+02 -0.36337385501E+02  0.26081999584E+01  0.46085698076E+02  0.00000000000E+00 0.  1.
         11    1    1    2    0    0  0.25565928965E+02  0.21563094798E+02 -0.70520521508E+02  0.78049521042E+02  0.00000000000E+00 0. -1.
</event>
<event>
 7    1  0.2841804E-009  0.1191849E+03  0.7561462E-02  0.1244448E+00
          2   -1    0    0  501    0  0.00000000000E+00  0.00000000000E+00  0.44807421982E+03  0.44807421982E+03  0.00000000000E+00 0. -1.
         -2   -1    0    0    0  501 -0.00000000000E+00 -0.00000000000E+00 -0.36662297343E+02  0.36662297343E+02  0.00000000000E+00 0.  1.
         25    2    1    2    0    0 -0.57083972745E+02 -0.19262647697E+02  0.30980677554E+03  0.33949612581E+03  0.12509097382E+03 0.  0.
          5    1    3    3  502    0 -0.96896500640E+02 -0.15028665230E+02  0.23161523029E+03  0.25155094895E+03  0.41800000000E+01 0. -1.
         -5    1    3    3    0  502  0.39812527895E+02 -0.42339824668E+01  0.78191545250E+02  0.87945176863E+02  0.41800000000E+01 0. -1.
        -11    1    1    2    0    0  0.77590796805E+02  0.15164964802E+02  0.62064412946E+02  0.10051019481E+03  0.00000000000E+00 0.  1.
         11    1    1    2    0    0 -0.20506824060E+02  0.40976828950E+01  0.39540733997E+02  0.44730196547E+02  0.00000000000E+00 0. -1.
</event>
<event>
 7    1  0.2841804E-009  0.1019648E+03  0.7561462E-02  0.1276218E+00
         -1   -1    0    0    0  501 -0.00000000000E+00  0.00000000000E+00  0.17113212415E+02  0.17113212415E+02  0.00000000000E+00 0.  1.
          1   -1    0    0  501    0  0.00000000000E+00 -0.00000000000E+00 -0.96493668583E+03  0.96493668583E+03  0.00000000000E+00 0. -1.
         25    2    1    2    0    0  0.85077234790E+01 -0.56537505642E+02 -0.62404851381E+03  0.63902551399E+03  0.12509272177E+03 0.  0.
          5    1    3    3  502    0  0.38386348793E+02 -0.47153929587E+02 -0.12589930066E+03  0.13987534149E+03  0.41800000000E+01 0.  1.
         -5    1    3    3    0  502 -0.29878625314E+02 -0.93835760550E+01 -0.49814921315E+03  0.49915017251E+03  0.41800000000E+01 0.  1.
        -11    1    1    2    0    0 -0.29074845231E+02 -0.17912114088E+02 -0.72378762824E+02  0.80030467725E+02  0.00000000000E+00 0. -1.
         11    1    1    2    0    0  0.20567121752E+02  0.74449619730E+02 -0.25139619678E+03  0.26299391653E+03  0.00000000000E+00 0.  1.
</event>
<event>
 7    1  0.2841804E-009  0.1412119E+03  0.7561462E-02  0.1211708E+00
         -1   -1    0    0    0  501 -0.00000000000E+00  0.00000000000E+00  0.33577646823E+02  0.33577646823E+02  0.00000000000E+00 0.  1.
          1   -1    0    0  501    0  0.00000000000E+00 -0.00000000000E+00 -0.75050608078E+03  0.75050608078E+03  0.00000000000E+00 0. -1.
         25    2    1    2    0    0 -0.10827510744E+03 -0.34244349281E+02 -0.34643196134E+03  0.38543322770E+03  0.12508994695E+03 0.  0.
          5    1    3    3  502    0  0.87404707842E+01  0.32617921020E+02 -0.74862785586E+02  0.82232801649E+02  0.41800000000E+01 0. -1.
         -5    1    3    3    0  502 -0.11701557823E+03 -0.66862270301E+02 -0.27156917576E+03  0.30320042605E+03  0.41800000000E+01 0. -1.
        -11    1    1    2    0    0  0.64808970600E+02  0.20630162217E+02 -0.33235141381E+03  0.33923924968E+03  0.00000000000E+00 0. -1.
         11    1    1    2    0    0  0.43466136844E+02  0.13614187064E+02 -0.38145058806E+02  0.59411250221E+02  0.00000000000E+00 0.  1.
</event>
<event>
 7    1  0.2841804E-009  0.9942642E+02  0.7561462E-02  0.1281507E+00
         -2   -1    0    0    0  501 -0.00000000000E+00  0.00000000000E+00  0.82982390508E+02  0.82982390508E+02  0.00000000000E+00 0.  1.
          2   -1    0    0  501    0  0.00000000000E+00 -0.00000000000E+00 -0.19581257611E+03  0.19581257611E+03  0.00000000000E+00 0. -1.
         25    2    1    2    0    0 -0.46221534268E+02  0.20161387059E+02 -0.14302308177E+02  0.13562888863E+03  0.12509087758E+03 0.  0.
          5    1    3    3  502    0 -0.20943135922E+02 -0.34508373572E+02  0.38114304734E+02  0.55674189839E+02  0.41800000000E+01 0. -1.
         -5    1    3    3    0  502 -0.25278398346E+02  0.54669760631E+02 -0.52416612911E+02  0.79954698795E+02  0.41800000000E+01 0. -1.
        -11    1    1    2    0    0  0.36215478192E+02 -0.52648439358E+02 -0.39719565525E+02  0.75240035307E+02  0.00000000000E+00 0. -1.
         11    1    1    2    0    0  0.10006056076E+02  0.32487052299E+02 -0.58808311895E+02  0.67926042673E+02  0.00000000000E+00 0.  1.
</event>
<event>
 7    1  0.2841804E-009  0.1531074E+03  0.7561462E-02  0.1196706E+00
          1   -1    0    0  501    0  0.00000000000E+00  0.00000000000E+00  0.27161955964E+03  0.27161955964E+03  0.00000000000E+00 0. -1.
         -1   -1    0    0    0  501 -0.00000000000E+00 -0.00000000000E+00 -0.10159776849E+03  0.10159776849E+03  0.00000000000E+00 0.  1.
         25    2    1    2    0    0 -0.48598849448E+02 -0.10748896011E+03  0.44581626391E+02  0.17761906951E+03  0.12508112459E+03 0.  0.
          5    1    3    3  502    0  0.28351523580E+02 -0.64972787588E+02  0.53846287406E+02  0.89118836862E+02  0.41800000000E+01 0.  1.
         -5    1    3    3    0  502 -0.76950373028E+02 -0.42516172527E+02 -0.92646610148E+01  0.88500232650E+02  0.41800000000E+01 0.  1.
        -11    1    1    2    0    0 -0.25966407849E+02  0.29048822737E+02  0.17387814009E+02  0.42666433118E+02  0.00000000000E+00 0.  1.
         11    1    1    2    0    0  0.74565257296E+02  0.78440137377E+02  0.10805235075E+03  0.15293182550E+03  0.00000000000E+00 0. -1.
</event>
<event>
 7    1  0.2841804E-009  0.9922249E+02  0.7561462E-02  0.1281939E+00
         -1   -1    0    0    0  501 -0.00000000000E+00  0.00000000000E+00  0.28346045900E+02  0.28346045900E+02  0.00000000000E+00 0.  1.
          1   -1    0    0  501    0  0.00000000000E+00 -0.00000000000E+00 -0.64560711577E+03  0.64560711577E+03  0.00000000000E+00 0. -1.
         25    2    1    2    0    0  0.86703633400E+02 -0.57692985027E+01 -0.23460421712E+03  0.27970812561E+03  0.12508673788E+03 0.  0.
          5    1    3    3  502    0  0.56088389766E+01 -0.20718860402E+02 -0.17861303289E+03  0.17994670925E+03  0.41800000000E+01 0. -1.
         -5    1    3    3    0  502  0.81094794423E+02  0.14949561899E+02 -0.55991184226E+02  0.99761416362E+02  0.41800000000E+01 0. -1.
        -11    1    1    2    0    0 -0.82092941120E+02  0.15222485118E+02 -0.32006823348E+03  0.33077885229E+03  0.00000000000E+00 0.  1.
         11    1    1    2    0    0 -0.46106922801E+01 -0.94531866149E+01 -0.62588619275E+02  0.63466183777E+02  0.00000000000E+00 0. -1.
</event>
<event>
 7    1  0.2841804E-009  0.6746633E+02  0.7561462E-02  0.1368927E+00
         -2   -1    0    0    0  501 -0.00000000000E+00  0.00000000000E+00  0.27908421649E+02  0.27908421649E+02  0.00000000000E+00 0.  1.
          2   -1    0    0  501    0  0.00000000000E+00 -0.00000000000E+00 -0.50983157665E+03  0.50983157665E+03  0.00000000000E+00 0. -1.
         25    2    1    2    0    0  0.16222887793E+02  0.48654627478E+02 -0.27586867204E+03  0.30721317144E+03  0.12508378644E+03 0.  0.
          5    1    3    3  502    0  0.75355519464E+01  0.69740307597E+01  0.11910626639E+02  0.16271357507E+02  0.41800000000E+01 0.  1.
         -5    1    3    3    0  502  0.86873358466E+01  0.41680596719E+02 -0.28777929868E+03  0.29094181393E+03  0.41800000000E+01 0.  1.
        -11    1    1    2    0    0 -0.24788292794E+02 -0.61111986911E+02 -0.20502899928E+03  0.21537415107E+03  0.00000000000E+00 0. -1.
         11    1    1    2    0    0  0.85654050011E+01  0.12457359432E+02 -0.10254836861E+01  0.15152675792E+02  0.00000000000E+00 0.  1.
</event>
<event>
 7    1  0.2841804E-009  0.7000780E+02  0.7561462E-02  0.1360067E+00
          1   -1    0    0  501    0  0.00000000000E+00  0.00000000000E+00  0.21228303645E+03  0.21228303645E+03  0.00000000000E+00 0. -1.
         -1   -1    0    0    0  501 -0.00000000000E+00 -0.00000000000E+00 -0.68095937047E+02  0.68095937047E+02  0.00000000000E+00 0.  1.
         25    2    1    2    0    0  0.42960381071E+02 -0.28590229215E+02  0.65244642935E+02  0.15022678627E+03  0.12509287883E+03 0.  0.
          5    1    3    3  502    0  0.91646513179E+00  0.15894960998E+02  0.84371474417E+02  0.85962246298E+02  0.41800000000E+01 0.  1.
         -5    1    3    3    0  502  0.42043915939E+02 -0.44485190213E+02 -0.19126831481E+02  0.64264539976E+02  0.41800000000E+01 0.  1.
        -11    1    1    2    0    0 -0.29842168024E+02 -0.97445458140E+00 -0.13090079638E+02  0.32601453020E+02  0.00000000000E+00 0.  1.
         11    1    1    2    0    0 -0.13118213047E+02  0.29564683797E+02  0.92032536109E+02  0.97550734206E+02  0.00000000000E+00 0. -1.
</event>
<event>
 7    1  0.2841804E-009  0.1128468E+03  0.7561462E-02  0.1255387E+00
          4   -1    0    0  501    0  0.00000000000E+00  0.00000000000E+00  0.94643655885E+03  0.94643655885E+03  0.00000000000E+00 0.  1.
         -4   -1    0    0    0  501 -0.00000000000E+00 -0.00000000000E+00 -0.21182530409E+02  0.21182530409E+02  0.00000000000E+00 0. -1.
         25    2    1    2    0    0 -0.59838596571E+02  0.32496396490E+02  0.71710695280E+03  0.73111331844E+03  0.12509048415E+03 0.  0.
          5    1    3    3  502    0  0.12503796331E+02  0.49466644558E+02  0.47693288737E+03  0.47967253966E+03  0.41800000000E+01 0. -1.
         -5    1    3    3    0  502 -0.72342392903E+02 -0.16970248068E+02  0.24017406543E+03  0.25144077878E+03  0.41800000000E+01 0. -1.
        -11    1    1    2    0    0 -0.16622905882E+02  0.88345708992E+00  0.92034335779E+02  0.93527645424E+02  0.00000000000E+00 0.  1.
         11    1    1    2    0    0  0.76461502453E+02 -0.33379853580E+02  0.11611273986E+03  0.14297812539E+03  0.00000000000E+00 0. -1.
</event>
<event>
 7    1  0.2841804E-009  0.1107119E+03  0.7561462E-02  0.1259257E+00
          2   -1    0    0  501    0  0.00000000000E+00  0.00000000000E+00  0.56638580253E+03  0.56638580253E+03  0.00000000000E+00 0. -1.
         -2   -1    0    0    0  501 -0.00000000000E+00 -0.00000000000E+00 -0.32783619823E+02  0.32783619823E+02  0.00000000000E+00 0.  1.
         25    2    1    2    0    0 -0.53566697701E+02  0.62490532999E+02  0.28316010345E+03  0.32031561044E+03  0.12509191936E+03 0.  0.
          5    1    3    3  502    0 -0.38946073525E+02  0.71205020849E+02  0.29024770967E+03  0.30141028019E+03  0.41800000000E+01 0.  1.
         -5    1    3    3    0  502 -0.14620624176E+02 -0.87144878497E+01 -0.70876062207E+01  0.18905330247E+02  0.41800000000E+01 0.  1.
        -11    1    1    2    0    0  0.75349235075E+02 -0.66480600450E+02  0.20558121134E+03  0.22882484987E+03  0.00000000000E+00 0.  1.
         11    1    1    2    0    0 -0.21782537374E+02  0.39900674511E+01  0.44860867914E+02  0.50028962039E+02  0.00000000000E+00 0. -1.
</event>
<event>
 7    1  0.2841804E-009  0.1308473E+03  0.7561462E-02  0.1226204E+00
         -1   -1    0    0    0  501 -0.00000000000E+00  0.00000000000E+00  0.50357804501E+02  0.50357804501E+02  0.00000000000E+00 0.  1.
          1   -1    0    0  501    0  0.00000000000E+00 -0.00000000000E+00 -0.45597193345E+03  0.45597193345E+03  0.00000000000E+00 0. -1.
         25    2    1    2    0    0 -0.22615322175E+02 -0.98365157921E+02 -0.28265349638E+03  0.32515795492E+03  0.12509012568E+03 0.  0.
          5    1    3    3  502    0  0.34049323970E+02 -0.50972504469E+02 -0.21932160358E+03  0.22776520997E+03  0.41800000000E+01 0.  1.
         -5    1    3    3    0  502 -0.56664646144E+02 -0.47392653451E+02 -0.63331892801E+02  0.97392744953E+02  0.41800000000E+01 0.  1.
        -11    1    1    2    0    0  0.50237007780E+02  0.73942092211E+02 -0.11076206140E+03  0.14233560411E+03  0.00000000000E+00 0.  1.
         11    1    1    2    0    0 -0.27621685605E+02  0.24423065710E+02 -0.12198571160E+02  0.38836178915E+02  0.00000000000E+00 0. -1.
</event>
<event>
 7    1  0.2841804E-009  0.1838372E+03  0.7561462E-02  0.1164140E+00
         -2   -1    0    0    0  501 -0.00000000000E+00  0.00000000000E+00  0.46779472229E+02  0.46779472229E+02  0.00000000000E+00 0.  1.
          2   -1    0    0  501    0  0.00000000000E+00 -0.00000000000E+00 -0.10231729444E+04  0.10231729444E+04  0.00000000000E+00 0. -1.
         25    2    1    2    0    0 -0.16969582675E+03  0.28679472610E+02 -0.31538549771E+03  0.38044099575E+03  0.12509257897E+03 0.  0.
          5    1    3    3  502    0 -0.72306196012E+02 -0.54633198639E+01 -0.24478002717E+03  0.25532874485E+03  0.41800000000E+01 0. -1.
         -5    1    3    3    0  502 -0.97389630743E+02  0.34142792474E+02 -0.70605470538E+02  0.12511225090E+03  0.41800000000E+01 0. -1.
        -11    1    1    2    0    0  0.77974338547E+02 -0.56059791704E+02 -0.40398281020E+03  0.41524066353E+03  0.00000000000E+00 0. -1.
         11    1    1    2    0    0  0.91721488207E+02  0.27380319094E+02 -0.25702516431E+03  0.27427075739E+03  0.00000000000E+00 0.  1.
</event>
<event>
 7    1  0.2841804E-009  0.9225225E+02  0.7561462E-02  0.1297487E+00
          1   -1    0    0  501    0  0.00000000000E+00  0.00000000000E+00  0.29146554507E+03  0.29146554507E+03  0.00000000000E+00 0. -1.
         -1   -1    0    0    0  501 -0.00000000000E+00 -0.00000000000E+00 -0.51108627370E+02  0.51108627370E+02  0.00000000000E+00 0.  1.
         25    2    1    2    0    0  0.47021640344E+02  0.12474778940E+02  0.14902934808E+03  0.20055927492E+03  0.12509045287E+03 0.  0.
          5    1    3    3  502    0  0.78272423041E+02  0.16326931618E+02  0.45122019933E+02  0.91905440468E+02  0.41800000000E+01 0. -1.
         -5    1    3    3    0  502 -0.31250782697E+02 -0.38521526780E+01  0.10390732815E+03  0.10865383446E+03  0.41800000000E+01 0. -1.
        -11    1    1    2    0    0 -0.47113113115E+02 -0.29540726835E+02  0.70814155539E+01  0.56057527733E+02  0.00000000000E+00 0.  1.
         11    1    1    2    0    0  0.91472770341E-01  0.17065947895E+02  0.84246154066E+02  0.85957369782E+02  0.00000000000E+00 0. -1.
</event>
<event>
 7    1  0.2841804E-009  0.2356922E+03  0.7561462E-02  0.1122696E+00
         -2   -1    0    0    0  501 -0.00000000000E+00  0.00000000000E+00  0.35410200099E+02  0.35410200099E+02  0.00000000000E+00 0.  1.
          2   -1    0    0  501    0  0.00000000000E+00 -0.00000000000E+00 -0.16345108793E+04  0.16345108793E+04  0.00000000000E+00 0. -1.
         25    2    1    2    0    0 -0.18289780364E+03 -0.10828801528E+03 -0.72665441692E+03  0.76736759867E+03  0.12509392081E+03 0.  0.
          5    1    3    3  502    0 -0.79489269386E+02 -0.11827531308E+03 -0.43041289874E+03  0.45340967065E+03  0.41800000000E+01 0.  1.
         -5    1    3    3    0  502 -0.10340853425E+03  0.99872978028E+01 -0.29624151818E+03  0.31395792802E+03  0.41800000000E+01 0.  1.
        -11    1    1    2    0    0  0.72317965072E+02  0.33457935865E+01 -0.38766432724E+03  0.39436621689E+03  0.00000000000E+00 0. -1.
         11    1    1    2    0    0  0.11057983857E+03  0.10494222169E+03 -0.48478193501E+03  0.50818726381E+03  0.00000000000E+00 0.  1.
</event>
<event>
 7    1  0.2841804E-009  0.1443705E+03  0.7561462E-02  0.1207566E+00
         -1   -1    0    0    0  501 -0.00000000000E+00  0.00000000000E+00  0.32546158692E+03  0.32546158692E+03  0.00000000000E+00 0.  1.
          1   -1    0    0  501    0  0.00000000000E+00 -0.00000000000E+00 -0.73682035057E+02  0.73682035057E+02  0.00000000000E+00 0. -1.
         25    2    1    2    0    0 -0.97255582976E+02 -0.26864049003E+02  0.74452151988E+02  0.17711887162E+03  0.12509055200E+03 0.  0.
          5    1    3    3  502    0 -0.12491587326E+03 -0.21428126964E+02  0.41218662688E+02  0.13334013114E+03  0.41800000000E+01 0.  1.
         -5    1    3    3    0  502  0.27660290287E+02 -0.54359220389E+01  0.33233489300E+02  0.43778740482E+02  0.41800000000E+01 0.  1.
        -11    1    1    2    0    0  0.54773385622E+02 -0.30001902331E+02  0.88592570296E+02  0.10839225723E+03  0.00000000000E+00 0. -1.
         11    1    1    2    0    0  0.42482197354E+02  0.56865951334E+02  0.88734829577E+02  0.11363249312E+03  0.00000000000E+00 0.  1.
</event>
<event>
 7    1  0.2841804E-009  0.1346360E+03  0.7561462E-02  0.1220735E+00
         -1   -1    0    0    0  501 -0.00000000000E+00  0.00000000000E+00  0.41803075049E+02  0.41803075049E+02  0.00000000000E+00 0.  1.
          1   -1    0    0  501    0  0.00000000000E+00 -0.00000000000E+00 -0.50778802000E+03  0.50778802000E+03  0.00000000000E+00 0. -1.
         25    2    1    2    0    0 -0.92983106761E+02 -0.37484642001E+01 -0.20057365825E+03  0.25404559883E+03  0.12509782082E+03 0.  0.
          5    1    3    3  502    0 -0.33317564950E+02  0.59497855125E+02 -0.98828119448E+02  0.12014376593E+03  0.41800000000E+01 0. -1.
         -5    1    3    3    0  502 -0.59665541811E+02 -0.63246319325E+02 -0.10174553880E+03  0.13390183290E+03  0.41800000000E+01 0. -1.
        -11    1    1    2    0    0  0.83309719411E+02 -0.22194735675E+02 -0.12141720032E+03  0.14891357283E+03  0.00000000000E+00 0.  1.
         11    1    1    2    0    0  0.96733873497E+01  0.25943199875E+02 -0.14399408638E+03  0.14663192339E+03  0.00000000000E+00 0. -1.
</event>
<event>
 7    1  0.2841804E-009  0.2238245E+03  0.7561462E-02  0.1131063E+00
         -2   -1    0    0    0  501 -0.00000000000E+00  0.00000000000E+00  0.68695029709E+02  0.68695029709E+02  0.00000000000E+00 0.  1.
          2   -1    0    0  501    0  0.00000000000E+00 -0.00000000000E+00 -0.79704855611E+03  0.79704855611E+03  0.00000000000E+00 0. -1.
         25    2    1    2    0    0  0.15224584016E+03 -0.13668850023E+03 -0.43354113192E+03  0.49544708521E+03  0.12508940497E+03 0.  0.
          5    1    3    3  502    0  0.10346911600E+03 -0.14260928557E+02 -0.23389449645E+03  0.25619004649E+03  0.41800000000E+01 0.  1.
         -5    1    3    3    0  502  0.48776724163E+02 -0.12242757167E+03 -0.19964663547E+03  0.23925703873E+03  0.41800000000E+01 0.  1.
        -11    1    1    2    0    0  0.14797888612E+01  0.15352310257E+02 -0.72071119690E+02  0.73702981613E+02  0.00000000000E+00 0. -1.
         11    1    1    2    0    0 -0.15372562902E+03  0.12133618997E+03 -0.22274127479E+03  0.29659351899E+03  0.00000000000E+00 0.  1.
</event>
<event>
 7    1  0.2841804E-009  0.2907979E+03  0.7561462E-02  0.1089933E+00
          1   -1    0    0  501    0  0.00000000000E+00  0.00000000000E+00  0.94170856293E+03  0.94170856293E+03  0.00000000000E+00 0. -1.
         -1   -1    0    0    0  501 -0.00000000000E+00 -0.00000000000E+00 -0.89848115529E+02  0.89848115529E+02  0.00000000000E+00 0.  1.
         25    2    1    2    0    0  0.11596676649E+03  0.24350023929E+03  0.43836234971E+03  0.52966997939E+03  0.12509228579E+03 0.  0.
          5    1    3    3  502    0  0.47241234268E+02  0.21899311284E+03  0.33765487588E+03  0.40523820809E+03  0.41800000000E+01 0. -1.
         -5    1    3    3    0  502  0.68725532225E+02  0.24507126452E+02  0.10070747382E+03  0.12443177131E+03  0.41800000000E+01 0. -1.
        -11    1    1    2    0    0 -0.47898603469E+01 -0.11259466752E+03  0.16512008344E+03  0.19991284069E+03  0.00000000000E+00 0. -1.
         11    1    1    2    0    0 -0.11117690615E+03 -0.13090557177E+03  0.24837801425E+03  0.30197385838E+03  0.00000000000E+00 0.  1.
</event>
<event>
 7    1  0.2841804E-009  0.9544567E+02  0.7561462E-02  0.1290175E+00
         -3   -1    0    0    0  501 -0.00000000000E+00  0.00000000000E+00  0.19389080467E+02  0.19389080467E+02  0.00000000000E+00 0.  1.
          3   -1    0    0  501    0  0.00000000000E+00 -0.00000000000E+00 -0.77632418209E+03  0.77632418209E+03  0.00000000000E+00 0. -1.
         25    2    1    2    0    0  0.45308312040E+02 -0.30766135819E+02 -0.35232670389E+03  0.37786335108E+03  0.12508879871E+03 0.  0.
          5    1    3    3  502    0 -0.60137719473E+01 -0.35362693762E+02 -0.19492012291E+02  0.41037744897E+02  0.41800000000E+01 0.  1.
         -5    1    3    3    0  502  0.51322083988E+02  0.45965579422E+01 -0.33283469160E+03  0.33682560618E+03  0.41800000000E+01 0.  1.
        -11    1    1    2    0    0 -0.18770472016E+02 -0.30783266789E+02 -0.11188675697E+03  0.11755248410E+03  0.00000000000E+00 0.  1.
         11    1    1    2    0    0 -0.26537840025E+02  0.61549402609E+02 -0.29272164076E+03  0.30029742737E+03  0.00000000000E+00 0. -1.
</event>
<event>
 7    1  0.2841804E-009  0.1243491E+03  0.7561462E-02  0.1236090E+00
          2   -1    0    0  501    0  0.00000000000E+00  0.00000000000E+00  0.74691510277E+03  0.74691510277E+03  0.00000000000E+00 0. -1.
         -2   -1    0    0    0  501 -0.00000000000E+00 -0.00000000000E+00 -0.26518159080E+02  0.26518159080E+02  0.00000000000E+00 0.  1.
         25    2    1    2    0    0 -0.96206528637E+01  0.85937028378E+02  0.39040086992E+03  0.41897266698E+03  0.12509007408E+03 0.  0.
          5    1    3    3  502    0  0.36285345402E+02  0.41216653811E+02  0.31566213429E+03  0.32043017065E+03  0.41800000000E+01 0. -1.
         -5    1    3    3    0  502 -0.45905998265E+02  0.44720374567E+02  0.74738735630E+02  0.98542496324E+02  0.41800000000E+01 0. -1.
        -11    1    1    2    0    0 -0.21320853709E+02 -0.94838536417E+02  0.24799168740E+03  0.26636216663E+03  0.00000000000E+00 0. -1.
         11    1    1    2    0    0  0.30941506573E+02  0.89015080395E+01  0.82004386376E+02  0.88098428245E+02  0.00000000000E+00 0.  1.
</event>
<event>
 7    1  0.2841804E-009  0.8576006E+02  0.7561462E-02  0.1313457E+00
          2   -1    0    0  501    0  0.00000000000E+00  0.00000000000E+00  0.27295461729E+02  0.27295461729E+02  0.00000000000E+00 0. -1.
         -2   -1    0    0    0  501 -0.00000000000E+00 -0.00000000000E+00 -0.63657758907E+03  0.63657758907E+03  0.00000000000E+00 0.  1.
         25    2    1    2    0    0  0.31404385541E+02  0.27054732772E+01 -0.50663111075E+03  0.52279636723E+03  0.12508958467E+03 0.  0.
          5    1    3    3  502    0  0.33001926576E+02  0.61295600263E+02 -0.25191878170E+03  0.26139399906E+03  0.41800000000E+01 0.  1.
         -5    1    3    3    0  502 -0.15975410351E+01 -0.58590126986E+02 -0.25471232905E+03  0.26140236817E+03  0.41800000000E+01 0.  1.
        -11    1    1    2    0    0 -0.19014336557E+02  0.12985787919E+02  0.11114503737E+02  0.25567711589E+02  0.00000000000E+00 0. -1.
         11    1    1    2    0    0 -0.12390048985E+02 -0.15691261196E+02 -0.11376552033E+03  0.11550897198E+03  0.00000000000E+00 0.  1.
</event>
<event>
 7    1  0.2841804E-009  0.1170653E+03  0.7561462E-02  0.1248018E+00
          4   -1    0    0  501    0  0.00000000000E+00  0.00000000000E+00  0.27678485212E+03  0.27678485212E+03  0.00000000000E+00 0. -1.
         -4   -1    0    0    0  501 -0.00000000000E+00 -0.00000000000E+00 -0.74164649134E+02  0.74164649134E+02  0.00000000000E+00 0.  1.
         25    2    1    2    0    0 -0.61924758729E+02 -0.54661252060E+02  0.55051415735E+02  0.15968926066E+03  0.12508986120E+03 0.  0.
          5    1    3    3  502    0 -0.51257179749E+02 -0.94937750318E+02  0.41574767427E+02  0.11569964822E+03  0.41800000000E+01 0.  1.
         -5    1    3    3    0  502 -0.10667578981E+02  0.40276498257E+02  0.13476648308E+02  0.43989612442E+02  0.41800000000E+01 0.  1.
        -11    1    1    2    0    0  0.49332229910E+02  0.51469159380E+02  0.15881153501E+03  0.17408000152E+03  0.00000000000E+00 0. -1.
         11    1    1    2    0    0  0.12592528819E+02  0.31920926806E+01 -0.11242747758E+02  0.17180239081E+02  0.00000000000E+00 0.  1.
</event>
<event>
 7    1  0.2841804E-009  0.9006510E+02  0.7561462E-02  0.1302694E+00
         -1   -1    0    0    0  501 -0.00000000000E+00  0.00000000000E+00  0.37579655911E+02  0.37579655911E+02  0.00000000000E+00 0.  1.
          1   -1    0    0  501    0  0.00000000000E+00 -0.00000000000E+00 -0.47938954270E+03  0.47938954270E+03  0.00000000000E+00 0. -1.
         25    2    1    2    0    0  0.18689752270E+02  0.34717483203E+02 -0.37271078283E+03  0.39511444357E+03  0.12508990928E+03 0.  0.
          5    1    3    3  502    0  0.63068912080E+02 -0.22536987994E+01 -0.11777079376E+03  0.13367946399E+03  0.41800000000E+01 0.  1.
         -5    1    3    3    0  502 -0.44379159810E+02  0.36971182003E+02 -0.25493998907E+03  0.26143497958E+03  0.41800000000E+01 0.  1.
        -11    1    1    2    0    0 -0.82329855890E+01 -0.44135942578E+02 -0.87703323891E+02  0.98527338848E+02  0.00000000000E+00 0. -1.
         11    1    1    2    0    0 -0.10456766681E+02  0.94184593745E+01  0.18604219936E+02  0.23327416184E+02  0.00000000000E+00 0.  1.
</event>
<event>
 7    1  0.2851467E-009  0.9059739E+02  0.7561462E-02  0.1301411E+00
          4   -1    0    0  501    0  0.00000000000E+00  0.00000000000E+00  0.52273875398E+03  0.52273875398E+03  0.00000000000E+00 0. -1.
         -4   -1    0    0    0  501 -0.00000000000E+00 -0.00000000000E+00 -0.29490886466E+02  0.29490886466E+02  0.00000000000E+00 0.  1.
         25    2    1    2    0    0  0.49191568552E+02  0.27899429280E+02  0.22601737382E+03  0.26446104475E+03  0.12513034144E+03 0.  0.
          5    1    3    3  502    0 -0.15497248156E+02  0.16442764355E+02  0.18602042193E+03  0.18743425240E+03  0.41800000000E+01 0. -1.
         -5    1    3    3    0  502  0.64688816707E+02  0.11456664926E+02  0.39996951895E+02  0.77026792346E+02  0.41800000000E+01 0. -1.
        -11    1    1    2    0    0 -0.29612796865E+02 -0.52905445975E+02  0.95456584498E+02  0.11308343590E+03  0.00000000000E+00 0.  1.
         11    1    1    2    0    0 -0.19578771687E+02  0.25006016695E+02  0.17177390919E+03  0.17468515979E+03  0.00000000000E+00 0. -1.
</event>
<event>
 7    1  0.2841804E-009  0.1279153E+03  0.7561462E-02  0.1230582E+00
         -3   -1    0    0    0  501 -0.00000000000E+00  0.00000000000E+00  0.15490796790E+03  0.15490796790E+03  0.00000000000E+00 0.  1.
          3   -1    0    0  501    0  0.00000000000E+00 -0.00000000000E+00 -0.10638791478E+03  0.10638791478E+03  0.00000000000E+00 0. -1.
         25    2    1    2    0    0 -0.69161393434E+02 -0.34997738963E+01  0.17393497793E+02  0.14403469073E+03  0.12509161287E+03 0.  0.
          5    1    3    3  502    0 -0.63726955289E+02 -0.59002873627E+02  0.78530990183E+01  0.87301818371E+02  0.41800000000E+01 0.  1.
         -5    1    3    3    0  502 -0.54344381449E+01  0.55503099731E+02  0.95403987742E+01  0.56732872362E+02  0.41800000000E+01 0.  1.
        -11    1    1    2    0    0  0.90551505149E+02 -0.30019850347E+01  0.23015590961E+02  0.93478898294E+02  0.00000000000E+00 0.  1.
         11    1    1    2    0    0 -0.21390111716E+02  0.65017589310E+01  0.81109643674E+01  0.23782293652E+02  0.00000000000E+00 0. -1.
</event>
<event>
 7    1  0.2841804E-009  0.1886414E+03  0.7561462E-02  0.1159692E+00
         -2   -1    0    0    0  501 -0.00000000000E+00  0.00000000000E+00  0.36296587957E+02  0.36296587957E+02  0.00000000000E+00 0. -1.
          2   -1    0    0  501    0  0.00000000000E+00 -0.00000000000E+00 -0.11790326484E+04  0.11790326484E+04  0.00000000000E+00 0.  1.
         25    2    1    2    0    0  0.17123297733E+03  0.29565703002E+02 -0.52596561554E+03  0.56787517248E+03  0.12509004544E+03 0.  0.
          5    1    3    3  502    0  0.28837644300E+02 -0.20405741090E+02 -0.22100182638E+02  0.41879523288E+02  0.41800000000E+01 0. -1.
         -5    1    3    3    0  502  0.14239533303E+03  0.49971444092E+02 -0.50386543290E+03  0.52599564919E+03  0.41800000000E+01 0. -1.
        -11    1    1    2    0    0 -0.66806073007E+02 -0.51111692419E+02 -0.35438510261E+03  0.36423104953E+03  0.00000000000E+00 0.  1.
         11    1    1    2    0    0 -0.10442690432E+03  0.21545989416E+02 -0.26238534234E+03  0.28322301439E+03  0.00000000000E+00 0. -1.
</event>
<event>
 7    1  0.2841804E-009  0.1603420E+03  0.7561462E-02  0.1188311E+00
         -1   -1    0    0    0  501 -0.00000000000E+00  0.00000000000E+00  0.63152800728E+02  0.63152800728E+02  0.00000000000E+00 0.  1.
          1   -1    0    0  501    0  0.00000000000E+00 -0.00000000000E+00 -0.55634881515E+03  0.55634881515E+03  0.00000000000E+00 0. -1.
         25    2    1    2    0    0 -0.11121372529E+03 -0.69124049685E+02 -0.13093134484E+03  0.22346693396E+03  0.12509127298E+03 0.  0.
          5    1    3    3  502    0  0.11514466450E+02 -0.32103945432E+02 -0.77022879357E+02  0.84340041465E+02  0.41800000000E+01 0. -1.
         -5    1    3    3    0  502 -0.12272819174E+03 -0.37020104253E+02 -0.53908465484E+02  0.13912689250E+03  0.41800000000E+01 0. -1.
        -11    1    1    2    0    0  0.10016650497E+03  0.89861605712E+02 -0.32755780737E+03  0.35412223040E+03  0.00000000000E+00 0.  1.
         11    1    1    2    0    0  0.11047220318E+02 -0.20737556028E+02 -0.34706862209E+02  0.41912451505E+02  0.00000000000E+00 0. -1.
</event>
<event>
 7    1  0.2841804E-009  0.1162728E+03  0.7561462E-02  0.1249376E+00
         -1   -1    0    0    0  501 -0.00000000000E+00  0.00000000000E+00  0.22631799475E+02  0.22631799475E+02  0.00000000000E+00 0.  1.
          1   -1    0    0  501    0  0.00000000000E+00 -0.00000000000E+00 -0.70837338246E+03  0.70837338246E+03  0.00000000000E+00 0. -1.
         25    2    1    2    0    0 -0.54123992807E+02  0.42705436484E+01 -0.48475200482E+03  0.50356697523E+03  0.12509016037E+03 0.  0.
          5    1    3    3  502    0 -0.91774074428E+02  0.13742610032E+02 -0.27652147066E+03  0.29170693548E+03  0.41800000000E+01 0.  1.
         -5    1    3    3    0  502  0.37650081621E+02 -0.94720663837E+01 -0.20823053416E+03  0.21186003975E+03  0.41800000000E+01 0.  1.
        -11    1    1    2    0    0 -0.17818243306E+02 -0.20185618204E+02 -0.92155515133E+02  0.96008270197E+02  0.00000000000E+00 0. -1.
         11    1    1    2    0    0  0.71942236113E+02  0.15915074556E+02 -0.10883406303E+03  0.13142993651E+03  0.00000000000E+00 0.  1.
</event>
<event>
 7    1  0.2841804E-009  0.3605609E+03  0.7561462E-02  0.1058362E+00
         -2   -1    0    0    0  501 -0.00000000000E+00  0.00000000000E+00  0.31721704582E+03  0.31721704582E+03  0.00000000000E+00 0.  1.
          2   -1    0    0  501    0  0.00000000000E+00 -0.00000000000E+00 -0.45902917412E+03  0.45902917412E+03  0.00000000000E+00 0. -1.
         25    2    1    2    0    0  0.14017881249E+03 -0.32553088472E+03 -0.16405289520E+03  0.41010253448E+03  0.12510107906E+03 0.  0.
          5    1    3    3  502    0  0.40323747822E+02 -0.15502699302E+03 -0.13661290567E+03  0.21057049081E+03  0.41800000000E+01 0. -1.
         -5    1    3    3    0  502  0.99855064670E+02 -0.17050389170E+03 -0.27439989530E+02  0.19953204367E+03  0.41800000000E+01 0. -1.
        -11    1    1    2    0    0 -0.64539857273E+02  0.24243742927E+03  0.33962747805E+02  0.25316944628E+03  0.00000000000E+00 0.  1.
         11    1    1    2    0    0 -0.75638955219E+02  0.83093455443E+02 -0.11721980898E+02  0.11297423919E+03  0.00000000000E+00 0. -1.
</event>
<event>
 7    1  0.3715652E-009  0.1109352E+03  0.7561462E-02  0.1258848E+00
         -3   -1    0    0    0  501 -0.00000000000E+00  0.00000000000E+00  0.26957028125E+02  0.26957028125E+02  0.00000000000E+00 0.  1.
          3   -1    0    0  501    0  0.00000000000E+00 -0.00000000000E+00 -0.81013218124E+03  0.81013218124E+03  0.00000000000E+00 0. -1.
         25    2    1    2    0    0  0.27181621818E+01  0.61630489659E+02 -0.64807599720E+03  0.66292218998E+03  0.12513043658E+03 0.  0.
          5    1    3    3  502    0 -0.26524592378E+02  0.91874148560E+02 -0.49184345669E+03  0.50107072501E+03  0.41800000000E+01 0. -1.
         -5    1    3    3    0  502  0.29242754559E+02 -0.30243658901E+02 -0.15623254051E+03  0.16185146497E+03  0.41800000000E+01 0. -1.
        -11    1    1    2    0    0 -0.29650280551E+02 -0.36658001051E+02 -0.16405698572E+02  0.49920888648E+02  0.00000000000E+00 0.  1.
         11    1    1    2    0    0  0.26932118369E+02 -0.24972488607E+02 -0.11869345734E+03  0.12424613073E+03  0.00000000000E+00 0. -1.
</event>
<event>
 7    1  0.2841804E-009  0.1180339E+03  0.7561462E-02  0.1246376E+00
         -4   -1    0    0    0  501 -0.00000000000E+00  0.00000000000E+00  0.13090380077E+03  0.13090380077E+03  0.00000000000E+00 0. -1.
          4   -1    0    0  501    0  0.00000000000E+00 -0.00000000000E+00 -0.12637811220E+03  0.12637811220E+03  0.00000000000E+00 0.  1.
         25    2    1    2    0    0  0.39738817328E+02  0.35457009993E+02 -0.41713340767E+02  0.14221018306E+03  0.12508940886E+03 0.  0.
          5    1    3    3  502    0  0.48203478949E+02 -0.35423700901E+02 -0.11018856081E+01  0.59975832801E+02  0.41800000000E+01 0. -1.
         -5    1    3    3    0  502 -0.84646616210E+01  0.70880710894E+02 -0.40611455158E+02  0.82234350263E+02  0.41800000000E+01 0. -1.
        -11    1    1    2    0    0 -0.80251500292E+01 -0.62441539795E+02  0.34593508072E+02  0.71833555709E+02  0.00000000000E+00 0. -1.
         11    1    1    2    0    0 -0.31713667299E+02  0.26984529802E+02  0.11645521269E+02  0.43238174196E+02  0.00000000000E+00 0.  1.
</event>
<event>
 7    1  0.2841804E-009  0.1977458E+03  0.7561462E-02  0.1151655E+00
         -2   -1    0    0    0  501 -0.00000000000E+00  0.00000000000E+00  0.20514873521E+02  0.20514873521E+02  0.00000000000E+00 0.  1.
          2   -1    0    0  501    0  0.00000000000E+00 -0.00000000000E+00 -0.23655320566E+04  0.23655320566E+04  0.00000000000E+00 0. -1.
         25    2    1    2    0    0  0.16897216493E+03  0.59119557252E+02 -0.15928635771E+04  0.16077649036E+04  0.12508755104E+03 0.  0.
          5    1    3    3  502    0  0.12342930231E+03 -0.67004742960E+01 -0.12274022420E+04  0.12336180224E+04  0.41800000000E+01 0. -1.
         -5    1    3    3    0  502  0.45542862620E+02  0.65820031548E+02 -0.36546133509E+03  0.37414688123E+03  0.41800000000E+01 0. -1.
        -11    1    1    2    0    0 -0.99228395950E+01 -0.27852395500E+02 -0.54065765302E+02  0.61622444437E+02  0.00000000000E+00 0.  1.
         11    1    1    2    0    0 -0.15904932533E+03 -0.31267161752E+02 -0.69808784073E+03  0.71665958214E+03  0.00000000000E+00 0. -1.
</event>
<event>
 7    1  0.2841804E-009  0.1045694E+03  0.7561462E-02  0.1270970E+00
          1   -1    0    0  501    0  0.00000000000E+00  0.00000000000E+00  0.24314988322E+03  0.24314988322E+03  0.00000000000E+00 0. -1.
         -1   -1    0    0    0  501 -0.00000000000E+00 -0.00000000000E+00 -0.15729467506E+03  0.15729467506E+03  0.00000000000E+00 0.  1.
         25    2    1    2    0    0  0.61520846842E+02 -0.69216089645E+02 -0.91466351435E+02  0.18052709521E+03  0.12509299340E+03 0.  0.
          5    1    3    3  502    0  0.96316669503E+01  0.32456642316E+01  0.28772870874E+02  0.30800224721E+02  0.41800000000E+01 0. -1.
         -5    1    3    3    0  502  0.51889179892E+02 -0.72461753876E+02 -0.12023922231E+03  0.14972687049E+03  0.41800000000E+01 0. -1.
        -11    1    1    2    0    0 -0.66182175990E+02  0.35912077929E+02  0.55505204285E+02  0.93544564047E+02  0.00000000000E+00 0.  1.
         11    1    1    2    0    0  0.46613291479E+01  0.33304011716E+02  0.12181635531E+03  0.12637289902E+03  0.00000000000E+00 0. -1.
</event>
<event>
 7    1  0.2841804E-009  0.1226129E+03  0.7561462E-02  0.1238848E+00
          2   -1    0    0  501    0  0.00000000000E+00  0.00000000000E+00  0.66417891182E+02  0.66417891182E+02  0.00000000000E+00 0.  1.
         -2   -1    0    0    0  501 -0.00000000000E+00 -0.00000000000E+00 -0.35617421415E+03  0.35617421415E+03  0.00000000000E+00 0. -1.
         25    2    1    2    0    0 -0.81781213022E+02  0.35653469718E+02 -0.23353564787E+03  0.27954585404E+03  0.12509056310E+03 0.  0.
          5    1    3    3  502    0 -0.61075078323E+02  0.82171898165E+02 -0.16022261380E+03  0.19018712999E+03  0.41800000000E+01 0.  1.
         -5    1    3    3    0  502 -0.20706134700E+02 -0.46518428447E+02 -0.73313034067E+02  0.89358724048E+02  0.41800000000E+01 0.  1.
        -11    1    1    2    0    0  0.26113155048E+02 -0.10777972186E+01  0.26696306036E+02  0.37359754675E+02  0.00000000000E+00 0.  1.
         11    1    1    2    0    0  0.55668057974E+02 -0.34575672500E+02 -0.82916981134E+02  0.10568649662E+03  0.00000000000E+00 0. -1.
</event>
<event>
 7    1  0.2841804E-009  0.5859897E+02  0.7561462E-02  0.1403807E+00
         -1   -1    0    0    0  501 -0.00000000000E+00  0.00000000000E+00  0.15459398336E+03  0.15459398336E+03  0.00000000000E+00 0.  1.
          1   -1    0    0  501    0  0.00000000000E+00 -0.00000000000E+00 -0.82454716894E+02  0.82454716894E+02  0.00000000000E+00 0. -1.
         25    2    1    2    0    0 -0.37188829769E+01 -0.28907773437E+02  0.29462113586E+02  0.13177704847E+03  0.12509070673E+03 0.  0.
          5    1    3    3  502    0  0.19696702047E+02  0.20886203038E+02 -0.35950654417E+02  0.46196487982E+02  0.41800000000E+01 0.  1.
         -5    1    3    3    0  502 -0.23415585024E+02 -0.49793976474E+02  0.65412768004E+02  0.85580560486E+02  0.41800000000E+01 0.  1.
        -11    1    1    2    0    0  0.98160315703E+01  0.18394088491E+02  0.71241226526E+02  0.74229437046E+02  0.00000000000E+00 0.  1.
         11    1    1    2    0    0 -0.60971485934E+01  0.10513684945E+02 -0.28564073651E+02  0.31042214735E+02  0.00000000000E+00 0. -1.
</event>
<event>
 7    1  0.3168120E-009  0.1067622E+03  0.7561462E-02  0.1266686E+00
         -2   -1    0    0    0  501 -0.00000000000E+00  0.00000000000E+00  0.16751272021E+02  0.16751272021E+02  0.00000000000E+00 0. -1.
          2   -1    0    0  501    0  0.00000000000E+00 -0.00000000000E+00 -0.94010246838E+03  0.94010246838E+03  0.00000000000E+00 0.  1.
         25    2    1    2    0    0 -0.62868757771E+02  0.39376279003E-01 -0.54159851814E+03  0.55940052671E+03  0.12509001631E+03 0.  0.
          5    1    3    3  502    0 -0.83670182753E+02  0.20269071683E+02 -0.50598271456E+03  0.51327138492E+03  0.41800000000E+01 0.  1.
         -5    1    3    3    0  502  0.20801424982E+02 -0.20229695404E+02 -0.35615803581E+02  0.46129141788E+02  0.41800000000E+01 0.  1.
        -11    1    1    2    0    0  0.36121064139E+02 -0.37447994513E+02 -0.10817309330E+03  0.12003541845E+03  0.00000000000E+00 0. -1.
         11    1    1    2    0    0  0.26747693632E+02  0.37408618234E+02 -0.27357958492E+03  0.27741779524E+03  0.00000000000E+00 0.  1.
</event>
<event>
 7    1  0.2841804E-009  0.1475072E+03  0.7561462E-02  0.1203570E+00
          4   -1    0    0  501    0  0.00000000000E+00  0.00000000000E+00  0.55858252735E+03  0.55858252735E+03  0.00000000000E+00 0. -1.
         -4   -1    0    0    0  501 -0.00000000000E+00 -0.00000000000E+00 -0.59528274813E+02  0.59528274813E+02  0.00000000000E+00 0.  1.
         25    2    1    2    0    0  0.36211542206E+01 -0.14437997397E+03  0.32872016603E+03  0.38021449244E+03  0.12508966011E+03 0.  0.
          5    1    3    3  502    0 -0.13863978979E+01 -0.10023002104E+03  0.82238971556E+02  0.12972547960E+03  0.41800000000E+01 0. -1.
         -5    1    3    3    0  502  0.50075521185E+01 -0.44149952937E+02  0.24648119448E+03  0.25048901284E+03  0.41800000000E+01 0. -1.
        -11    1    1    2    0    0  0.18541807396E+02  0.72931794338E+02  0.13633831526E+03  0.15572726626E+03  0.00000000000E+00 0.  1.
         11    1    1    2    0    0 -0.22162961617E+02  0.71448179636E+02  0.33995771237E+02  0.82169043458E+02  0.00000000000E+00 0. -1.
</event>
<event>
 7    1  0.2841804E-009  0.7037336E+02  0.7561462E-02  0.1358828E+00
         -1   -1    0    0    0  501 -0.00000000000E+00  0.00000000000E+00  0.82544319764E+02  0.82544319764E+02  0.00000000000E+00 0.  1.
          1   -1    0    0  501    0  0.00000000000E+00 -0.00000000000E+00 -0.17376510275E+03  0.17376510275E+03  0.00000000000E+00 0. -1.
         25    2    1    2    0    0  0.34017435865E+02  0.12033651120E+02 -0.56099708402E+02  0.14176295868E+03  0.12509022531E+03 0.  0.
          5    1    3    3  502    0 -0.80988549836E+01  0.24117910961E+02  0.33300690727E+02  0.42115003076E+02  0.41800000000E+01 0. -1.
         -5    1    3    3    0  502  0.42116290848E+02 -0.12084259840E+02 -0.89400399130E+02  0.99647955600E+02  0.41800000000E+01 0. -1.
        -11    1    1    2    0    0  0.17562589441E+02 -0.77359656897E+01 -0.55649331976E+02  0.58865421619E+02  0.00000000000E+00 0. -1.
         11    1    1    2    0    0 -0.51580025306E+02 -0.42976854308E+01  0.20528257395E+02  0.55681042216E+02  0.00000000000E+00 0.  1.
</event>
<event>
 7    1  0.3133718E-009  0.1749584E+03  0.7561462E-02  0.1172774E+00
         -1   -1    0    0    0  501 -0.00000000000E+00  0.00000000000E+00  0.30371334665E+02  0.30371334665E+02  0.00000000000E+00 0.  1.
          1   -1    0    0  501    0  0.00000000000E+00 -0.00000000000E+00 -0.13230507724E+04  0.13230507724E+04  0.00000000000E+00 0. -1.
         25    2    1    2    0    0 -0.14670664848E+03  0.30772088405E+02 -0.93429176325E+03  0.95447308620E+03  0.12509201122E+03 0.  0.
          5    1    3    3  502    0 -0.98384049623E+02 -0.30791731966E+02 -0.69644657383E+03  0.70404748035E+03  0.41800000000E+01 0. -1.
         -5    1    3    3    0  502 -0.48322598853E+02  0.61563820371E+02 -0.23784518942E+03  0.25042560586E+03  0.41800000000E+01 0. -1.
        -11    1    1    2    0    0  0.11455444391E+03 -0.55989609690E+02 -0.21611596804E+03  0.25092562375E+03  0.00000000000E+00 0.  1.
         11    1    1    2    0    0  0.32152204570E+02  0.25217521284E+02 -0.14227170640E+03  0.14802339707E+03  0.00000000000E+00 0. -1.
</event>
<event>
 7    1  0.2841804E-009  0.9746347E+02  0.7561462E-02  0.1285722E+00
          1   -1    0    0  501    0  0.00000000000E+00  0.00000000000E+00  0.10016625903E+04  0.10016625903E+04  0.00000000000E+00 0. -1.
         -1   -1    0    0    0  501 -0.00000000000E+00 -0.00000000000E+00 -0.14203079917E+02  0.14203079917E+02  0.00000000000E+00 0.  1.
         25    2    1    2    0    0 -0.21682879286E+02  0.44475782228E+02  0.55500543373E+03  0.57107498789E+03  0.12508943947E+03 0.  0.
          5    1    3    3  502    0  0.27383856865E+02  0.20059133096E+01  0.25860189774E+02  0.37948927787E+02  0.41800000000E+01 0. -1.
         -5    1    3    3    0  502 -0.49066736152E+02  0.42469868919E+02  0.52914524395E+03  0.53312606010E+03  0.41800000000E+01 0. -1.
        -11    1    1    2    0    0 -0.34998975713E+02 -0.13345673561E+02  0.11981407458E+03  0.12553265620E+03  0.00000000000E+00 0.  1.
         11    1    1    2    0    0  0.56681855000E+02 -0.31130108667E+02  0.31264000206E+03  0.31925802612E+03  0.00000000000E+00 0. -1.
</event>
<event>
 7    1  0.2841804E-009  0.1430174E+03  0.7561462E-02  0.1209326E+00
         -1   -1    0    0    0  501 -0.00000000000E+00  0.00000000000E+00  0.43047772623E+03  0.43047772623E+03  0.00000000000E+00 0.  1.
          1   -1    0    0  501    0  0.00000000000E+00 -0.00000000000E+00 -0.49219394460E+02  0.49219394460E+02  0.00000000000E+00 0. -1.
         25    2    1    2    0    0  0.86112684327E+02 -0.54432045521E+02  0.23940970721E+03  0.28869119104E+03  0.12508938364E+03 0.  0.
          5    1    3    3  502    0  0.81981844402E+02  0.21675257447E+02  0.12127509226E+03  0.14804039989E+03  0.41800000000E+01 0.  1.
         -5    1    3    3    0  502  0.41308399252E+01 -0.76107302968E+02  0.11813461494E+03  0.14065079115E+03  0.41800000000E+01 0.  1.
        -11    1    1    2    0    0  0.93069822221E+01 -0.67076972893E+01  0.28499045971E+02  0.30721470379E+02  0.00000000000E+00 0.  1.
         11    1    1    2    0    0 -0.95419666549E+02  0.61139742811E+02  0.11334957859E+03  0.16028445927E+03  0.00000000000E+00 0. -1.
</event>
<event>
 7    1  0.2841804E-009  0.1019634E+03  0.7561462E-02  0.1276220E+00
         -1   -1    0    0    0  501 -0.00000000000E+00  0.00000000000E+00  0.40278461986E+02  0.40278461986E+02  0.00000000000E+00 0.  1.
          1   -1    0    0  501    0  0.00000000000E+00 -0.00000000000E+00 -0.38851460255E+03  0.38851460255E+03  0.00000000000E+00 0. -1.
         25    2    1    2    0    0 -0.53639380377E+02 -0.10445986714E+02 -0.14876829668E+03  0.20190614539E+03  0.12509110154E+03 0.  0.
          5    1    3    3  502    0 -0.82891814151E+02  0.67133550571E+01 -0.49382619468E+02  0.96810317089E+02  0.41800000000E+01 0. -1.
         -5    1    3    3    0  502  0.29252433774E+02 -0.17159341771E+02 -0.99385677216E+02  0.10509582831E+03  0.41800000000E+01 0. -1.
        -11    1    1    2    0    0 -0.11704202502E+02 -0.12602202526E+02 -0.16414757194E+01  0.17277103555E+02  0.00000000000E+00 0.  1.
         11    1    1    2    0    0  0.65343582878E+02  0.23048189240E+02 -0.19782636816E+03  0.20960981559E+03  0.00000000000E+00 0. -1.
</event>
<event>
 7    1  0.2841804E-009  0.9091397E+02  0.7561462E-02  0.1300653E+00
          1   -1    0    0  501    0  0.00000000000E+00  0.00000000000E+00  0.30716081213E+03  0.30716081213E+03  0.00000000000E+00 0. -1.
         -1   -1    0    0    0  501 -0.00000000000E+00 -0.00000000000E+00 -0.39903923285E+02  0.39903923285E+02  0.00000000000E+00 0.  1.
         25    2    1    2    0    0  0.12438290482E+02  0.13119483609E+02  0.15122893025E+03  0.19709869356E+03  0.12510345214E+03 0.  0.
          5    1    3    3  502    0 -0.34230068615E+02  0.40436013495E+02  0.23068509947E+02  0.57934422720E+02  0.41800000000E+01 0. -1.
         -5    1    3    3    0  502  0.46668359097E+02 -0.27316529886E+02  0.12816042031E+03  0.13916427084E+03  0.41800000000E+01 0. -1.
        -11    1    1    2    0    0  0.21785219602E+02 -0.29365503138E+02  0.10798924020E+02  0.38125389541E+02  0.00000000000E+00 0.  1.
         11    1    1    2    0    0 -0.34223510084E+02  0.16246019529E+02  0.10522903457E+03  0.11184065231E+03  0.00000000000E+00 0. -1.
</event>
<event>
 7    1  0.2841804E-009  0.2381081E+03  0.7561462E-02  0.1121060E+00
         -2   -1    0    0    0  501 -0.00000000000E+00  0.00000000000E+00  0.97188434271E+03  0.97188434271E+03  0.00000000000E+00 0.  1.
          2   -1    0    0  501    0  0.00000000000E+00 -0.00000000000E+00 -0.69357910265E+02  0.69357910265E+02  0.00000000000E+00 0. -1.
         25    2    1    2    0    0  0.86085125663E+01  0.21453767854E+03  0.26706433131E+03  0.36479018343E+03  0.12509196163E+03 0.  0.
          5    1    3    3  502    0  0.55968444365E+02  0.56903030265E+02  0.11905725921E+03  0.14339639113E+03  0.41800000000E+01 0. -1.
         -5    1    3    3    0  502 -0.47359931799E+02  0.15763464828E+03  0.14800707210E+03  0.22139379230E+03  0.41800000000E+01 0. -1.
        -11    1    1    2    0    0  0.28762663207E+02 -0.17457829101E+03  0.49839677429E+03  0.52887069791E+03  0.00000000000E+00 0. -1.
         11    1    1    2    0    0 -0.37371175773E+02 -0.39959387529E+02  0.13706532685E+03  0.14758137164E+03  0.00000000000E+00 0.  1.
</event>
<event>
 7    1  0.2841804E-009  0.2120694E+03  0.7561462E-02  0.1139938E+00
          2   -1    0    0  501    0  0.00000000000E+00  0.00000000000E+00  0.22735539492E+04  0.22735539492E+04  0.00000000000E+00 0. -1.
         -2   -1    0    0    0  501 -0.00000000000E+00 -0.00000000000E+00 -0.21814399203E+02  0.21814399203E+02  0.00000000000E+00 0.  1.
         25    2    1    2    0    0  0.16530238890E+03 -0.88948442309E+02  0.14266252447E+04  0.14443488323E+04  0.12508898979E+03 0.  0.
          5    1    3    3  502    0  0.70017413339E+02  0.18051587091E+02  0.69880133881E+03  0.70254471850E+03  0.41800000000E+01 0.  1.
         -5    1    3    3    0  502  0.95284975562E+02 -0.10700002940E+03  0.72782390592E+03  0.74180411383E+03  0.41800000000E+01 0.  1.
        -11    1    1    2    0    0 -0.70714526703E+01 -0.16685495996E+02  0.72984807879E+02  0.75201019944E+02  0.00000000000E+00 0. -1.
         11    1    1    2    0    0 -0.15823093623E+03  0.10563393830E+03  0.75212949737E+03  0.77581849612E+03  0.00000000000E+00 0.  1.
</event>
<event>
 7    1  0.2841804E-009  0.1014871E+03  0.7561462E-02  0.1277199E+00
          1   -1    0    0  501    0  0.00000000000E+00  0.00000000000E+00  0.75681013124E+02  0.75681013124E+02  0.00000000000E+00 0. -1.
         -1   -1    0    0    0  501 -0.00000000000E+00 -0.00000000000E+00 -0.19342216857E+03  0.19342216857E+03  0.00000000000E+00 0.  1.
         25    2    1    2    0    0 -0.92296086786E+01  0.26709507790E+02 -0.11595046407E+03  0.17288832025E+03  0.12508907897E+03 0.  0.
          5    1    3    3  502    0 -0.48390574528E+02 -0.13811040462E+02 -0.10330244172E+03  0.11498373540E+03  0.41800000000E+01 0. -1.
         -5    1    3    3    0  502  0.39160965849E+02  0.40520548253E+02 -0.12648022355E+02  0.57904584848E+02  0.41800000000E+01 0. -1.
        -11    1    1    2    0    0  0.50270059015E+02 -0.21222031728E+02 -0.42855531655E+01  0.54734079238E+02  0.00000000000E+00 0. -1.
         11    1    1    2    0    0 -0.41040450337E+02 -0.54874760623E+01  0.24948617907E+01  0.41480782210E+02  0.00000000000E+00 0.  1.
</event>
<event>
 7    1  0.2841804E-009  0.1062728E+03  0.7561462E-02  0.1267632E+00
          2   -1    0    0  501    0  0.00000000000E+00  0.00000000000E+00  0.63406929308E+03  0.63406929308E+03  0.00000000000E+00 0. -1.
         -2   -1    0    0    0  501 -0.00000000000E+00 -0.00000000000E+00 -0.18844835093E+02  0.18844835093E+02  0.00000000000E+00 0.  1.
         25    2    1    2    0    0  0.13635487543E+02  0.11870036106E+02  0.36594987633E+03  0.38716105161E+03  0.12509014198E+03 0.  0.
          5    1    3    3  502    0 -0.53511036525E+02  0.32858830148E+01  0.11093131403E+03  0.12327796595E+03  0.41800000000E+01 0. -1.
         -5    1    3    3    0  502  0.67146524068E+02  0.85841530910E+01  0.25501856230E+03  0.26388308566E+03  0.41800000000E+01 0. -1.
        -11    1    1    2    0    0 -0.15663256788E+02  0.37966908116E+02  0.13393266594E+03  0.14008848179E+03  0.00000000000E+00 0. -1.
         11    1    1    2    0    0  0.20277692451E+01 -0.49836944221E+02  0.11534191573E+03  0.12566459478E+03  0.00000000000E+00 0.  1.
</event>
<event>
 7    1  0.2841804E-009  0.1595246E+03  0.7561462E-02  0.1189235E+00
         -1   -1    0    0    0  501 -0.00000000000E+00  0.00000000000E+00  0.13758033307E+03  0.13758033307E+03  0.00000000000E+00 0.  1.
          1   -1    0    0  501    0  0.00000000000E+00 -0.00000000000E+00 -0.22815610382E+03  0.22815610382E+03  0.00000000000E+00 0. -1.
         25    2    1    2    0    0  0.13936921543E+02  0.13906701076E+03 -0.36227216656E+02  0.19103415243E+03  0.12509102647E+03 0.  0.
          5    1    3    3  502    0 -0.45808875230E+02  0.64398793839E+02  0.17802954206E+02  0.81117663158E+02  0.41800000000E+01 0. -1.
         -5    1    3    3    0  502  0.59745796773E+02  0.74668216925E+02 -0.54030170861E+02  0.10991648927E+03  0.41800000000E+01 0. -1.
        -11    1    1    2    0    0 -0.25143496054E+02 -0.73768459534E+02 -0.72036697786E+02  0.10612853925E+03  0.00000000000E+00 0. -1.
         11    1    1    2    0    0  0.11206574511E+02 -0.65298551231E+02  0.17688143694E+02  0.68573745212E+02  0.00000000000E+00 0.  1.
</event>
<event>
 7    1  0.2841804E-009  0.1123186E+03  0.7561462E-02  0.1256336E+00
         -2   -1    0    0    0  501 -0.00000000000E+00  0.00000000000E+00  0.53472911214E+03  0.53472911214E+03  0.00000000000E+00 0.  1.
          2   -1    0    0  501    0  0.00000000000E+00 -0.00000000000E+00 -0.27150793800E+02  0.27150793800E+02  0.00000000000E+00 0. -1.
         25    2    1    2    0    0 -0.13993159026E+02 -0.46484012352E+02  0.33673313953E+03  0.36248319695E+03  0.12509312096E+03 0.  0.
          5    1    3    3  502    0 -0.95370323556E+01  0.43081499456E+02  0.11749426460E+03  0.12557605343E+03  0.41800000000E+01 0.  1.
         -5    1    3    3    0  502 -0.44561266703E+01 -0.89565511808E+02  0.21923887493E+03  0.23690714352E+03  0.41800000000E+01 0.  1.
        -11    1    1    2    0    0  0.45769481265E+02  0.30206073957E+02  0.53009549334E+02  0.76270994747E+02  0.00000000000E+00 0. -1.
         11    1    1    2    0    0 -0.31776322239E+02  0.16277938396E+02  0.11783562948E+03  0.12312571424E+03  0.00000000000E+00 0.  1.
</event>
<event>
 7    1  0.3263377E-009  0.1033840E+03  0.7561462E-02  0.1273337E+00
          2   -1    0    0  501    0  0.00000000000E+00  0.00000000000E+00  0.92296536228E+02  0.92296536228E+02  0.00000000000E+00 0. -1.
         -2   -1    0    0    0  501 -0.00000000000E+00 -0.00000000000E+00 -0.19765402282E+03  0.19765402282E+03  0.00000000000E+00 0.  1.
         25    2    1    2    0    0 -0.66165943050E+02 -0.82249522918E+01 -0.10626391111E+03  0.17715955892E+03  0.12509160104E+03 0.  0.
          5    1    3    3  502    0 -0.79129731542E+02  0.40827216810E+02 -0.54104559184E+02  0.10427440612E+03  0.41800000000E+01 0. -1.
         -5    1    3    3    0  502  0.12963788492E+02 -0.49052169102E+02 -0.52159351921E+02  0.72885152799E+02  0.41800000000E+01 0. -1.
        -11    1    1    2    0    0  0.24439557141E+02  0.42324555616E+01  0.45355622325E+02  0.51694662295E+02  0.00000000000E+00 0. -1.
         11    1    1    2    0    0  0.41726385909E+02  0.39924967302E+01 -0.44449197816E+02  0.61096337842E+02  0.00000000000E+00 0.  1.
</event>
<event>
 7    1  0.2841804E-009  0.2331120E+03  0.7561462E-02  0.1124468E+00
          1   -1    0    0  501    0  0.00000000000E+00  0.00000000000E+00  0.71122085811E+03  0.71122085811E+03  0.00000000000E+00 0. -1.
         -1   -1    0    0    0  501 -0.00000000000E+00 -0.00000000000E+00 -0.10490497010E+03  0.10490497010E+03  0.00000000000E+00 0.  1.
         25    2    1    2    0    0 -0.21749266654E+03  0.22190241130E+02  0.49123889229E+03  0.55205139404E+03  0.12509846346E+03 0.  0.
          5    1    3    3  502    0 -0.21793701330E+03  0.30224900466E+02  0.49539718350E+03  0.54207557425E+03  0.41800000000E+01 0.  1.
         -5    1    3    3    0  502  0.44434675708E+00 -0.80346593358E+01 -0.41582912125E+01  0.99758197904E+01  0.41800000000E+01 0.  1.
        -11    1    1    2    0    0  0.13756106212E+03 -0.58273252770E+02  0.63471436386E+02  0.16231894848E+03  0.00000000000E+00 0. -1.
         11    1    1    2    0    0  0.79931604423E+02  0.36083011640E+02  0.51605559336E+02  0.10175548570E+03  0.00000000000E+00 0.  1.
</event>
<event>
 7    1  0.3289238E-009  0.1277214E+03  0.7561462E-02  0.1230876E+00
          2   -1    0    0  501    0  0.00000000000E+00  0.00000000000E+00  0.22790316126E+03  0.22790316126E+03  0.00000000000E+00 0. -1.
         -2   -1    0    0    0  501 -0.00000000000E+00 -0.00000000000E+00 -0.92672856853E+02  0.92672856853E+02  0.00000000000E+00 0.  1.
         25    2    1    2    0    0  0.59620025828E+02  0.74144374320E+02  0.56179689576E+02  0.16690049213E+03  0.12509069121E+03 0.  0.
          5    1    3    3  502    0  0.73680008687E+02  0.10059385477E+03  0.55755763077E+02  0.13665300880E+03  0.41800000000E+01 0.  1.
         -5    1    3    3    0  502 -0.14059982858E+02 -0.26449480450E+02  0.42392649940E+00  0.30247483329E+02  0.41800000000E+01 0.  1.
        -11    1    1    2    0    0 -0.31120956053E+02 -0.62170746021E+02  0.95914706898E+02  0.11846242681E+03  0.00000000000E+00 0. -1.
         11    1    1    2    0    0 -0.28499069775E+02 -0.11973628300E+02 -0.16864092062E+02  0.35213099179E+02  0.00000000000E+00 0.  1.
</event>
<event>
 7    1  0.2841804E-009  0.1491812E+03  0.7561462E-02  0.1201483E+00
          1   -1    0    0  501    0  0.00000000000E+00  0.00000000000E+00  0.30415379674E+03  0.30415379674E+03  0.00000000000E+00 0.  1.
         -1   -1    0    0    0  501 -0.00000000000E+00 -0.00000000000E+00 -0.74818533339E+02  0.74818533339E+02  0.00000000000E+00 0. -1.
         25    2    1    2    0    0  0.92625945961E+02 -0.41571521702E+02  0.12587374861E+03  0.20444689857E+03  0.12508627608E+03 0.  0.
          5    1    3    3  502    0 -0.25206733019E+02  0.14027265198E+02  0.34961515926E+02  0.45518386991E+02  0.41800000000E+01 0. -1.
         -5    1    3    3    0  502  0.11783267898E+03 -0.55598786900E+02  0.90912232681E+02  0.15892851157E+03  0.41800000000E+01 0. -1.
        -11    1    1    2    0    0 -0.47123321988E+02 -0.28673343932E+02  0.28122659887E+02  0.61916493171E+02  0.00000000000E+00 0. -1.
         11    1    1    2    0    0 -0.45502623972E+02  0.70244865634E+02  0.75338854911E+02  0.11260893835E+03  0.00000000000E+00 0.  1.
</event>
<event>
 7    1  0.2841804E-009  0.1047712E+03  0.7561462E-02  0.1270571E+00
         -2   -1    0    0    0  501 -0.00000000000E+00  0.00000000000E+00  0.89255188534E+02  0.89255188534E+02  0.00000000000E+00 0.  1.
          2   -1    0    0  501    0  0.00000000000E+00 -0.00000000000E+00 -0.21501064982E+03  0.21501064982E+03  0.00000000000E+00 0. -1.
         25    2    1    2    0    0 -0.29401994961E+02  0.12772370102E+01  0.18236631834E+02  0.12979390566E+03  0.12509106508E+03 0.  0.
          5    1    3    3  502    0  0.41685865188E+02  0.62231147158E+01  0.36721748270E+02  0.56057093300E+02  0.41800000000E+01 0. -1.
         -5    1    3    3    0  502 -0.71087860149E+02 -0.49458777056E+01 -0.18485116436E+02  0.73736812357E+02  0.41800000000E+01 0. -1.
        -11    1    1    2    0    0 -0.26114856799E+02 -0.24330609888E+02 -0.74353837356E+02  0.82477011662E+02  0.00000000000E+00 0.  1.
         11    1    1    2    0    0  0.55516851760E+02  0.23053372878E+02 -0.69638255763E+02  0.91994921035E+02  0.00000000000E+00 0. -1.
</event>
<event>
 7    1  0.2841804E-009  0.2888578E+03  0.7561462E-02  0.1090947E+00
          1   -1    0    0  501    0  0.00000000000E+00  0.00000000000E+00  0.71616051932E+03  0.71616051932E+03  0.00000000000E+00 0. -1.
         -1   -1    0    0    0  501 -0.00000000000E+00 -0.00000000000E+00 -0.12256281711E+03  0.12256281711E+03  0.00000000000E+00 0.  1.
         25    2    1    2    0    0  0.20190241887E+03  0.18080220038E+03  0.23750050864E+03  0.38145528968E+03  0.12509046332E+03 0.  0.
          5    1    3    3  502    0  0.16107927356E+03  0.19643173310E+03  0.19420972445E+03  0.31979188171E+03  0.41800000000E+01 0.  1.
         -5    1    3    3    0  502  0.40823145312E+02 -0.15629532722E+02  0.43290784184E+02  0.61663407963E+02  0.41800000000E+01 0.  1.
        -11    1    1    2    0    0 -0.89084776785E+02 -0.12600563418E+03  0.24591338601E+03  0.29032208101E+03  0.00000000000E+00 0.  1.
         11    1    1    2    0    0 -0.11281764209E+03 -0.54796566192E+02  0.11018380755E+03  0.16694596575E+03  0.00000000000E+00 0. -1.
</event>
<event>
 7    1  0.2841804E-009  0.1221331E+03  0.7561462E-02  0.1239619E+00
         -4   -1    0    0    0  501 -0.00000000000E+00  0.00000000000E+00  0.50696918561E+02  0.50696918561E+02  0.00000000000E+00 0.  1.
          4   -1    0    0  501    0  0.00000000000E+00 -0.00000000000E+00 -0.37450522830E+03  0.37450522830E+03  0.00000000000E+00 0. -1.
         25    2    1    2    0    0 -0.78781060085E+02  0.14604532304E+02 -0.14296328160E+03  0.20616610202E+03  0.12508482699E+03 0.  0.
          5    1    3    3  502    0 -0.65865598688E+02  0.56524687413E+02 -0.43064411811E+02  0.96981097861E+02  0.41800000000E+01 0. -1.
         -5    1    3    3    0  502 -0.12915461397E+02 -0.41920155109E+02 -0.99898869791E+02  0.10918500416E+03  0.41800000000E+01 0. -1.
        -11    1    1    2    0    0 -0.16413534727E+02  0.24561312098E+01 -0.69959719846E+02  0.71901315035E+02  0.00000000000E+00 0. -1.
         11    1    1    2    0    0  0.95194594812E+02 -0.17060663514E+02 -0.11088530830E+03  0.14713472981E+03  0.00000000000E+00 0.  1.
</event>
<event>
 7    1  0.2841804E-009  0.2141400E+03  0.7561462E-02  0.1138329E+00
          2   -1    0    0  501    0  0.00000000000E+00  0.00000000000E+00  0.36870588112E+03  0.36870588112E+03  0.00000000000E+00 0. -1.
         -2   -1    0    0    0  501 -0.00000000000E+00 -0.00000000000E+00 -0.13423157248E+03  0.13423157248E+03  0.00000000000E+00 0.  1.
         25    2    1    2    0    0 -0.92605543855E+02 -0.16988183907E+03  0.13505313267E+03  0.26706395669E+03  0.12509269491E+03 0.  0.
          5    1    3    3  502    0 -0.81810794809E+02 -0.48969566904E+02  0.10508714668E+03  0.14195705487E+03  0.41800000000E+01 0. -1.
         -5    1    3    3    0  502 -0.10794749046E+02 -0.12091227217E+03  0.29965985998E+02  0.12510690183E+03  0.41800000000E+01 0. -1.
        -11    1    1    2    0    0 -0.34213579273E+01  0.79281184934E+02  0.55109965993E+02  0.96614286348E+02  0.00000000000E+00 0.  1.
         11    1    1    2    0    0  0.96026901782E+02  0.90600654137E+02  0.44311209971E+02  0.13925921056E+03  0.00000000000E+00 0. -1.
</event>
<event>
 7    1  0.2841804E-009  0.1381143E+03  0.7561462E-02  0.1215889E+00
         -2   -1    0    0    0  501 -0.00000000000E+00  0.00000000000E+00  0.44614926363E+02  0.44614926363E+02  0.00000000000E+00 0. -1.
          2   -1    0    0  501    0  0.00000000000E+00 -0.00000000000E+00 -0.77274640687E+03  0.77274640687E+03  0.00000000000E+00 0.  1.
         25    2    1    2    0    0  0.11619542880E+03  0.55032674355E+02 -0.21449098418E+03  0.27961381357E+03  0.12509008563E+03 0.  0.
          5    1    3    3  502    0  0.76409804546E+02  0.13081330824E+02 -0.20710451629E+03  0.22117715188E+03  0.41800000000E+01 0. -1.
         -5    1    3    3    0  502  0.39785624257E+02  0.41951343531E+02 -0.73864678957E+01  0.58436661691E+02  0.41800000000E+01 0. -1.
        -11    1    1    2    0    0 -0.46922981136E+02 -0.53739424238E+02 -0.38578568681E+03  0.39232676180E+03  0.00000000000E+00 0.  1.
         11    1    1    2    0    0 -0.69272447667E+02 -0.12932501173E+01 -0.12785480952E+03  0.14542075787E+03  0.00000000000E+00 0. -1.
</event>
<event>
 7    1  0.2841804E-009  0.6768208E+02  0.7561462E-02  0.1368157E+00
          2   -1    0    0  501    0  0.00000000000E+00  0.00000000000E+00  0.27988420209E+03  0.27988420209E+03  0.00000000000E+00 0. -1.
         -2   -1    0    0    0  501 -0.00000000000E+00 -0.00000000000E+00 -0.47154623110E+02  0.47154623110E+02  0.00000000000E+00 0.  1.
         25    2    1    2    0    0 -0.20895138664E+02 -0.25173380140E+01  0.17774646948E+03  0.21836521325E+03  0.12508643065E+03 0.  0.
          5    1    3    3  502    0 -0.25005316279E+02  0.10610056982E+02  0.19441795104E+03  0.19635083712E+03  0.41800000000E+01 0. -1.
         -5    1    3    3    0  502  0.41101776150E+01 -0.13127394996E+02 -0.16671481552E+02  0.22014376134E+02  0.41800000000E+01 0. -1.
        -11    1    1    2    0    0 -0.13198466179E+02  0.40422243010E+02  0.21198307167E+02  0.47513424063E+02  0.00000000000E+00 0.  1.
         11    1    1    2    0    0  0.34093604843E+02 -0.37904904996E+02  0.33784802332E+02  0.61160187889E+02  0.00000000000E+00 0. -1.
</event>
<event>
 7    1  0.2841804E-009  0.1045443E+03  0.7561462E-02  0.1271020E+00
          1   -1    0    0  501    0  0.00000000000E+00  0.00000000000E+00  0.77398879698E+03  0.77398879698E+03  0.00000000000E+00 0. -1.
         -1   -1    0    0    0  501 -0.00000000000E+00 -0.00000000000E+00 -0.15210960012E+02  0.15210960012E+02  0.00000000000E+00 0.  1.
         25    2    1    2    0    0  0.67155153488E+01  0.98497283694E+01  0.43267044070E+03  0.45054818320E+03  0.12509132595E+03 0.  0.
          5    1    3    3  502    0  0.46825623112E+02 -0.35014699926E+02  0.28620103914E+03  0.29214238890E+03  0.41800000000E+01 0. -1.
         -5    1    3    3    0  502 -0.40110107763E+02  0.44864428295E+02  0.14646940156E+03  0.15840579429E+03  0.41800000000E+01 0. -1.
        -11    1    1    2    0    0  0.21293002946E+02  0.32809119747E+02  0.16885932191E+03  0.17333003464E+03  0.00000000000E+00 0. -1.
         11    1    1    2    0    0 -0.28008518295E+02 -0.42658848116E+02  0.15724807436E+03  0.16532153916E+03  0.00000000000E+00 0.  1.
</event>
<event>
 7    1  0.2841804E-009  0.2292705E+03  0.7561462E-02  0.1127154E+00
          2   -1    0    0  501    0  0.00000000000E+00  0.00000000000E+00  0.64307760486E+03  0.64307760486E+03  0.00000000000E+00 0. -1.
         -2   -1    0    0    0  501 -0.00000000000E+00 -0.00000000000E+00 -0.90264943831E+02  0.90264943831E+02  0.00000000000E+00 0.  1.
         25    2    1    2    0    0  0.16822412698E+03  0.13342988815E+03  0.27773907455E+03  0.37267822653E+03  0.12508866871E+03 0.  0.
          5    1    3    3  502    0  0.10285666080E+03  0.25770175428E+02  0.19475563591E+03  0.22179004651E+03  0.41800000000E+01 0. -1.
         -5    1    3    3    0  502  0.65367466185E+02  0.10765971273E+03  0.82983438648E+02  0.15088818002E+03  0.41800000000E+01 0. -1.
        -11    1    1    2    0    0 -0.14641368706E+03 -0.14104700170E+03  0.26823177142E+03  0.33657021206E+03  0.00000000000E+00 0. -1.
         11    1    1    2    0    0 -0.21810439928E+02  0.76171135427E+01  0.68418150498E+01  0.24094110105E+02  0.00000000000E+00 0.  1.
</event>
<event>
 6    1  0.2841804E-009  0.1210780E+03  0.7561462E-02  0.1241329E+00
         -2   -1    0    0    0  501 -0.00000000000E+00  0.00000000000E+00  0.65213881841E+02  0.65213881841E+02  0.00000000000E+00 0.  1.
          2   -1    0    0  501    0  0.00000000000E+00 -0.00000000000E+00 -0.41308804906E+03  0.41308804906E+03  0.00000000000E+00 0. -1.
          5    1    1    2  502    0 -0.53283723012E+02  0.10755052099E+03 -0.62386613184E+02  0.13533599524E+03  0.41800000000E+01 0. -1.
         -5    1    1    2    0  502  0.39220540859E+01 -0.38858966709E+01 -0.97855933738E+02  0.98100656822E+02  0.41800000000E+01 0. -1.
        -11    1    1    2    0    0  0.88859064903E+01 -0.27213034140E+02 -0.14615231807E+03  0.14892954253E+03  0.00000000000E+00 0. -1.
         11    1    1    2    0    0  0.40475762436E+02 -0.76451590184E+02 -0.41479302223E+02  0.95935736300E+02  0.00000000000E+00 0.  1.
</event>
<event>
 7    1  0.2841804E-009  0.2781407E+03  0.7561462E-02  0.1096709E+00
          2   -1    0    0  501    0  0.00000000000E+00  0.00000000000E+00  0.12792276555E+03  0.12792276555E+03  0.00000000000E+00 0. -1.
         -2   -1    0    0    0  501 -0.00000000000E+00 -0.00000000000E+00 -0.71543877651E+03  0.71543877651E+03  0.00000000000E+00 0.  1.
         25    2    1    2    0    0  0.26915125878E+03  0.69422072452E+02 -0.38241605485E+03  0.48903182954E+03  0.12509303357E+03 0.  0.
          5    1    3    3  502    0  0.18877939982E+03  0.46196196347E+02 -0.34771162124E+03  0.39836239066E+03  0.41800000000E+01 0.  1.
         -5    1    3    3    0  502  0.80371858962E+02  0.23225876105E+02 -0.34704433618E+02  0.90669438879E+02  0.41800000000E+01 0.  1.
        -11    1    1    2    0    0 -0.21395808929E+03 -0.51203750305E+02 -0.19762496324E+03  0.29572878472E+03  0.00000000000E+00 0.  1.
         11    1    1    2    0    0 -0.55193169494E+02 -0.18218322147E+02 -0.74749928605E+01  0.58600927799E+02  0.00000000000E+00 0. -1.
</event>
<event>
 7    1  0.2841804E-009  0.1472751E+03  0.7561462E-02  0.1203862E+00
          2   -1    0    0  501    0  0.00000000000E+00  0.00000000000E+00  0.10789868050E+04  0.10789868050E+04  0.00000000000E+00 0.  1.
         -2   -1    0    0    0  501 -0.00000000000E+00 -0.00000000000E+00 -0.22442109199E+02  0.22442109199E+02  0.00000000000E+00 0. -1.
         25    2    1    2    0    0 -0.38274645126E+02 -0.10317204218E+03  0.51134197912E+03  0.53779788954E+03  0.12508609689E+03 0.  0.
          5    1    3    3  502    0  0.16874119606E+02 -0.98225945533E+02  0.41286445937E+03  0.42474416594E+03  0.41800000000E+01 0. -1.
         -5    1    3    3    0  502 -0.55148764732E+02 -0.49460966474E+01  0.98477519750E+02  0.11305372360E+03  0.41800000000E+01 0. -1.
        -11    1    1    2    0    0  0.64687527208E+02  0.86585834397E+02  0.46900207878E+03  0.48129464239E+03  0.00000000000E+00 0.  1.
         11    1    1    2    0    0 -0.26412882082E+02  0.16586207783E+02  0.76200637866E+02  0.82336382236E+02  0.00000000000E+00 0. -1.
</event>
<event>
 7    1  0.2841804E-009  0.1036594E+03  0.7561462E-02  0.1272784E+00
         -1   -1    0    0    0  501 -0.00000000000E+00  0.00000000000E+00  0.27763454359E+03  0.27763454359E+03  0.00000000000E+00 0.  1.
          1   -1    0    0  501    0  0.00000000000E+00 -0.00000000000E+00 -0.53535583980E+02  0.53535583980E+02  0.00000000000E+00 0. -1.
         25    2    1    2    0    0 -0.85505839825E+01 -0.33084894381E+02  0.18539290473E+03  0.22624362744E+03  0.12509167481E+03 0.  0.
          5    1    3    3  502    0 -0.57444242082E+02  0.25652002427E+01  0.44435652830E+02  0.72790252390E+02  0.41800000000E+01 0.  1.
         -5    1    3    3    0  502  0.48893658099E+02 -0.35650094623E+02  0.14095725190E+03  0.15345337505E+03  0.41800000000E+01 0.  1.
        -11    1    1    2    0    0  0.20648771726E+02  0.57862970469E+02  0.53799343109E+01  0.61672026223E+02  0.00000000000E+00 0. -1.
         11    1    1    2    0    0 -0.12098187743E+02 -0.24778076088E+02  0.33326120567E+02  0.43254473911E+02  0.00000000000E+00 0.  1.
</event>
<event>
 7    1  0.2841804E-009  0.1033495E+03  0.7561462E-02  0.1273406E+00
         -2   -1    0    0    0  501 -0.00000000000E+00  0.00000000000E+00  0.38369459377E+02  0.38369459377E+02  0.00000000000E+00 0.  1.
          2   -1    0    0  501    0  0.00000000000E+00 -0.00000000000E+00 -0.47156718127E+03  0.47156718127E+03  0.00000000000E+00 0. -1.
         25    2    1    2    0    0  0.52551718453E+02  0.37848166788E+02 -0.15013885174E+03  0.20587559165E+03  0.12509563379E+03 0.  0.
          5    1    3    3  502    0 -0.78754291073E+00 -0.32820669027E+02 -0.97090790327E+02  0.10257636426E+03  0.41800000000E+01 0. -1.
         -5    1    3    3    0  502  0.53339261364E+02  0.70668835816E+02 -0.53048061410E+02  0.10329922738E+03  0.41800000000E+01 0. -1.
        -11    1    1    2    0    0 -0.15778502139E+02 -0.44839211674E+02 -0.24885949855E+03  0.25335857209E+03  0.00000000000E+00 0. -1.
         11    1    1    2    0    0 -0.36773216314E+02  0.69910448851E+01 -0.34199371609E+02  0.50702476913E+02  0.00000000000E+00 0.  1.
</event>
<event>
 7    1  0.2841804E-009  0.1018585E+03  0.7561462E-02  0.1276436E+00
         -2   -1    0    0    0  501 -0.00000000000E+00  0.00000000000E+00  0.36687339953E+03  0.36687339953E+03  0.00000000000E+00 0.  1.
          2   -1    0    0  501    0  0.00000000000E+00 -0.00000000000E+00 -0.39140561043E+02  0.39140561043E+02  0.00000000000E+00 0. -1.
         25    2    1    2    0    0 -0.27536485636E+02  0.42992544319E+02  0.17629014851E+03  0.22210767978E+03  0.12508792128E+03 0.  0.
          5    1    3    3  502    0 -0.40614110697E+02  0.81906270470E+02  0.10133454630E+03  0.13654415331E+03  0.41800000000E+01 0. -1.
         -5    1    3    3    0  502  0.13077625060E+02 -0.38913726151E+02  0.74955602207E+02  0.85563526472E+02  0.41800000000E+01 0. -1.
        -11    1    1    2    0    0 -0.12337510937E+02 -0.23519634031E+02  0.13337581454E+03  0.13599446778E+03  0.00000000000E+00 0.  1.
         11    1    1    2    0    0  0.39873996574E+02 -0.19472910288E+02  0.18066875434E+02  0.47911813009E+02  0.00000000000E+00 0. -1.
</event>
<event>
 7    1  0.2841804E-009  0.1644877E+03  0.7561462E-02  0.1183721E+00
         -2   -1    0    0    0  501 -0.00000000000E+00  0.00000000000E+00  0.24874318068E+02  0.24874318068E+02  0.00000000000E+00 0.  1.
          2   -1    0    0  501    0  0.00000000000E+00 -0.00000000000E+00 -0.18673235754E+04  0.18673235754E+04  0.00000000000E+00 0. -1.
         25    2    1    2    0    0 -0.35006998611E+02 -0.16053137675E+03 -0.13409024501E+04  0.13567105534E+04  0.12509329355E+03 0.  0.
          5    1    3    3  502    0 -0.13615598956E+02 -0.60232634612E+02 -0.16317609981E+03  0.17452010416E+03  0.41800000000E+01 0.  1.
         -5    1    3    3    0  502 -0.21391399655E+02 -0.10029874214E+03 -0.11777263503E+04  0.11821904493E+04  0.41800000000E+01 0.  1.
        -11    1    1    2    0    0  0.62626807826E+01  0.42616678881E+02 -0.41916722016E+02  0.60103361587E+02  0.00000000000E+00 0.  1.
         11    1    1    2    0    0  0.28744317829E+02  0.11791469787E+03 -0.45963008519E+03  0.47538397848E+03  0.00000000000E+00 0. -1.
</event>
<event>
 7    1  0.2841804E-009  0.7789371E+02  0.7561462E-02  0.1335137E+00
         -2   -1    0    0    0  501 -0.00000000000E+00  0.00000000000E+00  0.39036277188E+02  0.39036277188E+02  0.00000000000E+00 0.  1.
          2   -1    0    0  501    0  0.00000000000E+00 -0.00000000000E+00 -0.46832277643E+03  0.46832277643E+03  0.00000000000E+00 0. -1.
         25    2    1    2    0    0 -0.19913093235E+02 -0.41474283124E+02 -0.36357309909E+03  0.38723300740E+03  0.12508939282E+03 0.  0.
          5    1    3    3  502    0  0.75954472707E+01  0.22281248108E+02 -0.26778888901E+03  0.26885406136E+03  0.41800000000E+01 0. -1.
         -5    1    3    3    0  502 -0.27508540506E+02 -0.63755531232E+02 -0.95784210088E+02  0.11837894604E+03  0.41800000000E+01 0. -1.
        -11    1    1    2    0    0  0.33190594123E+02  0.28409198077E+02  0.77212095346E+01  0.44365697901E+02  0.00000000000E+00 0.  1.
         11    1    1    2    0    0 -0.13277500888E+02  0.13065085047E+02 -0.73434609681E+02  0.75760348310E+02  0.00000000000E+00 0. -1.
</event>
<event>
 7    1  0.2841804E-009  0.8452002E+02  0.7561462E-02  0.1316693E+00
          2   -1    0    0  501    0  0.00000000000E+00  0.00000000000E+00  0.23659540331E+03  0.23659540331E+03  0.00000000000E+00 0. -1.
         -2   -1    0    0    0  501 -0.00000000000E+00 -0.00000000000E+00 -0.60318002060E+02  0.60318002060E+02  0.00000000000E+00 0.  1.
         25    2    1    2    0    0 -0.23999413531E+02 -0.14976490006E+02  0.49048093715E+02  0.13730837937E+03  0.12509040109E+03 0.  0.
          5    1    3    3  502    0 -0.22595001314E+02  0.26654088688E+02  0.78564154335E+02  0.86085848283E+02  0.41800000000E+01 0. -1.
         -5    1    3    3    0  502 -0.14044122167E+01 -0.41630578694E+02 -0.29516060620E+02  0.51222531084E+02  0.41800000000E+01 0. -1.
        -11    1    1    2    0    0  0.10584815426E+02 -0.36907265041E+02  0.77531656019E+02  0.86517872231E+02  0.00000000000E+00 0. -1.
         11    1    1    2    0    0  0.13414598105E+02  0.51883755047E+02  0.49697651512E+02  0.73087153768E+02  0.00000000000E+00 0.  1.
</event>
<event>
 7    1  0.2841804E-009  0.1578237E+03  0.7561462E-02  0.1191176E+00
          1   -1    0    0  501    0  0.00000000000E+00  0.00000000000E+00  0.37997971868E+03  0.37997971868E+03  0.00000000000E+00 0. -1.
         -1   -1    0    0    0  501 -0.00000000000E+00 -0.00000000000E+00 -0.66898949602E+02  0.66898949602E+02  0.00000000000E+00 0.  1.
         25    2    1    2    0    0  0.70087514567E+02 -0.93270738732E+02  0.16564570620E+03  0.23811148962E+03  0.12508753376E+03 0.  0.
          5    1    3    3  502    0 -0.16750578539E+02  0.19317537766E+02  0.43435874416E+02  0.50575653560E+02  0.41800000000E+01 0.  1.
         -5    1    3    3    0  502  0.86838093106E+02 -0.11258827650E+03  0.12220983179E+03  0.18753583606E+03  0.41800000000E+01 0.  1.
        -11    1    1    2    0    0 -0.67978096971E+02  0.11071594167E+03  0.12520879722E+03  0.18043360083E+03  0.00000000000E+00 0.  1.
         11    1    1    2    0    0 -0.21094175963E+01 -0.17445202936E+02  0.22226265662E+02  0.28333577843E+02  0.00000000000E+00 0. -1.
</event>
<event>
 7    1  0.2841804E-009  0.2833287E+03  0.7561462E-02  0.1093885E+00
         -1   -1    0    0    0  501 -0.00000000000E+00  0.00000000000E+00  0.13287041800E+04  0.13287041800E+04  0.00000000000E+00 0.  1.
          1   -1    0    0  501    0  0.00000000000E+00 -0.00000000000E+00 -0.83110115715E+02  0.83110115715E+02  0.00000000000E+00 0. -1.
         25    2    1    2    0    0 -0.26672417318E+03  0.88855611420E+02  0.93062272720E+03  0.98017500910E+03  0.12508910362E+03 0.  0.
          5    1    3    3  502    0 -0.24005813110E+03  0.92495785976E+02  0.91091845824E+03  0.94655865465E+03  0.41800000000E+01 0. -1.
         -5    1    3    3    0  502 -0.26666042081E+02 -0.36401745560E+01  0.19704268951E+02  0.33616354442E+02  0.41800000000E+01 0. -1.
        -11    1    1    2    0    0  0.22537403212E+03 -0.83882137949E+02  0.30573791599E+03  0.38897987184E+03  0.00000000000E+00 0.  1.
         11    1    1    2    0    0  0.41350141063E+02 -0.49734734706E+01  0.92334211020E+01  0.42659414782E+02  0.00000000000E+00 0. -1.
</event>
<event>
 7    1  0.2841804E-009  0.1334526E+03  0.7561462E-02  0.1222421E+00
          3   -1    0    0  501    0  0.00000000000E+00  0.00000000000E+00  0.89431274478E+02  0.89431274478E+02  0.00000000000E+00 0. -1.
         -3   -1    0    0    0  501 -0.00000000000E+00 -0.00000000000E+00 -0.25640972823E+03  0.25640972823E+03  0.00000000000E+00 0.  1.
         25    2    1    2    0    0  0.34573482086E+02  0.96703587963E+02 -0.11487749569E+03  0.19847194458E+03  0.12508942473E+03 0.  0.
          5    1    3    3  502    0 -0.43994583519E+02  0.61189697959E+02 -0.55897015326E+02  0.93923645786E+02  0.41800000000E+01 0. -1.
         -5    1    3    3    0  502  0.78568065605E+02  0.35513890003E+02 -0.58980480362E+02  0.10454829879E+03  0.41800000000E+01 0. -1.
        -11    1    1    2    0    0 -0.26515179519E+01 -0.39548138184E+02  0.24505493997E+02  0.46600483016E+02  0.00000000000E+00 0. -1.
         11    1    1    2    0    0 -0.31921964134E+02 -0.57155449778E+02 -0.76606452056E+02  0.10076857511E+03  0.00000000000E+00 0.  1.
</event>
<event>
 7    1  0.2841804E-009  0.3246185E+03  0.7561462E-02  0.1073543E+00
         -2   -1    0    0    0  501 -0.00000000000E+00  0.00000000000E+00  0.76359256688E+02  0.76359256688E+02  0.00000000000E+00 0.  1.
          2   -1    0    0  501    0  0.00000000000E+00 -0.00000000000E+00 -0.15127291152E+04  0.15127291152E+04  0.00000000000E+00 0. -1.
         25    2    1    2    0    0 -0.31851396428E+03 -0.13047675360E+02 -0.63452544675E+03  0.72103467547E+03  0.12508826239E+03 0.  0.
          5    1    3    3  502    0 -0.31864188854E+02 -0.82330898764E+01 -0.18431014602E+03  0.18727202841E+03  0.41800000000E+01 0. -1.
         -5    1    3    3    0  502 -0.28664977543E+03 -0.48145854835E+01 -0.45021530073E+03  0.53376264706E+03  0.41800000000E+01 0. -1.
        -11    1    1    2    0    0  0.86505301732E+02 -0.33399148546E+02 -0.28297848343E+03  0.29778430522E+03  0.00000000000E+00 0.  1.
         11    1    1    2    0    0  0.23200866255E+03  0.46446823906E+02 -0.51886592834E+03  0.57026939120E+03  0.00000000000E+00 0. -1.
</event>
<event>
 7    1  0.3898093E-009  0.1687884E+03  0.7561462E-02  0.1179117E+00
         -3   -1    0    0    0  501 -0.00000000000E+00  0.00000000000E+00  0.38370509883E+02  0.38370509883E+02  0.00000000000E+00 0.  1.
          3   -1    0    0  501    0  0.00000000000E+00 -0.00000000000E+00 -0.84843898040E+03  0.84843898040E+03  0.00000000000E+00 0. -1.
         25    2    1    2    0    0  0.13385212055E+03  0.51730916915E+02 -0.45292087678E+03  0.49129902429E+03  0.12507970540E+03 0.  0.
          5    1    3    3  502    0  0.82134898549E+02  0.79132019191E+02 -0.18777648494E+03  0.21973961572E+03  0.41800000000E+01 0. -1.
         -5    1    3    3    0  502  0.51717222004E+02 -0.27401102277E+02 -0.26514439184E+03  0.27155940857E+03  0.41800000000E+01 0. -1.
        -11    1    1    2    0    0 -0.12387375413E+03 -0.12744409987E+02 -0.22249557264E+03  0.25497334526E+03  0.00000000000E+00 0.  1.
         11    1    1    2    0    0 -0.99783664236E+01 -0.38986506928E+02 -0.13465202110E+03  0.14053712074E+03  0.00000000000E+00 0. -1.
</event>
<event>
 7    1  0.2841804E-009  0.1228680E+03  0.7561462E-02  0.1238439E+00
         -3   -1    0    0    0  501 -0.00000000000E+00  0.00000000000E+00  0.21224513137E+03  0.21224513137E+03  0.00000000000E+00 0.  1.
          3   -1    0    0  501    0  0.00000000000E+00 -0.00000000000E+00 -0.77632282429E+02  0.77632282429E+02  0.00000000000E+00 0. -1.
         25    2    1    2    0    0  0.42587658647E+02  0.48368358944E+02  0.10088081297E+03  0.17314458737E+03  0.12509557503E+03 0.  0.
          5    1    3    3  502    0  0.84182496709E+02  0.38223079524E+02  0.89273803837E+02  0.12858841710E+03  0.41800000000E+01 0.  1.
         -5    1    3    3    0  502 -0.41594838061E+02  0.10145279420E+02  0.11607009137E+02  0.44556170268E+02  0.41800000000E+01 0.  1.
        -11    1    1    2    0    0  0.27200459623E+02 -0.40531548848E+01  0.14527782196E+00  0.27501166773E+02  0.00000000000E+00 0. -1.
         11    1    1    2    0    0 -0.69788118271E+02 -0.44315204059E+02  0.33586758142E+02  0.89231659656E+02  0.00000000000E+00 0.  1.
</event>
<event>
 7    1  0.2841804E-009  0.1537353E+03  0.7561462E-02  0.1195957E+00
          1   -1    0    0  501    0  0.00000000000E+00  0.00000000000E+00  0.36022052309E+03  0.36022052309E+03  0.00000000000E+00 0. -1.
         -1   -1    0    0    0  501 -0.00000000000E+00 -0.00000000000E+00 -0.13477028322E+03  0.13477028322E+03  0.00000000000E+00 0.  1.
         25    2    1    2    0    0  0.13151221877E+03  0.35953377616E+02 -0.32060486643E+02  0.18778723583E+03  0.12509221435E+03 0.  0.
          5    1    3    3  502    0  0.81933949523E+02  0.63818592643E+02  0.25224897675E+02  0.10695677965E+03  0.41800000000E+01 0.  1.
         -5    1    3    3    0  502  0.49578269243E+02 -0.27865215026E+02 -0.57285384318E+02  0.80830456178E+02  0.41800000000E+01 0.  1.
        -11    1    1    2    0    0 -0.19465337053E+02  0.13848515403E+02  0.12256441681E+03  0.12487080121E+03  0.00000000000E+00 0. -1.
         11    1    1    2    0    0 -0.11204688171E+03 -0.49801893019E+02  0.13494630969E+03  0.18233276927E+03  0.00000000000E+00 0.  1.
</event>
<event>
 7    1  0.2841804E-009  0.7672228E+02  0.7561462E-02  0.1338619E+00
          2   -1    0    0  501    0  0.00000000000E+00  0.00000000000E+00  0.39409440663E+03  0.39409440663E+03  0.00000000000E+00 0.  1.
         -2   -1    0    0    0  501 -0.00000000000E+00 -0.00000000000E+00 -0.49412336795E+02  0.49412336795E+02  0.00000000000E+00 0. -1.
         25    2    1    2    0    0  0.85275182519E+01  0.43888903844E+02  0.68654472996E+02  0.14953215690E+03  0.12508986704E+03 0.  0.
          5    1    3    3  502    0  0.11578490272E+02  0.45348365233E+02 -0.26687184021E+02  0.54039003111E+02  0.41800000000E+01 0.  1.
         -5    1    3    3    0  502 -0.30509720201E+01 -0.14594613890E+01  0.95341657016E+02  0.95493153788E+02  0.41800000000E+01 0.  1.
        -11    1    1    2    0    0 -0.41065420011E+02  0.60151892330E+01  0.10821251589E+03  0.11589866185E+03  0.00000000000E+00 0. -1.
         11    1    1    2    0    0  0.32537901759E+02 -0.49904093077E+02  0.16781508095E+03  0.17807592468E+03  0.00000000000E+00 0.  1.
</event>
<event>
 6    1  0.2841804E-009  0.1068016E+03  0.7561462E-02  0.1266610E+00
         -3   -1    0    0    0  501 -0.00000000000E+00  0.00000000000E+00  0.20179617713E+03  0.20179617713E+03  0.00000000000E+00 0.  1.
          3   -1    0    0  501    0  0.00000000000E+00 -0.00000000000E+00 -0.73930942887E+02  0.73930942887E+02  0.00000000000E+00 0. -1.
          5    1    1    2  502    0  0.24039929636E+02 -0.44251312390E+02  0.41923810552E+02  0.65659539721E+02  0.41800000000E+01 0. -1.
         -5    1    1    2    0  502 -0.81143352697E+02  0.29142770731E+02  0.39522606467E+02  0.94937103361E+02  0.41800000000E+01 0. -1.
        -11    1    1    2    0    0  0.39306938147E+01 -0.15095394476E+02  0.51458461879E+02  0.53770759592E+02  0.00000000000E+00 0.  1.
         11    1    1    2    0    0  0.53172729246E+02  0.30203936136E+02 -0.50396446585E+01  0.61359717338E+02  0.00000000000E+00 0. -1.
</event>
<event>
 7    1  0.2841804E-009  0.1145335E+03  0.7561462E-02  0.1252398E+00
         -1   -1    0    0    0  501 -0.00000000000E+00  0.00000000000E+00  0.63064489734E+03  0.63064489734E+03  0.00000000000E+00 0.  1.
          1   -1    0    0  501    0  0.00000000000E+00 -0.00000000000E+00 -0.48990762944E+02  0.48990762944E+02  0.00000000000E+00 0. -1.
         25    2    1    2    0    0 -0.73178724869E+02  0.48574555097E+02  0.51553964291E+03  0.53772010026E+03  0.12508864713E+03 0.  0.
          5    1    3    3  502    0 -0.59154710936E+02 -0.14325996386E+01  0.45047476597E+03  0.45436364219E+03  0.41800000000E+01 0. -1.
         -5    1    3    3    0  502 -0.14024013933E+02  0.50007154735E+02  0.65064876937E+02  0.83356458072E+02  0.41800000000E+01 0. -1.
        -11    1    1    2    0    0  0.33974005538E+02  0.19436916598E+02  0.46917141197E+02  0.61100285738E+02  0.00000000000E+00 0.  1.
         11    1    1    2    0    0  0.39204719331E+02 -0.68011471695E+02  0.19197350294E+02  0.80815274287E+02  0.00000000000E+00 0. -1.
</event>
<event>
 7    1  0.2841804E-009  0.1251549E+03  0.7561462E-02  0.1234827E+00
         -1   -1    0    0    0  501 -0.00000000000E+00  0.00000000000E+00  0.36607631087E+02  0.36607631087E+02  0.00000000000E+00 0.  1.
          1   -1    0    0  501    0  0.00000000000E+00 -0.00000000000E+00 -0.92283825108E+03  0.92283825108E+03  0.00000000000E+00 0. -1.
         25    2    1    2    0    0 -0.87350878213E+02  0.34181208480E+02 -0.76726431510E+03  0.78303239830E+03  0.12508667650E+03 0.  0.
          5    1    3    3  502    0 -0.67621528298E+01 -0.41762218309E+02 -0.15034511341E+03  0.15623999205E+03  0.41800000000E+01 0.  1.
         -5    1    3    3    0  502 -0.80588725383E+02  0.75943426790E+02 -0.61691920169E+03  0.62679240626E+03  0.41800000000E+01 0.  1.
        -11    1    1    2    0    0  0.49135612440E+02 -0.32143473235E+02 -0.82779793058E+01  0.59296173763E+02  0.00000000000E+00 0. -1.
         11    1    1    2    0    0  0.38215265773E+02 -0.20377352447E+01 -0.11068832559E+03  0.11711731010E+03  0.00000000000E+00 0.  1.
</event>
<event>
 7    1  0.4046541E-009  0.7490248E+02  0.7561462E-02  0.1344173E+00
          1   -1    0    0  501    0  0.00000000000E+00  0.00000000000E+00  0.13265034658E+03  0.13265034658E+03  0.00000000000E+00 0. -1.
         -1   -1    0    0    0  501 -0.00000000000E+00 -0.00000000000E+00 -0.12422815864E+03  0.12422815864E+03  0.00000000000E+00 0.  1.
         25    2    1    2    0    0 -0.52411252139E+02  0.91918830099E+01 -0.38673720618E+02  0.14133585163E+03  0.12509490888E+03 0.  0.
          5    1    3    3  502    0 -0.58320043398E+02  0.17089283334E+02 -0.78916143491E+02  0.99692031629E+02  0.41800000000E+01 0. -1.
         -5    1    3    3    0  502  0.59087912589E+01 -0.78974003245E+01  0.40242422873E+02  0.41643820006E+02  0.41800000000E+01 0. -1.
        -11    1    1    2    0    0  0.39167450233E+02 -0.32813231003E+02 -0.10259205821E+02  0.52115723066E+02  0.00000000000E+00 0.  1.
         11    1    1    2    0    0  0.13243801906E+02  0.23621347993E+02  0.57355114381E+02  0.63426930524E+02  0.00000000000E+00 0. -1.
</event>
<event>
 7    1  0.2841804E-009  0.1317577E+03  0.7561462E-02  0.1224871E+00
         -2   -1    0    0    0  501 -0.00000000000E+00  0.00000000000E+00  0.19961808084E+03  0.19961808084E+03  0.00000000000E+00 0.  1.
          2   -1    0    0  501    0  0.00000000000E+00 -0.00000000000E+00 -0.14062588519E+03  0.14062588519E+03  0.00000000000E+00 0. -1.
         25    2    1    2    0    0  0.96225468964E+02 -0.10449029079E+02 -0.52614954899E+02  0.16668707081E+03  0.12509085902E+03 0.  0.
          5    1    3    3  502    0  0.64469430416E+02  0.46971544228E+02  0.39225861131E+01  0.79971823207E+02  0.41800000000E+01 0. -1.
         -5    1    3    3    0  502  0.31756038548E+02 -0.57420573306E+02 -0.56537541012E+02  0.86715247603E+02  0.41800000000E+01 0. -1.
        -11    1    1    2    0    0 -0.17347315467E+02  0.31755475790E+02  0.11992369514E+01  0.36204664974E+02  0.00000000000E+00 0. -1.
         11    1    1    2    0    0 -0.78878153497E+02 -0.21306446712E+02  0.11040791359E+03  0.13735223025E+03  0.00000000000E+00 0.  1.
</event>
<event>
 7    1  0.2841804E-009  0.1350514E+03  0.7561462E-02  0.1220147E+00
          1   -1    0    0  501    0  0.00000000000E+00  0.00000000000E+00  0.46162033189E+03  0.46162033189E+03  0.00000000000E+00 0. -1.
         -1   -1    0    0    0  501 -0.00000000000E+00 -0.00000000000E+00 -0.42441248538E+02  0.42441248538E+02  0.00000000000E+00 0.  1.
         25    2    1    2    0    0 -0.83836691731E+02 -0.26772771682E+02  0.22982624974E+03  0.27606767609E+03  0.12509150463E+03 0.  0.
          5    1    3    3  502    0 -0.11386359183E+03 -0.23913803182E+02  0.14508455374E+03  0.18602093340E+03  0.41800000000E+01 0. -1.
         -5    1    3    3    0  502  0.30026900097E+02 -0.28589685005E+01  0.84741695995E+02  0.90046742697E+02  0.41800000000E+01 0. -1.
        -11    1    1    2    0    0  0.24034237641E+01  0.40564964426E+02  0.38327794174E+02  0.55859758243E+02  0.00000000000E+00 0. -1.
         11    1    1    2    0    0  0.81433267967E+02 -0.13792192744E+02  0.15102503944E+03  0.17213414609E+03  0.00000000000E+00 0.  1.
</event>
<event>
 7    1  0.5123264E-009  0.1049028E+03  0.7561462E-02  0.1270311E+00
          2   -1    0    0  501    0  0.00000000000E+00  0.00000000000E+00  0.16362570109E+03  0.16362570109E+03  0.00000000000E+00 0. -1.
         -2   -1    0    0    0  501 -0.00000000000E+00 -0.00000000000E+00 -0.13554789462E+03  0.13554789462E+03  0.00000000000E+00 0.  1.
         25    2    1    2    0    0  0.49274778311E+02  0.36895566928E+02 -0.66149354988E+02  0.15431288087E+03  0.12508973340E+03 0.  0.
          5    1    3    3  502    0 -0.31569684822E+02  0.34653376029E+02  0.39165550701E+01  0.47226192664E+02  0.41800000000E+01 0. -1.
         -5    1    3    3    0  502  0.80844463133E+02  0.22421908990E+01 -0.70065910058E+02  0.10708668821E+03  0.41800000000E+01 0. -1.
        -11    1    1    2    0    0 -0.36839324762E+02  0.57962799352E+01 -0.35364088189E+01  0.37459830450E+02  0.00000000000E+00 0.  1.
         11    1    1    2    0    0 -0.12435453549E+02 -0.42691846863E+02  0.97763570272E+02  0.10740088438E+03  0.00000000000E+00 0. -1.
</event>
<event>
 7    1  0.2841804E-009  0.1138346E+03  0.7561462E-02  0.1253629E+00
          1   -1    0    0  501    0  0.00000000000E+00  0.00000000000E+00  0.41671671808E+02  0.41671671808E+02  0.00000000000E+00 0. -1.
         -1   -1    0    0    0  501 -0.00000000000E+00 -0.00000000000E+00 -0.41345652631E+03  0.41345652631E+03  0.00000000000E+00 0.  1.
         25    2    1    2    0    0  0.62622844089E+02 -0.63328422374E+01 -0.27628492749E+03  0.30974558923E+03  0.12508894196E+03 0.  0.
          5    1    3    3  502    0  0.67064184349E+02 -0.48125122788E+02 -0.24077711357E+03  0.25456771807E+03  0.41800000000E+01 0.  1.
         -5    1    3    3    0  502 -0.44413402593E+01  0.41792280550E+02 -0.35507813919E+02  0.55177871164E+02  0.41800000000E+01 0.  1.
        -11    1    1    2    0    0 -0.19099831700E+02 -0.36829404092E+02 -0.64506631931E+02  0.76696245930E+02  0.00000000000E+00 0.  1.
         11    1    1    2    0    0 -0.43523012390E+02  0.43162246330E+02 -0.30993295086E+02  0.68686362955E+02  0.00000000000E+00 0. -1.
</event>
<event>
 7    1  0.2841804E-009  0.1025025E+03  0.7561462E-02  0.1275120E+00
         -2   -1    0    0    0  501 -0.00000000000E+00  0.00000000000E+00  0.32384217093E+02  0.32384217093E+02  0.00000000000E+00 0.  1.
          2   -1    0    0  501    0  0.00000000000E+00 -0.00000000000E+00 -0.62711994865E+03  0.62711994865E+03  0.00000000000E+00 0. -1.
         25    2    1    2    0    0 -0.59994838305E+02 -0.89414213741E+01 -0.48199185110E+03  0.50164024856E+03  0.12508982694E+03 0.  0.
          5    1    3    3  502    0 -0.51780977674E+02 -0.64342475491E+02 -0.29882286811E+03  0.31005451570E+03  0.41800000000E+01 0. -1.
         -5    1    3    3    0  502 -0.82138606316E+01  0.55401054117E+02 -0.18316898299E+03  0.19158573286E+03  0.41800000000E+01 0. -1.
        -11    1    1    2    0    0  0.20875573081E+02  0.16118343019E+02  0.10480440823E+02  0.28380101708E+02  0.00000000000E+00 0.  1.
         11    1    1    2    0    0  0.39119265224E+02 -0.71769216446E+01 -0.12322432128E+03  0.12948381548E+03  0.00000000000E+00 0. -1.
</event>
<event>
 7    1  0.2841804E-009  0.1182883E+03  0.7561462E-02  0.1245948E+00
          1   -1    0    0  501    0  0.00000000000E+00  0.00000000000E+00  0.40367678301E+03  0.40367678301E+03  0.00000000000E+00 0. -1.
         -1   -1    0    0    0  501 -0.00000000000E+00 -0.00000000000E+00 -0.48179453038E+02  0.48179453038E+02  0.00000000000E+00 0.  1.
         25    2    1    2    0    0  0.55832378166E+02 -0.19508522057E+02  0.86285032139E+02  0.16306614388E+03  0.12509046176E+03 0.  0.
          5    1    3    3  502    0 -0.36020238511E+02 -0.28163103032E+02  0.31579118498E+02  0.55725497574E+02  0.41800000000E+01 0.  1.
         -5    1    3    3    0  502  0.91852616677E+02  0.86545809750E+01  0.54705913640E+02  0.10734064631E+03  0.41800000000E+01 0.  1.
        -11    1    1    2    0    0  0.65487393010E+01 -0.22281043904E+02  0.29211564409E+02  0.37318177864E+02  0.00000000000E+00 0.  1.
         11    1    1    2    0    0 -0.62381117467E+02  0.41789565961E+02  0.24000073343E+03  0.25147191431E+03  0.00000000000E+00 0. -1.
</event>
<event>
 7    1  0.2841804E-009  0.1220551E+03  0.7561462E-02  0.1239745E+00
          1   -1    0    0  501    0  0.00000000000E+00  0.00000000000E+00  0.26577071533E+03  0.26577071533E+03  0.00000000000E+00 0. -1.
         -1   -1    0    0    0  501 -0.00000000000E+00 -0.00000000000E+00 -0.75362031580E+02  0.75362031580E+02  0.00000000000E+00 0.  1.
         25    2    1    2    0    0  0.82274779087E+02 -0.31592995430E+02  0.70898060414E+02  0.16864505600E+03  0.12508942125E+03 0.  0.
          5    1    3    3  502    0 -0.15968679053E+02  0.15427215556E+02 -0.17282249154E+02  0.28445495712E+02  0.41800000000E+01 0. -1.
         -5    1    3    3    0  502  0.98243458140E+02 -0.47020210986E+02  0.88180309568E+02  0.14019956028E+03  0.41800000000E+01 0. -1.
        -11    1    1    2    0    0 -0.58143274770E+02  0.54175304589E+02  0.11402349282E+03  0.13898547026E+03  0.00000000000E+00 0.  1.
         11    1    1    2    0    0 -0.24131504317E+02 -0.22582309159E+02  0.54871305187E+01  0.33502220656E+02  0.00000000000E+00 0. -1.
</event>
<event>
 7    1  0.2841804E-009  0.1715980E+03  0.7561462E-02  0.1176192E+00
         -2   -1    0    0    0  501 -0.00000000000E+00  0.00000000000E+00  0.32580037189E+02  0.32580037189E+02  0.00000000000E+00 0.  1.
          2   -1    0    0  501    0  0.00000000000E+00 -0.00000000000E+00 -0.10675565231E+04  0.10675565231E+04  0.00000000000E+00 0. -1.
         25    2    1    2    0    0  0.72000109110E+02 -0.12690019253E+03 -0.66810515892E+03  0.69519751563E+03  0.12508959907E+03 0.  0.
          5    1    3    3  502    0  0.42135078665E+02 -0.14880930938E+03 -0.52561074078E+03  0.54790847651E+03  0.41800000000E+01 0.  1.
         -5    1    3    3    0  502  0.29865030445E+02  0.21909116848E+02 -0.14249441814E+03  0.14728903912E+03  0.41800000000E+01 0.  1.
        -11    1    1    2    0    0 -0.76381274881E+02  0.11120253755E+03 -0.36425207694E+03  0.38843233525E+03  0.00000000000E+00 0.  1.
         11    1    1    2    0    0  0.43811657705E+01  0.15697654980E+02 -0.26192500782E+01  0.16506709434E+02  0.00000000000E+00 0. -1.
</event>
<event>
 7    1  0.2841804E-009  0.7662805E+02  0.7561462E-02  0.1338902E+00
         -4   -1    0    0    0  501 -0.00000000000E+00  0.00000000000E+00  0.20521293190E+02  0.20521293190E+02  0.00000000000E+00 0.  1.
          4   -1    0    0  501    0  0.00000000000E+00 -0.00000000000E+00 -0.57949031138E+03  0.57949031138E+03  0.00000000000E+00 0. -1.
         25    2    1    2    0    0  0.14146810954E+02 -0.16433517632E+02 -0.27068789212E+03  0.29898085727E+03  0.12508966908E+03 0.  0.
          5    1    3    3  502    0  0.38803440996E+02 -0.21117403116E+02 -0.22984385350E+02  0.49974054442E+02  0.41800000000E+01 0. -1.
         -5    1    3    3    0  502 -0.24656630042E+02  0.46838854833E+01 -0.24770350677E+03  0.24900680283E+03  0.41800000000E+01 0. -1.
        -11    1    1    2    0    0  0.30755735396E+02  0.22527890350E+02 -0.17327271309E+03  0.17741717562E+03  0.00000000000E+00 0. -1.
         11    1    1    2    0    0 -0.44902546350E+02 -0.60943727180E+01 -0.11500841298E+03  0.12361357168E+03  0.00000000000E+00 0.  1.
</event>
<event>
 7    1  0.2841804E-009  0.1504175E+03  0.7561462E-02  0.1199961E+00
         -2   -1    0    0    0  501 -0.00000000000E+00  0.00000000000E+00  0.30507373073E+02  0.30507373073E+02  0.00000000000E+00 0.  1.
          2   -1    0    0  501    0  0.00000000000E+00 -0.00000000000E+00 -0.12679323927E+04  0.12679323927E+04  0.00000000000E+00 0. -1.
         25    2    1    2    0    0  0.11107822426E+03  0.26138200064E+02 -0.10399140766E+04  0.10536081058E+04  0.12508867470E+03 0.  0.
          5    1    3    3  502    0  0.10532021584E+03 -0.22347099088E+02 -0.87375797302E+03  0.88037617444E+03  0.41800000000E+01 0. -1.
         -5    1    3    3    0  502  0.57580084267E+01  0.48485299152E+02 -0.16615610359E+03  0.17323193140E+03  0.41800000000E+01 0. -1.
        -11    1    1    2    0    0 -0.10225307053E+03  0.13802414159E+02 -0.13108359401E+03  0.16682057933E+03  0.00000000000E+00 0. -1.
         11    1    1    2    0    0 -0.88251537340E+01 -0.39940614223E+02 -0.66427349055E+02  0.78011080658E+02  0.00000000000E+00 0.  1.
</event>
<event>
 7    1  0.2841804E-009  0.6789949E+02  0.7561462E-02  0.1367385E+00
         -2   -1    0    0    0  501 -0.00000000000E+00  0.00000000000E+00  0.11758513780E+03  0.11758513780E+03  0.00000000000E+00 0.  1.
          2   -1    0    0  501    0  0.00000000000E+00 -0.00000000000E+00 -0.19093207098E+03  0.19093207098E+03  0.00000000000E+00 0. -1.
         25    2    1    2    0    0  0.50389073071E+00  0.16546739897E+02  0.64336141670E+02  0.14163468131E+03  0.12508874977E+03 0.  0.
          5    1    3    3  502    0 -0.13670557774E+02  0.48848565403E+02 -0.16363501514E+02  0.53463100112E+02  0.41800000000E+01 0. -1.
         -5    1    3    3    0  502  0.14174448504E+02 -0.32301825505E+02  0.80699643183E+02  0.88171581200E+02  0.41800000000E+01 0. -1.
        -11    1    1    2    0    0 -0.23045305711E+02 -0.34278687938E+01  0.32785746828E+01  0.23528396710E+02  0.00000000000E+00 0.  1.
         11    1    1    2    0    0  0.22541414981E+02 -0.13118871104E+02 -0.14096164953E+03  0.14335413076E+03  0.00000000000E+00 0. -1.
</event>
<event>
 7    1  0.2959288E-009  0.1057879E+03  0.7561462E-02  0.1268575E+00
          2   -1    0    0  501    0  0.00000000000E+00  0.00000000000E+00  0.21725830135E+03  0.21725830135E+03  0.00000000000E+00 0. -1.
         -2   -1    0    0    0  501 -0.00000000000E+00 -0.00000000000E+00 -0.93989437062E+02  0.93989437062E+02  0.00000000000E+00 0.  1.
         25    2    1    2    0    0  0.73257157958E+02 -0.99530703783E+01  0.61591491215E+01  0.14543706843E+03  0.12509328900E+03 0.  0.
          5    1    3    3  502    0  0.10352423612E+03 -0.16692506842E+01  0.27560299505E+02  0.10722451385E+03  0.41800000000E+01 0. -1.
         -5    1    3    3    0  502 -0.30267078163E+02 -0.82838196940E+01 -0.21401150383E+02  0.38212554572E+02  0.41800000000E+01 0. -1.
        -11    1    1    2    0    0 -0.39051312942E+02  0.14773852580E+02 -0.19925937610E+01  0.41800026225E+02  0.00000000000E+00 0.  1.
         11    1    1    2    0    0 -0.34205845016E+02 -0.48207822017E+01  0.11910230893E+03  0.12401064376E+03  0.00000000000E+00 0. -1.
</event>
<event>
 7    1  0.2841804E-009  0.1118940E+03  0.7561462E-02  0.1257102E+00
          1   -1    0    0  501    0  0.00000000000E+00  0.00000000000E+00  0.22727290021E+03  0.22727290021E+03  0.00000000000E+00 0. -1.
         -1   -1    0    0    0  501 -0.00000000000E+00 -0.00000000000E+00 -0.61810149863E+02  0.61810149863E+02  0.00000000000E+00 0.  1.
         25    2    1    2    0    0  0.29823439333E+02  0.22887240454E+02  0.13294224130E+03  0.18637250701E+03  0.12509120089E+03 0.  0.
          5    1    3    3  502    0  0.78685811931E+02  0.84226209840E+01  0.86299645854E+02  0.11716440935E+03  0.41800000000E+01 0.  1.
         -5    1    3    3    0  502 -0.48862372598E+02  0.14464619470E+02  0.46642595445E+02  0.69208097664E+02  0.41800000000E+01 0.  1.
        -11    1    1    2    0    0 -0.13032465324E+02  0.32776181143E+02  0.26781103816E+02  0.44287139491E+02  0.00000000000E+00 0.  1.
         11    1    1    2    0    0 -0.16790974009E+02 -0.55663421597E+02  0.57394052309E+01  0.58423403568E+02  0.00000000000E+00 0. -1.
</event>
<event>
 7    1  0.2841804E-009  0.3079996E+03  0.7561462E-02  0.1081309E+00
         -1   -1    0    0    0  501 -0.00000000000E+00  0.00000000000E+00  0.11096654681E+03  0.11096654681E+03  0.00000000000E+00 0.  1.
          1   -1    0    0  501    0  0.00000000000E+00 -0.00000000000E+00 -0.10449830530E+04  0.10449830530E+04  0.00000000000E+00 0. -1.
         25    2    1    2    0    0  0.17502097744E+02  0.29980251833E+03 -0.67343101548E+03  0.74789235447E+03  0.12508304380E+03 0.  0.
          5    1    3    3  502    0  0.10904893836E+02  0.16086759439E+02 -0.33215517195E+01  0.20154544020E+02  0.41800000000E+01 0.  1.
         -5    1    3    3    0  502  0.65972039083E+01  0.28371575889E+03 -0.67010946376E+03  0.72773781045E+03  0.41800000000E+01 0.  1.
        -11    1    1    2    0    0 -0.41251654474E+02 -0.69853213417E+02 -0.49647689733E+02  0.95110796008E+02  0.00000000000E+00 0. -1.
         11    1    1    2    0    0  0.23749556730E+02 -0.22994930491E+03 -0.21093780103E+03  0.31294644938E+03  0.00000000000E+00 0.  1.
</event>
<event>
 7    1  0.2841804E-009  0.1197043E+03  0.7561462E-02  0.1243586E+00
         -2   -1    0    0    0  501 -0.00000000000E+00  0.00000000000E+00  0.14788645799E+03  0.14788645799E+03  0.00000000000E+00 0.  1.
          2   -1    0    0  501    0  0.00000000000E+00 -0.00000000000E+00 -0.11781961885E+03  0.11781961885E+03  0.00000000000E+00 0. -1.
         25    2    1    2    0    0  0.53728815208E+02 -0.33325217837E+02  0.58242573019E+02  0.15177735142E+03  0.12508721503E+03 0.  0.
          5    1    3    3  502    0  0.88534579335E+02 -0.15001688629E+02  0.65932568180E+02  0.11148093266E+03  0.41800000000E+01 0.  1.
         -5    1    3    3    0  502 -0.34805764128E+02 -0.18323529207E+02 -0.76899951612E+01  0.40296418758E+02  0.41800000000E+01 0.  1.
        -11    1    1    2    0    0 -0.30582894277E+02  0.64352156612E+02 -0.13420184504E+02  0.72502516060E+02  0.00000000000E+00 0.  1.
         11    1    1    2    0    0 -0.23145920930E+02 -0.31026938775E+02 -0.14755549375E+02  0.41426209371E+02  0.00000000000E+00 0. -1.
</event>
<event>
 7    1  0.2841804E-009  0.8075464E+02  0.7561462E-02  0.1326923E+00
         -1   -1    0    0    0  501 -0.00000000000E+00  0.00000000000E+00  0.32651897228E+03  0.32651897228E+03  0.00000000000E+00 0.  1.
          1   -1    0    0  501    0  0.00000000000E+00 -0.00000000000E+00 -0.40736575352E+02  0.40736575352E+02  0.00000000000E+00 0. -1.
         25    2    1    2    0    0  0.31116353833E+02 -0.19531603957E+02  0.12684938449E+03  0.18189954422E+03  0.12508783639E+03 0.  0.
          5    1    3    3  502    0  0.37748051778E+02  0.22715795262E+02 -0.37508164069E+01  0.44412428341E+02  0.41800000000E+01 0. -1.
         -5    1    3    3    0  502 -0.66316979445E+01 -0.42247399218E+02  0.13060020090E+03  0.13748711588E+03  0.41800000000E+01 0. -1.
        -11    1    1    2    0    0 -0.12777146206E+02 -0.23922843068E+02  0.12328823968E+03  0.12623608014E+03  0.00000000000E+00 0.  1.
         11    1    1    2    0    0 -0.18339207628E+02  0.43454447025E+02  0.35644772753E+02  0.59119923269E+02  0.00000000000E+00 0. -1.
</event>
<event>
 7    1  0.2841804E-009  0.1196882E+03  0.7561462E-02  0.1243612E+00
          2   -1    0    0  501    0  0.00000000000E+00  0.00000000000E+00  0.99588958515E+03  0.99588958515E+03  0.00000000000E+00 0.  1.
         -2   -1    0    0    0  501 -0.00000000000E+00 -0.00000000000E+00 -0.24317764757E+02  0.24317764757E+02  0.00000000000E+00 0. -1.
         25    2    1    2    0    0 -0.74802603273E+01 -0.10411837766E+03  0.40111812878E+03  0.43294306323E+03  0.12508937565E+03 0.  0.
          5    1    3    3  502    0 -0.23424819361E+01 -0.11666225372E+02  0.28070014533E+03  0.28098333051E+03  0.41800000000E+01 0.  1.
         -5    1    3    3    0  502 -0.51377783912E+01 -0.92452152289E+02  0.12041798345E+03  0.15195973272E+03  0.41800000000E+01 0.  1.
        -11    1    1    2    0    0  0.45201460570E+02  0.43853528309E+02  0.18828243691E+03  0.19853609252E+03  0.00000000000E+00 0. -1.
         11    1    1    2    0    0 -0.37721200243E+02  0.60264849352E+02  0.38217125470E+03  0.38872819416E+03  0.00000000000E+00 0.  1.
</event>
<event>
 7    1  0.2841804E-009  0.1824656E+03  0.7561462E-02  0.1165438E+00
          2   -1    0    0  501    0  0.00000000000E+00  0.00000000000E+00  0.10331517902E+03  0.10331517902E+03  0.00000000000E+00 0. -1.
         -2   -1    0    0    0  501 -0.00000000000E+00 -0.00000000000E+00 -0.41135325078E+03  0.41135325078E+03  0.00000000000E+00 0.  1.
         25    2    1    2    0    0  0.11894722452E+03 -0.12844999048E+03 -0.14702200982E+03  0.26059978401E+03  0.12509569848E+03 0.  0.
          5    1    3    3  502    0  0.26475327162E+02 -0.12178528316E+02  0.21088903716E+02  0.36214275641E+02  0.41800000000E+01 0.  1.
         -5    1    3    3    0  502  0.92471897360E+02 -0.11627146216E+03 -0.16811091354E+03  0.22438550837E+03  0.41800000000E+01 0.  1.
        -11    1    1    2    0    0 -0.97713566109E+01  0.53643941361E+02 -0.14075301809E+02  0.56313994493E+02  0.00000000000E+00 0. -1.
         11    1    1    2    0    0 -0.10917586791E+03  0.74806049120E+02 -0.14694076014E+03  0.19775465129E+03  0.00000000000E+00 0.  1.
</event>
<event>
 7    1  0.2841804E-009  0.1211359E+03  0.7561462E-02  0.1241235E+00
         -2   -1    0    0    0  501 -0.00000000000E+00  0.00000000000E+00  0.50232183258E+02  0.50232183258E+02  0.00000000000E+00 0.  1.
          2   -1    0    0  501    0  0.00000000000E+00 -0.00000000000E+00 -0.70625369373E+03  0.70625369373E+03  0.00000000000E+00 0. -1.
         25    2    1    2    0    0 -0.37529245674E+02 -0.11067831137E+03 -0.15469516251E+03  0.23072858514E+03  0.12508778441E+03 0.  0.
          5    1    3    3  502    0  0.80233375766E+01 -0.38656749956E+02 -0.13824989261E+03  0.14383748979E+03  0.41800000000E+01 0.  1.
         -5    1    3    3    0  502 -0.45552583250E+02 -0.72021561410E+02 -0.16445269900E+02  0.86891095348E+02  0.41800000000E+01 0.  1.
        -11    1    1    2    0    0  0.31813517674E+02  0.10210091921E+03 -0.50390844218E+03  0.51513145479E+03  0.00000000000E+00 0. -1.
         11    1    1    2    0    0  0.57157279996E+01  0.85773921548E+01  0.25820942164E+01  0.10625837063E+02  0.00000000000E+00 0.  1.
</event>
<event>
 7    1  0.2841804E-009  0.9388229E+02  0.7561462E-02  0.1293713E+00
          4   -1    0    0  501    0  0.00000000000E+00  0.00000000000E+00  0.21016658505E+03  0.21016658505E+03  0.00000000000E+00 0. -1.
         -4   -1    0    0    0  501 -0.00000000000E+00 -0.00000000000E+00 -0.69996833306E+02  0.69996833306E+02  0.00000000000E+00 0.  1.
         25    2    1    2    0    0  0.40815755402E+02  0.30889153139E+02  0.10259051896E+03  0.16968228895E+03  0.12508876421E+03 0.  0.
          5    1    3    3  502    0  0.97084449810E+01 -0.40206170445E+02  0.75380278073E+00  0.41579209522E+02  0.41800000000E+01 0. -1.
         -5    1    3    3    0  502  0.31107310421E+02  0.71095323585E+02  0.10183671618E+03  0.12810307943E+03  0.41800000000E+01 0. -1.
        -11    1    1    2    0    0 -0.12801051600E+02 -0.37557746384E+02 -0.21228438381E+02  0.45001087005E+02  0.00000000000E+00 0.  1.
         11    1    1    2    0    0 -0.28014703802E+02  0.66685932450E+01  0.58807671168E+02  0.65480042403E+02  0.00000000000E+00 0. -1.
</event>
<event>
 7    1  0.2841804E-009  0.2518553E+03  0.7561462E-02  0.1112138E+00
         -1   -1    0    0    0  501 -0.00000000000E+00  0.00000000000E+00  0.19306611267E+03  0.19306611267E+03  0.00000000000E+00 0.  1.
          1   -1    0    0  501    0  0.00000000000E+00 -0.00000000000E+00 -0.35164468260E+03  0.35164468260E+03  0.00000000000E+00 0. -1.
         25    2    1    2    0    0  0.19103251415E+03  0.13562371421E+03 -0.27345191332E+02  0.26697677797E+03  0.12506649099E+03 0.  0.
          5    1    3    3  502    0  0.45686845314E+02 -0.21552387902E+02 -0.13264580766E+02  0.52394797089E+02  0.41800000000E+01 0.  1.
         -5    1    3    3    0  502  0.14534566883E+03  0.15717610211E+03 -0.14080610566E+02  0.21458198088E+03  0.41800000000E+01 0.  1.
        -11    1    1    2    0    0 -0.14798338008E+03 -0.78928837865E+02 -0.11865290817E+03  0.20544428647E+03  0.00000000000E+00 0. -1.
         11    1    1    2    0    0 -0.43049134070E+02 -0.56694876348E+02 -0.12580470422E+02  0.72289730836E+02  0.00000000000E+00 0.  1.
</event>
<event>
 7    1  0.2841804E-009  0.1986832E+03  0.7561462E-02  0.1150855E+00
          1   -1    0    0  501    0  0.00000000000E+00  0.00000000000E+00  0.10008910094E+03  0.10008910094E+03  0.00000000000E+00 0. -1.
         -1   -1    0    0    0  501 -0.00000000000E+00 -0.00000000000E+00 -0.40674732671E+03  0.40674732671E+03  0.00000000000E+00 0.  1.
         25    2    1    2    0    0  0.56293106261E+02 -0.15907279738E+03 -0.16304016816E+03  0.26589784851E+03  0.12508597336E+03 0.  0.
          5    1    3    3  502    0 -0.34888103520E+02 -0.74879297918E+02 -0.88175860599E+02  0.12089889915E+03  0.41800000000E+01 0. -1.
         -5    1    3    3    0  502  0.91181209781E+02 -0.84193499457E+02 -0.74864307562E+02  0.14499894936E+03  0.41800000000E+01 0. -1.
        -11    1    1    2    0    0  0.19233853653E+01  0.12077681437E+03 -0.11080562435E+03  0.16391651744E+03  0.00000000000E+00 0.  1.
         11    1    1    2    0    0 -0.58216491627E+02  0.38295983007E+02 -0.32812433260E+02  0.77022061698E+02  0.00000000000E+00 0. -1.
</event>
<event>
 7    1  0.2841804E-009  0.2121716E+03  0.7561462E-02  0.1139858E+00
         -2   -1    0    0    0  501 -0.00000000000E+00  0.00000000000E+00  0.29825445315E+03  0.29825445315E+03  0.00000000000E+00 0.  1.
          2   -1    0    0  501    0  0.00000000000E+00 -0.00000000000E+00 -0.24120352562E+03  0.24120352562E+03  0.00000000000E+00 0. -1.
         25    2    1    2    0    0  0.14509150953E+03  0.14530725530E+03  0.16356261847E+03  0.29080207704E+03  0.12508946106E+03 0.  0.
          5    1    3    3  502    0  0.48326738931E+02  0.52647914743E+02  0.13639030906E+03  0.15403592252E+03  0.41800000000E+01 0.  1.
         -5    1    3    3    0  502  0.96764770602E+02  0.92659340561E+02  0.27172309409E+02  0.13676615452E+03  0.41800000000E+01 0.  1.
        -11    1    1    2    0    0 -0.74222255840E+02 -0.12434385842E+03 -0.42595262046E+02  0.15094599941E+03  0.00000000000E+00 0.  1.
         11    1    1    2    0    0 -0.70869253693E+02 -0.20963396886E+02 -0.63916428891E+02  0.97709902314E+02  0.00000000000E+00 0. -1.
</event>
<event>
 7    1  0.2841804E-009  0.1858090E+03  0.7561462E-02  0.1162297E+00
         -3   -1    0    0    0  501 -0.00000000000E+00  0.00000000000E+00  0.14693642503E+04  0.14693642503E+04  0.00000000000E+00 0. -1.
          3   -1    0    0  501    0  0.00000000000E+00 -0.00000000000E+00 -0.25114302468E+02  0.25114302468E+02  0.00000000000E+00 0.  1.
         25    2    1    2    0    0 -0.83511748576E+02  0.33501172749E+01  0.58416768820E+03  0.60322952883E+03  0.12509412887E+03 0.  0.
          5    1    3    3  502    0 -0.10110479196E+03 -0.34419143848E+02  0.37627031075E+03  0.39115684267E+03  0.41800000000E+01 0. -1.
         -5    1    3    3    0  502  0.17593043381E+02  0.37769261123E+02  0.20789737745E+03  0.21207268615E+03  0.41800000000E+01 0. -1.
        -11    1    1    2    0    0 -0.72286039808E+01 -0.94186958457E+02  0.50280196168E+03  0.51159871826E+03  0.00000000000E+00 0. -1.
         11    1    1    2    0    0  0.90740352556E+02  0.90836841183E+02  0.35728029799E+03  0.37965030571E+03  0.00000000000E+00 0.  1.
</event>
<event>
 7    1  0.2841804E-009  0.1198092E+03  0.7561462E-02  0.1243412E+00
         -1   -1    0    0    0  501 -0.00000000000E+00  0.00000000000E+00  0.26076043235E+03  0.26076043235E+03  0.00000000000E+00 0.  1.
          1   -1    0    0  501    0  0.00000000000E+00 -0.00000000000E+00 -0.76868168596E+02  0.76868168596E+02  0.00000000000E+00 0. -1.
         25    2    1    2    0    0 -0.88625734517E+02 -0.66616088097E+01  0.11643491242E+03  0.19262944761E+03  0.12510042928E+03 0.  0.
          5    1    3    3  502    0 -0.76298777804E+02 -0.48290154457E+02  0.29019628264E+02  0.94937104108E+02  0.41800000000E+01 0. -1.
         -5    1    3    3    0  502 -0.12326956713E+02  0.41628545648E+02  0.87415284160E+02  0.97692343504E+02  0.41800000000E+01 0. -1.
        -11    1    1    2    0    0 -0.20699526965E+00 -0.14328733852E+02 -0.15886490680E+02  0.21394766813E+02  0.00000000000E+00 0. -1.
         11    1    1    2    0    0  0.88832729787E+02  0.20990342662E+02  0.83343842013E+02  0.12360438652E+03  0.00000000000E+00 0.  1.
</event>
<event>
 7    1  0.2841804E-009  0.3221234E+03  0.7561462E-02  0.1074676E+00
         -1   -1    0    0    0  501 -0.00000000000E+00  0.00000000000E+00  0.14522065882E+03  0.14522065882E+03  0.00000000000E+00 0.  1.
          1   -1    0    0  501    0  0.00000000000E+00 -0.00000000000E+00 -0.74520697687E+03  0.74520697687E+03  0.00000000000E+00 0. -1.
         25    2    1    2    0    0 -0.30782336751E+03 -0.97399649386E+01 -0.35040017288E+03  0.48298856756E+03  0.12509029835E+03 0.  0.
          5    1    3    3  502    0 -0.29518260455E+03 -0.31881701035E+02 -0.28051036265E+03  0.40847613008E+03  0.41800000000E+01 0.  1.
         -5    1    3    3    0  502 -0.12640762955E+02  0.22141736097E+02 -0.69889810235E+02  0.74512437486E+02  0.41800000000E+01 0.  1.
        -11    1    1    2    0    0  0.27482288264E+03  0.38751969323E+02 -0.20686022649E+03  0.34615095732E+03  0.00000000000E+00 0. -1.
         11    1    1    2    0    0  0.33000484867E+02 -0.29012004384E+02 -0.42725918679E+02  0.61288110811E+02  0.00000000000E+00 0.  1.
</event>
<event>
 7    1  0.2841804E-009  0.1215697E+03  0.7561462E-02  0.1240530E+00
          2   -1    0    0  501    0  0.00000000000E+00  0.00000000000E+00  0.60073875835E+02  0.60073875835E+02  0.00000000000E+00 0. -1.
         -2   -1    0    0    0  501 -0.00000000000E+00 -0.00000000000E+00 -0.33960934853E+03  0.33960934853E+03  0.00000000000E+00 0.  1.
         25    2    1    2    0    0  0.59769570901E+02  0.25387582432E+02 -0.24759862562E+03  0.28490253892E+03  0.12508975308E+03 0.  0.
          5    1    3    3  502    0  0.54819451410E+02  0.70097359937E+02 -0.11936639361E+03  0.14894502492E+03  0.41800000000E+01 0. -1.
         -5    1    3    3    0  502  0.49501194911E+01 -0.44709777506E+02 -0.12823223201E+03  0.13595751400E+03  0.41800000000E+01 0. -1.
        -11    1    1    2    0    0 -0.49372190729E+02 -0.57110611517E+02 -0.30331367297E+02  0.81358632039E+02  0.00000000000E+00 0.  1.
         11    1    1    2    0    0 -0.10397380173E+02  0.31723029085E+02 -0.16054797763E+01  0.33422053409E+02  0.00000000000E+00 0. -1.
</event>
<event>
 7    1  0.2841804E-009  0.1026251E+03  0.7561462E-02  0.1274871E+00
          1   -1    0    0  501    0  0.00000000000E+00  0.00000000000E+00  0.21910076874E+03  0.21910076874E+03  0.00000000000E+00 0. -1.
         -1   -1    0    0    0  501 -0.00000000000E+00 -0.00000000000E+00 -0.67125184911E+02  0.67125184911E+02  0.00000000000E+00 0.  1.
         25    2    1    2    0    0  0.27122484514E+02 -0.44745570892E+02  0.69689274193E+02  0.15244961588E+03  0.12508595111E+03 0.  0.
          5    1    3    3  502    0  0.33122064561E+02  0.38693971651E+02  0.34132383396E+02  0.61455566055E+02  0.41800000000E+01 0. -1.
         -5    1    3    3    0  502 -0.59995800463E+01 -0.83439542543E+02  0.35556890797E+02  0.90994049825E+02  0.41800000000E+01 0. -1.
        -11    1    1    2    0    0 -0.23043121928E+02 -0.23051165920E+01 -0.13624350888E+02  0.26868605618E+02  0.00000000000E+00 0.  1.
         11    1    1    2    0    0 -0.40793625859E+01  0.47050687484E+02  0.95910660529E+02  0.10690773216E+03  0.00000000000E+00 0. -1.
</event>
<event>
 7    1  0.2841804E-009  0.8062743E+02  0.7561462E-02  0.1327280E+00
         -1   -1    0    0    0  501 -0.00000000000E+00  0.00000000000E+00  0.30396652980E+03  0.30396652980E+03  0.00000000000E+00 0.  1.
          1   -1    0    0  501    0  0.00000000000E+00 -0.00000000000E+00 -0.44628873887E+02  0.44628873887E+02  0.00000000000E+00 0. -1.
         25    2    1    2    0    0  0.30800362039E+02  0.32030164172E+02  0.16090562686E+03  0.20859657057E+03  0.12508922727E+03 0.  0.
          5    1    3    3  502    0 -0.45518752507E+01 -0.67161708240E+01 -0.19040831972E+02  0.21115212550E+02  0.41800000000E+01 0. -1.
         -5    1    3    3    0  502  0.35352237290E+02  0.38746334996E+02  0.17994645884E+03  0.18748135802E+03  0.41800000000E+01 0. -1.
        -11    1    1    2    0    0 -0.61219532970E+02 -0.32029327953E+02  0.66456771302E+02  0.95865590897E+02  0.00000000000E+00 0. -1.
         11    1    1    2    0    0  0.30419170931E+02 -0.83621849670E-03  0.31975257744E+02  0.44133242218E+02  0.00000000000E+00 0.  1.
</event>
<event>
 7    1  0.2841804E-009  0.1165135E+03  0.7561462E-02  0.1248962E+00
         -4   -1    0    0    0  501 -0.00000000000E+00  0.00000000000E+00  0.37117212891E+02  0.37117212891E+02  0.00000000000E+00 0.  1.
          4   -1    0    0  501    0  0.00000000000E+00 -0.00000000000E+00 -0.62103666075E+03  0.62103666075E+03  0.00000000000E+00 0. -1.
         25    2    1    2    0    0  0.61724640494E+02 -0.46724738088E+02 -0.47304438561E+03  0.49539237141E+03  0.12509787571E+03 0.  0.
          5    1    3    3  502    0  0.52964820892E+01 -0.73666286278E+02 -0.16190250472E+03  0.17800187608E+03  0.41800000000E+01 0.  1.
         -5    1    3    3    0  502  0.56428158405E+02  0.26941548190E+02 -0.31114188089E+03  0.31739049533E+03  0.41800000000E+01 0.  1.
        -11    1    1    2    0    0  0.29751411840E+01 -0.99410793153E+01  0.10000040933E+02  0.14411014595E+02  0.00000000000E+00 0.  1.
         11    1    1    2    0    0 -0.64699781678E+02  0.56665817403E+02 -0.12087510318E+03  0.14835048763E+03  0.00000000000E+00 0. -1.
</event>
<event>
 6    1  0.2841804E-009  0.1122564E+03  0.7561462E-02  0.1256448E+00
         -2   -1    0    0    0  501 -0.00000000000E+00  0.00000000000E+00  0.80451032384E+02  0.80451032384E+02  0.00000000000E+00 0. -1.
          2   -1    0    0  501    0  0.00000000000E+00 -0.00000000000E+00 -0.28024875307E+03  0.28024875307E+03  0.00000000000E+00 0.  1.
          5    1    1    2  502    0  0.97419453310E+02  0.14718965947E+02 -0.13421586781E+03  0.16654900004E+03  0.41800000000E+01 0. -1.
         -5    1    1    2    0  502 -0.35508106054E+02  0.30977622247E+02 -0.50353025334E+02  0.69089349656E+02  0.41800000000E+01 0. -1.
        -11    1    1    2    0    0 -0.45626601398E+02 -0.24270550699E+02 -0.56004061115E+02  0.76205651023E+02  0.00000000000E+00 0.  1.
         11    1    1    2    0    0 -0.16284745858E+02 -0.21426037495E+02  0.40775233567E+02  0.48855784743E+02  0.00000000000E+00 0. -1.
</event>
<event>
 7    1  0.2841804E-009  0.3860724E+03  0.7561462E-02  0.1048712E+00
         -2   -1    0    0    0  501 -0.00000000000E+00  0.00000000000E+00  0.46828457795E+02  0.46828457795E+02  0.00000000000E+00 0. -1.
          2   -1    0    0  501    0  0.00000000000E+00 -0.00000000000E+00 -0.34028640930E+04  0.34028640930E+04  0.00000000000E+00 0.  1.
         25    2    1    2    0    0 -0.22904735068E+03  0.30379449822E+03 -0.14769966998E+04  0.15303332468E+04  0.12508720584E+03 0.  0.
          5    1    3    3  502    0 -0.18340816722E+03  0.25118067008E+03 -0.97241282954E+03  0.10209478284E+04  0.41800000000E+01 0. -1.
         -5    1    3    3    0  502 -0.45639183459E+02  0.52613828133E+02 -0.50458387021E+03  0.50938541838E+03  0.41800000000E+01 0. -1.
        -11    1    1    2    0    0  0.22543605156E+03 -0.24697518617E+03 -0.15985311430E+04  0.16331319515E+04  0.00000000000E+00 0. -1.
         11    1    1    2    0    0  0.36112991211E+01 -0.56819312050E+02 -0.28050779253E+03  0.28622735259E+03  0.00000000000E+00 0.  1.
</event>
<event>
 7    1  0.2841804E-009  0.1951748E+03  0.7561462E-02  0.1153875E+00
         -1   -1    0    0    0  501 -0.00000000000E+00  0.00000000000E+00  0.14269435112E+03  0.14269435112E+03  0.00000000000E+00 0.  1.
          1   -1    0    0  501    0  0.00000000000E+00 -0.00000000000E+00 -0.32713537997E+03  0.32713537997E+03  0.00000000000E+00 0. -1.
         25    2    1    2    0    0  0.13185615482E+03 -0.11914604708E+03 -0.16251316411E+03  0.27136735669E+03  0.12509151717E+03 0.  0.
          5    1    3    3  502    0  0.20581614622E+02 -0.85991209968E+02 -0.11670855208E+03  0.14648020201E+03  0.41800000000E+01 0.  1.
         -5    1    3    3    0  502  0.11127454020E+03 -0.33154837107E+02 -0.45804612029E+02  0.12488715468E+03  0.41800000000E+01 0.  1.
        -11    1    1    2    0    0 -0.12058817477E+03  0.79513187492E+02 -0.44934154512E+02  0.15127105844E+03  0.00000000000E+00 0. -1.
         11    1    1    2    0    0 -0.11267980051E+02  0.39632859584E+02  0.23006289776E+02  0.47191315965E+02  0.00000000000E+00 0.  1.
</event>
<event>
 7    1  0.2841804E-009  0.1819035E+03  0.7561462E-02  0.1165973E+00
          2   -1    0    0  501    0  0.00000000000E+00  0.00000000000E+00  0.16228804777E+04  0.16228804777E+04  0.00000000000E+00 0. -1.
         -2   -1    0    0    0  501 -0.00000000000E+00 -0.00000000000E+00 -0.20540382745E+02  0.20540382745E+02  0.00000000000E+00 0.  1.
         25    2    1    2    0    0 -0.14008791042E+03  0.41333678638E+02  0.80259896640E+03  0.82531555167E+03  0.12509022074E+03 0.  0.
          5    1    3    3  502    0  0.22910259538E+02  0.10576748882E+02  0.13531589164E+03  0.13771205662E+03  0.41800000000E+01 0. -1.
         -5    1    3    3    0  502 -0.16299816995E+03  0.30756929756E+02  0.66728307477E+03  0.68760349505E+03  0.41800000000E+01 0. -1.
        -11    1    1    2    0    0  0.71350123032E+02  0.26134209784E+02  0.36389646343E+03  0.37174517223E+03  0.00000000000E+00 0. -1.
         11    1    1    2    0    0  0.68737787384E+02 -0.67467888421E+02  0.43584466514E+03  0.44636013656E+03  0.00000000000E+00 0.  1.
</event>
<event>
 7    1  0.2841804E-009  0.8683508E+02  0.7561462E-02  0.1310702E+00
          3   -1    0    0  501    0  0.00000000000E+00  0.00000000000E+00  0.22957386913E+03  0.22957386913E+03  0.00000000000E+00 0. -1.
         -3   -1    0    0    0  501 -0.00000000000E+00 -0.00000000000E+00 -0.71985463861E+02  0.71985463861E+02  0.00000000000E+00 0.  1.
         25    2    1    2    0    0 -0.64588983291E+02 -0.21445780585E+01  0.11819407013E+03  0.18383056501E+03  0.12508997738E+03 0.  0.
          5    1    3    3  502    0 -0.11814441756E+02  0.27978993963E+01 -0.26624828386E+02  0.29559485138E+02  0.41800000000E+01 0. -1.
         -5    1    3    3    0  502 -0.52774541535E+02 -0.49424774548E+01  0.14481889851E+03  0.15427107987E+03  0.41800000000E+01 0. -1.
        -11    1    1    2    0    0  0.36528661594E+02  0.44050952731E+02  0.66809841437E+01  0.57614799344E+02  0.00000000000E+00 0.  1.
         11    1    1    2    0    0  0.28060321697E+02 -0.41906374672E+02  0.32713350997E+02  0.60113968638E+02  0.00000000000E+00 0. -1.
</event>
<event>
 7    1  0.2841804E-009  0.1447986E+03  0.7561462E-02  0.1207014E+00
         -1   -1    0    0    0  501 -0.00000000000E+00  0.00000000000E+00  0.11517671140E+03  0.11517671140E+03  0.00000000000E+00 0.  1.
          1   -1    0    0  501    0  0.00000000000E+00 -0.00000000000E+00 -0.20425083897E+03  0.20425083897E+03  0.00000000000E+00 0. -1.
         25    2    1    2    0    0 -0.94675972597E+02 -0.35556467118E+02 -0.89664588827E+01  0.16110740381E+03  0.12508955207E+03 0.  0.
          5    1    3    3  502    0 -0.44304743121E+02 -0.77752122819E+02  0.15400716507E+02  0.90900810419E+02  0.41800000000E+01 0.  1.
         -5    1    3    3    0  502 -0.50371229476E+02  0.42195655701E+02 -0.24367175390E+02  0.70206593390E+02  0.41800000000E+01 0.  1.
        -11    1    1    2    0    0  0.10671446030E+03  0.11582079346E+02 -0.51347721777E+02  0.11899037411E+03  0.00000000000E+00 0. -1.
         11    1    1    2    0    0 -0.12038487705E+02  0.23974387772E+02 -0.28759946907E+02  0.39329772455E+02  0.00000000000E+00 0.  1.
</event>
<event>
 7    1  0.2841804E-009  0.1283064E+03  0.7561462E-02  0.1229991E+00
          2   -1    0    0  501    0  0.00000000000E+00  0.00000000000E+00  0.97277129369E+02  0.97277129369E+02  0.00000000000E+00 0. -1.
         -2   -1    0    0    0  501 -0.00000000000E+00 -0.00000000000E+00 -0.18711813946E+03  0.18711813946E+03  0.00000000000E+00 0.  1.
         25    2    1    2    0    0  0.92343174957E+01  0.73736409803E+02 -0.81668037346E+02  0.16685142747E+03  0.12508956701E+03 0.  0.
          5    1    3    3  502    0  0.31824185538E+02  0.10322750767E+03 -0.61634751177E+02  0.12443878848E+03  0.41800000000E+01 0. -1.
         -5    1    3    3    0  502 -0.22589868043E+02 -0.29491097866E+02 -0.20033286169E+02  0.42412638991E+02  0.41800000000E+01 0. -1.
        -11    1    1    2    0    0 -0.43416157015E+02 -0.60512570887E+02  0.12418796178E+02  0.75504704647E+02  0.00000000000E+00 0. -1.
         11    1    1    2    0    0  0.34181839519E+02 -0.13223838915E+02 -0.20591768927E+02  0.42039136719E+02  0.00000000000E+00 0.  1.
</event>
<event>
 7    1  0.2841804E-009  0.1554471E+03  0.7561462E-02  0.1193935E+00
         -2   -1    0    0    0  501 -0.00000000000E+00  0.00000000000E+00  0.27712981934E+02  0.27712981934E+02  0.00000000000E+00 0. -1.
          2   -1    0    0  501    0  0.00000000000E+00 -0.00000000000E+00 -0.96531821702E+03  0.96531821702E+03  0.00000000000E+00 0.  1.
         25    2    1    2    0    0  0.12184610770E+03  0.58874977874E+01 -0.49003121321E+03  0.52024903918E+03  0.12508931311E+03 0.  0.
          5    1    3    3  502    0  0.73953617928E+02  0.64881189849E+02 -0.26554486411E+03  0.28321414805E+03  0.41800000000E+01 0.  1.
         -5    1    3    3    0  502  0.47892489774E+02 -0.58993692061E+02 -0.22448634910E+03  0.23703489113E+03  0.41800000000E+01 0.  1.
        -11    1    1    2    0    0 -0.78968587940E+02 -0.33007444872E+02 -0.16697122977E+03  0.18762974410E+03  0.00000000000E+00 0. -1.
         11    1    1    2    0    0 -0.42877519763E+02  0.27119947084E+02 -0.28060279210E+03  0.28515241568E+03  0.00000000000E+00 0.  1.
</event>
<event>
 7    1  0.2841804E-009  0.1253752E+03  0.7561462E-02  0.1234484E+00
          3   -1    0    0  501    0  0.00000000000E+00  0.00000000000E+00  0.28219766371E+03  0.28219766371E+03  0.00000000000E+00 0. -1.
         -3   -1    0    0    0  501 -0.00000000000E+00 -0.00000000000E+00 -0.69603176628E+02  0.69603176628E+02  0.00000000000E+00 0.  1.
         25    2    1    2    0    0  0.67790187381E+02 -0.43915370499E+02  0.13020065393E+03  0.19779223152E+03  0.12508192233E+03 0.  0.
          5    1    3    3  502    0  0.62189832871E+02 -0.81561876134E+02  0.62982005974E+02  0.12043305372E+03  0.41800000000E+01 0.  1.
         -5    1    3    3    0  502  0.56003545102E+01  0.37646505635E+02  0.67218647958E+02  0.77359177804E+02  0.41800000000E+01 0.  1.
        -11    1    1    2    0    0 -0.28027805075E+02  0.60538488940E+02  0.68847707536E+01  0.67066135783E+02  0.00000000000E+00 0.  1.
         11    1    1    2    0    0 -0.39762382306E+02 -0.16623118441E+02  0.75509062395E+02  0.86942473033E+02  0.00000000000E+00 0. -1.
</event>
<event>
 7    1  0.2841804E-009  0.1108402E+03  0.7561462E-02  0.1259022E+00
         -2   -1    0    0    0  501 -0.00000000000E+00  0.00000000000E+00  0.30426848900E+03  0.30426848900E+03  0.00000000000E+00 0.  1.
          2   -1    0    0  501    0  0.00000000000E+00 -0.00000000000E+00 -0.13274787917E+03  0.13274787917E+03  0.00000000000E+00 0. -1.
         25    2    1    2    0    0 -0.10525881700E+03 -0.28955407615E+02 -0.50369987707E+02  0.17350113426E+03  0.12509066208E+03 0.  0.
          5    1    3    3  502    0 -0.73522513123E+02 -0.29344116394E+02  0.31725274950E+02  0.85385025464E+02  0.41800000000E+01 0.  1.
         -5    1    3    3    0  502 -0.31736303879E+02  0.38870877850E+00 -0.82095262657E+02  0.88116108795E+02  0.41800000000E+01 0.  1.
        -11    1    1    2    0    0  0.52895630337E+02  0.23051838260E+02  0.19692713804E+03  0.20520631728E+03  0.00000000000E+00 0.  1.
         11    1    1    2    0    0  0.52363186665E+02  0.59035693554E+01  0.24963459494E+02  0.58308916632E+02  0.00000000000E+00 0. -1.
</event>
<event>
 7    1  0.2841804E-009  0.1136864E+03  0.7561462E-02  0.1253892E+00
         -2   -1    0    0    0  501 -0.00000000000E+00  0.00000000000E+00  0.20536456818E+02  0.20536456818E+02  0.00000000000E+00 0. -1.
          2   -1    0    0  501    0  0.00000000000E+00 -0.00000000000E+00 -0.79044022185E+03  0.79044022185E+03  0.00000000000E+00 0.  1.
         25    2    1    2    0    0  0.68898132208E+02 -0.80232506314E+01 -0.41326737053E+03  0.43731992424E+03  0.12508985336E+03 0.  0.
          5    1    3    3  502    0  0.67866742842E+02 -0.57534229672E+02 -0.21086052626E+03  0.22890110594E+03  0.41800000000E+01 0.  1.
         -5    1    3    3    0  502  0.10313893658E+01  0.49510979041E+02 -0.20240684428E+03  0.20841881829E+03  0.41800000000E+01 0.  1.
        -11    1    1    2    0    0 -0.67858264704E+02 -0.11695205726E+02 -0.34254738115E+03  0.34939981434E+03  0.00000000000E+00 0.  1.
         11    1    1    2    0    0 -0.10398675044E+01  0.19718456357E+02 -0.14089013342E+02  0.24256940089E+02  0.00000000000E+00 0. -1.
</event>
<event>
 7    1  0.2841804E-009  0.1409325E+03  0.7561462E-02  0.1212080E+00
          1   -1    0    0  501    0  0.00000000000E+00  0.00000000000E+00  0.11411254960E+03  0.11411254960E+03  0.00000000000E+00 0. -1.
         -1   -1    0    0    0  501 -0.00000000000E+00 -0.00000000000E+00 -0.25970876603E+03  0.25970876603E+03  0.00000000000E+00 0.  1.
         25    2    1    2    0    0 -0.39718472739E+02  0.10001880732E+03  0.55956685986E+01  0.16510629373E+03  0.12508979906E+03 0.  0.
          5    1    3    3  502    0  0.37809038349E+02  0.44931264141E+02 -0.26613559949E+02  0.64607243025E+02  0.41800000000E+01 0.  1.
         -5    1    3    3    0  502 -0.77527511088E+02  0.55087543184E+02  0.32209228548E+02  0.10049905071E+03  0.41800000000E+01 0.  1.
        -11    1    1    2    0    0  0.57468594995E+02 -0.91636756012E+02 -0.79111543861E+02  0.13400959233E+03  0.00000000000E+00 0.  1.
         11    1    1    2    0    0 -0.17750122256E+02 -0.83820513128E+01 -0.72080341165E+02  0.74705429567E+02  0.00000000000E+00 0. -1.
</event>
<event>
 7    1  0.3476587E-009  0.1296939E+03  0.7561462E-02  0.1227911E+00
          1   -1    0    0  501    0  0.00000000000E+00  0.00000000000E+00  0.47375315127E+03  0.47375315127E+03  0.00000000000E+00 0. -1.
         -1   -1    0    0    0  501 -0.00000000000E+00 -0.00000000000E+00 -0.59482231529E+02  0.59482231529E+02  0.00000000000E+00 0.  1.
         25    2    1    2    0    0 -0.39999563493E+02 -0.10231042060E+03  0.11804007376E+03  0.20407862435E+03  0.12508892300E+03 0.  0.
          5    1    3    3  502    0  0.20878181721E+02 -0.80047589196E+02  0.11134982782E+03  0.13877957906E+03  0.41800000000E+01 0.  1.
         -5    1    3    3    0  502 -0.60877745214E+02 -0.22262831408E+02  0.66902459416E+01  0.65299045287E+02  0.41800000000E+01 0.  1.
        -11    1    1    2    0    0  0.28935309543E+02  0.46982280934E+02  0.43664462134E+02  0.70364565752E+02  0.00000000000E+00 0.  1.
         11    1    1    2    0    0  0.11064253950E+02  0.55328139670E+02  0.25256638384E+03  0.25879219270E+03  0.00000000000E+00 0. -1.
</event>
<event>
 7    1  0.2841804E-009  0.1938758E+03  0.7561462E-02  0.1155011E+00
          3   -1    0    0  501    0  0.00000000000E+00  0.00000000000E+00  0.29477651333E+03  0.29477651333E+03  0.00000000000E+00 0. -1.
         -3   -1    0    0    0  501 -0.00000000000E+00 -0.00000000000E+00 -0.14854353964E+03  0.14854353964E+03  0.00000000000E+00 0.  1.
         25    2    1    2    0    0 -0.33007965369E+02 -0.16195530887E+03  0.14635599276E+03  0.25374601670E+03  0.12509163252E+03 0.  0.
          5    1    3    3  502    0  0.37848419788E+02 -0.10170864547E+03  0.49343201753E+02  0.11928694565E+03  0.41800000000E+01 0. -1.
         -5    1    3    3    0  502 -0.70856385157E+02 -0.60246663400E+02  0.97012791007E+02  0.13445907105E+03  0.41800000000E+01 0. -1.
        -11    1    1    2    0    0 -0.19200776019E+02  0.11252424741E+03  0.17664482307E+02  0.11550935023E+03  0.00000000000E+00 0.  1.
         11    1    1    2    0    0  0.52208741388E+02  0.49431061461E+02 -0.17787501373E+02  0.74064686049E+02  0.00000000000E+00 0. -1.
</event>
<event>
 7    1  0.2841804E-009  0.6000492E+02  0.7561462E-02  0.1397811E+00
         -2   -1    0    0    0  501 -0.00000000000E+00  0.00000000000E+00  0.15072279810E+03  0.15072279810E+03  0.00000000000E+00 0.  1.
          2   -1    0    0  501    0  0.00000000000E+00 -0.00000000000E+00 -0.78423419206E+02  0.78423419206E+02  0.00000000000E+00 0. -1.
         25    2    1    2    0    0 -0.54160900591E+02  0.11809433407E+02  0.60136142735E+02  0.14946717396E+03  0.12510481429E+03 0.  0.
          5    1    3    3  502    0 -0.19490479613E+02  0.18667237240E+02 -0.37017038151E+02  0.46000848418E+02  0.41800000000E+01 0. -1.
         -5    1    3    3    0  502 -0.34670420978E+02 -0.68578038323E+01  0.97153180886E+02  0.10346632554E+03  0.41800000000E+01 0. -1.
        -11    1    1    2    0    0  0.18210785067E+02 -0.10747885809E+02  0.32189384315E+02  0.38513714501E+02  0.00000000000E+00 0.  1.
         11    1    1    2    0    0  0.35950115525E+02 -0.10615475984E+01 -0.20026148152E+02  0.41165328850E+02  0.00000000000E+00 0. -1.
</event>
<event>
 7    1  0.2841804E-009  0.1434658E+03  0.7561462E-02  0.1208740E+00
          2   -1    0    0  501    0  0.00000000000E+00  0.00000000000E+00  0.17379301992E+04  0.17379301992E+04  0.00000000000E+00 0. -1.
         -2   -1    0    0    0  501 -0.00000000000E+00 -0.00000000000E+00 -0.18532937525E+02  0.18532937525E+02  0.00000000000E+00 0.  1.
         25    2    1    2    0    0  0.11900722783E+03  0.30924068555E+02  0.12537348757E+04  0.12659457680E+04  0.12509408728E+03 0.  0.
          5    1    3    3  502    0  0.19190651720E+02 -0.13236170657E+02  0.34613754126E+02  0.41941169533E+02  0.41800000000E+01 0.  1.
         -5    1    3    3    0  502  0.99816576114E+02  0.44160239212E+02  0.12191211216E+04  0.12240045985E+04  0.41800000000E+01 0.  1.
        -11    1    1    2    0    0 -0.94035457984E+02  0.21044460428E+02  0.30146716214E+03  0.31649326457E+03  0.00000000000E+00 0.  1.
         11    1    1    2    0    0 -0.24971769850E+02 -0.51968528983E+02  0.16419522376E+03  0.17402410408E+03  0.00000000000E+00 0. -1.
</event>
<event>
 7    1  0.2841804E-009  0.1370377E+03  0.7561462E-02  0.1217371E+00
         -1   -1    0    0    0  501 -0.00000000000E+00  0.00000000000E+00  0.17718555564E+03  0.17718555564E+03  0.00000000000E+00 0.  1.
          1   -1    0    0  501    0  0.00000000000E+00 -0.00000000000E+00 -0.12153591825E+03  0.12153591825E+03  0.00000000000E+00 0. -1.
         25    2    1    2    0    0  0.80247509156E+02 -0.49547229857E+02  0.57485005473E+02  0.16687327175E+03  0.12509025645E+03 0.  0.
          5    1    3    3  502    0 -0.20261214029E+02  0.14487091253E+02 -0.12945239556E+02  0.28380349436E+02  0.41800000000E+01 0.  1.
         -5    1    3    3    0  502  0.10050872318E+03 -0.64034321110E+02  0.70430245029E+02  0.13849292231E+03  0.41800000000E+01 0.  1.
        -11    1    1    2    0    0 -0.56539359694E+02  0.75563168894E+02  0.95459598681E+01  0.94855769659E+02  0.00000000000E+00 0.  1.
         11    1    1    2    0    0 -0.23708149462E+02 -0.26015939037E+02 -0.11381327950E+02  0.36992432480E+02  0.00000000000E+00 0. -1.
</event>
<event>
 7    1  0.2841804E-009  0.9947808E+02  0.7561462E-02  0.1281397E+00
          1   -1    0    0  501    0  0.00000000000E+00  0.00000000000E+00  0.12787666254E+03  0.12787666254E+03  0.00000000000E+00 0. -1.
         -1   -1    0    0    0  501 -0.00000000000E+00 -0.00000000000E+00 -0.12627752690E+03  0.12627752690E+03  0.00000000000E+00 0.  1.
         25    2    1    2    0    0  0.20808580768E+02  0.53371372208E+02 -0.25393025870E+02  0.13990464462E+03  0.12508798271E+03 0.  0.
          5    1    3    3  502    0  0.77411098052E+01 -0.41123986608E+02 -0.62075074629E+01  0.42510147076E+02  0.41800000000E+01 0.  1.
         -5    1    3    3    0  502  0.13067470962E+02  0.94495358815E+02 -0.19185518407E+02  0.97394497543E+02  0.41800000000E+01 0.  1.
        -11    1    1    2    0    0  0.23828682295E+01 -0.23391429547E+02 -0.34657303851E+02  0.41880374252E+02  0.00000000000E+00 0. -1.
         11    1    1    2    0    0 -0.23191448997E+02 -0.29979942660E+02  0.61649465366E+02  0.72369170566E+02  0.00000000000E+00 0.  1.
</event>
<event>
 7    1  0.2841804E-009  0.6437102E+02  0.7561462E-02  0.1380353E+00
          2   -1    0    0  501    0  0.00000000000E+00  0.00000000000E+00  0.45074996144E+02  0.45074996144E+02  0.00000000000E+00 0. -1.
         -2   -1    0    0    0  501 -0.00000000000E+00 -0.00000000000E+00 -0.36176197891E+03  0.36176197891E+03  0.00000000000E+00 0.  1.
         25    2    1    2    0    0  0.11222163430E+02 -0.57445492377E+02 -0.22158340812E+03  0.26109881849E+03  0.12508982659E+03 0.  0.
          5    1    3    3  502    0  0.14989961075E+02 -0.33163028961E+02 -0.23142045650E+03  0.23430191103E+03  0.41800000000E+01 0. -1.
         -5    1    3    3    0  502 -0.37677976453E+01 -0.24282463417E+02  0.98370483839E+01  0.26796907463E+02  0.41800000000E+01 0. -1.
        -11    1    1    2    0    0  0.98872441798E+01  0.35004616756E+02  0.87493539937E+01  0.37411655764E+02  0.00000000000E+00 0. -1.
         11    1    1    2    0    0 -0.21109407610E+02  0.22440875621E+02 -0.10385292864E+03  0.10832650080E+03  0.00000000000E+00 0.  1.
</event>
<event>
 7    1  0.2841804E-009  0.1160426E+03  0.7561462E-02  0.1249772E+00
          2   -1    0    0  501    0  0.00000000000E+00  0.00000000000E+00  0.10773459880E+04  0.10773459880E+04  0.00000000000E+00 0. -1.
         -2   -1    0    0    0  501 -0.00000000000E+00 -0.00000000000E+00 -0.14003778896E+02  0.14003778896E+02  0.00000000000E+00 0.  1.
         25    2    1    2    0    0 -0.23528312309E+02  0.50287289351E+02  0.67571239965E+03  0.68943323365E+03  0.12509413920E+03 0.  0.
          5    1    3    3  502    0  0.43716265766E+02  0.75761382599E+00  0.36616964863E+03  0.36879448186E+03  0.41800000000E+01 0.  1.
         -5    1    3    3    0  502 -0.67244578075E+02  0.49529675525E+02  0.30954275102E+03  0.32063875179E+03  0.41800000000E+01 0.  1.
        -11    1    1    2    0    0  0.51446228631E+02 -0.54642674610E+01  0.15644404613E+03  0.16477655243E+03  0.00000000000E+00 0.  1.
         11    1    1    2    0    0 -0.27917916321E+02 -0.44823021890E+02  0.23118576329E+03  0.23713998080E+03  0.00000000000E+00 0. -1.
</event>
<event>
 7    1  0.2841804E-009  0.1981790E+03  0.7561462E-02  0.1151285E+00
         -2   -1    0    0    0  501 -0.00000000000E+00  0.00000000000E+00  0.12944565914E+03  0.12944565914E+03  0.00000000000E+00 0.  1.
          2   -1    0    0  501    0  0.00000000000E+00 -0.00000000000E+00 -0.37494513200E+03  0.37494513200E+03  0.00000000000E+00 0. -1.
         25    2    1    2    0    0  0.11450545704E+03 -0.12779844816E+03 -0.22809820613E+03  0.31164356578E+03  0.12509587285E+03 0.  0.
          5    1    3    3  502    0  0.55248905955E+02 -0.14032512339E+03 -0.17432169777E+03  0.23054090435E+03  0.41800000000E+01 0. -1.
         -5    1    3    3    0  502  0.59256551086E+02  0.12526675233E+02 -0.53776508355E+02  0.81102661423E+02  0.41800000000E+01 0. -1.
        -11    1    1    2    0    0 -0.34440901822E+02  0.89756744235E+02 -0.35118970467E+02  0.10235131138E+03  0.00000000000E+00 0. -1.
         11    1    1    2    0    0 -0.80064555218E+02  0.38041703927E+02  0.17717703735E+02  0.90395913987E+02  0.00000000000E+00 0.  1.
</event>
<event>
 7    1  0.2841804E-009  0.1833388E+03  0.7561462E-02  0.1164610E+00
         -3   -1    0    0    0  501 -0.00000000000E+00  0.00000000000E+00  0.51662107772E+03  0.51662107772E+03  0.00000000000E+00 0.  1.
          3   -1    0    0  501    0  0.00000000000E+00 -0.00000000000E+00 -0.13830115044E+03  0.13830115044E+03  0.00000000000E+00 0. -1.
         25    2    1    2    0    0 -0.10959551691E+03  0.13225283284E+03 -0.19031193062E+02  0.21332990196E+03  0.12508185975E+03 0.  0.
          5    1    3    3  502    0 -0.17139020308E+02  0.45745596756E+02 -0.62462289223E+02  0.79406647170E+02  0.41800000000E+01 0.  1.
         -5    1    3    3    0  502 -0.92456496602E+02  0.86507236086E+02  0.43431096161E+02  0.13392325479E+03  0.41800000000E+01 0.  1.
        -11    1    1    2    0    0  0.53337562679E+02 -0.71781701995E+01  0.87175122979E+02  0.10244961584E+03  0.00000000000E+00 0.  1.
         11    1    1    2    0    0  0.56257954232E+02 -0.12507466264E+03  0.31017599736E+03  0.33914271036E+03  0.00000000000E+00 0. -1.
</event>
<event>
 7    1  0.2841804E-009  0.1650209E+03  0.7561462E-02  0.1183142E+00
          1   -1    0    0  501    0  0.00000000000E+00  0.00000000000E+00  0.44964142325E+03  0.44964142325E+03  0.00000000000E+00 0. -1.
         -1   -1    0    0    0  501 -0.00000000000E+00 -0.00000000000E+00 -0.71732027229E+02  0.71732027229E+02  0.00000000000E+00 0.  1.
         25    2    1    2    0    0  0.11428745699E+03  0.64421802855E+02  0.12033885889E+03  0.21757927203E+03  0.12508999621E+03 0.  0.
          5    1    3    3  502    0 -0.24815404452E+02  0.67925652037E+00  0.43939064624E+01  0.25554735403E+02  0.41800000000E+01 0.  1.
         -5    1    3    3    0  502  0.13910286144E+03  0.63742546335E+02  0.11594495242E+03  0.19202453663E+03  0.41800000000E+01 0.  1.
        -11    1    1    2    0    0 -0.18623124391E+00 -0.33609568248E+02  0.10832301684E+03  0.11341743136E+03  0.00000000000E+00 0. -1.
         11    1    1    2    0    0 -0.11410122574E+03 -0.30812234607E+02  0.14924752030E+03  0.19037674709E+03  0.00000000000E+00 0.  1.
</event>
<event>
 7    1  0.2841804E-009  0.1599809E+03  0.7561462E-02  0.1188718E+00
         -2   -1    0    0    0  501 -0.00000000000E+00  0.00000000000E+00  0.50550676295E+03  0.50550676295E+03  0.00000000000E+00 0.  1.
          2   -1    0    0  501    0  0.00000000000E+00 -0.00000000000E+00 -0.78524648244E+02  0.78524648244E+02  0.00000000000E+00 0. -1.
         25    2    1    2    0    0  0.51310753106E+01  0.12804613818E+03  0.67546743112E+02  0.19139644303E+03  0.12509154432E+03 0.  0.
          5    1    3    3  502    0  0.50443054274E+02  0.46803630339E+02 -0.10704417766E+02  0.69764880113E+02  0.41800000000E+01 0. -1.
         -5    1    3    3    0  502 -0.45311978964E+02  0.81242507840E+02  0.78251160878E+02  0.12163156291E+03  0.41800000000E+01 0. -1.
        -11    1    1    2    0    0  0.22419305295E+02 -0.12840966345E+03  0.29101517588E+03  0.31887536673E+03  0.00000000000E+00 0. -1.
         11    1    1    2    0    0 -0.27550380605E+02  0.36352527550E+00  0.68420195712E+02  0.73759601432E+02  0.00000000000E+00 0.  1.
</event>
<event>
 7    1  0.2841804E-009  0.6759262E+02  0.7561462E-02  0.1368476E+00
          1   -1    0    0  501    0  0.00000000000E+00  0.00000000000E+00  0.31404792623E+03  0.31404792623E+03  0.00000000000E+00 0. -1.
         -1   -1    0    0    0  501 -0.00000000000E+00 -0.00000000000E+00 -0.56929661198E+02  0.56929661198E+02  0.00000000000E+00 0.  1.
         25    2    1    2    0    0 -0.69416279124E+01 -0.17600967355E+02  0.56601036968E+02  0.13859798069E+03  0.12509093738E+03 0.  0.
          5    1    3    3  502    0  0.52874749723E+01 -0.20477969671E+02  0.95294111287E+02  0.97702326888E+02  0.41800000000E+01 0. -1.
         -5    1    3    3    0  502 -0.12229102885E+02  0.28770023160E+01 -0.38693074319E+02  0.40895653802E+02  0.41800000000E+01 0. -1.
        -11    1    1    2    0    0  0.52405307766E+02  0.24422049980E+01  0.16383022868E+03  0.17202506933E+03  0.00000000000E+00 0. -1.
         11    1    1    2    0    0 -0.45463679854E+02  0.15158762357E+02  0.36686999380E+02  0.60354537407E+02  0.00000000000E+00 0.  1.
</event>
<event>
 7    1  0.2841804E-009  0.1170471E+03  0.7561462E-02  0.1248049E+00
         -2   -1    0    0    0  501 -0.00000000000E+00  0.00000000000E+00  0.15907030543E+02  0.15907030543E+02  0.00000000000E+00 0. -1.
          2   -1    0    0  501    0  0.00000000000E+00 -0.00000000000E+00 -0.89469981702E+03  0.89469981702E+03  0.00000000000E+00 0.  1.
         25    2    1    2    0    0  0.50118142877E+02 -0.78992164529E+01 -0.50762871165E+03  0.52526891301E+03  0.12508515585E+03 0.  0.
          5    1    3    3  502    0  0.62445912510E+02  0.44713260147E+02 -0.35683521797E+03  0.36503097513E+03  0.41800000000E+01 0. -1.
         -5    1    3    3    0  502 -0.12327769632E+02 -0.52612476600E+02 -0.15079349368E+03  0.16023793787E+03  0.41800000000E+01 0. -1.
        -11    1    1    2    0    0 -0.19875251837E+02 -0.40953691075E+02 -0.18439213150E+03  0.18992811431E+03  0.00000000000E+00 0.  1.
         11    1    1    2    0    0 -0.30242891041E+02  0.48852907528E+02 -0.18677194333E+03  0.19540982025E+03  0.00000000000E+00 0. -1.
</event>
<event>
 7    1  0.2841804E-009  0.8648482E+02  0.7561462E-02  0.1311595E+00
         -2   -1    0    0    0  501 -0.00000000000E+00  0.00000000000E+00  0.23267416003E+02  0.23267416003E+02  0.00000000000E+00 0. -1.
          2   -1    0    0  501    0  0.00000000000E+00 -0.00000000000E+00 -0.65319558556E+03  0.65319558556E+03  0.00000000000E+00 0.  1.
         25    2    1    2    0    0  0.27042795273E+02  0.31663034999E+02 -0.45669276068E+03  0.47534223617E+03  0.12509237892E+03 0.  0.
          5    1    3    3  502    0  0.24631057967E+02  0.47814657814E+02 -0.45523689018E+03  0.45842232614E+03  0.41800000000E+01 0. -1.
         -5    1    3    3    0  502  0.24117373055E+01 -0.16151622815E+02 -0.14558704954E+01  0.16919910026E+02  0.41800000000E+01 0. -1.
        -11    1    1    2    0    0 -0.20857764817E+02  0.32002226886E+02 -0.65945045940E+02  0.76209828519E+02  0.00000000000E+00 0. -1.
         11    1    1    2    0    0 -0.61850304552E+01 -0.63665261885E+02 -0.10729036293E+03  0.12491093688E+03  0.00000000000E+00 0.  1.
</event>
<event>
 7    1  0.2841804E-009  0.1057581E+03  0.7561462E-02  0.1268633E+00
          1   -1    0    0  501    0  0.00000000000E+00  0.00000000000E+00  0.17319016341E+03  0.17319016341E+03  0.00000000000E+00 0. -1.
         -1   -1    0    0    0  501 -0.00000000000E+00 -0.00000000000E+00 -0.88237171846E+02  0.88237171846E+02  0.00000000000E+00 0.  1.
         25    2    1    2    0    0  0.39602453839E+02  0.14821864221E+02 -0.29376546519E+00  0.13204320631E+03  0.12508908836E+03 0.  0.
          5    1    3    3  502    0  0.76167278879E+02  0.68947879168E+00 -0.30726121687E+02  0.82240480949E+02  0.41800000000E+01 0. -1.
         -5    1    3    3    0  502 -0.36564825040E+02  0.14132385429E+02  0.30432356222E+02  0.49802725361E+02  0.41800000000E+01 0. -1.
        -11    1    1    2    0    0 -0.24309068920E+02 -0.51018122985E+02  0.61264142477E+02  0.83349114321E+02  0.00000000000E+00 0. -1.
         11    1    1    2    0    0 -0.15293384918E+02  0.36196258764E+02  0.23982614553E+02  0.46035014625E+02  0.00000000000E+00 0.  1.
</event>
<event>
 7    1  0.2841804E-009  0.7175215E+02  0.7561462E-02  0.1354234E+00
          3   -1    0    0  501    0  0.00000000000E+00  0.00000000000E+00  0.22438916931E+02  0.22438916931E+02  0.00000000000E+00 0. -1.
         -3   -1    0    0    0  501 -0.00000000000E+00 -0.00000000000E+00 -0.35099958503E+03  0.35099958503E+03  0.00000000000E+00 0.  1.
         25    2    1    2    0    0 -0.82715175538E+01  0.17682593782E+02 -0.28630967859E+03  0.31305191627E+03  0.12508868094E+03 0.  0.
          5    1    3    3  502    0 -0.44931968929E+02 -0.20537268645E+02 -0.23139191167E+03  0.23664393172E+03  0.41800000000E+01 0.  1.
         -5    1    3    3    0  502  0.36660451375E+02  0.38219862426E+02 -0.54917766919E+02  0.76407984546E+02  0.41800000000E+01 0.  1.
        -11    1    1    2    0    0 -0.13001507696E+02 -0.14184228068E+02 -0.10250524102E+02  0.21801485560E+02  0.00000000000E+00 0. -1.
         11    1    1    2    0    0  0.21273025249E+02 -0.34983657133E+01 -0.32000465407E+02  0.38585100132E+02  0.00000000000E+00 0.  1.
</event>
<event>
 7    1  0.2841804E-009  0.8129614E+02  0.7561462E-02  0.1325413E+00
         -1   -1    0    0    0  501 -0.00000000000E+00  0.00000000000E+00  0.50775638223E+02  0.50775638223E+02  0.00000000000E+00 0.  1.
          1   -1    0    0  501    0  0.00000000000E+00 -0.00000000000E+00 -0.60240743052E+03  0.60240743052E+03  0.00000000000E+00 0. -1.
         25    2    1    2    0    0  0.38305732791E+02 -0.37565941604E+02 -0.57710654813E+02  0.14783889305E+03  0.12508912617E+03 0.  0.
          5    1    3    3  502    0  0.16538235633E+02 -0.36192354720E+02 -0.95760076216E+02  0.10378277494E+03  0.41800000000E+01 0.  1.
         -5    1    3    3    0  502  0.21767497157E+02 -0.13735868843E+01  0.38049421403E+02  0.44056118105E+02  0.41800000000E+01 0.  1.
        -11    1    1    2    0    0 -0.11304763918E+02 -0.27605356886E+02 -0.78514144393E+02  0.83990024918E+02  0.00000000000E+00 0.  1.
         11    1    1    2    0    0 -0.27000968873E+02  0.65171298490E+02 -0.41540699309E+03  0.42135415078E+03  0.00000000000E+00 0. -1.
</event>
<event>
 7    1  0.2841804E-009  0.9882123E+02  0.7561462E-02  0.1282794E+00
         -1   -1    0    0    0  501 -0.00000000000E+00  0.00000000000E+00  0.12911482493E+03  0.12911482493E+03  0.00000000000E+00 0.  1.
          1   -1    0    0  501    0  0.00000000000E+00 -0.00000000000E+00 -0.11195108722E+03  0.11195108722E+03  0.00000000000E+00 0. -1.
         25    2    1    2    0    0 -0.27293415365E+02 -0.28004311236E+02 -0.22531533187E+02  0.13298865336E+03  0.12509652259E+03 0.  0.
          5    1    3    3  502    0  0.34946323758E+01 -0.55417319143E+02 -0.56560266406E+02  0.79371454897E+02  0.41800000000E+01 0.  1.
         -5    1    3    3    0  502 -0.30788047741E+02  0.27413007908E+02  0.34028733219E+02  0.53617198460E+02  0.41800000000E+01 0.  1.
        -11    1    1    2    0    0  0.22987613143E+02  0.62068111439E+02  0.26289581246E+02  0.71218136017E+02  0.00000000000E+00 0. -1.
         11    1    1    2    0    0  0.43058022220E+01 -0.34063800203E+02  0.13405689643E+02  0.36859122777E+02  0.00000000000E+00 0.  1.
</event>
<event>
 7    1  0.2841804E-009  0.9169966E+02  0.7561462E-02  0.1298787E+00
         -2   -1    0    0    0  501 -0.00000000000E+00  0.00000000000E+00  0.26707993461E+02  0.26707993461E+02  0.00000000000E+00 0.  1.
          2   -1    0    0  501    0  0.00000000000E+00 -0.00000000000E+00 -0.53742577483E+03  0.53742577483E+03  0.00000000000E+00 0. -1.
         25    2    1    2    0    0 -0.42374680807E+01  0.49343516979E+02 -0.26784322220E+03  0.29973419726E+03  0.12509140069E+03 0.  0.
          5    1    3    3  502    0 -0.32694053781E+02  0.27846073267E+02 -0.17068373668E+02  0.46401581101E+02  0.41800000000E+01 0.  1.
         -5    1    3    3    0  502  0.28456585700E+02  0.21497443712E+02 -0.25077484853E+03  0.25333261616E+03  0.41800000000E+01 0.  1.
        -11    1    1    2    0    0  0.43414061813E+02 -0.27971950769E+01 -0.10833815304E+03  0.11674656512E+03  0.00000000000E+00 0. -1.
         11    1    1    2    0    0 -0.39176593732E+02 -0.46546321902E+02 -0.13453640613E+03  0.14765300590E+03  0.00000000000E+00 0.  1.
</event>
<event>
 7    1  0.2841804E-009  0.1101075E+03  0.7561462E-02  0.1260371E+00
          2   -1    0    0  501    0  0.00000000000E+00  0.00000000000E+00  0.63242315066E+03  0.63242315066E+03  0.00000000000E+00 0. -1.
         -2   -1    0    0    0  501 -0.00000000000E+00 -0.00000000000E+00 -0.24687578301E+02  0.24687578301E+02  0.00000000000E+00 0.  1.
         25    2    1    2    0    0 -0.33862806224E+02 -0.88182049384E+00  0.20222281463E+03  0.24017974169E+03  0.12507907223E+03 0.  0.
          5    1    3    3  502    0  0.34178121224E+02  0.36649777109E+02  0.97556241689E+02  0.10975446608E+03  0.41800000000E+01 0.  1.
         -5    1    3    3    0  502 -0.68040927448E+02 -0.37531597602E+02  0.10466657294E+03  0.13042527561E+03  0.41800000000E+01 0.  1.
        -11    1    1    2    0    0  0.89247899486E+00  0.40532181537E+02  0.24518583991E+03  0.24851509079E+03  0.00000000000E+00 0.  1.
         11    1    1    2    0    0  0.32970327229E+02 -0.39650361043E+02  0.16032691782E+03  0.16841589648E+03  0.00000000000E+00 0. -1.
</event>
<event>
 7    1  0.2841804E-009  0.1165661E+03  0.7561462E-02  0.1248872E+00
         -1   -1    0    0    0  501 -0.00000000000E+00  0.00000000000E+00  0.61351299549E+03  0.61351299549E+03  0.00000000000E+00 0.  1.
          1   -1    0    0  501    0  0.00000000000E+00 -0.00000000000E+00 -0.44845030299E+02  0.44845030299E+02  0.00000000000E+00 0. -1.
         25    2    1    2    0    0 -0.27300794151E+02 -0.84952175011E+02  0.36351760506E+03  0.39465805240E+03  0.12509086193E+03 0.  0.
          5    1    3    3  502    0  0.56180160747E+01 -0.10289218296E+03  0.32403963251E+03  0.34005517090E+03  0.41800000000E+01 0. -1.
         -5    1    3    3    0  502 -0.32918810225E+02  0.17940007945E+02  0.39477972545E+02  0.54602881499E+02  0.41800000000E+01 0. -1.
        -11    1    1    2    0    0  0.16891674383E+02  0.77891417456E+02  0.22583761170E+03  0.23948909878E+03  0.00000000000E+00 0.  1.
         11    1    1    2    0    0  0.10409119768E+02  0.70607575541E+01 -0.20687251570E+02  0.24210874604E+02  0.00000000000E+00 0. -1.
</event>
<event>
 7    1  0.3758992E-009  0.7416618E+02  0.7561462E-02  0.1346473E+00
          2   -1    0    0  501    0  0.00000000000E+00  0.00000000000E+00  0.19226640466E+03  0.19226640466E+03  0.00000000000E+00 0.  1.
         -2   -1    0    0    0  501 -0.00000000000E+00 -0.00000000000E+00 -0.65320780906E+02  0.65320780906E+02  0.00000000000E+00 0. -1.
         25    2    1    2    0    0  0.64004060301E+01 -0.65891263510E+01  0.10484505327E+03  0.16347507696E+03  0.12508890361E+03 0.  0.
          5    1    3    3  502    0 -0.40251069132E+02 -0.14956343409E+02 -0.53244313280E+01  0.43470251246E+02  0.41800000000E+01 0.  1.
         -5    1    3    3    0  502  0.46651475162E+02  0.83672170583E+01  0.11016948460E+03  0.12000482571E+03  0.41800000000E+01 0.  1.
        -11    1    1    2    0    0  0.19767818908E+02 -0.14074560225E+02 -0.26012927299E+02  0.35574320747E+02  0.00000000000E+00 0. -1.
         11    1    1    2    0    0 -0.26168224939E+02  0.20663686576E+02  0.48113497776E+02  0.58537787860E+02  0.00000000000E+00 0.  1.
</event>
<event>
 7    1  0.2841804E-009  0.8053755E+02  0.7561462E-02  0.1327533E+00
         -1   -1    0    0    0  501 -0.00000000000E+00  0.00000000000E+00  0.21165792370E+02  0.21165792370E+02  0.00000000000E+00 0.  1.
          1   -1    0    0  501    0  0.00000000000E+00 -0.00000000000E+00 -0.65391560468E+03  0.65391560468E+03  0.00000000000E+00 0. -1.
         25    2    1    2    0    0  0.76352965195E+01 -0.81112468186E+01 -0.44791578930E+03  0.46518836116E+03  0.12509023534E+03 0.  0.
          5    1    3    3  502    0  0.22351317274E+02 -0.29445513176E+02 -0.33871747260E+02  0.50312893899E+02  0.41800000000E+01 0.  1.
         -5    1    3    3    0  502 -0.14716020754E+02  0.21334266357E+02 -0.41404404204E+03  0.41487546726E+03  0.41800000000E+01 0.  1.
        -11    1    1    2    0    0 -0.25366594696E+02 -0.39426807891E+02 -0.68841393124E+02  0.83289103214E+02  0.00000000000E+00 0.  1.
         11    1    1    2    0    0  0.17731298176E+02  0.47538054710E+02 -0.11599262988E+03  0.12660393267E+03  0.00000000000E+00 0. -1.
</event>
<event>
 7    1  0.2841804E-009  0.1005728E+03  0.7561462E-02  0.1279096E+00
          4   -1    0    0  501    0  0.00000000000E+00  0.00000000000E+00  0.10190181968E+03  0.10190181968E+03  0.00000000000E+00 0. -1.
         -4   -1    0    0    0  501 -0.00000000000E+00 -0.00000000000E+00 -0.13624730340E+03  0.13624730340E+03  0.00000000000E+00 0.  1.
         25    2    1    2    0    0  0.61496186876E+01  0.38706660626E+02  0.29831303510E+01  0.13111071260E+03  0.12508036019E+03 0.  0.
          5    1    3    3  502    0  0.28564531211E+02 -0.39675071922E+02  0.59504337948E+01  0.49425942962E+02  0.41800000000E+01 0.  1.
         -5    1    3    3    0  502 -0.22414912524E+02  0.78381732548E+02 -0.29673034438E+01  0.81684769635E+02  0.41800000000E+01 0.  1.
        -11    1    1    2    0    0  0.26166799416E+02 -0.21312799138E+02 -0.56364290694E+02  0.65695281902E+02  0.00000000000E+00 0.  1.
         11    1    1    2    0    0 -0.32316418103E+02 -0.17393861488E+02  0.19035676622E+02  0.41343128582E+02  0.00000000000E+00 0. -1.
</event>
<event>
 7    1  0.2841804E-009  0.1052288E+03  0.7561462E-02  0.1269670E+00
          2   -1    0    0  501    0  0.00000000000E+00  0.00000000000E+00  0.77412214900E+03  0.77412214900E+03  0.00000000000E+00 0.  1.
         -2   -1    0    0    0  501 -0.00000000000E+00 -0.00000000000E+00 -0.21144061756E+02  0.21144061756E+02  0.00000000000E+00 0. -1.
         25    2    1    2    0    0  0.21551092003E+02  0.23669690838E+01  0.62654786189E+03  0.63928069452E+03  0.12509009167E+03 0.  0.
          5    1    3    3  502    0  0.50135090255E+02 -0.42997897990E+02  0.44630364962E+03  0.45118373926E+03  0.41800000000E+01 0.  1.
         -5    1    3    3    0  502 -0.28583998252E+02  0.45364867074E+02  0.18024421227E+03  0.18809695526E+03  0.41800000000E+01 0.  1.
        -11    1    1    2    0    0  0.20449007144E+02  0.30805718837E+02  0.41340766722E+02  0.55463620504E+02  0.00000000000E+00 0. -1.
         11    1    1    2    0    0 -0.42000099147E+02 -0.33172687921E+02  0.85089458634E+02  0.10052189574E+03  0.00000000000E+00 0.  1.
</event>
<event>
 7    1  0.2841804E-009  0.1326717E+03  0.7561462E-02  0.1223544E+00
         -2   -1    0    0    0  501 -0.00000000000E+00  0.00000000000E+00  0.89116832554E+03  0.89116832554E+03  0.00000000000E+00 0.  1.
          2   -1    0    0  501    0  0.00000000000E+00 -0.00000000000E+00 -0.21045762303E+02  0.21045762303E+02  0.00000000000E+00 0. -1.
         25    2    1    2    0    0 -0.55735096359E+02 -0.59165700993E+02  0.54102112337E+03  0.56121175708E+03  0.12509116359E+03 0.  0.
          5    1    3    3  502    0 -0.91605017474E+02 -0.63991519325E+02  0.43329977600E+03  0.44749587937E+03  0.41800000000E+01 0.  1.
         -5    1    3    3    0  502  0.35869921115E+02  0.48258183323E+01  0.10772134737E+03  0.11371587771E+03  0.41800000000E+01 0.  1.
        -11    1    1    2    0    0  0.66421590845E+02  0.73592956246E+02  0.30652430669E+03  0.32215664130E+03  0.00000000000E+00 0.  1.
         11    1    1    2    0    0 -0.10686494486E+02 -0.14427255253E+02  0.22577133176E+02  0.28845689470E+02  0.00000000000E+00 0. -1.
</event>
<event>
 7    1  0.2841804E-009  0.2142732E+03  0.7561462E-02  0.1138226E+00
          2   -1    0    0  501    0  0.00000000000E+00  0.00000000000E+00  0.20357245915E+03  0.20357245915E+03  0.00000000000E+00 0. -1.
         -2   -1    0    0    0  501 -0.00000000000E+00 -0.00000000000E+00 -0.26520986794E+03  0.26520986794E+03  0.00000000000E+00 0.  1.
         25    2    1    2    0    0 -0.10095172822E+03 -0.17273273215E+03  0.15872265826E+02  0.23649062709E+03  0.12509212481E+03 0.  0.
          5    1    3    3  502    0 -0.10947995281E+02  0.15463502514E+02 -0.16339722112E+02  0.25366068465E+02  0.41800000000E+01 0.  1.
         -5    1    3    3    0  502 -0.90003732938E+02 -0.18819623467E+03  0.32211987939E+02  0.21112455862E+03  0.41800000000E+01 0.  1.
        -11    1    1    2    0    0  0.50548299295E+02  0.73687130720E+02  0.11249820192E+02  0.90063767685E+02  0.00000000000E+00 0. -1.
         11    1    1    2    0    0  0.50403428924E+02  0.99045601434E+02 -0.88759494810E+02  0.14222793231E+03  0.00000000000E+00 0.  1.
</event>
<event>
 6    1  0.2841804E-009  0.8652526E+02  0.7561462E-02  0.1311491E+00
          3   -1    0    0  501    0  0.00000000000E+00  0.00000000000E+00  0.28461074234E+04  0.28461074234E+04  0.00000000000E+00 0. -1.
         -3   -1    0    0    0  501 -0.00000000000E+00 -0.00000000000E+00 -0.13630875404E+02  0.13630875404E+02  0.00000000000E+00 0.  1.
          5    1    1    2  502    0  0.26333579989E+02 -0.50175487017E+02  0.54793920797E+03  0.55087737743E+03  0.41800000000E+01 0.  1.
         -5    1    1    2    0  502 -0.12357960539E+02  0.23706648009E+02  0.21050887996E+04  0.21052627036E+04  0.41800000000E+01 0.  1.
        -11    1    1    2    0    0  0.22585045647E+02 -0.19914716559E+02  0.10106314639E+03  0.10545349582E+03  0.00000000000E+00 0. -1.
         11    1    1    2    0    0 -0.36560665097E+02  0.46383555567E+02  0.78385394029E+02  0.98144722000E+02  0.00000000000E+00 0.  1.
</event>
<event>
 7    1  0.2841804E-009  0.1548729E+03  0.7561462E-02  0.1194610E+00
         -1   -1    0    0    0  501 -0.00000000000E+00  0.00000000000E+00  0.26163293473E+03  0.26163293473E+03  0.00000000000E+00 0.  1.
          1   -1    0    0  501    0  0.00000000000E+00 -0.00000000000E+00 -0.14546847075E+03  0.14546847075E+03  0.00000000000E+00 0. -1.
         25    2    1    2    0    0  0.80396746086E+02  0.12518571472E+03 -0.45705067778E+01  0.19443198826E+03  0.12509120104E+03 0.  0.
          5    1    3    3  502    0  0.55593601712E+02  0.12059000723E+03  0.43659296834E+02  0.13984350180E+03  0.41800000000E+01 0.  1.
         -5    1    3    3    0  502  0.24803144374E+02  0.45957074907E+01 -0.48229803611E+02  0.54588486465E+02  0.41800000000E+01 0.  1.
        -11    1    1    2    0    0 -0.60092910833E+02 -0.11203062687E+03  0.13430374538E+03  0.18493110964E+03  0.00000000000E+00 0.  1.
         11    1    1    2    0    0 -0.20303835253E+02 -0.13155087851E+02 -0.13568774619E+02  0.27738307573E+02  0.00000000000E+00 0. -1.
</event>
<event>
 7    1  0.2841804E-009  0.9490112E+02  0.7561462E-02  0.1291399E+00
          2   -1    0    0  501    0  0.00000000000E+00  0.00000000000E+00  0.14471775371E+03  0.14471775371E+03  0.00000000000E+00 0. -1.
         -2   -1    0    0    0  501 -0.00000000000E+00 -0.00000000000E+00 -0.96243581564E+02  0.96243581564E+02  0.00000000000E+00 0.  1.
         25    2    1    2    0    0 -0.91061448753E+01  0.39097316410E+01 -0.19412455347E+02  0.12697276210E+03  0.12508809302E+03 0.  0.
          5    1    3    3  502    0 -0.59709637326E+02 -0.77308464701E+01  0.17835228458E+02  0.62933095831E+02  0.41800000000E+01 0. -1.
         -5    1    3    3    0  502  0.50603492451E+02  0.11640578111E+02 -0.37247683805E+02  0.64039666269E+02  0.41800000000E+01 0. -1.
        -11    1    1    2    0    0  0.13270386182E+02  0.35410841320E+02  0.63895319348E+02  0.74247172788E+02  0.00000000000E+00 0.  1.
         11    1    1    2    0    0 -0.41642413067E+01 -0.39320572961E+02  0.39913081404E+01  0.39741400382E+02  0.00000000000E+00 0. -1.
</event>
<event>
 7    1  0.2841804E-009  0.1482924E+03  0.7561462E-02  0.1202587E+00
         -2   -1    0    0    0  501 -0.00000000000E+00  0.00000000000E+00  0.16443690839E+02  0.16443690839E+02  0.00000000000E+00 0.  1.
          2   -1    0    0  501    0  0.00000000000E+00 -0.00000000000E+00 -0.13513560860E+04  0.13513560860E+04  0.00000000000E+00 0. -1.
         25    2    1    2    0    0  0.64476422815E+02 -0.77796620809E+02 -0.72752571723E+03  0.74508369486E+03  0.12508604964E+03 0.  0.
          5    1    3    3  502    0  0.37135021443E+02 -0.11052365920E+03 -0.48778624685E+03  0.50154499706E+03  0.41800000000E+01 0.  1.
         -5    1    3    3    0  502  0.27341401372E+02  0.32727038389E+02 -0.23973947038E+03  0.24353869780E+03  0.41800000000E+01 0.  1.
        -11    1    1    2    0    0  0.15720818872E+02  0.49637633584E+02 -0.24941511328E+03  0.25479194953E+03  0.00000000000E+00 0.  1.
         11    1    1    2    0    0 -0.80197241687E+02  0.28158987226E+02 -0.35797156470E+03  0.36792413249E+03  0.00000000000E+00 0. -1.
</event>
<event>
 7    1  0.2841804E-009  0.1633248E+03  0.7561462E-02  0.1184993E+00
         -1   -1    0    0    0  501 -0.00000000000E+00  0.00000000000E+00  0.25938140424E+03  0.25938140424E+03  0.00000000000E+00 0.  1.
          1   -1    0    0  501    0  0.00000000000E+00 -0.00000000000E+00 -0.11904851604E+03  0.11904851604E+03  0.00000000000E+00 0. -1.
         25    2    1    2    0    0 -0.12362482170E+03  0.48674889637E+02  0.41326603957E+02  0.18710963418E+03  0.12509910306E+03 0.  0.
          5    1    3    3  502    0 -0.12309726626E+03  0.82005167032E+02  0.40870269012E+02  0.15351102784E+03  0.41800000000E+01 0.  1.
         -5    1    3    3    0  502 -0.52755544367E+00 -0.33330277396E+02  0.45633494452E+00  0.33598606334E+02  0.41800000000E+01 0.  1.
        -11    1    1    2    0    0  0.86977061734E+02 -0.36831145055E+01  0.13667565890E+02  0.88121376281E+02  0.00000000000E+00 0. -1.
         11    1    1    2    0    0  0.36647759967E+02 -0.44991775131E+02  0.85338718346E+02  0.10319890982E+03  0.00000000000E+00 0.  1.
</event>
<event>
 7    1  0.2841804E-009  0.1114701E+03  0.7561462E-02  0.1257871E+00
          1   -1    0    0  501    0  0.00000000000E+00  0.00000000000E+00  0.36243489868E+02  0.36243489868E+02  0.00000000000E+00 0. -1.
         -1   -1    0    0    0  501 -0.00000000000E+00 -0.00000000000E+00 -0.70685313847E+03  0.70685313847E+03  0.00000000000E+00 0.  1.
         25    2    1    2    0    0 -0.59367912350E+01 -0.65471548965E+02 -0.58182071428E+03  0.59873726014E+03  0.12509673818E+03 0.  0.
          5    1    3    3  502    0 -0.43824921569E+00  0.32055252342E+02 -0.27049342370E+03  0.27241860423E+03  0.41800000000E+01 0.  1.
         -5    1    3    3    0  502 -0.54985420193E+01 -0.97526801307E+02 -0.31132729058E+03  0.32631865591E+03  0.41800000000E+01 0.  1.
        -11    1    1    2    0    0  0.32724083633E+02  0.55159214191E+02 -0.95352099999E+02  0.11491487081E+03  0.00000000000E+00 0.  1.
         11    1    1    2    0    0 -0.26787292398E+02  0.10312334774E+02  0.65631656749E+01  0.29444497384E+02  0.00000000000E+00 0. -1.
</event>
<event>
 7    1  0.2841804E-009  0.8870543E+02  0.7561462E-02  0.1306017E+00
          3   -1    0    0  501    0  0.00000000000E+00  0.00000000000E+00  0.10920283493E+03  0.10920283493E+03  0.00000000000E+00 0. -1.
         -3   -1    0    0    0  501 -0.00000000000E+00 -0.00000000000E+00 -0.11948123390E+03  0.11948123390E+03  0.00000000000E+00 0.  1.
         25    2    1    2    0    0 -0.16382635055E+02  0.20577563323E+02  0.93958607014E+01  0.12817078800E+03  0.12509053463E+03 0.  0.
          5    1    3    3  502    0 -0.45420975665E+02 -0.16265096094E+02  0.47316997924E+02  0.67705162830E+02  0.41800000000E+01 0.  1.
         -5    1    3    3    0  502  0.29038340610E+02  0.36842659417E+02 -0.37921137223E+02  0.60465625165E+02  0.41800000000E+01 0.  1.
        -11    1    1    2    0    0  0.33883353739E+02 -0.42168761682E+02  0.14941437195E+02  0.56120697322E+02  0.00000000000E+00 0. -1.
         11    1    1    2    0    0 -0.17500718685E+02  0.21591198359E+02 -0.34615696867E+02  0.44392583510E+02  0.00000000000E+00 0.  1.
</event>
<event>
 7    1  0.2841804E-009  0.8874355E+02  0.7561462E-02  0.1305923E+00
         -2   -1    0    0    0  501 -0.00000000000E+00  0.00000000000E+00  0.32846402708E+03  0.32846402708E+03  0.00000000000E+00 0.  1.
          2   -1    0    0  501    0  0.00000000000E+00 -0.00000000000E+00 -0.38355504345E+02  0.38355504345E+02  0.00000000000E+00 0. -1.
         25    2    1    2    0    0 -0.13094592364E+02  0.17615808146E+02  0.20440327909E+03  0.24064593678E+03  0.12509189159E+03 0.  0.
          5    1    3    3  502    0 -0.64328575876E+02  0.50791920175E+01  0.65658564151E+02  0.92154670593E+02  0.41800000000E+01 0. -1.
         -5    1    3    3    0  502  0.51233983512E+02  0.12536616129E+02  0.13874471494E+03  0.14849126619E+03  0.41800000000E+01 0. -1.
        -11    1    1    2    0    0  0.10136715499E+02  0.19871909836E+02 -0.91689311964E+01  0.24118770717E+02  0.00000000000E+00 0. -1.
         11    1    1    2    0    0  0.29578768650E+01 -0.37487717982E+02  0.94874174845E+02  0.10205482393E+03  0.00000000000E+00 0.  1.
</event>
<event>
 7    1  0.2841804E-009  0.9276001E+02  0.7561462E-02  0.1296302E+00
         -1   -1    0    0    0  501 -0.00000000000E+00  0.00000000000E+00  0.19360678856E+03  0.19360678856E+03  0.00000000000E+00 0.  1.
          1   -1    0    0  501    0  0.00000000000E+00 -0.00000000000E+00 -0.92462722575E+02  0.92462722575E+02  0.00000000000E+00 0. -1.
         25    2    1    2    0    0  0.67647358272E+02  0.13120671990E+02  0.18161690816E+02  0.14396012629E+03  0.12508538617E+03 0.  0.
          5    1    3    3  502    0  0.45768894706E+01  0.27357784536E+02  0.60413699083E+02  0.66608435868E+02  0.41800000000E+01 0.  1.
         -5    1    3    3    0  502  0.63070468801E+02 -0.14237112546E+02 -0.42252008267E+02  0.77351690421E+02  0.41800000000E+01 0.  1.
        -11    1    1    2    0    0  0.44953234041E+01 -0.19726275503E+02 -0.11327281964E+02  0.23187091116E+02  0.00000000000E+00 0. -1.
         11    1    1    2    0    0 -0.72142681676E+02  0.66056035129E+01  0.94309657129E+02  0.11892229373E+03  0.00000000000E+00 0.  1.
</event>
<event>
 7    1  0.2841804E-009  0.8631516E+02  0.7561462E-02  0.1312029E+00
         -2   -1    0    0    0  501 -0.00000000000E+00  0.00000000000E+00  0.13547615989E+03  0.13547615989E+03  0.00000000000E+00 0.  1.
          2   -1    0    0  501    0  0.00000000000E+00 -0.00000000000E+00 -0.15126848660E+03  0.15126848660E+03  0.00000000000E+00 0. -1.
         25    2    1    2    0    0  0.24642871101E+02  0.28611226557E+02 -0.93493043479E+02  0.16066923677E+03  0.12509109114E+03 0.  0.
          5    1    3    3  502    0  0.23708428109E+02 -0.43629264161E+02 -0.11182670358E+02  0.51069822508E+02  0.41800000000E+01 0.  1.
         -5    1    3    3    0  502  0.93444299176E+00  0.72240490718E+02 -0.82310373121E+02  0.10959941426E+03  0.41800000000E+01 0.  1.
        -11    1    1    2    0    0 -0.24248010115E+01 -0.28104233209E+02 -0.14161020522E+02  0.31563619667E+02  0.00000000000E+00 0. -1.
         11    1    1    2    0    0 -0.22218070089E+02 -0.50699334746E+00  0.91861737295E+02  0.94511790056E+02  0.00000000000E+00 0.  1.
</event>
<event>
 7    1  0.2841804E-009  0.9858404E+02  0.7561462E-02  0.1283302E+00
         -1   -1    0    0    0  501 -0.00000000000E+00  0.00000000000E+00  0.28330484192E+03  0.28330484192E+03  0.00000000000E+00 0.  1.
          1   -1    0    0  501    0  0.00000000000E+00 -0.00000000000E+00 -0.57232845745E+02  0.57232845745E+02  0.00000000000E+00 0. -1.
         25    2    1    2    0    0 -0.42562630182E+02 -0.44525284739E+02  0.16133730886E+03  0.21323950710E+03  0.12508909500E+03 0.  0.
          5    1    3    3  502    0 -0.83499837513E+02 -0.15076476132E+02  0.75790357985E+02  0.11384715087E+03  0.41800000000E+01 0. -1.
         -5    1    3    3    0  502  0.40937207331E+02 -0.29448808607E+02  0.85546950878E+02  0.99392356230E+02  0.41800000000E+01 0. -1.
        -11    1    1    2    0    0  0.31670571997E+02  0.32201436522E+02  0.87936909062E+02  0.98857764592E+02  0.00000000000E+00 0.  1.
         11    1    1    2    0    0  0.10892058185E+02  0.12323848217E+02 -0.23202221753E+02  0.28440415972E+02  0.00000000000E+00 0. -1.
</event>
<event>
 7    1  0.2841804E-009  0.1226412E+03  0.7561462E-02  0.1238802E+00
         -1   -1    0    0    0  501 -0.00000000000E+00  0.00000000000E+00  0.37025594113E+02  0.37025594113E+02  0.00000000000E+00 0.  1.
          1   -1    0    0  501    0  0.00000000000E+00 -0.00000000000E+00 -0.62954352353E+03  0.62954352353E+03  0.00000000000E+00 0. -1.
         25    2    1    2    0    0 -0.91170239995E+02  0.12894875539E+02 -0.43748807973E+03  0.46424339605E+03  0.12509124828E+03 0.  0.
          5    1    3    3  502    0 -0.12143389569E+03  0.52837646812E+01 -0.31201725004E+03  0.33488258527E+03  0.41800000000E+01 0.  1.
         -5    1    3    3    0  502  0.30263655693E+02  0.76111108573E+01 -0.12547082968E+03  0.12936081078E+03  0.41800000000E+01 0.  1.
        -11    1    1    2    0    0  0.47092413057E+02 -0.45012587860E+01 -0.14987124825E+03  0.15716026136E+03  0.00000000000E+00 0. -1.
         11    1    1    2    0    0  0.44077826937E+02 -0.83936167526E+01 -0.51586014430E+01  0.45165460238E+02  0.00000000000E+00 0.  1.
</event>
<event>
 7    1  0.2841804E-009  0.9458376E+02  0.7561462E-02  0.1292116E+00
          1   -1    0    0  501    0  0.00000000000E+00  0.00000000000E+00  0.32163540083E+03  0.32163540083E+03  0.00000000000E+00 0. -1.
         -1   -1    0    0    0  501 -0.00000000000E+00 -0.00000000000E+00 -0.44721770005E+02  0.44721770005E+02  0.00000000000E+00 0.  1.
         25    2    1    2    0    0  0.93617672977E+01 -0.13160545893E+02  0.82315862129E+02  0.15062368826E+03  0.12510296420E+03 0.  0.
          5    1    3    3  502    0 -0.41039355312E+02  0.93472712487E+01 -0.95558702737E+01  0.43363431840E+02  0.41800000000E+01 0.  1.
         -5    1    3    3    0  502  0.50401122610E+02 -0.22507817142E+02  0.91871732403E+02  0.10726025642E+03  0.41800000000E+01 0.  1.
        -11    1    1    2    0    0  0.32431116764E+02 -0.20053111312E+02  0.61916258494E+02  0.72715388150E+02  0.00000000000E+00 0.  1.
         11    1    1    2    0    0 -0.41792884062E+02  0.33213657205E+02  0.13268151020E+03  0.14301809442E+03  0.00000000000E+00 0. -1.
</event>
<event>
 7    1  0.2841804E-009  0.1132187E+03  0.7561462E-02  0.1254723E+00
          2   -1    0    0  501    0  0.00000000000E+00  0.00000000000E+00  0.39864608839E+03  0.39864608839E+03  0.00000000000E+00 0. -1.
         -2   -1    0    0    0  501 -0.00000000000E+00 -0.00000000000E+00 -0.69797966853E+02  0.69797966853E+02  0.00000000000E+00 0.  1.
         25    2    1    2    0    0 -0.12143735617E+02  0.91345067857E+02  0.31958326746E+03  0.35535105824E+03  0.12509803364E+03 0.  0.
          5    1    3    3  502    0 -0.24127025100E+02 -0.90919058408E+01  0.18556383360E+03  0.18739312910E+03  0.41800000000E+01 0.  1.
         -5    1    3    3    0  502  0.11983289483E+02  0.10043697370E+03  0.13401943385E+03  0.16795792915E+03  0.41800000000E+01 0.  1.
        -11    1    1    2    0    0  0.18582221076E+02 -0.19452829739E+02 -0.21688717494E+02  0.34555925563E+02  0.00000000000E+00 0.  1.
         11    1    1    2    0    0 -0.64384854582E+01 -0.71892238118E+02  0.30953571575E+02  0.78537071437E+02  0.00000000000E+00 0. -1.
</event>
<event>
 7    1  0.2841804E-009  0.1060665E+03  0.7561462E-02  0.1268032E+00
         -2   -1    0    0    0  501 -0.00000000000E+00  0.00000000000E+00  0.60211161147E+03  0.60211161147E+03  0.00000000000E+00 0.  1.
          2   -1    0    0  501    0  0.00000000000E+00 -0.00000000000E+00 -0.44432851491E+02  0.44432851491E+02  0.00000000000E+00 0. -1.
         25    2    1    2    0    0 -0.91155015993E+02 -0.34437225803E+02  0.44248168249E+03  0.47003420618E+03  0.12508779386E+03 0.  0.
          5    1    3    3  502    0 -0.21405293261E+02  0.54193919732E+01  0.33515289935E+03  0.33590548482E+03  0.41800000000E+01 0. -1.
         -5    1    3    3    0  502 -0.69749722732E+02 -0.39856617777E+02  0.10732878314E+03  0.13412872135E+03  0.41800000000E+01 0. -1.
        -11    1    1    2    0    0  0.76048700991E+02  0.51002842371E+01  0.24600211124E+02  0.80091124409E+02  0.00000000000E+00 0. -1.
         11    1    1    2    0    0  0.15106315002E+02  0.29336941566E+02  0.90596866358E+02  0.96419132372E+02  0.00000000000E+00 0.  1.
</event>
<event>
 7    1  0.2841804E-009  0.1185427E+03  0.7561462E-02  0.1245521E+00
         -3   -1    0    0    0  501 -0.00000000000E+00  0.00000000000E+00  0.32822583599E+03  0.32822583599E+03  0.00000000000E+00 0.  1.
          3   -1    0    0  501    0  0.00000000000E+00 -0.00000000000E+00 -0.57935123211E+02  0.57935123211E+02  0.00000000000E+00 0. -1.
         25    2    1    2    0    0  0.81772388934E+02 -0.19224821791E+02  0.12207240233E+03  0.19392169288E+03  0.12509050400E+03 0.  0.
          5    1    3    3  502    0 -0.28836880063E+02 -0.26763859118E+02  0.36200128514E+02  0.53626406844E+02  0.41800000000E+01 0. -1.
         -5    1    3    3    0  502  0.11060926900E+03  0.75390373268E+01  0.85872273818E+02  0.14029528603E+03  0.41800000000E+01 0. -1.
        -11    1    1    2    0    0 -0.58024928374E+02  0.35732088787E+01  0.20891688125E+02  0.61774774522E+02  0.00000000000E+00 0. -1.
         11    1    1    2    0    0 -0.23747460560E+02  0.15651612912E+02  0.12732662232E+03  0.13046449180E+03  0.00000000000E+00 0.  1.
</event>
<event>
 7    1  0.2841804E-009  0.1226254E+03  0.7561462E-02  0.1238828E+00
          1   -1    0    0  501    0  0.00000000000E+00  0.00000000000E+00  0.73294722293E+03  0.73294722293E+03  0.00000000000E+00 0. -1.
         -1   -1    0    0    0  501 -0.00000000000E+00 -0.00000000000E+00 -0.21408763312E+02  0.21408763312E+02  0.00000000000E+00 0.  1.
         25    2    1    2    0    0 -0.55390960657E+02  0.25845464751E+02  0.38403843283E+03  0.40849566645E+03  0.12508814910E+03 0.  0.
          5    1    3    3  502    0 -0.87412987424E+02 -0.11005906677E+02  0.27858578181E+03  0.29221511011E+03  0.41800000000E+01 0.  1.
         -5    1    3    3    0  502  0.32022026767E+02  0.36851371428E+02  0.10545265103E+03  0.11628055634E+03  0.41800000000E+01 0.  1.
        -11    1    1    2    0    0  0.37526512063E+02 -0.59269660944E+02  0.17085490729E+03  0.18469578003E+03  0.00000000000E+00 0.  1.
         11    1    1    2    0    0  0.17864448594E+02  0.33424196193E+02  0.15664511950E+03  0.16116453977E+03  0.00000000000E+00 0. -1.
</event>
<event>
 7    1  0.2841804E-009  0.1278681E+03  0.7561462E-02  0.1230654E+00
         -2   -1    0    0    0  501 -0.00000000000E+00  0.00000000000E+00  0.98056561698E+02  0.98056561698E+02  0.00000000000E+00 0. -1.
          2   -1    0    0  501    0  0.00000000000E+00 -0.00000000000E+00 -0.26849598334E+03  0.26849598334E+03  0.00000000000E+00 0.  1.
         25    2    1    2    0    0  0.85566534711E+02  0.23798170313E+02 -0.18650749704E+03  0.24149278356E+03  0.12508290565E+03 0.  0.
          5    1    3    3  502    0  0.10661973975E+03 -0.15703024796E+02 -0.14106756968E+03  0.17757219802E+03  0.41800000000E+01 0.  1.
         -5    1    3    3    0  502 -0.21053205043E+02  0.39501195109E+02 -0.45439927355E+02  0.63920585539E+02  0.41800000000E+01 0.  1.
        -11    1    1    2    0    0 -0.13041418078E+02 -0.27367803772E+02  0.38553254572E+02  0.49045170067E+02  0.00000000000E+00 0. -1.
         11    1    1    2    0    0 -0.72525116633E+02  0.35696334587E+01 -0.22485179179E+02  0.76014591417E+02  0.00000000000E+00 0.  1.
</event>
<event>
 7    1  0.2841804E-009  0.1489318E+03  0.7561462E-02  0.1201792E+00
          2   -1    0    0  501    0  0.00000000000E+00  0.00000000000E+00  0.15786779763E+03  0.15786779763E+03  0.00000000000E+00 0. -1.
         -2   -1    0    0    0  501 -0.00000000000E+00 -0.00000000000E+00 -0.21571451708E+03  0.21571451708E+03  0.00000000000E+00 0.  1.
         25    2    1    2    0    0 -0.96774368562E+02 -0.77343548215E+02 -0.11780896791E+03  0.21184133090E+03  0.12510193323E+03 0.  0.
          5    1    3    3  502    0 -0.10307381863E+03 -0.27263112064E+02 -0.12071274598E+03  0.16111030013E+03  0.41800000000E+01 0.  1.
         -5    1    3    3    0  502  0.62994500637E+01 -0.50080436152E+02  0.29037780682E+01  0.50731030773E+02  0.41800000000E+01 0.  1.
        -11    1    1    2    0    0  0.49474995657E+02  0.78969926118E+02  0.11318766579E+02  0.93872993471E+02  0.00000000000E+00 0.  1.
         11    1    1    2    0    0  0.47299372905E+02 -0.16263779025E+01  0.48643481879E+02  0.67867990331E+02  0.00000000000E+00 0. -1.
</event>
<event>
 7    1  0.2841804E-009  0.1059623E+03  0.7561462E-02  0.1268235E+00
         -1   -1    0    0    0  501 -0.00000000000E+00  0.00000000000E+00  0.68853576759E+03  0.68853576759E+03  0.00000000000E+00 0.  1.
          1   -1    0    0  501    0  0.00000000000E+00 -0.00000000000E+00 -0.40897259065E+02  0.40897259065E+02  0.00000000000E+00 0. -1.
         25    2    1    2    0    0  0.67967273880E+02 -0.41199145825E+02  0.56115871264E+03  0.58040029053E+03  0.12509387095E+03 0.  0.
          5    1    3    3  502    0  0.32754007809E+02  0.18962318660E+02  0.43110377312E+03  0.43278208160E+03  0.41800000000E+01 0. -1.
         -5    1    3    3    0  502  0.35213266071E+02 -0.60161464485E+02  0.13005493952E+03  0.14761820894E+03  0.41800000000E+01 0. -1.
        -11    1    1    2    0    0  0.13183450196E+02  0.11824664130E+02 -0.93853388482E+01  0.20042720029E+02  0.00000000000E+00 0. -1.
         11    1    1    2    0    0 -0.81150724076E+02  0.29374481695E+02  0.95865134736E+02  0.12899001609E+03  0.00000000000E+00 0.  1.
</event>
<event>
 7    1  0.2841804E-009  0.1092879E+03  0.7561462E-02  0.1261894E+00
         -1   -1    0    0    0  501 -0.00000000000E+00  0.00000000000E+00  0.27955626551E+02  0.27955626551E+02  0.00000000000E+00 0. -1.
          1   -1    0    0  501    0  0.00000000000E+00 -0.00000000000E+00 -0.57166893399E+03  0.57166893399E+03  0.00000000000E+00 0.  1.
         25    2    1    2    0    0  0.44401700796E+02 -0.41439140367E+02 -0.30609789032E+03  0.33619876478E+03  0.12507988486E+03 0.  0.
          5    1    3    3  502    0  0.74617231382E+02  0.10580715667E+02 -0.13337645725E+03  0.15325284504E+03  0.41800000000E+01 0.  1.
         -5    1    3    3    0  502 -0.30215530587E+02 -0.52019856034E+02 -0.17272143306E+03  0.18294591974E+03  0.41800000000E+01 0.  1.
        -11    1    1    2    0    0 -0.45320574062E+02  0.41696915573E+01 -0.21512471741E+03  0.21988629971E+03  0.00000000000E+00 0.  1.
         11    1    1    2    0    0  0.91887326659E+00  0.37269448810E+02 -0.22490699716E+02  0.43539496051E+02  0.00000000000E+00 0. -1.
</event>
<event>
 6    1  0.2841804E-009  0.1345648E+03  0.7561462E-02  0.1220835E+00
          2   -1    0    0  501    0  0.00000000000E+00  0.00000000000E+00  0.75415787146E+03  0.75415787146E+03  0.00000000000E+00 0. -1.
         -2   -1    0    0    0  501 -0.00000000000E+00 -0.00000000000E+00 -0.28000681738E+02  0.28000681738E+02  0.00000000000E+00 0.  1.
          5    1    1    2  502    0  0.19384759923E+02  0.23530816815E+02  0.45565667056E+02  0.54983367226E+02  0.41800000000E+01 0.  1.
         -5    1    1    2    0  502 -0.11045722616E+03 -0.57774096005E+02  0.33272174768E+03  0.35533066116E+03  0.41800000000E+01 0.  1.
        -11    1    1    2    0    0  0.75555733545E+02  0.50719197926E+02  0.33188923893E+03  0.34413888596E+03  0.00000000000E+00 0. -1.
         11    1    1    2    0    0  0.15516732694E+02 -0.16475918736E+02  0.15980536053E+02  0.27705638852E+02  0.00000000000E+00 0.  1.
</event>
<event>
 7    1  0.2841804E-009  0.1045462E+03  0.7561462E-02  0.1271016E+00
          1   -1    0    0  501    0  0.00000000000E+00  0.00000000000E+00  0.68185276259E+03  0.68185276259E+03  0.00000000000E+00 0. -1.
         -1   -1    0    0    0  501 -0.00000000000E+00 -0.00000000000E+00 -0.17876154491E+02  0.17876154491E+02  0.00000000000E+00 0.  1.
         25    2    1    2    0    0  0.35268309498E+01  0.18186563500E+02  0.42472938218E+03  0.44316186519E+03  0.12511674966E+03 0.  0.
          5    1    3    3  502    0 -0.58432445899E+02  0.38751166991E+01  0.25974175607E+03  0.26629423484E+03  0.41800000000E+01 0.  1.
         -5    1    3    3    0  502  0.61959276849E+02  0.14311446801E+02  0.16498762611E+03  0.17686763035E+03  0.41800000000E+01 0.  1.
        -11    1    1    2    0    0 -0.44103911191E+02 -0.80791242206E+01  0.77834876534E+02  0.89825916281E+02  0.00000000000E+00 0.  1.
         11    1    1    2    0    0  0.40577080242E+02 -0.10107439279E+02  0.16141234938E+03  0.16674113561E+03  0.00000000000E+00 0. -1.
</event>
<event>
 7    1  0.2841804E-009  0.9148833E+02  0.7561462E-02  0.1299287E+00
          1   -1    0    0  501    0  0.00000000000E+00  0.00000000000E+00  0.14121768639E+04  0.14121768639E+04  0.00000000000E+00 0. -1.
         -1   -1    0    0    0  501 -0.00000000000E+00 -0.00000000000E+00 -0.18513741735E+02  0.18513741735E+02  0.00000000000E+00 0.  1.
         25    2    1    2    0    0  0.48671924613E+02 -0.34383626952E+02  0.12026400192E+04  0.12105972081E+04  0.12510553274E+03 0.  0.
          5    1    3    3  502    0 -0.98351522356E+01 -0.52815802234E+00  0.91609255092E+03  0.91615503241E+03  0.41800000000E+01 0.  1.
         -5    1    3    3    0  502  0.58507076848E+02 -0.33855468930E+02  0.28654746828E+03  0.29444217564E+03  0.41800000000E+01 0.  1.
        -11    1    1    2    0    0 -0.72563978418E+02  0.15753069484E+02  0.16167916619E+03  0.17791526900E+03  0.00000000000E+00 0. -1.
         11    1    1    2    0    0  0.23892053805E+02  0.18630557468E+02  0.29343936821E+02  0.42178128630E+02  0.00000000000E+00 0.  1.
</event>
<event>
 7    1  0.2841804E-009  0.1839937E+03  0.7561462E-02  0.1163993E+00
          1   -1    0    0  501    0  0.00000000000E+00  0.00000000000E+00  0.42021755138E+03  0.42021755138E+03  0.00000000000E+00 0. -1.
         -1   -1    0    0    0  501 -0.00000000000E+00 -0.00000000000E+00 -0.10935555895E+03  0.10935555895E+03  0.00000000000E+00 0.  1.
         25    2    1    2    0    0 -0.40021861509E+02 -0.14397591522E+03  0.29661895472E+02  0.19711124210E+03  0.12506878172E+03 0.  0.
          5    1    3    3  502    0  0.30062436311E+02 -0.11225507515E+03  0.56872232681E+01  0.11642494957E+03  0.41800000000E+01 0. -1.
         -5    1    3    3    0  502 -0.70084297820E+02 -0.31720840064E+02  0.23974672204E+02  0.80686292532E+02  0.41800000000E+01 0. -1.
        -11    1    1    2    0    0  0.46435509056E+02  0.20069343184E+02  0.56921446320E+02  0.76151730698E+02  0.00000000000E+00 0.  1.
         11    1    1    2    0    0 -0.64136475467E+01  0.12390657203E+03  0.22427865064E+03  0.25631013753E+03  0.00000000000E+00 0. -1.
</event>
<event>
 7    1  0.2841804E-009  0.9723739E+02  0.7561462E-02  0.1286215E+00
          1   -1    0    0  501    0  0.00000000000E+00  0.00000000000E+00  0.30068198592E+03  0.30068198592E+03  0.00000000000E+00 0. -1.
         -1   -1    0    0    0  501 -0.00000000000E+00 -0.00000000000E+00 -0.56527954297E+02  0.56527954297E+02  0.00000000000E+00 0.  1.
         25    2    1    2    0    0  0.26631021394E+02  0.23553481620E+02  0.47559104317E+02  0.13848407270E+03  0.12510792218E+03 0.  0.
          5    1    3    3  502    0  0.26892942225E+02  0.64727204619E+02 -0.63704296958E+01  0.70504582361E+02  0.41800000000E+01 0.  1.
         -5    1    3    3    0  502 -0.26192083123E+00 -0.41173722999E+02  0.53929534013E+02  0.67979490341E+02  0.41800000000E+01 0.  1.
        -11    1    1    2    0    0  0.26002780754E+02 -0.22818958663E+01  0.19020155823E+02  0.32297337092E+02  0.00000000000E+00 0.  1.
         11    1    1    2    0    0 -0.52633802148E+02 -0.21271585754E+02  0.17757477149E+03  0.18642853043E+03  0.00000000000E+00 0. -1.
</event>
<event>
 7    1  0.2841804E-009  0.7084131E+02  0.7561462E-02  0.1357255E+00
          1   -1    0    0  501    0  0.00000000000E+00  0.00000000000E+00  0.76635594847E+03  0.76635594847E+03  0.00000000000E+00 0. -1.
         -1   -1    0    0    0  501 -0.00000000000E+00 -0.00000000000E+00 -0.19581414994E+02  0.19581414994E+02  0.00000000000E+00 0.  1.
         25    2    1    2    0    0  0.52274378485E+02  0.13250094607E+02  0.43989501511E+03  0.46050300616E+03  0.12508884326E+03 0.  0.
          5    1    3    3  502    0  0.46709746717E+02  0.18886308140E+02  0.52074332924E+02  0.72578933741E+02  0.41800000000E+01 0.  1.
         -5    1    3    3    0  502  0.55646317680E+01 -0.56362135327E+01  0.38782068219E+03  0.38792407242E+03  0.41800000000E+01 0.  1.
        -11    1    1    2    0    0  0.13354989432E+02 -0.95852611950E+01  0.60648504505E+01  0.17521854522E+02  0.00000000000E+00 0.  1.
         11    1    1    2    0    0 -0.65629367916E+02 -0.36648334124E+01  0.30081466791E+03  0.30791250278E+03  0.00000000000E+00 0. -1.
</event>
<event>
 7    1  0.2841804E-009  0.1332499E+03  0.7561462E-02  0.1222712E+00
         -2   -1    0    0    0  501 -0.00000000000E+00  0.00000000000E+00  0.68610389472E+02  0.68610389472E+02  0.00000000000E+00 0.  1.
          2   -1    0    0  501    0  0.00000000000E+00 -0.00000000000E+00 -0.34994897896E+03  0.34994897896E+03  0.00000000000E+00 0. -1.
         25    2    1    2    0    0 -0.10564370306E+03  0.19679918101E+02 -0.18245850154E+03  0.24593990330E+03  0.12508972812E+03 0.  0.
          5    1    3    3  502    0 -0.71321167034E+02 -0.39885110566E+02 -0.47986063713E+02  0.94856025758E+02  0.41800000000E+01 0.  1.
         -5    1    3    3    0  502 -0.34322536022E+02  0.59565028667E+02 -0.13447243782E+03  0.15108387754E+03  0.41800000000E+01 0.  1.
        -11    1    1    2    0    0  0.27313562906E+02  0.13819867061E+02  0.11923306911E+02  0.32850946590E+02  0.00000000000E+00 0.  1.
         11    1    1    2    0    0  0.78330140151E+02 -0.33499785162E+02 -0.11080339486E+03  0.13976851854E+03  0.00000000000E+00 0. -1.
</event>
<event>
 7    1  0.2841804E-009  0.1109839E+03  0.7561462E-02  0.1258759E+00
         -1   -1    0    0    0  501 -0.00000000000E+00  0.00000000000E+00  0.30955921551E+02  0.30955921551E+02  0.00000000000E+00 0.  1.
          1   -1    0    0  501    0  0.00000000000E+00 -0.00000000000E+00 -0.53802824718E+03  0.53802824718E+03  0.00000000000E+00 0. -1.
         25    2    1    2    0    0 -0.79414449309E+02 -0.25474091981E+02 -0.35090090700E+03  0.38175286680E+03  0.12509284814E+03 0.  0.
          5    1    3    3  502    0 -0.17607400379E+02 -0.49880867743E+02 -0.27801278479E+03  0.28303127464E+03  0.41800000000E+01 0. -1.
         -5    1    3    3    0  502 -0.61807048930E+02  0.24406775762E+02 -0.72888122208E+02  0.98721592165E+02  0.41800000000E+01 0. -1.
        -11    1    1    2    0    0  0.46778747505E+02  0.44485128013E+02 -0.85891150400E+02  0.10744518393E+03  0.00000000000E+00 0.  1.
         11    1    1    2    0    0  0.32635701804E+02 -0.19011036033E+02 -0.70280268227E+02  0.79786117999E+02  0.00000000000E+00 0. -1.
</event>
<event>
 7    1  0.2841804E-009  0.1558814E+03  0.7561462E-02  0.1193427E+00
          1   -1    0    0  501    0  0.00000000000E+00  0.00000000000E+00  0.14025353301E+04  0.14025353301E+04  0.00000000000E+00 0. -1.
         -1   -1    0    0    0  501 -0.00000000000E+00 -0.00000000000E+00 -0.18982328312E+02  0.18982328312E+02  0.00000000000E+00 0.  1.
         25    2    1    2    0    0 -0.32936078637E+02  0.11208488796E+03  0.59000418132E+03  0.61432819293E+03  0.12508551983E+03 0.  0.
          5    1    3    3  502    0 -0.51999083552E+02  0.12860753912E+03  0.41809815176E+03  0.44053074889E+03  0.41800000000E+01 0.  1.
         -5    1    3    3    0  502  0.19063004915E+02 -0.16522651159E+02  0.17190602955E+03  0.17379744404E+03  0.41800000000E+01 0.  1.
        -11    1    1    2    0    0  0.45037686378E+02 -0.12021659546E+02  0.22545314876E+03  0.23022171005E+03  0.00000000000E+00 0.  1.
         11    1    1    2    0    0 -0.12101607741E+02 -0.10006322842E+03  0.56809567172E+03  0.57696775544E+03  0.00000000000E+00 0. -1.
</event>
<event>
 7    1  0.2841804E-009  0.1092878E+03  0.7561462E-02  0.1261894E+00
          3   -1    0    0  501    0  0.00000000000E+00  0.00000000000E+00  0.23765999656E+03  0.23765999656E+03  0.00000000000E+00 0. -1.
         -3   -1    0    0    0  501 -0.00000000000E+00 -0.00000000000E+00 -0.73082925021E+02  0.73082925021E+02  0.00000000000E+00 0.  1.
         25    2    1    2    0    0 -0.40518282846E+02  0.39281000650E+02  0.37035491651E+02  0.14211772215E+03  0.12506434764E+03 0.  0.
          5    1    3    3  502    0 -0.46849219555E+02 -0.31278099164E+02 -0.94662025747E+01  0.57273469001E+02  0.41800000000E+01 0.  1.
         -5    1    3    3    0  502  0.63309367088E+01  0.70559099814E+02  0.46501694226E+02  0.84844253146E+02  0.41800000000E+01 0.  1.
        -11    1    1    2    0    0 -0.54445587090E+01 -0.44530846446E+02  0.15593821837E+02  0.47495334342E+02  0.00000000000E+00 0.  1.
         11    1    1    2    0    0  0.45962841555E+02  0.52498457966E+01  0.11194775805E+03  0.12112986509E+03  0.00000000000E+00 0. -1.
</event>
<event>
 7    1  0.2841804E-009  0.1568492E+03  0.7561462E-02  0.1192301E+00
         -1   -1    0    0    0  501 -0.00000000000E+00  0.00000000000E+00  0.39732544162E+03  0.39732544162E+03  0.00000000000E+00 0.  1.
          1   -1    0    0  501    0  0.00000000000E+00 -0.00000000000E+00 -0.82598133841E+02  0.82598133841E+02  0.00000000000E+00 0. -1.
         25    2    1    2    0    0  0.10888435333E+03  0.75994667421E+02  0.88640083290E+02  0.20281690801E+03  0.12508653777E+03 0.  0.
          5    1    3    3  502    0  0.10247103906E+03 -0.19321686044E+01  0.37113306732E+02  0.10908215738E+03  0.41800000000E+01 0.  1.
         -5    1    3    3    0  502  0.64133142733E+01  0.77926836025E+02  0.51526776558E+02  0.93734750628E+02  0.41800000000E+01 0.  1.
        -11    1    1    2    0    0 -0.29821819884E+02 -0.22607997889E+02  0.15137864313E+03  0.15593574351E+03  0.00000000000E+00 0.  1.
         11    1    1    2    0    0 -0.79062533450E+02 -0.53386669532E+02  0.74708581359E+02  0.12117092394E+03  0.00000000000E+00 0. -1.
</event>
<event>
 7    1  0.2841804E-009  0.1257052E+03  0.7561462E-02  0.1233971E+00
         -3   -1    0    0    0  501 -0.00000000000E+00  0.00000000000E+00  0.68894738030E+02  0.68894738030E+02  0.00000000000E+00 0.  1.
          3   -1    0    0  501    0  0.00000000000E+00 -0.00000000000E+00 -0.24831294194E+03  0.24831294194E+03  0.00000000000E+00 0. -1.
         25    2    1    2    0    0 -0.28034264075E+02 -0.69345804668E+02 -0.10939849324E+03  0.18223758855E+03  0.12509095798E+03 0.  0.
          5    1    3    3  502    0 -0.57336969545E+02  0.10927589519E+02 -0.58195628484E+02  0.82529654452E+02  0.41800000000E+01 0. -1.
         -5    1    3    3    0  502  0.29302705471E+02 -0.80273394188E+02 -0.51202864753E+02  0.99707934093E+02  0.41800000000E+01 0. -1.
        -11    1    1    2    0    0  0.14077690401E+02 -0.15737359184E+02  0.38136247998E+01  0.21456690687E+02  0.00000000000E+00 0.  1.
         11    1    1    2    0    0  0.13956573674E+02  0.85083163852E+02 -0.73833335474E+02  0.11351340074E+03  0.00000000000E+00 0. -1.
</event>
<event>
 7    1  0.2841804E-009  0.6473337E+02  0.7561462E-02  0.1378977E+00
          1   -1    0    0  501    0  0.00000000000E+00  0.00000000000E+00  0.20816655751E+03  0.20816655751E+03  0.00000000000E+00 0. -1.
         -1   -1    0    0    0  501 -0.00000000000E+00 -0.00000000000E+00 -0.74303860130E+02  0.74303860130E+02  0.00000000000E+00 0.  1.
         25    2    1    2    0    0  0.28048164021E+02  0.47442056266E+02  0.46724009585E+02  0.14445428594E+03  0.12508580834E+03 0.  0.
          5    1    3    3  502    0  0.25233327579E+02  0.23475133097E+02  0.89036232630E+02  0.95565296084E+02  0.41800000000E+01 0. -1.
         -5    1    3    3    0  502  0.28148364422E+01  0.23966923169E+02 -0.42312223045E+02  0.48888989859E+02  0.41800000000E+01 0. -1.
        -11    1    1    2    0    0 -0.14364800523E+01 -0.43303249211E+02 -0.34930131878E+01  0.43467643234E+02  0.00000000000E+00 0.  1.
         11    1    1    2    0    0 -0.26611683969E+02 -0.41388070551E+01  0.90631700983E+02  0.94548488463E+02  0.00000000000E+00 0. -1.
</event>
<event>
 7    1  0.2841804E-009  0.1319404E+03  0.7561462E-02  0.1224605E+00
         -1   -1    0    0    0  501 -0.00000000000E+00  0.00000000000E+00  0.10882348445E+02  0.10882348445E+02  0.00000000000E+00 0.  1.
          1   -1    0    0  501    0  0.00000000000E+00 -0.00000000000E+00 -0.18283310132E+04  0.18283310132E+04  0.00000000000E+00 0. -1.
         25    2    1    2    0    0 -0.56098381491E+02 -0.51373445196E+02 -0.13070075160E+04  0.13151816717E+04  0.12509166093E+03 0.  0.
          5    1    3    3  502    0  0.26597600162E+02  0.22762380302E+02 -0.32029717409E+03  0.32223176507E+03  0.41800000000E+01 0.  1.
         -5    1    3    3    0  502 -0.82695981653E+02 -0.74135825498E+02 -0.98671034187E+03  0.99294990667E+03  0.41800000000E+01 0.  1.
        -11    1    1    2    0    0 -0.20625467323E+02  0.32467131925E+02 -0.13546188933E+03  0.14081707290E+03  0.00000000000E+00 0.  1.
         11    1    1    2    0    0  0.76723848814E+02  0.18906313271E+02 -0.37497925942E+03  0.38321461696E+03  0.00000000000E+00 0. -1.
</event>
<event>
 7    1  0.2841804E-009  0.1515497E+03  0.7561462E-02  0.1198582E+00
         -2   -1    0    0    0  501 -0.00000000000E+00  0.00000000000E+00  0.66216686028E+02  0.66216686028E+02  0.00000000000E+00 0.  1.
          2   -1    0    0  501    0  0.00000000000E+00 -0.00000000000E+00 -0.47698868478E+03  0.47698868478E+03  0.00000000000E+00 0. -1.
         25    2    1    2    0    0  0.11184429265E+03  0.47706760282E+02 -0.10899823605E+03  0.20570062035E+03  0.12508816480E+03 0.  0.
          5    1    3    3  502    0  0.12600372581E+03  0.11521596508E+02 -0.52613257079E+02  0.13709600040E+03  0.41800000000E+01 0. -1.
         -5    1    3    3    0  502 -0.14159433160E+02  0.36185163774E+02 -0.56384978974E+02  0.68604619952E+02  0.41800000000E+01 0. -1.
        -11    1    1    2    0    0 -0.31126680694E+01 -0.26446821981E+02 -0.16144260394E+02  0.31140973637E+02  0.00000000000E+00 0.  1.
         11    1    1    2    0    0 -0.10873162458E+03 -0.21259938301E+02 -0.28562950230E+03  0.30636377682E+03  0.00000000000E+00 0. -1.
</event>
<event>
 7    1  0.3057176E-009  0.1202393E+03  0.7561462E-02  0.1242703E+00
          2   -1    0    0  501    0  0.00000000000E+00  0.00000000000E+00  0.33891034784E+03  0.33891034784E+03  0.00000000000E+00 0. -1.
         -2   -1    0    0    0  501 -0.00000000000E+00 -0.00000000000E+00 -0.60283998569E+02  0.60283998569E+02  0.00000000000E+00 0.  1.
         25    2    1    2    0    0 -0.10103530061E+02  0.80774831330E+02  0.21451982166E+03  0.26133112220E+03  0.12509415194E+03 0.  0.
          5    1    3    3  502    0 -0.48127199644E+02  0.64151362534E+02  0.57247970183E+02  0.98622650292E+02  0.41800000000E+01 0. -1.
         -5    1    3    3    0  502  0.38023669582E+02  0.16623468796E+02  0.15727185148E+03  0.16270847191E+03  0.41800000000E+01 0. -1.
        -11    1    1    2    0    0 -0.33298200978E+02 -0.63595657169E+02  0.22216843930E+02  0.75144966255E+02  0.00000000000E+00 0.  1.
         11    1    1    2    0    0  0.43401731039E+02 -0.17179174161E+02  0.41889683679E+02  0.62718257954E+02  0.00000000000E+00 0. -1.
</event>
<event>
 7    1  0.2841804E-009  0.9698965E+02  0.7561462E-02  0.1286757E+00
         -3   -1    0    0    0  501 -0.00000000000E+00  0.00000000000E+00  0.19867589414E+03  0.19867589414E+03  0.00000000000E+00 0.  1.
          3   -1    0    0  501    0  0.00000000000E+00 -0.00000000000E+00 -0.61115801535E+02  0.61115801535E+02  0.00000000000E+00 0. -1.
         25    2    1    2    0    0  0.22125189754E+01  0.15865124291E+02  0.66379791323E+02  0.14252172425E+03  0.12509823252E+03 0.  0.
          5    1    3    3  502    0  0.58160658300E+02  0.23330088404E+02  0.11819148287E+02  0.63907119048E+02  0.41800000000E+01 0. -1.
         -5    1    3    3    0  502 -0.55948139324E+02 -0.74649641130E+01  0.54560643036E+02  0.78614605205E+02  0.41800000000E+01 0. -1.
        -11    1    1    2    0    0 -0.81913421896E+01 -0.44538772178E+02  0.75121480046E+02  0.87715660394E+02  0.00000000000E+00 0.  1.
         11    1    1    2    0    0  0.59788232141E+01  0.28673647887E+02 -0.39411787653E+01  0.29554311027E+02  0.00000000000E+00 0. -1.
</event>
<event>
 7    1  0.2841804E-009  0.1126707E+03  0.7561462E-02  0.1255703E+00
         -2   -1    0    0    0  501 -0.00000000000E+00  0.00000000000E+00  0.19960112346E+03  0.19960112346E+03  0.00000000000E+00 0.  1.
          2   -1    0    0  501    0  0.00000000000E+00 -0.00000000000E+00 -0.12540824520E+03  0.12540824520E+03  0.00000000000E+00 0. -1.
         25    2    1    2    0    0 -0.63718421152E+02 -0.18150455616E+02 -0.56292236545E+02  0.15233652262E+03  0.12509246179E+03 0.  0.
          5    1    3    3  502    0 -0.89777611995E+02 -0.47835025040E+02 -0.41686570558E+02  0.11001568889E+03  0.41800000000E+01 0. -1.
         -5    1    3    3    0  502  0.26059190843E+02  0.29684569424E+02 -0.14605665987E+02  0.42320833737E+02  0.41800000000E+01 0. -1.
        -11    1    1    2    0    0  0.12256365835E+02 -0.17384181603E+02  0.10157016960E+03  0.10377344374E+03  0.00000000000E+00 0.  1.
         11    1    1    2    0    0  0.51462055317E+02  0.35534637219E+02  0.28914945203E+02  0.68899402290E+02  0.00000000000E+00 0. -1.
</event>
<event>
 7    1  0.2841804E-009  0.1420949E+03  0.7561462E-02  0.1210538E+00
         -2   -1    0    0    0  501 -0.00000000000E+00  0.00000000000E+00  0.30161424927E+02  0.30161424927E+02  0.00000000000E+00 0.  1.
          2   -1    0    0  501    0  0.00000000000E+00 -0.00000000000E+00 -0.79323706915E+03  0.79323706915E+03  0.00000000000E+00 0. -1.
         25    2    1    2    0    0  0.11005360103E+03  0.23855058837E+01 -0.42818724470E+03  0.45946584347E+03  0.12508820512E+03 0.  0.
          5    1    3    3  502    0  0.33781135134E+02  0.47320837361E+02 -0.73152235197E+02  0.93536883922E+02  0.41800000000E+01 0. -1.
         -5    1    3    3    0  502  0.76272465898E+02 -0.44935331477E+02 -0.35503500950E+03  0.36592895955E+03  0.41800000000E+01 0. -1.
        -11    1    1    2    0    0 -0.10549975873E+03 -0.29686131997E+02 -0.22039175542E+03  0.24613815507E+03  0.00000000000E+00 0.  1.
         11    1    1    2    0    0 -0.45538423068E+01  0.27300626113E+02 -0.11449664410E+03  0.11779449552E+03  0.00000000000E+00 0. -1.
</event>
<event>
 7    1  0.2841804E-009  0.7876583E+02  0.7561462E-02  0.1332591E+00
          2   -1    0    0  501    0  0.00000000000E+00  0.00000000000E+00  0.10055013296E+04  0.10055013296E+04  0.00000000000E+00 0. -1.
         -2   -1    0    0    0  501 -0.00000000000E+00 -0.00000000000E+00 -0.19720099012E+02  0.19720099012E+02  0.00000000000E+00 0.  1.
         25    2    1    2    0    0 -0.63793164474E+02 -0.21440165668E+01  0.76244422072E+03  0.77526913071E+03  0.12508745218E+03 0.  0.
          5    1    3    3  502    0 -0.11932028575E+02  0.74376471159E+01  0.43062346142E+01  0.15287509839E+02  0.41800000000E+01 0. -1.
         -5    1    3    3    0  502 -0.51861135899E+02 -0.95816636827E+01  0.75813798610E+03  0.75998162088E+03  0.41800000000E+01 0. -1.
        -11    1    1    2    0    0 -0.12658121216E+02  0.46004807685E+01 -0.42778210748E+00  0.13474993638E+02  0.00000000000E+00 0.  1.
         11    1    1    2    0    0  0.76451285690E+02 -0.24564642018E+01  0.22376479197E+03  0.23647730425E+03  0.00000000000E+00 0. -1.
</event>
<event>
 7    1  0.2841804E-009  0.1157651E+03  0.7561462E-02  0.1250251E+00
         -4   -1    0    0    0  501 -0.00000000000E+00  0.00000000000E+00  0.79380971334E+02  0.79380971334E+02  0.00000000000E+00 0.  1.
          4   -1    0    0  501    0  0.00000000000E+00 -0.00000000000E+00 -0.18205814586E+03  0.18205814586E+03  0.00000000000E+00 0. -1.
         25    2    1    2    0    0  0.24335740976E+01 -0.44352643044E+02 -0.24533382332E+02  0.13499175338E+03  0.12509119635E+03 0.  0.
          5    1    3    3  502    0 -0.19983466066E+02 -0.84297708882E+02 -0.16938533211E+02  0.88373236594E+02  0.41800000000E+01 0. -1.
         -5    1    3    3    0  502  0.22417040164E+02  0.39945065838E+02 -0.75948491217E+01  0.46618516790E+02  0.41800000000E+01 0. -1.
        -11    1    1    2    0    0  0.10774904014E+02  0.69534293675E+02 -0.61795864273E+02  0.93647452686E+02  0.00000000000E+00 0. -1.
         11    1    1    2    0    0 -0.13208478111E+02 -0.25181650631E+02 -0.16347927922E+02  0.32799911126E+02  0.00000000000E+00 0.  1.
</event>
<event>
 7    1  0.2841804E-009  0.8463689E+02  0.7561462E-02  0.1316385E+00
          2   -1    0    0  501    0  0.00000000000E+00  0.00000000000E+00  0.18888797536E+03  0.18888797536E+03  0.00000000000E+00 0. -1.
         -2   -1    0    0    0  501 -0.00000000000E+00 -0.00000000000E+00 -0.68655259574E+02  0.68655259574E+02  0.00000000000E+00 0.  1.
         25    2    1    2    0    0  0.13067792308E+02 -0.25368586324E+02  0.91021245694E+02  0.15731000817E+03  0.12508892491E+03 0.  0.
          5    1    3    3  502    0  0.39949234731E+02 -0.71467358987E+01 -0.17176387073E+02  0.44266441720E+02  0.41800000000E+01 0. -1.
         -5    1    3    3    0  502 -0.26881442423E+02 -0.18221850425E+02  0.10819763277E+03  0.11304356645E+03  0.41800000000E+01 0. -1.
        -11    1    1    2    0    0 -0.32961815022E+02 -0.25134993336E+02  0.15429713519E+02  0.44230365121E+02  0.00000000000E+00 0.  1.
         11    1    1    2    0    0  0.19894022714E+02  0.50503579659E+02  0.13781756578E+02  0.56002861646E+02  0.00000000000E+00 0. -1.
</event>
<event>
 7    1  0.2841804E-009  0.1436526E+03  0.7561462E-02  0.1208497E+00
          2   -1    0    0  501    0  0.00000000000E+00  0.00000000000E+00  0.57102284185E+02  0.57102284185E+02  0.00000000000E+00 0. -1.
         -2   -1    0    0    0  501 -0.00000000000E+00 -0.00000000000E+00 -0.45140352045E+03  0.45140352045E+03  0.00000000000E+00 0.  1.
         25    2    1    2    0    0  0.49317945068E+01 -0.11360465465E+03 -0.25163205996E+03  0.30314379899E+03  0.12508848512E+03 0.  0.
          5    1    3    3  502    0 -0.56023888885E+02 -0.82786282974E+02 -0.16147323537E+03  0.18995610786E+03  0.41800000000E+01 0.  1.
         -5    1    3    3    0  502  0.60955683391E+02 -0.30818371672E+02 -0.90158824599E+02  0.11318769113E+03  0.41800000000E+01 0.  1.
        -11    1    1    2    0    0  0.45943272617E+01  0.10730791618E+03 -0.15498675695E+03  0.18856561603E+03  0.00000000000E+00 0.  1.
         11    1    1    2    0    0 -0.95261217685E+01  0.62967384636E+01  0.12317580646E+02  0.16796389618E+02  0.00000000000E+00 0. -1.
</event>
<event>
 7    1  0.2841804E-009  0.6368033E+02  0.7561462E-02  0.1383005E+00
          2   -1    0    0  501    0  0.00000000000E+00  0.00000000000E+00  0.13817030980E+03  0.13817030980E+03  0.00000000000E+00 0. -1.
         -2   -1    0    0    0  501 -0.00000000000E+00 -0.00000000000E+00 -0.10198082856E+03  0.10198082856E+03  0.00000000000E+00 0.  1.
         25    2    1    2    0    0  0.29430416273E+02  0.20496525117E+02  0.26692217314E+01  0.13015620103E+03  0.12508898824E+03 0.  0.
          5    1    3    3  502    0  0.38992824447E+02  0.12556029777E+02 -0.56297253932E+02  0.69749175209E+02  0.41800000000E+01 0. -1.
         -5    1    3    3    0  502 -0.95624081734E+01  0.79404953395E+01  0.58966475663E+02  0.60407025820E+02  0.41800000000E+01 0. -1.
        -11    1    1    2    0    0 -0.21432954036E+01  0.22251896287E+02  0.51535539116E+02  0.56175193773E+02  0.00000000000E+00 0. -1.
         11    1    1    2    0    0 -0.27287120870E+02 -0.42748421404E+02 -0.18015279602E+02  0.53819743562E+02  0.00000000000E+00 0.  1.
</event>
<event>
 7    1  0.2841804E-009  0.3278090E+03  0.7561462E-02  0.1072110E+00
          2   -1    0    0  501    0  0.00000000000E+00  0.00000000000E+00  0.87512343603E+03  0.87512343603E+03  0.00000000000E+00 0. -1.
         -2   -1    0    0    0  501 -0.00000000000E+00 -0.00000000000E+00 -0.17206828730E+03  0.17206828730E+03  0.00000000000E+00 0.  1.
         25    2    1    2    0    0 -0.30158957705E+03 -0.97856640524E+02  0.92548660458E+02  0.35319172204E+03  0.12508774075E+03 0.  0.
          5    1    3    3  502    0 -0.16285624562E+03 -0.13895813434E+02 -0.55954507830E+01  0.16359716329E+03  0.41800000000E+01 0.  1.
         -5    1    3    3    0  502 -0.13873333143E+03 -0.83960827089E+02  0.98144111241E+02  0.18959455875E+03  0.41800000000E+01 0.  1.
        -11    1    1    2    0    0  0.44793749879E+02  0.52700770026E+02  0.13593288645E+03  0.15251754263E+03  0.00000000000E+00 0.  1.
         11    1    1    2    0    0  0.25679582717E+03  0.45155870498E+02  0.47457360182E+03  0.54148245866E+03  0.00000000000E+00 0. -1.
</event>
<event>
 7    1  0.3507847E-009  0.7863915E+02  0.7561462E-02  0.1332958E+00
         -2   -1    0    0    0  501 -0.00000000000E+00  0.00000000000E+00  0.12810576128E+02  0.12810576128E+02  0.00000000000E+00 0. -1.
          2   -1    0    0  501    0  0.00000000000E+00 -0.00000000000E+00 -0.11059313367E+04  0.11059313367E+04  0.00000000000E+00 0.  1.
         25    2    1    2    0    0  0.42279566061E+02  0.24494538160E+02 -0.58036529487E+03  0.59569777302E+03  0.12507764464E+03 0.  0.
          5    1    3    3  502    0  0.24981861827E+02  0.27421424584E+02 -0.57591312360E+03  0.57712167373E+03  0.41800000000E+01 0. -1.
         -5    1    3    3    0  502  0.17297704234E+02 -0.29268864243E+01 -0.44521712610E+01  0.18576099290E+02  0.41800000000E+01 0. -1.
        -11    1    1    2    0    0 -0.54947434555E+02  0.17803509499E+02 -0.33104019350E+03  0.33604135940E+03  0.00000000000E+00 0.  1.
         11    1    1    2    0    0  0.12667868494E+02 -0.42298047659E+02 -0.18171527217E+03  0.18700278037E+03  0.00000000000E+00 0. -1.
</event>
<event>
 7    1  0.2841804E-009  0.1107659E+03  0.7561462E-02  0.1259158E+00
          2   -1    0    0  501    0  0.00000000000E+00  0.00000000000E+00  0.37836394320E+03  0.37836394320E+03  0.00000000000E+00 0. -1.
         -2   -1    0    0    0  501 -0.00000000000E+00 -0.00000000000E+00 -0.33301846747E+02  0.33301846747E+02  0.00000000000E+00 0.  1.
         25    2    1    2    0    0  0.21325158820E+02 -0.19581532268E+02  0.21052752343E+03  0.24659126842E+03  0.12508883536E+03 0.  0.
          5    1    3    3  502    0  0.65099064392E+02  0.20319179234E+02  0.99792393092E+02  0.12094110694E+03  0.41800000000E+01 0.  1.
         -5    1    3    3    0  502 -0.43773905572E+02 -0.39900711502E+02  0.11073513034E+03  0.12565016148E+03  0.41800000000E+01 0.  1.
        -11    1    1    2    0    0 -0.50660168475E+02  0.34130946839E+02  0.71486708063E+02  0.94030439921E+02  0.00000000000E+00 0.  1.
         11    1    1    2    0    0  0.29335009656E+02 -0.14549414571E+02  0.63047864959E+02  0.71044081610E+02  0.00000000000E+00 0. -1.
</event>
<event>
 7    1  0.2841804E-009  0.1085078E+03  0.7561462E-02  0.1263358E+00
         -2   -1    0    0    0  501 -0.00000000000E+00  0.00000000000E+00  0.13985999254E+03  0.13985999254E+03  0.00000000000E+00 0. -1.
          2   -1    0    0  501    0  0.00000000000E+00 -0.00000000000E+00 -0.10485705243E+03  0.10485705243E+03  0.00000000000E+00 0.  1.
         25    2    1    2    0    0  0.13181556402E+02 -0.47691648402E+02  0.38621502746E+02  0.13995432977E+03  0.12508935682E+03 0.  0.
          5    1    3    3  502    0 -0.44335171579E+02  0.17170896003E+02  0.13907524810E+02  0.49712561338E+02  0.41800000000E+01 0. -1.
         -5    1    3    3    0  502  0.57516727980E+02 -0.64862544405E+02  0.24713977936E+02  0.90241768432E+02  0.41800000000E+01 0. -1.
        -11    1    1    2    0    0 -0.15469731570E+02 -0.13939046791E+02 -0.30951383051E+02  0.37304124880E+02  0.00000000000E+00 0.  1.
         11    1    1    2    0    0  0.22881751686E+01  0.61630695193E+02  0.27332820422E+02  0.67458590318E+02  0.00000000000E+00 0. -1.
</event>
<event>
 7    1  0.2841804E-009  0.9994981E+02  0.7561462E-02  0.1280402E+00
         -4   -1    0    0    0  501 -0.00000000000E+00  0.00000000000E+00  0.24858125315E+03  0.24858125315E+03  0.00000000000E+00 0.  1.
          4   -1    0    0  501    0  0.00000000000E+00 -0.00000000000E+00 -0.56722262691E+02  0.56722262691E+02  0.00000000000E+00 0. -1.
         25    2    1    2    0    0 -0.24096436821E+01  0.41425022041E+02  0.14120860063E+03  0.19315776894E+03  0.12509282944E+03 0.  0.
          5    1    3    3  502    0  0.39266259029E+02 -0.29415187740E+02  0.47068834566E+02  0.68117838745E+02  0.41800000000E+01 0. -1.
         -5    1    3    3    0  502 -0.41675902711E+02  0.70840209781E+02  0.94139766064E+02  0.12503993019E+03  0.41800000000E+01 0. -1.
        -11    1    1    2    0    0 -0.25328489198E+02 -0.12348841292E+02  0.63896455147E+02  0.69833969003E+02  0.00000000000E+00 0.  1.
         11    1    1    2    0    0  0.27738132880E+02 -0.29076180748E+02 -0.13246065318E+02  0.42311777899E+02  0.00000000000E+00 0. -1.
</event>
<event>
 7    1  0.2841804E-009  0.1095260E+03  0.7561462E-02  0.1261450E+00
          1   -1    0    0  501    0  0.00000000000E+00  0.00000000000E+00  0.95309573914E+03  0.95309573914E+03  0.00000000000E+00 0.  1.
         -1   -1    0    0    0  501 -0.00000000000E+00 -0.00000000000E+00 -0.16785090551E+02  0.16785090551E+02  0.00000000000E+00 0. -1.
         25    2    1    2    0    0 -0.19058583854E+02  0.12357866433E+02  0.71591657370E+03  0.72711824359E+03  0.12509377752E+03 0.  0.
          5    1    3    3  502    0 -0.13100507297E+02  0.65885995658E+02  0.28557299480E+03  0.29339733379E+03  0.41800000000E+01 0. -1.
         -5    1    3    3    0  502 -0.59580765572E+01 -0.53528129225E+02  0.43034357890E+03  0.43372090980E+03  0.41800000000E+01 0. -1.
        -11    1    1    2    0    0 -0.13588181467E+02  0.36509640750E+02  0.12288868036E+03  0.12891555493E+03  0.00000000000E+00 0.  1.
         11    1    1    2    0    0  0.32646765322E+02 -0.48867507183E+02  0.97505394524E+02  0.11384703117E+03  0.00000000000E+00 0. -1.
</event>
<event>
 7    1  0.2841804E-009  0.8263314E+02  0.7561462E-02  0.1321741E+00
          2   -1    0    0  501    0  0.00000000000E+00  0.00000000000E+00  0.88779016851E+02  0.88779016851E+02  0.00000000000E+00 0. -1.
         -2   -1    0    0    0  501 -0.00000000000E+00 -0.00000000000E+00 -0.19278054457E+03  0.19278054457E+03  0.00000000000E+00 0.  1.
         25    2    1    2    0    0  0.41103747614E+02 -0.46617415948E+02 -0.16909835055E+02  0.14069696099E+03  0.12508793216E+03 0.  0.
          5    1    3    3  502    0 -0.11174903220E+02 -0.20489486550E+02 -0.62248124748E+02  0.66610802095E+02  0.41800000000E+01 0.  1.
         -5    1    3    3    0  502  0.52278650834E+02 -0.26127929398E+02  0.45338289694E+02  0.74086158896E+02  0.41800000000E+01 0.  1.
        -11    1    1    2    0    0 -0.33371987535E+02  0.59336899386E+02 -0.18321438653E+02  0.70499874433E+02  0.00000000000E+00 0. -1.
         11    1    1    2    0    0 -0.77317600790E+01 -0.12719483438E+02 -0.68770254008E+02  0.70362725993E+02  0.00000000000E+00 0.  1.
</event>
<event>
 7    1  0.2841804E-009  0.1012102E+03  0.7561462E-02  0.1277771E+00
         -2   -1    0    0    0  501 -0.00000000000E+00  0.00000000000E+00  0.76061333033E+02  0.76061333033E+02  0.00000000000E+00 0.  1.
          2   -1    0    0  501    0  0.00000000000E+00 -0.00000000000E+00 -0.20296941445E+03  0.20296941445E+03  0.00000000000E+00 0. -1.
         25    2    1    2    0    0 -0.22215093270E+02  0.36630128222E+02 -0.12638608356E+03  0.18291291749E+03  0.12509363134E+03 0.  0.
          5    1    3    3  502    0  0.33508535940E+02 -0.88185992990E+01  0.27900470632E+01  0.35012089870E+02  0.41800000000E+01 0. -1.
         -5    1    3    3    0  502 -0.55723629209E+02  0.45448727521E+02 -0.12917613063E+03  0.14790082762E+03  0.41800000000E+01 0. -1.
        -11    1    1    2    0    0  0.31052836482E+02  0.20805869751E+02  0.51412903995E+01  0.37730567670E+02  0.00000000000E+00 0. -1.
         11    1    1    2    0    0 -0.88377432127E+01 -0.57435997973E+02 -0.56632882504E+01  0.58387262327E+02  0.00000000000E+00 0.  1.
</event>
<event>
 6    1  0.2841804E-009  0.5576253E+02  0.7561462E-02  0.1416527E+00
         -2   -1    0    0    0  501 -0.00000000000E+00  0.00000000000E+00  0.18398349045E+03  0.18398349045E+03  0.00000000000E+00 0.  1.
          2   -1    0    0  501    0  0.00000000000E+00 -0.00000000000E+00 -0.78614977812E+02  0.78614977812E+02  0.00000000000E+00 0. -1.
          5    1    1    2  502    0  0.16535739886E+02 -0.10653020319E+02  0.64059905007E+02  0.67142098306E+02  0.41800000000E+01 0. -1.
         -5    1    1    2    0  502 -0.21520334599E+02 -0.12867741958E+02 -0.55091275554E+02  0.60673096399E+02  0.41800000000E+01 0. -1.
        -11    1    1    2    0    0  0.18580461938E+02 -0.15800413079E+02  0.89307010162E+02  0.92577689988E+02  0.00000000000E+00 0.  1.
         11    1    1    2    0    0 -0.13595867225E+02  0.39321175357E+02  0.70928730269E+01  0.42205583574E+02  0.00000000000E+00 0. -1.
</event>
<event>
 7    1  0.2841804E-009  0.1564526E+03  0.7561462E-02  0.1192761E+00
          1   -1    0    0  501    0  0.00000000000E+00  0.00000000000E+00  0.99703238848E+03  0.99703238848E+03  0.00000000000E+00 0. -1.
         -1   -1    0    0    0  501 -0.00000000000E+00 -0.00000000000E+00 -0.39210439947E+02  0.39210439947E+02  0.00000000000E+00 0.  1.
         25    2    1    2    0    0 -0.11881648154E+03  0.54941574663E+02  0.76136055245E+03  0.78259374289E+03  0.12508853930E+03 0.  0.
          5    1    3    3  502    0 -0.13920504111E+03  0.69128016134E+02  0.67191241844E+03  0.68966694610E+03  0.41800000000E+01 0.  1.
         -5    1    3    3    0  502  0.20388559578E+02 -0.14186441471E+02  0.89448134014E+02  0.92926796791E+02  0.41800000000E+01 0.  1.
        -11    1    1    2    0    0  0.78718869557E+02 -0.26435132874E+02  0.18550968887E+03  0.20324694669E+03  0.00000000000E+00 0. -1.
         11    1    1    2    0    0  0.40097611980E+02 -0.28506441789E+02  0.10951707212E+02  0.50402138851E+02  0.00000000000E+00 0.  1.
</event>
<event>
 7    1  0.2841804E-009  0.4353960E+03  0.7561462E-02  0.1032169E+00
         -2   -1    0    0    0  501 -0.00000000000E+00  0.00000000000E+00  0.62764487170E+02  0.62764487170E+02  0.00000000000E+00 0. -1.
          2   -1    0    0  501    0  0.00000000000E+00 -0.00000000000E+00 -0.31312900695E+04  0.31312900695E+04  0.00000000000E+00 0.  1.
         25    2    1    2    0    0  0.19318189113E+03  0.38231712953E+03 -0.14280044569E+04  0.14961047485E+04  0.12508820494E+03 0.  0.
          5    1    3    3  502    0  0.10193365990E+03  0.27966054531E+03 -0.11190845823E+04  0.11580018421E+04  0.41800000000E+01 0. -1.
         -5    1    3    3    0  502  0.91248231230E+02  0.10265658422E+03 -0.30891987455E+03  0.33810290634E+03  0.41800000000E+01 0. -1.
        -11    1    1    2    0    0 -0.64722437243E+02 -0.58180382885E+02 -0.40026265572E+03  0.40961462914E+03  0.00000000000E+00 0.  1.
         11    1    1    2    0    0 -0.12845945389E+03 -0.32413674664E+03 -0.12402584698E+04  0.12883351791E+04  0.00000000000E+00 0. -1.
</event>
<event>
 7    1  0.2841804E-009  0.1527262E+03  0.7561462E-02  0.1197163E+00
          2   -1    0    0  501    0  0.00000000000E+00  0.00000000000E+00  0.49500531244E+02  0.49500531244E+02  0.00000000000E+00 0. -1.
         -2   -1    0    0    0  501 -0.00000000000E+00 -0.00000000000E+00 -0.79752885098E+03  0.79752885098E+03  0.00000000000E+00 0.  1.
         25    2    1    2    0    0  0.76738668482E+02 -0.10360218041E+03 -0.61560049329E+03  0.64127621911E+03  0.12509591056E+03 0.  0.
          5    1    3    3  502    0  0.23170367272E+02 -0.90889013708E+02 -0.18815633001E+03  0.21028065926E+03  0.41800000000E+01 0.  1.
         -5    1    3    3    0  502  0.53568301210E+02 -0.12713166701E+02 -0.42744416327E+03  0.43099555986E+03  0.41800000000E+01 0.  1.
        -11    1    1    2    0    0 -0.69115697794E+02  0.19378920054E+02 -0.73098416037E+02  0.10244950293E+03  0.00000000000E+00 0.  1.
         11    1    1    2    0    0 -0.76229706883E+01  0.84223260355E+02 -0.59329410418E+02  0.10330366018E+03  0.00000000000E+00 0. -1.
</event>
<event>
 7    1  0.2841804E-009  0.1141872E+03  0.7561462E-02  0.1253007E+00
         -1   -1    0    0    0  501 -0.00000000000E+00  0.00000000000E+00  0.14854590263E+02  0.14854590263E+02  0.00000000000E+00 0.  1.
          1   -1    0    0  501    0  0.00000000000E+00 -0.00000000000E+00 -0.14999819146E+04  0.14999819146E+04  0.00000000000E+00 0. -1.
         25    2    1    2    0    0  0.89723539122E+02 -0.12669214364E+02 -0.99732879267E+03  0.10092192106E+04  0.12509145396E+03 0.  0.
          5    1    3    3  502    0  0.15006971197E+02 -0.15109870460E+02 -0.76108646829E+03  0.76139582477E+03  0.41800000000E+01 0.  1.
         -5    1    3    3    0  502  0.74716567925E+02  0.24406560957E+01 -0.23624232439E+03  0.24782338581E+03  0.41800000000E+01 0.  1.
        -11    1    1    2    0    0  0.16889672741E+01  0.37131558170E+02 -0.17070916183E+03  0.17470896701E+03  0.00000000000E+00 0. -1.
         11    1    1    2    0    0 -0.91412506396E+02 -0.24462343806E+02 -0.31708936981E+03  0.33090832724E+03  0.00000000000E+00 0.  1.
</event>
<event>
 7    1  0.2841804E-009  0.1139115E+03  0.7561462E-02  0.1253493E+00
          4   -1    0    0  501    0  0.00000000000E+00  0.00000000000E+00  0.50907264065E+03  0.50907264065E+03  0.00000000000E+00 0. -1.
         -4   -1    0    0    0  501 -0.00000000000E+00 -0.00000000000E+00 -0.30011768963E+02  0.30011768963E+02  0.00000000000E+00 0.  1.
         25    2    1    2    0    0 -0.54149796880E+02 -0.15374538667E+02  0.22993689049E+03  0.26773768139E+03  0.12507563906E+03 0.  0.
          5    1    3    3  502    0  0.40355936697E+02  0.25541416914E+01  0.61418528222E+02  0.73653467504E+02  0.41800000000E+01 0. -1.
         -5    1    3    3    0  502 -0.94505733577E+02 -0.17928680358E+02  0.16851836227E+03  0.19408421389E+03  0.41800000000E+01 0. -1.
        -11    1    1    2    0    0  0.29894423373E+02 -0.28149878725E+02  0.43694240222E+02  0.59960644173E+02  0.00000000000E+00 0.  1.
         11    1    1    2    0    0  0.24255373506E+02  0.43524417392E+02  0.20542974097E+03  0.21138608405E+03  0.00000000000E+00 0. -1.
</event>
<event>
 7    1  0.2841804E-009  0.8496913E+02  0.7561462E-02  0.1315513E+00
         -2   -1    0    0    0  501 -0.00000000000E+00  0.00000000000E+00  0.31080246693E+02  0.31080246693E+02  0.00000000000E+00 0.  1.
          2   -1    0    0  501    0  0.00000000000E+00 -0.00000000000E+00 -0.42656427128E+03  0.42656427128E+03  0.00000000000E+00 0. -1.
         25    2    1    2    0    0 -0.12057856950E+02  0.40802818370E+02 -0.23237659124E+03  0.26730975142E+03  0.12508141808E+03 0.  0.
          5    1    3    3  502    0 -0.49076029287E+01 -0.17747322876E+02  0.74516237113E+01  0.20299042630E+02  0.41800000000E+01 0. -1.
         -5    1    3    3    0  502 -0.71502540216E+01  0.58550141246E+02 -0.23982821495E+03  0.24701070879E+03  0.41800000000E+01 0. -1.
        -11    1    1    2    0    0  0.43355596803E+02 -0.38925196486E+01 -0.11095544034E+03  0.11918879655E+03  0.00000000000E+00 0. -1.
         11    1    1    2    0    0 -0.31297739853E+02 -0.36910298721E+02 -0.52151993012E+02  0.71145969996E+02  0.00000000000E+00 0.  1.
</event>
<event>
 7    1  0.2841804E-009  0.9925158E+02  0.7561462E-02  0.1281878E+00
          1   -1    0    0  501    0  0.00000000000E+00  0.00000000000E+00  0.92857181303E+03  0.92857181303E+03  0.00000000000E+00 0. -1.
         -1   -1    0    0    0  501 -0.00000000000E+00 -0.00000000000E+00 -0.16013642494E+02  0.16013642494E+02  0.00000000000E+00 0.  1.
         25    2    1    2    0    0 -0.58062651434E+02  0.30183436086E+02  0.65663177385E+03  0.67163596348E+03  0.12508904712E+03 0.  0.
          5    1    3    3  502    0 -0.82970337581E+02  0.20838266918E+02  0.62148220115E+03  0.62735628556E+03  0.41800000000E+01 0.  1.
         -5    1    3    3    0  502  0.24907686147E+02  0.93451691684E+01  0.35149572701E+02  0.44279677924E+02  0.41800000000E+01 0.  1.
        -11    1    1    2    0    0  0.88541918839E+01 -0.35353293715E+02  0.16938922836E+03  0.17326558451E+03  0.00000000000E+00 0. -1.
         11    1    1    2    0    0  0.49208459550E+02  0.51698576284E+01  0.86537168323E+02  0.99683907531E+02  0.00000000000E+00 0.  1.
</event>
<event>
 7    1  0.2841804E-009  0.1316594E+03  0.7561462E-02  0.1225014E+00
          2   -1    0    0  501    0  0.00000000000E+00  0.00000000000E+00  0.13380463565E+03  0.13380463565E+03  0.00000000000E+00 0. -1.
         -2   -1    0    0    0  501 -0.00000000000E+00 -0.00000000000E+00 -0.14217917978E+03  0.14217917978E+03  0.00000000000E+00 0.  1.
         25    2    1    2    0    0 -0.42026540404E+02 -0.74879379566E+02 -0.12098667944E+02  0.15221201469E+03  0.12509583553E+03 0.  0.
          5    1    3    3  502    0  0.26699814634E+02  0.15341067723E+02  0.16482240422E+02  0.35176200899E+02  0.41800000000E+01 0. -1.
         -5    1    3    3    0  502 -0.68726355038E+02 -0.90220447289E+02 -0.28580908366E+02  0.11703581379E+03  0.41800000000E+01 0. -1.
        -11    1    1    2    0    0  0.30597509695E+02  0.92678140171E+02 -0.10679766202E+02  0.98180968986E+02  0.00000000000E+00 0.  1.
         11    1    1    2    0    0  0.11429030709E+02 -0.17798760605E+02  0.14403890016E+02  0.25590831749E+02  0.00000000000E+00 0. -1.
</event>
<event>
 7    1  0.2841804E-009  0.3458462E+03  0.7561462E-02  0.1064333E+00
          2   -1    0    0  501    0  0.00000000000E+00  0.00000000000E+00  0.13172054690E+04  0.13172054690E+04  0.00000000000E+00 0. -1.
         -2   -1    0    0    0  501 -0.00000000000E+00 -0.00000000000E+00 -0.10154114552E+03  0.10154114552E+03  0.00000000000E+00 0.  1.
         25    2    1    2    0    0  0.13994826128E+03  0.30464705946E+03  0.42906321513E+03  0.55869452073E+03  0.12509587621E+03 0.  0.
          5    1    3    3  502    0 -0.91712329307E+01  0.48645254608E+02  0.19900333492E+02  0.53516053502E+02  0.41800000000E+01 0.  1.
         -5    1    3    3    0  502  0.14911949421E+03  0.25600180485E+03  0.40916288164E+03  0.50517846723E+03  0.41800000000E+01 0.  1.
        -11    1    1    2    0    0 -0.14009848798E+03 -0.21841004574E+03  0.54756068806E+03  0.60593171358E+03  0.00000000000E+00 0.  1.
         11    1    1    2    0    0  0.15022669377E+00 -0.86237013715E+02  0.23904042031E+03  0.25412038023E+03  0.00000000000E+00 0. -1.
</event>
<event>
 7    1  0.2841804E-009  0.1032063E+03  0.7561462E-02  0.1273695E+00
         -1   -1    0    0    0  501 -0.00000000000E+00  0.00000000000E+00  0.93368258962E+02  0.93368258962E+02  0.00000000000E+00 0.  1.
          1   -1    0    0  501    0  0.00000000000E+00 -0.00000000000E+00 -0.13064992355E+03  0.13064992355E+03  0.00000000000E+00 0. -1.
         25    2    1    2    0    0 -0.27092559026E+02 -0.73644778131E+01 -0.30437868229E+02  0.13177201407E+03  0.12509659300E+03 0.  0.
          5    1    3    3  502    0  0.18475609365E+02 -0.55670988094E+02 -0.28144307161E+02  0.65193415943E+02  0.41800000000E+01 0. -1.
         -5    1    3    3    0  502 -0.45568168390E+02  0.48306510280E+02 -0.22935610680E+01  0.66578598125E+02  0.41800000000E+01 0. -1.
        -11    1    1    2    0    0  0.48599768565E+02 -0.14179666705E+02  0.17185238907E+02  0.53463378950E+02  0.00000000000E+00 0.  1.
         11    1    1    2    0    0 -0.21507209540E+02  0.21544144518E+02 -0.24029035269E+02  0.38782789497E+02  0.00000000000E+00 0. -1.
</event>
<event>
 7    1  0.2841804E-009  0.1088716E+03  0.7561462E-02  0.1262674E+00
          1   -1    0    0  501    0  0.00000000000E+00  0.00000000000E+00  0.51967616422E+02  0.51967616422E+02  0.00000000000E+00 0. -1.
         -1   -1    0    0    0  501 -0.00000000000E+00 -0.00000000000E+00 -0.33146190322E+03  0.33146190322E+03  0.00000000000E+00 0.  1.
         25    2    1    2    0    0  0.43017969209E+02 -0.19259097938E+01 -0.24990561272E+03  0.28276413407E+03  0.12509390651E+03 0.  0.
          5    1    3    3  502    0  0.58775023714E+02  0.43514121953E+02 -0.91741722841E+02  0.11739675605E+03  0.41800000000E+01 0. -1.
         -5    1    3    3    0  502 -0.15757054505E+02 -0.45440031747E+02 -0.15816388988E+03  0.16536737802E+03  0.41800000000E+01 0. -1.
        -11    1    1    2    0    0 -0.95555876005E+01 -0.40824977485E+02 -0.12715896425E+02  0.43814176507E+02  0.00000000000E+00 0. -1.
         11    1    1    2    0    0 -0.33462381608E+02  0.42750887279E+02 -0.16872777653E+02  0.56851209062E+02  0.00000000000E+00 0.  1.
</event>
<event>
 7    1  0.2841804E-009  0.1464446E+03  0.7561462E-02  0.1204911E+00
          1   -1    0    0  501    0  0.00000000000E+00  0.00000000000E+00  0.14010091624E+03  0.14010091624E+03  0.00000000000E+00 0. -1.
         -1   -1    0    0    0  501 -0.00000000000E+00 -0.00000000000E+00 -0.16980248320E+03  0.16980248320E+03  0.00000000000E+00 0.  1.
         25    2    1    2    0    0  0.57633376192E+02 -0.87086817773E+02 -0.42453199774E+02  0.16839170933E+03  0.12509106170E+03 0.  0.
          5    1    3    3  502    0  0.48855072043E+02 -0.11530568835E+03 -0.53933561795E+02  0.13641305406E+03  0.41800000000E+01 0.  1.
         -5    1    3    3    0  502  0.87783041491E+01  0.28218870578E+02  0.11480362021E+02  0.31978655265E+02  0.41800000000E+01 0.  1.
        -11    1    1    2    0    0  0.24335690522E+02  0.15008246164E+02  0.15100180221E+02  0.32334018136E+02  0.00000000000E+00 0. -1.
         11    1    1    2    0    0 -0.81969066714E+02  0.72078571608E+02 -0.23485474090E+01  0.10917767198E+03  0.00000000000E+00 0.  1.
</event>
<event>
 7    1  0.2841804E-009  0.1676768E+03  0.7561462E-02  0.1180292E+00
         -3   -1    0    0    0  501 -0.00000000000E+00  0.00000000000E+00  0.34774597519E+02  0.34774597519E+02  0.00000000000E+00 0.  1.
          3   -1    0    0  501    0  0.00000000000E+00 -0.00000000000E+00 -0.10162504714E+04  0.10162504714E+04  0.00000000000E+00 0. -1.
         25    2    1    2    0    0 -0.61880247347E+02 -0.13951468788E+03 -0.55248970226E+03  0.58668343380E+03  0.12513619478E+03 0.  0.
          5    1    3    3  502    0 -0.80440097153E+02 -0.72893344881E+02 -0.45031258578E+03  0.46323098587E+03  0.41800000000E+01 0. -1.
         -5    1    3    3    0  502  0.18559849805E+02 -0.66621342994E+02 -0.10217711648E+03  0.12345244793E+03  0.41800000000E+01 0. -1.
        -11    1    1    2    0    0  0.43848170228E+02  0.12968460392E+03 -0.42031818673E+03  0.44204992549E+03  0.00000000000E+00 0. -1.
         11    1    1    2    0    0  0.18032077119E+02  0.98300839515E+01 -0.86679848682E+01  0.22291709611E+02  0.00000000000E+00 0.  1.
</event>
<event>
 7    1  0.2920537E-009  0.8311192E+02  0.7561462E-02  0.1320445E+00
         -1   -1    0    0    0  501 -0.00000000000E+00  0.00000000000E+00  0.14787349098E+03  0.14787349098E+03  0.00000000000E+00 0.  1.
          1   -1    0    0  501    0  0.00000000000E+00 -0.00000000000E+00 -0.97250004165E+02  0.97250004165E+02  0.00000000000E+00 0. -1.
         25    2    1    2    0    0 -0.47781148088E+02  0.11533366788E+02  0.12367698262E+02  0.13498738452E+03  0.12511026080E+03 0.  0.
          5    1    3    3  502    0 -0.11587428611E+02  0.56465822687E+02 -0.28225267547E+02  0.64317927218E+02  0.41800000000E+01 0. -1.
         -5    1    3    3    0  502 -0.36193719477E+02 -0.44932455899E+02  0.40592965809E+02  0.70669457306E+02  0.41800000000E+01 0. -1.
        -11    1    1    2    0    0  0.15680462826E+02 -0.96804906277E+01  0.65468290581E+02  0.68012395082E+02  0.00000000000E+00 0.  1.
         11    1    1    2    0    0  0.32100685262E+02 -0.18528761603E+01 -0.27212502027E+02  0.42123715540E+02  0.00000000000E+00 0. -1.
</event>
<event>
 7    1  0.2841804E-009  0.1282764E+03  0.7561462E-02  0.1230036E+00
         -2   -1    0    0    0  501 -0.00000000000E+00  0.00000000000E+00  0.11936832438E+03  0.11936832438E+03  0.00000000000E+00 0.  1.
          2   -1    0    0  501    0  0.00000000000E+00 -0.00000000000E+00 -0.44036457239E+03  0.44036457239E+03  0.00000000000E+00 0. -1.
         25    2    1    2    0    0 -0.90795361871E+02  0.74731065630E+02 -0.35736347426E+03  0.39646534892E+03  0.12509032836E+03 0.  0.
          5    1    3    3  502    0  0.12200838382E+02  0.10718264409E+02  0.22618394440E+01  0.16921287387E+02  0.41800000000E+01 0.  1.
         -5    1    3    3    0  502 -0.10299620025E+03  0.64012801221E+02 -0.35962531370E+03  0.37954406153E+03  0.41800000000E+01 0.  1.
        -11    1    1    2    0    0  0.62651908495E+02 -0.42774897747E+02 -0.32313958819E+02  0.82456930879E+02  0.00000000000E+00 0. -1.
         11    1    1    2    0    0  0.28143453376E+02 -0.31956167883E+02  0.68681185070E+02  0.80810616978E+02  0.00000000000E+00 0.  1.
</event>
<event>
 7    1  0.2841804E-009  0.1316778E+03  0.7561462E-02  0.1224987E+00
         -3   -1    0    0    0  501 -0.00000000000E+00  0.00000000000E+00  0.43225216620E+03  0.43225216620E+03  0.00000000000E+00 0.  1.
          3   -1    0    0  501    0  0.00000000000E+00 -0.00000000000E+00 -0.55281005035E+02  0.55281005035E+02  0.00000000000E+00 0. -1.
         25    2    1    2    0    0 -0.98844670465E+02  0.53518792255E+02  0.20640394796E+03  0.26624248614E+03  0.12509173309E+03 0.  0.
          5    1    3    3  502    0 -0.35125160156E+02  0.48345531328E+02  0.11393801601E+02  0.60978343617E+02  0.41800000000E+01 0. -1.
         -5    1    3    3    0  502 -0.63719510309E+02  0.51732609276E+01  0.19501014636E+03  0.20526414252E+03  0.41800000000E+01 0. -1.
        -11    1    1    2    0    0  0.46630023238E+02  0.18723739919E+02  0.46057856295E+02  0.68163506587E+02  0.00000000000E+00 0. -1.
         11    1    1    2    0    0  0.52214647226E+02 -0.72242532174E+02  0.12450935692E+03  0.15312717851E+03  0.00000000000E+00 0.  1.
</event>
<event>
 7    1  0.2841804E-009  0.1722497E+03  0.7561462E-02  0.1175522E+00
          1   -1    0    0  501    0  0.00000000000E+00  0.00000000000E+00  0.23880985026E+03  0.23880985026E+03  0.00000000000E+00 0. -1.
         -1   -1    0    0    0  501 -0.00000000000E+00 -0.00000000000E+00 -0.14448647468E+03  0.14448647468E+03  0.00000000000E+00 0.  1.
         25    2    1    2    0    0  0.10342997597E+03 -0.11077584909E+03  0.30910305393E+02  0.19892126046E+03  0.12508066283E+03 0.  0.
          5    1    3    3  502    0  0.53266864773E+01  0.24125783874E+02 -0.10237675952E+02  0.27068606267E+02  0.41800000000E+01 0.  1.
         -5    1    3    3    0  502  0.98103289496E+02 -0.13490163296E+03  0.41147981345E+02  0.17185265419E+03  0.41800000000E+01 0.  1.
        -11    1    1    2    0    0 -0.35065366318E+02  0.50280783655E+02 -0.16028516980E+02  0.63361269531E+02  0.00000000000E+00 0.  1.
         11    1    1    2    0    0 -0.68364609655E+02  0.60495065430E+02  0.79441587169E+02  0.12101379494E+03  0.00000000000E+00 0. -1.
</event>
<event>
 7    1  0.2841804E-009  0.1017498E+03  0.7561462E-02  0.1276659E+00
         -1   -1    0    0    0  501 -0.00000000000E+00  0.00000000000E+00  0.15214898594E+03  0.15214898594E+03  0.00000000000E+00 0.  1.
          1   -1    0    0  501    0  0.00000000000E+00 -0.00000000000E+00 -0.11146365352E+03  0.11146365352E+03  0.00000000000E+00 0. -1.
         25    2    1    2    0    0 -0.57982014029E+02 -0.28539331928E+02 -0.93038221196E+01  0.14110914390E+03  0.12509525159E+03 0.  0.
          5    1    3    3  502    0 -0.14333127961E+02  0.48009094543E+02 -0.15668948061E+02  0.52662131074E+02  0.41800000000E+01 0.  1.
         -5    1    3    3    0  502 -0.43648886067E+02 -0.76548426471E+02  0.63651259416E+01  0.88447012829E+02  0.41800000000E+01 0.  1.
        -11    1    1    2    0    0  0.13803829291E+02  0.35673256164E+01 -0.26860689877E+02  0.30410001246E+02  0.00000000000E+00 0. -1.
         11    1    1    2    0    0  0.44178184738E+02  0.24972006312E+02  0.76849844425E+02  0.92093494309E+02  0.00000000000E+00 0.  1.
</event>
<event>
 7    1  0.2841804E-009  0.9706815E+02  0.7561462E-02  0.1286585E+00
          2   -1    0    0  501    0  0.00000000000E+00  0.00000000000E+00  0.22894502588E+03  0.22894502588E+03  0.00000000000E+00 0. -1.
         -2   -1    0    0    0  501 -0.00000000000E+00 -0.00000000000E+00 -0.57296651768E+02  0.57296651768E+02  0.00000000000E+00 0.  1.
         25    2    1    2    0    0  0.23469907832E+01  0.16833314072E+02  0.54080483365E+02  0.13733475651E+03  0.12508903963E+03 0.  0.
          5    1    3    3  502    0  0.85135795958E+01 -0.51795588446E+02  0.41773364454E+02  0.67214212766E+02  0.41800000000E+01 0.  1.
         -5    1    3    3    0  502 -0.61665888126E+01  0.68628902518E+02  0.12307118912E+02  0.70120543740E+02  0.41800000000E+01 0.  1.
        -11    1    1    2    0    0  0.33378172827E+02 -0.10596607219E+01  0.10605837038E+02  0.35038679790E+02  0.00000000000E+00 0.  1.
         11    1    1    2    0    0 -0.35725163610E+02 -0.15773653350E+02  0.10696205371E+03  0.11386824135E+03  0.00000000000E+00 0. -1.
</event>
<event>
 7    1  0.2841804E-009  0.1351489E+03  0.7561462E-02  0.1220010E+00
         -2   -1    0    0    0  501 -0.00000000000E+00  0.00000000000E+00  0.76620641582E+02  0.76620641582E+02  0.00000000000E+00 0.  1.
          2   -1    0    0  501    0  0.00000000000E+00 -0.00000000000E+00 -0.35055492047E+03  0.35055492047E+03  0.00000000000E+00 0. -1.
         25    2    1    2    0    0  0.74256899408E+02  0.92251748007E+02 -0.10513232265E+03  0.20182526443E+03  0.12512457783E+03 0.  0.
          5    1    3    3  502    0  0.71110521112E+02  0.32953914901E+02 -0.11723213301E+03  0.14107980766E+03  0.41800000000E+01 0.  1.
         -5    1    3    3    0  502  0.31463782967E+01  0.59297833106E+02  0.12099810358E+02  0.60745456769E+02  0.41800000000E+01 0.  1.
        -11    1    1    2    0    0 -0.51687740464E+02 -0.18087902793E+02 -0.12462228256E+03  0.13612313562E+03  0.00000000000E+00 0. -1.
         11    1    1    2    0    0 -0.22569158944E+02 -0.74163845213E+02 -0.44179673686E+02  0.89227162004E+02  0.00000000000E+00 0.  1.
</event>
<event>
 6    1  0.2841804E-009  0.1694891E+03  0.7561462E-02  0.1178382E+00
         -2   -1    0    0    0  501 -0.00000000000E+00  0.00000000000E+00  0.70625063869E+02  0.70625063869E+02  0.00000000000E+00 0.  1.
          2   -1    0    0  501    0  0.00000000000E+00 -0.00000000000E+00 -0.45821760357E+03  0.45821760357E+03  0.00000000000E+00 0. -1.
          5    1    1    2  502    0 -0.31178227691E+02  0.17152910459E+01 -0.19736212428E+02  0.37175456773E+02  0.41800000000E+01 0.  1.
         -5    1    1    2    0  502  0.74010369097E+02 -0.13940051242E+03 -0.17053224030E+03  0.23239783772E+03  0.41800000000E+01 0.  1.
        -11    1    1    2    0    0 -0.49626636857E+02  0.10409571196E+03 -0.19286273540E+03  0.22471038036E+03  0.00000000000E+00 0. -1.
         11    1    1    2    0    0  0.67944954512E+01  0.33589509411E+02 -0.44613515820E+01  0.34558992590E+02  0.00000000000E+00 0.  1.
</event>
<event>
 7    1  0.2841804E-009  0.1459741E+03  0.7561462E-02  0.1205509E+00
         -1   -1    0    0    0  501 -0.00000000000E+00  0.00000000000E+00  0.64104130350E+02  0.64104130350E+02  0.00000000000E+00 0.  1.
          1   -1    0    0  501    0  0.00000000000E+00 -0.00000000000E+00 -0.48451160322E+03  0.48451160322E+03  0.00000000000E+00 0. -1.
         25    2    1    2    0    0  0.18458258850E+02 -0.12846888899E+03 -0.30000991547E+03  0.35001148230E+03  0.12512843641E+03 0.  0.
          5    1    3    3  502    0  0.27892917576E+02  0.40806039085E+01 -0.13565058683E+03  0.13861176099E+03  0.41800000000E+01 0.  1.
         -5    1    3    3    0  502 -0.94346587260E+01 -0.13254949290E+03 -0.16435932865E+03  0.21139972130E+03  0.41800000000E+01 0.  1.
        -11    1    1    2    0    0 -0.17719588579E+02  0.76494486170E+02 -0.12370364996E+03  0.14651956609E+03  0.00000000000E+00 0. -1.
         11    1    1    2    0    0 -0.73867027134E+00  0.51974402825E+02  0.33060925609E+01  0.52084685184E+02  0.00000000000E+00 0.  1.
</event>
<event>
 7    1  0.2841804E-009  0.1378275E+03  0.7561462E-02  0.1216282E+00
          2   -1    0    0  501    0  0.00000000000E+00  0.00000000000E+00  0.66318482274E+03  0.66318482274E+03  0.00000000000E+00 0. -1.
         -2   -1    0    0    0  501 -0.00000000000E+00 -0.00000000000E+00 -0.37600244523E+02  0.37600244523E+02  0.00000000000E+00 0.  1.
         25    2    1    2    0    0  0.14775963659E+02 -0.10125438476E+03  0.32775633366E+03  0.36543487427E+03  0.12509058136E+03 0.  0.
          5    1    3    3  502    0  0.50692600225E+02 -0.62574980946E+02  0.28839886898E+03  0.29946076202E+03  0.41800000000E+01 0.  1.
         -5    1    3    3    0  502 -0.35916636566E+02 -0.38679403819E+02  0.39357464680E+02  0.65974112256E+02  0.41800000000E+01 0.  1.
        -11    1    1    2    0    0  0.78889608627E+01 -0.18538834340E+02  0.10714289301E+03  0.10902074851E+03  0.00000000000E+00 0. -1.
         11    1    1    2    0    0 -0.22664924521E+02  0.11979321910E+03  0.19068535155E+03  0.22632944449E+03  0.00000000000E+00 0.  1.
</event>
<event>
 7    1  0.2841804E-009  0.1049856E+03  0.7561462E-02  0.1270148E+00
          2   -1    0    0  501    0  0.00000000000E+00  0.00000000000E+00  0.43870836739E+03  0.43870836739E+03  0.00000000000E+00 0. -1.
         -2   -1    0    0    0  501 -0.00000000000E+00 -0.00000000000E+00 -0.31791963665E+02  0.31791963665E+02  0.00000000000E+00 0.  1.
         25    2    1    2    0    0  0.45646548433E+02 -0.99091265955E+01  0.23681131632E+03  0.27186096563E+03  0.12508791677E+03 0.  0.
          5    1    3    3  502    0  0.61634984921E+02  0.36868760838E+02  0.80969690853E+02  0.10831315769E+03  0.41800000000E+01 0. -1.
         -5    1    3    3    0  502 -0.15988436488E+02 -0.46777887433E+02  0.15584162547E+03  0.16354780794E+03  0.41800000000E+01 0. -1.
        -11    1    1    2    0    0 -0.36810589905E+02 -0.30034446850E+02  0.39523519612E+02  0.61799645058E+02  0.00000000000E+00 0.  1.
         11    1    1    2    0    0 -0.88359585278E+01  0.39943573446E+02  0.13058156780E+03  0.13683972037E+03  0.00000000000E+00 0. -1.
</event>
<event>
 7    1  0.2841804E-009  0.1032912E+03  0.7561462E-02  0.1273523E+00
         -1   -1    0    0    0  501 -0.00000000000E+00  0.00000000000E+00  0.31950583473E+02  0.31950583473E+02  0.00000000000E+00 0.  1.
          1   -1    0    0  501    0  0.00000000000E+00 -0.00000000000E+00 -0.64521999125E+03  0.64521999125E+03  0.00000000000E+00 0. -1.
         25    2    1    2    0    0 -0.78721111695E+02 -0.13180716935E+02 -0.21372705623E+03  0.26018795482E+03  0.12509105700E+03 0.  0.
          5    1    3    3  502    0 -0.21277380755E+02 -0.21616965439E+02 -0.19735944612E+03  0.19972041333E+03  0.41800000000E+01 0.  1.
         -5    1    3    3    0  502 -0.57443730939E+02  0.84362485037E+01 -0.16367610107E+02  0.60467541489E+02  0.41800000000E+01 0.  1.
        -11    1    1    2    0    0  0.65439410100E+02 -0.30427669091E+02 -0.27664138324E+03  0.28589965786E+03  0.00000000000E+00 0. -1.
         11    1    1    2    0    0  0.13281701595E+02  0.43608386026E+02 -0.12290096831E+03  0.13108296205E+03  0.00000000000E+00 0.  1.
</event>
<event>
 7    1  0.2841804E-009  0.7066670E+02  0.7561462E-02  0.1357840E+00
          2   -1    0    0  501    0  0.00000000000E+00  0.00000000000E+00  0.55026649093E+03  0.55026649093E+03  0.00000000000E+00 0. -1.
         -2   -1    0    0    0  501 -0.00000000000E+00 -0.00000000000E+00 -0.19620797580E+02  0.19620797580E+02  0.00000000000E+00 0.  1.
         25    2    1    2    0    0  0.11983083166E+02 -0.35511671407E+02  0.31049442666E+03  0.33683516961E+03  0.12508584816E+03 0.  0.
          5    1    3    3  502    0 -0.19951067762E+02  0.23751763304E+01  0.27494243012E+03  0.27570727021E+03  0.41800000000E+01 0. -1.
         -5    1    3    3    0  502  0.31934150929E+02 -0.37886847737E+02  0.35551996548E+02  0.61127899404E+02  0.41800000000E+01 0. -1.
        -11    1    1    2    0    0  0.13531331135E+02  0.42523804060E+02  0.92683466774E+02  0.10286688411E+03  0.00000000000E+00 0.  1.
         11    1    1    2    0    0 -0.25514414302E+02 -0.70121326536E+01  0.12746779991E+03  0.13018523478E+03  0.00000000000E+00 0. -1.
</event>
<event>
 7    1  0.2841804E-009  0.1312239E+03  0.7561462E-02  0.1225651E+00
          2   -1    0    0  501    0  0.00000000000E+00  0.00000000000E+00  0.97050906952E+03  0.97050906952E+03  0.00000000000E+00 0. -1.
         -2   -1    0    0    0  501 -0.00000000000E+00 -0.00000000000E+00 -0.21325969217E+02  0.21325969217E+02  0.00000000000E+00 0.  1.
         25    2    1    2    0    0  0.40152794939E+02  0.84486092461E+02  0.52203775901E+03  0.54490555322E+03  0.12509393806E+03 0.  0.
          5    1    3    3  502    0  0.30311501464E+02 -0.18358153889E+02  0.27201805825E+03  0.27434851075E+03  0.41800000000E+01 0.  1.
         -5    1    3    3    0  502  0.98412934749E+01  0.10284424635E+03  0.25001970076E+03  0.27055704248E+03  0.41800000000E+01 0.  1.
        -11    1    1    2    0    0 -0.56940794860E+02 -0.89293364537E+02  0.40558956459E+03  0.41918785046E+03  0.00000000000E+00 0. -1.
         11    1    1    2    0    0  0.16787999921E+02  0.48072720760E+01  0.21555776700E+02  0.27741635051E+02  0.00000000000E+00 0.  1.
</event>
<event>
 7    1  0.2841804E-009  0.1037164E+03  0.7561462E-02  0.1272670E+00
          2   -1    0    0  501    0  0.00000000000E+00  0.00000000000E+00  0.61034513557E+03  0.61034513557E+03  0.00000000000E+00 0. -1.
         -2   -1    0    0    0  501 -0.00000000000E+00 -0.00000000000E+00 -0.21700894165E+02  0.21700894165E+02  0.00000000000E+00 0.  1.
         25    2    1    2    0    0  0.13505868745E+02 -0.64628636192E+02  0.49172843697E+03  0.51166692773E+03  0.12508764969E+03 0.  0.
          5    1    3    3  502    0  0.64373735558E+02 -0.78265136800E+01  0.23552001498E+03  0.24432024476E+03  0.41800000000E+01 0. -1.
         -5    1    3    3    0  502 -0.50867866813E+02 -0.56802122512E+02  0.25620842199E+03  0.26734668297E+03  0.41800000000E+01 0. -1.
        -11    1    1    2    0    0 -0.66335766391E+01  0.24950625963E+02  0.61701176584E+02  0.66884776047E+02  0.00000000000E+00 0. -1.
         11    1    1    2    0    0 -0.68722921055E+01  0.39678010229E+02  0.35214627849E+02  0.53494325952E+02  0.00000000000E+00 0.  1.
</event>
<event>
 7    1  0.2841804E-009  0.2371034E+03  0.7561462E-02  0.1121738E+00
         -2   -1    0    0    0  501 -0.00000000000E+00  0.00000000000E+00  0.91040961655E+02  0.91040961655E+02  0.00000000000E+00 0.  1.
          2   -1    0    0  501    0  0.00000000000E+00 -0.00000000000E+00 -0.65307735250E+03  0.65307735250E+03  0.00000000000E+00 0. -1.
         25    2    1    2    0    0 -0.13379760137E+03  0.16443456686E+03 -0.28753971347E+03  0.37850930643E+03  0.12509869433E+03 0.  0.
          5    1    3    3  502    0 -0.56816350529E+02  0.58968262456E+01 -0.13010939479E+03  0.14215764932E+03  0.41800000000E+01 0.  1.
         -5    1    3    3    0  502 -0.76981250838E+02  0.15853774062E+03 -0.15743031868E+03  0.23635165711E+03  0.41800000000E+01 0.  1.
        -11    1    1    2    0    0  0.12896529419E+03 -0.71259184097E+02 -0.18283223034E+03  0.23481384728E+03  0.00000000000E+00 0. -1.
         11    1    1    2    0    0  0.48323071823E+01 -0.93175382765E+02 -0.91664447032E+02  0.13079516044E+03  0.00000000000E+00 0.  1.
</event>
<event>
 7    1  0.2841804E-009  0.8913500E+02  0.7561462E-02  0.1304960E+00
         -3   -1    0    0    0  501 -0.00000000000E+00  0.00000000000E+00  0.57730813101E+02  0.57730813101E+02  0.00000000000E+00 0.  1.
          3   -1    0    0  501    0  0.00000000000E+00 -0.00000000000E+00 -0.27766348822E+03  0.27766348822E+03  0.00000000000E+00 0. -1.
         25    2    1    2    0    0  0.56920654671E+02  0.31434324681E+02 -0.13397687146E+03  0.19450116274E+03  0.12511124060E+03 0.  0.
          5    1    3    3  502    0  0.48279385101E+02  0.19297085494E+02  0.70435975992E+01  0.52634220821E+02  0.41800000000E+01 0.  1.
         -5    1    3    3    0  502  0.86412695699E+01  0.12137239187E+02 -0.14102046906E+03  0.14186694192E+03  0.41800000000E+01 0.  1.
        -11    1    1    2    0    0  0.74962741931E+01 -0.44313439657E+02 -0.44308618349E+02  0.63112033092E+02  0.00000000000E+00 0. -1.
         11    1    1    2    0    0 -0.64416928864E+02  0.12879114976E+02 -0.41647185302E+02  0.77781105485E+02  0.00000000000E+00 0.  1.
</event>
<event>
 7    1  0.2841804E-009  0.1340325E+03  0.7561462E-02  0.1221592E+00
         -2   -1    0    0    0  501 -0.00000000000E+00  0.00000000000E+00  0.29993663249E+02  0.29993663249E+02  0.00000000000E+00 0.  1.
          2   -1    0    0  501    0  0.00000000000E+00 -0.00000000000E+00 -0.77276403582E+03  0.77276403582E+03  0.00000000000E+00 0. -1.
         25    2    1    2    0    0  0.43008064665E+02 -0.97507914202E+02 -0.41624025608E+03  0.44750545710E+03  0.12509075264E+03 0.  0.
          5    1    3    3  502    0  0.47528662606E+02 -0.22289284698E+02 -0.32434179634E+03  0.32858919525E+03  0.41800000000E+01 0. -1.
         -5    1    3    3    0  502 -0.45205979410E+01 -0.75218629504E+02 -0.91898459733E+02  0.11891626185E+03  0.41800000000E+01 0. -1.
        -11    1    1    2    0    0  0.27786790032E+02  0.40103419477E+02 -0.11264714718E+03  0.12275899039E+03  0.00000000000E+00 0. -1.
         11    1    1    2    0    0 -0.70794854697E+02  0.57404494726E+02 -0.21388296931E+03  0.23249325158E+03  0.00000000000E+00 0.  1.
</event>
<event>
 7    1  0.2841804E-009  0.1510032E+03  0.7561462E-02  0.1199246E+00
         -2   -1    0    0    0  501 -0.00000000000E+00  0.00000000000E+00  0.12474119982E+03  0.12474119982E+03  0.00000000000E+00 0.  1.
          2   -1    0    0  501    0  0.00000000000E+00 -0.00000000000E+00 -0.22491503404E+03  0.22491503404E+03  0.00000000000E+00 0. -1.
         25    2    1    2    0    0 -0.11238913548E+03  0.19239632197E+02  0.89254929670E+01  0.16949556288E+03  0.12509036809E+03 0.  0.
          5    1    3    3  502    0 -0.29735247178E+02  0.67188139320E+02  0.25463033218E+01  0.73636859321E+02  0.41800000000E+01 0.  1.
         -5    1    3    3    0  502 -0.82653888306E+02 -0.47948507123E+02  0.63791896452E+01  0.95858703559E+02  0.41800000000E+01 0.  1.
        -11    1    1    2    0    0  0.40638499229E+02 -0.41061829990E+02 -0.14728904306E+02  0.59619645452E+02  0.00000000000E+00 0.  1.
         11    1    1    2    0    0  0.71750636255E+02  0.21822197794E+02 -0.94370422884E+02  0.12054102553E+03  0.00000000000E+00 0. -1.
</event>
<event>
 7    1  0.2841804E-009  0.8942684E+02  0.7561462E-02  0.1304246E+00
         -3   -1    0    0    0  501 -0.00000000000E+00  0.00000000000E+00  0.72264378478E+02  0.72264378478E+02  0.00000000000E+00 0.  1.
          3   -1    0    0  501    0  0.00000000000E+00 -0.00000000000E+00 -0.19693535937E+03  0.19693535937E+03  0.00000000000E+00 0. -1.
         25    2    1    2    0    0 -0.14551996941E+01  0.45729358520E+02 -0.10168499531E+03  0.16757338403E+03  0.12509080273E+03 0.  0.
          5    1    3    3  502    0  0.59061833081E+02  0.39404015933E+02 -0.44049469929E+02  0.83658859659E+02  0.41800000000E+01 0. -1.
         -5    1    3    3    0  502 -0.60517032775E+02  0.63253425876E+01 -0.57635525384E+02  0.83914524374E+02  0.41800000000E+01 0. -1.
        -11    1    1    2    0    0 -0.38150496914E+01 -0.11714204465E+02 -0.53943190949E+02  0.55332133884E+02  0.00000000000E+00 0. -1.
         11    1    1    2    0    0  0.52702493854E+01 -0.34015154055E+02  0.30957205374E+02  0.46294219926E+02  0.00000000000E+00 0.  1.
</event>
<event>
 7    1  0.2841804E-009  0.1371190E+03  0.7561462E-02  0.1217259E+00
          1   -1    0    0  501    0  0.00000000000E+00  0.00000000000E+00  0.55430624156E+02  0.55430624156E+02  0.00000000000E+00 0. -1.
         -1   -1    0    0    0  501 -0.00000000000E+00 -0.00000000000E+00 -0.38873011374E+03  0.38873011374E+03  0.00000000000E+00 0.  1.
         25    2    1    2    0    0 -0.76758701586E+02 -0.52361963262E+02 -0.13109627181E+03  0.20363117587E+03  0.12508297182E+03 0.  0.
          5    1    3    3  502    0 -0.25782942462E+02 -0.87242033427E+02 -0.96607202733E+02  0.13276428939E+03  0.41800000000E+01 0. -1.
         -5    1    3    3    0  502 -0.50975759124E+02  0.34880070165E+02 -0.34489069075E+02  0.70866886475E+02  0.41800000000E+01 0. -1.
        -11    1    1    2    0    0  0.53267472570E+02  0.72743460893E+02 -0.18292760356E+03  0.20394004727E+03  0.00000000000E+00 0. -1.
         11    1    1    2    0    0  0.23491229016E+02 -0.20381497632E+02 -0.19275614208E+02  0.36589514748E+02  0.00000000000E+00 0.  1.
</event>
<event>
 7    1  0.2841804E-009  0.7193037E+02  0.7561462E-02  0.1353649E+00
         -1   -1    0    0    0  501 -0.00000000000E+00  0.00000000000E+00  0.24374087222E+03  0.24374087222E+03  0.00000000000E+00 0.  1.
          1   -1    0    0  501    0  0.00000000000E+00 -0.00000000000E+00 -0.54522854342E+02  0.54522854342E+02  0.00000000000E+00 0. -1.
         25    2    1    2    0    0  0.19430395224E+02 -0.29970484846E+02  0.13079492880E+03  0.18448302272E+03  0.12510356531E+03 0.  0.
          5    1    3    3  502    0  0.37784184596E+02  0.27963847060E+02  0.11069833827E+03  0.12033792354E+03  0.41800000000E+01 0. -1.
         -5    1    3    3    0  502 -0.18353789373E+02 -0.57934331906E+02  0.20096590532E+02  0.64145099179E+02  0.41800000000E+01 0. -1.
        -11    1    1    2    0    0 -0.62929758553E+01  0.83827292108E+01 -0.24736735060E+02  0.26865921826E+02  0.00000000000E+00 0. -1.
         11    1    1    2    0    0 -0.13137419368E+02  0.21587755636E+02  0.83159824143E+02  0.86914782014E+02  0.00000000000E+00 0.  1.
</event>
<event>
 7    1  0.2841804E-009  0.1503990E+03  0.7561462E-02  0.1199984E+00
         -2   -1    0    0    0  501 -0.00000000000E+00  0.00000000000E+00  0.24694693376E+02  0.24694693376E+02  0.00000000000E+00 0.  1.
          2   -1    0    0  501    0  0.00000000000E+00 -0.00000000000E+00 -0.10235218659E+04  0.10235218659E+04  0.00000000000E+00 0. -1.
         25    2    1    2    0    0 -0.86349721343E+02 -0.62199672110E+02 -0.68547803262E+03  0.70487683327E+03  0.12508454456E+03 0.  0.
          5    1    3    3  502    0 -0.11452088465E+03 -0.25900922417E+02 -0.46390137474E+03  0.47854764517E+03  0.41800000000E+01 0. -1.
         -5    1    3    3    0  502  0.28171163311E+02 -0.36298749693E+02 -0.22157665787E+03  0.22632918810E+03  0.41800000000E+01 0. -1.
        -11    1    1    2    0    0  0.10406311230E+03  0.48663504743E+02 -0.23046710499E+03  0.25751185316E+03  0.00000000000E+00 0. -1.
         11    1    1    2    0    0 -0.17713390954E+02  0.13536167366E+02 -0.82882034910E+02  0.85827872843E+02  0.00000000000E+00 0.  1.
</event>
<event>
 7    1  0.2841804E-009  0.1203002E+03  0.7561462E-02  0.1242603E+00
         -1   -1    0    0    0  501 -0.00000000000E+00  0.00000000000E+00  0.16114366556E+02  0.16114366556E+02  0.00000000000E+00 0.  1.
          1   -1    0    0  501    0  0.00000000000E+00 -0.00000000000E+00 -0.18588630849E+04  0.18588630849E+04  0.00000000000E+00 0. -1.
         25    2    1    2    0    0 -0.10144457331E+03  0.58160543445E+02 -0.13385115727E+04  0.13494221735E+04  0.12511323583E+03 0.  0.
          5    1    3    3  502    0 -0.14393115460E+02  0.75053743460E+01 -0.87123650887E+03  0.87139773881E+03  0.41800000000E+01 0. -1.
         -5    1    3    3    0  502 -0.87051457851E+02  0.50655169099E+02 -0.46727506384E+03  0.47802443469E+03  0.41800000000E+01 0. -1.
        -11    1    1    2    0    0  0.51348218788E+02 -0.51102323205E+02 -0.42781216938E+03  0.43390245365E+03  0.00000000000E+00 0. -1.
         11    1    1    2    0    0  0.50096354524E+02 -0.70582202395E+01 -0.76424976264E+02  0.91652824323E+02  0.00000000000E+00 0.  1.
</event>
<event>
 7    1  0.2841804E-009  0.1463243E+03  0.7561462E-02  0.1205064E+00
         -2   -1    0    0    0  501 -0.00000000000E+00  0.00000000000E+00  0.46717961142E+03  0.46717961142E+03  0.00000000000E+00 0.  1.
          2   -1    0    0  501    0  0.00000000000E+00 -0.00000000000E+00 -0.69362371719E+02  0.69362371719E+02  0.00000000000E+00 0. -1.
         25    2    1    2    0    0 -0.12250899515E+03  0.14158472704E+02  0.31842525298E+03  0.36367575375E+03  0.12512592011E+03 0.  0.
          5    1    3    3  502    0 -0.77055857966E+02  0.54149818709E+02  0.27016279041E+03  0.28613845222E+03  0.41800000000E+01 0. -1.
         -5    1    3    3    0  502 -0.45453137185E+02 -0.39991346005E+02  0.48262462572E+02  0.77537301531E+02  0.41800000000E+01 0. -1.
        -11    1    1    2    0    0  0.92642030185E+02  0.17375615591E+02  0.87583394046E+02  0.12866743444E+03  0.00000000000E+00 0.  1.
         11    1    1    2    0    0  0.29866964966E+02 -0.31534088295E+02 -0.81914073277E+01  0.44198794949E+02  0.00000000000E+00 0. -1.
</event>
<event>
 7    1  0.2841804E-009  0.8678696E+02  0.7561462E-02  0.1310824E+00
          2   -1    0    0  501    0  0.00000000000E+00  0.00000000000E+00  0.43852452770E+03  0.43852452770E+03  0.00000000000E+00 0. -1.
         -2   -1    0    0    0  501 -0.00000000000E+00 -0.00000000000E+00 -0.30440161119E+02  0.30440161119E+02  0.00000000000E+00 0.  1.
         25    2    1    2    0    0  0.72935643204E+01 -0.14197132197E+00  0.31787724580E+03  0.34168099777E+03  0.12508694819E+03 0.  0.
          5    1    3    3  502    0 -0.41777306941E+02  0.41358287338E+02  0.18219715952E+03  0.19149185007E+03  0.41800000000E+01 0.  1.
         -5    1    3    3    0  502  0.49070871261E+02 -0.41500258660E+02  0.13568008627E+03  0.15018914770E+03  0.41800000000E+01 0.  1.
        -11    1    1    2    0    0 -0.23482680531E+02 -0.15167291576E+02  0.99343538011E+02  0.10320184864E+03  0.00000000000E+00 0. -1.
         11    1    1    2    0    0  0.16189116210E+02  0.15309262898E+02 -0.91364172209E+01  0.24081842409E+02  0.00000000000E+00 0.  1.
</event>
<event>
 7    1  0.2841804E-009  0.1883972E+03  0.7561462E-02  0.1159915E+00
         -2   -1    0    0    0  501 -0.00000000000E+00  0.00000000000E+00  0.67754442048E+02  0.67754442048E+02  0.00000000000E+00 0. -1.
          2   -1    0    0  501    0  0.00000000000E+00 -0.00000000000E+00 -0.82486033475E+03  0.82486033475E+03  0.00000000000E+00 0.  1.
         25    2    1    2    0    0 -0.84586924720E+02  0.14771421543E+03 -0.15973291029E+03  0.26483437235E+03  0.12509278505E+03 0.  0.
          5    1    3    3  502    0  0.51787608261E+01  0.52266540370E+02  0.65456295986E+01  0.53093582219E+02  0.41800000000E+01 0. -1.
         -5    1    3    3    0  502 -0.89765685546E+02  0.95447675062E+02 -0.16627853989E+03  0.21174079013E+03  0.41800000000E+01 0. -1.
        -11    1    1    2    0    0  0.63592643241E+02 -0.24703072013E+02 -0.21060921612E+03  0.22138317000E+03  0.00000000000E+00 0. -1.
         11    1    1    2    0    0  0.20994281480E+02 -0.12301114342E+03 -0.38676376629E+03  0.40639723445E+03  0.00000000000E+00 0.  1.
</event>
<event>
 7    1  0.2841804E-009  0.1129841E+03  0.7561462E-02  0.1255141E+00
          1   -1    0    0  501    0  0.00000000000E+00  0.00000000000E+00  0.21677491500E+03  0.21677491500E+03  0.00000000000E+00 0. -1.
         -1   -1    0    0    0  501 -0.00000000000E+00 -0.00000000000E+00 -0.11939517925E+03  0.11939517925E+03  0.00000000000E+00 0.  1.
         25    2    1    2    0    0 -0.44597377008E+02  0.26088130153E+02 -0.59154162103E+02  0.14770573768E+03  0.12509297934E+03 0.  0.
          5    1    3    3  502    0 -0.75767191162E+02 -0.10407000751E+02 -0.63282075777E+02  0.99353240691E+02  0.41800000000E+01 0.  1.
         -5    1    3    3    0  502  0.31169814154E+02  0.36495130904E+02  0.41279136735E+01  0.48352496993E+02  0.41800000000E+01 0.  1.
        -11    1    1    2    0    0  0.13649649200E+02 -0.56311377983E+02  0.64083232422E+02  0.86394125329E+02  0.00000000000E+00 0.  1.
         11    1    1    2    0    0  0.30947727808E+02  0.30223247830E+02  0.92450665433E+02  0.10207023124E+03  0.00000000000E+00 0. -1.
</event>
<event>
 7    1  0.2841804E-009  0.1271835E+03  0.7561462E-02  0.1231696E+00
          1   -1    0    0  501    0  0.00000000000E+00  0.00000000000E+00  0.10648254380E+03  0.10648254380E+03  0.00000000000E+00 0. -1.
         -1   -1    0    0    0  501 -0.00000000000E+00 -0.00000000000E+00 -0.41905487219E+03  0.41905487219E+03  0.00000000000E+00 0.  1.
         25    2    1    2    0    0  0.40940589789E+02  0.87686734001E+02  0.27335615861E+02  0.16049684124E+03  0.12508758908E+03 0.  0.
          5    1    3    3  502    0  0.59698411914E+02 -0.45968179040E+01  0.28001045553E+02  0.66231126157E+02  0.41800000000E+01 0. -1.
         -5    1    3    3    0  502 -0.18757822125E+02  0.92283551905E+02 -0.66542969132E+00  0.94265715081E+02  0.41800000000E+01 0. -1.
        -11    1    1    2    0    0 -0.23110834501E+02 -0.21601304232E+02 -0.18973353306E+02  0.36887872689E+02  0.00000000000E+00 0.  1.
         11    1    1    2    0    0 -0.17829755288E+02 -0.66085429768E+02 -0.32093459095E+03  0.32815270206E+03  0.00000000000E+00 0. -1.
</event>
<event>
 7    1  0.2841804E-009  0.1563943E+03  0.7561462E-02  0.1192829E+00
          1   -1    0    0  501    0  0.00000000000E+00  0.00000000000E+00  0.52448718091E+03  0.52448718091E+03  0.00000000000E+00 0. -1.
         -1   -1    0    0    0  501 -0.00000000000E+00 -0.00000000000E+00 -0.50645880199E+02  0.50645880199E+02  0.00000000000E+00 0.  1.
         25    2    1    2    0    0  0.74087011765E+02  0.96266485527E+02  0.24689790594E+03  0.30226080956E+03  0.12508756729E+03 0.  0.
          5    1    3    3  502    0  0.42363667373E+02 -0.15750566672E+02  0.12796903201E+03  0.13578036020E+03  0.41800000000E+01 0.  1.
         -5    1    3    3    0  502  0.31723344391E+02  0.11201705220E+03  0.11892887393E+03  0.16648044935E+03  0.41800000000E+01 0.  1.
        -11    1    1    2    0    0 -0.63982164457E+02 -0.10857694786E+02  0.85607337282E+02  0.10742543042E+03  0.00000000000E+00 0.  1.
         11    1    1    2    0    0 -0.10104847307E+02 -0.85408790742E+02  0.14133605748E+03  0.16544682113E+03  0.00000000000E+00 0. -1.
</event>
<event>
 7    1  0.2841804E-009  0.9469940E+02  0.7561462E-02  0.1291855E+00
         -2   -1    0    0    0  501 -0.00000000000E+00  0.00000000000E+00  0.11153480688E+03  0.11153480688E+03  0.00000000000E+00 0.  1.
          2   -1    0    0  501    0  0.00000000000E+00 -0.00000000000E+00 -0.15064185065E+03  0.15064185065E+03  0.00000000000E+00 0. -1.
         25    2    1    2    0    0  0.26512302231E+02 -0.53378761902E+02 -0.57449805145E+02  0.15000454564E+03  0.12509472095E+03 0.  0.
          5    1    3    3  502    0 -0.19168120656E+02  0.28900454841E+02 -0.41862535796E+02  0.54521531919E+02  0.41800000000E+01 0. -1.
         -5    1    3    3    0  502  0.45680422887E+02 -0.82279216744E+02 -0.15587269349E+02  0.95483013719E+02  0.41800000000E+01 0. -1.
        -11    1    1    2    0    0 -0.46927260811E+01  0.18816643201E+02  0.54346425843E+02  0.57702874636E+02  0.00000000000E+00 0.  1.
         11    1    1    2    0    0 -0.21819576150E+02  0.34562118701E+02 -0.36003664461E+02  0.54469237254E+02  0.00000000000E+00 0. -1.
</event>
<event>
 7    1  0.2841804E-009  0.1344151E+03  0.7561462E-02  0.1221048E+00
         -2   -1    0    0    0  501 -0.00000000000E+00  0.00000000000E+00  0.16656339068E+03  0.16656339068E+03  0.00000000000E+00 0. -1.
          2   -1    0    0  501    0  0.00000000000E+00 -0.00000000000E+00 -0.12859385207E+03  0.12859385207E+03  0.00000000000E+00 0.  1.
         25    2    1    2    0    0  0.63634773216E+02 -0.63892125609E+02 -0.13495585541E+02  0.15479280192E+03  0.12508833927E+03 0.  0.
          5    1    3    3  502    0  0.55625207152E+02  0.27415439830E+02 -0.10150643853E+02  0.62978392980E+02  0.41800000000E+01 0. -1.
         -5    1    3    3    0  502  0.80095660644E+01 -0.91307565439E+02 -0.33449416878E+01  0.91814408945E+02  0.41800000000E+01 0. -1.
        -11    1    1    2    0    0 -0.73145239732E+02  0.28878884939E+02  0.15484397795E+01  0.78655030078E+02  0.00000000000E+00 0.  1.
         11    1    1    2    0    0  0.95104665162E+01  0.35013240670E+02  0.49916684374E+02  0.61709410745E+02  0.00000000000E+00 0. -1.
</event>
<event>
 7    1  0.2841804E-009  0.9670732E+02  0.7561462E-02  0.1287376E+00
          3   -1    0    0  501    0  0.00000000000E+00  0.00000000000E+00  0.54646887782E+02  0.54646887782E+02  0.00000000000E+00 0. -1.
         -3   -1    0    0    0  501 -0.00000000000E+00 -0.00000000000E+00 -0.24634281025E+03  0.24634281025E+03  0.00000000000E+00 0.  1.
         25    2    1    2    0    0  0.34854125035E+02 -0.27557466177E+01 -0.14223888769E+03  0.19263906548E+03  0.12512195734E+03 0.  0.
          5    1    3    3  502    0  0.62304358585E+02 -0.45503850225E+02 -0.70226073823E+02  0.10441076251E+03  0.41800000000E+01 0.  1.
         -5    1    3    3    0  502 -0.27450233550E+02  0.42748103607E+02 -0.72012813864E+02  0.88228302968E+02  0.41800000000E+01 0.  1.
        -11    1    1    2    0    0  0.14601186457E+02 -0.42948129624E+01 -0.55942641529E+02  0.57976022678E+02  0.00000000000E+00 0.  1.
         11    1    1    2    0    0 -0.49455311492E+02  0.70505595802E+01  0.64856067459E+01  0.50374609875E+02  0.00000000000E+00 0. -1.
</event>
<event>
 7    1  0.2841804E-009  0.1054206E+03  0.7561462E-02  0.1269293E+00
         -2   -1    0    0    0  501 -0.00000000000E+00  0.00000000000E+00  0.95742439313E+01  0.95742439313E+01  0.00000000000E+00 0.  1.
          2   -1    0    0  501    0  0.00000000000E+00 -0.00000000000E+00 -0.21226237149E+04  0.21226237149E+04  0.00000000000E+00 0. -1.
         25    2    1    2    0    0  0.16766685923E+02 -0.30950044287E+02 -0.17920769861E+04  0.17967820995E+04  0.12508781826E+03 0.  0.
          5    1    3    3  502    0  0.68677001292E+02 -0.35587958497E+02 -0.11181147034E+04  0.11207948054E+04  0.41800000000E+01 0. -1.
         -5    1    3    3    0  502 -0.51910315369E+02  0.46379142099E+01 -0.67396228262E+03  0.67598729418E+03  0.41800000000E+01 0. -1.
        -11    1    1    2    0    0  0.54683621516E+01 -0.22525580289E+02 -0.26088507391E+02  0.34898638510E+02  0.00000000000E+00 0.  1.
         11    1    1    2    0    0 -0.22235048075E+02  0.53475624576E+02 -0.29488397749E+03  0.30051722075E+03  0.00000000000E+00 0. -1.
</event>
<event>
 7    1  0.2841804E-009  0.9273526E+02  0.7561462E-02  0.1296360E+00
          2   -1    0    0  501    0  0.00000000000E+00  0.00000000000E+00  0.13427752999E+04  0.13427752999E+04  0.00000000000E+00 0.  1.
         -2   -1    0    0    0  501 -0.00000000000E+00 -0.00000000000E+00 -0.20608138421E+02  0.20608138421E+02  0.00000000000E+00 0. -1.
         25    2    1    2    0    0 -0.29012638174E+02  0.27045282762E+01  0.12239526755E+04  0.12306731281E+04  0.12508856392E+03 0.  0.
          5    1    3    3  502    0 -0.41973501194E+02 -0.43112674869E+02  0.33157171005E+03  0.33701298023E+03  0.41800000000E+01 0.  1.
         -5    1    3    3    0  502  0.12960863021E+02  0.45817203145E+02  0.89238096542E+03  0.89366014788E+03  0.41800000000E+01 0.  1.
        -11    1    1    2    0    0  0.51160102211E+02  0.95519589617E+01  0.30276955467E+02  0.60210381252E+02  0.00000000000E+00 0. -1.
         11    1    1    2    0    0 -0.22147464037E+02 -0.12256487238E+02  0.67937530569E+02  0.72499928983E+02  0.00000000000E+00 0.  1.
</event>
<event>
 7    1  0.2924534E-009  0.1052730E+03  0.7561462E-02  0.1269583E+00
         -1   -1    0    0    0  501 -0.00000000000E+00  0.00000000000E+00  0.28452544118E+02  0.28452544118E+02  0.00000000000E+00 0.  1.
          1   -1    0    0  501    0  0.00000000000E+00 -0.00000000000E+00 -0.54260707396E+03  0.54260707396E+03  0.00000000000E+00 0. -1.
         25    2    1    2    0    0 -0.12589493938E+02 -0.56053491142E+02 -0.32675937225E+03  0.35458521880E+03  0.12513393149E+03 0.  0.
          5    1    3    3  502    0  0.25647006871E+02 -0.71777409423E+02 -0.28734475716E+03  0.29731170064E+03  0.41800000000E+01 0.  1.
         -5    1    3    3    0  502 -0.38236500809E+02  0.15723918282E+02 -0.39414615084E+02  0.57273518161E+02  0.41800000000E+01 0.  1.
        -11    1    1    2    0    0  0.21754830752E+02 -0.11414679896E+02 -0.10114665770E+02  0.26568290156E+02  0.00000000000E+00 0.  1.
         11    1    1    2    0    0 -0.91653368142E+01  0.67468171038E+02 -0.17728049183E+03  0.18990610913E+03  0.00000000000E+00 0. -1.
</event>
<event>
 7    1  0.3393302E-009  0.1987754E+03  0.7561462E-02  0.1150776E+00
          2   -1    0    0  501    0  0.00000000000E+00  0.00000000000E+00  0.64760728876E+03  0.64760728876E+03  0.00000000000E+00 0. -1.
         -2   -1    0    0    0  501 -0.00000000000E+00 -0.00000000000E+00 -0.61612348580E+02  0.61612348580E+02  0.00000000000E+00 0.  1.
         25    2    1    2    0    0  0.13962867722E+03 -0.91435456361E+02  0.32922298167E+03  0.38973185428E+03  0.12508611594E+03 0.  0.
          5    1    3    3  502    0  0.10466952010E+03 -0.12260838282E+03  0.24612536022E+03  0.29425106511E+03  0.41800000000E+01 0.  1.
         -5    1    3    3    0  502  0.34959157112E+02  0.31172926456E+02  0.83097621453E+02  0.95480789172E+02  0.41800000000E+01 0.  1.
        -11    1    1    2    0    0 -0.43075799654E+02  0.81520276882E+02  0.14015764105E+03  0.16776544461E+03  0.00000000000E+00 0.  1.
         11    1    1    2    0    0 -0.96552877562E+02  0.99151794789E+01  0.11661431745E+03  0.15172233845E+03  0.00000000000E+00 0. -1.
</event>
<event>
 7    1  0.2841804E-009  0.7701077E+02  0.7561462E-02  0.1337755E+00
         -3   -1    0    0    0  501 -0.00000000000E+00  0.00000000000E+00  0.32230373839E+03  0.32230373839E+03  0.00000000000E+00 0.  1.
          3   -1    0    0  501    0  0.00000000000E+00 -0.00000000000E+00 -0.40352342746E+02  0.40352342746E+02  0.00000000000E+00 0. -1.
         25    2    1    2    0    0 -0.30726934187E+02  0.46606967442E+01  0.20582170521E+03  0.24284207887E+03  0.12507531474E+03 0.  0.
          5    1    3    3  502    0 -0.44106093967E+02 -0.12112400237E+02  0.11570167065E+02  0.47364532410E+02  0.41800000000E+01 0. -1.
         -5    1    3    3    0  502  0.13379159779E+02  0.16773096981E+02  0.19425153815E+03  0.19547754646E+03  0.41800000000E+01 0. -1.
        -11    1    1    2    0    0  0.24752908375E+02 -0.41820048170E+02  0.20716532541E+02  0.52828000364E+02  0.00000000000E+00 0. -1.
         11    1    1    2    0    0  0.59740258127E+01  0.37159351426E+02  0.55413157888E+02  0.66986001895E+02  0.00000000000E+00 0.  1.
</event>
<event>
 7    1  0.2841804E-009  0.1174446E+03  0.7561462E-02  0.1247373E+00
         -1   -1    0    0    0  501 -0.00000000000E+00  0.00000000000E+00  0.35926723877E+03  0.35926723877E+03  0.00000000000E+00 0.  1.
          1   -1    0    0  501    0  0.00000000000E+00 -0.00000000000E+00 -0.67223694187E+02  0.67223694187E+02  0.00000000000E+00 0. -1.
         25    2    1    2    0    0 -0.45182339017E+02 -0.80131114083E+02  0.24487488190E+03  0.28995284400E+03  0.12508598943E+03 0.  0.
          5    1    3    3  502    0 -0.76328298819E+01  0.25058596913E+02  0.11765972650E+03  0.12061292224E+03  0.41800000000E+01 0.  1.
         -5    1    3    3    0  502 -0.37549509135E+02 -0.10518971100E+03  0.12721515540E+03  0.16933992175E+03  0.41800000000E+01 0.  1.
        -11    1    1    2    0    0  0.60741005499E+01  0.40363025621E+02  0.66057195566E+02  0.77650638252E+02  0.00000000000E+00 0.  1.
         11    1    1    2    0    0  0.39108238467E+02  0.39768088462E+02 -0.18888532890E+02  0.58887450706E+02  0.00000000000E+00 0. -1.
</event>
<event>
 7    1  0.2841804E-009  0.9707556E+02  0.7561462E-02  0.1286569E+00
          1   -1    0    0  501    0  0.00000000000E+00  0.00000000000E+00  0.45839792273E+03  0.45839792273E+03  0.00000000000E+00 0. -1.
         -1   -1    0    0    0  501 -0.00000000000E+00 -0.00000000000E+00 -0.51676512029E+02  0.51676512029E+02  0.00000000000E+00 0.  1.
         25    2    1    2    0    0 -0.73411976885E+02  0.34517115973E+01  0.85393088408E+02  0.16834396227E+03  0.12508588018E+03 0.  0.
          5    1    3    3  502    0 -0.73651988071E+02  0.28945977832E+01  0.11597066546E+03  0.13747604042E+03  0.41800000000E+01 0. -1.
         -5    1    3    3    0  502  0.24001118560E+00  0.55711381415E+00 -0.30577577048E+02  0.30867921849E+02  0.41800000000E+01 0. -1.
        -11    1    1    2    0    0 -0.17328164011E+02  0.15674982083E+02  0.56793902695E+02  0.61412683662E+02  0.00000000000E+00 0. -1.
         11    1    1    2    0    0  0.90740140896E+02 -0.19126693681E+02  0.26453441960E+03  0.28031778883E+03  0.00000000000E+00 0.  1.
</event>
<event>
 7    1  0.2841804E-009  0.1106758E+03  0.7561462E-02  0.1259323E+00
          1   -1    0    0  501    0  0.00000000000E+00  0.00000000000E+00  0.14815212250E+02  0.14815212250E+02  0.00000000000E+00 0. -1.
         -1   -1    0    0    0  501 -0.00000000000E+00 -0.00000000000E+00 -0.11540333869E+04  0.11540333869E+04  0.00000000000E+00 0.  1.
         25    2    1    2    0    0 -0.52683808575E+02 -0.21375543715E+02 -0.82036297697E+03  0.83178787288E+03  0.12507259462E+03 0.  0.
          5    1    3    3  502    0 -0.67168119313E+02 -0.56173411283E+02 -0.70313731587E+03  0.70858066990E+03  0.41800000000E+01 0.  1.
         -5    1    3    3    0  502  0.14484310738E+02  0.34797867568E+02 -0.11722566111E+03  0.12320720298E+03  0.41800000000E+01 0.  1.
        -11    1    1    2    0    0 -0.37368397009E+01  0.37027805038E+02 -0.52542387485E+02  0.64387303093E+02  0.00000000000E+00 0. -1.
         11    1    1    2    0    0  0.56420648276E+02 -0.15652261324E+02 -0.26631281023E+03  0.27267342322E+03  0.00000000000E+00 0.  1.
</event>
<event>
 7    1  0.2841804E-009  0.1001109E+03  0.7561462E-02  0.1280063E+00
         -2   -1    0    0    0  501 -0.00000000000E+00  0.00000000000E+00  0.30220560612E+02  0.30220560612E+02  0.00000000000E+00 0.  1.
          2   -1    0    0  501    0  0.00000000000E+00 -0.00000000000E+00 -0.49834786064E+03  0.49834786064E+03  0.00000000000E+00 0. -1.
         25    2    1    2    0    0 -0.72836914890E+01 -0.40331164555E+02 -0.34613995781E+03  0.37032036092E+03  0.12507855260E+03 0.  0.
          5    1    3    3  502    0 -0.44691926112E+02  0.21977795893E+02 -0.21081229068E+03  0.21665568554E+03  0.41800000000E+01 0. -1.
         -5    1    3    3    0  502  0.37408234623E+02 -0.62308960448E+02 -0.13532766713E+03  0.15366467538E+03  0.41800000000E+01 0. -1.
        -11    1    1    2    0    0 -0.27626181521E+02  0.30558963266E+02 -0.11387814898E+03  0.12110032599E+03  0.00000000000E+00 0. -1.
         11    1    1    2    0    0  0.34909873010E+02  0.97722012891E+01 -0.81091932392E+01  0.37147734340E+02  0.00000000000E+00 0.  1.
</event>
<event>
 6    1  0.2841804E-009  0.1491073E+03  0.7561462E-02  0.1201574E+00
         -3   -1    0    0    0  501 -0.00000000000E+00  0.00000000000E+00  0.69543216189E+02  0.69543216189E+02  0.00000000000E+00 0.  1.
          3   -1    0    0  501    0  0.00000000000E+00 -0.00000000000E+00 -0.65323863029E+03  0.65323863029E+03  0.00000000000E+00 0. -1.
          5    1    1    2  502    0  0.20806352091E+02 -0.53647796622E+02 -0.98426891406E+02  0.11408906925E+03  0.41800000000E+01 0.  1.
         -5    1    1    2    0  502 -0.10055788284E+03 -0.47804334797E+02 -0.42461498253E+03  0.43899031654E+03  0.41800000000E+01 0.  1.
        -11    1    1    2    0    0  0.57602527017E+02  0.75956744131E+02  0.54366295097E+01  0.95483166255E+02  0.00000000000E+00 0.  1.
         11    1    1    2    0    0  0.22149003734E+02  0.25495387288E+02 -0.66090169675E+02  0.74219294439E+02  0.00000000000E+00 0. -1.
</event>
<event>
 7    1  0.2841804E-009  0.2942169E+03  0.7561462E-02  0.1088168E+00
         -1   -1    0    0    0  501 -0.00000000000E+00  0.00000000000E+00  0.32169643613E+03  0.32169643613E+03  0.00000000000E+00 0.  1.
          1   -1    0    0  501    0  0.00000000000E+00 -0.00000000000E+00 -0.81933948545E+03  0.81933948545E+03  0.00000000000E+00 0. -1.
         25    2    1    2    0    0  0.16013997795E+03  0.24014360254E+03  0.20538163330E+03  0.37568878569E+03  0.12508671400E+03 0.  0.
          5    1    3    3  502    0  0.20105995852E+02  0.24675451559E+02  0.86985268617E+02  0.92720215353E+02  0.41800000000E+01 0. -1.
         -5    1    3    3    0  502  0.14003398210E+03  0.21546815098E+03  0.11839636468E+03  0.28296857034E+03  0.41800000000E+01 0. -1.
        -11    1    1    2    0    0 -0.10559400086E+03 -0.87207274699E+02 -0.37749987429E+03  0.40157360081E+03  0.00000000000E+00 0. -1.
         11    1    1    2    0    0 -0.54545977090E+02 -0.15293632784E+03 -0.32552480832E+03  0.36377353508E+03  0.00000000000E+00 0.  1.
</event>
<event>
 7    1  0.2841804E-009  0.1156707E+03  0.7561462E-02  0.1250415E+00
          1   -1    0    0  501    0  0.00000000000E+00  0.00000000000E+00  0.37696689835E+03  0.37696689835E+03  0.00000000000E+00 0. -1.
         -1   -1    0    0    0  501 -0.00000000000E+00 -0.00000000000E+00 -0.49742313060E+02  0.49742313060E+02  0.00000000000E+00 0.  1.
         25    2    1    2    0    0  0.51942513615E+02 -0.47028368891E+02  0.11316758728E+03  0.18265862577E+03  0.12509028162E+03 0.  0.
          5    1    3    3  502    0  0.35754891769E+02 -0.89945447818E+02  0.69911015335E+02  0.11947224922E+03  0.41800000000E+01 0.  1.
         -5    1    3    3    0  502  0.16187621846E+02  0.42917078927E+02  0.43256571944E+02  0.63186376546E+02  0.41800000000E+01 0.  1.
        -11    1    1    2    0    0 -0.55515882663E+02  0.16856626603E+02  0.48183705619E+02  0.75417694047E+02  0.00000000000E+00 0.  1.
         11    1    1    2    0    0  0.35733690480E+01  0.30171742288E+02  0.16587329240E+03  0.16863289160E+03  0.00000000000E+00 0. -1.
</event>
<event>
 7    1  0.2841804E-009  0.1051436E+03  0.7561462E-02  0.1269837E+00
         -3   -1    0    0    0  501 -0.00000000000E+00  0.00000000000E+00  0.42076338543E+03  0.42076338543E+03  0.00000000000E+00 0.  1.
          3   -1    0    0  501    0  0.00000000000E+00 -0.00000000000E+00 -0.47890304676E+02  0.47890304676E+02  0.00000000000E+00 0. -1.
         25    2    1    2    0    0  0.54478467209E+02 -0.76960632944E+01  0.32478713658E+03  0.35236607959E+03  0.12509211479E+03 0.  0.
          5    1    3    3  502    0 -0.37416925582E+02 -0.21700036301E+02  0.11124660750E+03  0.11943281784E+03  0.41800000000E+01 0. -1.
         -5    1    3    3    0  502  0.91895392791E+02  0.14003973007E+02  0.21354052907E+03  0.23293326176E+03  0.41800000000E+01 0. -1.
        -11    1    1    2    0    0 -0.56679974490E+02 -0.86074461303E+01  0.68980325870E+02  0.89693884932E+02  0.00000000000E+00 0.  1.
         11    1    1    2    0    0  0.22015072813E+01  0.16303509425E+02 -0.20894381692E+02  0.26593725579E+02  0.00000000000E+00 0. -1.
</event>
<event>
 7    1  0.2841804E-009  0.1113871E+03  0.7561462E-02  0.1258023E+00
         -1   -1    0    0    0  501 -0.00000000000E+00  0.00000000000E+00  0.41805161088E+02  0.41805161088E+02  0.00000000000E+00 0.  1.
          1   -1    0    0  501    0  0.00000000000E+00 -0.00000000000E+00 -0.31208326314E+03  0.31208326314E+03  0.00000000000E+00 0. -1.
         25    2    1    2    0    0  0.32944516515E+02 -0.29254337200E+01 -0.12382138182E+03  0.17909383831E+03  0.12509583923E+03 0.  0.
          5    1    3    3  502    0  0.71631845441E+02  0.29723217104E+02 -0.64174834352E+02  0.10074955424E+03  0.41800000000E+01 0. -1.
         -5    1    3    3    0  502 -0.38687328926E+02 -0.32648650824E+02 -0.59646547472E+02  0.78344284063E+02  0.41800000000E+01 0. -1.
        -11    1    1    2    0    0  0.15623998878E+02 -0.31241458286E+02 -0.67467232451E+02  0.75973452675E+02  0.00000000000E+00 0. -1.
         11    1    1    2    0    0 -0.48568515392E+02  0.34166892006E+02 -0.78989487776E+02  0.98821133245E+02  0.00000000000E+00 0.  1.
</event>
<event>
 7    1  0.2841804E-009  0.1094560E+03  0.7561462E-02  0.1261581E+00
         -3   -1    0    0    0  501 -0.00000000000E+00  0.00000000000E+00  0.20813977504E+03  0.20813977504E+03  0.00000000000E+00 0.  1.
          3   -1    0    0  501    0  0.00000000000E+00 -0.00000000000E+00 -0.12120013701E+03  0.12120013701E+03  0.00000000000E+00 0. -1.
         25    2    1    2    0    0  0.49912493142E+02  0.54459142857E+01  0.15346651696E+03  0.20424621966E+03  0.12507450365E+03 0.  0.
          5    1    3    3  502    0 -0.16844471962E+01 -0.54940367715E+02  0.66966498808E+02  0.86736761120E+02  0.41800000000E+01 0. -1.
         -5    1    3    3    0  502  0.51596940338E+02  0.60386282001E+02  0.86500018148E+02  0.11750945854E+03  0.41800000000E+01 0. -1.
        -11    1    1    2    0    0  0.13299760283E+02 -0.15301436305E+02 -0.56891969866E+02  0.60396306276E+02  0.00000000000E+00 0. -1.
         11    1    1    2    0    0 -0.63212253425E+02  0.98555220192E+01 -0.96349090629E+01  0.64697386114E+02  0.00000000000E+00 0.  1.
</event>
<event>
 7    1  0.2841804E-009  0.6770816E+02  0.7561462E-02  0.1368065E+00
         -2   -1    0    0    0  501 -0.00000000000E+00  0.00000000000E+00  0.40610939867E+02  0.40610939867E+02  0.00000000000E+00 0.  1.
          2   -1    0    0  501    0  0.00000000000E+00 -0.00000000000E+00 -0.40613920584E+03  0.40613920584E+03  0.00000000000E+00 0. -1.
         25    2    1    2    0    0  0.29181424556E+02  0.83077788399E+01 -0.97709578132E+02  0.16160225199E+03  0.12509017332E+03 0.  0.
          5    1    3    3  502    0 -0.35416112389E+01  0.26357850170E+01 -0.12079027820E+03  0.12094318534E+03  0.41800000000E+01 0.  1.
         -5    1    3    3    0  502  0.32723035795E+02  0.56719938230E+01  0.23080700065E+02  0.40659066653E+02  0.41800000000E+01 0.  1.
        -11    1    1    2    0    0 -0.56059955986E+02  0.17371710970E+02 -0.13457869770E+03  0.14681934778E+03  0.00000000000E+00 0.  1.
         11    1    1    2    0    0  0.26878531430E+02 -0.25679489810E+02 -0.13323999015E+03  0.13832854595E+03  0.00000000000E+00 0. -1.
</event>
<event>
 7    1  0.2841804E-009  0.1359249E+03  0.7561462E-02  0.1218920E+00
          4   -1    0    0  501    0  0.00000000000E+00  0.00000000000E+00  0.10733704763E+03  0.10733704763E+03  0.00000000000E+00 0. -1.
         -4   -1    0    0    0  501 -0.00000000000E+00 -0.00000000000E+00 -0.24275969298E+03  0.24275969298E+03  0.00000000000E+00 0.  1.
         25    2    1    2    0    0  0.75888045375E+02 -0.43555989823E+02 -0.16065146629E+03  0.22161388562E+03  0.12509077104E+03 0.  0.
          5    1    3    3  502    0  0.51863899193E+02  0.39886284419E+02 -0.64032621688E+02  0.91642941706E+02  0.41800000000E+01 0. -1.
         -5    1    3    3    0  502  0.24024146182E+02 -0.83442274241E+02 -0.96618844600E+02  0.12997094392E+03  0.41800000000E+01 0. -1.
        -11    1    1    2    0    0  0.15013788005E+02  0.20794374452E+02 -0.11142298908E+02  0.27963738378E+02  0.00000000000E+00 0.  1.
         11    1    1    2    0    0 -0.90901833380E+02  0.22761615371E+02  0.36371119837E+02  0.10051911661E+03  0.00000000000E+00 0. -1.
</event>
<event>
 7    1  0.2841804E-009  0.7222825E+02  0.7561462E-02  0.1352676E+00
          4   -1    0    0  501    0  0.00000000000E+00  0.00000000000E+00  0.12125884634E+04  0.12125884634E+04  0.00000000000E+00 0. -1.
         -4   -1    0    0    0  501 -0.00000000000E+00 -0.00000000000E+00 -0.16881556180E+02  0.16881556180E+02  0.00000000000E+00 0.  1.
         25    2    1    2    0    0  0.31343263747E+02  0.13882105842E+01  0.10237565908E+04  0.10318474150E+04  0.12508878211E+03 0.  0.
          5    1    3    3  502    0  0.11324145908E+02  0.25384215076E+02  0.48314761672E+02  0.55896182794E+02  0.41800000000E+01 0.  1.
         -5    1    3    3    0  502  0.20019117839E+02 -0.23996004491E+02  0.97544182913E+03  0.97595123224E+03  0.41800000000E+01 0.  1.
        -11    1    1    2    0    0 -0.53211983230E+02  0.17404248847E+02  0.15349926339E+03  0.16339047371E+03  0.00000000000E+00 0. -1.
         11    1    1    2    0    0  0.21868719483E+02 -0.18792459431E+02  0.18451053027E+02  0.34232130829E+02  0.00000000000E+00 0.  1.
</event>
<event>
 7    1  0.4262039E-009  0.8098604E+02  0.7561462E-02  0.1326276E+00
          1   -1    0    0  501    0  0.00000000000E+00  0.00000000000E+00  0.78654206663E+03  0.78654206663E+03  0.00000000000E+00 0. -1.
         -1   -1    0    0    0  501 -0.00000000000E+00 -0.00000000000E+00 -0.22871056877E+02  0.22871056877E+02  0.00000000000E+00 0.  1.
         25    2    1    2    0    0 -0.22847670225E+02 -0.11817572299E+02  0.64493187760E+03  0.65745475549E+03  0.12509179715E+03 0.  0.
          5    1    3    3  502    0 -0.11623875377E+02 -0.68346571880E+02  0.37992524022E+03  0.38622147652E+03  0.41800000000E+01 0. -1.
         -5    1    3    3    0  502 -0.11223794848E+02  0.56528999581E+02  0.26500663738E+03  0.27123327897E+03  0.41800000000E+01 0. -1.
        -11    1    1    2    0    0 -0.16211428625E+01  0.10073883907E+02 -0.13803201165E+02  0.17165069285E+02  0.00000000000E+00 0.  1.
         11    1    1    2    0    0  0.24468813087E+02  0.17436883918E+01  0.13254233332E+03  0.13479329874E+03  0.00000000000E+00 0. -1.
</event>
<event>
 7    1  0.2841804E-009  0.1090367E+03  0.7561462E-02  0.1262364E+00
         -3   -1    0    0    0  501 -0.00000000000E+00  0.00000000000E+00  0.68129579127E+02  0.68129579127E+02  0.00000000000E+00 0.  1.
          3   -1    0    0  501    0  0.00000000000E+00 -0.00000000000E+00 -0.19325258454E+03  0.19325258454E+03  0.00000000000E+00 0. -1.
         25    2    1    2    0    0  0.32689175851E+02 -0.15015242933E+02 -0.83752737237E+02  0.15477738324E+03  0.12508987821E+03 0.  0.
          5    1    3    3  502    0  0.58820847667E+02  0.35826094742E+02 -0.64117499936E+02  0.94190909236E+02  0.41800000000E+01 0.  1.
         -5    1    3    3    0  502 -0.26131671816E+02 -0.50841337675E+02 -0.19635237301E+02  0.60586474005E+02  0.41800000000E+01 0.  1.
        -11    1    1    2    0    0 -0.30685896287E+02 -0.32211703934E+02 -0.39185200218E+02  0.59284888609E+02  0.00000000000E+00 0. -1.
         11    1    1    2    0    0 -0.20032795633E+01  0.47226946867E+02 -0.21850679556E+01  0.47319891815E+02  0.00000000000E+00 0.  1.
</event>
<event>
 7    1  0.2841804E-009  0.9897273E+02  0.7561462E-02  0.1282471E+00
         -2   -1    0    0    0  501 -0.00000000000E+00  0.00000000000E+00  0.25211046380E+03  0.25211046380E+03  0.00000000000E+00 0.  1.
          2   -1    0    0  501    0  0.00000000000E+00 -0.00000000000E+00 -0.58166046622E+02  0.58166046622E+02  0.00000000000E+00 0. -1.
         25    2    1    2    0    0 -0.24217173433E+02  0.15433405319E+02  0.16877583359E+03  0.21203055059E+03  0.12508801258E+03 0.  0.
          5    1    3    3  502    0 -0.44527997670E+02  0.54181765855E+02  0.14712494225E+03  0.16303872963E+03  0.41800000000E+01 0. -1.
         -5    1    3    3    0  502  0.20310824237E+02 -0.38748360536E+02  0.21650891341E+02  0.48991820963E+02  0.41800000000E+01 0. -1.
        -11    1    1    2    0    0  0.14393167158E+01  0.31521039690E+02  0.32788086541E+02  0.45505012853E+02  0.00000000000E+00 0.  1.
         11    1    1    2    0    0  0.22777856717E+02 -0.46954445008E+02 -0.76195029533E+01  0.52740946976E+02  0.00000000000E+00 0. -1.
</event>
<event>
 7    1  0.2841804E-009  0.8710467E+02  0.7561462E-02  0.1310019E+00
         -1   -1    0    0    0  501 -0.00000000000E+00  0.00000000000E+00  0.73539736676E+02  0.73539736676E+02  0.00000000000E+00 0.  1.
          1   -1    0    0  501    0  0.00000000000E+00 -0.00000000000E+00 -0.17671160034E+03  0.17671160034E+03  0.00000000000E+00 0. -1.
         25    2    1    2    0    0 -0.32015543299E+02  0.12788312145E+02 -0.57005295184E+02  0.14172565323E+03  0.12509205077E+03 0.  0.
          5    1    3    3  502    0  0.34777912769E+02  0.10021381239E+02 -0.64751650450E+02  0.74297913392E+02  0.41800000000E+01 0.  1.
         -5    1    3    3    0  502 -0.66793456067E+02  0.27669309058E+01  0.77463552658E+01  0.67427739840E+02  0.41800000000E+01 0.  1.
        -11    1    1    2    0    0  0.99441848047E+01 -0.36835309701E+02  0.13535260147E+02  0.40483701899E+02  0.00000000000E+00 0.  1.
         11    1    1    2    0    0  0.22071358494E+02  0.24046997556E+02 -0.59701828626E+02  0.68041981883E+02  0.00000000000E+00 0. -1.
</event>
<event>
 7    1  0.2841804E-009  0.7711293E+02  0.7561462E-02  0.1337450E+00
          2   -1    0    0  501    0  0.00000000000E+00  0.00000000000E+00  0.20873967075E+03  0.20873967075E+03  0.00000000000E+00 0. -1.
         -2   -1    0    0    0  501 -0.00000000000E+00 -0.00000000000E+00 -0.80646927657E+02  0.80646927657E+02  0.00000000000E+00 0.  1.
         25    2    1    2    0    0 -0.27373691622E+02 -0.81308395559E+01  0.15004772613E+03  0.19742178799E+03  0.12508242368E+03 0.  0.
          5    1    3    3  502    0  0.27527163095E+02 -0.42366700606E+02  0.24911670701E+02  0.56486686621E+02  0.41800000000E+01 0.  1.
         -5    1    3    3    0  502 -0.54900854717E+02  0.34235861050E+02  0.12513605543E+03  0.14093510137E+03  0.41800000000E+01 0.  1.
        -11    1    1    2    0    0  0.11758791622E+02 -0.95182510148E+01  0.30728784693E+02  0.34250904974E+02  0.00000000000E+00 0. -1.
         11    1    1    2    0    0  0.15614900000E+02  0.17649090571E+02 -0.52683767726E+02  0.57713905445E+02  0.00000000000E+00 0.  1.
</event>
<event>
 7    1  0.2841804E-009  0.1259208E+03  0.7561462E-02  0.1233637E+00
          2   -1    0    0  501    0  0.00000000000E+00  0.00000000000E+00  0.14409470480E+04  0.14409470480E+04  0.00000000000E+00 0.  1.
         -2   -1    0    0    0  501 -0.00000000000E+00 -0.00000000000E+00 -0.49548005691E+02  0.49548005691E+02  0.00000000000E+00 0. -1.
         25    2    1    2    0    0  0.68808014518E+02 -0.13710476134E+01  0.13626150754E+04  0.13700736865E+04  0.12508253357E+03 0.  0.
          5    1    3    3  502    0  0.96397407464E+02  0.21676178691E+02  0.11635835718E+04  0.11677784541E+04  0.41800000000E+01 0. -1.
         -5    1    3    3    0  502 -0.27589392946E+02 -0.23047226305E+02  0.19903150360E+03  0.20229523245E+03  0.41800000000E+01 0. -1.
        -11    1    1    2    0    0 -0.92537672458E+02  0.53691140087E+01  0.25479502999E+02  0.96131437533E+02  0.00000000000E+00 0. -1.
         11    1    1    2    0    0  0.23729657940E+02 -0.39980663953E+01  0.33044639485E+01  0.24289929659E+02  0.00000000000E+00 0.  1.
</event>
<event>
 7    1  0.2841804E-009  0.9945114E+02  0.7561462E-02  0.1281454E+00
          1   -1    0    0  501    0  0.00000000000E+00  0.00000000000E+00  0.46855254768E+03  0.46855254768E+03  0.00000000000E+00 0. -1.
         -1   -1    0    0    0  501 -0.00000000000E+00 -0.00000000000E+00 -0.25407062276E+02  0.25407062276E+02  0.00000000000E+00 0.  1.
         25    2    1    2    0    0  0.20132824878E+01 -0.15577742052E+02  0.23966074266E+03  0.27079829460E+03  0.12509086869E+03 0.  0.
          5    1    3    3  502    0  0.56097434040E+02 -0.74030177980E+01  0.18440250163E+03  0.19293387931E+03  0.41800000000E+01 0.  1.
         -5    1    3    3    0  502 -0.54084151552E+02 -0.81747242541E+01  0.55258241027E+02  0.77864415282E+02  0.41800000000E+01 0.  1.
        -11    1    1    2    0    0  0.20595778343E+02  0.45417189884E+02  0.81360730135E+02  0.95427855633E+02  0.00000000000E+00 0.  1.
         11    1    1    2    0    0 -0.22609060831E+02 -0.29839447832E+02  0.12212401261E+03  0.12773345973E+03  0.00000000000E+00 0. -1.
</event>
<event>
 7    1  0.2841804E-009  0.1186486E+03  0.7561462E-02  0.1245343E+00
         -1   -1    0    0    0  501 -0.00000000000E+00  0.00000000000E+00  0.10801124234E+03  0.10801124234E+03  0.00000000000E+00 0.  1.
          1   -1    0    0  501    0  0.00000000000E+00 -0.00000000000E+00 -0.53288827545E+03  0.53288827545E+03  0.00000000000E+00 0. -1.
         25    2    1    2    0    0 -0.48355042414E+02 -0.56508258980E+02 -0.48582254863E+03  0.50715168020E+03  0.12509150458E+03 0.  0.
          5    1    3    3  502    0  0.37888822265E+02 -0.30232370292E+01 -0.77960487261E+02  0.86833247024E+02  0.41800000000E+01 0. -1.
         -5    1    3    3    0  502 -0.86243864679E+02 -0.53485021951E+02 -0.40786206136E+03  0.42031843318E+03  0.41800000000E+01 0. -1.
        -11    1    1    2    0    0 -0.87324626092E+01  0.35662510196E+02 -0.12162212904E+02  0.38678029415E+02  0.00000000000E+00 0. -1.
         11    1    1    2    0    0  0.57087505024E+02  0.20845748785E+02  0.73107728421E+02  0.95069808178E+02  0.00000000000E+00 0.  1.
</event>
<event>
 7    1  0.2841804E-009  0.1238559E+03  0.7561462E-02  0.1236868E+00
          1   -1    0    0  501    0  0.00000000000E+00  0.00000000000E+00  0.27611842782E+03  0.27611842782E+03  0.00000000000E+00 0. -1.
         -1   -1    0    0    0  501 -0.00000000000E+00 -0.00000000000E+00 -0.84543111943E+02  0.84543111943E+02  0.00000000000E+00 0.  1.
         25    2    1    2    0    0 -0.83733943926E+02  0.55241717168E+02  0.14730974637E+03  0.21773631027E+03  0.12508364703E+03 0.  0.
          5    1    3    3  502    0 -0.76353840437E+02  0.19017643571E+02  0.16006292096E+03  0.17840737312E+03  0.41800000000E+01 0.  1.
         -5    1    3    3    0  502 -0.73801034892E+01  0.36224073596E+02 -0.12753174590E+02  0.39328937153E+02  0.41800000000E+01 0.  1.
        -11    1    1    2    0    0  0.81849508309E+02 -0.56084316642E+01  0.44338575108E+02  0.93256129872E+02  0.00000000000E+00 0. -1.
         11    1    1    2    0    0  0.18844356171E+01 -0.49633285504E+02 -0.73005600172E-01  0.49669099622E+02  0.00000000000E+00 0.  1.
</event>
<event>
 7    1  0.2841804E-009  0.9023571E+02  0.7561462E-02  0.1302282E+00
          3   -1    0    0  501    0  0.00000000000E+00  0.00000000000E+00  0.11527055552E+03  0.11527055552E+03  0.00000000000E+00 0. -1.
         -3   -1    0    0    0  501 -0.00000000000E+00 -0.00000000000E+00 -0.15323990379E+03  0.15323990379E+03  0.00000000000E+00 0.  1.
         25    2    1    2    0    0  0.63778233873E+02 -0.65958798149E+01 -0.60806818458E+02  0.15315673776E+03  0.12509335875E+03 0.  0.
          5    1    3    3  502    0 -0.16384900587E+02  0.16131392173E+02  0.24484405444E+02  0.33847382330E+02  0.41800000000E+01 0.  1.
         -5    1    3    3    0  502  0.80163134459E+02 -0.22727271988E+02 -0.85291223902E+02  0.11930935543E+03  0.41800000000E+01 0.  1.
        -11    1    1    2    0    0 -0.29472339672E+02 -0.15067561293E+02  0.54584076030E+02  0.63836287212E+02  0.00000000000E+00 0. -1.
         11    1    1    2    0    0 -0.34305894200E+02  0.21663441108E+02 -0.31746605844E+02  0.51517434332E+02  0.00000000000E+00 0.  1.
</event>
<event>
 7    1  0.2841804E-009  0.1036707E+03  0.7561462E-02  0.1272761E+00
         -1   -1    0    0    0  501 -0.00000000000E+00  0.00000000000E+00  0.96902260046E+02  0.96902260046E+02  0.00000000000E+00 0.  1.
          1   -1    0    0  501    0  0.00000000000E+00 -0.00000000000E+00 -0.18705036525E+03  0.18705036525E+03  0.00000000000E+00 0. -1.
         25    2    1    2    0    0 -0.55561082658E+02 -0.33432449192E+02 -0.10303730344E+03  0.17454683704E+03  0.12508057345E+03 0.  0.
          5    1    3    3  502    0 -0.22875861758E+02 -0.72414543082E+02 -0.22711819325E+02  0.79375501498E+02  0.41800000000E+01 0.  1.
         -5    1    3    3    0  502 -0.32685220900E+02  0.38982093890E+02 -0.80325484119E+02  0.95171335539E+02  0.41800000000E+01 0.  1.
        -11    1    1    2    0    0  0.42181969170E+02 -0.21399930160E+01 -0.30221289039E+02  0.51934809178E+02  0.00000000000E+00 0. -1.
         11    1    1    2    0    0  0.13379113488E+02  0.35572442208E+02  0.43110487283E+02  0.57470979078E+02  0.00000000000E+00 0.  1.
</event>
<event>
 7    1  0.2841804E-009  0.9488496E+02  0.7561462E-02  0.1291435E+00
         -2   -1    0    0    0  501 -0.00000000000E+00  0.00000000000E+00  0.39875619225E+03  0.39875619225E+03  0.00000000000E+00 0. -1.
          2   -1    0    0  501    0  0.00000000000E+00 -0.00000000000E+00 -0.29913219056E+02  0.29913219056E+02  0.00000000000E+00 0.  1.
         25    2    1    2    0    0 -0.21215297002E+02  0.83358690633E+01  0.23957574812E+03  0.27122636364E+03  0.12509047008E+03 0.  0.
          5    1    3    3  502    0 -0.63433294535E+02 -0.24360725306E+02  0.17210066586E+03  0.18507657707E+03  0.41800000000E+01 0.  1.
         -5    1    3    3    0  502  0.42217997533E+02  0.32696594369E+02  0.67475082268E+02  0.86149786570E+02  0.41800000000E+01 0.  1.
        -11    1    1    2    0    0  0.32841567373E+02  0.19338186566E+02  0.12018334174E+03  0.12608159913E+03  0.00000000000E+00 0. -1.
         11    1    1    2    0    0 -0.11626270371E+02 -0.27674055629E+02  0.90838833273E+01  0.31361448532E+02  0.00000000000E+00 0.  1.
</event>
<event>
 7    1  0.2841804E-009  0.1061092E+03  0.7561462E-02  0.1267949E+00
         -3   -1    0    0    0  501 -0.00000000000E+00  0.00000000000E+00  0.43600177199E+02  0.43600177199E+02  0.00000000000E+00 0.  1.
          3   -1    0    0  501    0  0.00000000000E+00 -0.00000000000E+00 -0.35958346861E+03  0.35958346861E+03  0.00000000000E+00 0. -1.
         25    2    1    2    0    0 -0.47223506454E+02  0.40588222180E+02 -0.18650143154E+03  0.23304399291E+03  0.12509698366E+03 0.  0.
          5    1    3    3  502    0 -0.45051776585E+01 -0.32485233156E+02 -0.12239481571E+03  0.12678150619E+03  0.41800000000E+01 0. -1.
         -5    1    3    3    0  502 -0.42718328796E+02  0.73073455337E+02 -0.64106615835E+02  0.10626248672E+03  0.41800000000E+01 0. -1.
        -11    1    1    2    0    0  0.60724336299E+02 -0.49406460629E+02 -0.13234209392E+03  0.15376239200E+03  0.00000000000E+00 0. -1.
         11    1    1    2    0    0 -0.13500829845E+02  0.88182384485E+01  0.28602340507E+01  0.16377260902E+02  0.00000000000E+00 0.  1.
</event>
<event>
 7    1  0.2841804E-009  0.1172835E+03  0.7561462E-02  0.1247647E+00
         -2   -1    0    0    0  501 -0.00000000000E+00  0.00000000000E+00  0.61399365441E+03  0.61399365441E+03  0.00000000000E+00 0. -1.
          2   -1    0    0  501    0  0.00000000000E+00 -0.00000000000E+00 -0.39089136424E+02  0.39089136424E+02  0.00000000000E+00 0.  1.
         25    2    1    2    0    0  0.20212541789E+02  0.10777524218E+03  0.30959956337E+03  0.35145847403E+03  0.12508844734E+03 0.  0.
          5    1    3    3  502    0  0.55419772732E+01  0.65526399839E+02  0.29781837487E+03  0.30502078519E+03  0.41800000000E+01 0.  1.
         -5    1    3    3    0  502  0.14670564516E+02  0.42248842341E+02  0.11781188498E+02  0.46437688840E+02  0.41800000000E+01 0.  1.
        -11    1    1    2    0    0  0.18579588712E+02 -0.56388934338E+02  0.52368063245E+02  0.79166451736E+02  0.00000000000E+00 0.  1.
         11    1    1    2    0    0 -0.38792130502E+02 -0.51386307843E+02  0.21293689137E+03  0.22245786507E+03  0.00000000000E+00 0. -1.
</event>
<event>
 7    1  0.2841804E-009  0.1287526E+03  0.7561462E-02  0.1229318E+00
          1   -1    0    0  501    0  0.00000000000E+00  0.00000000000E+00  0.49059925714E+03  0.49059925714E+03  0.00000000000E+00 0. -1.
         -1   -1    0    0    0  501 -0.00000000000E+00 -0.00000000000E+00 -0.41509357221E+02  0.41509357221E+02  0.00000000000E+00 0.  1.
         25    2    1    2    0    0  0.38771084639E+02  0.67581874004E+02  0.34809612276E+03  0.37800594012E+03  0.12508826240E+03 0.  0.
          5    1    3    3  502    0  0.81593265045E+02  0.37748573477E+02  0.16973911539E+03  0.19212302151E+03  0.41800000000E+01 0. -1.
         -5    1    3    3    0  502 -0.42822180406E+02  0.29833300527E+02  0.17835700737E+03  0.18588291861E+03  0.41800000000E+01 0. -1.
        -11    1    1    2    0    0  0.11431179442E+02  0.14785050020E+02  0.87508191171E+01  0.20636046199E+02  0.00000000000E+00 0.  1.
         11    1    1    2    0    0 -0.50202264081E+02 -0.82366924024E+02  0.92242958048E+02  0.13346662804E+03  0.00000000000E+00 0. -1.
</event>
<event>
 6    1  0.2841804E-009  0.7372423E+02  0.7561462E-02  0.1347868E+00
          2   -1    0    0  501    0  0.00000000000E+00  0.00000000000E+00  0.44706411658E+03  0.44706411658E+03  0.00000000000E+00 0. -1.
         -2   -1    0    0    0  501 -0.00000000000E+00 -0.00000000000E+00 -0.32674480567E+02  0.32674480567E+02  0.00000000000E+00 0.  1.
          5    1    1    2  502    0  0.11670942576E+02  0.19974640021E+02  0.24825953711E+03  0.24937014118E+03  0.41800000000E+01 0. -1.
         -5    1    1    2    0  502  0.36068394361E+02 -0.31929637150E+02  0.23439523707E+02  0.53733736813E+02  0.41800000000E+01 0. -1.
        -11    1    1    2    0    0 -0.59333210129E+02  0.18655381822E+02  0.14927388340E+03  0.16171315766E+03  0.00000000000E+00 0. -1.
         11    1    1    2    0    0  0.11593873192E+02 -0.67003846932E+01 -0.65833082032E+01  0.14921561498E+02  0.00000000000E+00 0.  1.
</event>
<event>
 7    1  0.2841804E-009  0.9974418E+02  0.7561462E-02  0.1280835E+00
          1   -1    0    0  501    0  0.00000000000E+00  0.00000000000E+00  0.17942208572E+03  0.17942208572E+03  0.00000000000E+00 0. -1.
         -1   -1    0    0    0  501 -0.00000000000E+00 -0.00000000000E+00 -0.87131835129E+02  0.87131835129E+02  0.00000000000E+00 0.  1.
         25    2    1    2    0    0  0.44529589696E+02 -0.32759885841E+02  0.83713916573E+02  0.16035175454E+03  0.12509424798E+03 0.  0.
          5    1    3    3  502    0  0.46531593821E+02 -0.54453379185E+02  0.10658870464E+03  0.12848729153E+03  0.41800000000E+01 0. -1.
         -5    1    3    3    0  502 -0.20020041254E+01  0.21693493344E+02 -0.22874788067E+02  0.31864463013E+02  0.41800000000E+01 0. -1.
        -11    1    1    2    0    0 -0.17689753857E+02 -0.31382849705E+02  0.67141034738E+01  0.36645461282E+02  0.00000000000E+00 0. -1.
         11    1    1    2    0    0 -0.26839835839E+02  0.64142735546E+02  0.18622305452E+01  0.69556705024E+02  0.00000000000E+00 0.  1.
</event>
<event>
 7    1  0.2841804E-009  0.1568925E+03  0.7561462E-02  0.1192250E+00
          2   -1    0    0  501    0  0.00000000000E+00  0.00000000000E+00  0.84182741130E+03  0.84182741130E+03  0.00000000000E+00 0. -1.
         -2   -1    0    0    0  501 -0.00000000000E+00 -0.00000000000E+00 -0.34166769973E+02  0.34166769973E+02  0.00000000000E+00 0.  1.
         25    2    1    2    0    0  0.11467138620E+03  0.56932908553E+02  0.47843055851E+03  0.51081804708E+03  0.12509354507E+03 0.  0.
          5    1    3    3  502    0  0.57033721066E+02 -0.30158425733E+02  0.10750606038E+03  0.12544879991E+03  0.41800000000E+01 0. -1.
         -5    1    3    3    0  502  0.57637665137E+02  0.87091334286E+02  0.37092449814E+03  0.38536924717E+03  0.41800000000E+01 0. -1.
        -11    1    1    2    0    0 -0.10541616204E+03 -0.20974333227E+02  0.16587088693E+03  0.19765029978E+03  0.00000000000E+00 0.  1.
         11    1    1    2    0    0 -0.92552241666E+01 -0.35958575325E+02  0.16335919589E+03  0.16752583441E+03  0.00000000000E+00 0. -1.
</event>
<event>
 7    1  0.2841804E-009  0.1544954E+03  0.7561462E-02  0.1195055E+00
          1   -1    0    0  501    0  0.00000000000E+00  0.00000000000E+00  0.89989292618E+03  0.89989292618E+03  0.00000000000E+00 0. -1.
         -1   -1    0    0    0  501 -0.00000000000E+00 -0.00000000000E+00 -0.32209573261E+02  0.32209573261E+02  0.00000000000E+00 0.  1.
         25    2    1    2    0    0 -0.27527779146E+01  0.12883970701E+03  0.46299604577E+03  0.49660945574E+03  0.12509342606E+03 0.  0.
          5    1    3    3  502    0  0.56007357024E+02  0.29505795078E+02  0.18514872688E+03  0.19571647721E+03  0.41800000000E+01 0.  1.
         -5    1    3    3    0  502 -0.58760134938E+02  0.99333911932E+02  0.27784731888E+03  0.30089297853E+03  0.41800000000E+01 0.  1.
        -11    1    1    2    0    0 -0.74762524453E+01 -0.60440905302E+02  0.65953510809E+02  0.89771170051E+02  0.00000000000E+00 0.  1.
         11    1    1    2    0    0  0.10229030360E+02 -0.68398801708E+02  0.33873379634E+03  0.34572187365E+03  0.00000000000E+00 0. -1.
</event>
<event>
 7    1  0.2841804E-009  0.1330053E+03  0.7561462E-02  0.1223063E+00
          2   -1    0    0  501    0  0.00000000000E+00  0.00000000000E+00  0.65297659012E+03  0.65297659012E+03  0.00000000000E+00 0. -1.
         -2   -1    0    0    0  501 -0.00000000000E+00 -0.00000000000E+00 -0.42675540968E+02  0.42675540968E+02  0.00000000000E+00 0.  1.
         25    2    1    2    0    0  0.89789631995E+02  0.55564708234E+02  0.46811937712E+03  0.49591629304E+03  0.12509038196E+03 0.  0.
          5    1    3    3  502    0  0.55864104225E+02  0.74120870373E+02  0.43506147288E+03  0.44487150859E+03  0.41800000000E+01 0. -1.
         -5    1    3    3    0  502  0.33925527770E+02 -0.18556162139E+02  0.33057904234E+02  0.51044784456E+02  0.41800000000E+01 0. -1.
        -11    1    1    2    0    0 -0.10107001533E+03 -0.28693477325E+02  0.83456130070E+02  0.13417670918E+03  0.00000000000E+00 0.  1.
         11    1    1    2    0    0  0.11280383333E+02 -0.26871230909E+02  0.58725541968E+02  0.65559128870E+02  0.00000000000E+00 0. -1.
</event>
<event>
 7    1  0.2841804E-009  0.1782865E+03  0.7561462E-02  0.1169472E+00
         -3   -1    0    0    0  501 -0.00000000000E+00  0.00000000000E+00  0.67592867592E+02  0.67592867592E+02  0.00000000000E+00 0.  1.
          3   -1    0    0  501    0  0.00000000000E+00 -0.00000000000E+00 -0.50163439766E+03  0.50163439766E+03  0.00000000000E+00 0. -1.
         25    2    1    2    0    0 -0.13362913398E+03  0.58505242534E+02 -0.27006093920E+03  0.33145148911E+03  0.12509024701E+03 0.  0.
          5    1    3    3  502    0 -0.89295823248E+02  0.92403211935E+02 -0.14120436732E+03  0.19096660277E+03  0.41800000000E+01 0. -1.
         -5    1    3    3    0  502 -0.44333310728E+02 -0.33897969400E+02 -0.12885657189E+03  0.14048488633E+03  0.41800000000E+01 0. -1.
        -11    1    1    2    0    0 -0.13025781004E+02 -0.13207620511E+02 -0.20803682664E+02  0.27873023207E+02  0.00000000000E+00 0. -1.
         11    1    1    2    0    0  0.14665491498E+03 -0.45297622023E+02 -0.14317690820E+03  0.20990275294E+03  0.00000000000E+00 0.  1.
</event>
<event>
 7    1  0.2841804E-009  0.1662484E+03  0.7561462E-02  0.1181818E+00
         -1   -1    0    0    0  501 -0.00000000000E+00  0.00000000000E+00  0.77720931561E+03  0.77720931561E+03  0.00000000000E+00 0.  1.
          1   -1    0    0  501    0  0.00000000000E+00 -0.00000000000E+00 -0.42106640896E+02  0.42106640896E+02  0.00000000000E+00 0. -1.
         25    2    1    2    0    0  0.11476830173E+03  0.86002456283E+02  0.35450476613E+03  0.40235694135E+03  0.12509713615E+03 0.  0.
          5    1    3    3  502    0  0.21305534294E+02  0.62319535465E+02  0.49631500662E+02  0.82573655303E+02  0.41800000000E+01 0. -1.
         -5    1    3    3    0  502  0.93462767440E+02  0.23682920817E+02  0.30487326547E+03  0.31978328605E+03  0.41800000000E+01 0. -1.
        -11    1    1    2    0    0  0.12336434678E+02  0.53724187892E+01  0.24001757172E+02  0.27516083507E+02  0.00000000000E+00 0.  1.
         11    1    1    2    0    0 -0.12710473641E+03 -0.91374875072E+02  0.35659615141E+03  0.38944293165E+03  0.00000000000E+00 0. -1.
</event>
<event>
 7    1  0.2841804E-009  0.1234813E+03  0.7561462E-02  0.1237462E+00
         -2   -1    0    0    0  501 -0.00000000000E+00  0.00000000000E+00  0.21768355488E+03  0.21768355488E+03  0.00000000000E+00 0.  1.
          2   -1    0    0  501    0  0.00000000000E+00 -0.00000000000E+00 -0.70074069950E+02  0.70074069950E+02  0.00000000000E+00 0. -1.
         25    2    1    2    0    0  0.89099785069E+01  0.57633585852E+02  0.82637645529E+02  0.16086548510E+03  0.12509079064E+03 0.  0.
          5    1    3    3  502    0  0.10106070835E+02 -0.39380741912E+02  0.26123422114E+02  0.48506505587E+02  0.41800000000E+01 0. -1.
         -5    1    3    3    0  502 -0.11960923284E+01  0.97014327764E+02  0.56514223415E+02  0.11235897951E+03  0.41800000000E+01 0. -1.
        -11    1    1    2    0    0  0.37750943588E+02 -0.48454613997E+02  0.35511522587E+02  0.70951050703E+02  0.00000000000E+00 0.  1.
         11    1    1    2    0    0 -0.46660922095E+02 -0.91789718553E+01  0.29460316812E+02  0.55941089029E+02  0.00000000000E+00 0. -1.
</event>
<event>
 7    1  0.2841804E-009  0.1416540E+03  0.7561462E-02  0.1211121E+00
          4   -1    0    0  501    0  0.00000000000E+00  0.00000000000E+00  0.59752700015E+02  0.59752700015E+02  0.00000000000E+00 0. -1.
         -4   -1    0    0    0  501 -0.00000000000E+00 -0.00000000000E+00 -0.40487934318E+03  0.40487934318E+03  0.00000000000E+00 0.  1.
         25    2    1    2    0    0 -0.62305085275E+02 -0.75004618862E+02 -0.10597253802E+03  0.19074675526E+03  0.12508608767E+03 0.  0.
          5    1    3    3  502    0 -0.33061191250E+02 -0.10811210048E+03 -0.65703278098E+02  0.13082683895E+03  0.41800000000E+01 0. -1.
         -5    1    3    3    0  502 -0.29243894025E+02  0.33107481616E+02 -0.40269259917E+02  0.59919916314E+02  0.41800000000E+01 0. -1.
        -11    1    1    2    0    0  0.30767444078E+02 -0.12181058300E+02 -0.28278572680E+02  0.43528053818E+02  0.00000000000E+00 0. -1.
         11    1    1    2    0    0  0.31537641198E+02  0.87185677162E+02 -0.21087553247E+03  0.23035723411E+03  0.00000000000E+00 0.  1.
</event>
<event>
 7    1  0.2841804E-009  0.9324436E+02  0.7561462E-02  0.1295180E+00
          1   -1    0    0  501    0  0.00000000000E+00  0.00000000000E+00  0.20160391203E+03  0.20160391203E+03  0.00000000000E+00 0. -1.
         -1   -1    0    0    0  501 -0.00000000000E+00 -0.00000000000E+00 -0.13632276667E+03  0.13632276667E+03  0.00000000000E+00 0.  1.
         25    2    1    2    0    0 -0.71750441213E+02 -0.25187268751E+02 -0.65367716455E+02  0.16032552458E+03  0.12509520837E+03 0.  0.
          5    1    3    3  502    0 -0.12380880690E+02 -0.35697073174E+02  0.29310641702E+02  0.48001597440E+02  0.41800000000E+01 0. -1.
         -5    1    3    3    0  502 -0.59369560523E+02  0.10509804422E+02 -0.94678358158E+02  0.11232392714E+03  0.41800000000E+01 0. -1.
        -11    1    1    2    0    0  0.64744507818E+02  0.30478309806E+01  0.13864003260E+03  0.15304312858E+03  0.00000000000E+00 0. -1.
         11    1    1    2    0    0  0.70059333948E+01  0.22139437771E+02 -0.79911707947E+01  0.24558025535E+02  0.00000000000E+00 0.  1.
</event>
<event>
 7    1  0.2841804E-009  0.2288398E+03  0.7561462E-02  0.1127459E+00
          1   -1    0    0  501    0  0.00000000000E+00  0.00000000000E+00  0.11817331119E+04  0.11817331119E+04  0.00000000000E+00 0. -1.
         -1   -1    0    0    0  501 -0.00000000000E+00 -0.00000000000E+00 -0.46395661134E+02  0.46395661134E+02  0.00000000000E+00 0.  1.
         25    2    1    2    0    0  0.82320218170E+01  0.20680859350E+03  0.61285819275E+03  0.65884795932E+03  0.12509160065E+03 0.  0.
          5    1    3    3  502    0 -0.41624216841E+02  0.15103355754E+03  0.31665467866E+03  0.35331482965E+03  0.41800000000E+01 0. -1.
         -5    1    3    3    0  502  0.49856238658E+02  0.55775035951E+02  0.29620351409E+03  0.30553312967E+03  0.41800000000E+01 0. -1.
        -11    1    1    2    0    0 -0.49725496086E+02 -0.11336013844E+03  0.28896853153E+03  0.31436596216E+03  0.00000000000E+00 0.  1.
         11    1    1    2    0    0  0.41493474269E+02 -0.93448455057E+02  0.23351072646E+03  0.25491485153E+03  0.00000000000E+00 0. -1.
</event>
<event>
 7    1  0.2841804E-009  0.8903985E+02  0.7561462E-02  0.1305194E+00
         -2   -1    0    0    0  501 -0.00000000000E+00  0.00000000000E+00  0.35532930636E+02  0.35532930636E+02  0.00000000000E+00 0.  1.
          2   -1    0    0  501    0  0.00000000000E+00 -0.00000000000E+00 -0.36822375633E+03  0.36822375633E+03  0.00000000000E+00 0. -1.
         25    2    1    2    0    0 -0.23603405234E+02 -0.38686064775E+00 -0.24752918644E+03  0.27834424007E+03  0.12509015726E+03 0.  0.
          5    1    3    3  502    0 -0.45585788272E+02 -0.29846220037E+02 -0.40456787076E+02  0.67993271457E+02  0.41800000000E+01 0. -1.
         -5    1    3    3    0  502  0.21982383038E+02  0.29459359389E+02 -0.20707239936E+03  0.21035096861E+03  0.41800000000E+01 0. -1.
        -11    1    1    2    0    0 -0.20141830921E+02  0.28159664837E+02 -0.13909921010E+02  0.37311472486E+02  0.00000000000E+00 0.  1.
         11    1    1    2    0    0  0.43745236155E+02 -0.27772804189E+02 -0.71251718252E+02  0.88100974414E+02  0.00000000000E+00 0. -1.
</event>
<event>
 7    1  0.2841804E-009  0.9985738E+02  0.7561462E-02  0.1280596E+00
          1   -1    0    0  501    0  0.00000000000E+00  0.00000000000E+00  0.43236100303E+03  0.43236100303E+03  0.00000000000E+00 0. -1.
         -1   -1    0    0    0  501 -0.00000000000E+00 -0.00000000000E+00 -0.37620623505E+02  0.37620623505E+02  0.00000000000E+00 0.  1.
         25    2    1    2    0    0 -0.33744215897E+02 -0.57536974110E+02  0.19634898023E+03  0.24218092210E+03  0.12509796759E+03 0.  0.
          5    1    3    3  502    0  0.39540412754E+02 -0.80879142801E+00  0.10372619987E+03  0.11108868225E+03  0.41800000000E+01 0. -1.
         -5    1    3    3    0  502 -0.73284628652E+02 -0.56728182682E+02  0.92622780363E+02  0.13109223985E+03  0.41800000000E+01 0. -1.
        -11    1    1    2    0    0  0.19743770991E+02  0.25795367434E+02  0.69215472730E+01  0.33213330014E+02  0.00000000000E+00 0.  1.
         11    1    1    2    0    0  0.14000444907E+02  0.31741606675E+02  0.19146985202E+03  0.19458737442E+03  0.00000000000E+00 0. -1.
</event>
<event>
 7    1  0.2841804E-009  0.1028695E+03  0.7561462E-02  0.1274375E+00
         -1   -1    0    0    0  501 -0.00000000000E+00  0.00000000000E+00  0.34062548183E+02  0.34062548183E+02  0.00000000000E+00 0.  1.
          1   -1    0    0  501    0  0.00000000000E+00 -0.00000000000E+00 -0.38915552905E+03  0.38915552905E+03  0.00000000000E+00 0. -1.
         25    2    1    2    0    0  0.12311697640E+02 -0.31621564662E+02 -0.23227892055E+03  0.26599378592E+03  0.12509075093E+03 0.  0.
          5    1    3    3  502    0 -0.46206123202E+02 -0.28083988712E+02 -0.17768253725E+03  0.18577479024E+03  0.41800000000E+01 0.  1.
         -5    1    3    3    0  502  0.58517820842E+02 -0.35375759492E+01 -0.54596383301E+02  0.80218995688E+02  0.41800000000E+01 0.  1.
        -11    1    1    2    0    0 -0.47792082217E+02  0.43640131272E+01 -0.37554873176E+02  0.60938462669E+02  0.00000000000E+00 0. -1.
         11    1    1    2    0    0  0.35480384577E+02  0.27257551534E+02 -0.85259187136E+02  0.96285828638E+02  0.00000000000E+00 0.  1.
</event>
<event>
 7    1  0.2841804E-009  0.3196734E+03  0.7561462E-02  0.1075800E+00
         -2   -1    0    0    0  501 -0.00000000000E+00  0.00000000000E+00  0.85457883019E+02  0.85457883019E+02  0.00000000000E+00 0.  1.
          2   -1    0    0  501    0  0.00000000000E+00 -0.00000000000E+00 -0.13185418596E+04  0.13185418596E+04  0.00000000000E+00 0. -1.
         25    2    1    2    0    0  0.17301393904E+03  0.25381856132E+03 -0.79829138079E+03  0.86445018206E+03  0.12508918196E+03 0.  0.
          5    1    3    3  502    0  0.10176053393E+03  0.21666335888E+03 -0.48334552354E+03  0.53938723091E+03  0.41800000000E+01 0.  1.
         -5    1    3    3    0  502  0.71253405118E+02  0.37155202445E+02 -0.31494585725E+03  0.32506295115E+03  0.41800000000E+01 0.  1.
        -11    1    1    2    0    0 -0.98358661030E+02 -0.21246711944E+03 -0.32056005321E+03  0.39695774430E+03  0.00000000000E+00 0.  1.
         11    1    1    2    0    0 -0.74655278014E+02 -0.41351441878E+02 -0.11423254259E+03  0.14259181627E+03  0.00000000000E+00 0. -1.
</event>
<event>
 7    1  0.2841804E-009  0.1059493E+03  0.7561462E-02  0.1268261E+00
          2   -1    0    0  501    0  0.00000000000E+00  0.00000000000E+00  0.10708760281E+04  0.10708760281E+04  0.00000000000E+00 0. -1.
         -2   -1    0    0    0  501 -0.00000000000E+00 -0.00000000000E+00 -0.30370874480E+02  0.30370874480E+02  0.00000000000E+00 0.  1.
         25    2    1    2    0    0 -0.60962303636E+02 -0.40581291608E+02  0.92797440314E+03  0.93922675010E+03  0.12508857478E+03 0.  0.
          5    1    3    3  502    0 -0.53761424407E+01 -0.45499757506E+02  0.77455777242E+03  0.77592289955E+03  0.41800000000E+01 0.  1.
         -5    1    3    3    0  502 -0.55586161195E+02  0.49184658976E+01  0.15341663072E+03  0.16330385055E+03  0.41800000000E+01 0.  1.
        -11    1    1    2    0    0  0.48736099873E+02 -0.16579201294E+02  0.26202076539E+02  0.57763536607E+02  0.00000000000E+00 0.  1.
         11    1    1    2    0    0  0.12226203762E+02  0.57160492902E+02  0.86328673940E+02  0.10425661586E+03  0.00000000000E+00 0. -1.
</event>
<event>
 7    1  0.2841804E-009  0.1056616E+03  0.7561462E-02  0.1268821E+00
          1   -1    0    0  501    0  0.00000000000E+00  0.00000000000E+00  0.26980381032E+02  0.26980381032E+02  0.00000000000E+00 0. -1.
         -1   -1    0    0    0  501 -0.00000000000E+00 -0.00000000000E+00 -0.48807135027E+03  0.48807135027E+03  0.00000000000E+00 0.  1.
         25    2    1    2    0    0  0.16075769277E+02  0.83809591561E+01 -0.32871756769E+03  0.35218145323E+03  0.12509142999E+03 0.  0.
          5    1    3    3  502    0 -0.49410302726E+02  0.18753656997E+02 -0.20512779601E+03  0.21186779548E+03  0.41800000000E+01 0.  1.
         -5    1    3    3    0  502  0.65486072002E+02 -0.10372697841E+02 -0.12358977168E+03  0.14031365775E+03  0.41800000000E+01 0.  1.
        -11    1    1    2    0    0 -0.37245736251E+02 -0.39465563380E+02 -0.97484465800E+02  0.11157059036E+03  0.00000000000E+00 0.  1.
         11    1    1    2    0    0  0.21169966974E+02  0.31084604223E+02 -0.34888935748E+02  0.51299687709E+02  0.00000000000E+00 0. -1.
</event>
<event>
 7    1  0.2841804E-009  0.8888429E+02  0.7561462E-02  0.1305576E+00
          1   -1    0    0  501    0  0.00000000000E+00  0.00000000000E+00  0.12002868999E+03  0.12002868999E+03  0.00000000000E+00 0. -1.
         -1   -1    0    0    0  501 -0.00000000000E+00 -0.00000000000E+00 -0.17135115474E+03  0.17135115474E+03  0.00000000000E+00 0.  1.
         25    2    1    2    0    0 -0.31754701112E+02  0.10545122382E+02 -0.11603497025E+03  0.17387280900E+03  0.12509228090E+03 0.  0.
          5    1    3    3  502    0 -0.52744589840E+02  0.50221354521E+02 -0.10431797710E+03  0.12729449695E+03  0.41800000000E+01 0. -1.
         -5    1    3    3    0  502  0.20989888728E+02 -0.39676232138E+02 -0.11716993156E+02  0.46578312058E+02  0.41800000000E+01 0. -1.
        -11    1    1    2    0    0  0.44052245728E+02 -0.15183140662E+02 -0.47271186027E+01  0.46834536021E+02  0.00000000000E+00 0.  1.
         11    1    1    2    0    0 -0.12297544616E+02  0.46380182798E+01  0.69439624109E+02  0.70672499698E+02  0.00000000000E+00 0. -1.
</event>
<event>
 7    1  0.2841804E-009  0.9633541E+02  0.7561462E-02  0.1288196E+00
          4   -1    0    0  501    0  0.00000000000E+00  0.00000000000E+00  0.13347798910E+03  0.13347798910E+03  0.00000000000E+00 0. -1.
         -4   -1    0    0    0  501 -0.00000000000E+00 -0.00000000000E+00 -0.13794200881E+03  0.13794200881E+03  0.00000000000E+00 0.  1.
         25    2    1    2    0    0  0.60143399482E+02  0.18547513944E+02 -0.55740662178E+02  0.15072060724E+03  0.12509372987E+03 0.  0.
          5    1    3    3  502    0  0.12358254923E+01 -0.18386765357E+02 -0.75892673012E+02  0.78209785972E+02  0.41800000000E+01 0. -1.
         -5    1    3    3    0  502  0.58907573989E+02  0.36934279301E+02  0.20152010834E+02  0.72510821271E+02  0.41800000000E+01 0. -1.
        -11    1    1    2    0    0 -0.78516908888E+02 -0.72132375080E+00  0.21458649938E+02  0.81399624977E+02  0.00000000000E+00 0.  1.
         11    1    1    2    0    0  0.18373509406E+02 -0.17826190193E+02  0.29817992526E+02  0.39299765686E+02  0.00000000000E+00 0. -1.
</event>
<event>
 7    1  0.2841804E-009  0.9873475E+02  0.7561462E-02  0.1282979E+00
          2   -1    0    0  501    0  0.00000000000E+00  0.00000000000E+00  0.17753955269E+03  0.17753955269E+03  0.00000000000E+00 0. -1.
         -2   -1    0    0    0  501 -0.00000000000E+00 -0.00000000000E+00 -0.73886545758E+02  0.73886545758E+02  0.00000000000E+00 0.  1.
         25    2    1    2    0    0  0.38006322764E+01  0.15337221108E+02  0.96895102840E+02  0.15901687460E+03  0.12509208727E+03 0.  0.
          5    1    3    3  502    0 -0.31798666279E+02  0.54275022760E+02  0.20915485370E+02  0.66421857856E+02  0.41800000000E+01 0.  1.
         -5    1    3    3    0  502  0.35599298556E+02 -0.38937801652E+02  0.75979617470E+02  0.92595016745E+02  0.41800000000E+01 0.  1.
        -11    1    1    2    0    0 -0.33409647788E+02 -0.33054355676E+02  0.25154856581E+02  0.53306301730E+02  0.00000000000E+00 0. -1.
         11    1    1    2    0    0  0.29609015512E+02  0.17717134568E+02 -0.18396952493E+02  0.39102922115E+02  0.00000000000E+00 0.  1.
</event>
<event>
 7    1  0.2841804E-009  0.1179288E+03  0.7561462E-02  0.1246553E+00
         -1   -1    0    0    0  501 -0.00000000000E+00  0.00000000000E+00  0.14786328414E+03  0.14786328414E+03  0.00000000000E+00 0.  1.
          1   -1    0    0  501    0  0.00000000000E+00 -0.00000000000E+00 -0.11141915307E+03  0.11141915307E+03  0.00000000000E+00 0. -1.
         25    2    1    2    0    0  0.10943538193E+02  0.51043487232E+02  0.62473556272E+02  0.14924608717E+03  0.12508497385E+03 0.  0.
          5    1    3    3  502    0 -0.51034466837E+02  0.44904976996E+01  0.47904824203E+02  0.70263973392E+02  0.41800000000E+01 0. -1.
         -5    1    3    3    0  502  0.61978005030E+02  0.46552989532E+02  0.14568732069E+02  0.78982113773E+02  0.41800000000E+01 0. -1.
        -11    1    1    2    0    0  0.19727829068E+02 -0.68674007170E+02 -0.19460453355E+02  0.74054140636E+02  0.00000000000E+00 0.  1.
         11    1    1    2    0    0 -0.30671367261E+02  0.17630519938E+02 -0.65689718388E+01  0.35982209409E+02  0.00000000000E+00 0. -1.
</event>
<event>
 7    1  0.2841804E-009  0.9926997E+02  0.7561462E-02  0.1281839E+00
         -3   -1    0    0    0  501 -0.00000000000E+00  0.00000000000E+00  0.51369581402E+02  0.51369581402E+02  0.00000000000E+00 0.  1.
          3   -1    0    0  501    0  0.00000000000E+00 -0.00000000000E+00 -0.32807505850E+03  0.32807505850E+03  0.00000000000E+00 0. -1.
         25    2    1    2    0    0  0.50957029500E+02 -0.47683788181E+02 -0.17852072772E+03  0.22888254433E+03  0.12508879391E+03 0.  0.
          5    1    3    3  502    0  0.76345237473E+02 -0.13383853088E+02 -0.47449479903E+02  0.90976086701E+02  0.41800000000E+01 0. -1.
         -5    1    3    3    0  502 -0.25388207974E+02 -0.34299935094E+02 -0.13107124781E+03  0.13790645762E+03  0.41800000000E+01 0. -1.
        -11    1    1    2    0    0 -0.55677662332E+02  0.38433073302E+02 -0.11345477203E+03  0.13209499802E+03  0.00000000000E+00 0. -1.
         11    1    1    2    0    0  0.47206328318E+01  0.92507148797E+01  0.15270022652E+02  0.18467097549E+02  0.00000000000E+00 0.  1.
</event>
<event>
 7    1  0.2841804E-009  0.1013834E+03  0.7561462E-02  0.1277413E+00
         -1   -1    0    0    0  501 -0.00000000000E+00  0.00000000000E+00  0.20420362677E+03  0.20420362677E+03  0.00000000000E+00 0.  1.
          1   -1    0    0  501    0  0.00000000000E+00 -0.00000000000E+00 -0.74387128691E+02  0.74387128691E+02  0.00000000000E+00 0. -1.
         25    2    1    2    0    0  0.19835431157E+02  0.45513772165E+02  0.37409426080E+02  0.13968576645E+03  0.12509076865E+03 0.  0.
          5    1    3    3  502    0  0.50973805103E+02  0.84354405957E+00  0.61503272948E+02  0.79994783308E+02  0.41800000000E+01 0. -1.
         -5    1    3    3    0  502 -0.31138373945E+02  0.44670228106E+02 -0.24093846868E+02  0.59690983137E+02  0.41800000000E+01 0. -1.
        -11    1    1    2    0    0 -0.51852323589E+02 -0.18312936448E+02  0.27235874492E+02  0.61366277077E+02  0.00000000000E+00 0. -1.
         11    1    1    2    0    0  0.32016892432E+02 -0.27200835718E+02  0.65171197510E+02  0.77538711942E+02  0.00000000000E+00 0.  1.
</event>
<event>
 7    1  0.2841804E-009  0.8638416E+02  0.7561462E-02  0.1311852E+00
          2   -1    0    0  501    0  0.00000000000E+00  0.00000000000E+00  0.11123607649E+04  0.11123607649E+04  0.00000000000E+00 0. -1.
         -2   -1    0    0    0  501 -0.00000000000E+00 -0.00000000000E+00 -0.12288495306E+02  0.12288495306E+02  0.00000000000E+00 0.  1.
         25    2    1    2    0    0 -0.11178098396E+02 -0.22711322632E+02  0.77651611637E+03  0.78693407037E+03  0.12508876073E+03 0.  0.
          5    1    3    3  502    0 -0.34682771021E+02 -0.36443679500E+02  0.73722632364E+03  0.73895274616E+03  0.41800000000E+01 0. -1.
         -5    1    3    3    0  502  0.23504672625E+02  0.13732356868E+02  0.39289792729E+02  0.47981324211E+02  0.41800000000E+01 0. -1.
        -11    1    1    2    0    0 -0.39880443824E+02  0.17052218661E+02  0.18287400047E+03  0.18794714153E+03  0.00000000000E+00 0. -1.
         11    1    1    2    0    0  0.51058542219E+02  0.56591039709E+01  0.14068215275E+03  0.14976804831E+03  0.00000000000E+00 0.  1.
</event>
<event>
 7    1  0.2841804E-009  0.1595016E+03  0.7561462E-02  0.1189261E+00
          2   -1    0    0  501    0  0.00000000000E+00  0.00000000000E+00  0.39003919617E+03  0.39003919617E+03  0.00000000000E+00 0. -1.
         -2   -1    0    0    0  501 -0.00000000000E+00 -0.00000000000E+00 -0.11087667526E+03  0.11087667526E+03  0.00000000000E+00 0.  1.
         25    2    1    2    0    0 -0.14222674310E+02 -0.12159958212E+03 -0.86322508334E+01  0.17524583602E+03  0.12509134443E+03 0.  0.
          5    1    3    3  502    0 -0.60832813567E+02 -0.11058991971E+03 -0.13099462100E+02  0.12696389193E+03  0.41800000000E+01 0.  1.
         -5    1    3    3    0  502  0.46610139257E+02 -0.11009662412E+02  0.44672112664E+01  0.48281944083E+02  0.41800000000E+01 0.  1.
        -11    1    1    2    0    0 -0.23090616231E+02  0.97560063316E+02  0.24175293370E+03  0.26171668549E+03  0.00000000000E+00 0.  1.
         11    1    1    2    0    0  0.37313290541E+02  0.24039518805E+02  0.46041838046E+02  0.63953349920E+02  0.00000000000E+00 0. -1.
</event>
<event>
 7    1  0.2841804E-009  0.8552070E+02  0.7561462E-02  0.1314076E+00
         -2   -1    0    0    0  501 -0.00000000000E+00  0.00000000000E+00  0.18756469173E+02  0.18756469173E+02  0.00000000000E+00 0.  1.
          2   -1    0    0  501    0  0.00000000000E+00 -0.00000000000E+00 -0.16399062994E+04  0.16399062994E+04  0.00000000000E+00 0. -1.
         25    2    1    2    0    0 -0.33262486112E+02  0.37036190670E+02 -0.14725361893E+04  0.14786785941E+04  0.12509789520E+03 0.  0.
          5    1    3    3  502    0  0.12581445968E+02  0.13799882017E+02 -0.12538118134E+04  0.12539578403E+04  0.41800000000E+01 0.  1.
         -5    1    3    3    0  502 -0.45843932080E+02  0.23236308653E+02 -0.21872437592E+03  0.22472075376E+03  0.41800000000E+01 0.  1.
        -11    1    1    2    0    0  0.36993177920E+02  0.20761485248E+02 -0.49516161255E+02  0.65202643411E+02  0.00000000000E+00 0.  1.
         11    1    1    2    0    0 -0.37306918081E+01 -0.57797675918E+02 -0.99097479739E+02  0.11478153115E+03  0.00000000000E+00 0. -1.
</event>
<event>
 7    1  0.2841804E-009  0.1210947E+03  0.7561462E-02  0.1241302E+00
         -1   -1    0    0    0  501 -0.00000000000E+00  0.00000000000E+00  0.21278641622E+02  0.21278641622E+02  0.00000000000E+00 0.  1.
          1   -1    0    0  501    0  0.00000000000E+00 -0.00000000000E+00 -0.76595359799E+03  0.76595359799E+03  0.00000000000E+00 0. -1.
         25    2    1    2    0    0  0.15923318171E+01  0.56154031555E+02 -0.31930998958E+03  0.34749859894E+03  0.12506236860E+03 0.  0.
          5    1    3    3  502    0 -0.45928654728E+02  0.72131892157E+02 -0.22235816132E+03  0.23827101271E+03  0.41800000000E+01 0.  1.
         -5    1    3    3    0  502  0.47520986545E+02 -0.15977860603E+02 -0.96951828257E+02  0.10922758623E+03  0.41800000000E+01 0.  1.
        -11    1    1    2    0    0  0.42537605418E+02 -0.42354835398E+02 -0.17174208160E+03  0.18193054320E+03  0.00000000000E+00 0.  1.
         11    1    1    2    0    0 -0.44129937235E+02 -0.13799196157E+02 -0.25362288519E+03  0.25780309747E+03  0.00000000000E+00 0. -1.
</event>
<event>
 7    1  0.2841804E-009  0.9590415E+02  0.7561462E-02  0.1289153E+00
          1   -1    0    0  501    0  0.00000000000E+00  0.00000000000E+00  0.42076129546E+03  0.42076129546E+03  0.00000000000E+00 0. -1.
         -1   -1    0    0    0  501 -0.00000000000E+00 -0.00000000000E+00 -0.27702348306E+02  0.27702348306E+02  0.00000000000E+00 0.  1.
         25    2    1    2    0    0  0.12717545310E+02  0.35539501453E+02  0.26270947039E+03  0.29340922218E+03  0.12509162124E+03 0.  0.
          5    1    3    3  502    0 -0.23693564766E+02  0.61007630386E+02  0.22690452778E+03  0.23619156019E+03  0.41800000000E+01 0. -1.
         -5    1    3    3    0  502  0.36411110076E+02 -0.25468128933E+02  0.35804942604E+02  0.57217661986E+02  0.41800000000E+01 0. -1.
        -11    1    1    2    0    0 -0.96374643632E+01 -0.58066566888E+02  0.75904175827E+02  0.96052333743E+02  0.00000000000E+00 0.  1.
         11    1    1    2    0    0 -0.30800809467E+01  0.22527065435E+02  0.54445300937E+02  0.59002087844E+02  0.00000000000E+00 0. -1.
</event>
<event>
 7    1  0.2841804E-009  0.1571768E+03  0.7561462E-02  0.1191922E+00
         -1   -1    0    0    0  501 -0.00000000000E+00  0.00000000000E+00  0.37742749113E+02  0.37742749113E+02  0.00000000000E+00 0.  1.
          1   -1    0    0  501    0  0.00000000000E+00 -0.00000000000E+00 -0.69553882636E+03  0.69553882636E+03  0.00000000000E+00 0. -1.
         25    2    1    2    0    0 -0.95651604891E+02 -0.62530356163E+02 -0.43882032014E+03  0.47039582449E+03  0.12509869450E+03 0.  0.
          5    1    3    3  502    0 -0.14256656500E+02  0.37541422318E+02 -0.10525687052E+03  0.11273460798E+03  0.41800000000E+01 0.  1.
         -5    1    3    3    0  502 -0.81394948391E+02 -0.10007177848E+03 -0.33356344962E+03  0.35766121651E+03  0.41800000000E+01 0.  1.
        -11    1    1    2    0    0  0.86950876446E+02  0.84525249558E+02 -0.17427780397E+03  0.21231515651E+03  0.00000000000E+00 0.  1.
         11    1    1    2    0    0  0.87007284449E+01 -0.21994893395E+02 -0.44697953133E+02  0.50570594472E+02  0.00000000000E+00 0. -1.
</event>
<event>
 7    1  0.4260977E-009  0.1745637E+03  0.7561462E-02  0.1173170E+00
         -1   -1    0    0    0  501 -0.00000000000E+00  0.00000000000E+00  0.46358911913E+03  0.46358911913E+03  0.00000000000E+00 0.  1.
          1   -1    0    0  501    0  0.00000000000E+00 -0.00000000000E+00 -0.79969550775E+02  0.79969550775E+02  0.00000000000E+00 0. -1.
         25    2    1    2    0    0  0.43182671809E+02  0.14884541685E+03  0.24944180420E+03  0.31921817079E+03  0.12513722714E+03 0.  0.
          5    1    3    3  502    0 -0.14658597628E+02  0.70704135465E+02  0.28399046920E+02  0.77704102351E+02  0.41800000000E+01 0.  1.
         -5    1    3    3    0  502  0.57841269437E+02  0.78141281389E+02  0.22104275728E+03  0.24151406844E+03  0.41800000000E+01 0.  1.
        -11    1    1    2    0    0 -0.71093191222E+02 -0.93030950892E+02  0.93651138643E+02  0.14993176925E+03  0.00000000000E+00 0. -1.
         11    1    1    2    0    0  0.27910519413E+02 -0.55814465962E+02  0.40526625510E+02  0.74408729863E+02  0.00000000000E+00 0.  1.
</event>
<event>
 7    1  0.2841804E-009  0.1761726E+03  0.7561462E-02  0.1171560E+00
         -1   -1    0    0    0  501 -0.00000000000E+00  0.00000000000E+00  0.13057888958E+03  0.13057888958E+03  0.00000000000E+00 0.  1.
          1   -1    0    0  501    0  0.00000000000E+00 -0.00000000000E+00 -0.30255791130E+03  0.30255791130E+03  0.00000000000E+00 0. -1.
         25    2    1    2    0    0 -0.65997949228E+02  0.13516812439E+03 -0.14048590470E+02  0.19614106438E+03  0.12509117910E+03 0.  0.
          5    1    3    3  502    0 -0.55141615600E+02  0.40633083655E+01  0.22031565375E+02  0.59665488507E+02  0.41800000000E+01 0. -1.
         -5    1    3    3    0  502 -0.10856333628E+02  0.13110481602E+03 -0.36080155845E+02  0.13647557587E+03  0.41800000000E+01 0. -1.
        -11    1    1    2    0    0  0.77779590751E+02 -0.91719406812E+02 -0.72478756204E+02  0.14041112643E+03  0.00000000000E+00 0.  1.
         11    1    1    2    0    0 -0.11781641523E+02 -0.43448717575E+02 -0.85451675038E+02  0.96584610072E+02  0.00000000000E+00 0. -1.
</event>
<event>
 7    1  0.2841804E-009  0.1104933E+03  0.7561462E-02  0.1259659E+00
         -2   -1    0    0    0  501 -0.00000000000E+00  0.00000000000E+00  0.40488641130E+02  0.40488641130E+02  0.00000000000E+00 0.  1.
          2   -1    0    0  501    0  0.00000000000E+00 -0.00000000000E+00 -0.49548135548E+03  0.49548135548E+03  0.00000000000E+00 0. -1.
         25    2    1    2    0    0 -0.65959349097E+02 -0.29560935375E+02 -0.35266969486E+03  0.38111447646E+03  0.12509135009E+03 0.  0.
          5    1    3    3  502    0 -0.84805372460E+02  0.14078837212E+02 -0.28902361138E+03  0.30156638604E+03  0.41800000000E+01 0.  1.
         -5    1    3    3    0  502  0.18846023363E+02 -0.43639772587E+02 -0.63646083476E+02  0.79548090422E+02  0.41800000000E+01 0.  1.
        -11    1    1    2    0    0  0.38511399915E+02  0.42070866781E+02 -0.10227046241E+02  0.57945476355E+02  0.00000000000E+00 0.  1.
         11    1    1    2    0    0  0.27447949181E+02 -0.12509931406E+02 -0.92095973258E+02  0.96910043795E+02  0.00000000000E+00 0. -1.
</event>
<event>
 7    1  0.2841804E-009  0.1610236E+03  0.7561462E-02  0.1187546E+00
         -2   -1    0    0    0  501 -0.00000000000E+00  0.00000000000E+00  0.92587316084E+02  0.92587316084E+02  0.00000000000E+00 0.  1.
          2   -1    0    0  501    0  0.00000000000E+00 -0.00000000000E+00 -0.32317285335E+03  0.32317285335E+03  0.00000000000E+00 0. -1.
         25    2    1    2    0    0 -0.77633938130E+02  0.10954402362E+03 -0.11517900565E+03  0.21665903298E+03  0.12509201321E+03 0.  0.
          5    1    3    3  502    0 -0.13160147622E+02  0.94257871909E+02 -0.11619967484E+03  0.15025835330E+03  0.41800000000E+01 0.  1.
         -5    1    3    3    0  502 -0.64473790508E+02  0.15286151710E+02  0.10206691905E+01  0.66400679681E+02  0.41800000000E+01 0.  1.
        -11    1    1    2    0    0  0.54248510144E+02 -0.63954367537E+01 -0.25487935656E+02  0.60278000366E+02  0.00000000000E+00 0. -1.
         11    1    1    2    0    0  0.23385427986E+02 -0.10314858687E+03 -0.89918595957E+02  0.13882313609E+03  0.00000000000E+00 0.  1.
</event>
<event>
 7    1  0.2841804E-009  0.1444453E+03  0.7561462E-02  0.1207470E+00
          1   -1    0    0  501    0  0.00000000000E+00  0.00000000000E+00  0.36233502700E+03  0.36233502700E+03  0.00000000000E+00 0. -1.
         -1   -1    0    0    0  501 -0.00000000000E+00 -0.00000000000E+00 -0.71679015738E+02  0.71679015738E+02  0.00000000000E+00 0.  1.
         25    2    1    2    0    0 -0.68972845067E+01 -0.11165217443E+03  0.20923957685E+03  0.26821870046E+03  0.12508513167E+03 0.  0.
          5    1    3    3  502    0 -0.23896274953E+02  0.76532602267E+01 -0.14327135788E+01  0.25478018309E+02  0.41800000000E+01 0.  1.
         -5    1    3    3    0  502  0.16998990446E+02 -0.11930543466E+03  0.21067229043E+03  0.24274068215E+03  0.41800000000E+01 0.  1.
        -11    1    1    2    0    0 -0.34238820155E+02  0.14153919715E+02  0.32211725929E+02  0.49094047870E+02  0.00000000000E+00 0.  1.
         11    1    1    2    0    0  0.41136104662E+02  0.97498254719E+02  0.49204708480E+02  0.11670129441E+03  0.00000000000E+00 0. -1.
</event>
<event>
 7    1  0.2841804E-009  0.1384837E+03  0.7561462E-02  0.1215384E+00
         -1   -1    0    0    0  501 -0.00000000000E+00  0.00000000000E+00  0.16055147801E+03  0.16055147801E+03  0.00000000000E+00 0.  1.
          1   -1    0    0  501    0  0.00000000000E+00 -0.00000000000E+00 -0.25245245869E+03  0.25245245869E+03  0.00000000000E+00 0. -1.
         25    2    1    2    0    0 -0.22966018414E+02  0.93350564192E+02  0.95422918455E+02  0.18437668455E+03  0.12508981815E+03 0.  0.
          5    1    3    3  502    0  0.15186461320E+02  0.10967702761E+03  0.89117472904E+02  0.14219379512E+03  0.41800000000E+01 0.  1.
         -5    1    3    3    0  502 -0.38152479734E+02 -0.16326463421E+02  0.63054455513E+01  0.42182889437E+02  0.41800000000E+01 0.  1.
        -11    1    1    2    0    0  0.40245198055E+02 -0.13036016189E+02 -0.10078941966E+03  0.10930745995E+03  0.00000000000E+00 0.  1.
         11    1    1    2    0    0 -0.17279179641E+02 -0.80314548003E+02 -0.86534479471E+02  0.11931979219E+03  0.00000000000E+00 0. -1.
</event>
<event>
 7    1  0.2841804E-009  0.3021479E+03  0.7561462E-02  0.1084172E+00
          1   -1    0    0  501    0  0.00000000000E+00  0.00000000000E+00  0.12409924263E+04  0.12409924263E+04  0.00000000000E+00 0. -1.
         -1   -1    0    0    0  501 -0.00000000000E+00 -0.00000000000E+00 -0.79925613412E+02  0.79925613412E+02  0.00000000000E+00 0.  1.
         25    2    1    2    0    0  0.38489032945E+02 -0.28841992332E+03  0.48512598762E+03  0.57936326951E+03  0.12508843421E+03 0.  0.
          5    1    3    3  502    0 -0.29172196605E+02 -0.18631785402E+03  0.23955916764E+03  0.30491216273E+03  0.41800000000E+01 0.  1.
         -5    1    3    3    0  502  0.67661229550E+02 -0.10210206930E+03  0.24556681998E+03  0.27445110679E+03  0.41800000000E+01 0.  1.
        -11    1    1    2    0    0 -0.13539298084E+01  0.14335884341E+03  0.43358449940E+03  0.45667177406E+03  0.00000000000E+00 0. -1.
         11    1    1    2    0    0 -0.37135103137E+02  0.14506107992E+03  0.24235632583E+03  0.28488299609E+03  0.00000000000E+00 0.  1.
</event>
<event>
 7    1  0.2841804E-009  0.3720114E+03  0.7561462E-02  0.1053927E+00
         -2   -1    0    0    0  501 -0.00000000000E+00  0.00000000000E+00  0.17535123715E+03  0.17535123715E+03  0.00000000000E+00 0.  1.
          2   -1    0    0  501    0  0.00000000000E+00 -0.00000000000E+00 -0.82663854234E+03  0.82663854234E+03  0.00000000000E+00 0. -1.
         25    2    1    2    0    0  0.11996431536E+02 -0.36441060998E+03 -0.34585877626E+03  0.51788488567E+03  0.12508978640E+03 0.  0.
          5    1    3    3  502    0 -0.18272933834E+02 -0.33587759613E+03 -0.27033772389E+03  0.43156415172E+03  0.41800000000E+01 0.  1.
         -5    1    3    3    0  502  0.30269365370E+02 -0.28533013848E+02 -0.75521052375E+02  0.86320733957E+02  0.41800000000E+01 0.  1.
        -11    1    1    2    0    0 -0.21878030073E+02  0.22794122021E+03 -0.24240683351E+03  0.33346202332E+03  0.00000000000E+00 0.  1.
         11    1    1    2    0    0  0.98815985368E+01  0.13646938977E+03 -0.63021695429E+02  0.15064287049E+03  0.00000000000E+00 0. -1.
</event>
<event>
 7    1  0.2841804E-009  0.7556889E+02  0.7561462E-02  0.1342118E+00
          2   -1    0    0  501    0  0.00000000000E+00  0.00000000000E+00  0.23054816332E+03  0.23054816332E+03  0.00000000000E+00 0. -1.
         -2   -1    0    0    0  501 -0.00000000000E+00 -0.00000000000E+00 -0.54495943445E+02  0.54495943445E+02  0.00000000000E+00 0.  1.
         25    2    1    2    0    0 -0.17485188676E+02 -0.88534073187E+01  0.17252194184E+03  0.21399663096E+03  0.12508646212E+03 0.  0.
          5    1    3    3  502    0  0.26408067186E+02  0.20230849951E+02  0.15463777178E+03  0.15823080030E+03  0.41800000000E+01 0. -1.
         -5    1    3    3    0  502 -0.43893255862E+02 -0.29084257270E+02  0.17884170057E+02  0.55765830665E+02  0.41800000000E+01 0. -1.
        -11    1    1    2    0    0  0.11657004955E+02 -0.26504225232E+02  0.16029510483E+02  0.33095391310E+02  0.00000000000E+00 0.  1.
         11    1    1    2    0    0  0.58281837210E+01  0.35357632550E+02 -0.12499232450E+02  0.37952084487E+02  0.00000000000E+00 0. -1.
</event>
<event>
 7    1  0.2841804E-009  0.1057625E+03  0.7561462E-02  0.1268625E+00
          1   -1    0    0  501    0  0.00000000000E+00  0.00000000000E+00  0.33022023375E+03  0.33022023375E+03  0.00000000000E+00 0. -1.
         -1   -1    0    0    0  501 -0.00000000000E+00 -0.00000000000E+00 -0.35617579472E+02  0.35617579472E+02  0.00000000000E+00 0.  1.
         25    2    1    2    0    0 -0.16134501533E+02  0.27346936673E+01  0.18857141590E+03  0.22687893945E+03  0.12508826316E+03 0.  0.
          5    1    3    3  502    0 -0.57339917843E+02  0.37848008280E+02  0.80362418780E+02  0.10581081543E+03  0.41800000000E+01 0.  1.
         -5    1    3    3    0  502  0.41205416310E+02 -0.35113314613E+02  0.10820899713E+03  0.12106812403E+03  0.41800000000E+01 0.  1.
        -11    1    1    2    0    0  0.52083661705E+02 -0.53099159214E+01  0.74598516990E+02  0.91136390980E+02  0.00000000000E+00 0. -1.
         11    1    1    2    0    0 -0.35949160171E+02  0.25752222541E+01  0.31432721381E+02  0.47822482789E+02  0.00000000000E+00 0.  1.
</event>
<event>
 7    1  0.2841804E-009  0.1089545E+03  0.7561462E-02  0.1262518E+00
          4   -1    0    0  501    0  0.00000000000E+00  0.00000000000E+00  0.37573074095E+03  0.37573074095E+03  0.00000000000E+00 0. -1.
         -4   -1    0    0    0  501 -0.00000000000E+00 -0.00000000000E+00 -0.64865287040E+02  0.64865287040E+02  0.00000000000E+00 0.  1.
         25    2    1    2    0    0 -0.58268395222E+02 -0.43541698157E+02  0.29296099665E+03  0.32675461366E+03  0.12510534214E+03 0.  0.
          5    1    3    3  502    0 -0.74141750240E+02 -0.77234125686E+02  0.21178882583E+03  0.23734803232E+03  0.41800000000E+01 0.  1.
         -5    1    3    3    0  502  0.15873355017E+02  0.33692427529E+02  0.81172170819E+02  0.89406581345E+02  0.41800000000E+01 0.  1.
        -11    1    1    2    0    0  0.39652044231E+02  0.24254539866E+02  0.52471373217E+02  0.70098590022E+02  0.00000000000E+00 0. -1.
         11    1    1    2    0    0  0.18616350991E+02  0.19287158291E+02 -0.34566915958E+02  0.43742824303E+02  0.00000000000E+00 0.  1.
</event>
<event>
 7    1  0.2841804E-009  0.1727269E+03  0.7561462E-02  0.1175034E+00
          2   -1    0    0  501    0  0.00000000000E+00  0.00000000000E+00  0.50009648396E+03  0.50009648396E+03  0.00000000000E+00 0. -1.
         -2   -1    0    0    0  501 -0.00000000000E+00 -0.00000000000E+00 -0.75769782249E+02  0.75769782249E+02  0.00000000000E+00 0.  1.
         25    2    1    2    0    0  0.10781079750E+03  0.10175103160E+03  0.12848698721E+03  0.23266146743E+03  0.12508401999E+03 0.  0.
          5    1    3    3  502    0  0.65297803738E+02  0.12322557793E+03  0.67001591879E+02  0.15477413202E+03  0.41800000000E+01 0.  1.
         -5    1    3    3    0  502  0.42512993759E+02 -0.21474546329E+02  0.61485395331E+02  0.77887335411E+02  0.41800000000E+01 0.  1.
        -11    1    1    2    0    0 -0.37421736445E+02 -0.39576310630E+01  0.20954332309E+02  0.43071257757E+02  0.00000000000E+00 0.  1.
         11    1    1    2    0    0 -0.70389061052E+02 -0.97793400534E+02  0.27488538219E+03  0.30013354102E+03  0.00000000000E+00 0. -1.
</event>
<event>
 7    1  0.2841804E-009  0.1378637E+03  0.7561462E-02  0.1216233E+00
          1   -1    0    0  501    0  0.00000000000E+00  0.00000000000E+00  0.50543333780E+03  0.50543333780E+03  0.00000000000E+00 0. -1.
         -1   -1    0    0    0  501 -0.00000000000E+00 -0.00000000000E+00 -0.54347737936E+02  0.54347737936E+02  0.00000000000E+00 0.  1.
         25    2    1    2    0    0 -0.72508442310E+01 -0.12096959163E+03  0.18648638519E+03  0.25516694873E+03  0.12508710174E+03 0.  0.
          5    1    3    3  502    0 -0.30775219340E+02 -0.48478077359E+02  0.16663427602E+03  0.17630000697E+03  0.41800000000E+01 0. -1.
         -5    1    3    3    0  502  0.23524375109E+02 -0.72491514267E+02  0.19852109167E+02  0.78866941765E+02  0.41800000000E+01 0. -1.
        -11    1    1    2    0    0  0.29311270763E+02  0.13777566435E+02  0.24051738491E+02  0.40341765641E+02  0.00000000000E+00 0.  1.
         11    1    1    2    0    0 -0.22060426532E+02  0.10719202519E+03  0.24054747618E+03  0.26427236136E+03  0.00000000000E+00 0. -1.
</event>
<event>
 7    1  0.2841804E-009  0.1086734E+03  0.7561462E-02  0.1263046E+00
          1   -1    0    0  501    0  0.00000000000E+00  0.00000000000E+00  0.40013767357E+03  0.40013767357E+03  0.00000000000E+00 0. -1.
         -1   -1    0    0    0  501 -0.00000000000E+00 -0.00000000000E+00 -0.54209808894E+02  0.54209808894E+02  0.00000000000E+00 0.  1.
         25    2    1    2    0    0  0.80955933184E+02  0.14585823455E+02  0.26881490939E+03  0.30769340715E+03  0.12508864029E+03 0.  0.
          5    1    3    3  502    0  0.11297557403E+02  0.42976412762E+02  0.22241555244E+02  0.49867484765E+02  0.41800000000E+01 0.  1.
         -5    1    3    3    0  502  0.69658375781E+02 -0.28390589307E+02  0.24657335415E+03  0.25782592238E+03  0.41800000000E+01 0.  1.
        -11    1    1    2    0    0 -0.38595280342E+01  0.14477901525E+02 -0.16270624820E+02  0.22118743663E+02  0.00000000000E+00 0.  1.
         11    1    1    2    0    0 -0.77096405150E+02 -0.29063724980E+02  0.93383580107E+02  0.12453533165E+03  0.00000000000E+00 0. -1.
</event>
<event>
 7    1  0.2841804E-009  0.6055623E+02  0.7561462E-02  0.1395512E+00
          1   -1    0    0  501    0  0.00000000000E+00  0.00000000000E+00  0.58686306151E+03  0.58686306151E+03  0.00000000000E+00 0. -1.
         -1   -1    0    0    0  501 -0.00000000000E+00 -0.00000000000E+00 -0.25061669392E+02  0.25061669392E+02  0.00000000000E+00 0.  1.
         25    2    1    2    0    0 -0.12621801126E+02  0.47743504648E+02  0.36542781692E+03  0.38938886977E+03  0.12508976947E+03 0.  0.
          5    1    3    3  502    0  0.84434971982E+01 -0.15170164699E+01 -0.77920863947E+01  0.12320024119E+02  0.41800000000E+01 0. -1.
         -5    1    3    3    0  502 -0.21065298325E+02  0.49260521117E+02  0.37321990331E+03  0.37706884565E+03  0.41800000000E+01 0. -1.
        -11    1    1    2    0    0  0.22477338117E+02 -0.36635349950E+02  0.20210006259E+03  0.20661997699E+03  0.00000000000E+00 0. -1.
         11    1    1    2    0    0 -0.98555369908E+01 -0.11108154698E+02 -0.57264873850E+01  0.15915884139E+02  0.00000000000E+00 0.  1.
</event>
<event>
 7    1  0.2841804E-009  0.1816075E+03  0.7561462E-02  0.1166256E+00
          1   -1    0    0  501    0  0.00000000000E+00  0.00000000000E+00  0.29871512361E+03  0.29871512361E+03  0.00000000000E+00 0. -1.
         -1   -1    0    0    0  501 -0.00000000000E+00 -0.00000000000E+00 -0.14637901961E+03  0.14637901961E+03  0.00000000000E+00 0.  1.
         25    2    1    2    0    0 -0.65299966630E+02 -0.16863846561E+03  0.80942543373E+02  0.23431197752E+03  0.12508952696E+03 0.  0.
          5    1    3    3  502    0 -0.48549784902E+02 -0.14018008877E+03  0.17608912243E+01  0.14841870515E+03  0.41800000000E+01 0.  1.
         -5    1    3    3    0  502 -0.16750181728E+02 -0.28458376840E+02  0.79181652149E+02  0.85893272364E+02  0.41800000000E+01 0.  1.
        -11    1    1    2    0    0  0.18328116203E+02  0.30149932442E+02 -0.17770034971E+02  0.39505852891E+02  0.00000000000E+00 0.  1.
         11    1    1    2    0    0  0.46971850427E+02  0.13848853317E+03  0.89163595595E+02  0.17127631281E+03  0.00000000000E+00 0. -1.
</event>
<event>
 7    1  0.2841804E-009  0.8916999E+02  0.7561462E-02  0.1304874E+00
          1   -1    0    0  501    0  0.00000000000E+00  0.00000000000E+00  0.32862862642E+02  0.32862862642E+02  0.00000000000E+00 0. -1.
         -1   -1    0    0    0  501 -0.00000000000E+00 -0.00000000000E+00 -0.39969450827E+03  0.39969450827E+03  0.00000000000E+00 0.  1.
         25    2    1    2    0    0 -0.22950326576E+02 -0.90764494303E+01 -0.15373306122E+03  0.19972608357E+03  0.12509018716E+03 0.  0.
          5    1    3    3  502    0  0.32620115229E+02 -0.75265260276E+00 -0.13707893845E+03  0.14097072806E+03  0.41800000000E+01 0. -1.
         -5    1    3    3    0  502 -0.55570441805E+02 -0.83237968276E+01 -0.16654122765E+02  0.58755355510E+02  0.41800000000E+01 0. -1.
        -11    1    1    2    0    0  0.32079540103E+02  0.43181290495E+02 -0.90798262816E+02  0.10553693795E+03  0.00000000000E+00 0.  1.
         11    1    1    2    0    0 -0.91292135273E+01 -0.34104841065E+02 -0.12230032159E+03  0.12729434939E+03  0.00000000000E+00 0. -1.
</event>
<event>
 6    1  0.3848505E-009  0.1600458E+03  0.7561462E-02  0.1188645E+00
          1   -1    0    0  501    0  0.00000000000E+00  0.00000000000E+00  0.48828854938E+02  0.48828854938E+02  0.00000000000E+00 0. -1.
         -1   -1    0    0    0  501 -0.00000000000E+00 -0.00000000000E+00 -0.54818089682E+03  0.54818089682E+03  0.00000000000E+00 0.  1.
          5    1    1    2  502    0  0.55498663082E+02 -0.55125935981E+02 -0.13194916947E+03  0.15345040289E+03  0.41800000000E+01 0.  1.
         -5    1    1    2    0  502  0.48342612628E+02  0.91340302931E+02 -0.18110047762E+03  0.20855434431E+03  0.41800000000E+01 0.  1.
        -11    1    1    2    0    0 -0.20600872424E+02 -0.49885406516E+02 -0.10389670744E+03  0.11707892870E+03  0.00000000000E+00 0.  1.
         11    1    1    2    0    0 -0.83240403286E+02  0.13671039566E+02 -0.82405687351E+02  0.11792607587E+03  0.00000000000E+00 0. -1.
</event>
<event>
 7    1  0.2841804E-009  0.2028344E+03  0.7561462E-02  0.1147369E+00
          1   -1    0    0  501    0  0.00000000000E+00  0.00000000000E+00  0.18345110875E+04  0.18345110875E+04  0.00000000000E+00 0. -1.
         -1   -1    0    0    0  501 -0.00000000000E+00 -0.00000000000E+00 -0.23794010454E+02  0.23794010454E+02  0.00000000000E+00 0.  1.
         25    2    1    2    0    0  0.17549577317E+03 -0.16734335140E+01  0.11400379289E+04  0.11602310114E+04  0.12509178158E+03 0.  0.
          5    1    3    3  502    0  0.18430950549E+03  0.25916481719E+02  0.97345723595E+03  0.99109945034E+03  0.41800000000E+01 0.  1.
         -5    1    3    3    0  502 -0.88137323217E+01 -0.27589915233E+02  0.16658069292E+03  0.16913156108E+03  0.41800000000E+01 0.  1.
        -11    1    1    2    0    0 -0.44791059888E+02  0.33234559607E+02  0.14191985471E+03  0.15248613103E+03  0.00000000000E+00 0. -1.
         11    1    1    2    0    0 -0.13070471328E+03 -0.31561126093E+02  0.52875929343E+03  0.54558795546E+03  0.00000000000E+00 0.  1.
</event>
<event>
 7    1  0.2841804E-009  0.1137726E+03  0.7561462E-02  0.1253739E+00
         -2   -1    0    0    0  501 -0.00000000000E+00  0.00000000000E+00  0.15229403441E+02  0.15229403441E+02  0.00000000000E+00 0.  1.
          2   -1    0    0  501    0  0.00000000000E+00 -0.00000000000E+00 -0.12329156138E+04  0.12329156138E+04  0.00000000000E+00 0. -1.
         25    2    1    2    0    0 -0.41547496048E+02 -0.46812576889E+02 -0.89832577777E+03  0.90915216040E+03  0.12510330120E+03 0.  0.
          5    1    3    3  502    0 -0.33247453272E+02 -0.88650943940E+02 -0.68867890211E+03  0.69516939347E+03  0.41800000000E+01 0. -1.
         -5    1    3    3    0  502 -0.83000427762E+01  0.41838367051E+02 -0.20964687566E+03  0.21398276693E+03  0.41800000000E+01 0. -1.
        -11    1    1    2    0    0  0.38613730746E+02  0.62766604557E+02 -0.31301765544E+03  0.32157537136E+03  0.00000000000E+00 0. -1.
         11    1    1    2    0    0  0.29337653021E+01 -0.15954027668E+02 -0.63427771144E+01  0.17417485444E+02  0.00000000000E+00 0.  1.
</event>
<event>
 7    1  0.2841804E-009  0.1075908E+03  0.7561462E-02  0.1265097E+00
         -1   -1    0    0    0  501 -0.00000000000E+00  0.00000000000E+00  0.27753057162E+03  0.27753057162E+03  0.00000000000E+00 0.  1.
          1   -1    0    0  501    0  0.00000000000E+00 -0.00000000000E+00 -0.84199051134E+02  0.84199051134E+02  0.00000000000E+00 0. -1.
         25    2    1    2    0    0 -0.26865236789E+02 -0.26792626373E+02  0.23020456827E+03  0.26473265371E+03  0.12509855679E+03 0.  0.
          5    1    3    3  502    0  0.46196229927E+02 -0.24605502129E+02  0.61750383089E+02  0.81056181788E+02  0.41800000000E+01 0.  1.
         -5    1    3    3    0  502 -0.73061466716E+02 -0.21871242446E+01  0.16845418518E+03  0.18367647192E+03  0.41800000000E+01 0.  1.
        -11    1    1    2    0    0  0.52066846956E+01 -0.29077301058E+02 -0.15643120015E+02  0.33426130589E+02  0.00000000000E+00 0.  1.
         11    1    1    2    0    0  0.21658552093E+02  0.55869927431E+02 -0.21229927765E+02  0.63570838463E+02  0.00000000000E+00 0. -1.
</event>
<event>
 7    1  0.2841804E-009  0.1265490E+03  0.7561462E-02  0.1232668E+00
          1   -1    0    0  501    0  0.00000000000E+00  0.00000000000E+00  0.62157737325E+03  0.62157737325E+03  0.00000000000E+00 0. -1.
         -1   -1    0    0    0  501 -0.00000000000E+00 -0.00000000000E+00 -0.41077221862E+02  0.41077221862E+02  0.00000000000E+00 0.  1.
         25    2    1    2    0    0  0.66916835388E+02 -0.42441592634E+02  0.48855535156E+03  0.51050280876E+03  0.12509050552E+03 0.  0.
          5    1    3    3  502    0  0.58089741672E+02  0.25480946299E+02  0.12188705349E+03  0.13746862522E+03  0.41800000000E+01 0. -1.
         -5    1    3    3    0  502  0.88270937160E+01 -0.67922538933E+02  0.36666829807E+03  0.37303418354E+03  0.41800000000E+01 0. -1.
        -11    1    1    2    0    0 -0.71290443256E+02 -0.66690338928E+01  0.48961362918E+02  0.86741099667E+02  0.00000000000E+00 0.  1.
         11    1    1    2    0    0  0.43736078679E+01  0.49110626527E+02  0.42983436906E+02  0.65410686680E+02  0.00000000000E+00 0. -1.
</event>
<event>
 7    1  0.2841804E-009  0.1171413E+03  0.7561462E-02  0.1247889E+00
         -2   -1    0    0    0  501 -0.00000000000E+00  0.00000000000E+00  0.77287312301E+03  0.77287312301E+03  0.00000000000E+00 0.  1.
          2   -1    0    0  501    0  0.00000000000E+00 -0.00000000000E+00 -0.24487064409E+02  0.24487064409E+02  0.00000000000E+00 0. -1.
         25    2    1    2    0    0  0.53866144785E+02 -0.52832182043E+02  0.47553240190E+03  0.49746614485E+03  0.12509476009E+03 0.  0.
          5    1    3    3  502    0 -0.19101036693E+02  0.11935101479E+02  0.25805306716E+03  0.25906785621E+03  0.41800000000E+01 0.  1.
         -5    1    3    3    0  502  0.72967181478E+02 -0.64767283522E+02  0.21747933474E+03  0.23839828864E+03  0.41800000000E+01 0.  1.
        -11    1    1    2    0    0 -0.23948914460E+02 -0.22378607741E+02  0.14433574979E+03  0.14801067954E+03  0.00000000000E+00 0. -1.
         11    1    1    2    0    0 -0.29917230325E+02  0.75210789784E+02  0.12851790691E+03  0.15188336303E+03  0.00000000000E+00 0.  1.
</event>
<event>
 7    1  0.2841804E-009  0.1248743E+03  0.7561462E-02  0.1235266E+00
          1   -1    0    0  501    0  0.00000000000E+00  0.00000000000E+00  0.15947458162E+03  0.15947458162E+03  0.00000000000E+00 0. -1.
         -1   -1    0    0    0  501 -0.00000000000E+00 -0.00000000000E+00 -0.12234531622E+03  0.12234531622E+03  0.00000000000E+00 0.  1.
         25    2    1    2    0    0  0.80934805395E+02 -0.33522391340E+02  0.21198367984E+02  0.15417826435E+03  0.12508945978E+03 0.  0.
          5    1    3    3  502    0  0.10927527229E+03 -0.48715394953E+02  0.11164329452E+02  0.12023472665E+03  0.41800000000E+01 0.  1.
         -5    1    3    3    0  502 -0.28340466897E+02  0.15193003613E+02  0.10034038532E+02  0.33943537706E+02  0.41800000000E+01 0.  1.
        -11    1    1    2    0    0 -0.59189097290E+02  0.43723313767E+02 -0.27052569306E+02  0.78402288938E+02  0.00000000000E+00 0.  1.
         11    1    1    2    0    0 -0.21745708106E+02 -0.10200922427E+02  0.42983466730E+02  0.49239344548E+02  0.00000000000E+00 0. -1.
</event>
<event>
 7    1  0.2841804E-009  0.1260632E+03  0.7561462E-02  0.1233417E+00
         -1   -1    0    0    0  501 -0.00000000000E+00  0.00000000000E+00  0.43325302072E+03  0.43325302072E+03  0.00000000000E+00 0.  1.
          1   -1    0    0  501    0  0.00000000000E+00 -0.00000000000E+00 -0.97598414127E+02  0.97598414127E+02  0.00000000000E+00 0. -1.
         25    2    1    2    0    0  0.90065979775E+02 -0.31848622238E+02  0.36258865647E+03  0.39527712275E+03  0.12508898641E+03 0.  0.
          5    1    3    3  502    0 -0.22877080118E+02  0.13311381365E+02  0.25906269216E+02  0.37271448231E+02  0.41800000000E+01 0. -1.
         -5    1    3    3    0  502  0.11294305989E+03 -0.45160003603E+02  0.33668238725E+03  0.35800567452E+03  0.41800000000E+01 0. -1.
        -11    1    1    2    0    0 -0.99974771432E+01  0.20427432484E+02  0.29282637158E+02  0.37076979192E+02  0.00000000000E+00 0. -1.
         11    1    1    2    0    0 -0.80068502632E+02  0.11421189754E+02 -0.56216687029E+02  0.98497332906E+02  0.00000000000E+00 0.  1.
</event>
<event>
 7    1  0.2841804E-009  0.1243541E+03  0.7561462E-02  0.1236082E+00
          2   -1    0    0  501    0  0.00000000000E+00  0.00000000000E+00  0.58108729692E+03  0.58108729692E+03  0.00000000000E+00 0. -1.
         -2   -1    0    0    0  501 -0.00000000000E+00 -0.00000000000E+00 -0.33853678543E+02  0.33853678543E+02  0.00000000000E+00 0.  1.
         25    2    1    2    0    0 -0.64238378561E+02 -0.52051438033E+02  0.23035444283E+03  0.27485765940E+03  0.12509053570E+03 0.  0.
          5    1    3    3  502    0 -0.59861995984E+02  0.28547280720E+02  0.13002123851E+03  0.14601849425E+03  0.41800000000E+01 0.  1.
         -5    1    3    3    0  502 -0.43763825772E+01 -0.80598718753E+02  0.10033320432E+03  0.12883916516E+03  0.41800000000E+01 0.  1.
        -11    1    1    2    0    0  0.15879916367E+02  0.50618289374E+02  0.66477664643E+02  0.85050942730E+02  0.00000000000E+00 0.  1.
         11    1    1    2    0    0  0.48358462195E+02  0.14331486595E+01  0.25040151090E+03  0.25503237333E+03  0.00000000000E+00 0. -1.
</event>
<event>
 7    1  0.2841804E-009  0.1104938E+03  0.7561462E-02  0.1259658E+00
          2   -1    0    0  501    0  0.00000000000E+00  0.00000000000E+00  0.38912201599E+03  0.38912201599E+03  0.00000000000E+00 0. -1.
         -2   -1    0    0    0  501 -0.00000000000E+00 -0.00000000000E+00 -0.40208210887E+02  0.40208210887E+02  0.00000000000E+00 0.  1.
         25    2    1    2    0    0 -0.33307334112E+02  0.49164614477E+02  0.14256848074E+03  0.19874448034E+03  0.12508820464E+03 0.  0.
          5    1    3    3  502    0 -0.47276706814E+02 -0.22286106507E+02  0.19989832856E+02  0.56114377552E+02  0.41800000000E+01 0.  1.
         -5    1    3    3    0  502  0.13969372702E+02  0.71450720983E+02  0.12257864789E+03  0.14263010278E+03  0.41800000000E+01 0.  1.
        -11    1    1    2    0    0 -0.23760588054E+02 -0.73089397325E+01  0.98529425212E+02  0.10161709392E+03  0.00000000000E+00 0.  1.
         11    1    1    2    0    0  0.57067922167E+02 -0.41855674744E+02  0.10781589915E+03  0.12896865262E+03  0.00000000000E+00 0. -1.
</event>
<event>
 7    1  0.2841804E-009  0.1102462E+03  0.7561462E-02  0.1260115E+00
         -4   -1    0    0    0  501 -0.00000000000E+00  0.00000000000E+00  0.36429831260E+02  0.36429831260E+02  0.00000000000E+00 0. -1.
          4   -1    0    0  501    0  0.00000000000E+00 -0.00000000000E+00 -0.41160640258E+03  0.41160640258E+03  0.00000000000E+00 0.  1.
         25    2    1    2    0    0 -0.21686284449E+02  0.86513920214E+01 -0.28815091200E+03  0.31499810657E+03  0.12509083715E+03 0.  0.
          5    1    3    3  502    0 -0.14688829964E+02 -0.57908819451E+02 -0.12509832643E+03  0.13869483326E+03  0.41800000000E+01 0. -1.
         -5    1    3    3    0  502 -0.69974544854E+01  0.66560211472E+02 -0.16305258557E+03  0.17630327331E+03  0.41800000000E+01 0. -1.
        -11    1    1    2    0    0  0.50596745758E+02  0.18511873241E+02 -0.73489025107E+02  0.91122757550E+02  0.00000000000E+00 0.  1.
         11    1    1    2    0    0 -0.28910461309E+02 -0.27163265263E+02 -0.13536634210E+02  0.41915369718E+02  0.00000000000E+00 0. -1.
</event>
<event>
 7    1  0.2841804E-009  0.2071575E+03  0.7561462E-02  0.1143837E+00
         -3   -1    0    0    0  501 -0.00000000000E+00  0.00000000000E+00  0.31230612684E+02  0.31230612684E+02  0.00000000000E+00 0.  1.
          3   -1    0    0  501    0  0.00000000000E+00 -0.00000000000E+00 -0.16243781404E+04  0.16243781404E+04  0.00000000000E+00 0. -1.
         25    2    1    2    0    0 -0.82288414375E+02 -0.16929907007E+03 -0.10322834528E+04  0.10567312567E+04  0.12505304351E+03 0.  0.
          5    1    3    3  502    0 -0.28632924215E+02  0.74155978679E+00 -0.45271171312E+02  0.53734026575E+02  0.41800000000E+01 0. -1.
         -5    1    3    3    0  502 -0.53655490160E+02 -0.17004062986E+03 -0.98701228146E+03  0.10029972301E+04  0.41800000000E+01 0. -1.
        -11    1    1    2    0    0  0.89549202315E+02  0.88540270715E+02 -0.29061232971E+03  0.31672379979E+03  0.00000000000E+00 0.  1.
         11    1    1    2    0    0 -0.72607879394E+01  0.80758799357E+02 -0.27025174521E+03  0.28215369660E+03  0.00000000000E+00 0. -1.
</event>
<event>
 7    1  0.2841804E-009  0.9474296E+02  0.7561462E-02  0.1291756E+00
         -2   -1    0    0    0  501 -0.00000000000E+00  0.00000000000E+00  0.10555934083E+03  0.10555934083E+03  0.00000000000E+00 0.  1.
          2   -1    0    0  501    0  0.00000000000E+00 -0.00000000000E+00 -0.18305057723E+03  0.18305057723E+03  0.00000000000E+00 0. -1.
         25    2    1    2    0    0 -0.35839546664E+02  0.69094954563E+02 -0.80363963539E+02  0.16782629936E+03  0.12509482111E+03 0.  0.
          5    1    3    3  502    0 -0.58610979731E+02  0.63113044902E+02 -0.10338943501E+03  0.13463042395E+03  0.41800000000E+01 0. -1.
         -5    1    3    3    0  502  0.22771433067E+02  0.59819096604E+01  0.23025471473E+02  0.33195875401E+02  0.41800000000E+01 0. -1.
        -11    1    1    2    0    0  0.13835443711E+02 -0.12601373431E+02  0.43802993826E+02  0.47633143746E+02  0.00000000000E+00 0.  1.
         11    1    1    2    0    0  0.22004102953E+02 -0.56493581131E+02 -0.40930266691E+02  0.73150474963E+02  0.00000000000E+00 0. -1.
</event>
<event>
 7    1  0.2841804E-009  0.1322938E+03  0.7561462E-02  0.1224091E+00
         -1   -1    0    0    0  501 -0.00000000000E+00  0.00000000000E+00  0.33486601373E+02  0.33486601373E+02  0.00000000000E+00 0.  1.
          1   -1    0    0  501    0  0.00000000000E+00 -0.00000000000E+00 -0.75016917055E+03  0.75016917055E+03  0.00000000000E+00 0. -1.
         25    2    1    2    0    0 -0.87490757475E+02 -0.63035574787E+02 -0.48813942689E+03  0.51532124480E+03  0.12509104255E+03 0.  0.
          5    1    3    3  502    0  0.29277920360E+01 -0.49955790717E+02 -0.63556949726E+02  0.81000686730E+02  0.41800000000E+01 0.  1.
         -5    1    3    3    0  502 -0.90418549511E+02 -0.13079784069E+02 -0.42458247717E+03  0.43432055807E+03  0.41800000000E+01 0.  1.
        -11    1    1    2    0    0  0.84982290685E+01  0.39627864810E+02 -0.14673699843E+03  0.15223118693E+03  0.00000000000E+00 0. -1.
         11    1    1    2    0    0  0.78992528406E+02  0.23407709976E+02 -0.81806143855E+02  0.11610334019E+03  0.00000000000E+00 0.  1.
</event>
<event>
 7    1  0.2841804E-009  0.1107727E+03  0.7561462E-02  0.1259146E+00
          2   -1    0    0  501    0  0.00000000000E+00  0.00000000000E+00  0.94932847028E+03  0.94932847028E+03  0.00000000000E+00 0. -1.
         -2   -1    0    0    0  501 -0.00000000000E+00 -0.00000000000E+00 -0.13090554484E+02  0.13090554484E+02  0.00000000000E+00 0.  1.
         25    2    1    2    0    0  0.84786740576E+01 -0.21138773181E+02  0.52514674111E+03  0.54031885081E+03  0.12508647087E+03 0.  0.
          5    1    3    3  502    0 -0.46752152228E+02  0.26634586174E+02  0.21726782407E+03  0.22387037476E+03  0.41800000000E+01 0. -1.
         -5    1    3    3    0  502  0.55230826285E+02 -0.47773359356E+02  0.30787891704E+03  0.31644847605E+03  0.41800000000E+01 0. -1.
        -11    1    1    2    0    0  0.36266585103E+02 -0.12598591208E+02  0.13359651462E+03  0.13900366331E+03  0.00000000000E+00 0.  1.
         11    1    1    2    0    0 -0.44745259161E+02  0.33737364389E+02  0.27749466006E+03  0.28309651064E+03  0.00000000000E+00 0. -1.
</event>
<event>
 7    1  0.2841804E-009  0.7274183E+02  0.7561462E-02  0.1351010E+00
         -1   -1    0    0    0  501 -0.00000000000E+00  0.00000000000E+00  0.27585503120E+03  0.27585503120E+03  0.00000000000E+00 0.  1.
          1   -1    0    0  501    0  0.00000000000E+00 -0.00000000000E+00 -0.88003389699E+02  0.88003389699E+02  0.00000000000E+00 0. -1.
         25    2    1    2    0    0 -0.38061603322E+02  0.43078337545E+01  0.22922311602E+03  0.26392007480E+03  0.12507328206E+03 0.  0.
          5    1    3    3  502    0 -0.56203580287E+02 -0.31561766115E+02  0.20895065736E+03  0.21870719496E+03  0.41800000000E+01 0.  1.
         -5    1    3    3    0  502  0.18141976965E+02  0.35869599870E+02  0.20272458659E+02  0.45212879837E+02  0.41800000000E+01 0.  1.
        -11    1    1    2    0    0  0.18211169296E+02  0.45002213717E+01  0.24340716070E+02  0.30730589619E+02  0.00000000000E+00 0.  1.
         11    1    1    2    0    0  0.19850434026E+02 -0.88080551262E+01 -0.65712190585E+02  0.69207756484E+02  0.00000000000E+00 0. -1.
</event>
<event>
 7    1  0.2841804E-009  0.1062226E+03  0.7561462E-02  0.1267729E+00
         -3   -1    0    0    0  501 -0.00000000000E+00  0.00000000000E+00  0.82527835584E+02  0.82527835584E+02  0.00000000000E+00 0.  1.
          3   -1    0    0  501    0  0.00000000000E+00 -0.00000000000E+00 -0.16897731803E+03  0.16897731803E+03  0.00000000000E+00 0. -1.
         25    2    1    2    0    0  0.47785783760E+02  0.44286055418E+01 -0.55735966563E+02  0.14510824027E+03  0.12508720858E+03 0.  0.
          5    1    3    3  502    0  0.86631761082E+02  0.24398789480E+02 -0.37559025155E+02  0.97614116432E+02  0.41800000000E+01 0.  1.
         -5    1    3    3    0  502 -0.38845977321E+02 -0.19970183938E+02 -0.18176941408E+02  0.47494123842E+02  0.41800000000E+01 0.  1.
        -11    1    1    2    0    0  0.44586843326E+01 -0.22690082929E+02  0.20567105305E+02  0.30947141224E+02  0.00000000000E+00 0.  1.
         11    1    1    2    0    0 -0.52244468093E+02  0.18261477387E+02 -0.51280621185E+02  0.75449772112E+02  0.00000000000E+00 0. -1.
</event>
<event>
 7    1  0.2841804E-009  0.9372902E+02  0.7561462E-02  0.1294065E+00
          1   -1    0    0  501    0  0.00000000000E+00  0.00000000000E+00  0.80719342354E+03  0.80719342354E+03  0.00000000000E+00 0. -1.
         -1   -1    0    0    0  501 -0.00000000000E+00 -0.00000000000E+00 -0.30601829164E+02  0.30601829164E+02  0.00000000000E+00 0.  1.
         25    2    1    2    0    0  0.34649407036E+02 -0.27549651225E+02  0.69407291856E+03  0.70664250187E+03  0.12508734743E+03 0.  0.
          5    1    3    3  502    0 -0.16546822800E+02 -0.38963547637E+02  0.57365416573E+03  0.57522911057E+03  0.41800000000E+01 0. -1.
         -5    1    3    3    0  502  0.51196229836E+02  0.11413896413E+02  0.12041875283E+03  0.13141339130E+03  0.41800000000E+01 0. -1.
        -11    1    1    2    0    0  0.25857261728E+02  0.16830882548E+02  0.34956973308E+01  0.31049903240E+02  0.00000000000E+00 0.  1.
         11    1    1    2    0    0 -0.60506668764E+02  0.10718768676E+02  0.79022978492E+02  0.10010284760E+03  0.00000000000E+00 0. -1.
</event>
<event>
 7    1  0.2841804E-009  0.6641036E+02  0.7561462E-02  0.1372743E+00
          2   -1    0    0  501    0  0.00000000000E+00  0.00000000000E+00  0.18642266274E+03  0.18642266274E+03  0.00000000000E+00 0. -1.
         -2   -1    0    0    0  501 -0.00000000000E+00 -0.00000000000E+00 -0.10265249877E+03  0.10265249877E+03  0.00000000000E+00 0.  1.
         25    2    1    2    0    0  0.35087068396E+01  0.39991345687E+02 -0.33400860500E+02  0.13555386827E+03  0.12509042717E+03 0.  0.
          5    1    3    3  502    0  0.25014494250E+02  0.47217910133E+02  0.34566913705E+02  0.63777738146E+02  0.41800000000E+01 0. -1.
         -5    1    3    3    0  502 -0.21505787410E+02 -0.72265644460E+01 -0.67967774205E+02  0.71776130129E+02  0.41800000000E+01 0. -1.
        -11    1    1    2    0    0 -0.19615128335E+02 -0.97825203397E+01  0.11725571023E+03  0.11928684984E+03  0.00000000000E+00 0. -1.
         11    1    1    2    0    0  0.16106421496E+02 -0.30208825348E+02 -0.84685759537E-01  0.34234443386E+02  0.00000000000E+00 0.  1.
</event>
<event>
 7    1  0.2841804E-009  0.9192383E+02  0.7561462E-02  0.1298259E+00
         -2   -1    0    0    0  501 -0.00000000000E+00  0.00000000000E+00  0.15765809838E+02  0.15765809838E+02  0.00000000000E+00 0. -1.
          2   -1    0    0  501    0  0.00000000000E+00 -0.00000000000E+00 -0.88647393333E+03  0.88647393333E+03  0.00000000000E+00 0.  1.
         25    2    1    2    0    0  0.63857049442E+01 -0.47928065492E+02 -0.51778962847E+03  0.53487443689E+03  0.12508671871E+03 0.  0.
          5    1    3    3  502    0  0.25664084522E+02  0.72010654300E+01 -0.42021337456E+03  0.42107867808E+03  0.41800000000E+01 0.  1.
         -5    1    3    3    0  502 -0.19278379577E+02 -0.55129130922E+02 -0.97576253919E+02  0.11379575881E+03  0.41800000000E+01 0.  1.
        -11    1    1    2    0    0  0.31873721665E+02  0.50774026417E+02 -0.26032011453E+03  0.26713385768E+03  0.00000000000E+00 0.  1.
         11    1    1    2    0    0 -0.38259426609E+02 -0.28459609252E+01 -0.92598380484E+02  0.10023144859E+03  0.00000000000E+00 0. -1.
</event>
<event>
 7    1  0.2841804E-009  0.1620793E+03  0.7561462E-02  0.1186369E+00
          1   -1    0    0  501    0  0.00000000000E+00  0.00000000000E+00  0.35015247103E+03  0.35015247103E+03  0.00000000000E+00 0. -1.
         -1   -1    0    0    0  501 -0.00000000000E+00 -0.00000000000E+00 -0.86324098563E+02  0.86324098563E+02  0.00000000000E+00 0.  1.
         25    2    1    2    0    0  0.71906708941E+02  0.11366891466E+03  0.16009940673E+03  0.24366263943E+03  0.12509382425E+03 0.  0.
          5    1    3    3  502    0 -0.26485788140E+02 -0.44004922253E+01  0.40968275335E+02  0.49160281622E+02  0.41800000000E+01 0. -1.
         -5    1    3    3    0  502  0.98392497082E+02  0.11806940688E+03  0.11913113140E+03  0.19450235781E+03  0.41800000000E+01 0. -1.
        -11    1    1    2    0    0 -0.62227308948E+02 -0.52818282116E+02  0.12273369415E+02  0.82538745455E+02  0.00000000000E+00 0.  1.
         11    1    1    2    0    0 -0.96793999933E+01 -0.60850632541E+02  0.91455596318E+02  0.11027518471E+03  0.00000000000E+00 0. -1.
</event>
<event>
 7    1  0.2841804E-009  0.1692562E+03  0.7561462E-02  0.1178626E+00
          1   -1    0    0  501    0  0.00000000000E+00  0.00000000000E+00  0.40216075263E+03  0.40216075263E+03  0.00000000000E+00 0. -1.
         -1   -1    0    0    0  501 -0.00000000000E+00 -0.00000000000E+00 -0.96695697945E+02  0.96695697945E+02  0.00000000000E+00 0.  1.
         25    2    1    2    0    0 -0.15558043911E+03  0.16024260611E+02  0.94577025336E+02  0.22148038132E+03  0.12508675241E+03 0.  0.
          5    1    3    3  502    0 -0.56247320736E+01  0.41779609153E+01 -0.26885144313E+02  0.28095842273E+02  0.41800000000E+01 0.  1.
         -5    1    3    3    0  502 -0.14995570703E+03  0.11846299695E+02  0.12146216965E+03  0.19338453905E+03  0.41800000000E+01 0.  1.
        -11    1    1    2    0    0  0.10550910030E+03 -0.52572577690E+02  0.14575482306E+03  0.18745803428E+03  0.00000000000E+00 0.  1.
         11    1    1    2    0    0  0.50071338805E+02  0.36548317079E+02  0.65133206285E+02  0.89918034965E+02  0.00000000000E+00 0. -1.
</event>
<event>
 7    1  0.2841804E-009  0.1097851E+03  0.7561462E-02  0.1260968E+00
         -2   -1    0    0    0  501 -0.00000000000E+00  0.00000000000E+00  0.81459013265E+02  0.81459013265E+02  0.00000000000E+00 0.  1.
          2   -1    0    0  501    0  0.00000000000E+00 -0.00000000000E+00 -0.48156943722E+03  0.48156943722E+03  0.00000000000E+00 0. -1.
         25    2    1    2    0    0  0.71168353756E+02  0.54332382560E+02 -0.11809403464E+02  0.15429188563E+03  0.12509828771E+03 0.  0.
          5    1    3    3  502    0  0.43402882093E+02  0.66343842911E+02 -0.58419470040E+02  0.98567857570E+02  0.41800000000E+01 0. -1.
         -5    1    3    3    0  502  0.27765471663E+02 -0.12011460351E+02  0.46610066576E+02  0.55724028055E+02  0.41800000000E+01 0. -1.
        -11    1    1    2    0    0 -0.71266518208E+02 -0.66499135447E+02 -0.38343835936E+03  0.39563370314E+03  0.00000000000E+00 0.  1.
         11    1    1    2    0    0  0.98164451707E-01  0.12166752887E+02 -0.48626611395E+01  0.13102861727E+02  0.00000000000E+00 0. -1.
</event>
<event>
 7    1  0.2841804E-009  0.1928647E+03  0.7561462E-02  0.1155903E+00
         -1   -1    0    0    0  501 -0.00000000000E+00  0.00000000000E+00  0.24588084182E+03  0.24588084182E+03  0.00000000000E+00 0.  1.
          1   -1    0    0  501    0  0.00000000000E+00 -0.00000000000E+00 -0.22261112317E+03  0.22261112317E+03  0.00000000000E+00 0. -1.
         25    2    1    2    0    0  0.17108047662E+03  0.46390143663E+02  0.11872745994E+03  0.24731700052E+03  0.12509561980E+03 0.  0.
          5    1    3    3  502    0 -0.11125589733E+02  0.16209226292E+02  0.43372030300E+02  0.47802962003E+02  0.41800000000E+01 0.  1.
         -5    1    3    3    0  502  0.18220606636E+03  0.30180917371E+02  0.75355429643E+02  0.19951403852E+03  0.41800000000E+01 0.  1.
        -11    1    1    2    0    0 -0.41025507342E+02 -0.27703165934E+02  0.12572724582E+02  0.51074759508E+02  0.00000000000E+00 0.  1.
         11    1    1    2    0    0 -0.13005496928E+03 -0.18686977728E+02 -0.10803046587E+03  0.17010020496E+03  0.00000000000E+00 0. -1.
</event>
<event>
 7    1  0.2841804E-009  0.1189942E+03  0.7561462E-02  0.1244766E+00
         -1   -1    0    0    0  501 -0.00000000000E+00  0.00000000000E+00  0.25009616092E+03  0.25009616092E+03  0.00000000000E+00 0.  1.
          1   -1    0    0  501    0  0.00000000000E+00 -0.00000000000E+00 -0.96851811359E+02  0.96851811359E+02  0.00000000000E+00 0. -1.
         25    2    1    2    0    0 -0.48983797028E+02  0.37656708648E+02  0.18594387484E+03  0.23246575112E+03  0.12509100998E+03 0.  0.
          5    1    3    3  502    0  0.17010285143E+02 -0.34582931916E+02  0.33293941158E+02  0.51100762209E+02  0.41800000000E+01 0.  1.
         -5    1    3    3    0  502 -0.65994082171E+02  0.72239640564E+02  0.15264993368E+03  0.18136498891E+03  0.41800000000E+01 0.  1.
        -11    1    1    2    0    0 -0.53418693051E+01 -0.46013635659E+02 -0.37090837258E+02  0.59342400042E+02  0.00000000000E+00 0. -1.
         11    1    1    2    0    0  0.54325666333E+02  0.83569270108E+01  0.43913119803E+01  0.55139821115E+02  0.00000000000E+00 0.  1.
</event>
<event>
 7    1  0.2841804E-009  0.1015091E+03  0.7561462E-02  0.1277154E+00
          3   -1    0    0  501    0  0.00000000000E+00  0.00000000000E+00  0.76873919893E+03  0.76873919893E+03  0.00000000000E+00 0. -1.
         -3   -1    0    0    0  501 -0.00000000000E+00 -0.00000000000E+00 -0.16192776657E+02  0.16192776657E+02  0.00000000000E+00 0.  1.
         25    2    1    2    0    0 -0.71602103024E+01 -0.16222682930E+02  0.58837036285E+03  0.60178110129E+03  0.12508543458E+03 0.  0.
          5    1    3    3  502    0  0.71670824710E+00  0.53023938859E+02  0.32446535645E+03  0.32879673310E+03  0.41800000000E+01 0. -1.
         -5    1    3    3    0  502 -0.78769185495E+01 -0.69246621789E+02  0.26390500640E+03  0.27298436819E+03  0.41800000000E+01 0. -1.
        -11    1    1    2    0    0  0.26359884752E+02 -0.23865054974E+02  0.88660538643E+02  0.95525260981E+02  0.00000000000E+00 0.  1.
         11    1    1    2    0    0 -0.19199674450E+02  0.40087737904E+02  0.75515520787E+02  0.87625613316E+02  0.00000000000E+00 0. -1.
</event>
<event>
 7    1  0.2841804E-009  0.8029155E+02  0.7561462E-02  0.1328226E+00
         -1   -1    0    0    0  501 -0.00000000000E+00  0.00000000000E+00  0.16425686999E+03  0.16425686999E+03  0.00000000000E+00 0.  1.
          1   -1    0    0  501    0  0.00000000000E+00 -0.00000000000E+00 -0.95446672713E+02  0.95446672713E+02  0.00000000000E+00 0. -1.
         25    2    1    2    0    0 -0.90490061073E+01  0.60157709868E+02  0.19549456333E+02  0.14046427832E+03  0.12508875918E+03 0.  0.
          5    1    3    3  502    0 -0.38199079294E+02  0.32092055789E+02 -0.42901497617E+02  0.65932394173E+02  0.41800000000E+01 0. -1.
         -5    1    3    3    0  502  0.29150073187E+02  0.28065654079E+02  0.62450953950E+02  0.74531884149E+02  0.41800000000E+01 0. -1.
        -11    1    1    2    0    0  0.20312796584E+02 -0.21524849780E+02  0.68511114628E+02  0.74630434078E+02  0.00000000000E+00 0.  1.
         11    1    1    2    0    0 -0.11263790477E+02 -0.38632860088E+02 -0.19250373680E+02  0.44608830306E+02  0.00000000000E+00 0. -1.
</event>
<event>
 7    1  0.2841804E-009  0.3273575E+03  0.7561462E-02  0.1072312E+00
          2   -1    0    0  501    0  0.00000000000E+00  0.00000000000E+00  0.96822169113E+03  0.96822169113E+03  0.00000000000E+00 0. -1.
         -2   -1    0    0    0  501 -0.00000000000E+00 -0.00000000000E+00 -0.16206324717E+03  0.16206324717E+03  0.00000000000E+00 0.  1.
         25    2    1    2    0    0  0.22932911037E+03 -0.22226291973E+03  0.11216590528E+03  0.36086153434E+03  0.12508880967E+03 0.  0.
          5    1    3    3  502    0  0.23417187249E+03 -0.18870648575E+03  0.12310700088E+03  0.32499139942E+03  0.41800000000E+01 0. -1.
         -5    1    3    3    0  502 -0.48427621147E+01 -0.33556433981E+02 -0.10941095600E+02  0.35870134922E+02  0.41800000000E+01 0. -1.
        -11    1    1    2    0    0 -0.77968803425E+02  0.64962547027E+02  0.32729295645E+03  0.34266593961E+03  0.00000000000E+00 0.  1.
         11    1    1    2    0    0 -0.15136030695E+03  0.15730037270E+03  0.36669958223E+03  0.42675746435E+03  0.00000000000E+00 0. -1.
</event>
<event>
 6    1  0.2841804E-009  0.1606730E+03  0.7561462E-02  0.1187939E+00
         -1   -1    0    0    0  501 -0.00000000000E+00  0.00000000000E+00  0.39344575769E+03  0.39344575769E+03  0.00000000000E+00 0.  1.
          1   -1    0    0  501    0  0.00000000000E+00 -0.00000000000E+00 -0.12206577802E+03  0.12206577802E+03  0.00000000000E+00 0. -1.
          5    1    1    2  502    0  0.70403893962E+01 -0.39083115697E+02  0.15149410800E+03  0.15666842111E+03  0.41800000000E+01 0.  1.
         -5    1    1    2    0  502 -0.12069245955E+03 -0.45825570392E+02  0.13721796269E+03  0.18844865184E+03  0.41800000000E+01 0.  1.
        -11    1    1    2    0    0  0.11445957196E+03  0.63637432953E+02 -0.42263934565E+02  0.13761161524E+03  0.00000000000E+00 0.  1.
         11    1    1    2    0    0 -0.80750180220E+00  0.21271253136E+02  0.24931843545E+02  0.32782847522E+02  0.00000000000E+00 0. -1.
</event>
<event>
 7    1  0.2841804E-009  0.9844980E+02  0.7561462E-02  0.1283590E+00
         -1   -1    0    0    0  501 -0.00000000000E+00  0.00000000000E+00  0.15520015936E+03  0.15520015936E+03  0.00000000000E+00 0.  1.
          1   -1    0    0  501    0  0.00000000000E+00 -0.00000000000E+00 -0.10615463599E+03  0.10615463599E+03  0.00000000000E+00 0. -1.
         25    2    1    2    0    0 -0.56460711764E+02  0.13964148720E+02 -0.81409104029E+01  0.13819033004E+03  0.12508990156E+03 0.  0.
          5    1    3    3  502    0  0.38516291971E+02 -0.20598781549E+01 -0.14862151906E+02  0.41546405434E+02  0.41800000000E+01 0.  1.
         -5    1    3    3    0  502 -0.94977003735E+02  0.16024026875E+02  0.67212415035E+01  0.96643924605E+02  0.41800000000E+01 0.  1.
        -11    1    1    2    0    0  0.44404560871E+02 -0.19412451207E+02 -0.14249357031E+02  0.50513883872E+02  0.00000000000E+00 0. -1.
         11    1    1    2    0    0  0.12056150893E+02  0.54483024867E+01  0.71435790806E+02  0.72650581432E+02  0.00000000000E+00 0.  1.
</event>
<event>
 7    1  0.2841804E-009  0.1345790E+03  0.7561462E-02  0.1220815E+00
         -2   -1    0    0    0  501 -0.00000000000E+00  0.00000000000E+00  0.41058854768E+02  0.41058854768E+02  0.00000000000E+00 0. -1.
          2   -1    0    0  501    0  0.00000000000E+00 -0.00000000000E+00 -0.50419459926E+03  0.50419459926E+03  0.00000000000E+00 0.  1.
         25    2    1    2    0    0 -0.63318363895E+02 -0.68686411227E+02 -0.24086736973E+03  0.28703953897E+03  0.12509024277E+03 0.  0.
          5    1    3    3  502    0  0.11590444849E+01  0.31436502486E+02 -0.24737629489E+02  0.40237044939E+02  0.41800000000E+01 0. -1.
         -5    1    3    3    0  502 -0.64477408380E+02 -0.10012291371E+03 -0.21612974024E+03  0.24680249403E+03  0.41800000000E+01 0. -1.
        -11    1    1    2    0    0  0.43734381068E+02 -0.31081526165E+01 -0.14263191105E+03  0.14921869437E+03  0.00000000000E+00 0.  1.
         11    1    1    2    0    0  0.19583982827E+02  0.71794563844E+02 -0.79636463714E+02  0.10899522069E+03  0.00000000000E+00 0. -1.
</event>
<event>
 7    1  0.2841804E-009  0.1117366E+03  0.7561462E-02  0.1257387E+00
          3   -1    0    0  501    0  0.00000000000E+00  0.00000000000E+00  0.98474803082E+02  0.98474803082E+02  0.00000000000E+00 0. -1.
         -3   -1    0    0    0  501 -0.00000000000E+00 -0.00000000000E+00 -0.13508792516E+03  0.13508792516E+03  0.00000000000E+00 0.  1.
         25    2    1    2    0    0 -0.19219852811E+02  0.36427225328E+02 -0.21904581115E+02  0.13350465568E+03  0.12508931580E+03 0.  0.
          5    1    3    3  502    0  0.21844533759E+02 -0.35330381568E+02  0.12911449577E+02  0.43698941029E+02  0.41800000000E+01 0. -1.
         -5    1    3    3    0  502 -0.41064386569E+02  0.71757606896E+02 -0.34816030692E+02  0.89805714656E+02  0.41800000000E+01 0. -1.
        -11    1    1    2    0    0  0.54488456527E+02 -0.11324047601E+02 -0.94561073250E+01  0.56450366823E+02  0.00000000000E+00 0.  1.
         11    1    1    2    0    0 -0.35268603716E+02 -0.25103177727E+02 -0.52524336351E+01  0.43607705732E+02  0.00000000000E+00 0. -1.
</event>
<event>
 7    1  0.2841804E-009  0.1118869E+03  0.7561462E-02  0.1257115E+00
          2   -1    0    0  501    0  0.00000000000E+00  0.00000000000E+00  0.81613969783E+03  0.81613969783E+03  0.00000000000E+00 0.  1.
         -2   -1    0    0    0  501 -0.00000000000E+00 -0.00000000000E+00 -0.22573547986E+02  0.22573547986E+02  0.00000000000E+00 0. -1.
         25    2    1    2    0    0 -0.61121541787E+02 -0.40701998028E+02  0.55286973711E+03  0.57157986642E+03  0.12508437940E+03 0.  0.
          5    1    3    3  502    0 -0.87534467756E+01 -0.59251428656E+02  0.11087493929E+03  0.12608758540E+03  0.41800000000E+01 0. -1.
         -5    1    3    3    0  502 -0.52368095011E+02  0.18549430628E+02  0.44199479782E+03  0.44549228102E+03  0.41800000000E+01 0. -1.
        -11    1    1    2    0    0  0.54875337909E+02  0.63764933590E+02  0.21995066911E+03  0.23549005565E+03  0.00000000000E+00 0.  1.
         11    1    1    2    0    0  0.62462038775E+01 -0.23062935562E+02  0.20745743625E+02  0.31643323753E+02  0.00000000000E+00 0. -1.
</event>
<event>
 7    1  0.2841804E-009  0.1281322E+03  0.7561462E-02  0.1230254E+00
          3   -1    0    0  501    0  0.00000000000E+00  0.00000000000E+00  0.17016059993E+03  0.17016059993E+03  0.00000000000E+00 0. -1.
         -3   -1    0    0    0  501 -0.00000000000E+00 -0.00000000000E+00 -0.17842692877E+03  0.17842692877E+03  0.00000000000E+00 0.  1.
         25    2    1    2    0    0 -0.10091256185E+03 -0.38634963629E+02 -0.83762073964E+02  0.18530989908E+03  0.12509063957E+03 0.  0.
          5    1    3    3  502    0 -0.66127154580E+02 -0.51482853139E+02 -0.11097335727E+03  0.13912527867E+03  0.41800000000E+01 0. -1.
         -5    1    3    3    0  502 -0.34785407269E+02  0.12847889510E+02  0.27211283305E+02  0.46184620415E+02  0.41800000000E+01 0. -1.
        -11    1    1    2    0    0  0.79305708031E+02 -0.11791524355E+02  0.72885978045E+02  0.10835497759E+03  0.00000000000E+00 0.  1.
         11    1    1    2    0    0  0.21606853818E+02  0.50426487984E+02  0.26097670765E+01  0.54922652035E+02  0.00000000000E+00 0. -1.
</event>
<event>
 7    1  0.2841804E-009  0.1198611E+03  0.7561462E-02  0.1243326E+00
         -2   -1    0    0    0  501 -0.00000000000E+00  0.00000000000E+00  0.10901129529E+02  0.10901129529E+02  0.00000000000E+00 0.  1.
          2   -1    0    0  501    0  0.00000000000E+00 -0.00000000000E+00 -0.20181011804E+04  0.20181011804E+04  0.00000000000E+00 0. -1.
         25    2    1    2    0    0 -0.83786418050E+02  0.22124582309E+02 -0.14502720223E+04  0.14582338443E+04  0.12508934797E+03 0.  0.
          5    1    3    3  502    0 -0.85270987192E+02  0.42069914280E+02 -0.14087033079E+04  0.14119148349E+04  0.41800000000E+01 0. -1.
         -5    1    3    3    0  502  0.14845691424E+01 -0.19945331972E+02 -0.41568714363E+02  0.46319009346E+02  0.41800000000E+01 0. -1.
        -11    1    1    2    0    0  0.15845391486E+02  0.33009928167E+02 -0.13602066450E+03  0.14086288709E+03  0.00000000000E+00 0.  1.
         11    1    1    2    0    0  0.67941026564E+02 -0.55134510475E+02 -0.42090736412E+03  0.42990557860E+03  0.00000000000E+00 0. -1.
</event>
<event>
 7    1  0.2841804E-009  0.1337931E+03  0.7561462E-02  0.1221934E+00
         -2   -1    0    0    0  501 -0.00000000000E+00  0.00000000000E+00  0.23696288856E+02  0.23696288856E+02  0.00000000000E+00 0.  1.
          2   -1    0    0  501    0  0.00000000000E+00 -0.00000000000E+00 -0.18864431374E+04  0.18864431374E+04  0.00000000000E+00 0. -1.
         25    2    1    2    0    0 -0.10174767486E+03 -0.60653965206E+02 -0.15775976204E+04  0.15869765385E+04  0.12509511901E+03 0.  0.
          5    1    3    3  502    0 -0.72730237852E+02 -0.42867681691E+02 -0.14970406677E+04  0.14994250761E+04  0.41800000000E+01 0. -1.
         -5    1    3    3    0  502 -0.29017437007E+02 -0.17786283515E+02 -0.80556952744E+02  0.87551462393E+02  0.41800000000E+01 0. -1.
        -11    1    1    2    0    0  0.95252576470E+02  0.78593882469E+01 -0.14931060593E+03  0.17728079521E+03  0.00000000000E+00 0.  1.
         11    1    1    2    0    0  0.64950983887E+01  0.52794576959E+02 -0.13583862216E+03  0.14588209256E+03  0.00000000000E+00 0. -1.
</event>
<event>
 7    1  0.2841804E-009  0.8967512E+02  0.7561462E-02  0.1303640E+00
          2   -1    0    0  501    0  0.00000000000E+00  0.00000000000E+00  0.17745141846E+02  0.17745141846E+02  0.00000000000E+00 0.  1.
         -2   -1    0    0    0  501 -0.00000000000E+00 -0.00000000000E+00 -0.90302210000E+03  0.90302210000E+03  0.00000000000E+00 0. -1.
         25    2    1    2    0    0  0.43803296586E+02 -0.23581738252E+02 -0.64307988244E+03  0.65702041660E+03  0.12509702419E+03 0.  0.
          5    1    3    3  502    0  0.53240133912E+02 -0.10580791497E+01 -0.62256897312E+03  0.62485616751E+03  0.41800000000E+01 0.  1.
         -5    1    3    3    0  502 -0.94368373259E+01 -0.22523659103E+02 -0.20510909320E+02  0.32164249086E+02  0.41800000000E+01 0.  1.
        -11    1    1    2    0    0  0.19495018936E+02 -0.17086556102E+02 -0.94497800783E+02  0.97988981603E+02  0.00000000000E+00 0. -1.
         11    1    1    2    0    0 -0.63298315522E+02  0.40668294355E+02 -0.14769927493E+03  0.16575784364E+03  0.00000000000E+00 0.  1.
</event>
<event>
 7    1  0.2841804E-009  0.1055331E+03  0.7561462E-02  0.1269073E+00
         -2   -1    0    0    0  501 -0.00000000000E+00  0.00000000000E+00  0.16078924671E+02  0.16078924671E+02  0.00000000000E+00 0.  1.
          2   -1    0    0  501    0  0.00000000000E+00 -0.00000000000E+00 -0.78873868207E+03  0.78873868207E+03  0.00000000000E+00 0. -1.
         25    2    1    2    0    0 -0.19832709608E+02 -0.18473630299E+02 -0.53435571427E+03  0.54947050318E+03  0.12508874090E+03 0.  0.
          5    1    3    3  502    0 -0.16837401188E+02 -0.68194559539E+02 -0.39948015541E+03  0.40563020473E+03  0.41800000000E+01 0.  1.
         -5    1    3    3    0  502 -0.29953084195E+01  0.49720929239E+02 -0.13487555887E+03  0.14384029844E+03  0.41800000000E+01 0.  1.
        -11    1    1    2    0    0  0.49389121443E+02 -0.91828343637E+01 -0.11289370521E+03  0.12356617028E+03  0.00000000000E+00 0. -1.
         11    1    1    2    0    0 -0.29556411835E+02  0.27656464663E+02 -0.12541033792E+03  0.13178093328E+03  0.00000000000E+00 0.  1.
</event>
<event>
 7    1  0.2841804E-009  0.9653762E+02  0.7561462E-02  0.1287750E+00
         -2   -1    0    0    0  501 -0.00000000000E+00  0.00000000000E+00  0.76292071986E+02  0.76292071986E+02  0.00000000000E+00 0. -1.
          2   -1    0    0  501    0  0.00000000000E+00 -0.00000000000E+00 -0.18506292546E+03  0.18506292546E+03  0.00000000000E+00 0.  1.
         25    2    1    2    0    0 -0.24924347171E+02  0.36390387165E+02 -0.82527695466E+02  0.15621752397E+03  0.12509041097E+03 0.  0.
          5    1    3    3  502    0 -0.33935101842E+02 -0.19019835705E+02 -0.91220103299E+02  0.99256863406E+02  0.41800000000E+01 0. -1.
         -5    1    3    3    0  502  0.90107546711E+01  0.55410222870E+02  0.86924078327E+01  0.56960660567E+02  0.41800000000E+01 0. -1.
        -11    1    1    2    0    0 -0.30919136668E+02  0.15102217804E+00  0.52183099969E+01  0.31356762894E+02  0.00000000000E+00 0. -1.
         11    1    1    2    0    0  0.55843483839E+02 -0.36541409343E+02 -0.31461468000E+02  0.73780710574E+02  0.00000000000E+00 0.  1.
</event>
<event>
 7    1  0.2841804E-009  0.8363068E+02  0.7561462E-02  0.1319053E+00
          1   -1    0    0  501    0  0.00000000000E+00  0.00000000000E+00  0.34579737753E+03  0.34579737753E+03  0.00000000000E+00 0. -1.
         -1   -1    0    0    0  501 -0.00000000000E+00 -0.00000000000E+00 -0.53021105515E+02  0.53021105515E+02  0.00000000000E+00 0.  1.
         25    2    1    2    0    0 -0.39360431957E+02 -0.19800646449E+02  0.26189343268E+03  0.29355891869E+03  0.12508940585E+03 0.  0.
          5    1    3    3  502    0 -0.34294870140E+02 -0.35891470719E+02  0.26987479485E+03  0.27443435113E+03  0.41800000000E+01 0.  1.
         -5    1    3    3    0  502 -0.50655618168E+01  0.16090824270E+02 -0.79813621645E+01  0.19124567556E+02  0.41800000000E+01 0.  1.
        -11    1    1    2    0    0  0.51157116145E+02  0.47592656750E+02  0.16387132464E+02  0.71768026440E+02  0.00000000000E+00 0.  1.
         11    1    1    2    0    0 -0.11796684188E+02 -0.27792010301E+02  0.14495706872E+02  0.33491537917E+02  0.00000000000E+00 0. -1.
</event>
<event>
 7    1  0.2841804E-009  0.1743157E+03  0.7561462E-02  0.1173421E+00
          2   -1    0    0  501    0  0.00000000000E+00  0.00000000000E+00  0.58488499930E+02  0.58488499930E+02  0.00000000000E+00 0. -1.
         -2   -1    0    0    0  501 -0.00000000000E+00 -0.00000000000E+00 -0.62267181114E+03  0.62267181114E+03  0.00000000000E+00 0.  1.
         25    2    1    2    0    0  0.38341396061E+02 -0.15123315025E+03 -0.30615354284E+03  0.36567526006E+03  0.12508747198E+03 0.  0.
          5    1    3    3  502    0 -0.72225891295E+01  0.14488268929E+02 -0.79257491869E+02  0.81001840396E+02  0.41800000000E+01 0. -1.
         -5    1    3    3    0  502  0.45563985190E+02 -0.16572141918E+03 -0.22689605097E+03  0.28467341967E+03  0.41800000000E+01 0. -1.
        -11    1    1    2    0    0 -0.41383338643E+02  0.94365848217E+02 -0.22996890382E+03  0.25199839434E+03  0.00000000000E+00 0.  1.
         11    1    1    2    0    0  0.30419425821E+01  0.56867302031E+02 -0.28060864557E+02  0.63486656666E+02  0.00000000000E+00 0. -1.
</event>
<event>
 7    1  0.2841804E-009  0.1124192E+03  0.7561462E-02  0.1256154E+00
          2   -1    0    0  501    0  0.00000000000E+00  0.00000000000E+00  0.36088486769E+02  0.36088486769E+02  0.00000000000E+00 0. -1.
         -2   -1    0    0    0  501 -0.00000000000E+00 -0.00000000000E+00 -0.38677556419E+03  0.38677556419E+03  0.00000000000E+00 0.  1.
         25    2    1    2    0    0  0.34618921029E+02  0.29129853665E+02 -0.17811297115E+03  0.22230394913E+03  0.12509115572E+03 0.  0.
          5    1    3    3  502    0  0.56682439010E+02  0.66011752222E+02 -0.13901891657E+03  0.16405542322E+03  0.41800000000E+01 0.  1.
         -5    1    3    3    0  502 -0.22063517981E+02 -0.36881898557E+02 -0.39094054576E+02  0.58248525905E+02  0.41800000000E+01 0.  1.
        -11    1    1    2    0    0 -0.51591390755E+02 -0.47081146859E+02 -0.15568439373E+03  0.17063392524E+03  0.00000000000E+00 0. -1.
         11    1    1    2    0    0  0.16972469726E+02  0.17951293195E+02 -0.16889712540E+02  0.29926176596E+02  0.00000000000E+00 0.  1.
</event>
<event>
 7    1  0.2841804E-009  0.2160189E+03  0.7561462E-02  0.1136886E+00
          1   -1    0    0  501    0  0.00000000000E+00  0.00000000000E+00  0.10815815581E+03  0.10815815581E+03  0.00000000000E+00 0. -1.
         -1   -1    0    0    0  501 -0.00000000000E+00 -0.00000000000E+00 -0.53646880653E+03  0.53646880653E+03  0.00000000000E+00 0.  1.
         25    2    1    2    0    0 -0.18845979137E+03 -0.99662064855E+02 -0.25530274645E+03  0.35535291176E+03  0.12508628787E+03 0.  0.
          5    1    3    3  502    0 -0.77359807901E+02 -0.65757406673E+02 -0.20479523115E+03  0.22862006804E+03  0.41800000000E+01 0. -1.
         -5    1    3    3    0  502 -0.11109998347E+03 -0.33904658182E+02 -0.50507515301E+02  0.12673284371E+03  0.41800000000E+01 0. -1.
        -11    1    1    2    0    0  0.28840828783E+02  0.24108788903E+02 -0.82883349394E+02  0.91009212248E+02  0.00000000000E+00 0.  1.
         11    1    1    2    0    0  0.15961896259E+03  0.75553275951E+02 -0.90124554883E+02  0.19826483833E+03  0.00000000000E+00 0. -1.
</event>
<event>
 7    1  0.2841804E-009  0.8284049E+02  0.7561462E-02  0.1321178E+00
         -2   -1    0    0    0  501 -0.00000000000E+00  0.00000000000E+00  0.43957823872E+02  0.43957823872E+02  0.00000000000E+00 0.  1.
          2   -1    0    0  501    0  0.00000000000E+00 -0.00000000000E+00 -0.27377424023E+03  0.27377424023E+03  0.00000000000E+00 0. -1.
         25    2    1    2    0    0  0.33637049150E+01 -0.12919367495E+02 -0.15235246644E+03  0.19757743271E+03  0.12508934134E+03 0.  0.
          5    1    3    3  502    0 -0.38319950866E+02 -0.54166454313E+02 -0.89829869034E+02  0.11175554205E+03  0.41800000000E+01 0.  1.
         -5    1    3    3    0  502  0.41683655781E+02  0.41247086817E+02 -0.62522597408E+02  0.85821890662E+02  0.41800000000E+01 0.  1.
        -11    1    1    2    0    0  0.17429691310E+02  0.47286889908E+01 -0.91828715047E+02  0.93587753183E+02  0.00000000000E+00 0. -1.
         11    1    1    2    0    0 -0.20793396225E+02  0.81906785046E+01  0.14364765128E+02  0.26566878215E+02  0.00000000000E+00 0.  1.
</event>
<event>
 7    1  0.2841804E-009  0.1159035E+03  0.7561462E-02  0.1250012E+00
         -1   -1    0    0    0  501 -0.00000000000E+00  0.00000000000E+00  0.21443562759E+02  0.21443562759E+02  0.00000000000E+00 0.  1.
          1   -1    0    0  501    0  0.00000000000E+00 -0.00000000000E+00 -0.75584610918E+03  0.75584610918E+03  0.00000000000E+00 0. -1.
         25    2    1    2    0    0  0.28052923295E+02  0.52986556296E+02 -0.31860816778E+03  0.34750692901E+03  0.12512137899E+03 0.  0.
          5    1    3    3  502    0  0.67761219201E+02  0.64557740126E+02 -0.25352166005E+03  0.27027761497E+03  0.41800000000E+01 0.  1.
         -5    1    3    3    0  502 -0.39708295905E+02 -0.11571183830E+02 -0.65086507723E+02  0.77229314037E+02  0.41800000000E+01 0.  1.
        -11    1    1    2    0    0  0.25311125052E+02 -0.74084933175E+01 -0.43024390101E+02  0.50464214729E+02  0.00000000000E+00 0.  1.
         11    1    1    2    0    0 -0.53364048347E+02 -0.45578062978E+02 -0.37276998854E+03  0.37931852820E+03  0.00000000000E+00 0. -1.
</event>
<event>
 7    1  0.2841804E-009  0.9431258E+02  0.7561462E-02  0.1292732E+00
         -2   -1    0    0    0  501 -0.00000000000E+00  0.00000000000E+00  0.88045788412E+03  0.88045788412E+03  0.00000000000E+00 0.  1.
          2   -1    0    0  501    0  0.00000000000E+00 -0.00000000000E+00 -0.15213203273E+02  0.15213203273E+02  0.00000000000E+00 0. -1.
         25    2    1    2    0    0 -0.19030088561E+02 -0.16307068550E+02  0.53061790585E+03  0.54573874559E+03  0.12508937474E+03 0.  0.
          5    1    3    3  502    0  0.33496006563E+02 -0.23259779103E+00  0.42747541374E+03  0.42880617802E+03  0.41800000000E+01 0.  1.
         -5    1    3    3    0  502 -0.52526095124E+02 -0.16074470759E+02  0.10314249212E+03  0.11693256757E+03  0.41800000000E+01 0.  1.
        -11    1    1    2    0    0  0.56384109179E+02 -0.52887492426E+01  0.15009610757E+03  0.16042437515E+03  0.00000000000E+00 0. -1.
         11    1    1    2    0    0 -0.37354020618E+02  0.21595817792E+02  0.18453066743E+03  0.18950796665E+03  0.00000000000E+00 0.  1.
</event>
<event>
 7    1  0.2841804E-009  0.1076095E+03  0.7561462E-02  0.1265062E+00
          2   -1    0    0  501    0  0.00000000000E+00  0.00000000000E+00  0.84879813065E+02  0.84879813065E+02  0.00000000000E+00 0. -1.
         -2   -1    0    0    0  501 -0.00000000000E+00 -0.00000000000E+00 -0.19581234962E+03  0.19581234962E+03  0.00000000000E+00 0.  1.
         25    2    1    2    0    0  0.42877604399E+02 -0.46130762198E+02 -0.97461278693E+02  0.17062803427E+03  0.12509472033E+03 0.  0.
          5    1    3    3  502    0 -0.35866955010E+02  0.28558083758E+01 -0.60894326255E+02  0.70853267202E+02  0.41800000000E+01 0. -1.
         -5    1    3    3    0  502  0.78744559409E+02 -0.48986570574E+02 -0.36566952438E+02  0.99774767069E+02  0.41800000000E+01 0. -1.
        -11    1    1    2    0    0 -0.36169071684E+02 -0.32638868975E+01 -0.39643450706E+02  0.53762978787E+02  0.00000000000E+00 0.  1.
         11    1    1    2    0    0 -0.67085327151E+01  0.49394649096E+02  0.26172192847E+02  0.56301149623E+02  0.00000000000E+00 0. -1.
</event>
<event>
 7    1  0.2841804E-009  0.2441795E+03  0.7561462E-02  0.1117039E+00
          2   -1    0    0  501    0  0.00000000000E+00  0.00000000000E+00  0.11064658741E+04  0.11064658741E+04  0.00000000000E+00 0. -1.
         -2   -1    0    0    0  501 -0.00000000000E+00 -0.00000000000E+00 -0.71247862616E+02  0.71247862616E+02  0.00000000000E+00 0.  1.
         25    2    1    2    0    0  0.13658268425E+03  0.18554195624E+03  0.77378769805E+03  0.81699201390E+03  0.12509157430E+03 0.  0.
          5    1    3    3  502    0  0.15034765920E+03  0.19050935071E+03  0.68098578033E+03  0.72295043865E+03  0.41800000000E+01 0. -1.
         -5    1    3    3    0  502 -0.13764974948E+02 -0.49673944660E+01  0.92801917712E+02  0.94041575242E+02  0.41800000000E+01 0. -1.
        -11    1    1    2    0    0 -0.86604405353E+02 -0.12021686489E+03  0.22805229406E+03  0.27195636866E+03  0.00000000000E+00 0. -1.
         11    1    1    2    0    0 -0.49978278896E+02 -0.65325091358E+02  0.33378019391E+02  0.88765354170E+02  0.00000000000E+00 0.  1.
</event>
<event>
 7    1  0.2841804E-009  0.9487874E+02  0.7561462E-02  0.1291449E+00
          2   -1    0    0  501    0  0.00000000000E+00  0.00000000000E+00  0.49354180388E+03  0.49354180388E+03  0.00000000000E+00 0. -1.
         -2   -1    0    0    0  501 -0.00000000000E+00 -0.00000000000E+00 -0.30895519978E+02  0.30895519978E+02  0.00000000000E+00 0.  1.
         25    2    1    2    0    0  0.79627455954E+01  0.56836623171E+02  0.22321780794E+03  0.26223411494E+03  0.12508690660E+03 0.  0.
          5    1    3    3  502    0 -0.27920422033E+02  0.27548213646E+02  0.21029895914E+03  0.21396630262E+03  0.41800000000E+01 0.  1.
         -5    1    3    3    0  502  0.35883167628E+02  0.29288409525E+02  0.12918848806E+02  0.48267812319E+02  0.41800000000E+01 0.  1.
        -11    1    1    2    0    0 -0.21075216122E+02  0.18069067419E+02  0.95069965997E+02  0.99040165421E+02  0.00000000000E+00 0. -1.
         11    1    1    2    0    0  0.13112470527E+02 -0.74905690590E+02  0.14435850997E+03  0.16316304350E+03  0.00000000000E+00 0.  1.
</event>
<event>
 7    1  0.2841804E-009  0.1206380E+03  0.7561462E-02  0.1242048E+00
         -2   -1    0    0    0  501 -0.00000000000E+00  0.00000000000E+00  0.50799520318E+03  0.50799520318E+03  0.00000000000E+00 0.  1.
          2   -1    0    0  501    0  0.00000000000E+00 -0.00000000000E+00 -0.80110153059E+02  0.80110153059E+02  0.00000000000E+00 0. -1.
         25    2    1    2    0    0 -0.14075828687E+02  0.70203255858E+02 -0.15438646287E+01  0.14414034505E+03  0.12508968569E+03 0.  0.
          5    1    3    3  502    0  0.50422998703E+02  0.13069129389E+02  0.18750913725E+02  0.55518916657E+02  0.41800000000E+01 0. -1.
         -5    1    3    3    0  502 -0.64498827390E+02  0.57134126469E+02 -0.20294778354E+02  0.88621428393E+02  0.41800000000E+01 0. -1.
        -11    1    1    2    0    0  0.44535094416E+02 -0.43264168386E+02  0.34137340179E+03  0.34697400818E+03  0.00000000000E+00 0.  1.
         11    1    1    2    0    0 -0.30459265729E+02 -0.26939087472E+02  0.88055512955E+02  0.96991003007E+02  0.00000000000E+00 0. -1.
</event>
<event>
 7    1  0.2841804E-009  0.1196892E+03  0.7561462E-02  0.1243611E+00
         -2   -1    0    0    0  501 -0.00000000000E+00  0.00000000000E+00  0.20198283421E+02  0.20198283421E+02  0.00000000000E+00 0.  1.
          2   -1    0    0  501    0  0.00000000000E+00 -0.00000000000E+00 -0.72436056219E+03  0.72436056219E+03  0.00000000000E+00 0. -1.
         25    2    1    2    0    0 -0.37581650438E+02  0.32272155642E+02 -0.37942622720E+03  0.40257362717E+03  0.12508953162E+03 0.  0.
          5    1    3    3  502    0 -0.90897184631E+01 -0.47511468859E+02 -0.11355152569E+03  0.12349649404E+03  0.41800000000E+01 0. -1.
         -5    1    3    3    0  502 -0.28491931975E+02  0.79783624501E+02 -0.26587470152E+03  0.27907713312E+03  0.41800000000E+01 0. -1.
        -11    1    1    2    0    0  0.62548159599E+01 -0.62297810942E+02 -0.16566024346E+03  0.17709730724E+03  0.00000000000E+00 0.  1.
         11    1    1    2    0    0  0.31326834478E+02  0.30025655299E+02 -0.15907580811E+03  0.16488791120E+03  0.00000000000E+00 0. -1.
</event>
<event>
 7    1  0.2841804E-009  0.1100908E+03  0.7561462E-02  0.1260402E+00
          1   -1    0    0  501    0  0.00000000000E+00  0.00000000000E+00  0.49411123596E+03  0.49411123596E+03  0.00000000000E+00 0. -1.
         -1   -1    0    0    0  501 -0.00000000000E+00 -0.00000000000E+00 -0.34144493064E+02  0.34144493064E+02  0.00000000000E+00 0.  1.
         25    2    1    2    0    0 -0.52847155763E+02  0.18624044240E+02  0.16184932863E+03  0.21209022451E+03  0.12508949299E+03 0.  0.
          5    1    3    3  502    0 -0.87330054791E+02  0.21920433810E+02  0.15044894107E+03  0.17538358007E+03  0.41800000000E+01 0. -1.
         -5    1    3    3    0  502  0.34482899028E+02 -0.32963895702E+01  0.11400387565E+02  0.36706644443E+02  0.41800000000E+01 0. -1.
        -11    1    1    2    0    0  0.12763974026E+02  0.29725539617E+02  0.45307233958E+02  0.55671107295E+02  0.00000000000E+00 0.  1.
         11    1    1    2    0    0  0.40083181736E+02 -0.48349583857E+02  0.25281018031E+03  0.26049439722E+03  0.00000000000E+00 0. -1.
</event>
<event>
 7    1  0.2841804E-009  0.1061153E+03  0.7561462E-02  0.1267938E+00
          1   -1    0    0  501    0  0.00000000000E+00  0.00000000000E+00  0.18333071491E+03  0.18333071491E+03  0.00000000000E+00 0. -1.
         -1   -1    0    0    0  501 -0.00000000000E+00 -0.00000000000E+00 -0.69757762104E+02  0.69757762104E+02  0.00000000000E+00 0.  1.
         25    2    1    2    0    0 -0.15380760067E+02  0.22192150039E+02  0.43280200368E+02  0.13508993109E+03  0.12508818663E+03 0.  0.
          5    1    3    3  502    0 -0.66045384884E+02 -0.20972306594E+01  0.38520364335E+01  0.66322709728E+02  0.41800000000E+01 0. -1.
         -5    1    3    3    0  502  0.50664624818E+02  0.24289380698E+02  0.39428163935E+02  0.68767221363E+02  0.41800000000E+01 0. -1.
        -11    1    1    2    0    0  0.47729243407E+02  0.42220122666E+01  0.56354539979E+02  0.73971212238E+02  0.00000000000E+00 0.  1.
         11    1    1    2    0    0 -0.32348483340E+02 -0.26414162305E+02  0.13938212454E+02  0.44027333682E+02  0.00000000000E+00 0. -1.
</event>
<event>
 7    1  0.2841804E-009  0.9916110E+02  0.7561462E-02  0.1282070E+00
         -1   -1    0    0    0  501 -0.00000000000E+00  0.00000000000E+00  0.12722161334E+03  0.12722161334E+03  0.00000000000E+00 0.  1.
          1   -1    0    0  501    0  0.00000000000E+00 -0.00000000000E+00 -0.10489534659E+03  0.10489534659E+03  0.00000000000E+00 0. -1.
         25    2    1    2    0    0 -0.10019565289E+01  0.15542009177E+02  0.48650246019E+02  0.13511567801E+03  0.12508733765E+03 0.  0.
          5    1    3    3  502    0  0.18402666546E+02  0.56442244717E+02  0.63749260004E+02  0.87211385012E+02  0.41800000000E+01 0. -1.
         -5    1    3    3    0  502 -0.19404623074E+02 -0.40900235541E+02 -0.15099013985E+02  0.47904292994E+02  0.41800000000E+01 0. -1.
        -11    1    1    2    0    0  0.46476632929E+02 -0.57703714122E+01 -0.12339743758E+02  0.48431847690E+02  0.00000000000E+00 0. -1.
         11    1    1    2    0    0 -0.45474676401E+02 -0.97716377647E+01 -0.13984235513E+02  0.48569434228E+02  0.00000000000E+00 0.  1.
</event>
<event>
 7    1  0.2841804E-009  0.1036480E+03  0.7561462E-02  0.1272806E+00
          1   -1    0    0  501    0  0.00000000000E+00  0.00000000000E+00  0.29299745450E+03  0.29299745450E+03  0.00000000000E+00 0. -1.
         -1   -1    0    0    0  501 -0.00000000000E+00 -0.00000000000E+00 -0.40340842980E+02  0.40340842980E+02  0.00000000000E+00 0.  1.
         25    2    1    2    0    0  0.21663847574E+02  0.45297658302E+02  0.13841963042E+03  0.19320605899E+03  0.12508951598E+03 0.  0.
          5    1    3    3  502    0 -0.20118370879E+02 -0.35021047507E+02  0.64661861064E+02  0.76353462865E+02  0.41800000000E+01 0.  1.
         -5    1    3    3    0  502  0.41782218453E+02  0.80318705809E+02  0.73757769356E+02  0.11685259613E+03  0.41800000000E+01 0.  1.
        -11    1    1    2    0    0 -0.75204509802E+01 -0.57127548546E+02  0.61550125806E+02  0.84312110473E+02  0.00000000000E+00 0.  1.
         11    1    1    2    0    0 -0.14143396594E+02  0.11829890244E+02  0.52686855294E+02  0.55820128011E+02  0.00000000000E+00 0. -1.
</event>
<event>
 7    1  0.2841804E-009  0.1015865E+03  0.7561462E-02  0.1276995E+00
          1   -1    0    0  501    0  0.00000000000E+00  0.00000000000E+00  0.60615915626E+03  0.60615915626E+03  0.00000000000E+00 0. -1.
         -1   -1    0    0    0  501 -0.00000000000E+00 -0.00000000000E+00 -0.22027102923E+02  0.22027102923E+02  0.00000000000E+00 0.  1.
         25    2    1    2    0    0 -0.23497802085E+02 -0.23960536161E+02  0.39301701432E+03  0.41380729249E+03  0.12509135770E+03 0.  0.
          5    1    3    3  502    0 -0.35095240063E+02  0.36360334644E+02  0.79444986898E+02  0.94248226263E+02  0.41800000000E+01 0. -1.
         -5    1    3    3    0  502  0.11597437977E+02 -0.60320870805E+02  0.31357202742E+03  0.31955906622E+03  0.41800000000E+01 0. -1.
        -11    1    1    2    0    0  0.54587470813E+02  0.24430360902E+02  0.15807081907E+03  0.16900597133E+03  0.00000000000E+00 0. -1.
         11    1    1    2    0    0 -0.31089668728E+02 -0.46982474132E+00  0.33044219942E+02  0.45372995366E+02  0.00000000000E+00 0.  1.
</event>
<event>
 7    1  0.2841804E-009  0.1878295E+03  0.7561462E-02  0.1160434E+00
         -1   -1    0    0    0  501 -0.00000000000E+00  0.00000000000E+00  0.49841783093E+02  0.49841783093E+02  0.00000000000E+00 0.  1.
          1   -1    0    0  501    0  0.00000000000E+00 -0.00000000000E+00 -0.91171428810E+03  0.91171428810E+03  0.00000000000E+00 0. -1.
         25    2    1    2    0    0 -0.74788814263E+02 -0.16576374378E+03 -0.47312583810E+03  0.52207900792E+03  0.12508975315E+03 0.  0.
          5    1    3    3  502    0 -0.38118165710E+02 -0.52048808844E+02 -0.32674798485E+03  0.33308225870E+03  0.41800000000E+01 0.  1.
         -5    1    3    3    0  502 -0.36670648553E+02 -0.11371493493E+03 -0.14637785325E+03  0.18899674922E+03  0.41800000000E+01 0.  1.
        -11    1    1    2    0    0  0.12966400696E+01  0.73441293947E+02 -0.78300015027E+02  0.10736012894E+03  0.00000000000E+00 0.  1.
         11    1    1    2    0    0  0.73492174193E+02  0.92322449832E+02 -0.31044665188E+03  0.33211693434E+03  0.00000000000E+00 0. -1.
</event>
<event>
 7    1  0.2841804E-009  0.1119396E+03  0.7561462E-02  0.1257020E+00
          2   -1    0    0  501    0  0.00000000000E+00  0.00000000000E+00  0.30088962079E+03  0.30088962079E+03  0.00000000000E+00 0. -1.
         -2   -1    0    0    0  501 -0.00000000000E+00 -0.00000000000E+00 -0.67230536539E+02  0.67230536539E+02  0.00000000000E+00 0.  1.
         25    2    1    2    0    0  0.59636603628E+02 -0.55592820614E+02  0.72018380284E+02  0.16576853962E+03  0.12508187492E+03 0.  0.
          5    1    3    3  502    0  0.81827047848E+02 -0.48064660804E+02  0.55347363800E+01  0.95152420277E+02  0.41800000000E+01 0.  1.
         -5    1    3    3    0  502 -0.22190444220E+02 -0.75281598105E+01  0.66483643904E+02  0.70616119347E+02  0.41800000000E+01 0.  1.
        -11    1    1    2    0    0 -0.30048362422E+02 -0.11171927387E+02  0.92486994780E+01  0.33365468494E+02  0.00000000000E+00 0.  1.
         11    1    1    2    0    0 -0.29588241206E+02  0.66764748001E+02  0.15239200448E+03  0.16898614921E+03  0.00000000000E+00 0. -1.
</event>
<event>
 7    1  0.2841804E-009  0.2419439E+03  0.7561462E-02  0.1118505E+00
          2   -1    0    0  501    0  0.00000000000E+00  0.00000000000E+00  0.77520320743E+03  0.77520320743E+03  0.00000000000E+00 0. -1.
         -2   -1    0    0    0  501 -0.00000000000E+00 -0.00000000000E+00 -0.90826242066E+02  0.90826242066E+02  0.00000000000E+00 0.  1.
         25    2    1    2    0    0  0.21911752487E+03 -0.52746621214E+02  0.49688133987E+03  0.55976167923E+03  0.12508947147E+03 0.  0.
          5    1    3    3  502    0  0.98623837635E+02 -0.74393026139E+02  0.16622631618E+03  0.20714643197E+03  0.41800000000E+01 0.  1.
         -5    1    3    3    0  502  0.12049368724E+03  0.21646404925E+02  0.33065502369E+03  0.35261524726E+03  0.41800000000E+01 0.  1.
        -11    1    1    2    0    0 -0.62014034883E+02  0.51609548195E+02  0.37184477351E+02  0.88836767969E+02  0.00000000000E+00 0.  1.
         11    1    1    2    0    0 -0.15710348999E+03  0.11370730195E+01  0.15031114814E+03  0.21743100229E+03  0.00000000000E+00 0. -1.
</event>
<event>
 7    1  0.2841804E-009  0.1180973E+03  0.7561462E-02  0.1246269E+00
         -2   -1    0    0    0  501 -0.00000000000E+00  0.00000000000E+00  0.26587915002E+02  0.26587915002E+02  0.00000000000E+00 0. -1.
          2   -1    0    0  501    0  0.00000000000E+00 -0.00000000000E+00 -0.83066214609E+03  0.83066214609E+03  0.00000000000E+00 0.  1.
         25    2    1    2    0    0 -0.22401053049E+01 -0.77324972645E+02 -0.62633767749E+03  0.64337413841E+03  0.12508887345E+03 0.  0.
          5    1    3    3  502    0 -0.27277308709E+02  0.11982027549E+02 -0.36119656252E+03  0.36244730614E+03  0.41800000000E+01 0. -1.
         -5    1    3    3    0  502  0.25037203404E+02 -0.89307000194E+02 -0.26514111498E+03  0.28092683227E+03  0.41800000000E+01 0. -1.
        -11    1    1    2    0    0 -0.34365092696E+02  0.86390010529E+01 -0.89269772637E+02  0.96045219776E+02  0.00000000000E+00 0.  1.
         11    1    1    2    0    0  0.36605198001E+02  0.68685971592E+02 -0.88466780959E+02  0.11783070291E+03  0.00000000000E+00 0. -1.
</event>
<event>
 7    1  0.2841804E-009  0.9031023E+02  0.7561462E-02  0.1302102E+00
          1   -1    0    0  501    0  0.00000000000E+00  0.00000000000E+00  0.70626022291E+02  0.70626022291E+02  0.00000000000E+00 0.  1.
         -1   -1    0    0    0  501 -0.00000000000E+00 -0.00000000000E+00 -0.25918913880E+03  0.25918913880E+03  0.00000000000E+00 0. -1.
         25    2    1    2    0    0  0.53156534348E+02 -0.29220533495E+02 -0.43518887432E+02  0.14567387824E+03  0.12509008161E+03 0.  0.
          5    1    3    3  502    0  0.21758845175E+02 -0.34412405708E+02 -0.84339241427E+02  0.93745618855E+02  0.41800000000E+01 0.  1.
         -5    1    3    3    0  502  0.31397689173E+02  0.51918722131E+01  0.40820353995E+02  0.51928259385E+02  0.41800000000E+01 0.  1.
        -11    1    1    2    0    0 -0.72215851730E+02 -0.58277197135E+00 -0.67251433445E+02  0.98682441015E+02  0.00000000000E+00 0.  1.
         11    1    1    2    0    0  0.19059317382E+02  0.29803305466E+02 -0.77792795635E+02  0.85458841839E+02  0.00000000000E+00 0. -1.
</event>
<event>
 7    1  0.2841804E-009  0.1174242E+03  0.7561462E-02  0.1247408E+00
         -2   -1    0    0    0  501 -0.00000000000E+00  0.00000000000E+00  0.10591994166E+03  0.10591994166E+03  0.00000000000E+00 0.  1.
          2   -1    0    0  501    0  0.00000000000E+00 -0.00000000000E+00 -0.23671863917E+03  0.23671863917E+03  0.00000000000E+00 0. -1.
         25    2    1    2    0    0 -0.99811410337E+02  0.13194728813E+02 -0.10862000377E+02  0.16093842422E+03  0.12508706902E+03 0.  0.
          5    1    3    3  502    0 -0.30625676158E+02 -0.12656853359E+02  0.53375383830E+02  0.62964529507E+02  0.41800000000E+01 0. -1.
         -5    1    3    3    0  502 -0.69185734179E+02  0.25851582172E+02 -0.64237384207E+02  0.97973894708E+02  0.41800000000E+01 0. -1.
        -11    1    1    2    0    0  0.11158503064E+03 -0.25726574571E+01 -0.76114396840E+02  0.13509714666E+03  0.00000000000E+00 0.  1.
         11    1    1    2    0    0 -0.11773620299E+02 -0.10622071356E+02 -0.43822300288E+02  0.46603009961E+02  0.00000000000E+00 0. -1.
</event>
<event>
 7    1  0.2841804E-009  0.1345788E+03  0.7561462E-02  0.1220816E+00
          1   -1    0    0  501    0  0.00000000000E+00  0.00000000000E+00  0.24322347243E+03  0.24322347243E+03  0.00000000000E+00 0. -1.
         -1   -1    0    0    0  501 -0.00000000000E+00 -0.00000000000E+00 -0.98589436986E+02  0.98589436986E+02  0.00000000000E+00 0.  1.
         25    2    1    2    0    0  0.35717170434E+02 -0.90872500973E+02  0.13824902447E+03  0.21046424329E+03  0.12509547250E+03 0.  0.
          5    1    3    3  502    0  0.73949395964E+02 -0.60677964300E+02  0.12907981417E+03  0.16071527414E+03  0.41800000000E+01 0. -1.
         -5    1    3    3    0  502 -0.38232225530E+02 -0.30194536673E+02  0.91692102931E+01  0.49748969148E+02  0.41800000000E+01 0. -1.
        -11    1    1    2    0    0  0.14822203745E+02 -0.54042171626E+01 -0.13554792211E+02  0.20799896127E+02  0.00000000000E+00 0.  1.
         11    1    1    2    0    0 -0.50539374179E+02  0.96276718135E+02  0.19939803186E+02  0.11054877000E+03  0.00000000000E+00 0. -1.
</event>
<event>
 7    1  0.2841804E-009  0.2300405E+03  0.7561462E-02  0.1126611E+00
         -1   -1    0    0    0  501 -0.00000000000E+00  0.00000000000E+00  0.63436338551E+02  0.63436338551E+02  0.00000000000E+00 0.  1.
          1   -1    0    0  501    0  0.00000000000E+00 -0.00000000000E+00 -0.85642556552E+03  0.85642556552E+03  0.00000000000E+00 0. -1.
         25    2    1    2    0    0  0.17206032443E+03  0.11214464434E+03 -0.39906660154E+03  0.46591891737E+03  0.12508040855E+03 0.  0.
          5    1    3    3  502    0  0.17916226010E+03  0.12564802074E+03 -0.33676259533E+03  0.40163796954E+03  0.41800000000E+01 0.  1.
         -5    1    3    3    0  502 -0.71019356705E+01 -0.13503376402E+02 -0.62304006213E+02  0.64280947836E+02  0.41800000000E+01 0.  1.
        -11    1    1    2    0    0 -0.57492068117E+02 -0.92852671319E+02 -0.18146024812E+03  0.21178946649E+03  0.00000000000E+00 0. -1.
         11    1    1    2    0    0 -0.11456825632E+03 -0.19291973021E+02 -0.21246237731E+03  0.24215352021E+03  0.00000000000E+00 0.  1.
</event>
<event>
 7    1  0.2841804E-009  0.1288885E+03  0.7561462E-02  0.1229114E+00
         -2   -1    0    0    0  501 -0.00000000000E+00  0.00000000000E+00  0.37621607520E+02  0.37621607520E+02  0.00000000000E+00 0.  1.
          2   -1    0    0  501    0  0.00000000000E+00 -0.00000000000E+00 -0.60507365479E+03  0.60507365479E+03  0.00000000000E+00 0. -1.
         25    2    1    2    0    0 -0.56250529059E+02  0.87548412217E+02 -0.35149686582E+03  0.38733255681E+03  0.12509043282E+03 0.  0.
          5    1    3    3  502    0  0.27993837618E+02  0.20963905903E+02 -0.19074375327E+03  0.19396853380E+03  0.41800000000E+01 0. -1.
         -5    1    3    3    0  502 -0.84244366677E+02  0.66584506315E+02 -0.16075311255E+03  0.19336402301E+03  0.41800000000E+01 0. -1.
        -11    1    1    2    0    0  0.20822370414E+02 -0.74472266486E+02 -0.69014872584E+02  0.10364720075E+03  0.00000000000E+00 0.  1.
         11    1    1    2    0    0  0.35428158645E+02 -0.13076145732E+02 -0.14694030887E+03  0.15171550475E+03  0.00000000000E+00 0. -1.
</event>
<event>
 7    1  0.2841804E-009  0.1475119E+03  0.7561462E-02  0.1203564E+00
          2   -1    0    0  501    0  0.00000000000E+00  0.00000000000E+00  0.28700306738E+03  0.28700306738E+03  0.00000000000E+00 0. -1.
         -2   -1    0    0    0  501 -0.00000000000E+00 -0.00000000000E+00 -0.10944681836E+03  0.10944681836E+03  0.00000000000E+00 0.  1.
         25    2    1    2    0    0  0.61322795462E+02 -0.12235194130E+03  0.14259772556E+03  0.23391046674E+03  0.12509801091E+03 0.  0.
          5    1    3    3  502    0  0.54509546994E+02 -0.12873858352E+03  0.62556257976E+02  0.15321772552E+03  0.41800000000E+01 0.  1.
         -5    1    3    3    0  502  0.68132484676E+01  0.63866422198E+01  0.80041467580E+02  0.80692741222E+02  0.41800000000E+01 0.  1.
        -11    1    1    2    0    0 -0.13763395043E+01  0.53976355668E+02  0.46008630989E+02  0.70937545821E+02  0.00000000000E+00 0. -1.
         11    1    1    2    0    0 -0.59946455958E+02  0.68375585636E+02 -0.11050107530E+02  0.91601873176E+02  0.00000000000E+00 0.  1.
</event>
<event>
 7    1  0.2841804E-009  0.1644897E+03  0.7561462E-02  0.1183719E+00
          1   -1    0    0  501    0  0.00000000000E+00  0.00000000000E+00  0.65988396409E+03  0.65988396409E+03  0.00000000000E+00 0. -1.
         -1   -1    0    0    0  501 -0.00000000000E+00 -0.00000000000E+00 -0.72816868828E+02  0.72816868828E+02  0.00000000000E+00 0.  1.
         25    2    1    2    0    0 -0.15155566924E+03  0.13330583425E+01  0.49541543511E+03  0.53296897617E+03  0.12509427759E+03 0.  0.
          5    1    3    3  502    0 -0.12831713138E+03 -0.18750230190E+01  0.20711890229E+03  0.24368938016E+03  0.41800000000E+01 0.  1.
         -5    1    3    3    0  502 -0.23238537856E+02  0.32080813615E+01  0.28829653282E+03  0.28927959600E+03  0.41800000000E+01 0.  1.
        -11    1    1    2    0    0  0.12022286135E+03  0.38349074788E+02  0.57204401573E+02  0.13855154813E+03  0.00000000000E+00 0. -1.
         11    1    1    2    0    0  0.31332807886E+02 -0.39682133131E+02  0.34447258577E+02  0.61180308624E+02  0.00000000000E+00 0.  1.
</event>
<event>
 7    1  0.2841804E-009  0.1223085E+03  0.7561462E-02  0.1239337E+00
         -3   -1    0    0    0  501 -0.00000000000E+00  0.00000000000E+00  0.45957853778E+03  0.45957853778E+03  0.00000000000E+00 0.  1.
          3   -1    0    0  501    0  0.00000000000E+00 -0.00000000000E+00 -0.55575747440E+02  0.55575747440E+02  0.00000000000E+00 0. -1.
         25    2    1    2    0    0  0.12158319054E+02 -0.43319861701E+02  0.52256730642E+02  0.14284040894E+03  0.12509269119E+03 0.  0.
          5    1    3    3  502    0 -0.34311278393E+02  0.22983812673E+02  0.45340330966E+02  0.61471436310E+02  0.41800000000E+01 0.  1.
         -5    1    3    3    0  502  0.46469597447E+02 -0.66303674375E+02  0.69163996767E+01  0.81368972631E+02  0.41800000000E+01 0.  1.
        -11    1    1    2    0    0 -0.11351378318E+02 -0.38536323038E+02  0.11633538119E+03  0.12307649207E+03  0.00000000000E+00 0. -1.
         11    1    1    2    0    0 -0.80694073620E+00  0.81856184740E+02  0.23541067851E+03  0.24923738421E+03  0.00000000000E+00 0.  1.
</event>
<event>
 7    1  0.2841804E-009  0.1086092E+03  0.7561462E-02  0.1263167E+00
          2   -1    0    0  501    0  0.00000000000E+00  0.00000000000E+00  0.14047625775E+04  0.14047625775E+04  0.00000000000E+00 0. -1.
         -2   -1    0    0    0  501 -0.00000000000E+00 -0.00000000000E+00 -0.11537145420E+02  0.11537145420E+02  0.00000000000E+00 0.  1.
         25    2    1    2    0    0  0.40419356867E+02  0.31934595737E+02  0.10017039299E+04  0.10107937880E+04  0.12505908960E+03 0.  0.
          5    1    3    3  502    0  0.12318050251E+02 -0.40992693501E+02  0.16774782274E+03  0.17317314952E+03  0.41800000000E+01 0. -1.
         -5    1    3    3    0  502  0.28101306616E+02  0.72927289238E+02  0.83395610713E+03  0.83762063846E+03  0.41800000000E+01 0. -1.
        -11    1    1    2    0    0 -0.65377090296E+02 -0.20701241965E+02  0.34308711604E+03  0.34987351222E+03  0.00000000000E+00 0. -1.
         11    1    1    2    0    0  0.24957733429E+02 -0.11233353772E+02  0.48434386179E+02  0.55632422736E+02  0.00000000000E+00 0.  1.
</event>
<event>
 7    1  0.2841804E-009  0.9848778E+02  0.7561462E-02  0.1283508E+00
         -1   -1    0    0    0  501 -0.00000000000E+00  0.00000000000E+00  0.83774848709E+02  0.83774848709E+02  0.00000000000E+00 0.  1.
          1   -1    0    0  501    0  0.00000000000E+00 -0.00000000000E+00 -0.19783293079E+03  0.19783293079E+03  0.00000000000E+00 0. -1.
         25    2    1    2    0    0  0.13107167326E+02 -0.64596778869E+02 -0.83790482619E+02  0.16436173841E+03  0.12509753954E+03 0.  0.
          5    1    3    3  502    0  0.30460372994E+02  0.11464926907E+01 -0.90807339250E+02  0.95878016407E+02  0.41800000000E+01 0. -1.
         -5    1    3    3    0  502 -0.17353205667E+02 -0.65743271560E+02  0.70168566312E+01  0.68483722003E+02  0.41800000000E+01 0. -1.
        -11    1    1    2    0    0  0.19182369353E+02  0.62890037356E+02 -0.47016408127E+02  0.80831075248E+02  0.00000000000E+00 0. -1.
         11    1    1    2    0    0 -0.32289536679E+02  0.17067415139E+01  0.16748808665E+02  0.36414965842E+02  0.00000000000E+00 0.  1.
</event>
<event>
 7    1  0.2841804E-009  0.1022371E+03  0.7561462E-02  0.1275661E+00
         -1   -1    0    0    0  501 -0.00000000000E+00  0.00000000000E+00  0.16982118246E+03  0.16982118246E+03  0.00000000000E+00 0.  1.
          1   -1    0    0  501    0  0.00000000000E+00 -0.00000000000E+00 -0.85726012471E+02  0.85726012471E+02  0.00000000000E+00 0. -1.
         25    2    1    2    0    0  0.25784895376E+02 -0.14660745493E+02  0.11733982825E+01  0.12856382222E+03  0.12508989260E+03 0.  0.
          5    1    3    3  502    0 -0.28754326695E+02 -0.48713330146E+02  0.22016002664E+02  0.60843870775E+02  0.41800000000E+01 0. -1.
         -5    1    3    3    0  502  0.54539222071E+02  0.34052584653E+02 -0.20842604382E+02  0.67719951440E+02  0.41800000000E+01 0. -1.
        -11    1    1    2    0    0 -0.13568736625E+02 -0.32174292200E+02  0.50312510658E+01  0.35279018969E+02  0.00000000000E+00 0. -1.
         11    1    1    2    0    0 -0.12216158751E+02  0.46835037693E+02  0.77890520641E+02  0.91704353746E+02  0.00000000000E+00 0.  1.
</event>
<event>
 7    1  0.2841804E-009  0.1763941E+03  0.7561462E-02  0.1171339E+00
         -4   -1    0    0    0  501 -0.00000000000E+00  0.00000000000E+00  0.19848250651E+03  0.19848250651E+03  0.00000000000E+00 0.  1.
          4   -1    0    0  501    0  0.00000000000E+00 -0.00000000000E+00 -0.18175233471E+03  0.18175233471E+03  0.00000000000E+00 0. -1.
         25    2    1    2    0    0  0.14450310952E+03  0.13455723574E+02  0.64866699256E+02  0.20228709704E+03  0.12510066267E+03 0.  0.
          5    1    3    3  502    0  0.36050856064E+02 -0.52937012497E+02  0.26048421278E+02  0.69267482747E+02  0.41800000000E+01 0. -1.
         -5    1    3    3    0  502  0.10845225345E+03  0.66392736071E+02  0.38818277979E+02  0.13301961430E+03  0.41800000000E+01 0. -1.
        -11    1    1    2    0    0 -0.12250667198E+03  0.17133324420E+02 -0.61277929043E+02  0.13804499293E+03  0.00000000000E+00 0. -1.
         11    1    1    2    0    0 -0.21996437536E+02 -0.30589047995E+02  0.13141401591E+02  0.39902751249E+02  0.00000000000E+00 0.  1.
</event>
<event>
 7    1  0.2841804E-009  0.1032912E+03  0.7561462E-02  0.1273523E+00
          2   -1    0    0  501    0  0.00000000000E+00  0.00000000000E+00  0.28386019730E+03  0.28386019730E+03  0.00000000000E+00 0.  1.
         -2   -1    0    0    0  501 -0.00000000000E+00 -0.00000000000E+00 -0.67562264497E+02  0.67562264497E+02  0.00000000000E+00 0. -1.
         25    2    1    2    0    0  0.60998963982E+02  0.49135274465E+02  0.15880448840E+03  0.21679752093E+03  0.12508857158E+03 0.  0.
          5    1    3    3  502    0  0.35859115892E+02  0.64541493033E+02  0.22531538905E+02  0.77308622811E+02  0.41800000000E+01 0.  1.
         -5    1    3    3    0  502  0.25139848089E+02 -0.15406218568E+02  0.13627294950E+03  0.13948889812E+03  0.41800000000E+01 0.  1.
        -11    1    1    2    0    0 -0.70372832085E+02 -0.21371066547E+02  0.40292557536E+01  0.73656587505E+02  0.00000000000E+00 0. -1.
         11    1    1    2    0    0  0.93738681033E+01 -0.27764207918E+02  0.53464188647E+02  0.60968353366E+02  0.00000000000E+00 0.  1.
</event>
<event>
 7    1  0.2841804E-009  0.8813758E+02  0.7561462E-02  0.1307426E+00
          2   -1    0    0  501    0  0.00000000000E+00  0.00000000000E+00  0.43933959829E+03  0.43933959829E+03  0.00000000000E+00 0. -1.
         -2   -1    0    0    0  501 -0.00000000000E+00 -0.00000000000E+00 -0.30491624453E+02  0.30491624453E+02  0.00000000000E+00 0.  1.
         25    2    1    2    0    0 -0.18264800394E+02  0.41553142102E+02  0.21530196844E+03  0.25310221214E+03  0.12508207555E+03 0.  0.
          5    1    3    3  502    0  0.38172163196E+02  0.28125098903E+02  0.24303268275E+02  0.53443956442E+02  0.41800000000E+01 0. -1.
         -5    1    3    3    0  502 -0.56436963590E+02  0.13428043199E+02  0.19099870017E+03  0.19965825570E+03  0.41800000000E+01 0. -1.
        -11    1    1    2    0    0 -0.17796277111E+02 -0.25366610610E+02  0.16072508460E+02  0.34906989860E+02  0.00000000000E+00 0.  1.
         11    1    1    2    0    0  0.36061077505E+02 -0.16186531491E+02  0.17747349694E+03  0.18182202074E+03  0.00000000000E+00 0. -1.
</event>
<event>
 7    1  0.2841804E-009  0.1365322E+03  0.7561462E-02  0.1218073E+00
          2   -1    0    0  501    0  0.00000000000E+00  0.00000000000E+00  0.65375465607E+03  0.65375465607E+03  0.00000000000E+00 0. -1.
         -2   -1    0    0    0  501 -0.00000000000E+00 -0.00000000000E+00 -0.71705290399E+02  0.71705290399E+02  0.00000000000E+00 0.  1.
         25    2    1    2    0    0 -0.44751737586E+02  0.72946694404E+02  0.23851864990E+02  0.15344212433E+03  0.12510649789E+03 0.  0.
          5    1    3    3  502    0  0.36207163276E+02  0.57659005525E+02  0.18973190392E+02  0.70802358324E+02  0.41800000000E+01 0.  1.
         -5    1    3    3    0  502 -0.80958900861E+02  0.15287688879E+02  0.48786745971E+01  0.82639766008E+02  0.41800000000E+01 0.  1.
        -11    1    1    2    0    0 -0.21579849641E+01 -0.75353523969E+02  0.28444513543E+03  0.29426492408E+03  0.00000000000E+00 0.  1.
         11    1    1    2    0    0  0.46909722550E+02  0.24068295648E+01  0.27375236525E+03  0.27775289806E+03  0.00000000000E+00 0. -1.
</event>
<event>
 7    1  0.2841804E-009  0.1145232E+03  0.7561462E-02  0.1252416E+00
         -2   -1    0    0    0  501 -0.00000000000E+00  0.00000000000E+00  0.80289823063E+02  0.80289823063E+02  0.00000000000E+00 0.  1.
          2   -1    0    0  501    0  0.00000000000E+00 -0.00000000000E+00 -0.24621404646E+03  0.24621404646E+03  0.00000000000E+00 0. -1.
         25    2    1    2    0    0  0.37621726425E+01  0.86549305523E+02 -0.99417585787E+02  0.18175702318E+03  0.12508726107E+03 0.  0.
          5    1    3    3  502    0  0.13735037425E+02  0.88944422916E+02 -0.88662894578E+01  0.90530906931E+02  0.41800000000E+01 0.  1.
         -5    1    3    3    0  502 -0.99728647827E+01 -0.23951173928E+01 -0.90551296329E+02  0.91226116251E+02  0.41800000000E+01 0.  1.
        -11    1    1    2    0    0  0.44696177161E+02 -0.50757392376E+02 -0.42619264521E+02  0.79940370539E+02  0.00000000000E+00 0.  1.
         11    1    1    2    0    0 -0.48458349804E+02 -0.35791913147E+02 -0.23887373085E+02  0.64806475798E+02  0.00000000000E+00 0. -1.
</event>
<event>
 7    1  0.2841804E-009  0.1401239E+03  0.7561462E-02  0.1213162E+00
          2   -1    0    0  501    0  0.00000000000E+00  0.00000000000E+00  0.10734151147E+04  0.10734151147E+04  0.00000000000E+00 0. -1.
         -2   -1    0    0    0  501 -0.00000000000E+00 -0.00000000000E+00 -0.24715810082E+02  0.24715810082E+02  0.00000000000E+00 0.  1.
         25    2    1    2    0    0  0.10513677029E+03 -0.51043265582E+02  0.67684883903E+03  0.69816237215E+03  0.12508873478E+03 0.  0.
          5    1    3    3  502    0  0.76319165610E+02  0.25572140189E+02  0.44529966662E+03  0.45253487698E+03  0.41800000000E+01 0.  1.
         -5    1    3    3    0  502  0.28817604676E+02 -0.76615405771E+02  0.23154917241E+03  0.24562749517E+03  0.41800000000E+01 0.  1.
        -11    1    1    2    0    0 -0.52677322116E+02  0.17901608989E+02  0.29963279489E+03  0.30475429389E+03  0.00000000000E+00 0. -1.
         11    1    1    2    0    0 -0.52459448170E+02  0.33141656594E+02  0.72217670651E+02  0.95214258692E+02  0.00000000000E+00 0.  1.
</event>
<event>
 7    1  0.2841804E-009  0.1099876E+03  0.7561462E-02  0.1260593E+00
          3   -1    0    0  501    0  0.00000000000E+00  0.00000000000E+00  0.20700722571E+02  0.20700722571E+02  0.00000000000E+00 0. -1.
         -3   -1    0    0    0  501 -0.00000000000E+00 -0.00000000000E+00 -0.10797352957E+04  0.10797352957E+04  0.00000000000E+00 0.  1.
         25    2    1    2    0    0  0.10150240630E+02 -0.10257251548E+03 -0.56564898215E+03  0.58841332986E+03  0.12508927785E+03 0.  0.
          5    1    3    3  502    0 -0.68663770651E+01 -0.43682882071E+02 -0.48498472377E+03  0.48701436941E+03  0.41800000000E+01 0.  1.
         -5    1    3    3    0  502  0.17016617695E+02 -0.58889633405E+02 -0.80664258376E+02  0.10139896045E+03  0.41800000000E+01 0.  1.
        -11    1    1    2    0    0 -0.24371283265E+02  0.23775460767E+02 -0.44391515560E+02  0.55944960777E+02  0.00000000000E+00 0. -1.
         11    1    1    2    0    0  0.14221042635E+02  0.78797054709E+02 -0.44899407546E+03  0.45607772768E+03  0.00000000000E+00 0.  1.
</event>
<event>
 6    1  0.2841804E-009  0.8017412E+02  0.7561462E-02  0.1328558E+00
         -1   -1    0    0    0  501 -0.00000000000E+00  0.00000000000E+00  0.36491719732E+02  0.36491719732E+02  0.00000000000E+00 0.  1.
          1   -1    0    0  501    0  0.00000000000E+00 -0.00000000000E+00 -0.40462503064E+03  0.40462503064E+03  0.00000000000E+00 0. -1.
          5    1    1    2  502    0  0.26361259041E+02 -0.38157481952E+02 -0.21594722284E+03  0.22091080748E+03  0.41800000000E+01 0. -1.
         -5    1    1    2    0  502  0.27452630479E+02  0.37398319177E+02 -0.17745683990E+02  0.49846393026E+02  0.41800000000E+01 0. -1.
        -11    1    1    2    0    0 -0.24732472915E+02 -0.19721076433E+02 -0.13083892540E+03  0.13460847102E+03  0.00000000000E+00 0. -1.
         11    1    1    2    0    0 -0.29081416605E+02  0.20480239208E+02 -0.36014786763E+01  0.35751078843E+02  0.00000000000E+00 0.  1.
</event>
<event>
 7    1  0.2841804E-009  0.1055312E+03  0.7561462E-02  0.1269076E+00
         -2   -1    0    0    0  501 -0.00000000000E+00  0.00000000000E+00  0.15536841812E+02  0.15536841812E+02  0.00000000000E+00 0.  1.
          2   -1    0    0  501    0  0.00000000000E+00 -0.00000000000E+00 -0.13367116374E+04  0.13367116374E+04  0.00000000000E+00 0. -1.
         25    2    1    2    0    0 -0.59795126333E+02 -0.30127813467E+02 -0.10197814886E+04  0.10296043510E+04  0.12509073825E+03 0.  0.
          5    1    3    3  502    0  0.37339396076E+02 -0.18356950772E+02 -0.22959908761E+03  0.23337613754E+03  0.41800000000E+01 0.  1.
         -5    1    3    3    0  502 -0.97134522409E+02 -0.11770862695E+02 -0.79018240100E+03  0.79622821345E+03  0.41800000000E+01 0.  1.
        -11    1    1    2    0    0  0.31208012360E+01  0.11095716950E+02  0.34202285400E+01  0.12022990404E+02  0.00000000000E+00 0.  1.
         11    1    1    2    0    0  0.56674325097E+02  0.19032096517E+02 -0.30481353556E+03  0.31062113785E+03  0.00000000000E+00 0. -1.
</event>
<event>
 7    1  0.2841804E-009  0.1766951E+03  0.7561462E-02  0.1171040E+00
         -2   -1    0    0    0  501 -0.00000000000E+00  0.00000000000E+00  0.32695079490E+02  0.32695079490E+02  0.00000000000E+00 0.  1.
          2   -1    0    0  501    0  0.00000000000E+00 -0.00000000000E+00 -0.14783507598E+04  0.14783507598E+04  0.00000000000E+00 0. -1.
         25    2    1    2    0    0  0.77696307834E+02  0.14698362227E+03 -0.42166903414E+03  0.47020562481E+03  0.12509058232E+03 0.  0.
          5    1    3    3  502    0  0.53570544361E+02  0.89711765393E+02 -0.38270748612E+03  0.39673731411E+03  0.41800000000E+01 0. -1.
         -5    1    3    3    0  502  0.24125763473E+02  0.57271856880E+02 -0.38961548018E+02  0.73468310704E+02  0.41800000000E+01 0. -1.
        -11    1    1    2    0    0  0.14391528387E+02 -0.53129638185E+02 -0.29602450078E+03  0.30109862106E+03  0.00000000000E+00 0.  1.
         11    1    1    2    0    0 -0.92087836222E+02 -0.93853984088E+02 -0.72796214537E+03  0.73974159340E+03  0.00000000000E+00 0. -1.
</event>
<event>
 7    1  0.2841804E-009  0.1044436E+03  0.7561462E-02  0.1271220E+00
          4   -1    0    0  501    0  0.00000000000E+00  0.00000000000E+00  0.38735779959E+02  0.38735779959E+02  0.00000000000E+00 0. -1.
         -4   -1    0    0    0  501 -0.00000000000E+00 -0.00000000000E+00 -0.60124276900E+03  0.60124276900E+03  0.00000000000E+00 0.  1.
         25    2    1    2    0    0 -0.77006663249E+02 -0.31615901479E+02 -0.44533202745E+03  0.46999903708E+03  0.12509551862E+03 0.  0.
          5    1    3    3  502    0 -0.11161330926E+02  0.31884386294E+02 -0.27053889620E+03  0.27267188368E+03  0.41800000000E+01 0.  1.
         -5    1    3    3    0  502 -0.65845332323E+02 -0.63500287772E+02 -0.17479313125E+03  0.19732715340E+03  0.41800000000E+01 0.  1.
        -11    1    1    2    0    0  0.15871822729E+02  0.55115191883E+01 -0.99891366876E+02  0.10129450517E+03  0.00000000000E+00 0.  1.
         11    1    1    2    0    0  0.61134840519E+02  0.26104382290E+02 -0.17283594716E+02  0.68685006707E+02  0.00000000000E+00 0. -1.
</event>
<event>
 7    1  0.2841804E-009  0.6804216E+02  0.7561462E-02  0.1366880E+00
          1   -1    0    0  501    0  0.00000000000E+00  0.00000000000E+00  0.35802947112E+03  0.35802947112E+03  0.00000000000E+00 0. -1.
         -1   -1    0    0    0  501 -0.00000000000E+00 -0.00000000000E+00 -0.39120851058E+02  0.39120851058E+02  0.00000000000E+00 0.  1.
         25    2    1    2    0    0  0.14921499080E+02 -0.42510929648E+02  0.19046365548E+03  0.23227837830E+03  0.12508801179E+03 0.  0.
          5    1    3    3  502    0 -0.25624394414E+02  0.35788088746E+01 -0.55887539569E+01  0.26797836346E+02  0.41800000000E+01 0.  1.
         -5    1    3    3    0  502  0.40545893495E+02 -0.46089738523E+02  0.19605240943E+03  0.20548054195E+03  0.41800000000E+01 0.  1.
        -11    1    1    2    0    0  0.14451041296E+01  0.22273696844E+02 -0.96706075222E+01  0.24325430046E+02  0.00000000000E+00 0.  1.
         11    1    1    2    0    0 -0.16366603210E+02  0.20237232804E+02  0.13811557211E+03  0.14054651383E+03  0.00000000000E+00 0. -1.
</event>
<event>
 7    1  0.2841804E-009  0.1415496E+03  0.7561462E-02  0.1211259E+00
          1   -1    0    0  501    0  0.00000000000E+00  0.00000000000E+00  0.19025515065E+03  0.19025515065E+03  0.00000000000E+00 0. -1.
         -1   -1    0    0    0  501 -0.00000000000E+00 -0.00000000000E+00 -0.16054501564E+03  0.16054501564E+03  0.00000000000E+00 0.  1.
         25    2    1    2    0    0  0.31883218914E+02  0.11503115738E+03  0.81828350288E+02  0.19129116726E+03  0.12509086675E+03 0.  0.
          5    1    3    3  502    0 -0.13456884948E+02 -0.15252258753E+02  0.43271023114E+02  0.47995551782E+02  0.41800000000E+01 0. -1.
         -5    1    3    3    0  502  0.45340103861E+02  0.13028341613E+03  0.38557327174E+02  0.14329561548E+03  0.41800000000E+01 0. -1.
        -11    1    1    2    0    0  0.32575560943E+01 -0.52448492914E+02  0.21422688429E+02  0.56748459540E+02  0.00000000000E+00 0. -1.
         11    1    1    2    0    0 -0.35140775008E+02 -0.62582664461E+02 -0.73540903709E+02  0.10276053950E+03  0.00000000000E+00 0.  1.
</event>
<event>
 7    1  0.2841804E-009  0.7320557E+02  0.7561462E-02  0.1349520E+00
         -1   -1    0    0    0  501 -0.00000000000E+00  0.00000000000E+00  0.32085626809E+03  0.32085626809E+03  0.00000000000E+00 0.  1.
          1   -1    0    0  501    0  0.00000000000E+00 -0.00000000000E+00 -0.48272498964E+02  0.48272498964E+02  0.00000000000E+00 0. -1.
         25    2    1    2    0    0 -0.22969423102E+02 -0.17308087093E+02  0.23393113419E+03  0.26682966788E+03  0.12508849604E+03 0.  0.
          5    1    3    3  502    0  0.95975250076E+01 -0.33175947518E+02  0.22707381630E+03  0.22972319523E+03  0.41800000000E+01 0.  1.
         -5    1    3    3    0  502 -0.32566948109E+02  0.15867860424E+02  0.68573178899E+01  0.37106472646E+02  0.41800000000E+01 0.  1.
        -11    1    1    2    0    0 -0.19833044440E+02  0.24744466834E+02  0.48316297901E+02  0.57793623641E+02  0.00000000000E+00 0.  1.
         11    1    1    2    0    0  0.42802467542E+02 -0.74363797412E+01 -0.96636629571E+01  0.44505475540E+02  0.00000000000E+00 0. -1.
</event>
<event>
 7    1  0.3100202E-009  0.9215039E+02  0.7561462E-02  0.1297726E+00
          1   -1    0    0  501    0  0.00000000000E+00  0.00000000000E+00  0.63099516538E+02  0.63099516538E+02  0.00000000000E+00 0. -1.
         -1   -1    0    0    0  501 -0.00000000000E+00 -0.00000000000E+00 -0.25871285671E+03  0.25871285671E+03  0.00000000000E+00 0.  1.
         25    2    1    2    0    0  0.30825963537E+02 -0.13223237391E+02 -0.18158874653E+03  0.22304119392E+03  0.12509119588E+03 0.  0.
          5    1    3    3  502    0 -0.29782242033E+02 -0.49237622726E+02 -0.66807704342E+02  0.88272686555E+02  0.41800000000E+01 0. -1.
         -5    1    3    3    0  502  0.60608205570E+02  0.36014385334E+02 -0.11478104218E+03  0.13476850737E+03  0.41800000000E+01 0. -1.
        -11    1    1    2    0    0 -0.42102925214E+02  0.58515579748E+01 -0.46867161547E+02  0.63272647121E+02  0.00000000000E+00 0.  1.
         11    1    1    2    0    0  0.11276961677E+02  0.73716794164E+01  0.32842567902E+02  0.35498532201E+02  0.00000000000E+00 0. -1.
</event>
<event>
 7    1  0.2841804E-009  0.1876442E+03  0.7561462E-02  0.1160603E+00
          2   -1    0    0  501    0  0.00000000000E+00  0.00000000000E+00  0.46540480127E+03  0.46540480127E+03  0.00000000000E+00 0. -1.
         -2   -1    0    0    0  501 -0.00000000000E+00 -0.00000000000E+00 -0.85656432841E+02  0.85656432841E+02  0.00000000000E+00 0.  1.
         25    2    1    2    0    0 -0.16044166177E+03 -0.43410726705E+02  0.17587431671E+03  0.27240343290E+03  0.12508332005E+03 0.  0.
          5    1    3    3  502    0 -0.59751708551E+02  0.27573696517E+02  0.12030305435E+03  0.13718918580E+03  0.41800000000E+01 0.  1.
         -5    1    3    3    0  502 -0.10068995322E+03 -0.70984423221E+02  0.55571262363E+02  0.13521424711E+03  0.41800000000E+01 0.  1.
        -11    1    1    2    0    0  0.69283655046E+02  0.62084679622E+02  0.12994289977E+03  0.15981204430E+03  0.00000000000E+00 0. -1.
         11    1    1    2    0    0  0.91158006728E+02 -0.18673952918E+02  0.73931151946E+02  0.11884575691E+03  0.00000000000E+00 0.  1.
</event>
<event>
 7    1  0.2841804E-009  0.1636836E+03  0.7561462E-02  0.1184600E+00
          1   -1    0    0  501    0  0.00000000000E+00  0.00000000000E+00  0.22323134200E+03  0.22323134200E+03  0.00000000000E+00 0. -1.
         -1   -1    0    0    0  501 -0.00000000000E+00 -0.00000000000E+00 -0.19069974537E+03  0.19069974537E+03  0.00000000000E+00 0.  1.
         25    2    1    2    0    0 -0.11279899102E+03  0.70103978840E+02  0.13108783288E+03  0.22465459347E+03  0.12508991252E+03 0.  0.
          5    1    3    3  502    0 -0.31158431001E+01  0.54858721264E+02  0.28643754552E+01  0.55180293798E+02  0.41800000000E+01 0. -1.
         -5    1    3    3    0  502 -0.10968314792E+03  0.15245257576E+02  0.12822345742E+03  0.16947429967E+03  0.41800000000E+01 0. -1.
        -11    1    1    2    0    0  0.80587932979E+02  0.39541574393E+01 -0.45204268134E+02  0.92485005057E+02  0.00000000000E+00 0. -1.
         11    1    1    2    0    0  0.32211058039E+02 -0.74058136279E+02 -0.53351968115E+02  0.96791488835E+02  0.00000000000E+00 0.  1.
</event>
<event>
 7    1  0.2841804E-009  0.8480373E+02  0.7561462E-02  0.1315947E+00
          1   -1    0    0  501    0  0.00000000000E+00  0.00000000000E+00  0.11503745201E+04  0.11503745201E+04  0.00000000000E+00 0. -1.
         -1   -1    0    0    0  501 -0.00000000000E+00 -0.00000000000E+00 -0.13221933449E+02  0.13221933449E+02  0.00000000000E+00 0.  1.
         25    2    1    2    0    0  0.30085224782E+01  0.26863391496E+01  0.88755361016E+03  0.89633393403E+03  0.12508734053E+03 0.  0.
          5    1    3    3  502    0  0.37375121309E+02 -0.68223956858E+01  0.87605063168E+02  0.95580145786E+02  0.41800000000E+01 0.  1.
         -5    1    3    3    0  502 -0.34366598831E+02  0.95087348353E+01  0.79994854699E+03  0.80075378824E+03  0.41800000000E+01 0.  1.
        -11    1    1    2    0    0 -0.46380177332E+02 -0.17617857285E+02  0.13462664014E+03  0.14347767066E+03  0.00000000000E+00 0.  1.
         11    1    1    2    0    0  0.43371654854E+02  0.14931518135E+02  0.11497233632E+03  0.12378484882E+03  0.00000000000E+00 0. -1.
</event>
<event>
 7    1  0.2841804E-009  0.9083348E+02  0.7561462E-02  0.1300846E+00
          2   -1    0    0  501    0  0.00000000000E+00  0.00000000000E+00  0.95071495663E+03  0.95071495663E+03  0.00000000000E+00 0. -1.
         -2   -1    0    0    0  501 -0.00000000000E+00 -0.00000000000E+00 -0.13308731644E+02  0.13308731644E+02  0.00000000000E+00 0.  1.
         25    2    1    2    0    0 -0.14380028611E+02  0.19129669944E+02  0.44700122159E+03  0.46479022762E+03  0.12508850503E+03 0.  0.
          5    1    3    3  502    0  0.76404849257E+01  0.49922280814E+02  0.73062178223E+02  0.88916620596E+02  0.41800000000E+01 0.  1.
         -5    1    3    3    0  502 -0.22020513537E+02 -0.30792610870E+02  0.37393904337E+03  0.37587360702E+03  0.41800000000E+01 0.  1.
        -11    1    1    2    0    0  0.52529423682E+02 -0.77789468457E+01  0.25269946666E+03  0.25821865311E+03  0.00000000000E+00 0.  1.
         11    1    1    2    0    0 -0.38149395070E+02 -0.11350723098E+02  0.23770553673E+03  0.24101480754E+03  0.00000000000E+00 0. -1.
</event>
<event>
 7    1  0.2841804E-009  0.1102386E+03  0.7561462E-02  0.1260129E+00
          2   -1    0    0  501    0  0.00000000000E+00  0.00000000000E+00  0.83004136353E+03  0.83004136353E+03  0.00000000000E+00 0.  1.
         -2   -1    0    0    0  501 -0.00000000000E+00 -0.00000000000E+00 -0.20027884154E+02  0.20027884154E+02  0.00000000000E+00 0. -1.
         25    2    1    2    0    0  0.26172902677E+02  0.55892131544E+02  0.35053768774E+03  0.37727301066E+03  0.12509717361E+03 0.  0.
          5    1    3    3  502    0 -0.26660104756E+02 -0.60026351824E+01  0.13956099819E+02  0.30968337651E+02  0.41800000000E+01 0.  1.
         -5    1    3    3    0  502  0.52833007433E+02  0.61894766726E+02  0.33658158792E+03  0.34630467301E+03  0.41800000000E+01 0.  1.
        -11    1    1    2    0    0 -0.25725879234E+02 -0.81638992733E+02  0.36103596971E+03  0.37104409094E+03  0.00000000000E+00 0. -1.
         11    1    1    2    0    0 -0.44702344277E+00  0.25746861189E+02  0.98439821929E+02  0.10175214608E+03  0.00000000000E+00 0.  1.
</event>
<event>
 7    1  0.2841804E-009  0.1032351E+03  0.7561462E-02  0.1273636E+00
         -1   -1    0    0    0  501 -0.00000000000E+00  0.00000000000E+00  0.54315707019E+02  0.54315707019E+02  0.00000000000E+00 0.  1.
          1   -1    0    0  501    0  0.00000000000E+00 -0.00000000000E+00 -0.35930155465E+03  0.35930155465E+03  0.00000000000E+00 0. -1.
         25    2    1    2    0    0 -0.67134216864E+01 -0.48203554543E+02 -0.27702032128E+03  0.30782500854E+03  0.12508926726E+03 0.  0.
          5    1    3    3  502    0 -0.50542954916E+02 -0.15005644094E+02 -0.22796895302E+03  0.23402366459E+03  0.41800000000E+01 0.  1.
         -5    1    3    3    0  502  0.43829533230E+02 -0.33197910449E+02 -0.49051368253E+02  0.73801343950E+02  0.41800000000E+01 0.  1.
        -11    1    1    2    0    0  0.17669047342E+02 -0.21529237048E+02  0.42964505853E+01  0.28180893696E+02  0.00000000000E+00 0.  1.
         11    1    1    2    0    0 -0.10955625656E+02  0.69732791592E+02 -0.32261976940E+02  0.77611359431E+02  0.00000000000E+00 0. -1.
</event>
<event>
 7    1  0.2841804E-009  0.1092630E+03  0.7561462E-02  0.1261941E+00
         -1   -1    0    0    0  501 -0.00000000000E+00  0.00000000000E+00  0.42441148130E+02  0.42441148130E+02  0.00000000000E+00 0.  1.
          1   -1    0    0  501    0  0.00000000000E+00 -0.00000000000E+00 -0.50490536093E+03  0.50490536093E+03  0.00000000000E+00 0. -1.
         25    2    1    2    0    0 -0.87431238594E+01  0.94205210812E+02 -0.21193161248E+03  0.26365409176E+03  0.12508959898E+03 0.  0.
          5    1    3    3  502    0 -0.14182475451E+02  0.65378216117E+02 -0.20718032576E+02  0.70158128726E+02  0.41800000000E+01 0. -1.
         -5    1    3    3    0  502  0.54393515912E+01  0.28826994696E+02 -0.19121357991E+03  0.19349596303E+03  0.41800000000E+01 0. -1.
        -11    1    1    2    0    0  0.25368257348E+01  0.13623455801E+02 -0.38214545760E+01  0.14374892968E+02  0.00000000000E+00 0.  1.
         11    1    1    2    0    0  0.62062981246E+01 -0.10782866661E+03 -0.24671114574E+03  0.26931752433E+03  0.00000000000E+00 0. -1.
</event>
<event>
 7    1  0.2841804E-009  0.1183006E+03  0.7561462E-02  0.1245927E+00
         -1   -1    0    0    0  501 -0.00000000000E+00  0.00000000000E+00  0.14792733878E+03  0.14792733878E+03  0.00000000000E+00 0.  1.
          1   -1    0    0  501    0  0.00000000000E+00 -0.00000000000E+00 -0.16760923245E+03  0.16760923245E+03  0.00000000000E+00 0. -1.
         25    2    1    2    0    0 -0.86214949317E+02  0.53120319961E+02  0.42721163028E+02  0.16651537065E+03  0.12508990772E+03 0.  0.
          5    1    3    3  502    0 -0.15315991530E+02  0.17028318318E+02 -0.43367045771E+02  0.49221095886E+02  0.41800000000E+01 0. -1.
         -5    1    3    3    0  502 -0.70898957787E+02  0.36092001643E+02  0.86088208799E+02  0.11729427476E+03  0.41800000000E+01 0. -1.
        -11    1    1    2    0    0  0.10268616277E+03 -0.55952206053E+02 -0.46177681060E+02  0.12572778379E+03  0.00000000000E+00 0.  1.
         11    1    1    2    0    0 -0.16471213458E+02  0.28318860919E+01 -0.16225375634E+02  0.23293416797E+02  0.00000000000E+00 0. -1.
</event>
<event>
 7    1  0.2841804E-009  0.2733308E+03  0.7561462E-02  0.1099388E+00
          1   -1    0    0  501    0  0.00000000000E+00  0.00000000000E+00  0.12668599192E+04  0.12668599192E+04  0.00000000000E+00 0. -1.
         -1   -1    0    0    0  501 -0.00000000000E+00 -0.00000000000E+00 -0.64491591623E+02  0.64491591623E+02  0.00000000000E+00 0.  1.
         25    2    1    2    0    0  0.24963389171E+03 -0.29605753134E+02  0.80283181658E+03  0.85051729881E+03  0.12508864595E+03 0.  0.
          5    1    3    3  502    0  0.25498820393E+03 -0.54215580882E+01  0.71372979716E+03  0.75794199857E+03  0.41800000000E+01 0. -1.
         -5    1    3    3    0  502 -0.53543122260E+01 -0.24184195045E+02  0.89102019423E+02  0.92575300240E+02  0.41800000000E+01 0. -1.
        -11    1    1    2    0    0 -0.94541347646E+02  0.54891468714E+02  0.18532001578E+03  0.21516191113E+03  0.00000000000E+00 0.  1.
         11    1    1    2    0    0 -0.15509254406E+03 -0.25285715581E+02  0.21421649520E+03  0.26567230087E+03  0.00000000000E+00 0. -1.
</event>
<event>
 7    1  0.2841804E-009  0.1695220E+03  0.7561462E-02  0.1178347E+00
          2   -1    0    0  501    0  0.00000000000E+00  0.00000000000E+00  0.12564830887E+04  0.12564830887E+04  0.00000000000E+00 0. -1.
         -2   -1    0    0    0  501 -0.00000000000E+00 -0.00000000000E+00 -0.33055906965E+02  0.33055906965E+02  0.00000000000E+00 0.  1.
         25    2    1    2    0    0 -0.23681370084E+02  0.14897164264E+03  0.89326423384E+03  0.91450922045E+03  0.12511101161E+03 0.  0.
          5    1    3    3  502    0 -0.60817692752E+02  0.40125008320E+02  0.48014970914E+03  0.48566451758E+03  0.41800000000E+01 0.  1.
         -5    1    3    3    0  502  0.37136322668E+02  0.10884663432E+03  0.41311452470E+03  0.42884470287E+03  0.41800000000E+01 0.  1.
        -11    1    1    2    0    0  0.31746035253E+01 -0.37728057477E+02  0.19563272570E+03  0.19926276068E+03  0.00000000000E+00 0. -1.
         11    1    1    2    0    0  0.20506766559E+02 -0.11124358516E+03  0.13453022218E+03  0.17576701452E+03  0.00000000000E+00 0.  1.
</event>
<event>
 7    1  0.2841804E-009  0.2401538E+03  0.7561462E-02  0.1119690E+00
          1   -1    0    0  501    0  0.00000000000E+00  0.00000000000E+00  0.66222812317E+03  0.66222812317E+03  0.00000000000E+00 0. -1.
         -1   -1    0    0    0  501 -0.00000000000E+00 -0.00000000000E+00 -0.11309021156E+03  0.11309021156E+03  0.00000000000E+00 0.  1.
         25    2    1    2    0    0 -0.83491916287E+02 -0.21943490946E+03  0.15868951593E+03  0.30976044357E+03  0.12508633161E+03 0.  0.
          5    1    3    3  502    0  0.20357008361E+01 -0.84244726120E+02 -0.26269763078E-01  0.84372928402E+02  0.41800000000E+01 0. -1.
         -5    1    3    3    0  502 -0.85527617123E+02 -0.13519018334E+03  0.15871578570E+03  0.22538751517E+03  0.41800000000E+01 0. -1.
        -11    1    1    2    0    0  0.65799169774E+02  0.19453260809E+03  0.38226307398E+03  0.43393262620E+03  0.00000000000E+00 0. -1.
         11    1    1    2    0    0  0.17692746513E+02  0.24902301375E+02  0.81853216995E+01  0.31625264968E+02  0.00000000000E+00 0.  1.
</event>
<event>
 7    1  0.2841804E-009  0.1069517E+03  0.7561462E-02  0.1266321E+00
         -2   -1    0    0    0  501 -0.00000000000E+00  0.00000000000E+00  0.32984364869E+02  0.32984364869E+02  0.00000000000E+00 0.  1.
          2   -1    0    0  501    0  0.00000000000E+00 -0.00000000000E+00 -0.49489240352E+03  0.49489240352E+03  0.00000000000E+00 0. -1.
         25    2    1    2    0    0  0.64366417990E+02 -0.29509610447E+01 -0.20891567782E+03  0.25188330441E+03  0.12509074574E+03 0.  0.
          5    1    3    3  502    0  0.13642375956E+02  0.40458520534E+02 -0.12946731316E+02  0.44811790383E+02  0.41800000000E+01 0.  1.
         -5    1    3    3    0  502  0.50724042035E+02 -0.43409481579E+02 -0.19596894650E+03  0.20707151403E+03  0.41800000000E+01 0.  1.
        -11    1    1    2    0    0 -0.14017690863E+02  0.39486442211E+02 -0.59695020659E+02  0.72932641987E+02  0.00000000000E+00 0. -1.
         11    1    1    2    0    0 -0.50348727127E+02 -0.36535481167E+02 -0.19329734018E+03  0.20306082199E+03  0.00000000000E+00 0.  1.
</event>
<event>
 7    1  0.2841804E-009  0.1462960E+03  0.7561462E-02  0.1205100E+00
         -2   -1    0    0    0  501 -0.00000000000E+00  0.00000000000E+00  0.31920698848E+02  0.31920698848E+02  0.00000000000E+00 0.  1.
          2   -1    0    0  501    0  0.00000000000E+00 -0.00000000000E+00 -0.99019288308E+03  0.99019288308E+03  0.00000000000E+00 0. -1.
         25    2    1    2    0    0 -0.10859514677E+03  0.46674730093E+02 -0.72597477629E+03  0.74609574061E+03  0.12509213410E+03 0.  0.
          5    1    3    3  502    0 -0.10161007502E+02  0.54838190846E+02 -0.12362906730E+03  0.13569116379E+03  0.41800000000E+01 0. -1.
         -5    1    3    3    0  502 -0.98434139272E+02 -0.81634607529E+01 -0.60234570899E+03  0.61040457682E+03  0.41800000000E+01 0. -1.
        -11    1    1    2    0    0  0.10079418663E+02  0.17524009414E+02 -0.61567188295E+01  0.21132694415E+02  0.00000000000E+00 0.  1.
         11    1    1    2    0    0  0.98515728112E+02 -0.64198739507E+02 -0.22614068911E+03  0.25488514690E+03  0.00000000000E+00 0. -1.
</event>
<event>
 7    1  0.2841804E-009  0.1054558E+03  0.7561462E-02  0.1269224E+00
          2   -1    0    0  501    0  0.00000000000E+00  0.00000000000E+00  0.69548995119E+03  0.69548995119E+03  0.00000000000E+00 0. -1.
         -2   -1    0    0    0  501 -0.00000000000E+00 -0.00000000000E+00 -0.27820654966E+02  0.27820654966E+02  0.00000000000E+00 0.  1.
         25    2    1    2    0    0 -0.50009977254E+02 -0.63323657689E+02  0.43523276536E+03  0.45998498169E+03  0.12509092651E+03 0.  0.
          5    1    3    3  502    0  0.29021376245E+02 -0.22022323713E+02  0.26725886461E+03  0.26976285165E+03  0.41800000000E+01 0.  1.
         -5    1    3    3    0  502 -0.79031353499E+02 -0.41301333976E+02  0.16797390075E+03  0.19022213004E+03  0.41800000000E+01 0.  1.
        -11    1    1    2    0    0  0.49708848739E+02  0.46257955398E+02  0.23626849535E+03  0.24583240221E+03  0.00000000000E+00 0. -1.
         11    1    1    2    0    0  0.30112851468E+00  0.17065702291E+02 -0.38319644825E+01  0.17493222255E+02  0.00000000000E+00 0.  1.
</event>
<event>
 7    1  0.2912169E-009  0.1083491E+03  0.7561462E-02  0.1263658E+00
          1   -1    0    0  501    0  0.00000000000E+00  0.00000000000E+00  0.29590085023E+03  0.29590085023E+03  0.00000000000E+00 0. -1.
         -1   -1    0    0    0  501 -0.00000000000E+00 -0.00000000000E+00 -0.76091843727E+02  0.76091843727E+02  0.00000000000E+00 0.  1.
         25    2    1    2    0    0 -0.34566947156E+02 -0.13906849976E+02 -0.59286688398E+00  0.13053280866E+03  0.12510071276E+03 0.  0.
          5    1    3    3  502    0 -0.31488507100E+02  0.52185134211E+02 -0.14510678264E+02  0.62792089435E+02  0.41800000000E+01 0.  1.
         -5    1    3    3    0  502 -0.30784400556E+01 -0.66091984187E+02  0.13917811380E+02  0.67740719221E+02  0.41800000000E+01 0.  1.
        -11    1    1    2    0    0  0.56470724339E+02 -0.94875238243E+01  0.86212457573E+02  0.10349658766E+03  0.00000000000E+00 0.  1.
         11    1    1    2    0    0 -0.21903777183E+02  0.23394373800E+02  0.13418941582E+03  0.13796329765E+03  0.00000000000E+00 0. -1.
</event>
<event>
 7    1  0.2841804E-009  0.4715796E+02  0.7561462E-02  0.1461303E+00
          2   -1    0    0  501    0  0.00000000000E+00  0.00000000000E+00  0.11557116641E+03  0.11557116641E+03  0.00000000000E+00 0. -1.
         -2   -1    0    0    0  501 -0.00000000000E+00 -0.00000000000E+00 -0.13341763795E+03  0.13341763795E+03  0.00000000000E+00 0.  1.
         25    2    1    2    0    0 -0.44147916146E+02  0.43340236216E+01 -0.51760801690E+02  0.14245627606E+03  0.12508712059E+03 0.  0.
          5    1    3    3  502    0 -0.55739654003E+01 -0.62147819581E+01  0.40633437728E+02  0.41692220697E+02  0.41800000000E+01 0.  1.
         -5    1    3    3    0  502 -0.38573950746E+02  0.10548805580E+02 -0.92394239419E+02  0.10076405536E+03  0.41800000000E+01 0.  1.
        -11    1    1    2    0    0  0.25804684870E+02 -0.55254016652E+01 -0.30042201354E+02  0.39986818915E+02  0.00000000000E+00 0.  1.
         11    1    1    2    0    0  0.18343231277E+02  0.11913780436E+01  0.63956531509E+02  0.66545709389E+02  0.00000000000E+00 0. -1.
</event>
<event>
 7    1  0.2841804E-009  0.1147113E+03  0.7561462E-02  0.1252086E+00
         -3   -1    0    0    0  501 -0.00000000000E+00  0.00000000000E+00  0.28416922459E+03  0.28416922459E+03  0.00000000000E+00 0.  1.
          3   -1    0    0  501    0  0.00000000000E+00 -0.00000000000E+00 -0.58221456005E+02  0.58221456005E+02  0.00000000000E+00 0. -1.
         25    2    1    2    0    0 -0.32580755688E+02  0.15427463537E+02  0.20160644638E+03  0.23998507336E+03  0.12509262144E+03 0.  0.
          5    1    3    3  502    0 -0.59499266346E+02 -0.37608709545E+02  0.10600673604E+03  0.12731644912E+03  0.41800000000E+01 0.  1.
         -5    1    3    3    0  502  0.26918510658E+02  0.53036173082E+02  0.95599710343E+02  0.11266862424E+03  0.41800000000E+01 0.  1.
        -11    1    1    2    0    0  0.45194373606E+02  0.28603017159E+02  0.16211534948E+02  0.55888083359E+02  0.00000000000E+00 0.  1.
         11    1    1    2    0    0 -0.12613617918E+02 -0.44030480696E+02  0.81297872588E+01  0.46517523883E+02  0.00000000000E+00 0. -1.
</event>
<event>
 7    1  0.2841804E-009  0.9762963E+02  0.7561462E-02  0.1285361E+00
          2   -1    0    0  501    0  0.00000000000E+00  0.00000000000E+00  0.66738488681E+02  0.66738488681E+02  0.00000000000E+00 0. -1.
         -2   -1    0    0    0  501 -0.00000000000E+00 -0.00000000000E+00 -0.20917303121E+03  0.20917303121E+03  0.00000000000E+00 0.  1.
         25    2    1    2    0    0  0.27260225946E+02 -0.33190954960E+02 -0.91955265286E+02  0.16108730934E+03  0.12509432844E+03 0.  0.
          5    1    3    3  502    0 -0.37023529729E+02 -0.33999754801E+02 -0.81462162180E+02  0.95813784745E+02  0.41800000000E+01 0. -1.
         -5    1    3    3    0  502  0.64283755675E+02  0.80879984055E+00 -0.10493103106E+02  0.65273524599E+02  0.41800000000E+01 0. -1.
        -11    1    1    2    0    0 -0.40621322770E+02  0.46357043102E+02 -0.66125664773E+02  0.90397294486E+02  0.00000000000E+00 0.  1.
         11    1    1    2    0    0  0.13361096824E+02 -0.13166088142E+02  0.15646387532E+02  0.24426916058E+02  0.00000000000E+00 0. -1.
</event>
<event>
 7    1  0.2841804E-009  0.9552470E+02  0.7561462E-02  0.1289999E+00
          2   -1    0    0  501    0  0.00000000000E+00  0.00000000000E+00  0.12092155155E+04  0.12092155155E+04  0.00000000000E+00 0. -1.
         -2   -1    0    0    0  501 -0.00000000000E+00 -0.00000000000E+00 -0.11210609098E+02  0.11210609098E+02  0.00000000000E+00 0.  1.
         25    2    1    2    0    0 -0.48550304862E+01  0.39800550748E+01  0.89323820844E+03  0.90197696566E+03  0.12509411417E+03 0.  0.
          5    1    3    3  502    0  0.49792824832E+02 -0.29971374356E+01  0.18710062490E+03  0.19368124452E+03  0.41800000000E+01 0.  1.
         -5    1    3    3    0  502 -0.54647855319E+02  0.69771925104E+01  0.70613758354E+03  0.70829572114E+03  0.41800000000E+01 0.  1.
        -11    1    1    2    0    0  0.33147596944E+02  0.27749969573E+02  0.94368037406E+02  0.10379860538E+03  0.00000000000E+00 0.  1.
         11    1    1    2    0    0 -0.28292566458E+02 -0.31730024647E+02  0.21039866051E+03  0.21465055351E+03  0.00000000000E+00 0. -1.
</event>
<event>
 7    1  0.3269095E-009  0.1038287E+03  0.7561462E-02  0.1272445E+00
         -4   -1    0    0    0  501 -0.00000000000E+00  0.00000000000E+00  0.54729224279E+02  0.54729224279E+02  0.00000000000E+00 0.  1.
          4   -1    0    0  501    0  0.00000000000E+00 -0.00000000000E+00 -0.41148776186E+03  0.41148776186E+03  0.00000000000E+00 0. -1.
         25    2    1    2    0    0 -0.73280288804E+02  0.58513002061E+02 -0.26113286938E+03  0.30435579578E+03  0.12509317654E+03 0.  0.
          5    1    3    3  502    0 -0.49741771801E+02  0.61514036763E+01 -0.16333918393E+02  0.52880553318E+02  0.41800000000E+01 0. -1.
         -5    1    3    3    0  502 -0.23538517003E+02  0.52361598385E+02 -0.24479895098E+03  0.25147524246E+03  0.41800000000E+01 0. -1.
        -11    1    1    2    0    0  0.28543363614E+02 -0.44599094740E+02 -0.10165991773E+03  0.11462347810E+03  0.00000000000E+00 0. -1.
         11    1    1    2    0    0  0.44736925191E+02 -0.13913907321E+02  0.60342495266E+01  0.47237712262E+02  0.00000000000E+00 0.  1.
</event>
<event>
 7    1  0.2841804E-009  0.1932198E+03  0.7561462E-02  0.1155589E+00
         -1   -1    0    0    0  501 -0.00000000000E+00  0.00000000000E+00  0.18394330089E+03  0.18394330089E+03  0.00000000000E+00 0.  1.
          1   -1    0    0  501    0  0.00000000000E+00 -0.00000000000E+00 -0.31079471838E+03  0.31079471838E+03  0.00000000000E+00 0. -1.
         25    2    1    2    0    0 -0.12171340473E+03 -0.12258100337E+03 -0.19405192015E+03  0.28834579709E+03  0.12508755218E+03 0.  0.
          5    1    3    3  502    0 -0.13673978460E+03 -0.67934498134E+02 -0.16380214698E+03  0.22396758802E+03  0.41800000000E+01 0.  1.
         -5    1    3    3    0  502  0.15026379873E+02 -0.54646505234E+02 -0.30249773171E+02  0.64378209071E+02  0.41800000000E+01 0.  1.
        -11    1    1    2    0    0  0.10057636184E+03  0.77142529303E+02  0.54581072716E+01  0.12687145196E+03  0.00000000000E+00 0. -1.
         11    1    1    2    0    0  0.21137042888E+02  0.45438474065E+02  0.61742395392E+02  0.79520770219E+02  0.00000000000E+00 0.  1.
</event>
<event>
 7    1  0.2841804E-009  0.1086184E+03  0.7561462E-02  0.1263150E+00
         -1   -1    0    0    0  501 -0.00000000000E+00  0.00000000000E+00  0.59916710893E+02  0.59916710893E+02  0.00000000000E+00 0.  1.
          1   -1    0    0  501    0  0.00000000000E+00 -0.00000000000E+00 -0.22110295832E+03  0.22110295832E+03  0.00000000000E+00 0. -1.
         25    2    1    2    0    0  0.27433870306E+02  0.56059150095E+01 -0.56950398404E+02  0.14026525227E+03  0.12508776756E+03 0.  0.
          5    1    3    3  502    0 -0.35942882029E+02  0.38645992712E+02 -0.80161471858E+01  0.53545630419E+02  0.41800000000E+01 0.  1.
         -5    1    3    3    0  502  0.63376752334E+02 -0.33040077703E+02 -0.48934251218E+02  0.86719621847E+02  0.41800000000E+01 0.  1.
        -11    1    1    2    0    0 -0.55629941662E+02 -0.22299585955E+02 -0.53390739661E+02  0.80265391201E+02  0.00000000000E+00 0.  1.
         11    1    1    2    0    0  0.28196071356E+02  0.16693670946E+02 -0.50845109360E+02  0.60489025743E+02  0.00000000000E+00 0. -1.
</event>
<event>
 7    1  0.2841804E-009  0.1190940E+03  0.7561462E-02  0.1244599E+00
         -2   -1    0    0    0  501 -0.00000000000E+00  0.00000000000E+00  0.13952079759E+03  0.13952079759E+03  0.00000000000E+00 0. -1.
          2   -1    0    0  501    0  0.00000000000E+00 -0.00000000000E+00 -0.15572431962E+03  0.15572431962E+03  0.00000000000E+00 0.  1.
         25    2    1    2    0    0 -0.80960878815E+01  0.10671138920E+03 -0.32994904616E+02  0.16789605588E+03  0.12509018596E+03 0.  0.
          5    1    3    3  502    0 -0.24879675857E+02  0.10793074162E+03 -0.67148324555E+02  0.12959326043E+03  0.41800000000E+01 0.  1.
         -5    1    3    3    0  502  0.16783587975E+02 -0.12193524220E+01  0.34153419939E+02  0.38302795449E+02  0.41800000000E+01 0.  1.
        -11    1    1    2    0    0 -0.90159297268E+01 -0.26478444355E+02 -0.22960293228E+02  0.36187982389E+02  0.00000000000E+00 0.  1.
         11    1    1    2    0    0  0.17112017608E+02 -0.80232944844E+02  0.39751675807E+02  0.91161078945E+02  0.00000000000E+00 0. -1.
</event>
<event>
 7    1  0.2841804E-009  0.7482829E+02  0.7561462E-02  0.1344404E+00
         -1   -1    0    0    0  501 -0.00000000000E+00  0.00000000000E+00  0.21961931374E+03  0.21961931374E+03  0.00000000000E+00 0.  1.
          1   -1    0    0  501    0  0.00000000000E+00 -0.00000000000E+00 -0.11577737536E+03  0.11577737536E+03  0.00000000000E+00 0. -1.
         25    2    1    2    0    0 -0.43492349557E+02 -0.77707782256E+01 -0.58605498629E+02  0.14502133644E+03  0.12507843175E+03 0.  0.
          5    1    3    3  502    0 -0.17734694521E+01 -0.15595320947E+02  0.36959016226E+02  0.40370787826E+02  0.41800000000E+01 0.  1.
         -5    1    3    3    0  502 -0.41718880105E+02  0.78245427216E+01 -0.95564514855E+02  0.10465054862E+03  0.41800000000E+01 0.  1.
        -11    1    1    2    0    0  0.42006977264E+02 -0.30846548059E+02  0.12949147633E+03  0.13958559420E+03  0.00000000000E+00 0.  1.
         11    1    1    2    0    0  0.14853722931E+01  0.38617326285E+02  0.32955960679E+02  0.50789758461E+02  0.00000000000E+00 0. -1.
</event>
<event>
 7    1  0.2841804E-009  0.1178359E+03  0.7561462E-02  0.1246710E+00
         -1   -1    0    0    0  501 -0.00000000000E+00  0.00000000000E+00  0.40409901761E+02  0.40409901761E+02  0.00000000000E+00 0.  1.
          1   -1    0    0  501    0  0.00000000000E+00 -0.00000000000E+00 -0.56137707166E+03  0.56137707166E+03  0.00000000000E+00 0. -1.
         25    2    1    2    0    0 -0.19042799466E+02 -0.10496600645E+03 -0.29285494359E+03  0.33584738690E+03  0.12509579762E+03 0.  0.
          5    1    3    3  502    0  0.71809335009E+01 -0.37317499108E+02 -0.45231853535E+01  0.38497962951E+02  0.41800000000E+01 0. -1.
         -5    1    3    3    0  502 -0.26223732966E+02 -0.67648507345E+02 -0.28833175823E+03  0.29734942395E+03  0.41800000000E+01 0. -1.
        -11    1    1    2    0    0 -0.24127553658E+02  0.33741165224E+02 -0.30479491268E+02  0.51474308778E+02  0.00000000000E+00 0.  1.
         11    1    1    2    0    0  0.43170353123E+02  0.71224841229E+02 -0.19763273505E+03  0.21446527775E+03  0.00000000000E+00 0. -1.
</event>
<event>
 7    1  0.2841804E-009  0.1390708E+03  0.7561462E-02  0.1214585E+00
          1   -1    0    0  501    0  0.00000000000E+00  0.00000000000E+00  0.24492571692E+02  0.24492571692E+02  0.00000000000E+00 0. -1.
         -1   -1    0    0    0  501 -0.00000000000E+00 -0.00000000000E+00 -0.88046853124E+03  0.88046853124E+03  0.00000000000E+00 0.  1.
         25    2    1    2    0    0 -0.28761023590E+02 -0.93987403446E+02 -0.47722507674E+03  0.50304296980E+03  0.12509047574E+03 0.  0.
          5    1    3    3  502    0  0.48939278396E+02 -0.48094956776E+02 -0.20822072855E+03  0.21927499181E+03  0.41800000000E+01 0.  1.
         -5    1    3    3    0  502 -0.77700301985E+02 -0.45892446670E+02 -0.26900434819E+03  0.28376797799E+03  0.41800000000E+01 0.  1.
        -11    1    1    2    0    0  0.21609387631E+02 -0.29939401035E+01 -0.17977773180E+02  0.28268881118E+02  0.00000000000E+00 0. -1.
         11    1    1    2    0    0  0.71516359586E+01  0.96981343550E+02 -0.36077310963E+03  0.37364925201E+03  0.00000000000E+00 0.  1.
</event>
<event>
 7    1  0.2841804E-009  0.1165438E+03  0.7561462E-02  0.1248910E+00
         -2   -1    0    0    0  501 -0.00000000000E+00  0.00000000000E+00  0.16777434695E+02  0.16777434695E+02  0.00000000000E+00 0.  1.
          2   -1    0    0  501    0  0.00000000000E+00 -0.00000000000E+00 -0.12363573372E+04  0.12363573372E+04  0.00000000000E+00 0. -1.
         25    2    1    2    0    0  0.87566593742E+02 -0.28412730845E+02 -0.74316448831E+03  0.75922075242E+03  0.12508997809E+03 0.  0.
          5    1    3    3  502    0  0.62337029739E+01  0.11958140903E+02 -0.49050133098E+03  0.49070447754E+03  0.41800000000E+01 0.  1.
         -5    1    3    3    0  502  0.81332890768E+02 -0.40370871748E+02 -0.25266315733E+03  0.26851627489E+03  0.41800000000E+01 0.  1.
        -11    1    1    2    0    0  0.18430497171E+02  0.81661141552E+01 -0.46882026833E+02  0.51032274947E+02  0.00000000000E+00 0. -1.
         11    1    1    2    0    0 -0.10599709091E+03  0.20246616690E+02 -0.42953338734E+03  0.44288174450E+03  0.00000000000E+00 0.  1.
</event>
<event>
 7    1  0.2841804E-009  0.9297477E+02  0.7561462E-02  0.1295804E+00
         -2   -1    0    0    0  501 -0.00000000000E+00  0.00000000000E+00  0.14770610227E+03  0.14770610227E+03  0.00000000000E+00 0. -1.
          2   -1    0    0  501    0  0.00000000000E+00 -0.00000000000E+00 -0.92421381591E+02  0.92421381591E+02  0.00000000000E+00 0.  1.
         25    2    1    2    0    0 -0.20000174213E+02  0.32081007446E+01 -0.14698362982E+02  0.12756815691E+03  0.12508914383E+03 0.  0.
          5    1    3    3  502    0 -0.49833877097E+02 -0.46642520219E+02 -0.55653732657E+01  0.68610391185E+02  0.41800000000E+01 0.  1.
         -5    1    3    3    0  502  0.29833702884E+02  0.49850620964E+02 -0.91329897159E+01  0.58957765726E+02  0.41800000000E+01 0.  1.
        -11    1    1    2    0    0  0.15270298162E+02  0.25771644378E+02 -0.64828304732E+01  0.30649416810E+02  0.00000000000E+00 0.  1.
         11    1    1    2    0    0  0.47298760516E+01 -0.28979745122E+02  0.76465914138E+02  0.81909910144E+02  0.00000000000E+00 0. -1.
</event>
<event>
 7    1  0.3092788E-009  0.9950637E+02  0.7561462E-02  0.1281337E+00
         -2   -1    0    0    0  501 -0.00000000000E+00  0.00000000000E+00  0.87777425207E+01  0.87777425207E+01  0.00000000000E+00 0.  1.
          2   -1    0    0  501    0  0.00000000000E+00 -0.00000000000E+00 -0.23349662929E+04  0.23349662929E+04  0.00000000000E+00 0. -1.
         25    2    1    2    0    0  0.42708411020E+02 -0.57231083687E+02 -0.17467176169E+04  0.17526465344E+04  0.12509211145E+03 0.  0.
          5    1    3    3  502    0  0.45457452349E+02 -0.28177654824E+02 -0.25239231675E+03  0.25803045200E+03  0.41800000000E+01 0.  1.
         -5    1    3    3    0  502 -0.27490413291E+01 -0.29053428863E+02 -0.14943253001E+04  0.14946160825E+04  0.41800000000E+01 0.  1.
        -11    1    1    2    0    0 -0.40352037178E+02 -0.15419285248E+02 -0.18408758791E+03  0.18908802523E+03  0.00000000000E+00 0.  1.
         11    1    1    2    0    0 -0.23563738417E+01  0.72650368935E+02 -0.39538334557E+03  0.40200947571E+03  0.00000000000E+00 0. -1.
</event>
<event>
 7    1  0.2841804E-009  0.1095319E+03  0.7561462E-02  0.1261439E+00
          3   -1    0    0  501    0  0.00000000000E+00  0.00000000000E+00  0.15074105711E+03  0.15074105711E+03  0.00000000000E+00 0. -1.
         -3   -1    0    0    0  501 -0.00000000000E+00 -0.00000000000E+00 -0.12957288425E+03  0.12957288425E+03  0.00000000000E+00 0.  1.
         25    2    1    2    0    0  0.18106317387E+02 -0.71574102558E+02  0.44649318876E+01  0.14532539823E+03  0.12509534311E+03 0.  0.
          5    1    3    3  502    0 -0.12188898278E+02 -0.10043978399E+03 -0.76784924461E+01  0.10155368578E+03  0.41800000000E+01 0.  1.
         -5    1    3    3    0  502  0.30295215665E+02  0.28865681428E+02  0.12143424334E+02  0.43771712453E+02  0.41800000000E+01 0.  1.
        -11    1    1    2    0    0  0.33441042623E+01  0.98372583277E+01  0.57177466067E+02  0.58113830630E+02  0.00000000000E+00 0. -1.
         11    1    1    2    0    0 -0.21450421649E+02  0.61736844230E+02 -0.40474225091E+02  0.76874712495E+02  0.00000000000E+00 0.  1.
</event>
<event>
 7    1  0.2841804E-009  0.1058483E+03  0.7561462E-02  0.1268457E+00
         -4   -1    0    0    0  501 -0.00000000000E+00  0.00000000000E+00  0.34325345495E+02  0.34325345495E+02  0.00000000000E+00 0.  1.
          4   -1    0    0  501    0  0.00000000000E+00 -0.00000000000E+00 -0.35277136739E+03  0.35277136739E+03  0.00000000000E+00 0. -1.
         25    2    1    2    0    0 -0.20278840921E+02 -0.16439259475E+02 -0.22072375724E+03  0.25504491697E+03  0.12508977585E+03 0.  0.
          5    1    3    3  502    0 -0.63530425229E+02  0.21597968046E+02 -0.91877464620E+02  0.11384870688E+03  0.41800000000E+01 0. -1.
         -5    1    3    3    0  502  0.43251584309E+02 -0.38037227521E+02 -0.12884629262E+03  0.14119621009E+03  0.41800000000E+01 0. -1.
        -11    1    1    2    0    0  0.42087788921E+02 -0.18142399335E+02 -0.65765487497E+02  0.80160014818E+02  0.00000000000E+00 0. -1.
         11    1    1    2    0    0 -0.21808948000E+02  0.34581658810E+02 -0.31956777166E+02  0.51891781100E+02  0.00000000000E+00 0.  1.
</event>
<event>
 7    1  0.3575610E-009  0.1878819E+03  0.7561462E-02  0.1160386E+00
          1   -1    0    0  501    0  0.00000000000E+00  0.00000000000E+00  0.63226391099E+03  0.63226391099E+03  0.00000000000E+00 0. -1.
         -1   -1    0    0    0  501 -0.00000000000E+00 -0.00000000000E+00 -0.74546142810E+02  0.74546142810E+02  0.00000000000E+00 0.  1.
         25    2    1    2    0    0 -0.14444126335E+03 -0.10555619598E+03  0.19744986516E+03  0.29434640619E+03  0.12509184033E+03 0.  0.
          5    1    3    3  502    0 -0.73961759496E+02 -0.97056366094E+02  0.52527945971E+02  0.13291703268E+03  0.41800000000E+01 0. -1.
         -5    1    3    3    0  502 -0.70479503852E+02 -0.84998298821E+01  0.14492191919E+03  0.16142937351E+03  0.41800000000E+01 0. -1.
        -11    1    1    2    0    0  0.27865643098E+02  0.40180940232E+02  0.33098803657E+02  0.59046869745E+02  0.00000000000E+00 0.  1.
         11    1    1    2    0    0  0.11657562025E+03  0.65375255745E+02  0.32716909936E+03  0.35341677787E+03  0.00000000000E+00 0. -1.
</event>
<event>
 7    1  0.3196888E-009  0.1467947E+03  0.7561462E-02  0.1204468E+00
         -1   -1    0    0    0  501 -0.00000000000E+00  0.00000000000E+00  0.86444804623E+02  0.86444804623E+02  0.00000000000E+00 0.  1.
          1   -1    0    0  501    0  0.00000000000E+00 -0.00000000000E+00 -0.38106924715E+03  0.38106924715E+03  0.00000000000E+00 0. -1.
         25    2    1    2    0    0  0.64642698124E+02  0.12875292573E+03 -0.13437822546E+03  0.23336889333E+03  0.12509012187E+03 0.  0.
          5    1    3    3  502    0  0.27524212589E+02  0.88136242539E+02 -0.14984731214E+03  0.17606041259E+03  0.41800000000E+01 0. -1.
         -5    1    3    3    0  502  0.37118485535E+02  0.40616683190E+02  0.15469086670E+02  0.57308480735E+02  0.41800000000E+01 0. -1.
        -11    1    1    2    0    0 -0.20272729668E+02 -0.66579311884E+02 -0.16747497485E+02  0.71583985717E+02  0.00000000000E+00 0.  1.
         11    1    1    2    0    0 -0.44369968456E+02 -0.62173613844E+02 -0.14349871958E+03  0.16256117273E+03  0.00000000000E+00 0. -1.
</event>
<event>
 7    1  0.2841804E-009  0.1101723E+03  0.7561462E-02  0.1260251E+00
          2   -1    0    0  501    0  0.00000000000E+00  0.00000000000E+00  0.42778681304E+03  0.42778681304E+03  0.00000000000E+00 0. -1.
         -2   -1    0    0    0  501 -0.00000000000E+00 -0.00000000000E+00 -0.30901403295E+02  0.30901403295E+02  0.00000000000E+00 0.  1.
         25    2    1    2    0    0  0.34011025923E+02  0.18103332582E+01  0.25896001231E+03  0.28959951050E+03  0.12509021271E+03 0.  0.
          5    1    3    3  502    0 -0.45258758628E+02 -0.10507651095E+02  0.68333725734E+02  0.82738965650E+02  0.41800000000E+01 0. -1.
         -5    1    3    3    0  502  0.79269784551E+02  0.12317984353E+02  0.19062628658E+03  0.20686054485E+03  0.41800000000E+01 0. -1.
        -11    1    1    2    0    0 -0.23601926405E+02 -0.43988776842E+02  0.48167348052E+02  0.69369711233E+02  0.00000000000E+00 0.  1.
         11    1    1    2    0    0 -0.10409099518E+02  0.42178443584E+02  0.89758049381E+02  0.99718994603E+02  0.00000000000E+00 0. -1.
</event>
<event>
 7    1  0.2841804E-009  0.1666081E+03  0.7561462E-02  0.1181432E+00
         -1   -1    0    0    0  501 -0.00000000000E+00  0.00000000000E+00  0.48685608125E+02  0.48685608125E+02  0.00000000000E+00 0.  1.
          1   -1    0    0  501    0  0.00000000000E+00 -0.00000000000E+00 -0.71975104704E+03  0.71975104704E+03  0.00000000000E+00 0. -1.
         25    2    1    2    0    0  0.14677101522E+03 -0.33441255161E+02 -0.38339974837E+03  0.43046874201E+03  0.12509165574E+03 0.  0.
          5    1    3    3  502    0  0.11323299225E+03  0.16349529996E+01 -0.35805523732E+03  0.37556012698E+03  0.41800000000E+01 0.  1.
         -5    1    3    3    0  502  0.33538022966E+02 -0.35076208161E+02 -0.25344511054E+02  0.54908615025E+02  0.41800000000E+01 0.  1.
        -11    1    1    2    0    0 -0.93734940693E+02 -0.20052830464E+02 -0.11585277752E+03  0.15036695507E+03  0.00000000000E+00 0.  1.
         11    1    1    2    0    0 -0.53036074524E+02  0.53494085625E+02 -0.17181291301E+03  0.18760095809E+03  0.00000000000E+00 0. -1.
</event>
<event>
 7    1  0.2841804E-009  0.8766642E+02  0.7561462E-02  0.1308603E+00
          2   -1    0    0  501    0  0.00000000000E+00  0.00000000000E+00  0.41300525576E+02  0.41300525576E+02  0.00000000000E+00 0. -1.
         -2   -1    0    0    0  501 -0.00000000000E+00 -0.00000000000E+00 -0.32880859900E+03  0.32880859900E+03  0.00000000000E+00 0.  1.
         25    2    1    2    0    0  0.38190993545E+00 -0.25185269899E+01 -0.23768054906E+03  0.26859964761E+03  0.12508892221E+03 0.  0.
          5    1    3    3  502    0 -0.19825158965E+02  0.37482255496E+02 -0.21309534918E+03  0.21731326846E+03  0.41800000000E+01 0. -1.
         -5    1    3    3    0  502  0.20207068900E+02 -0.40000782486E+02 -0.24585199877E+02  0.51286379147E+02  0.41800000000E+01 0. -1.
        -11    1    1    2    0    0 -0.22127645382E+02  0.39233794691E+02 -0.19101223239E+02  0.48926271728E+02  0.00000000000E+00 0. -1.
         11    1    1    2    0    0  0.21745735447E+02 -0.36715267701E+02 -0.30726301122E+02  0.52583205238E+02  0.00000000000E+00 0.  1.
</event>
<event>
 7    1  0.2841804E-009  0.1265935E+03  0.7561462E-02  0.1232600E+00
          3   -1    0    0  501    0  0.00000000000E+00  0.00000000000E+00  0.56238962666E+02  0.56238962666E+02  0.00000000000E+00 0. -1.
         -3   -1    0    0    0  501 -0.00000000000E+00 -0.00000000000E+00 -0.55340553650E+03  0.55340553650E+03  0.00000000000E+00 0.  1.
         25    2    1    2    0    0  0.96207201268E+02 -0.17041748335E+02 -0.92096322525E+02  0.18350867777E+03  0.12508978948E+03 0.  0.
          5    1    3    3  502    0  0.12355132560E+02  0.33155745786E+02 -0.76586392909E+02  0.84468341750E+02  0.41800000000E+01 0. -1.
         -5    1    3    3    0  502  0.83852068707E+02 -0.50197494121E+02 -0.15509929617E+02  0.99040336021E+02  0.41800000000E+01 0. -1.
        -11    1    1    2    0    0 -0.64798323156E+02 -0.23080047196E+02 -0.13737029394E+03  0.15362977875E+03  0.00000000000E+00 0. -1.
         11    1    1    2    0    0 -0.31408878111E+02  0.40121795530E+02 -0.26769995738E+03  0.27250604265E+03  0.00000000000E+00 0.  1.
</event>
<event>
 7    1  0.2841804E-009  0.1455153E+03  0.7561462E-02  0.1206095E+00
          3   -1    0    0  501    0  0.00000000000E+00  0.00000000000E+00  0.33903479227E+02  0.33903479227E+02  0.00000000000E+00 0. -1.
         -3   -1    0    0    0  501 -0.00000000000E+00 -0.00000000000E+00 -0.63750425635E+03  0.63750425635E+03  0.00000000000E+00 0.  1.
         25    2    1    2    0    0 -0.49488760967E+02 -0.85680067374E+02 -0.29984937552E+03  0.33962582696E+03  0.12508334393E+03 0.  0.
          5    1    3    3  502    0 -0.42687930353E+02 -0.11746031842E+03 -0.21575449070E+03  0.24937252948E+03  0.41800000000E+01 0.  1.
         -5    1    3    3    0  502 -0.68008306139E+01  0.31780251043E+02 -0.84094884820E+02  0.90253297482E+02  0.41800000000E+01 0.  1.
        -11    1    1    2    0    0  0.41747897262E+02 -0.51435337657E+01 -0.86613315309E+02  0.96287118839E+02  0.00000000000E+00 0.  1.
         11    1    1    2    0    0  0.77408637044E+01  0.90823601139E+02 -0.21713808629E+03  0.23549478978E+03  0.00000000000E+00 0. -1.
</event>
<event>
 7    1  0.2841804E-009  0.6095567E+02  0.7561462E-02  0.1393864E+00
          2   -1    0    0  501    0  0.00000000000E+00  0.00000000000E+00  0.27765496572E+03  0.27765496572E+03  0.00000000000E+00 0.  1.
         -2   -1    0    0    0  501 -0.00000000000E+00 -0.00000000000E+00 -0.48917025127E+02  0.48917025127E+02  0.00000000000E+00 0. -1.
         25    2    1    2    0    0  0.37240862104E+02 -0.10977689935E+02  0.15632323906E+03  0.20394107115E+03  0.12509042308E+03 0.  0.
          5    1    3    3  502    0  0.50382158078E+02  0.90077795774E+01  0.16894379094E+03  0.17657570287E+03  0.41800000000E+01 0.  1.
         -5    1    3    3    0  502 -0.13141295974E+02 -0.19985469513E+02 -0.12620551885E+02  0.27365368285E+02  0.41800000000E+01 0.  1.
        -11    1    1    2    0    0 -0.24538909025E+02 -0.58193849950E+01  0.91069897048E+02  0.94497351530E+02  0.00000000000E+00 0.  1.
         11    1    1    2    0    0 -0.12701953079E+02  0.16797074930E+02 -0.18655195509E+02  0.28133568166E+02  0.00000000000E+00 0. -1.
</event>
<event>
 7    1  0.2841804E-009  0.1156361E+03  0.7561462E-02  0.1250475E+00
         -3   -1    0    0    0  501 -0.00000000000E+00  0.00000000000E+00  0.71157339255E+02  0.71157339255E+02  0.00000000000E+00 0.  1.
          3   -1    0    0  501    0  0.00000000000E+00 -0.00000000000E+00 -0.28493446185E+03  0.28493446185E+03  0.00000000000E+00 0. -1.
         25    2    1    2    0    0  0.91084720007E+02 -0.23719139216E+02 -0.13077736598E+03  0.20398504679E+03  0.12509259002E+03 0.  0.
          5    1    3    3  502    0 -0.18118408969E+02  0.77953860184E+01 -0.74321448530E+02  0.77007758689E+02  0.41800000000E+01 0. -1.
         -5    1    3    3    0  502  0.10920312898E+03 -0.31514525235E+02 -0.56455917452E+02  0.12697728810E+03  0.41800000000E+01 0. -1.
        -11    1    1    2    0    0 -0.37332644579E+02 -0.27963670442E+01  0.12403513267E+02  0.39438473110E+02  0.00000000000E+00 0.  1.
         11    1    1    2    0    0 -0.53752075428E+02  0.26515506260E+02 -0.95403269879E+02  0.11266828120E+03  0.00000000000E+00 0. -1.
</event>
<event>
 7    1  0.2841804E-009  0.9926372E+02  0.7561462E-02  0.1281852E+00
          1   -1    0    0  501    0  0.00000000000E+00  0.00000000000E+00  0.22836661691E+03  0.22836661691E+03  0.00000000000E+00 0. -1.
         -1   -1    0    0    0  501 -0.00000000000E+00 -0.00000000000E+00 -0.54296537438E+02  0.54296537438E+02  0.00000000000E+00 0.  1.
         25    2    1    2    0    0  0.67042446859E+01 -0.24846758359E+02  0.69687857659E+02  0.14548541866E+03  0.12508917315E+03 0.  0.
          5    1    3    3  502    0 -0.32833386803E+02 -0.58859750444E+02  0.63683635804E+02  0.92820145337E+02  0.41800000000E+01 0. -1.
         -5    1    3    3    0  502  0.39537631489E+02  0.34012992085E+02  0.60042218549E+01  0.52665273325E+02  0.41800000000E+01 0. -1.
        -11    1    1    2    0    0 -0.29568383118E+02  0.41096086975E+02  0.32873461664E+02  0.60364245432E+02  0.00000000000E+00 0.  1.
         11    1    1    2    0    0  0.22864138432E+02 -0.16249328616E+02  0.71508760147E+02  0.76813490251E+02  0.00000000000E+00 0. -1.
</event>
<event>
 7    1  0.2841804E-009  0.1365492E+03  0.7561462E-02  0.1218049E+00
         -1   -1    0    0    0  501 -0.00000000000E+00  0.00000000000E+00  0.32547757440E+02  0.32547757440E+02  0.00000000000E+00 0.  1.
          1   -1    0    0  501    0  0.00000000000E+00 -0.00000000000E+00 -0.65003321949E+03  0.65003321949E+03  0.00000000000E+00 0. -1.
         25    2    1    2    0    0 -0.82033376497E+02 -0.41381204968E+02 -0.39786470033E+03  0.42706275110E+03  0.12507755445E+03 0.  0.
          5    1    3    3  502    0 -0.16143099252E+02  0.39010844906E+02 -0.18927458833E+03  0.19397110058E+03  0.41800000000E+01 0.  1.
         -5    1    3    3    0  502 -0.65890277245E+02 -0.80392049874E+02 -0.20859011200E+03  0.23309165052E+03  0.41800000000E+01 0.  1.
        -11    1    1    2    0    0  0.92647873255E+02  0.96072483862E+01 -0.18620076363E+03  0.20819858793E+03  0.00000000000E+00 0.  1.
         11    1    1    2    0    0 -0.10614496758E+02  0.31773956582E+02 -0.33419998093E+02  0.47319637898E+02  0.00000000000E+00 0. -1.
</event>
<event>
 7    1  0.2841804E-009  0.1520721E+03  0.7561462E-02  0.1197950E+00
         -1   -1    0    0    0  501 -0.00000000000E+00  0.00000000000E+00  0.68285921356E+02  0.68285921356E+02  0.00000000000E+00 0.  1.
          1   -1    0    0  501    0  0.00000000000E+00 -0.00000000000E+00 -0.54054468341E+03  0.54054468341E+03  0.00000000000E+00 0. -1.
         25    2    1    2    0    0  0.42719324523E+01 -0.14426728600E+03 -0.34537406646E+03  0.39466735327E+03  0.12509106577E+03 0.  0.
          5    1    3    3  502    0 -0.21480705700E+02 -0.12495590583E+03 -0.14926443873E+03  0.19588962246E+03  0.41800000000E+01 0.  1.
         -5    1    3    3    0  502  0.25752638153E+02 -0.19311380174E+02 -0.19610962773E+03  0.19877773081E+03  0.41800000000E+01 0.  1.
        -11    1    1    2    0    0 -0.47752963003E+01  0.20115852177E+02  0.15064185106E+02  0.25580864655E+02  0.00000000000E+00 0.  1.
         11    1    1    2    0    0  0.50336384804E+00  0.12415143382E+03 -0.14194888070E+03  0.18858238684E+03  0.00000000000E+00 0. -1.
</event>
<event>
 7    1  0.2841804E-009  0.1725946E+03  0.7561462E-02  0.1175169E+00
          2   -1    0    0  501    0  0.00000000000E+00  0.00000000000E+00  0.20228538760E+03  0.20228538760E+03  0.00000000000E+00 0. -1.
         -2   -1    0    0    0  501 -0.00000000000E+00 -0.00000000000E+00 -0.16308484513E+03  0.16308484513E+03  0.00000000000E+00 0.  1.
         25    2    1    2    0    0 -0.12375557911E+03  0.67006529198E+02  0.55562545046E+02  0.19631687894E+03  0.12509117566E+03 0.  0.
          5    1    3    3  502    0 -0.48859812775E+02 -0.28817000920E+02  0.47938658835E+02  0.74386075695E+02  0.41800000000E+01 0.  1.
         -5    1    3    3    0  502 -0.74895766332E+02  0.95823530118E+02  0.76238862110E+01  0.12193080324E+03  0.41800000000E+01 0.  1.
        -11    1    1    2    0    0  0.77821553048E+02  0.84512953326E+01 -0.19453212446E+02  0.80660064381E+02  0.00000000000E+00 0. -1.
         11    1    1    2    0    0  0.45934026060E+02 -0.75457824531E+02  0.30912098724E+01  0.88393289403E+02  0.00000000000E+00 0.  1.
</event>
<event>
 7    1  0.2841804E-009  0.9343194E+02  0.7561462E-02  0.1294747E+00
          1   -1    0    0  501    0  0.00000000000E+00  0.00000000000E+00  0.53866642563E+03  0.53866642563E+03  0.00000000000E+00 0. -1.
         -1   -1    0    0    0  501 -0.00000000000E+00 -0.00000000000E+00 -0.33100995357E+02  0.33100995357E+02  0.00000000000E+00 0.  1.
         25    2    1    2    0    0 -0.32447633562E+02 -0.72403261662E+02  0.34618732709E+03  0.37654856576E+03  0.12509226880E+03 0.  0.
          5    1    3    3  502    0 -0.30608228621E+02  0.30303272089E+01  0.26031140064E+03  0.26215557260E+03  0.41800000000E+01 0. -1.
         -5    1    3    3    0  502 -0.18394049406E+01 -0.75433588870E+02  0.85875926455E+02  0.11439299316E+03  0.41800000000E+01 0. -1.
        -11    1    1    2    0    0  0.18192224298E+02  0.26181600459E+02  0.35765413965E+01  0.32081534812E+02  0.00000000000E+00 0.  1.
         11    1    1    2    0    0  0.14255409263E+02  0.46221661202E+02  0.15580156179E+03  0.16313732042E+03  0.00000000000E+00 0. -1.
</event>
<event>
 7    1  0.2841804E-009  0.1002672E+03  0.7561462E-02  0.1279735E+00
          2   -1    0    0  501    0  0.00000000000E+00  0.00000000000E+00  0.69668843627E+02  0.69668843627E+02  0.00000000000E+00 0. -1.
         -2   -1    0    0    0  501 -0.00000000000E+00 -0.00000000000E+00 -0.36152497704E+03  0.36152497704E+03  0.00000000000E+00 0.  1.
         25    2    1    2    0    0  0.22879798217E+02  0.54561447487E+02 -0.29048080111E+03  0.32175614738E+03  0.12508991104E+03 0.  0.
          5    1    3    3  502    0 -0.62434942914E+00 -0.29111625590E+02 -0.15323115185E+02  0.33168461159E+02  0.41800000000E+01 0. -1.
         -5    1    3    3    0  502  0.23504147646E+02  0.83673073077E+02 -0.27515768592E+03  0.28858768622E+03  0.41800000000E+01 0. -1.
        -11    1    1    2    0    0  0.15059352825E+02 -0.41226786643E+02  0.34281084120E+02  0.55692232608E+02  0.00000000000E+00 0. -1.
         11    1    1    2    0    0 -0.37939151042E+02 -0.13334660844E+02 -0.35656416424E+02  0.53745440679E+02  0.00000000000E+00 0.  1.
</event>
<event>
 7    1  0.2841804E-009  0.1114133E+03  0.7561462E-02  0.1257975E+00
          1   -1    0    0  501    0  0.00000000000E+00  0.00000000000E+00  0.84183586631E+03  0.84183586631E+03  0.00000000000E+00 0. -1.
         -1   -1    0    0    0  501 -0.00000000000E+00 -0.00000000000E+00 -0.23105155353E+02  0.23105155353E+02  0.00000000000E+00 0.  1.
         25    2    1    2    0    0 -0.65962593591E+02 -0.13475274949E+02  0.62457560448E+03  0.64052431646E+03  0.12507624667E+03 0.  0.
          5    1    3    3  502    0 -0.38179660993E+02  0.40631731004E+02  0.48503055089E+03  0.48824249280E+03  0.41800000000E+01 0. -1.
         -5    1    3    3    0  502 -0.27782932599E+02 -0.54107005953E+02  0.13954505359E+03  0.15228182366E+03  0.41800000000E+01 0. -1.
        -11    1    1    2    0    0  0.80169148965E+02  0.28675070623E+02  0.11826020434E+03  0.14572174872E+03  0.00000000000E+00 0.  1.
         11    1    1    2    0    0 -0.14206555374E+02 -0.15199795675E+02  0.75894902144E+02  0.78694956482E+02  0.00000000000E+00 0. -1.
</event>
<event>
 7    1  0.2841804E-009  0.1153856E+03  0.7561462E-02  0.1250909E+00
          3   -1    0    0  501    0  0.00000000000E+00  0.00000000000E+00  0.69764472134E+02  0.69764472134E+02  0.00000000000E+00 0. -1.
         -3   -1    0    0    0  501 -0.00000000000E+00 -0.00000000000E+00 -0.29173895844E+03  0.29173895844E+03  0.00000000000E+00 0.  1.
         25    2    1    2    0    0 -0.32861991623E+02  0.59472712815E+02 -0.43364803878E+02  0.14881143337E+03  0.12508965754E+03 0.  0.
          5    1    3    3  502    0 -0.24344644301E+02  0.98814663800E+02 -0.32359096004E+02  0.10687180630E+03  0.41800000000E+01 0.  1.
         -5    1    3    3    0  502 -0.85173473217E+01 -0.39341950986E+02 -0.11005707874E+02  0.41939627068E+02  0.41800000000E+01 0.  1.
        -11    1    1    2    0    0  0.44635526044E+02 -0.23188081002E+02 -0.16450166556E+03  0.17201981066E+03  0.00000000000E+00 0.  1.
         11    1    1    2    0    0 -0.11773534421E+02 -0.36284631813E+02 -0.14108016866E+02  0.40672186546E+02  0.00000000000E+00 0. -1.
</event>
<event>
 7    1  0.2841804E-009  0.1694690E+03  0.7561462E-02  0.1178403E+00
          2   -1    0    0  501    0  0.00000000000E+00  0.00000000000E+00  0.18734004083E+04  0.18734004083E+04  0.00000000000E+00 0. -1.
         -2   -1    0    0    0  501 -0.00000000000E+00 -0.00000000000E+00 -0.17471098845E+02  0.17471098845E+02  0.00000000000E+00 0.  1.
         25    2    1    2    0    0  0.12596522662E+03  0.35939586778E+02  0.12557856399E+04  0.12687803203E+04  0.12508811073E+03 0.  0.
          5    1    3    3  502    0  0.13741346681E+03  0.98691847090E-01  0.10950982806E+04  0.11036938829E+04  0.41800000000E+01 0.  1.
         -5    1    3    3    0  502 -0.11448240192E+02  0.35840894931E+02  0.16068735934E+03  0.16508643737E+03  0.41800000000E+01 0.  1.
        -11    1    1    2    0    0 -0.14176257949E+03 -0.39992313355E+02  0.53106949918E+03  0.55111779778E+03  0.00000000000E+00 0.  1.
         11    1    1    2    0    0  0.15797352867E+02  0.40527265768E+01  0.69074170368E+02  0.70973389114E+02  0.00000000000E+00 0. -1.
</event>
<event>
 7    1  0.2841804E-009  0.1157956E+03  0.7561462E-02  0.1250199E+00
          3   -1    0    0  501    0  0.00000000000E+00  0.00000000000E+00  0.61406451954E+03  0.61406451954E+03  0.00000000000E+00 0. -1.
         -3   -1    0    0    0  501 -0.00000000000E+00 -0.00000000000E+00 -0.30155017381E+02  0.30155017381E+02  0.00000000000E+00 0.  1.
         25    2    1    2    0    0  0.28358381145E+01  0.60493593802E+02  0.19644399863E+03  0.24063632032E+03  0.12509227470E+03 0.  0.
          5    1    3    3  502    0  0.33122956334E+02 -0.28562221357E+02  0.75604466984E+02  0.87443916615E+02  0.41800000000E+01 0. -1.
         -5    1    3    3    0  502 -0.30287118219E+02  0.89055815159E+02  0.12083953164E+03  0.15319240370E+03  0.41800000000E+01 0. -1.
        -11    1    1    2    0    0  0.28895556545E+02 -0.53797637548E+02  0.34385936385E+03  0.34923974731E+03  0.00000000000E+00 0. -1.
         11    1    1    2    0    0 -0.31731394660E+02 -0.66959562545E+01  0.43606139688E+02  0.54343469301E+02  0.00000000000E+00 0.  1.
</event>
<event>
 7    1  0.2841804E-009  0.8945303E+02  0.7561462E-02  0.1304182E+00
          3   -1    0    0  501    0  0.00000000000E+00  0.00000000000E+00  0.21003923034E+03  0.21003923034E+03  0.00000000000E+00 0. -1.
         -3   -1    0    0    0  501 -0.00000000000E+00 -0.00000000000E+00 -0.71135218728E+02  0.71135218728E+02  0.00000000000E+00 0.  1.
         25    2    1    2    0    0 -0.53220272891E+02 -0.73990925881E+01  0.96593190905E+02  0.16691830185E+03  0.12507729988E+03 0.  0.
          5    1    3    3  502    0 -0.42995723405E+02 -0.29855039081E+02 -0.13334624269E+02  0.54177857046E+02  0.41800000000E+01 0.  1.
         -5    1    3    3    0  502 -0.10224549486E+02  0.22455946493E+02  0.10992781517E+03  0.11274044480E+03  0.41800000000E+01 0.  1.
        -11    1    1    2    0    0 -0.23939256224E+02  0.17660697793E+01 -0.36327160970E+01  0.24277636155E+02  0.00000000000E+00 0.  1.
         11    1    1    2    0    0  0.77159529115E+02  0.56330228087E+01  0.45943536800E+02  0.89978511062E+02  0.00000000000E+00 0. -1.
</event>
<event>
 7    1  0.2841804E-009  0.1445771E+03  0.7561462E-02  0.1207299E+00
         -1   -1    0    0    0  501 -0.00000000000E+00  0.00000000000E+00  0.16084004024E+03  0.16084004024E+03  0.00000000000E+00 0.  1.
          1   -1    0    0  501    0  0.00000000000E+00 -0.00000000000E+00 -0.19650481234E+03  0.19650481234E+03  0.00000000000E+00 0. -1.
         25    2    1    2    0    0  0.18694008652E+02 -0.11369555761E+03 -0.10160256340E+03  0.19811020606E+03  0.12509367321E+03 0.  0.
          5    1    3    3  502    0  0.63986104430E+02 -0.95649148244E+02 -0.93875483771E+02  0.14857005073E+03  0.41800000000E+01 0.  1.
         -5    1    3    3    0  502 -0.45292095778E+02 -0.18046409368E+02 -0.77270796269E+01  0.49540155335E+02  0.41800000000E+01 0.  1.
        -11    1    1    2    0    0  0.11971087992E+02  0.73711060573E+02 -0.19347417638E+01  0.74701878318E+02  0.00000000000E+00 0. -1.
         11    1    1    2    0    0 -0.30665096644E+02  0.39984497038E+02  0.67872533063E+02  0.84532768202E+02  0.00000000000E+00 0.  1.
</event>
<event>
 7    1  0.3115288E-009  0.1087626E+03  0.7561462E-02  0.1262879E+00
          2   -1    0    0  501    0  0.00000000000E+00  0.00000000000E+00  0.72292785563E+03  0.72292785563E+03  0.00000000000E+00 0. -1.
         -2   -1    0    0    0  501 -0.00000000000E+00 -0.00000000000E+00 -0.27507367639E+02  0.27507367639E+02  0.00000000000E+00 0.  1.
         25    2    1    2    0    0 -0.55595855378E+02 -0.48244517966E+02  0.51533164937E+03  0.53538179974E+03  0.12509408463E+03 0.  0.
          5    1    3    3  502    0  0.24553476573E+01 -0.53670191365E+02  0.81980291064E+02  0.98105854546E+02  0.41800000000E+01 0. -1.
         -5    1    3    3    0  502 -0.58051203035E+02  0.54256733995E+01  0.43335135830E+03  0.43727594520E+03  0.41800000000E+01 0. -1.
        -11    1    1    2    0    0  0.10744986988E+01  0.50599061998E+02  0.13529640923E+03  0.14445254575E+03  0.00000000000E+00 0.  1.
         11    1    1    2    0    0  0.54521356679E+02 -0.23545440327E+01  0.44792429391E+02  0.70600877774E+02  0.00000000000E+00 0. -1.
</event>
<event>
 7    1  0.2841804E-009  0.1024309E+03  0.7561462E-02  0.1275266E+00
          1   -1    0    0  501    0  0.00000000000E+00  0.00000000000E+00  0.73336188179E+03  0.73336188179E+03  0.00000000000E+00 0. -1.
         -1   -1    0    0    0  501 -0.00000000000E+00 -0.00000000000E+00 -0.22195703747E+02  0.22195703747E+02  0.00000000000E+00 0.  1.
         25    2    1    2    0    0  0.66999369942E+02  0.29651522828E+01  0.45848934399E+03  0.47996439329E+03  0.12512247029E+03 0.  0.
          5    1    3    3  502    0  0.41213496833E+02 -0.36931761697E+02  0.40298001503E+03  0.40678356931E+03  0.41800000000E+01 0. -1.
         -5    1    3    3    0  502  0.25785873110E+02  0.39896913979E+02  0.55509328957E+02  0.73180823979E+02  0.41800000000E+01 0. -1.
        -11    1    1    2    0    0 -0.68436980105E+02 -0.29913952313E+02  0.22440757360E+03  0.23651051536E+03  0.00000000000E+00 0. -1.
         11    1    1    2    0    0  0.14376101625E+01  0.26948800030E+02  0.28269260458E+02  0.39082676890E+02  0.00000000000E+00 0.  1.
</event>
<event>
 7    1  0.2841804E-009  0.2194707E+03  0.7561462E-02  0.1134278E+00
         -1   -1    0    0    0  501 -0.00000000000E+00  0.00000000000E+00  0.10975292846E+03  0.10975292846E+03  0.00000000000E+00 0.  1.
          1   -1    0    0  501    0  0.00000000000E+00 -0.00000000000E+00 -0.61429129199E+03  0.61429129199E+03  0.00000000000E+00 0. -1.
         25    2    1    2    0    0 -0.43000472054E+02  0.19917543032E+03 -0.42208897889E+03  0.48510467398E+03  0.12509015140E+03 0.  0.
          5    1    3    3  502    0 -0.80880790026E+02  0.15441237339E+03 -0.35757905748E+03  0.39782551201E+03  0.41800000000E+01 0. -1.
         -5    1    3    3    0  502  0.37880317972E+02  0.44763056923E+02 -0.64509921411E+02  0.87279161976E+02  0.41800000000E+01 0. -1.
        -11    1    1    2    0    0  0.21484886949E+02 -0.15680087966E+03 -0.10119467618E+03  0.18785227897E+03  0.00000000000E+00 0. -1.
         11    1    1    2    0    0  0.21515585105E+02 -0.42374550659E+02  0.18745291539E+02  0.51087267502E+02  0.00000000000E+00 0.  1.
</event>
<event>
 7    1  0.2841804E-009  0.4991308E+02  0.7561462E-02  0.1445811E+00
          1   -1    0    0  501    0  0.00000000000E+00  0.00000000000E+00  0.35701582378E+02  0.35701582378E+02  0.00000000000E+00 0. -1.
         -1   -1    0    0    0  501 -0.00000000000E+00 -0.00000000000E+00 -0.25196430874E+03  0.25196430874E+03  0.00000000000E+00 0.  1.
         25    2    1    2    0    0  0.33199602089E+02  0.47439883332E+00 -0.15050695250E+03  0.19850094757E+03  0.12509134583E+03 0.  0.
          5    1    3    3  502    0  0.27217974478E+02 -0.26571637551E+02  0.66730033264E+01  0.38844194293E+02  0.41800000000E+01 0.  1.
         -5    1    3    3    0  502  0.59816276101E+01  0.27046036385E+02 -0.15717995583E+03  0.15965675328E+03  0.41800000000E+01 0.  1.
        -11    1    1    2    0    0 -0.12931559230E+02 -0.25213409531E+01 -0.67448838764E+02  0.68723563898E+02  0.00000000000E+00 0.  1.
         11    1    1    2    0    0 -0.20268042858E+02  0.20469421198E+01  0.16930649005E+01  0.20441379653E+02  0.00000000000E+00 0. -1.
</event>
<event>
 7    1  0.2841804E-009  0.1929223E+03  0.7561462E-02  0.1155852E+00
         -2   -1    0    0    0  501 -0.00000000000E+00  0.00000000000E+00  0.10482736837E+03  0.10482736837E+03  0.00000000000E+00 0. -1.
          2   -1    0    0  501    0  0.00000000000E+00 -0.00000000000E+00 -0.46917135054E+03  0.46917135054E+03  0.00000000000E+00 0.  1.
         25    2    1    2    0    0 -0.14009632363E+03 -0.12445090802E+03 -0.25291711227E+03  0.33871743267E+03  0.12508966830E+03 0.  0.
          5    1    3    3  502    0 -0.13800495790E+03 -0.11541549522E+03 -0.26661022147E+03  0.32165911698E+03  0.41800000000E+01 0.  1.
         -5    1    3    3    0  502 -0.20913657308E+01 -0.90354127932E+01  0.13693109197E+02  0.17058315698E+02  0.41800000000E+01 0.  1.
        -11    1    1    2    0    0  0.13213875300E+02  0.42896425405E+02  0.44093608608E+01  0.45101577313E+02  0.00000000000E+00 0.  1.
         11    1    1    2    0    0  0.12688244833E+03  0.81554482613E+02 -0.11583623076E+03  0.19017970892E+03  0.00000000000E+00 0. -1.
</event>
<event>
 7    1  0.2841804E-009  0.1403808E+03  0.7561462E-02  0.1212818E+00
          2   -1    0    0  501    0  0.00000000000E+00  0.00000000000E+00  0.27827622902E+03  0.27827622902E+03  0.00000000000E+00 0. -1.
         -2   -1    0    0    0  501 -0.00000000000E+00 -0.00000000000E+00 -0.86924974909E+02  0.86924974909E+02  0.00000000000E+00 0.  1.
         25    2    1    2    0    0  0.72790332915E+02  0.82527540034E+02  0.11779668274E+03  0.20404182273E+03  0.12509108493E+03 0.  0.
          5    1    3    3  502    0  0.58469321680E+02  0.48821764664E+01  0.10981229592E+03  0.12457411433E+03  0.41800000000E+01 0.  1.
         -5    1    3    3    0  502  0.14321011236E+02  0.77645363567E+02  0.79843868227E+01  0.79467708406E+02  0.41800000000E+01 0.  1.
        -11    1    1    2    0    0 -0.23823466807E+02 -0.90215237517E+02  0.41423624067E+02  0.10208948664E+03  0.00000000000E+00 0.  1.
         11    1    1    2    0    0 -0.48966866108E+02  0.76876974834E+01  0.32130947304E+02  0.59069894563E+02  0.00000000000E+00 0. -1.
</event>
<event>
 7    1  0.2841804E-009  0.1597855E+03  0.7561462E-02  0.1188939E+00
          3   -1    0    0  501    0  0.00000000000E+00  0.00000000000E+00  0.48143643047E+02  0.48143643047E+02  0.00000000000E+00 0. -1.
         -3   -1    0    0    0  501 -0.00000000000E+00 -0.00000000000E+00 -0.83687294324E+03  0.83687294324E+03  0.00000000000E+00 0.  1.
         25    2    1    2    0    0  0.15267925020E+03 -0.10771643907E+02 -0.56075099788E+03  0.59457218361E+03  0.12508964046E+03 0.  0.
          5    1    3    3  502    0  0.13439326969E+03 -0.23397502355E+02 -0.26612884761E+03  0.29908365048E+03  0.41800000000E+01 0. -1.
         -5    1    3    3    0  502  0.18285980510E+02  0.12625858449E+02 -0.29462215027E+03  0.29548853314E+03  0.41800000000E+01 0. -1.
        -11    1    1    2    0    0 -0.30324437325E+02  0.22217062598E+02 -0.12366375315E+03  0.12925127934E+03  0.00000000000E+00 0.  1.
         11    1    1    2    0    0 -0.12235481287E+03 -0.11445418691E+02 -0.10431454917E+03  0.16119312333E+03  0.00000000000E+00 0. -1.
</event>
<event>
 7    1  0.2841804E-009  0.1007786E+03  0.7561462E-02  0.1278667E+00
         -1   -1    0    0    0  501 -0.00000000000E+00  0.00000000000E+00  0.51550184249E+03  0.51550184249E+03  0.00000000000E+00 0.  1.
          1   -1    0    0  501    0  0.00000000000E+00 -0.00000000000E+00 -0.37707066244E+02  0.37707066244E+02  0.00000000000E+00 0. -1.
         25    2    1    2    0    0  0.45208906742E+02  0.41944147739E+02  0.38672701526E+03  0.41110736534E+03  0.12509326411E+03 0.  0.
          5    1    3    3  502    0  0.67080207943E+02  0.27340875231E+02  0.37509605573E+03  0.38204947478E+03  0.41800000000E+01 0.  1.
         -5    1    3    3    0  502 -0.21871301200E+02  0.14603272508E+02  0.11630959531E+02  0.29057890559E+02  0.41800000000E+01 0.  1.
        -11    1    1    2    0    0 -0.58452132458E+02 -0.57463812987E+02  0.89911400168E+02  0.12166676404E+03  0.00000000000E+00 0.  1.
         11    1    1    2    0    0  0.13243225716E+02  0.15519665248E+02  0.11563608127E+01  0.20434779350E+02  0.00000000000E+00 0. -1.
</event>
<event>
 7    1  0.2841804E-009  0.1688282E+03  0.7561462E-02  0.1179075E+00
         -1   -1    0    0    0  501 -0.00000000000E+00  0.00000000000E+00  0.62349970514E+03  0.62349970514E+03  0.00000000000E+00 0.  1.
          1   -1    0    0  501    0  0.00000000000E+00 -0.00000000000E+00 -0.51615614507E+02  0.51615614507E+02  0.00000000000E+00 0. -1.
         25    2    1    2    0    0 -0.12536239697E+03  0.17554376607E+02  0.19010476086E+03  0.26040298572E+03  0.12508400439E+03 0.  0.
          5    1    3    3  502    0 -0.14995792915E+03  0.12739034461E+02  0.14732269718E+03  0.21064451813E+03  0.41800000000E+01 0. -1.
         -5    1    3    3    0  502  0.24595532183E+02  0.48153421454E+01  0.42782063684E+02  0.49758467585E+02  0.41800000000E+01 0. -1.
        -11    1    1    2    0    0 -0.17601494547E+02  0.39141809205E+00  0.49508148887E+02  0.52545433908E+02  0.00000000000E+00 0. -1.
         11    1    1    2    0    0  0.14296389152E+03 -0.17945794699E+02  0.33227118088E+03  0.36216690002E+03  0.00000000000E+00 0.  1.
</event>
<event>
 7    1  0.2841804E-009  0.4004778E+03  0.7561462E-02  0.1043614E+00
          1   -1    0    0  501    0  0.00000000000E+00  0.00000000000E+00  0.56603653840E+03  0.56603653840E+03  0.00000000000E+00 0. -1.
         -1   -1    0    0    0  501 -0.00000000000E+00 -0.00000000000E+00 -0.37241865566E+03  0.37241865566E+03  0.00000000000E+00 0.  1.
         25    2    1    2    0    0 -0.16076969068E+03  0.35159301090E+03  0.32468820326E+03  0.52012971659E+03  0.12509178225E+03 0.  0.
          5    1    3    3  502    0 -0.15920936188E+03  0.21728503544E+03  0.24341550854E+03  0.36308262109E+03  0.41800000000E+01 0. -1.
         -5    1    3    3    0  502 -0.15603287999E+01  0.13430797546E+03  0.81272694715E+02  0.15704709550E+03  0.41800000000E+01 0. -1.
        -11    1    1    2    0    0  0.13673642916E+03 -0.19162933421E+03 -0.73285381144E+02  0.24655506460E+03  0.00000000000E+00 0.  1.
         11    1    1    2    0    0  0.24033261519E+02 -0.15996367669E+03 -0.57784939381E+02  0.17177041287E+03  0.00000000000E+00 0. -1.
</event>
<event>
 7    1  0.2841804E-009  0.8838630E+02  0.7561462E-02  0.1306807E+00
          2   -1    0    0  501    0  0.00000000000E+00  0.00000000000E+00  0.30256888939E+04  0.30256888939E+04  0.00000000000E+00 0. -1.
         -2   -1    0    0    0  501 -0.00000000000E+00 -0.00000000000E+00 -0.10432079860E+02  0.10432079860E+02  0.00000000000E+00 0.  1.
         25    2    1    2    0    0 -0.21643860899E+01  0.25209069552E+00  0.27584128856E+04  0.27612486112E+04  0.12508995584E+03 0.  0.
          5    1    3    3  502    0 -0.45015713478E+02 -0.65979850500E+01  0.42867602709E+03  0.43110388129E+03  0.41800000000E+01 0.  1.
         -5    1    3    3    0  502  0.42851327389E+02  0.68500757456E+01  0.23297368585E+04  0.23301447299E+04  0.41800000000E+01 0.  1.
        -11    1    1    2    0    0 -0.21425612419E+02  0.37373210368E+02  0.18855540073E+03  0.19341394175E+03  0.00000000000E+00 0. -1.
         11    1    1    2    0    0  0.23589998509E+02 -0.37625301063E+02  0.68288527681E+02  0.81458420820E+02  0.00000000000E+00 0.  1.
</event>
<event>
 7    1  0.2841804E-009  0.9700011E+02  0.7561462E-02  0.1286734E+00
          4   -1    0    0  501    0  0.00000000000E+00  0.00000000000E+00  0.75405491926E+02  0.75405491926E+02  0.00000000000E+00 0. -1.
         -4   -1    0    0    0  501 -0.00000000000E+00 -0.00000000000E+00 -0.18972943903E+03  0.18972943903E+03  0.00000000000E+00 0.  1.
         25    2    1    2    0    0 -0.34664491221E+02  0.24031480295E+02 -0.96916312805E+02  0.16376524430E+03  0.12508854687E+03 0.  0.
          5    1    3    3  502    0 -0.73524218570E+02  0.45151790253E+02 -0.53273162245E+02  0.10148890134E+03  0.41800000000E+01 0. -1.
         -5    1    3    3    0  502  0.38859727349E+02 -0.21120309959E+02 -0.43643150561E+02  0.62276342966E+02  0.41800000000E+01 0. -1.
        -11    1    1    2    0    0  0.18182645402E+02  0.13204512445E+02  0.30888540920E+02  0.38197770915E+02  0.00000000000E+00 0. -1.
         11    1    1    2    0    0  0.16481845819E+02 -0.37235992739E+02 -0.48296175220E+02  0.63171915736E+02  0.00000000000E+00 0.  1.
</event>
<event>
 7    1  0.2841804E-009  0.1068421E+03  0.7561462E-02  0.1266532E+00
          4   -1    0    0  501    0  0.00000000000E+00  0.00000000000E+00  0.55075569857E+02  0.55075569857E+02  0.00000000000E+00 0. -1.
         -4   -1    0    0    0  501 -0.00000000000E+00 -0.00000000000E+00 -0.34328987091E+03  0.34328987091E+03  0.00000000000E+00 0.  1.
         25    2    1    2    0    0  0.64868997626E+02 -0.30602458226E+02 -0.18082106338E+03  0.23127574066E+03  0.12509082283E+03 0.  0.
          5    1    3    3  502    0  0.20442336640E+02  0.46561357419E+02 -0.40982998394E+02  0.65444080629E+02  0.41800000000E+01 0.  1.
         -5    1    3    3    0  502  0.44426660986E+02 -0.77163815646E+02 -0.13983806498E+03  0.16583166003E+03  0.41800000000E+01 0.  1.
        -11    1    1    2    0    0 -0.45606669965E+02  0.29321645108E+02 -0.12790489337E+03  0.13892224072E+03  0.00000000000E+00 0.  1.
         11    1    1    2    0    0 -0.19262327661E+02  0.12808131182E+01  0.20511655694E+02  0.28167459389E+02  0.00000000000E+00 0. -1.
</event>
<event>
 7    1  0.2841804E-009  0.8190348E+02  0.7561462E-02  0.1323735E+00
          1   -1    0    0  501    0  0.00000000000E+00  0.00000000000E+00  0.40450920815E+03  0.40450920815E+03  0.00000000000E+00 0. -1.
         -1   -1    0    0    0  501 -0.00000000000E+00 -0.00000000000E+00 -0.37819057416E+02  0.37819057416E+02  0.00000000000E+00 0.  1.
         25    2    1    2    0    0  0.12812179075E+02  0.44544844198E+02  0.26917412684E+03  0.30041799043E+03  0.12509141991E+03 0.  0.
          5    1    3    3  502    0 -0.11525184338E+02  0.59640160920E+02  0.48469536226E+02  0.77823820328E+02  0.41800000000E+01 0.  1.
         -5    1    3    3    0  502  0.24337363412E+02 -0.15095316722E+02  0.22070459061E+03  0.22259417010E+03  0.41800000000E+01 0.  1.
        -11    1    1    2    0    0  0.23111371145E+02 -0.16329146277E+02 -0.58539028309E+01  0.28897139524E+02  0.00000000000E+00 0.  1.
         11    1    1    2    0    0 -0.35923550220E+02 -0.28215697921E+02  0.10336992672E+03  0.11301313561E+03  0.00000000000E+00 0. -1.
</event>
<event>
 7    1  0.2841804E-009  0.3469086E+03  0.7561462E-02  0.1063891E+00
         -2   -1    0    0    0  501 -0.00000000000E+00  0.00000000000E+00  0.64159361738E+02  0.64159361738E+02  0.00000000000E+00 0.  1.
          2   -1    0    0  501    0  0.00000000000E+00 -0.00000000000E+00 -0.21653241990E+04  0.21653241990E+04  0.00000000000E+00 0. -1.
         25    2    1    2    0    0 -0.38133113022E+02 -0.33218701874E+03 -0.69603924176E+03  0.78225354445E+03  0.12509049531E+03 0.  0.
          5    1    3    3  502    0 -0.84031218731E+02 -0.22102622993E+03 -0.44989342597E+03  0.50826706284E+03  0.41800000000E+01 0. -1.
         -5    1    3    3    0  502  0.45898105709E+02 -0.11116078881E+03 -0.24614581579E+03  0.27398648161E+03  0.41800000000E+01 0. -1.
        -11    1    1    2    0    0 -0.63828762272E+01  0.12034716064E+03 -0.67566333562E+03  0.68632727127E+03  0.00000000000E+00 0.  1.
         11    1    1    2    0    0  0.44515989249E+02  0.21183985810E+03 -0.72946225988E+03  0.76090274501E+03  0.00000000000E+00 0. -1.
</event>
<event>
 7    1  0.2841804E-009  0.1270525E+03  0.7561462E-02  0.1231896E+00
          2   -1    0    0  501    0  0.00000000000E+00  0.00000000000E+00  0.81661024043E+02  0.81661024043E+02  0.00000000000E+00 0. -1.
         -2   -1    0    0    0  501 -0.00000000000E+00 -0.00000000000E+00 -0.35009468148E+03  0.35009468148E+03  0.00000000000E+00 0.  1.
         25    2    1    2    0    0  0.77059199464E+01 -0.10365487810E+03 -0.48998537301E+02  0.16985819082E+03  0.12508890189E+03 0.  0.
          5    1    3    3  502    0 -0.33784896067E+02  0.18586712762E+01  0.17529909373E+02  0.38335935933E+02  0.41800000000E+01 0.  1.
         -5    1    3    3    0  502  0.41490816014E+02 -0.10551354937E+03 -0.66528446674E+02  0.13152225489E+03  0.41800000000E+01 0.  1.
        -11    1    1    2    0    0 -0.16167294832E+02  0.71740482147E+02 -0.49176300357E+02  0.88466867909E+02  0.00000000000E+00 0. -1.
         11    1    1    2    0    0  0.84613748856E+01  0.31914395950E+02 -0.17025881978E+03  0.17343064679E+03  0.00000000000E+00 0.  1.
</event>
<event>
 7    1  0.2841804E-009  0.1653495E+03  0.7561462E-02  0.1182786E+00
         -2   -1    0    0    0  501 -0.00000000000E+00  0.00000000000E+00  0.73111272761E+02  0.73111272761E+02  0.00000000000E+00 0. -1.
          2   -1    0    0  501    0  0.00000000000E+00 -0.00000000000E+00 -0.40079022494E+03  0.40079022494E+03  0.00000000000E+00 0.  1.
         25    2    1    2    0    0  0.11044904758E+01  0.13120381929E+03 -0.15155403899E+03  0.23628572556E+03  0.12508659111E+03 0.  0.
          5    1    3    3  502    0 -0.54382911905E+02  0.68878912188E+02 -0.39040285630E+02  0.96142716591E+02  0.41800000000E+01 0. -1.
         -5    1    3    3    0  502  0.55487402380E+02  0.62324907105E+02 -0.11251375336E+03  0.14014300897E+03  0.41800000000E+01 0. -1.
        -11    1    1    2    0    0 -0.44282792962E+02 -0.46485614711E+02 -0.64993023298E+02  0.91356287167E+02  0.00000000000E+00 0.  1.
         11    1    1    2    0    0  0.43178302486E+02 -0.84718204582E+02 -0.11113188988E+03  0.14625948497E+03  0.00000000000E+00 0. -1.
</event>
<event>
 7    1  0.2841804E-009  0.3620801E+03  0.7561462E-02  0.1057763E+00
         -1   -1    0    0    0  501 -0.00000000000E+00  0.00000000000E+00  0.45951389813E+03  0.45951389813E+03  0.00000000000E+00 0.  1.
          1   -1    0    0  501    0  0.00000000000E+00 -0.00000000000E+00 -0.31668492191E+03  0.31668492191E+03  0.00000000000E+00 0. -1.
         25    2    1    2    0    0  0.23360360928E+03 -0.26612622352E+03  0.16788777272E+03  0.41137598009E+03  0.12510027839E+03 0.  0.
          5    1    3    3  502    0  0.19397759563E+03 -0.25291422133E+03  0.10470689190E+03  0.33552036684E+03  0.41800000000E+01 0. -1.
         -5    1    3    3    0  502  0.39626013648E+02 -0.13212002189E+02  0.63180880822E+02  0.75855613245E+02  0.41800000000E+01 0. -1.
        -11    1    1    2    0    0 -0.21548000153E+03  0.19701809563E+03 -0.28040442483E+02  0.29331557661E+03  0.00000000000E+00 0. -1.
         11    1    1    2    0    0 -0.18123607743E+02  0.69108127887E+02  0.29816459843E+01  0.71507263340E+02  0.00000000000E+00 0.  1.
</event>
<event>
 7    1  0.2841804E-009  0.1005588E+03  0.7561462E-02  0.1279125E+00
         -2   -1    0    0    0  501 -0.00000000000E+00  0.00000000000E+00  0.59888193974E+02  0.59888193974E+02  0.00000000000E+00 0. -1.
          2   -1    0    0  501    0  0.00000000000E+00 -0.00000000000E+00 -0.26485629640E+03  0.26485629640E+03  0.00000000000E+00 0.  1.
         25    2    1    2    0    0 -0.65900575450E+02 -0.44530463907E+01 -0.10664072161E+03  0.17715267752E+03  0.12509241457E+03 0.  0.
          5    1    3    3  502    0  0.20006037472E+02 -0.23050197513E+01  0.16890124954E+02  0.26613969496E+02  0.41800000000E+01 0. -1.
         -5    1    3    3    0  502 -0.85906612922E+02 -0.21480266395E+01 -0.12353084656E+03  0.15053870803E+03  0.41800000000E+01 0. -1.
        -11    1    1    2    0    0 -0.14146850493E+02 -0.16100132634E+01 -0.54091326758E+02  0.55933864089E+02  0.00000000000E+00 0.  1.
         11    1    1    2    0    0  0.80047425943E+02  0.60630596541E+01 -0.44236054062E+02  0.91657948762E+02  0.00000000000E+00 0. -1.
</event>
<event>
 7    1  0.2841804E-009  0.1396488E+03  0.7561462E-02  0.1213802E+00
          1   -1    0    0  501    0  0.00000000000E+00  0.00000000000E+00  0.25629874819E+03  0.25629874819E+03  0.00000000000E+00 0. -1.
         -1   -1    0    0    0  501 -0.00000000000E+00 -0.00000000000E+00 -0.92831172918E+02  0.92831172918E+02  0.00000000000E+00 0.  1.
         25    2    1    2    0    0 -0.10371086455E+03  0.39435870642E+02  0.96326493169E+02  0.19297068046E+03  0.12509100251E+03 0.  0.
          5    1    3    3  502    0  0.99029140967E+01  0.48208607800E+02  0.11133247646E+02  0.50631602550E+02  0.41800000000E+01 0. -1.
         -5    1    3    3    0  502 -0.11361377865E+03 -0.87727371583E+01  0.85193245523E+02  0.14233907791E+03  0.41800000000E+01 0. -1.
        -11    1    1    2    0    0  0.61737442143E+02 -0.40593194334E+02 -0.35120199796E+01  0.73970625744E+02  0.00000000000E+00 0.  1.
         11    1    1    2    0    0  0.41973422409E+02  0.11573236920E+01  0.70653102085E+02  0.82188614912E+02  0.00000000000E+00 0. -1.
</event>
<event>
 7    1  0.2841804E-009  0.1115661E+03  0.7561462E-02  0.1257697E+00
         -1   -1    0    0    0  501 -0.00000000000E+00  0.00000000000E+00  0.38295370353E+02  0.38295370353E+02  0.00000000000E+00 0.  1.
          1   -1    0    0  501    0  0.00000000000E+00 -0.00000000000E+00 -0.35558415972E+03  0.35558415972E+03  0.00000000000E+00 0. -1.
         25    2    1    2    0    0  0.40789942678E+01 -0.34722482668E+02 -0.23539761775E+03  0.26885236570E+03  0.12508903671E+03 0.  0.
          5    1    3    3  502    0  0.19281441060E+02  0.44086375986E+02 -0.10666683049E+03  0.11709256015E+03  0.41800000000E+01 0. -1.
         -5    1    3    3    0  502 -0.15202446793E+02 -0.78808858654E+02 -0.12873078726E+03  0.15175980555E+03  0.41800000000E+01 0. -1.
        -11    1    1    2    0    0 -0.36300837469E+02  0.47513939124E+02 -0.50813324427E+02  0.78468587036E+02  0.00000000000E+00 0.  1.
         11    1    1    2    0    0  0.32221843201E+02 -0.12791456456E+02 -0.31077847187E+02  0.46558577334E+02  0.00000000000E+00 0. -1.
</event>
<event>
 7    1  0.2841804E-009  0.8641985E+02  0.7561462E-02  0.1311761E+00
         -1   -1    0    0    0  501 -0.00000000000E+00  0.00000000000E+00  0.62898688170E+03  0.62898688170E+03  0.00000000000E+00 0.  1.
          1   -1    0    0  501    0  0.00000000000E+00 -0.00000000000E+00 -0.31052195556E+02  0.31052195556E+02  0.00000000000E+00 0. -1.
         25    2    1    2    0    0  0.47777018541E+02 -0.22452027252E+00  0.52566323196E+03  0.54244898470E+03  0.12508546543E+03 0.  0.
          5    1    3    3  502    0  0.42688447195E+02  0.28175084932E+02  0.75192196211E+02  0.91035584833E+02  0.41800000000E+01 0. -1.
         -5    1    3    3    0  502  0.50885713458E+01 -0.28399605204E+02  0.45047103575E+03  0.45141339987E+03  0.41800000000E+01 0. -1.
        -11    1    1    2    0    0  0.19788216970E+02  0.12903100757E+02  0.23345839995E+02  0.33212825611E+02  0.00000000000E+00 0.  1.
         11    1    1    2    0    0 -0.67565235510E+02 -0.12678580485E+02  0.48925614190E+02  0.84377266942E+02  0.00000000000E+00 0. -1.
</event>
<event>
 7    1  0.2841804E-009  0.1210850E+03  0.7561462E-02  0.1241318E+00
          1   -1    0    0  501    0  0.00000000000E+00  0.00000000000E+00  0.19396544019E+03  0.19396544019E+03  0.00000000000E+00 0. -1.
         -1   -1    0    0    0  501 -0.00000000000E+00 -0.00000000000E+00 -0.13435846352E+03  0.13435846352E+03  0.00000000000E+00 0.  1.
         25    2    1    2    0    0  0.10450520472E+03  0.40577552695E+02 -0.92025223720E+01  0.16822700978E+03  0.12509102609E+03 0.  0.
          5    1    3    3  502    0  0.32321970960E+02  0.13720993700E+02 -0.64338533169E+02  0.73415902400E+02  0.41800000000E+01 0.  1.
         -5    1    3    3    0  502  0.72183233759E+02  0.26856558995E+02  0.55136010797E+02  0.94811107385E+02  0.41800000000E+01 0.  1.
        -11    1    1    2    0    0 -0.69350319965E+02  0.78956702360E+01  0.12348222837E+01  0.69809263524E+02  0.00000000000E+00 0. -1.
         11    1    1    2    0    0 -0.35154884753E+02 -0.48473222931E+02  0.67574676764E+02  0.90287630399E+02  0.00000000000E+00 0.  1.
</event>
<event>
 7    1  0.2841804E-009  0.1716301E+03  0.7561462E-02  0.1176158E+00
         -4   -1    0    0    0  501 -0.00000000000E+00  0.00000000000E+00  0.73526638317E+03  0.73526638317E+03  0.00000000000E+00 0.  1.
          4   -1    0    0  501    0  0.00000000000E+00 -0.00000000000E+00 -0.45460687980E+02  0.45460687980E+02  0.00000000000E+00 0. -1.
         25    2    1    2    0    0  0.14514451648E+03 -0.19106264848E+02  0.33651143651E+03  0.38770967431E+03  0.12508742797E+03 0.  0.
          5    1    3    3  502    0  0.85823798018E+02 -0.72660455714E+02  0.19750382626E+03  0.22731146016E+03  0.41800000000E+01 0.  1.
         -5    1    3    3    0  502  0.59320718461E+02  0.53554190866E+02  0.13900761025E+03  0.16039821416E+03  0.41800000000E+01 0.  1.
        -11    1    1    2    0    0 -0.39349060880E+02 -0.10721663473E+02  0.20160486976E+03  0.20568866320E+03  0.00000000000E+00 0.  1.
         11    1    1    2    0    0 -0.10579545560E+03  0.29827928322E+02  0.15168938892E+03  0.18732873364E+03  0.00000000000E+00 0. -1.
</event>
<event>
 7    1  0.2841804E-009  0.7303768E+02  0.7561462E-02  0.1350058E+00
         -4   -1    0    0    0  501 -0.00000000000E+00  0.00000000000E+00  0.78353100459E+02  0.78353100459E+02  0.00000000000E+00 0.  1.
          4   -1    0    0  501    0  0.00000000000E+00 -0.00000000000E+00 -0.15355239218E+03  0.15355239218E+03  0.00000000000E+00 0. -1.
         25    2    1    2    0    0 -0.23439179174E+02 -0.51530769044E+01 -0.26618651324E+02  0.13011622676E+03  0.12508289470E+03 0.  0.
          5    1    3    3  502    0 -0.31506317107E+02  0.24860854903E+02  0.39793952967E+02  0.56672226151E+02  0.41800000000E+01 0. -1.
         -5    1    3    3    0  502  0.80671379335E+01 -0.30013931808E+02 -0.66412604290E+02  0.73444000610E+02  0.41800000000E+01 0. -1.
        -11    1    1    2    0    0  0.26532965928E+02 -0.29441295811E+02 -0.53636480621E+02  0.66690780722E+02  0.00000000000E+00 0. -1.
         11    1    1    2    0    0 -0.30937867550E+01  0.34594372715E+02  0.50558402208E+01  0.35098485158E+02  0.00000000000E+00 0.  1.
</event>
<event>
 7    1  0.2841804E-009  0.1416931E+03  0.7561462E-02  0.1211069E+00
         -1   -1    0    0    0  501 -0.00000000000E+00  0.00000000000E+00  0.11632805209E+03  0.11632805209E+03  0.00000000000E+00 0.  1.
          1   -1    0    0  501    0  0.00000000000E+00 -0.00000000000E+00 -0.22240736829E+03  0.22240736829E+03  0.00000000000E+00 0. -1.
         25    2    1    2    0    0 -0.10092436223E+03  0.57082289874E+02 -0.65396274547E+02  0.18266977947E+03  0.12508981133E+03 0.  0.
          5    1    3    3  502    0 -0.27268143514E+02 -0.33302510487E+02  0.91698388619E+01  0.44205963401E+02  0.41800000000E+01 0. -1.
         -5    1    3    3    0  502 -0.73656218721E+02  0.90384800361E+02 -0.74566113409E+02  0.13846381607E+03  0.41800000000E+01 0. -1.
        -11    1    1    2    0    0  0.72245723111E+02 -0.60963838927E+02  0.12663212382E+02  0.95375002555E+02  0.00000000000E+00 0.  1.
         11    1    1    2    0    0  0.28678639124E+02  0.38815490523E+01 -0.53346254027E+02  0.60690638353E+02  0.00000000000E+00 0. -1.
</event>
<event>
 7    1  0.2841804E-009  0.1243327E+03  0.7561462E-02  0.1236116E+00
          2   -1    0    0  501    0  0.00000000000E+00  0.00000000000E+00  0.11429442407E+04  0.11429442407E+04  0.00000000000E+00 0. -1.
         -2   -1    0    0    0  501 -0.00000000000E+00 -0.00000000000E+00 -0.14885675303E+02  0.14885675303E+02  0.00000000000E+00 0.  1.
         25    2    1    2    0    0 -0.29270425178E+02 -0.62662379763E+02  0.68741614349E+03  0.70211947701E+03  0.12508986383E+03 0.  0.
          5    1    3    3  502    0 -0.25452553609E+02 -0.10049327540E+03  0.53578325721E+03  0.54573611021E+03  0.41800000000E+01 0. -1.
         -5    1    3    3    0  502 -0.38178715687E+01  0.37830895634E+02  0.15163288628E+03  0.15638336679E+03  0.41800000000E+01 0. -1.
        -11    1    1    2    0    0  0.44887285829E+02  0.29969684203E+01  0.10175024516E+03  0.11125179836E+03  0.00000000000E+00 0.  1.
         11    1    1    2    0    0 -0.15616860652E+02  0.59665411343E+02  0.33889217675E+03  0.34445864063E+03  0.00000000000E+00 0. -1.
</event>
<event>
 7    1  0.4033259E-009  0.8723271E+02  0.7561462E-02  0.1309695E+00
         -1   -1    0    0    0  501 -0.00000000000E+00  0.00000000000E+00  0.18231920820E+03  0.18231920820E+03  0.00000000000E+00 0.  1.
          1   -1    0    0  501    0  0.00000000000E+00 -0.00000000000E+00 -0.88193429396E+02  0.88193429396E+02  0.00000000000E+00 0. -1.
         25    2    1    2    0    0  0.11519929259E+02  0.60259558750E+02  0.77810445017E+02  0.15957011407E+03  0.12507690738E+03 0.  0.
          5    1    3    3  502    0  0.23179541869E+01  0.66674174875E+02  0.10804546643E+03  0.12705161834E+03  0.41800000000E+01 0.  1.
         -5    1    3    3    0  502  0.92019750724E+01 -0.64146161248E+01 -0.30235021410E+02  0.32518495736E+02  0.41800000000E+01 0.  1.
        -11    1    1    2    0    0  0.29400329680E+01 -0.74966810714E+02  0.35296414818E+02  0.82912625103E+02  0.00000000000E+00 0.  1.
         11    1    1    2    0    0 -0.14459962227E+02  0.14707251964E+02 -0.18981081035E+02  0.28029898415E+02  0.00000000000E+00 0. -1.
</event>
<event>
 7    1  0.2841804E-009  0.2434220E+03  0.7561462E-02  0.1117534E+00
          1   -1    0    0  501    0  0.00000000000E+00  0.00000000000E+00  0.29499154783E+03  0.29499154783E+03  0.00000000000E+00 0. -1.
         -1   -1    0    0    0  501 -0.00000000000E+00 -0.00000000000E+00 -0.22345789801E+03  0.22345789801E+03  0.00000000000E+00 0.  1.
         25    2    1    2    0    0  0.13730520110E+03  0.18300529195E+03 -0.43640052154E+01  0.26078675808E+03  0.12508810302E+03 0.  0.
          5    1    3    3  502    0  0.70472909967E+02  0.31143647348E+02 -0.45790256487E+02  0.89725012112E+02  0.41800000000E+01 0. -1.
         -5    1    3    3    0  502  0.66832291129E+02  0.15186164460E+03  0.41426251272E+02  0.17106174597E+03  0.41800000000E+01 0. -1.
        -11    1    1    2    0    0 -0.61931555038E+02 -0.21624745042E+02  0.37130502252E+02  0.75377856861E+02  0.00000000000E+00 0. -1.
         11    1    1    2    0    0 -0.75373646057E+02 -0.16138054691E+03  0.38767152783E+02  0.18228483090E+03  0.00000000000E+00 0.  1.
</event>
<event>
 7    1  0.2841804E-009  0.7096866E+02  0.7561462E-02  0.1356830E+00
         -2   -1    0    0    0  501 -0.00000000000E+00  0.00000000000E+00  0.60460283388E+02  0.60460283388E+02  0.00000000000E+00 0.  1.
          2   -1    0    0  501    0  0.00000000000E+00 -0.00000000000E+00 -0.23834992218E+03  0.23834992218E+03  0.00000000000E+00 0. -1.
         25    2    1    2    0    0  0.76116252562E+01  0.10487367775E+02 -0.15352811316E+03  0.19845867342E+03  0.12508813614E+03 0.  0.
          5    1    3    3  502    0 -0.26421924433E+02 -0.19748341009E+02 -0.14883327349E+03  0.15250223199E+03  0.41800000000E+01 0. -1.
         -5    1    3    3    0  502  0.34033549689E+02  0.30235708783E+02 -0.46948396755E+01  0.45956441438E+02  0.41800000000E+01 0. -1.
        -11    1    1    2    0    0  0.78924873778E+01  0.23943277190E+02  0.26780440516E+02  0.36779938470E+02  0.00000000000E+00 0.  1.
         11    1    1    2    0    0 -0.15504112634E+02 -0.34430644965E+02 -0.51141966145E+02  0.63571593675E+02  0.00000000000E+00 0. -1.
</event>
<event>
 7    1  0.2841804E-009  0.1366067E+03  0.7561462E-02  0.1217969E+00
         -2   -1    0    0    0  501 -0.00000000000E+00  0.00000000000E+00  0.42000647624E+02  0.42000647624E+02  0.00000000000E+00 0.  1.
          2   -1    0    0  501    0  0.00000000000E+00 -0.00000000000E+00 -0.62797088728E+03  0.62797088728E+03  0.00000000000E+00 0. -1.
         25    2    1    2    0    0  0.11200943997E+03  0.19539220250E+02 -0.22544952565E+03  0.28178331809E+03  0.12508578644E+03 0.  0.
          5    1    3    3  502    0 -0.14889823004E+02 -0.13937724548E+01  0.62573928144E+01  0.16741469338E+02  0.41800000000E+01 0. -1.
         -5    1    3    3    0  502  0.12689926298E+03  0.20932992705E+02 -0.23170691846E+03  0.26504184876E+03  0.41800000000E+01 0. -1.
        -11    1    1    2    0    0 -0.37360446973E+01 -0.20386941602E+02 -0.13666524061E+02  0.24826584497E+02  0.00000000000E+00 0.  1.
         11    1    1    2    0    0 -0.10827339527E+03  0.84772135225E+00 -0.34685418995E+03  0.36336163231E+03  0.00000000000E+00 0. -1.
</event>
<event>
 7    1  0.2841804E-009  0.1267758E+03  0.7561462E-02  0.1232320E+00
          2   -1    0    0  501    0  0.00000000000E+00  0.00000000000E+00  0.14925594922E+03  0.14925594922E+03  0.00000000000E+00 0. -1.
         -2   -1    0    0    0  501 -0.00000000000E+00 -0.00000000000E+00 -0.11127414734E+03  0.11127414734E+03  0.00000000000E+00 0.  1.
         25    2    1    2    0    0  0.36608374188E+02  0.59781892887E+02  0.27588050857E+02  0.14602435310E+03  0.12509181976E+03 0.  0.
          5    1    3    3  502    0 -0.24084857559E+02  0.75659809012E+02  0.67953611010E+01  0.79800603982E+02  0.41800000000E+01 0.  1.
         -5    1    3    3    0  502  0.60693231747E+02 -0.15877916126E+02  0.20792689756E+02  0.66223749121E+02  0.41800000000E+01 0.  1.
        -11    1    1    2    0    0 -0.62230872155E+02 -0.23012326781E+02 -0.63747441464E+01  0.66654977278E+02  0.00000000000E+00 0.  1.
         11    1    1    2    0    0  0.25622497967E+02 -0.36769566105E+02  0.16768495163E+02  0.47850766176E+02  0.00000000000E+00 0. -1.
</event>
<event>
 7    1  0.2841804E-009  0.1067082E+03  0.7561462E-02  0.1266790E+00
         -2   -1    0    0    0  501 -0.00000000000E+00  0.00000000000E+00  0.51065566632E+03  0.51065566632E+03  0.00000000000E+00 0.  1.
          2   -1    0    0  501    0  0.00000000000E+00 -0.00000000000E+00 -0.37978984645E+02  0.37978984645E+02  0.00000000000E+00 0. -1.
         25    2    1    2    0    0  0.61256542185E+02  0.60514568888E+02  0.31534285878E+03  0.35000147701E+03  0.12508212631E+03 0.  0.
          5    1    3    3  502    0  0.71697134256E+02  0.78308205066E+02  0.31080800801E+03  0.32846878739E+03  0.41800000000E+01 0.  1.
         -5    1    3    3    0  502 -0.10440592071E+02 -0.17793636178E+02  0.45348507625E+01  0.21532689629E+02  0.41800000000E+01 0.  1.
        -11    1    1    2    0    0 -0.25467562546E+02 -0.24520899141E+02  0.14092004859E+03  0.14528706526E+03  0.00000000000E+00 0.  1.
         11    1    1    2    0    0 -0.35788979638E+02 -0.35993669747E+02  0.16413774308E+02  0.53346108691E+02  0.00000000000E+00 0. -1.
</event>
<event>
 7    1  0.2841804E-009  0.1214869E+03  0.7561462E-02  0.1240664E+00
          2   -1    0    0  501    0  0.00000000000E+00  0.00000000000E+00  0.30531192594E+03  0.30531192594E+03  0.00000000000E+00 0. -1.
         -2   -1    0    0    0  501 -0.00000000000E+00 -0.00000000000E+00 -0.59303776166E+02  0.59303776166E+02  0.00000000000E+00 0.  1.
         25    2    1    2    0    0 -0.67043063829E+02  0.29595138903E+02  0.95449600443E+02  0.17357770746E+03  0.12509176491E+03 0.  0.
          5    1    3    3  502    0 -0.97827930716E+02  0.29387146725E+00  0.84875274305E+02  0.12958269551E+03  0.41800000000E+01 0.  1.
         -5    1    3    3    0  502  0.30784866887E+02  0.29301267435E+02  0.10574326138E+02  0.43995011943E+02  0.41800000000E+01 0.  1.
        -11    1    1    2    0    0 -0.29106188361E+01  0.17681724215E+02 -0.56474360414E+00  0.17928580773E+02  0.00000000000E+00 0.  1.
         11    1    1    2    0    0  0.69953682665E+02 -0.47276863117E+02  0.15112329294E+03  0.17310941388E+03  0.00000000000E+00 0. -1.
</event>
<event>
 6    1  0.2841804E-009  0.1213821E+03  0.7561462E-02  0.1240834E+00
         -2   -1    0    0    0  501 -0.00000000000E+00  0.00000000000E+00  0.69733997220E+03  0.69733997220E+03  0.00000000000E+00 0.  1.
          2   -1    0    0  501    0  0.00000000000E+00 -0.00000000000E+00 -0.28968906080E+02  0.28968906080E+02  0.00000000000E+00 0. -1.
          5    1    1    2  502    0 -0.27376335268E+02 -0.10224367297E+03  0.16966113016E+03  0.20001400922E+03  0.41800000000E+01 0. -1.
         -5    1    1    2    0  502 -0.24222034636E+02  0.28872612912E+02  0.14978047351E+03  0.15450565485E+03  0.41800000000E+01 0. -1.
        -11    1    1    2    0    0  0.56410379599E+01  0.44036929067E+02  0.45765509468E+02  0.63761699223E+02  0.00000000000E+00 0. -1.
         11    1    1    2    0    0  0.45957331944E+02  0.29334130989E+02  0.30316395298E+03  0.30802751499E+03  0.00000000000E+00 0.  1.
</event>
<event>
 7    1  0.2841804E-009  0.1386562E+03  0.7561462E-02  0.1215149E+00
          2   -1    0    0  501    0  0.00000000000E+00  0.00000000000E+00  0.50987821358E+03  0.50987821358E+03  0.00000000000E+00 0. -1.
         -2   -1    0    0    0  501 -0.00000000000E+00 -0.00000000000E+00 -0.56169557814E+02  0.56169557814E+02  0.00000000000E+00 0.  1.
         25    2    1    2    0    0  0.80721888319E+01 -0.12859654803E+03  0.35256675814E+03  0.39566749524E+03  0.12508883023E+03 0.  0.
          5    1    3    3  502    0  0.32012138029E+02 -0.11042546296E+03  0.14121014754E+03  0.18214372902E+03  0.41800000000E+01 0.  1.
         -5    1    3    3    0  502 -0.23939949198E+02 -0.18171085073E+02  0.21135661060E+03  0.21352376622E+03  0.41800000000E+01 0.  1.
        -11    1    1    2    0    0 -0.18748340634E+02  0.81436584024E+02  0.40624579873E+02  0.92918103640E+02  0.00000000000E+00 0.  1.
         11    1    1    2    0    0  0.10676151802E+02  0.47159964005E+02  0.60517317750E+02  0.77462172510E+02  0.00000000000E+00 0. -1.
</event>
<event>
 7    1  0.2841804E-009  0.1176825E+03  0.7561462E-02  0.1246970E+00
          3   -1    0    0  501    0  0.00000000000E+00  0.00000000000E+00  0.34000990443E+03  0.34000990443E+03  0.00000000000E+00 0. -1.
         -3   -1    0    0    0  501 -0.00000000000E+00 -0.00000000000E+00 -0.73525775856E+02  0.73525775856E+02  0.00000000000E+00 0.  1.
         25    2    1    2    0    0 -0.17759407396E+01  0.66140197489E+02  0.25351249608E+02  0.14376238696E+03  0.12508900174E+03 0.  0.
          5    1    3    3  502    0 -0.61217909245E+02  0.18622706068E+02  0.24099262801E+01  0.64169445519E+02  0.41800000000E+01 0.  1.
         -5    1    3    3    0  502  0.59441968505E+02  0.47517491422E+02  0.22941323328E+02  0.79592941438E+02  0.41800000000E+01 0.  1.
        -11    1    1    2    0    0 -0.31820356003E+02 -0.45743525414E+02  0.21611539771E+03  0.22318349021E+03  0.00000000000E+00 0. -1.
         11    1    1    2    0    0  0.33596296743E+02 -0.20396672075E+02  0.25017481256E+02  0.46589803122E+02  0.00000000000E+00 0.  1.
</event>
<event>
 7    1  0.2841804E-009  0.1595447E+03  0.7561462E-02  0.1189212E+00
         -1   -1    0    0    0  501 -0.00000000000E+00  0.00000000000E+00  0.21839636862E+03  0.21839636862E+03  0.00000000000E+00 0.  1.
          1   -1    0    0  501    0  0.00000000000E+00 -0.00000000000E+00 -0.12845299940E+03  0.12845299940E+03  0.00000000000E+00 0. -1.
         25    2    1    2    0    0  0.12656514483E+03  0.12958023993E+02  0.40295685815E+02  0.18291405632E+03  0.12508862231E+03 0.  0.
          5    1    3    3  502    0 -0.23030900545E+02  0.12737826187E+02 -0.37529603844E+01  0.26911553421E+02  0.41800000000E+01 0. -1.
         -5    1    3    3    0  502  0.14959604537E+03  0.22019780588E+00  0.44048646199E+02  0.15600250290E+03  0.41800000000E+01 0. -1.
        -11    1    1    2    0    0 -0.65189574887E+02 -0.39164806481E+02  0.59389135774E+02  0.96491617193E+02  0.00000000000E+00 0.  1.
         11    1    1    2    0    0 -0.61375569942E+02  0.26206782489E+02 -0.97414523636E+01  0.67443694503E+02  0.00000000000E+00 0. -1.
</event>
<event>
 7    1  0.3190395E-009  0.1520238E+03  0.7561462E-02  0.1198008E+00
          2   -1    0    0  501    0  0.00000000000E+00  0.00000000000E+00  0.12580046180E+03  0.12580046180E+03  0.00000000000E+00 0. -1.
         -2   -1    0    0    0  501 -0.00000000000E+00 -0.00000000000E+00 -0.19478786467E+03  0.19478786467E+03  0.00000000000E+00 0.  1.
         25    2    1    2    0    0  0.42123086702E+02 -0.10059307472E+03 -0.65736769237E+02  0.17849862396E+03  0.12508842796E+03 0.  0.
          5    1    3    3  502    0  0.71034366443E+02 -0.11101202720E+03 -0.38880959553E+02  0.13747273480E+03  0.41800000000E+01 0.  1.
         -5    1    3    3    0  502 -0.28911279741E+02  0.10418952479E+02 -0.26855809683E+02  0.41025889153E+02  0.41800000000E+01 0.  1.
        -11    1    1    2    0    0 -0.69345580269E+02  0.56937461969E+02 -0.96603611914E+01  0.90244150263E+02  0.00000000000E+00 0.  1.
         11    1    1    2    0    0  0.27222493567E+02  0.43655612749E+02  0.64097275578E+01  0.51845552247E+02  0.00000000000E+00 0. -1.
</event>
<event>
 7    1  0.2841804E-009  0.2153274E+03  0.7561462E-02  0.1137415E+00
         -2   -1    0    0    0  501 -0.00000000000E+00  0.00000000000E+00  0.21411122447E+02  0.21411122447E+02  0.00000000000E+00 0.  1.
          2   -1    0    0  501    0  0.00000000000E+00 -0.00000000000E+00 -0.27938806578E+04  0.27938806578E+04  0.00000000000E+00 0. -1.
         25    2    1    2    0    0  0.19640081548E+03  0.59203339670E+02 -0.18690709006E+04  0.18844491103E+04  0.12507638421E+03 0.  0.
          5    1    3    3  502    0  0.18488907580E+03  0.29453601900E+02 -0.17785377284E+04  0.17883694833E+04  0.41800000000E+01 0. -1.
         -5    1    3    3    0  502  0.11511739683E+02  0.29749737770E+02 -0.90533172216E+02  0.96079626974E+02  0.41800000000E+01 0. -1.
        -11    1    1    2    0    0 -0.18917690473E+03 -0.43768599201E+02 -0.88376430187E+03  0.90484414836E+03  0.00000000000E+00 0. -1.
         11    1    1    2    0    0 -0.72239107579E+01 -0.15434740469E+02 -0.19634332890E+02  0.25998521651E+02  0.00000000000E+00 0.  1.
</event>
<event>
 7    1  0.2841804E-009  0.8317268E+02  0.7561462E-02  0.1320282E+00
         -2   -1    0    0    0  501 -0.00000000000E+00  0.00000000000E+00  0.26860143100E+03  0.26860143100E+03  0.00000000000E+00 0.  1.
          2   -1    0    0  501    0  0.00000000000E+00 -0.00000000000E+00 -0.74788247802E+02  0.74788247802E+02  0.00000000000E+00 0. -1.
         25    2    1    2    0    0 -0.58075989671E+02  0.57502751534E+02  0.57195592050E+02  0.15999511084E+03  0.12509081794E+03 0.  0.
          5    1    3    3  502    0 -0.18704337764E+01  0.62448819654E+01  0.80076352642E+02  0.80449933038E+02  0.41800000000E+01 0. -1.
         -5    1    3    3    0  502 -0.56205555895E+02  0.51257869568E+02 -0.22880760592E+02  0.79545177801E+02  0.41800000000E+01 0. -1.
        -11    1    1    2    0    0  0.48515989561E+02 -0.41826525305E+02  0.14836100392E+03  0.16159903139E+03  0.00000000000E+00 0.  1.
         11    1    1    2    0    0  0.95600001106E+01 -0.15676226229E+02 -0.11743412772E+02  0.21795536571E+02  0.00000000000E+00 0. -1.
</event>
<event>
 7    1  0.2841804E-009  0.1204714E+03  0.7561462E-02  0.1242321E+00
          1   -1    0    0  501    0  0.00000000000E+00  0.00000000000E+00  0.32175305151E+03  0.32175305151E+03  0.00000000000E+00 0. -1.
         -1   -1    0    0    0  501 -0.00000000000E+00 -0.00000000000E+00 -0.79871901038E+02  0.79871901038E+02  0.00000000000E+00 0.  1.
         25    2    1    2    0    0  0.27738207347E+01 -0.94930823969E+02  0.21704490145E+03  0.26791133285E+03  0.12509371529E+03 0.  0.
          5    1    3    3  502    0 -0.27199067905E+02  0.11501243899E+02  0.10994195207E+03  0.11391564042E+03  0.41800000000E+01 0. -1.
         -5    1    3    3    0  502  0.29972888639E+02 -0.10643206787E+03  0.10710294937E+03  0.15399569244E+03  0.41800000000E+01 0. -1.
        -11    1    1    2    0    0  0.12972061184E+02  0.19572765274E+02 -0.30799005925E+02  0.38729139905E+02  0.00000000000E+00 0.  1.
         11    1    1    2    0    0 -0.15745881919E+02  0.75358058696E+02  0.55635254955E+02  0.94984479794E+02  0.00000000000E+00 0. -1.
</event>
<event>
 7    1  0.2841804E-009  0.1270627E+03  0.7561462E-02  0.1231880E+00
         -2   -1    0    0    0  501 -0.00000000000E+00  0.00000000000E+00  0.87858589909E+03  0.87858589909E+03  0.00000000000E+00 0.  1.
          2   -1    0    0  501    0  0.00000000000E+00 -0.00000000000E+00 -0.18496218704E+02  0.18496218704E+02  0.00000000000E+00 0. -1.
         25    2    1    2    0    0  0.72146332895E+02  0.37513474721E+01  0.51817068813E+03  0.53792757982E+03  0.12508418419E+03 0.  0.
          5    1    3    3  502    0 -0.43274906974E+01  0.52883230212E+02  0.20612619582E+03  0.21288692824E+03  0.41800000000E+01 0.  1.
         -5    1    3    3    0  502  0.76473823592E+02 -0.49131882740E+02  0.31204449232E+03  0.32504065158E+03  0.41800000000E+01 0.  1.
        -11    1    1    2    0    0 -0.90527856631E+02 -0.84921469712E+01  0.28515620153E+03  0.29930163490E+03  0.00000000000E+00 0.  1.
         11    1    1    2    0    0  0.18381523736E+02  0.47407994991E+01  0.56762790722E+02  0.59852903065E+02  0.00000000000E+00 0. -1.
</event>
<event>
 7    1  0.2841804E-009  0.1434262E+03  0.7561462E-02  0.1208792E+00
         -3   -1    0    0    0  501 -0.00000000000E+00  0.00000000000E+00  0.35274862289E+03  0.35274862289E+03  0.00000000000E+00 0.  1.
          3   -1    0    0  501    0  0.00000000000E+00 -0.00000000000E+00 -0.68919345792E+02  0.68919345792E+02  0.00000000000E+00 0. -1.
         25    2    1    2    0    0  0.10498682623E+03 -0.42008034203E+02  0.15506130865E+03  0.22908025502E+03  0.12508735020E+03 0.  0.
          5    1    3    3  502    0  0.78738798236E+02  0.15861958280E+02  0.24932896281E+02  0.84205236091E+02  0.41800000000E+01 0.  1.
         -5    1    3    3    0  502  0.26248027992E+02 -0.57869992483E+02  0.13012841237E+03  0.14487501893E+03  0.41800000000E+01 0.  1.
        -11    1    1    2    0    0 -0.66942102700E+02  0.68967110835E+02  0.79260578591E+02  0.12457907854E+03  0.00000000000E+00 0.  1.
         11    1    1    2    0    0 -0.38044723528E+02 -0.26959076633E+02  0.49507389856E+02  0.68008635125E+02  0.00000000000E+00 0. -1.
</event>
<event>
 7    1  0.2841804E-009  0.1044589E+03  0.7561462E-02  0.1271189E+00
         -2   -1    0    0    0  501 -0.00000000000E+00  0.00000000000E+00  0.20629551365E+03  0.20629551365E+03  0.00000000000E+00 0. -1.
          2   -1    0    0  501    0  0.00000000000E+00 -0.00000000000E+00 -0.77568217925E+02  0.77568217925E+02  0.00000000000E+00 0.  1.
         25    2    1    2    0    0 -0.69934846306E+01  0.68340288841E+02  0.81310633496E+02  0.16424687803E+03  0.12508522661E+03 0.  0.
          5    1    3    3  502    0 -0.28106422441E+02 -0.28023677184E+02  0.66518657655E+01  0.40460069000E+02  0.41800000000E+01 0.  1.
         -5    1    3    3    0  502  0.21112937811E+02  0.96363966025E+02  0.74658767731E+02  0.12378680903E+03  0.41800000000E+01 0.  1.
        -11    1    1    2    0    0  0.10605608020E+02 -0.31175587461E+02  0.69023341812E+02  0.76476257034E+02  0.00000000000E+00 0. -1.
         11    1    1    2    0    0 -0.36121233897E+01 -0.37164701380E+02 -0.21606679588E+02  0.43140596506E+02  0.00000000000E+00 0.  1.
</event>
<event>
 7    1  0.2841804E-009  0.1019259E+03  0.7561462E-02  0.1276297E+00
         -1   -1    0    0    0  501 -0.00000000000E+00  0.00000000000E+00  0.21318202870E+02  0.21318202870E+02  0.00000000000E+00 0.  1.
          1   -1    0    0  501    0  0.00000000000E+00 -0.00000000000E+00 -0.59330496416E+03  0.59330496416E+03  0.00000000000E+00 0. -1.
         25    2    1    2    0    0  0.18258146215E+02  0.16100742494E+02 -0.35738730366E+03  0.37941008341E+03  0.12503492618E+03 0.  0.
          5    1    3    3  502    0  0.65032659323E+02 -0.19955251340E+02 -0.18766552998E+03  0.19965791339E+03  0.41800000000E+01 0.  1.
         -5    1    3    3    0  502 -0.46774513108E+02  0.36055993834E+02 -0.16972177368E+03  0.17975217002E+03  0.41800000000E+01 0.  1.
        -11    1    1    2    0    0 -0.79941402103E+01  0.29080618661E+02 -0.22560246860E+02  0.37663688053E+02  0.00000000000E+00 0.  1.
         11    1    1    2    0    0 -0.10264006004E+02 -0.45181361156E+02 -0.19203921077E+03  0.19754939557E+03  0.00000000000E+00 0. -1.
</event>
<event>
 7    1  0.2841804E-009  0.8695733E+02  0.7561462E-02  0.1310392E+00
         -1   -1    0    0    0  501 -0.00000000000E+00  0.00000000000E+00  0.15412312958E+02  0.15412312958E+02  0.00000000000E+00 0.  1.
          1   -1    0    0  501    0  0.00000000000E+00 -0.00000000000E+00 -0.10354353650E+04  0.10354353650E+04  0.00000000000E+00 0. -1.
         25    2    1    2    0    0  0.28480946952E+02  0.57946393738E+02 -0.58333272224E+03  0.60007815162E+03  0.12509106412E+03 0.  0.
          5    1    3    3  502    0  0.30539607176E+02  0.47350345013E+02 -0.87785954796E+02  0.10439621180E+03  0.41800000000E+01 0.  1.
         -5    1    3    3    0  502 -0.20586602244E+01  0.10596048725E+02 -0.49554676745E+03  0.49568193981E+03  0.41800000000E+01 0.  1.
        -11    1    1    2    0    0 -0.15644027556E+02 -0.79352436194E+02 -0.38454176967E+03  0.39295536304E+03  0.00000000000E+00 0. -1.
         11    1    1    2    0    0 -0.12836919396E+02  0.21406042457E+02 -0.52148560095E+02  0.57814163258E+02  0.00000000000E+00 0.  1.
</event>
<event>
 7    1  0.2841804E-009  0.1609914E+03  0.7561462E-02  0.1187582E+00
         -2   -1    0    0    0  501 -0.00000000000E+00  0.00000000000E+00  0.87859412941E+02  0.87859412941E+02  0.00000000000E+00 0.  1.
          2   -1    0    0  501    0  0.00000000000E+00 -0.00000000000E+00 -0.63452029580E+03  0.63452029580E+03  0.00000000000E+00 0. -1.
         25    2    1    2    0    0  0.10298835863E+03  0.63704859049E+02 -0.54653509434E+03  0.57359534715E+03  0.12508437892E+03 0.  0.
          5    1    3    3  502    0 -0.20902626986E+02 -0.15834119024E+02 -0.72730602694E+02  0.77426430296E+02  0.41800000000E+01 0.  1.
         -5    1    3    3    0  502  0.12389098562E+03  0.79538978072E+02 -0.47380449165E+03  0.49616891686E+03  0.41800000000E+01 0.  1.
        -11    1    1    2    0    0 -0.38635977561E+02 -0.73513704994E+02  0.67743324667E+01  0.83324037135E+02  0.00000000000E+00 0. -1.
         11    1    1    2    0    0 -0.64352381069E+02  0.98088459453E+01 -0.69001209865E+01  0.65460324455E+02  0.00000000000E+00 0.  1.
</event>
<event>
 7    1  0.2841804E-009  0.1469997E+03  0.7561462E-02  0.1204209E+00
          2   -1    0    0  501    0  0.00000000000E+00  0.00000000000E+00  0.12591519308E+03  0.12591519308E+03  0.00000000000E+00 0. -1.
         -2   -1    0    0    0  501 -0.00000000000E+00 -0.00000000000E+00 -0.18474500173E+03  0.18474500173E+03  0.00000000000E+00 0.  1.
         25    2    1    2    0    0 -0.66011967652E+02  0.81861556148E+02 -0.64493860007E+01  0.16354957748E+03  0.12509186810E+03 0.  0.
          5    1    3    3  502    0  0.32837378241E+02  0.43587730020E+02  0.11583836184E+02  0.55944984393E+02  0.41800000000E+01 0.  1.
         -5    1    3    3    0  502 -0.98849345894E+02  0.38273826129E+02 -0.18033222185E+02  0.10760459308E+03  0.41800000000E+01 0.  1.
        -11    1    1    2    0    0  0.51834404249E+02 -0.17881314378E+01 -0.38552881949E+02  0.64624512258E+02  0.00000000000E+00 0.  1.
         11    1    1    2    0    0  0.14177563403E+02 -0.80073424711E+02 -0.13827540694E+02  0.82486105076E+02  0.00000000000E+00 0. -1.
</event>
<event>
 7    1  0.2841804E-009  0.1534430E+03  0.7561462E-02  0.1196305E+00
         -1   -1    0    0    0  501 -0.00000000000E+00  0.00000000000E+00  0.58938907499E+02  0.58938907499E+02  0.00000000000E+00 0.  1.
          1   -1    0    0  501    0  0.00000000000E+00 -0.00000000000E+00 -0.54841867079E+03  0.54841867079E+03  0.00000000000E+00 0. -1.
         25    2    1    2    0    0  0.11210045910E+03  0.82474315454E+02 -0.20670520774E+03  0.27882415684E+03  0.12508933565E+03 0.  0.
          5    1    3    3  502    0  0.92256838772E+02  0.99770163873E+02 -0.99809973235E+02  0.16865619780E+03  0.41800000000E+01 0.  1.
         -5    1    3    3    0  502  0.19843620330E+02 -0.17295848419E+02 -0.10689523450E+03  0.11016795904E+03  0.41800000000E+01 0.  1.
        -11    1    1    2    0    0 -0.51516733872E+02 -0.61370751247E+02 -0.70333256885E+02  0.10661664974E+03  0.00000000000E+00 0.  1.
         11    1    1    2    0    0 -0.60583725229E+02 -0.21103564207E+02 -0.21244129867E+03  0.22191677171E+03  0.00000000000E+00 0. -1.
</event>
<event>
 7    1  0.2841804E-009  0.1287625E+03  0.7561462E-02  0.1229304E+00
          1   -1    0    0  501    0  0.00000000000E+00  0.00000000000E+00  0.27349343280E+03  0.27349343280E+03  0.00000000000E+00 0. -1.
         -1   -1    0    0    0  501 -0.00000000000E+00 -0.00000000000E+00 -0.68161544544E+02  0.68161544544E+02  0.00000000000E+00 0.  1.
         25    2    1    2    0    0  0.23407161708E+02 -0.77391032228E+02  0.88840469560E+02  0.17342915506E+03  0.12509106965E+03 0.  0.
          5    1    3    3  502    0  0.68279555043E+02 -0.13963299602E+02  0.53563212954E+02  0.87997508798E+02  0.41800000000E+01 0. -1.
         -5    1    3    3    0  502 -0.44872393335E+02 -0.63427732626E+02  0.35277256605E+02  0.85431646263E+02  0.41800000000E+01 0. -1.
        -11    1    1    2    0    0 -0.41693964085E+02  0.14091362319E+02  0.83843423922E+02  0.94692517487E+02  0.00000000000E+00 0. -1.
         11    1    1    2    0    0  0.18286802377E+02  0.63299669909E+02  0.32647994779E+02  0.73533304800E+02  0.00000000000E+00 0.  1.
</event>
<event>
 7    1  0.2841804E-009  0.2682713E+03  0.7561462E-02  0.1102273E+00
         -2   -1    0    0    0  501 -0.00000000000E+00  0.00000000000E+00  0.16595546044E+03  0.16595546044E+03  0.00000000000E+00 0.  1.
          2   -1    0    0  501    0  0.00000000000E+00 -0.00000000000E+00 -0.52332348132E+03  0.52332348132E+03  0.00000000000E+00 0. -1.
         25    2    1    2    0    0 -0.21066198558E+03 -0.14413323713E+03 -0.29748487384E+03  0.41145728263E+03  0.12508790131E+03 0.  0.
          5    1    3    3  502    0 -0.10748338015E+02  0.16130349053E+02 -0.55762563962E+02  0.59183197534E+02  0.41800000000E+01 0. -1.
         -5    1    3    3    0  502 -0.19991364756E+03 -0.16026358619E+03 -0.24172230988E+03  0.35227408510E+03  0.41800000000E+01 0. -1.
        -11    1    1    2    0    0  0.86797576497E+02  0.90758455655E+02  0.98840525053E+01  0.12597067537E+03  0.00000000000E+00 0. -1.
         11    1    1    2    0    0  0.12386440908E+03  0.53374781478E+02 -0.69767199551E+02  0.15185098376E+03  0.00000000000E+00 0.  1.
</event>
<event>
 7    1  0.2841804E-009  0.8927369E+02  0.7561462E-02  0.1304620E+00
         -4   -1    0    0    0  501 -0.00000000000E+00  0.00000000000E+00  0.31993293623E+03  0.31993293623E+03  0.00000000000E+00 0.  1.
          4   -1    0    0  501    0  0.00000000000E+00 -0.00000000000E+00 -0.42295332461E+02  0.42295332461E+02  0.00000000000E+00 0. -1.
         25    2    1    2    0    0 -0.21229484056E+02  0.37743748488E+01  0.20708232788E+03  0.24288984344E+03  0.12508976227E+03 0.  0.
          5    1    3    3  502    0 -0.69314056737E+01  0.48178747259E+02  0.24997748497E+02  0.54878009275E+02  0.41800000000E+01 0. -1.
         -5    1    3    3    0  502 -0.14298078382E+02 -0.44404372411E+02  0.18208457938E+03  0.18801183416E+03  0.41800000000E+01 0. -1.
        -11    1    1    2    0    0 -0.26594958542E+02  0.16076357998E+02  0.58394886337E+02  0.66149103219E+02  0.00000000000E+00 0.  1.
         11    1    1    2    0    0  0.47824442598E+02 -0.19850732847E+02  0.12160389546E+02  0.53189322032E+02  0.00000000000E+00 0. -1.
</event>
<event>
 7    1  0.2841804E-009  0.1355978E+03  0.7561462E-02  0.1219378E+00
          4   -1    0    0  501    0  0.00000000000E+00  0.00000000000E+00  0.72441500656E+02  0.72441500656E+02  0.00000000000E+00 0.  1.
         -4   -1    0    0    0  501 -0.00000000000E+00 -0.00000000000E+00 -0.44022849545E+03  0.44022849545E+03  0.00000000000E+00 0. -1.
         25    2    1    2    0    0  0.72582092316E+02  0.38706540139E+02 -0.35722142179E+03  0.38732538792E+03  0.12508979001E+03 0.  0.
          5    1    3    3  502    0  0.53354018809E+02 -0.39227718317E+02 -0.20047553170E+03  0.21117143845E+03  0.41800000000E+01 0.  1.
         -5    1    3    3    0  502  0.19228073507E+02  0.77934258456E+02 -0.15674589009E+03  0.17615394947E+03  0.41800000000E+01 0.  1.
        -11    1    1    2    0    0  0.21300869796E+02 -0.18975325068E+02 -0.68540263583E+01  0.29338842731E+02  0.00000000000E+00 0.  1.
         11    1    1    2    0    0 -0.93882962112E+02 -0.19731215071E+02 -0.37115466468E+01  0.96005765461E+02  0.00000000000E+00 0. -1.
</event>
<event>
 7    1  0.2841804E-009  0.9352947E+02  0.7561462E-02  0.1294523E+00
          1   -1    0    0  501    0  0.00000000000E+00  0.00000000000E+00  0.91691227569E+02  0.91691227569E+02  0.00000000000E+00 0. -1.
         -1   -1    0    0    0  501 -0.00000000000E+00 -0.00000000000E+00 -0.17533243996E+03  0.17533243996E+03  0.00000000000E+00 0.  1.
         25    2    1    2    0    0 -0.43491191455E+02 -0.15845495406E+02 -0.99864686322E+02  0.16662306122E+03  0.12509086896E+03 0.  0.
          5    1    3    3  502    0 -0.42085136916E+02  0.33348211081E+02 -0.10393900784E+03  0.11706430576E+03  0.41800000000E+01 0.  1.
         -5    1    3    3    0  502 -0.14060545394E+01 -0.49193706487E+02  0.40743215175E+01  0.49558755464E+02  0.41800000000E+01 0.  1.
        -11    1    1    2    0    0  0.56924783160E+02 -0.69527211787E+01  0.35692959564E+02  0.67548194883E+02  0.00000000000E+00 0. -1.
         11    1    1    2    0    0 -0.13433591704E+02  0.22798216585E+02 -0.19469485628E+02  0.32852411421E+02  0.00000000000E+00 0.  1.
</event>
<event>
 7    1  0.2841804E-009  0.1603552E+03  0.7561462E-02  0.1188296E+00
         -1   -1    0    0    0  501 -0.00000000000E+00  0.00000000000E+00  0.84733531207E+02  0.84733531207E+02  0.00000000000E+00 0.  1.
          1   -1    0    0  501    0  0.00000000000E+00 -0.00000000000E+00 -0.42754635393E+03  0.42754635393E+03  0.00000000000E+00 0. -1.
         25    2    1    2    0    0 -0.14701933820E+03 -0.50516142773E+02 -0.17569834818E+03  0.26586350725E+03  0.12508768303E+03 0.  0.
          5    1    3    3  502    0 -0.86257945768E+02 -0.55860718162E+02 -0.28887484813E+02  0.10683076439E+03  0.41800000000E+01 0.  1.
         -5    1    3    3    0  502 -0.60761392432E+02  0.53445753894E+01 -0.14681086337E+03  0.15903274285E+03  0.41800000000E+01 0.  1.
        -11    1    1    2    0    0  0.49691586179E+02  0.72827605024E+01 -0.24099607952E+01  0.50280217268E+02  0.00000000000E+00 0.  1.
         11    1    1    2    0    0  0.97327752021E+02  0.43233382270E+02 -0.16470451374E+03  0.19613616062E+03  0.00000000000E+00 0. -1.
</event>
<event>
 7    1  0.2841804E-009  0.1917929E+03  0.7561462E-02  0.1156854E+00
          2   -1    0    0  501    0  0.00000000000E+00  0.00000000000E+00  0.12296112841E+04  0.12296112841E+04  0.00000000000E+00 0.  1.
         -2   -1    0    0    0  501 -0.00000000000E+00 -0.00000000000E+00 -0.40519780851E+02  0.40519780851E+02  0.00000000000E+00 0. -1.
         25    2    1    2    0    0 -0.15926458706E+03 -0.92886537523E+02  0.44020036129E+03  0.49337238241E+03  0.12508729794E+03 0.  0.
          5    1    3    3  502    0 -0.24973817593E+02  0.11065129280E+02  0.76685617911E+01  0.28677654910E+02  0.41800000000E+01 0.  1.
         -5    1    3    3    0  502 -0.13429076947E+03 -0.10395166680E+03  0.43253179949E+03  0.46469472750E+03  0.41800000000E+01 0.  1.
        -11    1    1    2    0    0  0.14594699292E+03  0.92427271742E+02  0.74182766524E+03  0.76167684107E+03  0.00000000000E+00 0.  1.
         11    1    1    2    0    0  0.13317594142E+02  0.45926578088E+00  0.70634767298E+01  0.15081841476E+02  0.00000000000E+00 0. -1.
</event>
<event>
 7    1  0.2841804E-009  0.8691101E+02  0.7561462E-02  0.1310509E+00
         -2   -1    0    0    0  501 -0.00000000000E+00  0.00000000000E+00  0.68098344674E+02  0.68098344674E+02  0.00000000000E+00 0.  1.
          2   -1    0    0  501    0  0.00000000000E+00 -0.00000000000E+00 -0.18944226551E+03  0.18944226551E+03  0.00000000000E+00 0. -1.
         25    2    1    2    0    0 -0.40745488263E+01 -0.72523611323E+01 -0.44947363915E+02  0.13318066489E+03  0.12509046841E+03 0.  0.
          5    1    3    3  502    0  0.19693855681E+02  0.51772443368E+02 -0.67916932416E+00  0.55553285365E+02  0.41800000000E+01 0. -1.
         -5    1    3    3    0  502 -0.23768404507E+02 -0.59024804500E+02 -0.44268194591E+02  0.77627379522E+02  0.41800000000E+01 0. -1.
        -11    1    1    2    0    0 -0.16252440169E+02 -0.16555754545E+02 -0.87974695217E+02  0.90982315966E+02  0.00000000000E+00 0. -1.
         11    1    1    2    0    0  0.20326988995E+02  0.23808115678E+02  0.11578138292E+02  0.33377629335E+02  0.00000000000E+00 0.  1.
</event>
<event>
 6    1  0.2841804E-009  0.1258247E+03  0.7561462E-02  0.1233786E+00
         -2   -1    0    0    0  501 -0.00000000000E+00  0.00000000000E+00  0.68891478314E+02  0.68891478314E+02  0.00000000000E+00 0. -1.
          2   -1    0    0  501    0  0.00000000000E+00 -0.00000000000E+00 -0.36226663840E+03  0.36226663840E+03  0.00000000000E+00 0.  1.
          5    1    1    2  502    0 -0.42153923905E+02  0.35329351637E+02 -0.97453169312E+01  0.56013926748E+02  0.41800000000E+01 0. -1.
         -5    1    1    2    0  502  0.87067939424E+02  0.33903104262E+02 -0.41066618914E+02  0.10214786411E+03  0.41800000000E+01 0. -1.
        -11    1    1    2    0    0 -0.58230875994E+02 -0.39448536867E+02 -0.22542606010E+03  0.23614387681E+03  0.00000000000E+00 0.  1.
         11    1    1    2    0    0  0.13316860475E+02 -0.29783919031E+02 -0.17137164135E+02  0.36852449042E+02  0.00000000000E+00 0. -1.
</event>
<event>
 7    1  0.2841804E-009  0.1789627E+03  0.7561462E-02  0.1168811E+00
          2   -1    0    0  501    0  0.00000000000E+00  0.00000000000E+00  0.57672533911E+03  0.57672533911E+03  0.00000000000E+00 0. -1.
         -2   -1    0    0    0  501 -0.00000000000E+00 -0.00000000000E+00 -0.64392394130E+02  0.64392394130E+02  0.00000000000E+00 0.  1.
         25    2    1    2    0    0  0.12004567929E+03  0.92852869841E+02  0.34206675745E+03  0.39457750573E+03  0.12509644648E+03 0.  0.
          5    1    3    3  502    0 -0.80469160429E+01  0.49506380967E+02  0.42489812628E+02  0.65867223954E+02  0.41800000000E+01 0. -1.
         -5    1    3    3    0  502  0.12809259534E+03  0.43346488874E+02  0.29957694482E+03  0.32871028178E+03  0.41800000000E+01 0. -1.
        -11    1    1    2    0    0 -0.22808401106E+02 -0.68308206214E+02  0.10339398061E+03  0.12600218023E+03  0.00000000000E+00 0.  1.
         11    1    1    2    0    0 -0.97237278187E+02 -0.24544663627E+02  0.66872206914E+02  0.12053804727E+03  0.00000000000E+00 0. -1.
</event>
<event>
 7    1  0.2841804E-009  0.1048741E+03  0.7561462E-02  0.1270368E+00
          2   -1    0    0  501    0  0.00000000000E+00  0.00000000000E+00  0.16417293380E+03  0.16417293380E+03  0.00000000000E+00 0. -1.
         -2   -1    0    0    0  501 -0.00000000000E+00 -0.00000000000E+00 -0.77738925516E+02  0.77738925516E+02  0.00000000000E+00 0.  1.
         25    2    1    2    0    0 -0.35730938861E+02  0.11186048982E+02  0.57868129500E+02  0.14282343437E+03  0.12509190746E+03 0.  0.
          5    1    3    3  502    0  0.10166423538E+02 -0.50773293270E+02  0.33644414794E+02  0.61892669387E+02  0.41800000000E+01 0. -1.
         -5    1    3    3    0  502 -0.45897362398E+02  0.61959342251E+02  0.24223714707E+02  0.80930764988E+02  0.41800000000E+01 0. -1.
        -11    1    1    2    0    0 -0.16841367940E+02  0.14355784681E+02 -0.14526707310E+02  0.26471597102E+02  0.00000000000E+00 0.  1.
         11    1    1    2    0    0  0.52572306801E+02 -0.25541833662E+02  0.43092586095E+02  0.72616827840E+02  0.00000000000E+00 0. -1.
</event>
<event>
 7    1  0.2841804E-009  0.1041255E+03  0.7561462E-02  0.1271852E+00
         -1   -1    0    0    0  501 -0.00000000000E+00  0.00000000000E+00  0.22748502755E+02  0.22748502755E+02  0.00000000000E+00 0.  1.
          1   -1    0    0  501    0  0.00000000000E+00 -0.00000000000E+00 -0.74799578081E+03  0.74799578081E+03  0.00000000000E+00 0. -1.
         25    2    1    2    0    0  0.64283374099E+02 -0.31748953604E+02 -0.37461114877E+03  0.40139834060E+03  0.12508703695E+03 0.  0.
          5    1    3    3  502    0  0.66543456148E+02 -0.48787921950E+02 -0.37470889153E+03  0.38370889835E+03  0.41800000000E+01 0. -1.
         -5    1    3    3    0  502 -0.22600820486E+01  0.17038968346E+02  0.97742764267E-01  0.17689442241E+02  0.41800000000E+01 0. -1.
        -11    1    1    2    0    0 -0.34820206082E+02 -0.25769047510E+02 -0.78678461389E+02  0.89815315218E+02  0.00000000000E+00 0.  1.
         11    1    1    2    0    0 -0.29463168017E+02  0.57518001114E+02 -0.27195766790E+03  0.27953062775E+03  0.00000000000E+00 0. -1.
</event>
<event>
 7    1  0.2841804E-009  0.8666393E+02  0.7561462E-02  0.1311138E+00
          1   -1    0    0  501    0  0.00000000000E+00  0.00000000000E+00  0.13958648789E+04  0.13958648789E+04  0.00000000000E+00 0. -1.
         -1   -1    0    0    0  501 -0.00000000000E+00 -0.00000000000E+00 -0.11147789323E+02  0.11147789323E+02  0.00000000000E+00 0.  1.
         25    2    1    2    0    0 -0.29963444912E+01  0.71187434428E-01  0.11167194094E+04  0.11237069959E+04  0.12508473136E+03 0.  0.
          5    1    3    3  502    0 -0.74474108452E+01  0.48564496424E+02  0.90813355002E+03  0.90947127020E+03  0.41800000000E+01 0. -1.
         -5    1    3    3    0  502  0.44510663540E+01 -0.48493308990E+02  0.20858585942E+03  0.21423572568E+03  0.41800000000E+01 0. -1.
        -11    1    1    2    0    0 -0.32399864987E+02  0.16154642256E+02  0.21219161690E+03  0.21525799869E+03  0.00000000000E+00 0. -1.
         11    1    1    2    0    0  0.35396209479E+02 -0.16225829690E+02  0.55806063189E+02  0.68047673607E+02  0.00000000000E+00 0.  1.
</event>
<event>
 7    1  0.2841804E-009  0.8437848E+02  0.7561462E-02  0.1317066E+00
          2   -1    0    0  501    0  0.00000000000E+00  0.00000000000E+00  0.64603211803E+02  0.64603211803E+02  0.00000000000E+00 0. -1.
         -2   -1    0    0    0  501 -0.00000000000E+00 -0.00000000000E+00 -0.24691704146E+03  0.24691704146E+03  0.00000000000E+00 0.  1.
         25    2    1    2    0    0 -0.14341333450E+02 -0.58489503905E+02 -0.70872451434E+02  0.15586877687E+03  0.12508187447E+03 0.  0.
          5    1    3    3  502    0  0.18861547173E+01 -0.31685268071E+02 -0.10475009735E+03  0.10953341539E+03  0.41800000000E+01 0.  1.
         -5    1    3    3    0  502 -0.16227488167E+02 -0.26804235835E+02  0.33877645917E+02  0.46335361483E+02  0.41800000000E+01 0.  1.
        -11    1    1    2    0    0  0.50292626123E+02  0.42238000797E+02 -0.49621610459E+02  0.82314647410E+02  0.00000000000E+00 0. -1.
         11    1    1    2    0    0 -0.35951292673E+02  0.16251503108E+02 -0.61819767766E+02  0.73336828980E+02  0.00000000000E+00 0.  1.
</event>
<event>
 7    1  0.2841804E-009  0.1004448E+03  0.7561462E-02  0.1279363E+00
         -1   -1    0    0    0  501 -0.00000000000E+00  0.00000000000E+00  0.18074077924E+02  0.18074077924E+02  0.00000000000E+00 0.  1.
          1   -1    0    0  501    0  0.00000000000E+00 -0.00000000000E+00 -0.10727117315E+04  0.10727117315E+04  0.00000000000E+00 0. -1.
         25    2    1    2    0    0 -0.13930152979E+02  0.13867418638E+01 -0.89878117342E+03  0.90755227165E+03  0.12509019093E+03 0.  0.
          5    1    3    3  502    0 -0.30508183413E+02  0.58159587902E+02 -0.52260533130E+03  0.52673246684E+03  0.41800000000E+01 0.  1.
         -5    1    3    3    0  502  0.16578030434E+02 -0.56772846039E+02 -0.37617584213E+03  0.38081980481E+03  0.41800000000E+01 0.  1.
        -11    1    1    2    0    0  0.40023929478E+02 -0.19003150604E+02 -0.30020606660E+02  0.53518889076E+02  0.00000000000E+00 0.  1.
         11    1    1    2    0    0 -0.26093776499E+02  0.17616408740E+02 -0.12583587353E+03  0.12971464873E+03  0.00000000000E+00 0. -1.
</event>
<event>
 7    1  0.2841804E-009  0.9786571E+02  0.7561462E-02  0.1284849E+00
          4   -1    0    0  501    0  0.00000000000E+00  0.00000000000E+00  0.86209075236E+02  0.86209075236E+02  0.00000000000E+00 0. -1.
         -4   -1    0    0    0  501 -0.00000000000E+00 -0.00000000000E+00 -0.34523325957E+03  0.34523325957E+03  0.00000000000E+00 0.  1.
         25    2    1    2    0    0  0.37665928391E+02  0.26173489029E+01  0.22999302359E+02  0.13262479865E+03  0.12503918038E+03 0.  0.
          5    1    3    3  502    0 -0.24908362705E+02 -0.18403734110E+02  0.51789505527E+02  0.60487595791E+02  0.41800000000E+01 0.  1.
         -5    1    3    3    0  502  0.62574291096E+02  0.21021083013E+02 -0.28790203169E+02  0.72137202855E+02  0.41800000000E+01 0.  1.
        -11    1    1    2    0    0 -0.10359310829E+02  0.43514186632E+02 -0.14222864142E+03  0.14909656669E+03  0.00000000000E+00 0.  1.
         11    1    1    2    0    0 -0.27306617562E+02 -0.46131535535E+02 -0.13979484528E+03  0.14972096947E+03  0.00000000000E+00 0. -1.
</event>
<event>
 7    1  0.2841804E-009  0.1352919E+03  0.7561462E-02  0.1219808E+00
         -2   -1    0    0    0  501 -0.00000000000E+00  0.00000000000E+00  0.65533959653E+03  0.65533959653E+03  0.00000000000E+00 0.  1.
          2   -1    0    0  501    0  0.00000000000E+00 -0.00000000000E+00 -0.29991791372E+02  0.29991791372E+02  0.00000000000E+00 0. -1.
         25    2    1    2    0    0  0.39715409211E+02 -0.68491798845E+02  0.25371009139E+03  0.29372787454E+03  0.12505524207E+03 0.  0.
          5    1    3    3  502    0  0.19979251078E+01  0.36188931538E+02  0.56528132348E+02  0.67279511126E+02  0.41800000000E+01 0. -1.
         -5    1    3    3    0  502  0.37717484103E+02 -0.10468073038E+03  0.19718195905E+03  0.22644836342E+03  0.41800000000E+01 0. -1.
        -11    1    1    2    0    0  0.45952709007E+01  0.77415942689E+02  0.25423223806E+03  0.26579762144E+03  0.00000000000E+00 0.  1.
         11    1    1    2    0    0 -0.44310680111E+02 -0.89241438440E+01  0.11740547571E+03  0.12580589192E+03  0.00000000000E+00 0. -1.
</event>
<event>
 7    1  0.2841804E-009  0.1099848E+03  0.7561462E-02  0.1260598E+00
         -2   -1    0    0    0  501 -0.00000000000E+00  0.00000000000E+00  0.51720845790E+02  0.51720845790E+02  0.00000000000E+00 0. -1.
          2   -1    0    0  501    0  0.00000000000E+00 -0.00000000000E+00 -0.25805165178E+03  0.25805165178E+03  0.00000000000E+00 0.  1.
         25    2    1    2    0    0 -0.41420223453E+02 -0.77245997847E+01 -0.10163736500E+03  0.16659304533E+03  0.12509110454E+03 0.  0.
          5    1    3    3  502    0 -0.35218402496E+02  0.55217852363E+02 -0.34050451420E+02  0.73934110773E+02  0.41800000000E+01 0.  1.
         -5    1    3    3    0  502 -0.62018209570E+01 -0.62942452147E+02 -0.67586913577E+02  0.92658934553E+02  0.41800000000E+01 0.  1.
        -11    1    1    2    0    0  0.19490126549E+02 -0.36621972995E+02 -0.74355227455E+02  0.85145368569E+02  0.00000000000E+00 0.  1.
         11    1    1    2    0    0  0.21930096904E+02  0.44346572780E+02 -0.30338213539E+02  0.58034083677E+02  0.00000000000E+00 0. -1.
</event>
<event>
 7    1  0.2841804E-009  0.1485969E+03  0.7561462E-02  0.1202208E+00
         -2   -1    0    0    0  501 -0.00000000000E+00  0.00000000000E+00  0.28689929787E+03  0.28689929787E+03  0.00000000000E+00 0.  1.
          2   -1    0    0  501    0  0.00000000000E+00 -0.00000000000E+00 -0.10317723899E+03  0.10317723899E+03  0.00000000000E+00 0. -1.
         25    2    1    2    0    0 -0.67043501431E+02 -0.10912038483E+03  0.58506794481E+02  0.18833987029E+03  0.12508705876E+03 0.  0.
          5    1    3    3  502    0 -0.87405697682E+02 -0.10944006582E+03  0.77546516943E+02  0.16014936367E+03  0.41800000000E+01 0. -1.
         -5    1    3    3    0  502  0.20362196251E+02  0.31968098361E+00 -0.19039722462E+02  0.28190506620E+02  0.41800000000E+01 0. -1.
        -11    1    1    2    0    0  0.29347174645E+02  0.88660119145E+02  0.12835009908E+03  0.15873128652E+03  0.00000000000E+00 0.  1.
         11    1    1    2    0    0  0.37696326786E+02  0.20460265687E+02 -0.31348346763E+01  0.43005380054E+02  0.00000000000E+00 0. -1.
</event>
<event>
 7    1  0.2841804E-009  0.1908919E+03  0.7561462E-02  0.1157659E+00
          2   -1    0    0  501    0  0.00000000000E+00  0.00000000000E+00  0.10861775268E+04  0.10861775268E+04  0.00000000000E+00 0.  1.
         -2   -1    0    0    0  501 -0.00000000000E+00 -0.00000000000E+00 -0.37910669231E+02  0.37910669231E+02  0.00000000000E+00 0. -1.
         25    2    1    2    0    0 -0.13425300660E+03  0.70539296864E+02  0.71201664846E+03  0.73865835923E+03  0.12509517099E+03 0.  0.
          5    1    3    3  502    0 -0.78257643056E+02 -0.25454171835E+02  0.36802493178E+03  0.37713657522E+03  0.41800000000E+01 0. -1.
         -5    1    3    3    0  502 -0.55995363547E+02  0.95993468699E+02  0.34399171668E+03  0.36152178401E+03  0.41800000000E+01 0. -1.
        -11    1    1    2    0    0  0.96633941697E+02 -0.10099033364E+03  0.25769461221E+03  0.29316152431E+03  0.00000000000E+00 0.  1.
         11    1    1    2    0    0  0.37619064906E+02  0.30451036772E+02  0.78555596951E+02  0.92268312530E+02  0.00000000000E+00 0. -1.
</event>
<event>
 7    1  0.2841804E-009  0.9671421E+02  0.7561462E-02  0.1287361E+00
          1   -1    0    0  501    0  0.00000000000E+00  0.00000000000E+00  0.13308695560E+03  0.13308695560E+03  0.00000000000E+00 0. -1.
         -1   -1    0    0    0  501 -0.00000000000E+00 -0.00000000000E+00 -0.86003616542E+02  0.86003616542E+02  0.00000000000E+00 0.  1.
         25    2    1    2    0    0 -0.76939292422E+01  0.75958633280E+01  0.27886544581E+02  0.12861685633E+03  0.12509093763E+03 0.  0.
          5    1    3    3  502    0  0.17325437854E+02 -0.50139441066E+02  0.37122608669E+02  0.64882161043E+02  0.41800000000E+01 0.  1.
         -5    1    3    3    0  502 -0.25019367096E+02  0.57735304394E+02 -0.92360640873E+01  0.63734695286E+02  0.41800000000E+01 0.  1.
        -11    1    1    2    0    0 -0.99985506088E+01 -0.39460067921E+02 -0.12064040723E+02  0.42457143723E+02  0.00000000000E+00 0.  1.
         11    1    1    2    0    0  0.17692479851E+02  0.31864204593E+02  0.31260835195E+02  0.48016572084E+02  0.00000000000E+00 0. -1.
</event>
<event>
 7    1  0.2841804E-009  0.1209777E+03  0.7561462E-02  0.1241493E+00
         -1   -1    0    0    0  501 -0.00000000000E+00  0.00000000000E+00  0.92542043174E+02  0.92542043174E+02  0.00000000000E+00 0.  1.
          1   -1    0    0  501    0  0.00000000000E+00 -0.00000000000E+00 -0.17968452599E+03  0.17968452599E+03  0.00000000000E+00 0. -1.
         25    2    1    2    0    0 -0.37296390225E+01 -0.62674819966E+02 -0.79904944353E+02  0.16116632031E+03  0.12509092456E+03 0.  0.
          5    1    3    3  502    0  0.39046092554E+02  0.21690553269E+02 -0.19946495666E+02  0.49095952320E+02  0.41800000000E+01 0.  1.
         -5    1    3    3    0  502 -0.42775731577E+02 -0.84365373236E+02 -0.59958448687E+02  0.11207036799E+03  0.41800000000E+01 0.  1.
        -11    1    1    2    0    0 -0.38477218137E+02  0.25431263413E+02  0.17820740620E+02  0.49445164279E+02  0.00000000000E+00 0.  1.
         11    1    1    2    0    0  0.42206857159E+02  0.37243556554E+02 -0.25058279082E+02  0.61615084570E+02  0.00000000000E+00 0. -1.
</event>
<event>
 7    1  0.2841804E-009  0.1315582E+03  0.7561462E-02  0.1225162E+00
          2   -1    0    0  501    0  0.00000000000E+00  0.00000000000E+00  0.21800333932E+03  0.21800333932E+03  0.00000000000E+00 0.  1.
         -2   -1    0    0    0  501 -0.00000000000E+00 -0.00000000000E+00 -0.16182939233E+03  0.16182939233E+03  0.00000000000E+00 0. -1.
         25    2    1    2    0    0  0.23693275428E+02 -0.80800812036E+02 -0.10037941669E+03  0.18114551142E+03  0.12509007349E+03 0.  0.
          5    1    3    3  502    0  0.12948249408E+02  0.28353335398E+02  0.13681960265E+01  0.31478773027E+02  0.41800000000E+01 0. -1.
         -5    1    3    3    0  502  0.10745026020E+02 -0.10915414743E+03 -0.10174761272E+03  0.14966673839E+03  0.41800000000E+01 0. -1.
        -11    1    1    2    0    0 -0.18995756738E+02  0.10018032413E+03  0.13678956928E+03  0.17061161268E+03  0.00000000000E+00 0. -1.
         11    1    1    2    0    0 -0.46975186895E+01 -0.19379512092E+02  0.19763794397E+02  0.28075607558E+02  0.00000000000E+00 0.  1.
</event>
<event>
 7    1  0.2847389E-009  0.1036714E+03  0.7561462E-02  0.1272760E+00
          1   -1    0    0  501    0  0.00000000000E+00  0.00000000000E+00  0.12791471900E+03  0.12791471900E+03  0.00000000000E+00 0. -1.
         -1   -1    0    0    0  501 -0.00000000000E+00 -0.00000000000E+00 -0.11030643577E+03  0.11030643577E+03  0.00000000000E+00 0.  1.
         25    2    1    2    0    0 -0.79285355918E+01  0.44916462753E+01 -0.38240001748E+02  0.13110213747E+03  0.12506972516E+03 0.  0.
          5    1    3    3  502    0 -0.29878675953E+02 -0.53828395551E+02 -0.98095401808E+01  0.62481444629E+02  0.41800000000E+01 0.  1.
         -5    1    3    3    0  502  0.21950140362E+02  0.58320041826E+02 -0.28430461567E+02  0.68620692837E+02  0.41800000000E+01 0.  1.
        -11    1    1    2    0    0 -0.11943348959E+02 -0.40407397719E+02  0.60232113960E+01  0.42563839703E+02  0.00000000000E+00 0.  1.
         11    1    1    2    0    0  0.19871884551E+02  0.35915751443E+02  0.49825073583E+02  0.64555177600E+02  0.00000000000E+00 0. -1.
</event>
<event>
 7    1  0.2841804E-009  0.1105388E+03  0.7561462E-02  0.1259575E+00
          4   -1    0    0  501    0  0.00000000000E+00  0.00000000000E+00  0.10547441590E+03  0.10547441590E+03  0.00000000000E+00 0. -1.
         -4   -1    0    0    0  501 -0.00000000000E+00 -0.00000000000E+00 -0.17092072539E+03  0.17092072539E+03  0.00000000000E+00 0.  1.
         25    2    1    2    0    0  0.21665662812E+02  0.34558860350E+02 -0.10646473276E+03  0.16925018336E+03  0.12508864645E+03 0.  0.
          5    1    3    3  502    0  0.50050704954E+02  0.66516265597E+02 -0.46346654899E+02  0.95367559871E+02  0.41800000000E+01 0. -1.
         -5    1    3    3    0  502 -0.28385042143E+02 -0.31957405246E+02 -0.60118077859E+02  0.73882623485E+02  0.41800000000E+01 0. -1.
        -11    1    1    2    0    0 -0.54867843768E+02 -0.24501706793E+02  0.10624535978E+02  0.61022083546E+02  0.00000000000E+00 0.  1.
         11    1    1    2    0    0  0.33202180957E+02 -0.10057153558E+02  0.30393887288E+02  0.46122874395E+02  0.00000000000E+00 0. -1.
</event>
<event>
 7    1  0.2841804E-009  0.1041033E+03  0.7561462E-02  0.1271896E+00
         -3   -1    0    0    0  501 -0.00000000000E+00  0.00000000000E+00  0.14037110570E+03  0.14037110570E+03  0.00000000000E+00 0.  1.
          3   -1    0    0  501    0  0.00000000000E+00 -0.00000000000E+00 -0.12503267814E+03  0.12503267814E+03  0.00000000000E+00 0. -1.
         25    2    1    2    0    0  0.69333551761E+02  0.12722795942E+02  0.38895697442E+02  0.14876126730E+03  0.12509207981E+03 0.  0.
          5    1    3    3  502    0 -0.76823814500E+01  0.50821186092E+02 -0.56668610274E+01  0.51878682081E+02  0.41800000000E+01 0.  1.
         -5    1    3    3    0  502  0.77015933211E+02 -0.38098390150E+02  0.44562558470E+02  0.96882585214E+02  0.41800000000E+01 0.  1.
        -11    1    1    2    0    0 -0.22274733103E+02 -0.60622864848E+01  0.34563056105E+02  0.41563444269E+02  0.00000000000E+00 0.  1.
         11    1    1    2    0    0 -0.47058818658E+02 -0.66605094574E+01 -0.58120325995E+02  0.75079072273E+02  0.00000000000E+00 0. -1.
</event>
<event>
 7    1  0.2841804E-009  0.1372929E+03  0.7561462E-02  0.1217019E+00
         -2   -1    0    0    0  501 -0.00000000000E+00  0.00000000000E+00  0.49491286936E+02  0.49491286936E+02  0.00000000000E+00 0.  1.
          2   -1    0    0  501    0  0.00000000000E+00 -0.00000000000E+00 -0.42608056939E+03  0.42608056939E+03  0.00000000000E+00 0. -1.
         25    2    1    2    0    0 -0.50192572499E+02  0.82419804005E+02 -0.21109558921E+03  0.26366893881E+03  0.12509053954E+03 0.  0.
          5    1    3    3  502    0 -0.53937681494E+02  0.10896851066E+03 -0.12951411875E+03  0.17769296316E+03  0.41800000000E+01 0. -1.
         -5    1    3    3    0  502  0.37451089946E+01 -0.26548706658E+02 -0.81581470461E+02  0.85975975651E+02  0.41800000000E+01 0. -1.
        -11    1    1    2    0    0  0.47220662664E+02 -0.40814400785E+01 -0.96332406437E+02  0.10736098763E+03  0.00000000000E+00 0.  1.
         11    1    1    2    0    0  0.29719098346E+01 -0.78338363927E+02 -0.69161286802E+02  0.10454192988E+03  0.00000000000E+00 0. -1.
</event>
<event>
 7    1  0.2841804E-009  0.1149407E+03  0.7561462E-02  0.1251685E+00
          2   -1    0    0  501    0  0.00000000000E+00  0.00000000000E+00  0.46119911166E+03  0.46119911166E+03  0.00000000000E+00 0. -1.
         -2   -1    0    0    0  501 -0.00000000000E+00 -0.00000000000E+00 -0.32515006492E+02  0.32515006492E+02  0.00000000000E+00 0.  1.
         25    2    1    2    0    0  0.42808067579E+02  0.37453692530E+02  0.21572699273E+03  0.25577708129E+03  0.12509384550E+03 0.  0.
          5    1    3    3  502    0 -0.37938254155E+02  0.31086663737E+02  0.44695022363E+02  0.66489166145E+02  0.41800000000E+01 0.  1.
         -5    1    3    3    0  502  0.80746321733E+02  0.63670287929E+01  0.17103197037E+03  0.18928791514E+03  0.41800000000E+01 0.  1.
        -11    1    1    2    0    0  0.10035048552E+02  0.19455571733E+02  0.89073920586E+02  0.91724504902E+02  0.00000000000E+00 0. -1.
         11    1    1    2    0    0 -0.52843116130E+02 -0.56909264264E+02  0.12388319185E+03  0.14621253197E+03  0.00000000000E+00 0.  1.
</event>
<event>
 7    1  0.2841804E-009  0.1801537E+03  0.7561462E-02  0.1167654E+00
         -2   -1    0    0    0  501 -0.00000000000E+00  0.00000000000E+00  0.55373037502E+02  0.55373037502E+02  0.00000000000E+00 0. -1.
          2   -1    0    0  501    0  0.00000000000E+00 -0.00000000000E+00 -0.12951455105E+04  0.12951455105E+04  0.00000000000E+00 0.  1.
         25    2    1    2    0    0  0.15383835696E+03 -0.46518514436E+02 -0.11001619436E+04  0.11188542368E+04  0.12509311989E+03 0.  0.
          5    1    3    3  502    0  0.23527184595E+02  0.31344903400E+02 -0.10464994932E+03  0.11182627453E+03  0.41800000000E+01 0.  1.
         -5    1    3    3    0  502  0.13031117236E+03 -0.77863417836E+02 -0.99551199432E+03  0.10070279622E+04  0.41800000000E+01 0. -1.
        -11    1    1    2    0    0 -0.23291691108E+02  0.29187440765E+02  0.31070544405E+01  0.37470833462E+02  0.00000000000E+00 0. -1.
         11    1    1    2    0    0 -0.13054666585E+03  0.17331073671E+02 -0.14271758375E+03  0.19419347773E+03  0.00000000000E+00 0.  1.
</event>
<event>
 7    1  0.2841804E-009  0.8075808E+02  0.7561462E-02  0.1326914E+00
          3   -1    0    0  501    0  0.00000000000E+00  0.00000000000E+00  0.16552285445E+03  0.16552285445E+03  0.00000000000E+00 0. -1.
         -3   -1    0    0    0  501 -0.00000000000E+00 -0.00000000000E+00 -0.11511390804E+03  0.11511390804E+03  0.00000000000E+00 0.  1.
         25    2    1    2    0    0 -0.59464239215E+01  0.37498233789E+02 -0.41578325304E+02  0.13717925503E+03  0.12509161994E+03 0.  0.
          5    1    3    3  502    0  0.17422325606E+02 -0.50654413081E+01 -0.75524563512E+02  0.77785784169E+02  0.41800000000E+01 0. -1.
         -5    1    3    3    0  502 -0.23368749527E+02  0.42563675097E+02  0.33946238207E+02  0.59393470859E+02  0.41800000000E+01 0. -1.
        -11    1    1    2    0    0 -0.23428732378E+02  0.19209003910E+02  0.69386309554E+02  0.75712292830E+02  0.00000000000E+00 0. -1.
         11    1    1    2    0    0  0.29375156299E+02 -0.56707237699E+02  0.22600962155E+02  0.67745214631E+02  0.00000000000E+00 0.  1.
</event>
<event>
 7    1  0.2841804E-009  0.1181209E+03  0.7561462E-02  0.1246229E+00
         -2   -1    0    0    0  501 -0.00000000000E+00  0.00000000000E+00  0.56992199360E+02  0.56992199360E+02  0.00000000000E+00 0.  1.
          2   -1    0    0  501    0  0.00000000000E+00 -0.00000000000E+00 -0.39591653770E+03  0.39591653770E+03  0.00000000000E+00 0. -1.
         25    2    1    2    0    0 -0.66010306096E+02 -0.22575327061E+02 -0.30374004457E+03  0.33581681707E+03  0.12509162263E+03 0.  0.
          5    1    3    3  502    0  0.26236668826E+02 -0.40676748213E+02 -0.89894345646E+02  0.10218329812E+03  0.41800000000E+01 0.  1.
         -5    1    3    3    0  502 -0.92246974922E+02  0.18101421152E+02 -0.21384569892E+03  0.23363351895E+03  0.41800000000E+01 0.  1.
        -11    1    1    2    0    0  0.26646587532E+02 -0.21663870608E+02 -0.45477422260E+02  0.56987365724E+02  0.00000000000E+00 0.  1.
         11    1    1    2    0    0  0.39363718564E+02  0.44239197670E+02  0.10293128482E+02  0.60104554267E+02  0.00000000000E+00 0. -1.
</event>
<event>
 7    1  0.2841804E-009  0.1135169E+03  0.7561462E-02  0.1254192E+00
          1   -1    0    0  501    0  0.00000000000E+00  0.00000000000E+00  0.74479706353E+03  0.74479706353E+03  0.00000000000E+00 0. -1.
         -1   -1    0    0    0  501 -0.00000000000E+00 -0.00000000000E+00 -0.20841594235E+02  0.20841594235E+02  0.00000000000E+00 0.  1.
         25    2    1    2    0    0 -0.26906102940E+01  0.45012800027E+02  0.53160223372E+03  0.54798051297E+03  0.12509322983E+03 0.  0.
          5    1    3    3  502    0  0.36950124259E+02  0.73899225648E+02  0.29950767621E+03  0.31072291152E+03  0.41800000000E+01 0. -1.
         -5    1    3    3    0  502 -0.39640734553E+02 -0.28886425622E+02  0.23209455751E+03  0.23725760145E+03  0.41800000000E+01 0. -1.
        -11    1    1    2    0    0  0.10382973377E+02  0.23732726691E+02  0.22696399407E+02  0.34440891370E+02  0.00000000000E+00 0.  1.
         11    1    1    2    0    0 -0.76923630830E+01 -0.68745526717E+02  0.16965683616E+03  0.18321725342E+03  0.00000000000E+00 0. -1.
</event>
<event>
 7    1  0.2841804E-009  0.1128965E+03  0.7561462E-02  0.1255298E+00
         -2   -1    0    0    0  501 -0.00000000000E+00  0.00000000000E+00  0.19977778088E+02  0.19977778088E+02  0.00000000000E+00 0.  1.
          2   -1    0    0  501    0  0.00000000000E+00 -0.00000000000E+00 -0.68102290540E+03  0.68102290540E+03  0.00000000000E+00 0. -1.
         25    2    1    2    0    0  0.16042447210E+01 -0.41453726866E+02 -0.38456656716E+03  0.40652440899E+03  0.12509862291E+03 0.  0.
          5    1    3    3  502    0  0.34888855841E+02 -0.72559006041E+02 -0.18537611431E+03  0.20214800958E+03  0.41800000000E+01 0.  1.
         -5    1    3    3    0  502 -0.33284611120E+02  0.31105279174E+02 -0.19919045284E+03  0.20437639940E+03  0.41800000000E+01 0.  1.
        -11    1    1    2    0    0 -0.42394596984E+02  0.16409410418E+01 -0.90345033349E+02  0.99810919201E+02  0.00000000000E+00 0.  1.
         11    1    1    2    0    0  0.40790352263E+02  0.39812785825E+02 -0.18613352680E+03  0.19466535530E+03  0.00000000000E+00 0. -1.
</event>
<event>
 7    1  0.2841804E-009  0.1077096E+03  0.7561462E-02  0.1264871E+00
          2   -1    0    0  501    0  0.00000000000E+00  0.00000000000E+00  0.34833499544E+03  0.34833499544E+03  0.00000000000E+00 0. -1.
         -2   -1    0    0    0  501 -0.00000000000E+00 -0.00000000000E+00 -0.37797071692E+02  0.37797071692E+02  0.00000000000E+00 0.  1.
         25    2    1    2    0    0  0.74811478676E+01 -0.40151901558E+01  0.11406538782E+03  0.16950301095E+03  0.12509304017E+03 0.  0.
          5    1    3    3  502    0 -0.56618807393E+02  0.11950606950E+02  0.41806918102E+02  0.71510818470E+02  0.41800000000E+01 0.  1.
         -5    1    3    3    0  502  0.64099955261E+02 -0.15965797106E+02  0.72258469715E+02  0.97992192481E+02  0.41800000000E+01 0.  1.
        -11    1    1    2    0    0  0.38427099984E+02  0.19068901464E+02  0.89247317817E+02  0.99021960967E+02  0.00000000000E+00 0. -1.
         11    1    1    2    0    0 -0.45908247852E+02 -0.15053711309E+02  0.10722521811E+03  0.11760709521E+03  0.00000000000E+00 0.  1.
</event>
<event>
 7    1  0.2841804E-009  0.1185958E+03  0.7561462E-02  0.1245432E+00
          4   -1    0    0  501    0  0.00000000000E+00  0.00000000000E+00  0.10078571870E+03  0.10078571870E+03  0.00000000000E+00 0. -1.
         -4   -1    0    0    0  501 -0.00000000000E+00 -0.00000000000E+00 -0.18726709727E+03  0.18726709727E+03  0.00000000000E+00 0.  1.
         25    2    1    2    0    0  0.29502111106E+02  0.38273289704E+02  0.24525364331E+02  0.13632551597E+03  0.12509170054E+03 0.  0.
          5    1    3    3  502    0  0.63435785903E+02 -0.19648544280E+02  0.76341653148E+01  0.66976989373E+02  0.41800000000E+01 0.  1.
         -5    1    3    3    0  502 -0.33933674797E+02  0.57921833984E+02  0.16891199016E+02  0.69348526599E+02  0.41800000000E+01 0.  1.
        -11    1    1    2    0    0 -0.27166804631E+02  0.26867439594E+02 -0.43153116657E+02  0.57637540383E+02  0.00000000000E+00 0.  1.
         11    1    1    2    0    0 -0.23353064750E+01 -0.65140729297E+02 -0.67853626245E+02  0.94089759614E+02  0.00000000000E+00 0. -1.
</event>
<event>
 7    1  0.2841804E-009  0.9628058E+02  0.7561462E-02  0.1288318E+00
         -2   -1    0    0    0  501 -0.00000000000E+00  0.00000000000E+00  0.21670519875E+03  0.21670519875E+03  0.00000000000E+00 0. -1.
          2   -1    0    0  501    0  0.00000000000E+00 -0.00000000000E+00 -0.63653951297E+02  0.63653951297E+02  0.00000000000E+00 0.  1.
         25    2    1    2    0    0 -0.29358180298E+02  0.14311329673E+02  0.50120820250E+02  0.13866069932E+03  0.12509187026E+03 0.  0.
          5    1    3    3  502    0 -0.70088746461E+02 -0.22841040405E+02  0.25213473252E+02  0.78021388994E+02  0.41800000000E+01 0. -1.
         -5    1    3    3    0  502  0.40730566162E+02  0.37152370078E+02  0.24907346998E+02  0.60639310326E+02  0.41800000000E+01 0. -1.
        -11    1    1    2    0    0  0.37824075437E+02 -0.28195347282E+02  0.11133885304E+02  0.48472690177E+02  0.00000000000E+00 0.  1.
         11    1    1    2    0    0 -0.84658951388E+01  0.13884017609E+02  0.91796541897E+02  0.93225760548E+02  0.00000000000E+00 0. -1.
</event>
<event>
 7    1  0.2841804E-009  0.1017250E+03  0.7561462E-02  0.1276710E+00
         -1   -1    0    0    0  501 -0.00000000000E+00  0.00000000000E+00  0.58670375528E+02  0.58670375528E+02  0.00000000000E+00 0.  1.
          1   -1    0    0  501    0  0.00000000000E+00 -0.00000000000E+00 -0.20528177251E+03  0.20528177251E+03  0.00000000000E+00 0. -1.
         25    2    1    2    0    0  0.13104915238E+02 -0.12404067673E+02 -0.87817880802E+02  0.15389969002E+03  0.12509010633E+03 0.  0.
          5    1    3    3  502    0  0.69078661069E+02 -0.44130749532E+01 -0.53934622116E+02  0.87850739942E+02  0.41800000000E+01 0.  1.
         -5    1    3    3    0  502 -0.55973745831E+02 -0.79909927194E+01 -0.33883258686E+02  0.66048950076E+02  0.41800000000E+01 0.  1.
        -11    1    1    2    0    0 -0.33918888357E+02  0.33570723281E+02 -0.64081363645E+02  0.79899346778E+02  0.00000000000E+00 0. -1.
         11    1    1    2    0    0  0.20813973119E+02 -0.21166655608E+02  0.52878474654E+01  0.30153111240E+02  0.00000000000E+00 0.  1.
</event>
<event>
 7    1  0.2841804E-009  0.1289235E+03  0.7561462E-02  0.1229062E+00
         -1   -1    0    0    0  501 -0.00000000000E+00  0.00000000000E+00  0.22628619055E+03  0.22628619055E+03  0.00000000000E+00 0.  1.
          1   -1    0    0  501    0  0.00000000000E+00 -0.00000000000E+00 -0.10971626060E+03  0.10971626060E+03  0.00000000000E+00 0. -1.
         25    2    1    2    0    0  0.14368681055E+02  0.78844123702E+02  0.14762102126E+03  0.20943228091E+03  0.12508820701E+03 0.  0.
          5    1    3    3  502    0  0.60503533535E+02  0.62964354432E+02  0.13144040557E+03  0.15785829125E+03  0.41800000000E+01 0. -1.
         -5    1    3    3    0  502 -0.46134852481E+02  0.15879769269E+02  0.16180615683E+02  0.51573989659E+02  0.41800000000E+01 0. -1.
        -11    1    1    2    0    0 -0.23629395966E+02 -0.97662874386E+02 -0.18627239570E+02  0.10219275630E+03  0.00000000000E+00 0.  1.
         11    1    1    2    0    0  0.92607149115E+01  0.18818750685E+02 -0.12423851740E+02  0.24377413933E+02  0.00000000000E+00 0. -1.
</event>
<event>
 7    1  0.2841804E-009  0.1033227E+03  0.7561462E-02  0.1273460E+00
         -2   -1    0    0    0  501 -0.00000000000E+00  0.00000000000E+00  0.17080751728E+02  0.17080751728E+02  0.00000000000E+00 0. -1.
          2   -1    0    0  501    0  0.00000000000E+00 -0.00000000000E+00 -0.15759723156E+04  0.15759723156E+04  0.00000000000E+00 0.  1.
         25    2    1    2    0    0  0.10436038581E+02 -0.35058132407E+01 -0.14312205784E+04  0.14367186111E+04  0.12508725672E+03 0.  0.
          5    1    3    3  502    0 -0.49502658745E+02 -0.22005298700E+02 -0.41295721292E+03  0.41651636042E+03  0.41800000000E+01 0. -1.
         -5    1    3    3    0  502  0.59938697326E+02  0.18499485459E+02 -0.10182633655E+04  0.10202022507E+04  0.41800000000E+01 0. -1.
        -11    1    1    2    0    0 -0.42588543798E+02 -0.22430005754E+02 -0.58383263195E+02  0.75666998369E+02  0.00000000000E+00 0.  1.
         11    1    1    2    0    0  0.32152505218E+02  0.25935818994E+02 -0.69287722200E+02  0.80667457790E+02  0.00000000000E+00 0. -1.
</event>
<event>
 7    1  0.2841804E-009  0.2626773E+03  0.7561462E-02  0.1105545E+00
         -2   -1    0    0    0  501 -0.00000000000E+00  0.00000000000E+00  0.13014293918E+03  0.13014293918E+03  0.00000000000E+00 0.  1.
          2   -1    0    0  501    0  0.00000000000E+00 -0.00000000000E+00 -0.56086341262E+03  0.56086341262E+03  0.00000000000E+00 0. -1.
         25    2    1    2    0    0 -0.20945841730E+03 -0.12273235158E+03 -0.28419485149E+03  0.39414649913E+03  0.12509472596E+03 0.  0.
          5    1    3    3  502    0 -0.34306963492E+01  0.17872899643E+02 -0.44182490078E+02  0.47966394992E+02  0.41800000000E+01 0. -1.
         -5    1    3    3    0  502 -0.20602772095E+03 -0.14060525122E+03 -0.24001236141E+03  0.34618010414E+03  0.41800000000E+01 0. -1.
        -11    1    1    2    0    0  0.15817673318E+03  0.45653636512E+02 -0.10594846883E+03  0.19577847556E+03  0.00000000000E+00 0. -1.
         11    1    1    2    0    0  0.51281684124E+02  0.77078715067E+02 -0.40577153109E+02  0.10108137711E+03  0.00000000000E+00 0.  1.
</event>
<event>
 7    1  0.2841804E-009  0.1535774E+03  0.7561462E-02  0.1196145E+00
         -2   -1    0    0    0  501 -0.00000000000E+00  0.00000000000E+00  0.58792741193E+02  0.58792741193E+02  0.00000000000E+00 0. -1.
          2   -1    0    0  501    0  0.00000000000E+00 -0.00000000000E+00 -0.47877538714E+03  0.47877538714E+03  0.00000000000E+00 0.  1.
         25    2    1    2    0    0 -0.11510567752E+03 -0.14920194938E+02 -0.30897251063E+03  0.35296338689E+03  0.12508881224E+03 0.  0.
          5    1    3    3  502    0 -0.95723415938E+02  0.39273110480E+02 -0.13810675932E+03  0.17261604483E+03  0.41800000000E+01 0.  1.
         -5    1    3    3    0  502 -0.19382261583E+02 -0.54193305418E+02 -0.17086575131E+03  0.18034734206E+03  0.41800000000E+01 0.  1.
        -11    1    1    2    0    0  0.87022376277E+02  0.50465440262E+02 -0.63514065020E+02  0.11896928633E+03  0.00000000000E+00 0. -1.
         11    1    1    2    0    0  0.28083301243E+02 -0.35545245324E+02 -0.47496070295E+02  0.65635455109E+02  0.00000000000E+00 0.  1.
</event>
<event>
 7    1  0.2841804E-009  0.1373522E+03  0.7561462E-02  0.1216937E+00
          2   -1    0    0  501    0  0.00000000000E+00  0.00000000000E+00  0.33069409444E+03  0.33069409444E+03  0.00000000000E+00 0. -1.
         -2   -1    0    0    0  501 -0.00000000000E+00 -0.00000000000E+00 -0.69888438083E+02  0.69888438083E+02  0.00000000000E+00 0.  1.
         25    2    1    2    0    0  0.86560587779E+02 -0.44854751253E+02  0.18843497681E+03  0.24629259372E+03  0.12509043595E+03 0.  0.
          5    1    3    3  502    0  0.91882914154E+02 -0.73278619864E+02  0.10415742498E+03  0.15709381790E+03  0.41800000000E+01 0. -1.
         -5    1    3    3    0  502 -0.53223263753E+01  0.28423868612E+02  0.84277551836E+02  0.89198775823E+02  0.41800000000E+01 0. -1.
        -11    1    1    2    0    0  0.16534769025E+02  0.83079194018E+01 -0.63085508089E+01  0.19550394493E+02  0.00000000000E+00 0.  1.
         11    1    1    2    0    0 -0.10309535680E+03  0.36546831851E+02  0.78679230354E+02  0.13473954431E+03  0.00000000000E+00 0. -1.
</event>
<event>
 7    1  0.2841804E-009  0.8755764E+02  0.7561462E-02  0.1308876E+00
         -2   -1    0    0    0  501 -0.00000000000E+00  0.00000000000E+00  0.18033978482E+02  0.18033978482E+02  0.00000000000E+00 0.  1.
          2   -1    0    0  501    0  0.00000000000E+00 -0.00000000000E+00 -0.72762457636E+03  0.72762457636E+03  0.00000000000E+00 0. -1.
         25    2    1    2    0    0 -0.12270253021E+02 -0.28132462113E+02 -0.46294573229E+03  0.48053128332E+03  0.12509823608E+03 0.  0.
          5    1    3    3  502    0  0.34612397676E+01 -0.61205660213E+02 -0.11279579263E+03  0.12844639449E+03  0.41800000000E+01 0. -1.
         -5    1    3    3    0  502 -0.15731492788E+02  0.33073198099E+02 -0.35014993966E+03  0.35208488883E+03  0.41800000000E+01 0. -1.
        -11    1    1    2    0    0 -0.25705037645E+02  0.29090750774E+02 -0.42840538187E+02  0.57812909052E+02  0.00000000000E+00 0.  1.
         11    1    1    2    0    0  0.37975290666E+02 -0.95828866089E+00 -0.20380432740E+03  0.20731436246E+03  0.00000000000E+00 0. -1.
</event>
<event>
 7    1  0.2841804E-009  0.7731203E+02  0.7561462E-02  0.1336857E+00
         -4   -1    0    0    0  501 -0.00000000000E+00  0.00000000000E+00  0.45108342622E+03  0.45108342622E+03  0.00000000000E+00 0.  1.
          4   -1    0    0  501    0  0.00000000000E+00 -0.00000000000E+00 -0.29392305906E+02  0.29392305906E+02  0.00000000000E+00 0. -1.
         25    2    1    2    0    0  0.26983792396E+02  0.27884396015E+02  0.25042803046E+03  0.28261345849E+03  0.12510197396E+03 0.  0.
          5    1    3    3  502    0  0.39496856890E+01 -0.13949682485E+02 -0.98096981040E+01  0.17997117418E+02  0.41800000000E+01 0.  1.
         -5    1    3    3    0  502  0.23034106707E+02  0.41834078500E+02  0.26023772857E+03  0.26461634108E+03  0.41800000000E+01 0.  1.
        -11    1    1    2    0    0 -0.56343500923E+02 -0.10015580552E+02  0.14060892652E+03  0.15180834025E+03  0.00000000000E+00 0.  1.
         11    1    1    2    0    0  0.29359708527E+02 -0.17868815463E+02  0.30654163329E+02  0.46053933385E+02  0.00000000000E+00 0. -1.
</event>
<event>
 7    1  0.2841804E-009  0.1304305E+03  0.7561462E-02  0.1226818E+00
          2   -1    0    0  501    0  0.00000000000E+00  0.00000000000E+00  0.13128494162E+04  0.13128494162E+04  0.00000000000E+00 0. -1.
         -2   -1    0    0    0  501 -0.00000000000E+00 -0.00000000000E+00 -0.18272846451E+02  0.18272846451E+02  0.00000000000E+00 0.  1.
         25    2    1    2    0    0  0.81738826038E+02  0.65994626282E+02  0.87889109252E+03  0.89394286836E+03  0.12509105886E+03 0.  0.
          5    1    3    3  502    0  0.11120734095E+03  0.54312098171E+02  0.78618787888E+03  0.79588047469E+03  0.41800000000E+01 0. -1.
         -5    1    3    3    0  502 -0.29468514915E+02  0.11682528112E+02  0.92703213636E+02  0.98062393673E+02  0.41800000000E+01 0. -1.
        -11    1    1    2    0    0 -0.67179825615E+02 -0.54168019237E+02  0.40780167645E+03  0.41683271296E+03  0.00000000000E+00 0. -1.
         11    1    1    2    0    0 -0.14559000422E+02 -0.11826607045E+02  0.78838008248E+01  0.20346681374E+02  0.00000000000E+00 0.  1.
</event>
<event>
 7    1  0.2841804E-009  0.1844184E+03  0.7561462E-02  0.1163594E+00
         -2   -1    0    0    0  501 -0.00000000000E+00  0.00000000000E+00  0.38831072894E+02  0.38831072894E+02  0.00000000000E+00 0. -1.
          2   -1    0    0  501    0  0.00000000000E+00 -0.00000000000E+00 -0.95057537719E+03  0.95057537719E+03  0.00000000000E+00 0.  1.
         25    2    1    2    0    0 -0.15470290471E+03  0.45731656974E+01 -0.56115222366E+03  0.59539375851E+03  0.12509199408E+03 0.  0.
          5    1    3    3  502    0 -0.12018086486E+03  0.57052083101E+02 -0.42577702049E+03  0.44609631700E+03  0.41800000000E+01 0.  1.
         -5    1    3    3    0  502 -0.34522039849E+02 -0.52478917404E+02 -0.13537520317E+03  0.14929744150E+03  0.41800000000E+01 0.  1.
        -11    1    1    2    0    0  0.52254229309E+02 -0.38450748596E+02 -0.18794156925E+03  0.19882403778E+03  0.00000000000E+00 0.  1.
         11    1    1    2    0    0  0.10244867540E+03  0.33877582899E+02 -0.16265051138E+03  0.19518865379E+03  0.00000000000E+00 0. -1.
</event>
<event>
 7    1  0.2841804E-009  0.5380955E+02  0.7561462E-02  0.1425814E+00
         -2   -1    0    0    0  501 -0.00000000000E+00  0.00000000000E+00  0.74760258542E+02  0.74760258542E+02  0.00000000000E+00 0.  1.
          2   -1    0    0  501    0  0.00000000000E+00 -0.00000000000E+00 -0.13537507604E+03  0.13537507604E+03  0.00000000000E+00 0. -1.
         25    2    1    2    0    0  0.11810598602E+01 -0.16958810885E+00 -0.84292513972E+02  0.15084026317E+03  0.12508450512E+03 0.  0.
          5    1    3    3  502    0  0.33564006321E+02  0.53745465819E+01 -0.10589726962E+03  0.11129749496E+03  0.41800000000E+01 0.  1.
         -5    1    3    3    0  502 -0.32382946461E+02 -0.55441346907E+01  0.21604755652E+02  0.39542768210E+02  0.41800000000E+01 0.  1.
        -11    1    1    2    0    0 -0.45984700235E+01 -0.19629357473E+02  0.31776505840E+02  0.37632484966E+02  0.00000000000E+00 0.  1.
         11    1    1    2    0    0  0.34174101633E+01  0.19798945582E+02 -0.80988093698E+01  0.21662586447E+02  0.00000000000E+00 0. -1.
</event>
<event>
 7    1  0.2841804E-009  0.2504174E+03  0.7561462E-02  0.1113041E+00
          2   -1    0    0  501    0  0.00000000000E+00  0.00000000000E+00  0.55745825326E+03  0.55745825326E+03  0.00000000000E+00 0. -1.
         -2   -1    0    0    0  501 -0.00000000000E+00 -0.00000000000E+00 -0.15380875332E+03  0.15380875332E+03  0.00000000000E+00 0.  1.
         25    2    1    2    0    0  0.21538239848E+03  0.93506687226E+02  0.37191025935E+03  0.45727167033E+03  0.12508821424E+03 0.  0.
          5    1    3    3  502    0  0.12380766299E+03  0.11801711912E+03  0.23459257575E+03  0.29035758440E+03  0.41800000000E+01 0.  1.
         -5    1    3    3    0  502  0.91574735489E+02 -0.24510431897E+02  0.13731768360E+03  0.16691408592E+03  0.41800000000E+01 0.  1.
        -11    1    1    2    0    0 -0.12634266295E+03 -0.57289148356E+02 -0.27024389780E+02  0.14133234819E+03  0.00000000000E+00 0.  1.
         11    1    1    2    0    0 -0.89039735532E+02 -0.36217538871E+02  0.58763630381E+02  0.11266298807E+03  0.00000000000E+00 0. -1.
</event>
<event>
 7    1  0.2841804E-009  0.1902944E+03  0.7561462E-02  0.1158196E+00
          1   -1    0    0  501    0  0.00000000000E+00  0.00000000000E+00  0.96556123796E+03  0.96556123796E+03  0.00000000000E+00 0. -1.
         -1   -1    0    0    0  501 -0.00000000000E+00 -0.00000000000E+00 -0.44268547451E+02  0.44268547451E+02  0.00000000000E+00 0.  1.
         25    2    1    2    0    0 -0.41642919593E+02  0.17088049262E+03  0.45295325805E+03  0.50174131934E+03  0.12507366650E+03 0.  0.
          5    1    3    3  502    0 -0.52784677447E+02  0.98795242927E+02  0.13483749287E+03  0.17534350311E+03  0.41800000000E+01 0.  1.
         -5    1    3    3    0  502  0.11141757854E+02  0.72085249695E+02  0.31811576517E+03  0.32639781624E+03  0.41800000000E+01 0. -1.
        -11    1    1    2    0    0  0.51465882234E+02 -0.42677190902E+02  0.19178920434E+03  0.20310878504E+03  0.00000000000E+00 0. -1.
         11    1    1    2    0    0 -0.98229626417E+01 -0.12820330172E+03  0.27655022812E+03  0.30497968103E+03  0.00000000000E+00 0.  1.
</event>
<event>
 7    1  0.3029585E-009  0.1095088E+03  0.7561462E-02  0.1261482E+00
         -2   -1    0    0    0  501 -0.00000000000E+00  0.00000000000E+00  0.60731539633E+02  0.60731539633E+02  0.00000000000E+00 0.  1.
          2   -1    0    0  501    0  0.00000000000E+00 -0.00000000000E+00 -0.31819732871E+03  0.31819732871E+03  0.00000000000E+00 0. -1.
         25    2    1    2    0    0  0.22049054116E+02 -0.63655687695E+02 -0.21700179916E+03  0.25937500454E+03  0.12508958700E+03 0.  0.
          5    1    3    3  502    0  0.58892987979E+02 -0.78564239135E+02 -0.12453896410E+03  0.15864472788E+03  0.41800000000E+01 0.  1.
         -5    1    3    3    0  502 -0.36843933863E+02  0.14908551440E+02 -0.92462835063E+02  0.10073027666E+03  0.41800000000E+01 0.  1.
        -11    1    1    2    0    0 -0.35675031524E+02  0.41090719352E+02  0.16436069253E+02  0.56844520084E+02  0.00000000000E+00 0. -1.
         11    1    1    2    0    0  0.13625977408E+02  0.22564968343E+02 -0.56900059174E+02  0.62709343727E+02  0.00000000000E+00 0.  1.
</event>
<event>
 7    1  0.2841804E-009  0.2507141E+03  0.7561462E-02  0.1112854E+00
          1   -1    0    0  501    0  0.00000000000E+00  0.00000000000E+00  0.15190445033E+03  0.15190445033E+03  0.00000000000E+00 0. -1.
         -1   -1    0    0    0  501 -0.00000000000E+00 -0.00000000000E+00 -0.41929981345E+03  0.41929981345E+03  0.00000000000E+00 0.  1.
         25    2    1    2    0    0  0.51677094980E+02  0.22047024008E+03 -0.11041393610E+03  0.28127613723E+03  0.12508948472E+03 0.  0.
          5    1    3    3  502    0  0.72060867771E+02  0.53515342142E+02 -0.47608997581E+02  0.10168947615E+03  0.41800000000E+01 0. -1.
         -5    1    3    3    0  502 -0.20383772791E+02  0.16695489794E+03 -0.62804938517E+02  0.17958666109E+03  0.41800000000E+01 0. -1.
        -11    1    1    2    0    0 -0.47823403331E+02 -0.38716442459E+02 -0.32374143026E+02  0.69527879009E+02  0.00000000000E+00 0.  1.
         11    1    1    2    0    0 -0.38536916488E+01 -0.18175379762E+03 -0.12460728400E+03  0.22040024753E+03  0.00000000000E+00 0. -1.
</event>
<event>
 7    1  0.2841804E-009  0.1343647E+03  0.7561462E-02  0.1221119E+00
         -1   -1    0    0    0  501 -0.00000000000E+00  0.00000000000E+00  0.17109302586E+03  0.17109302586E+03  0.00000000000E+00 0.  1.
          1   -1    0    0  501    0  0.00000000000E+00 -0.00000000000E+00 -0.20576786117E+03  0.20576786117E+03  0.00000000000E+00 0. -1.
         25    2    1    2    0    0  0.70670534327E+02  0.66138713018E+02 -0.13650257451E+03  0.20892330489E+03  0.12508933087E+03 0.  0.
          5    1    3    3  502    0 -0.32300687784E+02  0.34115219882E+02 -0.23601556752E+02  0.52741715368E+02  0.41800000000E+01 0. -1.
         -5    1    3    3    0  502  0.10297122211E+03  0.32023493137E+02 -0.11290101775E+03  0.15618158952E+03  0.41800000000E+01 0. -1.
        -11    1    1    2    0    0 -0.32003331545E+02 -0.67767965071E+02  0.20230093836E+02  0.77627102332E+02  0.00000000000E+00 0. -1.
         11    1    1    2    0    0 -0.38667202782E+02  0.16292520527E+01  0.81597645362E+02  0.90310479801E+02  0.00000000000E+00 0.  1.
</event>
<event>
 7    1  0.2841804E-009  0.2606618E+03  0.7561462E-02  0.1106746E+00
          1   -1    0    0  501    0  0.00000000000E+00  0.00000000000E+00  0.14447978230E+04  0.14447978230E+04  0.00000000000E+00 0. -1.
         -1   -1    0    0    0  501 -0.00000000000E+00 -0.00000000000E+00 -0.72864477839E+02  0.72864477839E+02  0.00000000000E+00 0.  1.
         25    2    1    2    0    0  0.13210449309E+03 -0.22092642950E+03  0.31204010075E+03  0.42340950509E+03  0.12508597114E+03 0.  0.
          5    1    3    3  502    0  0.88801545272E+01 -0.37256949898E+02  0.13405551565E+03  0.13948222517E+03  0.41800000000E+01 0.  1.
         -5    1    3    3    0  502  0.12322433857E+03 -0.18366947961E+03  0.17798458509E+03  0.28392727992E+03  0.41800000000E+01 0.  1.
        -11    1    1    2    0    0 -0.45670544386E+02  0.12170005522E+03  0.37656510019E+03  0.39836914633E+03  0.00000000000E+00 0.  1.
         11    1    1    2    0    0 -0.86433948706E+02  0.99226374282E+02  0.68332814420E+03  0.69588364940E+03  0.00000000000E+00 0. -1.
</event>
<event>
 7    1  0.2841804E-009  0.1924023E+03  0.7561462E-02  0.1156312E+00
          1   -1    0    0  501    0  0.00000000000E+00  0.00000000000E+00  0.23922578431E+03  0.23922578431E+03  0.00000000000E+00 0. -1.
         -1   -1    0    0    0  501 -0.00000000000E+00 -0.00000000000E+00 -0.18730086343E+03  0.18730086343E+03  0.00000000000E+00 0.  1.
         25    2    1    2    0    0  0.30858833052E+02 -0.15604006767E+03  0.11239655156E+03  0.23147584798E+03  0.12508922056E+03 0.  0.
          5    1    3    3  502    0 -0.28042568510E+02  0.67102147955E+01  0.13810796139E+02  0.32243187207E+02  0.41800000000E+01 0.  1.
         -5    1    3    3    0  502  0.58901401562E+02 -0.16275028246E+03  0.98585755418E+02  0.19923266077E+03  0.41800000000E+01 0.  1.
        -11    1    1    2    0    0 -0.55836056529E+02  0.54700506550E+02 -0.90148230033E+01  0.78683401422E+02  0.00000000000E+00 0. -1.
         11    1    1    2    0    0  0.24977223477E+02  0.10133956112E+03 -0.51456807667E+02  0.11636739834E+03  0.00000000000E+00 0.  1.
</event>
<event>
 7    1  0.2841804E-009  0.1342517E+03  0.7561462E-02  0.1221280E+00
         -2   -1    0    0    0  501 -0.00000000000E+00  0.00000000000E+00  0.74128047406E+02  0.74128047406E+02  0.00000000000E+00 0.  1.
          2   -1    0    0  501    0  0.00000000000E+00 -0.00000000000E+00 -0.28093076592E+03  0.28093076592E+03  0.00000000000E+00 0. -1.
         25    2    1    2    0    0  0.37598341573E+02 -0.84089274324E+02 -0.13176483068E+03  0.20370947750E+03  0.12510371407E+03 0.  0.
          5    1    3    3  502    0 -0.32712814275E+02 -0.49562236913E+02 -0.12293585687E+02  0.60787730626E+02  0.41800000000E+01 0. -1.
         -5    1    3    3    0  502  0.70311155848E+02 -0.34527037411E+02 -0.11947124499E+03  0.14292174687E+03  0.41800000000E+01 0. -1.
        -11    1    1    2    0    0 -0.50656809538E+02  0.56050502859E+01 -0.38083243553E+02  0.63622813367E+02  0.00000000000E+00 0. -1.
         11    1    1    2    0    0  0.13058467965E+02  0.78484224038E+02 -0.36954644277E+02  0.87726522455E+02  0.00000000000E+00 0.  1.
</event>
<event>
 7    1  0.2841804E-009  0.1425608E+03  0.7561462E-02  0.1209924E+00
         -1   -1    0    0    0  501 -0.00000000000E+00  0.00000000000E+00  0.86536256857E+02  0.86536256857E+02  0.00000000000E+00 0.  1.
          1   -1    0    0  501    0  0.00000000000E+00 -0.00000000000E+00 -0.33048069664E+03  0.33048069664E+03  0.00000000000E+00 0. -1.
         25    2    1    2    0    0 -0.85314825040E+02 -0.85846865959E+02 -0.18484023626E+03  0.25389225896E+03  0.12508821868E+03 0.  0.
          5    1    3    3  502    0 -0.83671993151E+02 -0.27135202540E+02 -0.17257606774E+03  0.19374543404E+03  0.41800000000E+01 0.  1.
         -5    1    3    3    0  502 -0.16428318889E+01 -0.58711663420E+02 -0.12264168518E+02  0.60146824917E+02  0.41800000000E+01 0.  1.
        -11    1    1    2    0    0  0.13421881485E+02  0.60462385435E+02  0.68519531596E+01  0.62312087248E+02  0.00000000000E+00 0.  1.
         11    1    1    2    0    0  0.71892943555E+02  0.25384480524E+02 -0.65956156685E+02  0.10081260729E+03  0.00000000000E+00 0. -1.
</event>
<event>
 7    1  0.2841804E-009  0.1291194E+03  0.7561462E-02  0.1228768E+00
          3   -1    0    0  501    0  0.00000000000E+00  0.00000000000E+00  0.26717347671E+03  0.26717347671E+03  0.00000000000E+00 0. -1.
         -3   -1    0    0    0  501 -0.00000000000E+00 -0.00000000000E+00 -0.65539559650E+02  0.65539559650E+02  0.00000000000E+00 0.  1.
         25    2    1    2    0    0 -0.34478515951E+02  0.63913981424E+02  0.10374258386E+03  0.17799902932E+03  0.12508943060E+03 0.  0.
          5    1    3    3  502    0 -0.33768822742E+02 -0.31293585903E+02  0.17381395717E+02  0.49388330859E+02  0.41800000000E+01 0.  1.
         -5    1    3    3    0  502 -0.70969320951E+00  0.95207567327E+02  0.86361188148E+02  0.12861069846E+03  0.41800000000E+01 0.  1.
        -11    1    1    2    0    0  0.58910470174E+02 -0.70039234338E+02  0.89900243748E+02  0.12828870437E+03  0.00000000000E+00 0. -1.
         11    1    1    2    0    0 -0.24431954223E+02  0.61252529139E+01  0.79910894444E+01  0.26425302665E+02  0.00000000000E+00 0.  1.
</event>
<event>
 7    1  0.2841804E-009  0.1103703E+03  0.7561462E-02  0.1259886E+00
          1   -1    0    0  501    0  0.00000000000E+00  0.00000000000E+00  0.69869724029E+03  0.69869724029E+03  0.00000000000E+00 0. -1.
         -1   -1    0    0    0  501 -0.00000000000E+00 -0.00000000000E+00 -0.21389980337E+02  0.21389980337E+02  0.00000000000E+00 0.  1.
         25    2    1    2    0    0 -0.54134294647E+02 -0.17891314291E+02  0.42796626106E+03  0.44950362024E+03  0.12509101895E+03 0.  0.
          5    1    3    3  502    0  0.38879616515E+02  0.83906480250E+01  0.14720524449E+03  0.15254141720E+03  0.41800000000E+01 0. -1.
         -5    1    3    3    0  502 -0.93013911162E+02 -0.26281962316E+02  0.28076101657E+03  0.29696220305E+03  0.41800000000E+01 0. -1.
        -11    1    1    2    0    0 -0.11105078786E+02  0.15044635573E+02  0.76115404950E+01  0.20189090695E+02  0.00000000000E+00 0.  1.
         11    1    1    2    0    0  0.65239373433E+02  0.28466787178E+01  0.24172945840E+03  0.25039450969E+03  0.00000000000E+00 0. -1.
</event>
<event>
 7    1  0.2841804E-009  0.6117480E+02  0.7561462E-02  0.1392967E+00
          1   -1    0    0  501    0  0.00000000000E+00  0.00000000000E+00  0.24846862849E+03  0.24846862849E+03  0.00000000000E+00 0. -1.
         -1   -1    0    0    0  501 -0.00000000000E+00 -0.00000000000E+00 -0.50669463857E+02  0.50669463857E+02  0.00000000000E+00 0.  1.
         25    2    1    2    0    0 -0.13137289844E+02  0.21446893283E+02  0.12071531929E+03  0.17564744955E+03  0.12508909067E+03 0.  0.
          5    1    3    3  502    0 -0.26816948815E+02  0.15395474608E+02 -0.18028482256E+02  0.36037035874E+02  0.41800000000E+01 0. -1.
         -5    1    3    3    0  502  0.13679658971E+02  0.60514186752E+01  0.13874380155E+03  0.13961041367E+03  0.41800000000E+01 0. -1.
        -11    1    1    2    0    0  0.74716324953E+01 -0.47942060315E+02  0.78599343826E+01  0.49153280744E+02  0.00000000000E+00 0.  1.
         11    1    1    2    0    0  0.56656573489E+01  0.26495167032E+02  0.69223910962E+02  0.74337362061E+02  0.00000000000E+00 0. -1.
</event>
<event>
 7    1  0.2841804E-009  0.2628103E+03  0.7561462E-02  0.1105466E+00
          2   -1    0    0  501    0  0.00000000000E+00  0.00000000000E+00  0.54017855863E+03  0.54017855863E+03  0.00000000000E+00 0. -1.
         -2   -1    0    0    0  501 -0.00000000000E+00 -0.00000000000E+00 -0.12815562518E+03  0.12815562518E+03  0.00000000000E+00 0.  1.
         25    2    1    2    0    0 -0.23906479721E+03  0.31837148711E+01  0.22317291849E+03  0.35016575096E+03  0.12509111996E+03 0.  0.
          5    1    3    3  502    0 -0.12336358126E+03  0.64016356388E+02  0.11527099075E+03  0.18061434266E+03  0.41800000000E+01 0. -1.
         -5    1    3    3    0  502 -0.11570121594E+03 -0.60832641517E+02  0.10790192774E+03  0.16955140829E+03  0.41800000000E+01 0. -1.
        -11    1    1    2    0    0  0.24619652501E+02  0.29980119336E+02  0.34048686425E+02  0.51616352950E+02  0.00000000000E+00 0. -1.
         11    1    1    2    0    0  0.21444514471E+03 -0.33163834207E+02  0.15480132853E+03  0.26655207991E+03  0.00000000000E+00 0.  1.
</event>
<event>
 7    1  0.2841804E-009  0.1256721E+03  0.7561462E-02  0.1234023E+00
         -2   -1    0    0    0  501 -0.00000000000E+00  0.00000000000E+00  0.62509461953E+02  0.62509461953E+02  0.00000000000E+00 0.  1.
          2   -1    0    0  501    0  0.00000000000E+00 -0.00000000000E+00 -0.51441994033E+03  0.51441994033E+03  0.00000000000E+00 0. -1.
         25    2    1    2    0    0 -0.94784696849E+02 -0.35873296682E+01 -0.40455123675E+03  0.43394302476E+03  0.12509131821E+03 0.  0.
          5    1    3    3  502    0 -0.12423191005E+03  0.76758042776E+01 -0.30543018268E+03  0.32984474277E+03  0.41800000000E+01 0.  1.
         -5    1    3    3    0  502  0.29447213204E+02 -0.11263133946E+02 -0.99121054070E+02  0.10409828198E+03  0.41800000000E+01 0.  1.
        -11    1    1    2    0    0  0.55946402400E+02 -0.50159809890E+00 -0.76131522183E+02  0.94478887653E+02  0.00000000000E+00 0. -1.
         11    1    1    2    0    0  0.38838294449E+02  0.40889277671E+01  0.28772280550E+02  0.48507489876E+02  0.00000000000E+00 0.  1.
</event>
<event>
 7    1  0.2841804E-009  0.7477270E+02  0.7561462E-02  0.1344576E+00
          4   -1    0    0  501    0  0.00000000000E+00  0.00000000000E+00  0.85858283948E+02  0.85858283948E+02  0.00000000000E+00 0. -1.
         -4   -1    0    0    0  501 -0.00000000000E+00 -0.00000000000E+00 -0.27098296479E+03  0.27098296479E+03  0.00000000000E+00 0.  1.
         25    2    1    2    0    0  0.65805100157E+02  0.11792206272E+02  0.17673585534E+01  0.14185318859E+03  0.12509930544E+03 0.  0.
          5    1    3    3  502    0  0.62760553410E+02  0.22109335913E+02  0.55590208472E+02  0.86806989793E+02  0.41800000000E+01 0.  1.
         -5    1    3    3    0  502  0.30445467469E+01 -0.10317129641E+02 -0.53822849919E+02  0.55046198800E+02  0.41800000000E+01 0.  1.
        -11    1    1    2    0    0 -0.36840134968E+02  0.60204233447E+01 -0.15775047762E+02  0.40525216515E+02  0.00000000000E+00 0.  1.
         11    1    1    2    0    0 -0.28964965189E+02 -0.17812629616E+02 -0.17111699163E+03  0.17446284363E+03  0.00000000000E+00 0. -1.
</event>
<event>
 7    1  0.2841804E-009  0.1197602E+03  0.7561462E-02  0.1243493E+00
         -1   -1    0    0    0  501 -0.00000000000E+00  0.00000000000E+00  0.69395745827E+02  0.69395745827E+02  0.00000000000E+00 0.  1.
          1   -1    0    0  501    0  0.00000000000E+00 -0.00000000000E+00 -0.27028486956E+03  0.27028486956E+03  0.00000000000E+00 0. -1.
         25    2    1    2    0    0 -0.21886208675E+02 -0.44502452766E+02 -0.28167984965E+02  0.13747699104E+03  0.12508802204E+03 0.  0.
          5    1    3    3  502    0 -0.45686069286E+02 -0.79540776190E+02 -0.22492474892E+02  0.94537483732E+02  0.41800000000E+01 0. -1.
         -5    1    3    3    0  502  0.23799860612E+02  0.35038323424E+02 -0.56755100728E+01  0.42939507311E+02  0.41800000000E+01 0. -1.
        -11    1    1    2    0    0  0.17828390808E+02 -0.27633059412E+02 -0.53467124104E+02  0.62770780234E+02  0.00000000000E+00 0.  1.
         11    1    1    2    0    0  0.40578178663E+01  0.72135512177E+02 -0.11925401467E+03  0.13943284411E+03  0.00000000000E+00 0. -1.
</event>
<event>
 7    1  0.2841804E-009  0.1008465E+03  0.7561462E-02  0.1278526E+00
         -2   -1    0    0    0  501 -0.00000000000E+00  0.00000000000E+00  0.62289369825E+02  0.62289369825E+02  0.00000000000E+00 0. -1.
          2   -1    0    0  501    0  0.00000000000E+00 -0.00000000000E+00 -0.19561393164E+03  0.19561393164E+03  0.00000000000E+00 0.  1.
         25    2    1    2    0    0 -0.16943774482E+01 -0.68049503429E+01 -0.10485993922E+03  0.16337850070E+03  0.12509096440E+03 0.  0.
          5    1    3    3  502    0 -0.15320616805E+02 -0.58922681218E+02 -0.22836582600E+02  0.65158158093E+02  0.41800000000E+01 0. -1.
         -5    1    3    3    0  502  0.13626239357E+02  0.52117730875E+02 -0.82023356622E+02  0.98220342609E+02  0.41800000000E+01 0. -1.
        -11    1    1    2    0    0 -0.42261728398E+02  0.58935328066E+01 -0.27078429619E+02  0.50537399683E+02  0.00000000000E+00 0.  1.
         11    1    1    2    0    0  0.43956105846E+02  0.91141753630E+00 -0.13861929772E+01  0.43987401083E+02  0.00000000000E+00 0. -1.
</event>
<event>
 7    1  0.2841804E-009  0.9176403E+02  0.7561462E-02  0.1298635E+00
         -2   -1    0    0    0  501 -0.00000000000E+00  0.00000000000E+00  0.51732264006E+02  0.51732264006E+02  0.00000000000E+00 0.  1.
          2   -1    0    0  501    0  0.00000000000E+00 -0.00000000000E+00 -0.32154229715E+03  0.32154229715E+03  0.00000000000E+00 0. -1.
         25    2    1    2    0    0 -0.18603532987E+02  0.65344256122E+02 -0.13189325375E+03  0.19406139883E+03  0.12509209761E+03 0.  0.
          5    1    3    3  502    0 -0.43012555399E+02  0.31213150880E+02 -0.14115641819E+03  0.15088720127E+03  0.41800000000E+01 0.  1.
         -5    1    3    3    0  502  0.24409022412E+02  0.34131105242E+02  0.92631644403E+01  0.43174197567E+02  0.41800000000E+01 0.  1.
        -11    1    1    2    0    0  0.19421247661E+02  0.30432564399E+01 -0.98151147926E+02  0.10010042013E+03  0.00000000000E+00 0. -1.
         11    1    1    2    0    0 -0.81771467415E+00 -0.68387512562E+02 -0.39765631469E+02  0.79112742196E+02  0.00000000000E+00 0.  1.
</event>
<event>
 7    1  0.2841804E-009  0.2601311E+03  0.7561462E-02  0.1107065E+00
         -2   -1    0    0    0  501 -0.00000000000E+00  0.00000000000E+00  0.61237646335E+02  0.61237646335E+02  0.00000000000E+00 0.  1.
          2   -1    0    0  501    0  0.00000000000E+00 -0.00000000000E+00 -0.13505481867E+04  0.13505481867E+04  0.00000000000E+00 0. -1.
         25    2    1    2    0    0  0.57192096483E+02  0.23938307454E+03 -0.41118858096E+03  0.49527666656E+03  0.12509090718E+03 0.  0.
          5    1    3    3  502    0 -0.19180012763E+02  0.15859016625E+03 -0.19476621370E+03  0.25193265791E+03  0.41800000000E+01 0.  1.
         -5    1    3    3    0  502  0.76372109245E+02  0.80792908283E+02 -0.21642236726E+03  0.24334400866E+03  0.41800000000E+01 0.  1.
        -11    1    1    2    0    0 -0.19838623756E+02 -0.26673229019E+02 -0.45593167437E+02  0.56424897481E+02  0.00000000000E+00 0.  1.
         11    1    1    2    0    0 -0.37353472727E+02 -0.21270984552E+03 -0.83252879200E+03  0.86008426902E+03  0.00000000000E+00 0. -1.
</event>
<event>
 7    1  0.2841804E-009  0.8468590E+02  0.7561462E-02  0.1316256E+00
          2   -1    0    0  501    0  0.00000000000E+00  0.00000000000E+00  0.45484138519E+03  0.45484138519E+03  0.00000000000E+00 0. -1.
         -2   -1    0    0    0  501 -0.00000000000E+00 -0.00000000000E+00 -0.33398530464E+02  0.33398530464E+02  0.00000000000E+00 0.  1.
         25    2    1    2    0    0 -0.25863545404E+02  0.33330081477E+02  0.30351975198E+03  0.33098932767E+03  0.12509947195E+03 0.  0.
          5    1    3    3  502    0 -0.27618247040E+02 -0.22318733850E+02  0.17939585967E+02  0.40002432362E+02  0.41800000000E+01 0. -1.
         -5    1    3    3    0  502  0.17547016363E+01  0.55648815327E+02  0.28558016601E+03  0.29098689531E+03  0.41800000000E+01 0. -1.
        -11    1    1    2    0    0 -0.16184564375E+02 -0.31831339856E+02  0.10837417481E+03  0.11410581093E+03  0.00000000000E+00 0. -1.
         11    1    1    2    0    0  0.42048109779E+02 -0.14987416213E+01  0.95489279406E+01  0.43144777056E+02  0.00000000000E+00 0.  1.
</event>
<event>
 7    1  0.2841804E-009  0.1244858E+03  0.7561462E-02  0.1235875E+00
         -2   -1    0    0    0  501 -0.00000000000E+00  0.00000000000E+00  0.26920032215E+02  0.26920032215E+02  0.00000000000E+00 0.  1.
          2   -1    0    0  501    0  0.00000000000E+00 -0.00000000000E+00 -0.58210153439E+03  0.58210153439E+03  0.00000000000E+00 0. -1.
         25    2    1    2    0    0  0.57471919031E+02  0.20632152637E+02 -0.32636594813E+03  0.35480743000E+03  0.12507946706E+03 0.  0.
          5    1    3    3  502    0  0.41660994343E+02 -0.50843654424E+02 -0.15371023787E+03  0.16722746566E+03  0.41800000000E+01 0. -1.
         -5    1    3    3    0  502  0.15810924688E+02  0.71475807061E+02 -0.17265571026E+03  0.18757996434E+03  0.41800000000E+01 0. -1.
        -11    1    1    2    0    0  0.14127977689E+02 -0.34115629899E+02 -0.61673353981E+02  0.71882393868E+02  0.00000000000E+00 0.  1.
         11    1    1    2    0    0 -0.71599896721E+02  0.13483477262E+02 -0.16714220006E+03  0.18233174274E+03  0.00000000000E+00 0. -1.
</event>
<event>
 7    1  0.2841804E-009  0.8421730E+02  0.7561462E-02  0.1317492E+00
          1   -1    0    0  501    0  0.00000000000E+00  0.00000000000E+00  0.27795793350E+03  0.27795793350E+03  0.00000000000E+00 0. -1.
         -1   -1    0    0    0  501 -0.00000000000E+00 -0.00000000000E+00 -0.53257197007E+02  0.53257197007E+02  0.00000000000E+00 0.  1.
         25    2    1    2    0    0  0.20198734357E+02 -0.41484113828E+02  0.86653994490E+02  0.15901070740E+03  0.12508624919E+03 0.  0.
          5    1    3    3  502    0  0.38600131870E+02 -0.27702442975E+02 -0.18600055155E+02  0.51194042416E+02  0.41800000000E+01 0. -1.
         -5    1    3    3    0  502 -0.18401397513E+02 -0.13781670853E+02  0.10525404965E+03  0.10781666499E+03  0.41800000000E+01 0. -1.
        -11    1    1    2    0    0  0.26619075745E+02  0.42951441234E+02  0.43438615513E+02  0.66635687250E+02  0.00000000000E+00 0.  1.
         11    1    1    2    0    0 -0.46817810102E+02 -0.14673274052E+01  0.94608126492E+02  0.10556873586E+03  0.00000000000E+00 0. -1.
</event>
<event>
 7    1  0.2841804E-009  0.8018149E+02  0.7561462E-02  0.1328537E+00
          1   -1    0    0  501    0  0.00000000000E+00  0.00000000000E+00  0.25561605076E+03  0.25561605076E+03  0.00000000000E+00 0. -1.
         -1   -1    0    0    0  501 -0.00000000000E+00 -0.00000000000E+00 -0.51333069343E+02  0.51333069343E+02  0.00000000000E+00 0.  1.
         25    2    1    2    0    0  0.29837712927E+02 -0.10557574107E+02  0.14594483686E+03  0.19480518093E+03  0.12508961439E+03 0.  0.
          5    1    3    3  502    0  0.61956572910E+02  0.10683293942E+01  0.14782412629E+03  0.16034089612E+03  0.41800000000E+01 0. -1.
         -5    1    3    3    0  502 -0.32118859983E+02 -0.11625903501E+02 -0.18792894293E+01  0.34464284812E+02  0.41800000000E+01 0. -1.
        -11    1    1    2    0    0 -0.44346599754E+02  0.17605224814E+02 -0.38781757547E+01  0.47870712316E+02  0.00000000000E+00 0.  1.
         11    1    1    2    0    0  0.14508886827E+02 -0.70476507066E+01  0.62216320313E+02  0.64273226858E+02  0.00000000000E+00 0. -1.
</event>
<event>
 7    1  0.2841804E-009  0.9603157E+02  0.7561462E-02  0.1288869E+00
         -3   -1    0    0    0  501 -0.00000000000E+00  0.00000000000E+00  0.51150121971E+03  0.51150121971E+03  0.00000000000E+00 0.  1.
          3   -1    0    0  501    0  0.00000000000E+00 -0.00000000000E+00 -0.28472151549E+02  0.28472151549E+02  0.00000000000E+00 0. -1.
         25    2    1    2    0    0  0.30330790070E+02  0.31992734248E+02  0.33268629386E+03  0.35814790870E+03  0.12508502115E+03 0.  0.
          5    1    3    3  502    0  0.30779600452E+02  0.62989872628E+02  0.93576153296E+02  0.11700032788E+03  0.41800000000E+01 0.  1.
         -5    1    3    3    0  502 -0.44881038229E+00 -0.30997138379E+02  0.23911014056E+03  0.24114758083E+03  0.41800000000E+01 0.  1.
        -11    1    1    2    0    0 -0.44528630441E+02 -0.50432625131E+02  0.14194956477E+03  0.15708573311E+03  0.00000000000E+00 0.  1.
         11    1    1    2    0    0  0.14197840371E+02  0.18439890883E+02  0.83932095309E+01  0.24739729449E+02  0.00000000000E+00 0. -1.
</event>
<event>
 7    1  0.2841804E-009  0.1064035E+03  0.7561462E-02  0.1267379E+00
          2   -1    0    0  501    0  0.00000000000E+00  0.00000000000E+00  0.25372257488E+03  0.25372257488E+03  0.00000000000E+00 0. -1.
         -2   -1    0    0    0  501 -0.00000000000E+00 -0.00000000000E+00 -0.58522754428E+02  0.58522754428E+02  0.00000000000E+00 0.  1.
         25    2    1    2    0    0  0.46947913241E+02 -0.30122867888E+02  0.97674452474E+02  0.16822631929E+03  0.12509317371E+03 0.  0.
          5    1    3    3  502    0 -0.19066367026E+02 -0.36882438955E+02 -0.88466008423E+01  0.42656481352E+02  0.41800000000E+01 0.  1.
         -5    1    3    3    0  502  0.66014280268E+02  0.67595710669E+01  0.10652105332E+03  0.12556983794E+03  0.41800000000E+01 0.  1.
        -11    1    1    2    0    0 -0.12298784244E+02  0.58513519509E+02  0.44082122042E+02  0.74285432913E+02  0.00000000000E+00 0.  1.
         11    1    1    2    0    0 -0.34649128997E+02 -0.28390651621E+02  0.53443245932E+02  0.69733577102E+02  0.00000000000E+00 0. -1.
</event>
<event>
 7    1  0.2841804E-009  0.1105686E+03  0.7561462E-02  0.1259521E+00
          1   -1    0    0  501    0  0.00000000000E+00  0.00000000000E+00  0.94068561737E+03  0.94068561737E+03  0.00000000000E+00 0. -1.
         -1   -1    0    0    0  501 -0.00000000000E+00 -0.00000000000E+00 -0.14547954823E+02  0.14547954823E+02  0.00000000000E+00 0.  1.
         25    2    1    2    0    0 -0.74426739121E+00  0.43497965251E+02  0.50772906279E+03  0.52471795479E+03  0.12508998345E+03 0.  0.
          5    1    3    3  502    0 -0.55334348033E+02  0.31587247749E+02  0.15612718355E+03  0.16867961980E+03  0.41800000000E+01 0. -1.
         -5    1    3    3    0  502  0.54590080642E+02  0.11910717501E+02  0.35160187924E+03  0.35603833499E+03  0.41800000000E+01 0. -1.
        -11    1    1    2    0    0 -0.44102318750E+02 -0.33302177296E+02  0.21764213885E+03  0.22454877006E+03  0.00000000000E+00 0. -1.
         11    1    1    2    0    0  0.44846586141E+02 -0.10195787955E+02  0.20076646090E+03  0.20596684734E+03  0.00000000000E+00 0.  1.
</event>
<event>
 7    1  0.2841804E-009  0.1860470E+03  0.7561462E-02  0.1162076E+00
          2   -1    0    0  501    0  0.00000000000E+00  0.00000000000E+00  0.10923511255E+03  0.10923511255E+03  0.00000000000E+00 0. -1.
         -2   -1    0    0    0  501 -0.00000000000E+00 -0.00000000000E+00 -0.33748793569E+03  0.33748793569E+03  0.00000000000E+00 0.  1.
         25    2    1    2    0    0 -0.97150454159E+02 -0.11564103228E+03 -0.65156438298E+02  0.20664813487E+03  0.12508809337E+03 0.  0.
          5    1    3    3  502    0 -0.66580867519E+02  0.92915046972E+01 -0.19859639076E+02  0.70222657621E+02  0.41800000000E+01 0. -1.
         -5    1    3    3    0  502 -0.30569586640E+02 -0.12493253698E+03 -0.45296799222E+02  0.13642547725E+03  0.41800000000E+01 0. -1.
        -11    1    1    2    0    0 -0.15172628359E+02  0.33881756618E+02 -0.38023369468E+02  0.53140932515E+02  0.00000000000E+00 0.  1.
         11    1    1    2    0    0  0.11232308252E+03  0.81759275661E+02 -0.12507301537E+03  0.18693398085E+03  0.00000000000E+00 0. -1.
</event>
<event>
 7    1  0.2841804E-009  0.1906804E+03  0.7561462E-02  0.1157849E+00
          2   -1    0    0  501    0  0.00000000000E+00  0.00000000000E+00  0.11147298834E+04  0.11147298834E+04  0.00000000000E+00 0. -1.
         -2   -1    0    0    0  501 -0.00000000000E+00 -0.00000000000E+00 -0.35782166482E+02  0.35782166482E+02  0.00000000000E+00 0.  1.
         25    2    1    2    0    0  0.12188692059E+03 -0.11309984119E+03  0.49549798483E+03  0.53740222650E+03  0.12503961210E+03 0.  0.
          5    1    3    3  502    0  0.14620491937E+03 -0.10914751583E+03  0.42200009210E+03  0.45977234452E+03  0.41800000000E+01 0. -1.
         -5    1    3    3    0  502 -0.24317998774E+02 -0.39523253543E+01  0.73497892733E+02  0.77629881980E+02  0.41800000000E+01 0. -1.
        -11    1    1    2    0    0 -0.60638809526E+02  0.22851582073E+02  0.11375534860E+03  0.13091806353E+03  0.00000000000E+00 0.  1.
         11    1    1    2    0    0 -0.61248111067E+02  0.90248259112E+02  0.46969438350E+03  0.48219175986E+03  0.00000000000E+00 0. -1.
</event>
<event>
 6    1  0.2841804E-009  0.1476671E+03  0.7561462E-02  0.1203369E+00
         -2   -1    0    0    0  501 -0.00000000000E+00  0.00000000000E+00  0.39666826371E+02  0.39666826371E+02  0.00000000000E+00 0. -1.
          2   -1    0    0  501    0  0.00000000000E+00 -0.00000000000E+00 -0.73165764225E+03  0.73165764225E+03  0.00000000000E+00 0.  1.
          5    1    1    2  502    0 -0.94027313956E+01 -0.42147453933E+02 -0.81447791325E+02  0.92282362034E+02  0.41800000000E+01 0. -1.
         -5    1    1    2    0  502 -0.10330459494E+03  0.62682539926E+02 -0.42262173061E+03  0.43957654593E+03  0.41800000000E+01 0. -1.
        -11    1    1    2    0    0  0.38610852763E+02 -0.38789321062E+02 -0.26273318745E+02  0.60709938704E+02  0.00000000000E+00 0. -1.
         11    1    1    2    0    0  0.74096473574E+02  0.18254235070E+02 -0.16164797520E+03  0.17875562196E+03  0.00000000000E+00 0.  1.
</event>
<event>
 7    1  0.2841804E-009  0.1263690E+03  0.7561462E-02  0.1232945E+00
          2   -1    0    0  501    0  0.00000000000E+00  0.00000000000E+00  0.75964273054E+03  0.75964273054E+03  0.00000000000E+00 0. -1.
         -2   -1    0    0    0  501 -0.00000000000E+00 -0.00000000000E+00 -0.25669418106E+02  0.25669418106E+02  0.00000000000E+00 0.  1.
         25    2    1    2    0    0  0.56903931837E+02  0.61267363640E+02  0.35135779710E+03  0.38221883410E+03  0.12508872153E+03 0.  0.
          5    1    3    3  502    0  0.65514277582E+02 -0.33216862313E+01  0.82174349010E+02  0.10522951203E+03  0.41800000000E+01 0.  1.
         -5    1    3    3    0  502 -0.86103457450E+01  0.64589049871E+02  0.26918344809E+03  0.27698932207E+03  0.41800000000E+01 0.  1.
        -11    1    1    2    0    0  0.76821197928E+01 -0.56424311827E+02  0.12334332626E+03  0.13585394386E+03  0.00000000000E+00 0.  1.
         11    1    1    2    0    0 -0.64586051630E+02 -0.48430518126E+01  0.25927218908E+03  0.26723937069E+03  0.00000000000E+00 0. -1.
</event>
<event>
 7    1  0.2841804E-009  0.1952155E+03  0.7561462E-02  0.1153840E+00
         -2   -1    0    0    0  501 -0.00000000000E+00  0.00000000000E+00  0.41682697970E+02  0.41682697970E+02  0.00000000000E+00 0.  1.
          2   -1    0    0  501    0  0.00000000000E+00 -0.00000000000E+00 -0.11261049706E+04  0.11261049706E+04  0.00000000000E+00 0. -1.
         25    2    1    2    0    0  0.83571343457E+02 -0.14036720603E+03 -0.80610893949E+03  0.83195340164E+03  0.12509083977E+03 0.  0.
          5    1    3    3  502    0 -0.30040301306E+02 -0.82123269366E+01 -0.12099665103E+03  0.12501009550E+03  0.41800000000E+01 0. -1.
         -5    1    3    3    0  502  0.11361164476E+03 -0.13215487909E+03 -0.68511228846E+03  0.70694330613E+03  0.41800000000E+01 0. -1.
        -11    1    1    2    0    0 -0.79628804470E+02  0.49565935936E+02 -0.17245995653E+03  0.19631598282E+03  0.00000000000E+00 0. -1.
         11    1    1    2    0    0 -0.39425389869E+01  0.90801270090E+02 -0.10585337666E+03  0.13951828415E+03  0.00000000000E+00 0.  1.
</event>
<event>
 7    1  0.2841804E-009  0.1095405E+03  0.7561462E-02  0.1261423E+00
         -2   -1    0    0    0  501 -0.00000000000E+00  0.00000000000E+00  0.26235032574E+02  0.26235032574E+02  0.00000000000E+00 0.  1.
          2   -1    0    0  501    0  0.00000000000E+00 -0.00000000000E+00 -0.78158686280E+03  0.78158686280E+03  0.00000000000E+00 0. -1.
         25    2    1    2    0    0 -0.86466571689E+02  0.27488409555E+02 -0.45848353103E+03  0.48381946735E+03  0.12506817372E+03 0.  0.
          5    1    3    3  502    0  0.28615879965E+01  0.36112271344E+02 -0.29526974142E+03  0.29751298699E+03  0.41800000000E+01 0.  1.
         -5    1    3    3    0  502 -0.89328159685E+02 -0.86238617887E+01 -0.16321378961E+03  0.18630648036E+03  0.41800000000E+01 0.  1.
        -11    1    1    2    0    0  0.22657196616E+02 -0.16493637763E+02 -0.97480882111E+01  0.29671768888E+02  0.00000000000E+00 0.  1.
         11    1    1    2    0    0  0.63809375072E+02 -0.10994771792E+02 -0.28712021098E+03  0.29433065914E+03  0.00000000000E+00 0. -1.
</event>
<event>
 7    1  0.2841804E-009  0.1609040E+03  0.7561462E-02  0.1187680E+00
          2   -1    0    0  501    0  0.00000000000E+00  0.00000000000E+00  0.86808280934E+02  0.86808280934E+02  0.00000000000E+00 0. -1.
         -2   -1    0    0    0  501 -0.00000000000E+00 -0.00000000000E+00 -0.38017593970E+03  0.38017593970E+03  0.00000000000E+00 0.  1.
         25    2    1    2    0    0  0.14768281977E+02  0.13361642860E+03 -0.85059998104E+02  0.20234036240E+03  0.12503986098E+03 0.  0.
          5    1    3    3  502    0  0.48728301406E+02  0.55597632921E+02 -0.90550168116E+02  0.11697157556E+03  0.41800000000E+01 0. -1.
         -5    1    3    3    0  502 -0.33960019429E+02  0.78018795682E+02  0.54901700114E+01  0.85368786837E+02  0.41800000000E+01 0. -1.
        -11    1    1    2    0    0  0.13613569907E+02 -0.13349406610E+03 -0.18045848002E+03  0.22488054157E+03  0.00000000000E+00 0. -1.
         11    1    1    2    0    0 -0.28381851884E+02 -0.12236250390E+00 -0.27849180644E+02  0.39763316656E+02  0.00000000000E+00 0.  1.
</event>
<event>
 7    1  0.2841804E-009  0.1650118E+03  0.7561462E-02  0.1183152E+00
          1   -1    0    0  501    0  0.00000000000E+00  0.00000000000E+00  0.13151910413E+03  0.13151910413E+03  0.00000000000E+00 0. -1.
         -1   -1    0    0    0  501 -0.00000000000E+00 -0.00000000000E+00 -0.35926952031E+03  0.35926952031E+03  0.00000000000E+00 0.  1.
         25    2    1    2    0    0  0.13488449210E+03 -0.52922844233E+02  0.17478452954E+02  0.19221239912E+03  0.12508179887E+03 0.  0.
          5    1    3    3  502    0  0.95097285346E+02 -0.68945557711E+02 -0.36563774488E+02  0.12309088355E+03  0.41800000000E+01 0.  1.
         -5    1    3    3    0  502  0.39787206753E+02  0.16022713478E+02  0.54042227442E+02  0.69121515574E+02  0.41800000000E+01 0.  1.
        -11    1    1    2    0    0 -0.14519358795E+03  0.36020519242E+02 -0.22563956128E+03  0.27072470778E+03  0.00000000000E+00 0. -1.
         11    1    1    2    0    0  0.10309095847E+02  0.16902324991E+02 -0.19589307846E+02  0.27851517538E+02  0.00000000000E+00 0.  1.
</event>
<event>
 7    1  0.2841804E-009  0.1104164E+03  0.7561462E-02  0.1259801E+00
          1   -1    0    0  501    0  0.00000000000E+00  0.00000000000E+00  0.60015923850E+03  0.60015923850E+03  0.00000000000E+00 0.  1.
         -1   -1    0    0    0  501 -0.00000000000E+00 -0.00000000000E+00 -0.59889795259E+02  0.59889795259E+02  0.00000000000E+00 0. -1.
         25    2    1    2    0    0  0.35557986350E+02 -0.81111729332E+02  0.52071295771E+03  0.54280070822E+03  0.12508853464E+03 0.  0.
          5    1    3    3  502    0 -0.60859345098E+00  0.15477354481E+02  0.49206262238E+01  0.16781056289E+02  0.41800000000E+01 0. -1.
         -5    1    3    3    0  502  0.36166579801E+02 -0.96589083814E+02  0.51579233148E+03  0.52601965194E+03  0.41800000000E+01 0. -1.
        -11    1    1    2    0    0  0.72420906484E+01  0.44966439236E+02  0.36885439424E+02  0.58608567429E+02  0.00000000000E+00 0.  1.
         11    1    1    2    0    0 -0.42800076999E+02  0.36145290096E+02 -0.17328953893E+02  0.58639758101E+02  0.00000000000E+00 0. -1.
</event>
<event>
 7    1  0.2841804E-009  0.2409430E+03  0.7561462E-02  0.1119166E+00
          2   -1    0    0  501    0  0.00000000000E+00  0.00000000000E+00  0.16228685726E+04  0.16228685726E+04  0.00000000000E+00 0. -1.
         -2   -1    0    0    0  501 -0.00000000000E+00 -0.00000000000E+00 -0.40466811143E+02  0.40466811143E+02  0.00000000000E+00 0.  1.
         25    2    1    2    0    0  0.31654326353E+02 -0.21888154958E+03  0.10295521942E+04  0.10604414356E+04  0.12508872296E+03 0.  0.
          5    1    3    3  502    0  0.77289598604E+02 -0.17011578250E+03  0.73616926348E+03  0.75952334948E+03  0.41800000000E+01 0.  1.
         -5    1    3    3    0  502 -0.45635272251E+02 -0.48765767085E+02  0.29338293072E+03  0.30091808612E+03  0.41800000000E+01 0.  1.
        -11    1    1    2    0    0  0.14933672147E+02  0.29785889051E+02  0.17136061333E+03  0.17456996750E+03  0.00000000000E+00 0.  1.
         11    1    1    2    0    0 -0.46587998500E+02  0.18909566053E+03  0.38148895393E+03  0.42832398066E+03  0.00000000000E+00 0. -1.
</event>
<event>
 7    1  0.2841804E-009  0.1556373E+03  0.7561462E-02  0.1193712E+00
          1   -1    0    0  501    0  0.00000000000E+00  0.00000000000E+00  0.14505716406E+04  0.14505716406E+04  0.00000000000E+00 0. -1.
         -1   -1    0    0    0  501 -0.00000000000E+00 -0.00000000000E+00 -0.19061925379E+02  0.19061925379E+02  0.00000000000E+00 0.  1.
         25    2    1    2    0    0 -0.11279739471E+03 -0.38075686076E+02  0.91315435920E+03  0.92933948932E+03  0.12509193638E+03 0.  0.
          5    1    3    3  502    0 -0.12266641533E+03  0.41499668891E+01  0.54780024861E+03  0.56139723588E+03  0.41800000000E+01 0. -1.
         -5    1    3    3    0  502  0.98690206246E+01 -0.42225652965E+02  0.36535411059E+03  0.36794225343E+03  0.41800000000E+01 0. -1.
        -11    1    1    2    0    0  0.74021455095E+02  0.64334325361E+02  0.42084794557E+03  0.43212391108E+03  0.00000000000E+00 0.  1.
         11    1    1    2    0    0  0.38775939613E+02 -0.26258639286E+02  0.97507410412E+02  0.10817016555E+03  0.00000000000E+00 0. -1.
</event>
<event>
 7    1  0.2841804E-009  0.1129748E+03  0.7561462E-02  0.1255158E+00
         -1   -1    0    0    0  501 -0.00000000000E+00  0.00000000000E+00  0.51526307451E+02  0.51526307451E+02  0.00000000000E+00 0.  1.
          1   -1    0    0  501    0  0.00000000000E+00 -0.00000000000E+00 -0.28133739380E+03  0.28133739380E+03  0.00000000000E+00 0. -1.
         25    2    1    2    0    0  0.32944387507E+02  0.10389796110E+02 -0.16791919192E+03  0.21221635784E+03  0.12508256069E+03 0.  0.
          5    1    3    3  502    0 -0.34566888089E+02  0.37754847262E+02 -0.10053996662E+03  0.11289843016E+03  0.41800000000E+01 0.  1.
         -5    1    3    3    0  502  0.67511275596E+02 -0.27365051152E+02 -0.67379225305E+02  0.99317927686E+02  0.41800000000E+01 0.  1.
        -11    1    1    2    0    0 -0.48899598173E+02 -0.43130359616E+02 -0.28226410132E+02  0.71050185439E+02  0.00000000000E+00 0.  1.
         11    1    1    2    0    0  0.15955210666E+02  0.32740563506E+02 -0.33665484297E+02  0.49597157973E+02  0.00000000000E+00 0. -1.
</event>
<event>
 7    1  0.2841804E-009  0.1150216E+03  0.7561462E-02  0.1251543E+00
          2   -1    0    0  501    0  0.00000000000E+00  0.00000000000E+00  0.19763871661E+03  0.19763871661E+03  0.00000000000E+00 0. -1.
         -2   -1    0    0    0  501 -0.00000000000E+00 -0.00000000000E+00 -0.95775005282E+02  0.95775005282E+02  0.00000000000E+00 0.  1.
         25    2    1    2    0    0 -0.48400198647E+02 -0.59948581177E+02  0.18634837618E+02  0.14809392621E+03  0.12509253452E+03 0.  0.
          5    1    3    3  502    0 -0.77100864502E+02 -0.43321897956E+00  0.26009326246E+02  0.81478146993E+02  0.41800000000E+01 0. -1.
         -5    1    3    3    0  502  0.28700665856E+02 -0.59515362197E+02 -0.73744886276E+01  0.66615779216E+02  0.41800000000E+01 0. -1.
        -11    1    1    2    0    0  0.24705473844E+02  0.29336046384E+01 -0.15180809688E+02  0.29144870163E+02  0.00000000000E+00 0.  1.
         11    1    1    2    0    0  0.23694724803E+02  0.57014976538E+02  0.98409683401E+02  0.11617492552E+03  0.00000000000E+00 0. -1.
</event>
<event>
 7    1  0.2841804E-009  0.9839662E+02  0.7561462E-02  0.1283704E+00
          1   -1    0    0  501    0  0.00000000000E+00  0.00000000000E+00  0.52339791590E+03  0.52339791590E+03  0.00000000000E+00 0. -1.
         -1   -1    0    0    0  501 -0.00000000000E+00 -0.00000000000E+00 -0.86553301392E+02  0.86553301392E+02  0.00000000000E+00 0.  1.
         25    2    1    2    0    0  0.26393778198E+02 -0.40582389761E+02  0.48006654100E+03  0.49845219172E+03  0.12508853566E+03 0.  0.
          5    1    3    3  502    0  0.26294684127E+02  0.23612937377E+02  0.39310597133E+02  0.53026188548E+02  0.41800000000E+01 0.  1.
         -5    1    3    3    0  502  0.99094070705E-01 -0.64195327137E+02  0.44075594387E+03  0.44542600317E+03  0.41800000000E+01 0.  1.
        -11    1    1    2    0    0 -0.59248724057E+01  0.64854087452E+02 -0.10608056231E+02  0.65982479715E+02  0.00000000000E+00 0. -1.
         11    1    1    2    0    0 -0.20468905792E+02 -0.24271697692E+02 -0.32613870264E+02  0.45516545857E+02  0.00000000000E+00 0.  1.
</event>
<event>
 7    1  0.2841804E-009  0.1015474E+03  0.7561462E-02  0.1277075E+00
          1   -1    0    0  501    0  0.00000000000E+00  0.00000000000E+00  0.11714990800E+04  0.11714990800E+04  0.00000000000E+00 0. -1.
         -1   -1    0    0    0  501 -0.00000000000E+00 -0.00000000000E+00 -0.14570027401E+02  0.14570027401E+02  0.00000000000E+00 0.  1.
         25    2    1    2    0    0 -0.26339292371E+02 -0.25159865260E+02  0.94262727270E+03  0.95158761507E+03  0.12508411878E+03 0.  0.
          5    1    3    3  502    0  0.18956455221E+02  0.31998798086E+02  0.60459173745E+03  0.60574905007E+03  0.41800000000E+01 0.  1.
         -5    1    3    3    0  502 -0.45295747592E+02 -0.57158663346E+02  0.33803553525E+03  0.34583856500E+03  0.41800000000E+01 0.  1.
        -11    1    1    2    0    0  0.74110589187E+01 -0.31770761407E+02  0.10295742708E+03  0.10800248546E+03  0.00000000000E+00 0. -1.
         11    1    1    2    0    0  0.18928233452E+02  0.56930626666E+02  0.11134435280E+03  0.12647900686E+03  0.00000000000E+00 0.  1.
</event>
<event>
 7    1  0.2841804E-009  0.9908938E+02  0.7561462E-02  0.1282223E+00
          2   -1    0    0  501    0  0.00000000000E+00  0.00000000000E+00  0.17662503310E+02  0.17662503310E+02  0.00000000000E+00 0. -1.
         -2   -1    0    0    0  501 -0.00000000000E+00 -0.00000000000E+00 -0.74684230889E+03  0.74684230889E+03  0.00000000000E+00 0.  1.
         25    2    1    2    0    0  0.29999964306E+02  0.71708098309E+01 -0.35060502097E+03  0.37352733146E+03  0.12508944098E+03 0.  0.
          5    1    3    3  502    0  0.63827434890E+02 -0.59494959074E+01 -0.91141965792E+02  0.11150635979E+03  0.41800000000E+01 0. -1.
         -5    1    3    3    0  502 -0.33827470584E+02  0.13120305738E+02 -0.25946305518E+03  0.26202097167E+03  0.41800000000E+01 0. -1.
        -11    1    1    2    0    0  0.20169853133E+02  0.29171855502E+02 -0.12387651131E+03  0.12885344459E+03  0.00000000000E+00 0.  1.
         11    1    1    2    0    0 -0.50169817440E+02 -0.36342665333E+02 -0.25469827330E+03  0.26212403615E+03  0.00000000000E+00 0. -1.
</event>
<event>
 7    1  0.2841804E-009  0.8933151E+02  0.7561462E-02  0.1304479E+00
         -2   -1    0    0    0  501 -0.00000000000E+00  0.00000000000E+00  0.62282021750E+02  0.62282021750E+02  0.00000000000E+00 0.  1.
          2   -1    0    0  501    0  0.00000000000E+00 -0.00000000000E+00 -0.21754133609E+03  0.21754133609E+03  0.00000000000E+00 0. -1.
         25    2    1    2    0    0  0.16207816924E+02 -0.35790965622E+02 -0.11390440612E+03  0.17368110453E+03  0.12508887155E+03 0.  0.
          5    1    3    3  502    0  0.59210261160E+02 -0.45668837067E+02 -0.10418141102E+03  0.12830719585E+03  0.41800000000E+01 0. -1.
         -5    1    3    3    0  502 -0.43002444235E+02  0.98778714449E+01 -0.97229951071E+01  0.45373908674E+02  0.41800000000E+01 0. -1.
        -11    1    1    2    0    0 -0.88079371069E+01 -0.98496446783E+01 -0.56081457492E+02  0.57617055902E+02  0.00000000000E+00 0. -1.
         11    1    1    2    0    0 -0.73998798174E+01  0.45640610300E+02  0.14726549281E+02  0.48525197409E+02  0.00000000000E+00 0.  1.
</event>
<event>
 7    1  0.2841804E-009  0.1359501E+03  0.7561462E-02  0.1218885E+00
         -2   -1    0    0    0  501 -0.00000000000E+00  0.00000000000E+00  0.16999129023E+03  0.16999129023E+03  0.00000000000E+00 0.  1.
          2   -1    0    0  501    0  0.00000000000E+00 -0.00000000000E+00 -0.12065581484E+03  0.12065581484E+03  0.00000000000E+00 0. -1.
         25    2    1    2    0    0  0.36038040261E+02  0.79347499100E+02 -0.13132716496E+02  0.15302118434E+03  0.12509296005E+03 0.  0.
          5    1    3    3  502    0  0.56478141436E+02 -0.11745034972E+02 -0.14234298513E+02  0.59563528780E+02  0.41800000000E+01 0.  1.
         -5    1    3    3    0  502 -0.20440101175E+02  0.91092534072E+02  0.11015820170E+01  0.93457655559E+02  0.41800000000E+01 0.  1.
        -11    1    1    2    0    0 -0.58812289492E+02 -0.29475046323E+02  0.21588450074E+02  0.69236731058E+02  0.00000000000E+00 0. -1.
         11    1    1    2    0    0  0.22774249230E+02 -0.49872452778E+02  0.40879741814E+02  0.68389189678E+02  0.00000000000E+00 0.  1.
</event>
<event>
 7    1  0.2841804E-009  0.1057168E+03  0.7561462E-02  0.1268714E+00
         -1   -1    0    0    0  501 -0.00000000000E+00  0.00000000000E+00  0.97284089609E+03  0.97284089609E+03  0.00000000000E+00 0.  1.
          1   -1    0    0  501    0  0.00000000000E+00 -0.00000000000E+00 -0.18310361054E+02  0.18310361054E+02  0.00000000000E+00 0. -1.
         25    2    1    2    0    0  0.11584968411E+02 -0.69292834058E+02  0.64260401359E+03  0.65842533570E+03  0.12509314952E+03 0.  0.
          5    1    3    3  502    0  0.38560278730E+02 -0.85540351764E+02  0.58632339396E+03  0.59379848567E+03  0.41800000000E+01 0. -1.
         -5    1    3    3    0  502 -0.26975310319E+02  0.16247517707E+02  0.56280619632E+02  0.64626850029E+02  0.41800000000E+01 0. -1.
        -11    1    1    2    0    0 -0.25467282299E+02  0.66995572574E+02  0.31040567077E+03  0.31857286397E+03  0.00000000000E+00 0.  1.
         11    1    1    2    0    0  0.13882313888E+02  0.22972614833E+01  0.15208506744E+01  0.14153057478E+02  0.00000000000E+00 0. -1.
</event>
<event>
 7    1  0.3023054E-009  0.1085463E+03  0.7561462E-02  0.1263286E+00
          2   -1    0    0  501    0  0.00000000000E+00  0.00000000000E+00  0.18747505215E+04  0.18747505215E+04  0.00000000000E+00 0. -1.
         -2   -1    0    0    0  501 -0.00000000000E+00 -0.00000000000E+00 -0.82133811346E+01  0.82133811346E+01  0.00000000000E+00 0.  1.
         25    2    1    2    0    0 -0.15237083721E+02  0.55881773915E+01  0.14875704677E+04  0.14929089956E+04  0.12509187145E+03 0.  0.
          5    1    3    3  502    0 -0.61292021888E+02 -0.28487677328E+02  0.71137692125E+03  0.71459279047E+03  0.41800000000E+01 0. -1.
         -5    1    3    3    0  502  0.46054938167E+02  0.34075854719E+02  0.77619354641E+03  0.77831620509E+03  0.41800000000E+01 0. -1.
        -11    1    1    2    0    0  0.50063675428E+02 -0.20433389753E+02  0.20452073142E+03  0.21154816141E+03  0.00000000000E+00 0.  1.
         11    1    1    2    0    0 -0.34826591707E+02  0.14845212362E+02  0.17444594125E+03  0.17850674564E+03  0.00000000000E+00 0. -1.
</event>
<event>
 7    1  0.2841804E-009  0.1007301E+03  0.7561462E-02  0.1278768E+00
         -2   -1    0    0    0  501 -0.00000000000E+00  0.00000000000E+00  0.30184384832E+02  0.30184384832E+02  0.00000000000E+00 0.  1.
          2   -1    0    0  501    0  0.00000000000E+00 -0.00000000000E+00 -0.41924069003E+03  0.41924069003E+03  0.00000000000E+00 0. -1.
         25    2    1    2    0    0 -0.25084653713E+02 -0.11271776344E+02 -0.20305895391E+03  0.24007258043E+03  0.12508242209E+03 0.  0.
          5    1    3    3  502    0 -0.19020116968E+02 -0.63037518175E+02 -0.15735223946E+03  0.17062442150E+03  0.41800000000E+01 0. -1.
         -5    1    3    3    0  502 -0.60645367448E+01  0.51765741831E+02 -0.45706714447E+02  0.69448158930E+02  0.41800000000E+01 0. -1.
        -11    1    1    2    0    0  0.37142835423E+02 -0.25132483477E+02 -0.15070111470E+03  0.15723249639E+03  0.00000000000E+00 0. -1.
         11    1    1    2    0    0 -0.12058181710E+02  0.36404259821E+02 -0.35296236594E+02  0.52119998052E+02  0.00000000000E+00 0.  1.
</event>
<event>
 7    1  0.2841804E-009  0.1493008E+03  0.7561462E-02  0.1201335E+00
         -1   -1    0    0    0  501 -0.00000000000E+00  0.00000000000E+00  0.48735022850E+03  0.48735022850E+03  0.00000000000E+00 0.  1.
          1   -1    0    0  501    0  0.00000000000E+00 -0.00000000000E+00 -0.59615174125E+02  0.59615174125E+02  0.00000000000E+00 0. -1.
         25    2    1    2    0    0  0.12352808596E+03 -0.23606117460E+02  0.28565018402E+03  0.33624561207E+03  0.12509455305E+03 0.  0.
          5    1    3    3  502    0  0.55166945058E+02  0.38220755515E+02  0.51896183912E+02  0.84940592674E+02  0.41800000000E+01 0.  1.
         -5    1    3    3    0  502  0.68361140898E+02 -0.61826872975E+02  0.23375400010E+03  0.25130501939E+03  0.41800000000E+01 0.  1.
        -11    1    1    2    0    0 -0.69375131900E+02  0.42941143923E+02  0.12754526072E+03  0.15140886467E+03  0.00000000000E+00 0.  1.
         11    1    1    2    0    0 -0.54152954057E+02 -0.19335026463E+02  0.14539609633E+02  0.59310925888E+02  0.00000000000E+00 0. -1.
</event>
<event>
 7    1  0.2841804E-009  0.1114665E+03  0.7561462E-02  0.1257878E+00
          1   -1    0    0  501    0  0.00000000000E+00  0.00000000000E+00  0.49153688105E+03  0.49153688105E+03  0.00000000000E+00 0. -1.
         -1   -1    0    0    0  501 -0.00000000000E+00 -0.00000000000E+00 -0.33499469245E+02  0.33499469245E+02  0.00000000000E+00 0.  1.
         25    2    1    2    0    0  0.57411974384E+02  0.37651775392E+02  0.22674841545E+03  0.26790949232E+03  0.12508741413E+03 0.  0.
          5    1    3    3  502    0  0.72034748931E+02  0.52612831365E+02  0.22962913499E+03  0.24638207547E+03  0.41800000000E+01 0. -1.
         -5    1    3    3    0  502 -0.14622774547E+02 -0.14961055974E+02 -0.28807195368E+01  0.21527416853E+02  0.41800000000E+01 0. -1.
        -11    1    1    2    0    0  0.19459995450E+02 -0.29024020386E+02  0.75114071527E+02  0.82844486380E+02  0.00000000000E+00 0.  1.
         11    1    1    2    0    0 -0.76871969834E+02 -0.86277550058E+01  0.15617492482E+03  0.17428237159E+03  0.00000000000E+00 0. -1.
</event>
<event>
 7    1  0.3777059E-009  0.6446311E+02  0.7561462E-02  0.1380003E+00
         -1   -1    0    0    0  501 -0.00000000000E+00  0.00000000000E+00  0.14694904283E+02  0.14694904283E+02  0.00000000000E+00 0.  1.
          1   -1    0    0  501    0  0.00000000000E+00 -0.00000000000E+00 -0.10324682142E+04  0.10324682142E+04  0.00000000000E+00 0. -1.
         25    2    1    2    0    0  0.40672007489E+01 -0.31516111515E+02 -0.77646642104E+03  0.78712109809E+03  0.12509881152E+03 0.  0.
          5    1    3    3  502    0  0.13014213784E+02  0.18510652725E+02 -0.25196282679E+02  0.34122413243E+02  0.41800000000E+01 0.  1.
         -5    1    3    3    0  502 -0.89470130351E+01 -0.50026764239E+02 -0.75127013836E+03  0.75299868484E+03  0.41800000000E+01 0.  1.
        -11    1    1    2    0    0  0.66596654584E+01 -0.10016310871E+02  0.26716531365E+01  0.12321337507E+02  0.00000000000E+00 0.  1.
         11    1    1    2    0    0 -0.10726866207E+02  0.41532422386E+02 -0.24397854203E+03  0.24772068290E+03  0.00000000000E+00 0. -1.
</event>
<event>
 7    1  0.2841804E-009  0.1057649E+03  0.7561462E-02  0.1268620E+00
         -2   -1    0    0    0  501 -0.00000000000E+00  0.00000000000E+00  0.34505269997E+02  0.34505269997E+02  0.00000000000E+00 0.  1.
          2   -1    0    0  501    0  0.00000000000E+00 -0.00000000000E+00 -0.44498769848E+03  0.44498769848E+03  0.00000000000E+00 0. -1.
         25    2    1    2    0    0  0.37778481587E+02  0.39768170173E+02 -0.27684456441E+03  0.30870569223E+03  0.12509024960E+03 0.  0.
          5    1    3    3  502    0  0.69468984653E+02  0.15650830255E+02 -0.25125536197E+03  0.26118502567E+03  0.41800000000E+01 0. -1.
         -5    1    3    3    0  502 -0.31690503066E+02  0.24117339919E+02 -0.25589202441E+02  0.47520666566E+02  0.41800000000E+01 0. -1.
        -11    1    1    2    0    0 -0.17329293363E+02  0.26019377472E+02 -0.71403182886E+02  0.77946949516E+02  0.00000000000E+00 0.  1.
         11    1    1    2    0    0 -0.20449188224E+02 -0.65787547645E+02 -0.62234681194E+02  0.92840326731E+02  0.00000000000E+00 0. -1.
</event>
<event>
 7    1  0.2841804E-009  0.1103946E+03  0.7561462E-02  0.1259841E+00
         -1   -1    0    0    0  501 -0.00000000000E+00  0.00000000000E+00  0.51860527730E+03  0.51860527730E+03  0.00000000000E+00 0.  1.
          1   -1    0    0  501    0  0.00000000000E+00 -0.00000000000E+00 -0.44796364853E+02  0.44796364853E+02  0.00000000000E+00 0. -1.
         25    2    1    2    0    0  0.22253700594E+02  0.39839077404E+02  0.43448216398E+03  0.45442987736E+03  0.12509749534E+03 0.  0.
          5    1    3    3  502    0  0.29810951853E+02 -0.41131461549E+02  0.19144089406E+03  0.19811001564E+03  0.41800000000E+01 0. -1.
         -5    1    3    3    0  502 -0.75572512588E+01  0.80970538953E+02  0.24304126992E+03  0.25631986172E+03  0.41800000000E+01 0. -1.
        -11    1    1    2    0    0 -0.47579519230E+02 -0.88970937958E+01  0.47877699830E+02  0.68082619435E+02  0.00000000000E+00 0.  1.
         11    1    1    2    0    0  0.25325818636E+02 -0.30941983609E+02 -0.85509513624E+01  0.40889145362E+02  0.00000000000E+00 0. -1.
</event>
<event>
 7    1  0.2841804E-009  0.9317028E+02  0.7561462E-02  0.1295351E+00
         -2   -1    0    0    0  501 -0.00000000000E+00  0.00000000000E+00  0.29842356245E+02  0.29842356245E+02  0.00000000000E+00 0.  1.
          2   -1    0    0  501    0  0.00000000000E+00 -0.00000000000E+00 -0.42027646895E+03  0.42027646895E+03  0.00000000000E+00 0. -1.
         25    2    1    2    0    0  0.12960588487E+02 -0.19123536445E+02 -0.19197152692E+03  0.23029089219E+03  0.12508853415E+03 0.  0.
          5    1    3    3  502    0  0.24294446177E+02  0.31660859503E+02 -0.10523436957E+02  0.41483072028E+02  0.41800000000E+01 0.  1.
         -5    1    3    3    0  502 -0.11333857690E+02 -0.50784395948E+02 -0.18144808997E+03  0.18880782016E+03  0.41800000000E+01 0.  1.
        -11    1    1    2    0    0  0.38700865050E+02  0.17104564901E+02 -0.10091048255E+03  0.10942234043E+03  0.00000000000E+00 0.  1.
         11    1    1    2    0    0 -0.51661453537E+02  0.20189715445E+01 -0.97552103233E+02  0.11040559258E+03  0.00000000000E+00 0. -1.
</event>
<event>
 7    1  0.2841804E-009  0.1270602E+03  0.7561462E-02  0.1231884E+00
          4   -1    0    0  501    0  0.00000000000E+00  0.00000000000E+00  0.30427435778E+03  0.30427435778E+03  0.00000000000E+00 0. -1.
         -4   -1    0    0    0  501 -0.00000000000E+00 -0.00000000000E+00 -0.63798607635E+02  0.63798607635E+02  0.00000000000E+00 0.  1.
         25    2    1    2    0    0  0.77183771335E+02 -0.24605529081E+02  0.87457528185E+02  0.17279818309E+03  0.12509047216E+03 0.  0.
          5    1    3    3  502    0 -0.17585095763E+02 -0.44969491348E+02  0.47526194193E+02  0.67880058040E+02  0.41800000000E+01 0. -1.
         -5    1    3    3    0  502  0.94768867098E+02  0.20363962267E+02  0.39931333993E+02  0.10491812505E+03  0.41800000000E+01 0. -1.
        -11    1    1    2    0    0 -0.79650145999E+01  0.37401857455E+02  0.16441575468E+02  0.41625302432E+02  0.00000000000E+00 0.  1.
         11    1    1    2    0    0 -0.69218756735E+02 -0.12796328374E+02  0.13657664649E+03  0.15364947989E+03  0.00000000000E+00 0. -1.
</event>
<event>
 7    1  0.2841804E-009  0.4232705E+02  0.7561462E-02  0.1491753E+00
          1   -1    0    0  501    0  0.00000000000E+00  0.00000000000E+00  0.22024302692E+03  0.22024302692E+03  0.00000000000E+00 0. -1.
         -1   -1    0    0    0  501 -0.00000000000E+00 -0.00000000000E+00 -0.57416748450E+02  0.57416748450E+02  0.00000000000E+00 0.  1.
         25    2    1    2    0    0 -0.23515021831E+02 -0.25898382047E+02  0.87443504206E+02  0.15658814257E+03  0.12509915076E+03 0.  0.
          5    1    3    3  502    0 -0.26536320646E+02 -0.20987554304E+02 -0.26029881790E+02  0.42891501432E+02  0.41800000000E+01 0. -1.
         -5    1    3    3    0  502  0.30212988147E+01 -0.49108277425E+01  0.11347338600E+03  0.11369664113E+03  0.41800000000E+01 0. -1.
        -11    1    1    2    0    0  0.56952873263E+01  0.24956318263E+02  0.92721863568E+02  0.96190426252E+02  0.00000000000E+00 0. -1.
         11    1    1    2    0    0  0.17819734505E+02  0.94206378343E+00 -0.17339089299E+02  0.24881206557E+02  0.00000000000E+00 0.  1.
</event>
<event>
 7    1  0.2841804E-009  0.1456083E+03  0.7561462E-02  0.1205976E+00
         -1   -1    0    0    0  501 -0.00000000000E+00  0.00000000000E+00  0.10422275079E+03  0.10422275079E+03  0.00000000000E+00 0.  1.
          1   -1    0    0  501    0  0.00000000000E+00 -0.00000000000E+00 -0.24218694019E+03  0.24218694019E+03  0.00000000000E+00 0. -1.
         25    2    1    2    0    0 -0.85037811108E+02 -0.58679754318E+02 -0.13057581889E+03  0.20825963617E+03  0.12508912301E+03 0.  0.
          5    1    3    3  502    0 -0.15972109500E+02  0.35674518262E+02 -0.10684406636E+02  0.40735837787E+02  0.41800000000E+01 0. -1.
         -5    1    3    3    0  502 -0.69065701608E+02 -0.94354272579E+02 -0.11989141225E+03  0.16752379838E+03  0.41800000000E+01 0. -1.
        -11    1    1    2    0    0  0.58685633564E+02  0.81234407138E+02 -0.18123177077E+02  0.10184047347E+03  0.00000000000E+00 0. -1.
         11    1    1    2    0    0  0.26352177544E+02 -0.22554652820E+02  0.10734806560E+02  0.36309581339E+02  0.00000000000E+00 0.  1.
</event>
<event>
 7    1  0.2841804E-009  0.1379475E+03  0.7561462E-02  0.1216118E+00
          2   -1    0    0  501    0  0.00000000000E+00  0.00000000000E+00  0.30878309882E+02  0.30878309882E+02  0.00000000000E+00 0. -1.
         -2   -1    0    0    0  501 -0.00000000000E+00 -0.00000000000E+00 -0.84013126575E+03  0.84013126575E+03  0.00000000000E+00 0.  1.
         25    2    1    2    0    0  0.11742768974E+03 -0.20512254356E+02 -0.44188783925E+03  0.47447053269E+03  0.12508960393E+03 0.  0.
          5    1    3    3  502    0  0.19998649485E+02 -0.20997332591E+02 -0.88742119976E+01  0.30611403035E+02  0.41800000000E+01 0.  1.
         -5    1    3    3    0  502  0.97429040257E+02  0.48507823558E+00 -0.43301362726E+03  0.44385912965E+03  0.41800000000E+01 0.  1.
        -11    1    1    2    0    0 -0.10034123039E+03  0.52177883860E+02 -0.26949700801E+03  0.29226619956E+03  0.00000000000E+00 0. -1.
         11    1    1    2    0    0 -0.17086459352E+02 -0.31665629504E+02 -0.97868108605E+02  0.10427284338E+03  0.00000000000E+00 0.  1.
</event>
<event>
 7    1  0.2841804E-009  0.1156371E+03  0.7561462E-02  0.1250473E+00
         -2   -1    0    0    0  501 -0.00000000000E+00  0.00000000000E+00  0.18187578503E+02  0.18187578503E+02  0.00000000000E+00 0.  1.
          2   -1    0    0  501    0  0.00000000000E+00 -0.00000000000E+00 -0.80154912858E+03  0.80154912858E+03  0.00000000000E+00 0. -1.
         25    2    1    2    0    0  0.51465797761E+02  0.74699215848E+01 -0.37070261890E+03  0.39468068957E+03  0.12509151446E+03 0.  0.
          5    1    3    3  502    0 -0.70684579048E+01 -0.48715165893E+02 -0.92601442813E+02  0.10495537193E+03  0.41800000000E+01 0.  1.
         -5    1    3    3    0  502  0.58534255666E+02  0.56185087478E+02 -0.27810117609E+03  0.28972531764E+03  0.41800000000E+01 0.  1.
        -11    1    1    2    0    0  0.16735669759E+02 -0.25115975066E+02 -0.94986084291E+02  0.99665696480E+02  0.00000000000E+00 0.  1.
         11    1    1    2    0    0 -0.68201467521E+02  0.17646053481E+02 -0.31767284688E+03  0.32539032103E+03  0.00000000000E+00 0. -1.
</event>
<event>
 7    1  0.2841804E-009  0.1383407E+03  0.7561462E-02  0.1215579E+00
         -1   -1    0    0    0  501 -0.00000000000E+00  0.00000000000E+00  0.92430746979E+03  0.92430746979E+03  0.00000000000E+00 0.  1.
          1   -1    0    0  501    0  0.00000000000E+00 -0.00000000000E+00 -0.39953196122E+02  0.39953196122E+02  0.00000000000E+00 0. -1.
         25    2    1    2    0    0 -0.23172090532E+02  0.95525279596E+02  0.78092408187E+03  0.79696459051E+03  0.12509241404E+03 0.  0.
          5    1    3    3  502    0 -0.35410193587E+02 -0.17092615497E+02  0.11881870712E+03  0.12522538431E+03  0.41800000000E+01 0. -1.
         -5    1    3    3    0  502  0.12238103054E+02  0.11261789509E+03  0.66210537475E+03  0.67173920619E+03  0.41800000000E+01 0. -1.
        -11    1    1    2    0    0  0.50664545712E+02 -0.54655967832E+02  0.88766883371E+02  0.11590397144E+03  0.00000000000E+00 0. -1.
         11    1    1    2    0    0 -0.27492455180E+02 -0.40869311764E+02  0.14663308419E+02  0.51392103962E+02  0.00000000000E+00 0.  1.
</event>
<event>
 7    1  0.2841804E-009  0.1580229E+03  0.7561462E-02  0.1190947E+00
          2   -1    0    0  501    0  0.00000000000E+00  0.00000000000E+00  0.12962168830E+04  0.12962168830E+04  0.00000000000E+00 0. -1.
         -2   -1    0    0    0  501 -0.00000000000E+00 -0.00000000000E+00 -0.22323438220E+02  0.22323438220E+02  0.00000000000E+00 0.  1.
         25    2    1    2    0    0 -0.12439218003E+03  0.16374091085E+02  0.70622934160E+03  0.72811296427E+03  0.12508829078E+03 0.  0.
          5    1    3    3  502    0 -0.13494658867E+02 -0.33052421277E+02  0.55379698186E+02  0.66022357890E+02  0.41800000000E+01 0.  1.
         -5    1    3    3    0  502 -0.11089752116E+03  0.49426512362E+02  0.65084964341E+03  0.66209060638E+03  0.41800000000E+01 0.  1.
        -11    1    1    2    0    0  0.12747885995E+03 -0.40912921600E+02  0.42354887702E+03  0.44420533328E+03  0.00000000000E+00 0.  1.
         11    1    1    2    0    0 -0.30866799183E+01  0.24538830515E+02  0.14411522615E+03  0.14622202366E+03  0.00000000000E+00 0. -1.
</event>
<event>
 7    1  0.2841804E-009  0.1312641E+03  0.7561462E-02  0.1225592E+00
          2   -1    0    0  501    0  0.00000000000E+00  0.00000000000E+00  0.33300043767E+03  0.33300043767E+03  0.00000000000E+00 0. -1.
         -2   -1    0    0    0  501 -0.00000000000E+00 -0.00000000000E+00 -0.57764085262E+02  0.57764085262E+02  0.00000000000E+00 0.  1.
         25    2    1    2    0    0 -0.23458374365E+02  0.78718005890E+02  0.20191320055E+03  0.25132377851E+03  0.12509149175E+03 0.  0.
          5    1    3    3  502    0 -0.51786812311E+02 -0.11069747647E+02  0.94666132681E+02  0.10855211799E+03  0.41800000000E+01 0. -1.
         -5    1    3    3    0  502  0.28328437947E+02  0.89787753536E+02  0.10724706787E+03  0.14277166052E+03  0.41800000000E+01 0. -1.
        -11    1    1    2    0    0 -0.30239540197E+02 -0.25406514079E+02  0.99233232162E+01  0.40723372805E+02  0.00000000000E+00 0.  1.
         11    1    1    2    0    0  0.53697914562E+02 -0.53311491811E+02  0.63399828636E+02  0.98717371614E+02  0.00000000000E+00 0. -1.
</event>
<event>
 7    1  0.2841804E-009  0.1117906E+03  0.7561462E-02  0.1257289E+00
          2   -1    0    0  501    0  0.00000000000E+00  0.00000000000E+00  0.39398999715E+02  0.39398999715E+02  0.00000000000E+00 0. -1.
         -2   -1    0    0    0  501 -0.00000000000E+00 -0.00000000000E+00 -0.33090128152E+03  0.33090128152E+03  0.00000000000E+00 0.  1.
         25    2    1    2    0    0  0.33924958591E+02 -0.82236272572E+01 -0.17644523657E+03  0.21906926483E+03  0.12505954750E+03 0.  0.
          5    1    3    3  502    0 -0.77721686690E+01  0.51630377388E+02 -0.10253879619E+03  0.11514243179E+03  0.41800000000E+01 0.  1.
         -5    1    3    3    0  502  0.41697127260E+02 -0.59854004646E+02 -0.73906440383E+02  0.10392683303E+03  0.41800000000E+01 0.  1.
        -11    1    1    2    0    0  0.24604931423E+02 -0.21334328271E+02 -0.37161110914E+02  0.49411581410E+02  0.00000000000E+00 0.  1.
         11    1    1    2    0    0 -0.58529890014E+02  0.29557955529E+02 -0.77895934313E+02  0.10181943499E+03  0.00000000000E+00 0. -1.
</event>
<event>
 7    1  0.2841804E-009  0.1159251E+03  0.7561462E-02  0.1249975E+00
          4   -1    0    0  501    0  0.00000000000E+00  0.00000000000E+00  0.24704748401E+02  0.24704748401E+02  0.00000000000E+00 0. -1.
         -4   -1    0    0    0  501 -0.00000000000E+00 -0.00000000000E+00 -0.78076871577E+03  0.78076871577E+03  0.00000000000E+00 0.  1.
         25    2    1    2    0    0  0.33157346327E+02  0.48404023481E+02 -0.22878509169E+03  0.26727158469E+03  0.12509645359E+03 0.  0.
          5    1    3    3  502    0  0.45749160315E+02 -0.24241418966E+02 -0.15247623956E+03  0.16108106063E+03  0.41800000000E+01 0. -1.
         -5    1    3    3    0  502 -0.12591813988E+02  0.72645442447E+02 -0.76308852125E+02  0.10619052406E+03  0.41800000000E+01 0. -1.
        -11    1    1    2    0    0  0.27490984959E+02 -0.34001835046E+02 -0.17043450813E+03  0.17595397297E+03  0.00000000000E+00 0. -1.
         11    1    1    2    0    0 -0.60648331286E+02 -0.14402188436E+02 -0.35684436755E+03  0.36224790651E+03  0.00000000000E+00 0.  1.
</event>
<event>
 7    1  0.2841804E-009  0.1063855E+03  0.7561462E-02  0.1267414E+00
          2   -1    0    0  501    0  0.00000000000E+00  0.00000000000E+00  0.92976064746E+03  0.92976064746E+03  0.00000000000E+00 0. -1.
         -2   -1    0    0    0  501 -0.00000000000E+00 -0.00000000000E+00 -0.14687328197E+02  0.14687328197E+02  0.00000000000E+00 0.  1.
         25    2    1    2    0    0  0.37597450128E+02 -0.22608467236E+02  0.53489152241E+03  0.55107207656E+03  0.12508709675E+03 0.  0.
          5    1    3    3  502    0  0.53829952162E+02 -0.55212702963E+02  0.20351675979E+03  0.21767556187E+03  0.41800000000E+01 0.  1.
         -5    1    3    3    0  502 -0.16232502035E+02  0.32604235727E+02  0.33137476262E+03  0.33339651470E+03  0.41800000000E+01 0.  1.
        -11    1    1    2    0    0  0.26697776795E+02 -0.77274996058E+01  0.73958571494E+02  0.79008580758E+02  0.00000000000E+00 0.  1.
         11    1    1    2    0    0 -0.64295226922E+02  0.30335966842E+02  0.30622322535E+03  0.31436731833E+03  0.00000000000E+00 0. -1.
</event>
<event>
 7    1  0.2841804E-009  0.1511900E+03  0.7561462E-02  0.1199018E+00
         -1   -1    0    0    0  501 -0.00000000000E+00  0.00000000000E+00  0.42745902542E+02  0.42745902542E+02  0.00000000000E+00 0.  1.
          1   -1    0    0  501    0  0.00000000000E+00 -0.00000000000E+00 -0.72154198180E+03  0.72154198180E+03  0.00000000000E+00 0. -1.
         25    2    1    2    0    0 -0.53401488605E+02 -0.10764609158E+03 -0.20867239002E+03  0.27135052120E+03  0.12509012342E+03 0.  0.
          5    1    3    3  502    0  0.93591689416E+01  0.21667719059E+02 -0.59529788265E+02  0.64174388843E+02  0.41800000000E+01 0.  1.
         -5    1    3    3    0  502 -0.62760657547E+02 -0.12931381064E+03 -0.14914260176E+03  0.20717613235E+03  0.41800000000E+01 0.  1.
        -11    1    1    2    0    0 -0.91241073843E+01  0.45672731103E+02 -0.27442234525E+03  0.27834667463E+03  0.00000000000E+00 0. -1.
         11    1    1    2    0    0  0.62525595989E+02  0.61973360476E+02 -0.19570134398E+03  0.21459068852E+03  0.00000000000E+00 0.  1.
</event>
<event>
 7    1  0.2841804E-009  0.1653378E+03  0.7561462E-02  0.1182799E+00
          3   -1    0    0  501    0  0.00000000000E+00  0.00000000000E+00  0.58318373042E+03  0.58318373042E+03  0.00000000000E+00 0. -1.
         -3   -1    0    0    0  501 -0.00000000000E+00 -0.00000000000E+00 -0.68147326604E+02  0.68147326604E+02  0.00000000000E+00 0.  1.
         25    2    1    2    0    0 -0.14613720901E+03 -0.66547259141E+02  0.33756161017E+03  0.39418262939E+03  0.12508990006E+03 0.  0.
          5    1    3    3  502    0 -0.53958668619E+01  0.81876298994E+01 -0.81968872233E+01  0.13446710479E+02  0.41800000000E+01 0. -1.
         -5    1    3    3    0  502 -0.14074134214E+03 -0.74734889041E+02  0.34575849740E+03  0.38073591891E+03  0.41800000000E+01 0. -1.
        -11    1    1    2    0    0  0.31856916185E+02  0.15977456938E+02 -0.49942695727E+01  0.35987288972E+02  0.00000000000E+00 0. -1.
         11    1    1    2    0    0  0.11428029282E+03  0.50569802203E+02  0.18246906321E+03  0.22116113866E+03  0.00000000000E+00 0.  1.
</event>
<event>
 7    1  0.3231858E-009  0.1177265E+03  0.7561462E-02  0.1246895E+00
         -1   -1    0    0    0  501 -0.00000000000E+00  0.00000000000E+00  0.25377211282E+02  0.25377211282E+02  0.00000000000E+00 0.  1.
          1   -1    0    0  501    0  0.00000000000E+00 -0.00000000000E+00 -0.89921196236E+03  0.89921196236E+03  0.00000000000E+00 0. -1.
         25    2    1    2    0    0  0.96318067897E+02 -0.18239788083E+02 -0.58472177098E+03  0.60593485238E+03  0.12509051043E+03 0.  0.
          5    1    3    3  502    0  0.36647903145E+02  0.17962882904E+02 -0.41946190967E+02  0.58674434840E+02  0.41800000000E+01 0.  1.
         -5    1    3    3    0  502  0.59670164752E+02 -0.36202670987E+02 -0.54277558001E+03  0.54726041754E+03  0.41800000000E+01 0.  1.
        -11    1    1    2    0    0 -0.17815703337E+02 -0.28156474192E+02 -0.33438371837E+02  0.47204989518E+02  0.00000000000E+00 0.  1.
         11    1    1    2    0    0 -0.78502364560E+02  0.46396262275E+02 -0.25567460826E+03  0.27144933175E+03  0.00000000000E+00 0. -1.
</event>
<event>
 7    1  0.2868542E-009  0.1117361E+03  0.7561462E-02  0.1257388E+00
          2   -1    0    0  501    0  0.00000000000E+00  0.00000000000E+00  0.65903199894E+03  0.65903199894E+03  0.00000000000E+00 0. -1.
         -2   -1    0    0    0  501 -0.00000000000E+00 -0.00000000000E+00 -0.21159177615E+02  0.21159177615E+02  0.00000000000E+00 0.  1.
         25    2    1    2    0    0 -0.34551136202E+02 -0.12594693774E+02  0.27642579340E+03  0.30562676295E+03  0.12507634328E+03 0.  0.
          5    1    3    3  502    0 -0.58809452702E+02  0.39902225542E+02  0.17264812395E+03  0.18675006408E+03  0.41800000000E+01 0. -1.
         -5    1    3    3    0  502  0.24258316500E+02 -0.52496919316E+02  0.10377766945E+03  0.11887669887E+03  0.41800000000E+01 0. -1.
        -11    1    1    2    0    0 -0.58612216306E+01 -0.32917015833E+02  0.18283528071E+03  0.18586722067E+03  0.00000000000E+00 0.  1.
         11    1    1    2    0    0  0.40412357833E+02  0.45511709606E+02  0.17861174722E+03  0.18869719294E+03  0.00000000000E+00 0. -1.
</event>
<event>
 7    1  0.2841804E-009  0.1193772E+03  0.7561462E-02  0.1244128E+00
          2   -1    0    0  501    0  0.00000000000E+00  0.00000000000E+00  0.22621711389E+03  0.22621711389E+03  0.00000000000E+00 0.  1.
         -2   -1    0    0    0  501 -0.00000000000E+00 -0.00000000000E+00 -0.74639003010E+02  0.74639003010E+02  0.00000000000E+00 0. -1.
         25    2    1    2    0    0  0.72988735930E+02 -0.42257518364E+02  0.11117628364E+03  0.18740521676E+03  0.12508995082E+03 0.  0.
          5    1    3    3  502    0  0.91433114000E+02 -0.65346850259E+02  0.58270777600E+02  0.12666167967E+03  0.41800000000E+01 0. -1.
         -5    1    3    3    0  502 -0.18444378069E+02  0.23089331894E+02  0.52905506038E+02  0.60743537095E+02  0.41800000000E+01 0. -1.
        -11    1    1    2    0    0 -0.18334307425E+01  0.22533509624E+02  0.31936533021E+02  0.39128795863E+02  0.00000000000E+00 0.  1.
         11    1    1    2    0    0 -0.71155305188E+02  0.19724008741E+02  0.84652942185E+01  0.74322104272E+02  0.00000000000E+00 0. -1.
</event>
<event>
 6    1  0.2841804E-009  0.1121982E+03  0.7561462E-02  0.1256552E+00
          1   -1    0    0  501    0  0.00000000000E+00  0.00000000000E+00  0.20340149266E+03  0.20340149266E+03  0.00000000000E+00 0. -1.
         -1   -1    0    0    0  501 -0.00000000000E+00 -0.00000000000E+00 -0.65858953456E+02  0.65858953456E+02  0.00000000000E+00 0.  1.
          5    1    1    2  502    0 -0.26423080167E+02  0.63443255974E+02  0.46217740292E+02  0.82926339674E+02  0.41800000000E+01 0.  1.
         -5    1    1    2    0  502 -0.14333300399E+02 -0.59270446888E+02  0.43370828016E+02  0.74946184008E+02  0.41800000000E+01 0.  1.
        -11    1    1    2    0    0  0.14574829511E+02  0.40277746328E+02  0.29611388330E+01  0.42935892302E+02  0.00000000000E+00 0.  1.
         11    1    1    2    0    0  0.26181551055E+02 -0.44450555415E+02  0.44992832065E+02  0.68452030135E+02  0.00000000000E+00 0. -1.
</event>
<event>
 7    1  0.2841804E-009  0.1739780E+03  0.7561462E-02  0.1173762E+00
         -1   -1    0    0    0  501 -0.00000000000E+00  0.00000000000E+00  0.39113487437E+02  0.39113487437E+02  0.00000000000E+00 0.  1.
          1   -1    0    0  501    0  0.00000000000E+00 -0.00000000000E+00 -0.10971361935E+04  0.10971361935E+04  0.00000000000E+00 0. -1.
         25    2    1    2    0    0 -0.52788647738E+02 -0.14858545655E+03 -0.76412443064E+03  0.79018900112E+03  0.12509289656E+03 0.  0.
          5    1    3    3  502    0  0.24041159185E+02 -0.90005853142E+02 -0.24528539774E+03  0.26241461408E+03  0.41800000000E+01 0.  1.
         -5    1    3    3    0  502 -0.76829806922E+02 -0.58579603408E+02 -0.51883903289E+03  0.52777438705E+03  0.41800000000E+01 0.  1.
        -11    1    1    2    0    0  0.39265490777E+02  0.12209211123E+03 -0.14227584922E+03  0.19154811318E+03  0.00000000000E+00 0.  1.
         11    1    1    2    0    0  0.13523156961E+02  0.26493345315E+02 -0.15162242623E+03  0.15451256666E+03  0.00000000000E+00 0. -1.
</event>
<event>
 7    1  0.4626634E-009  0.6060977E+02  0.7561462E-02  0.1395290E+00
          2   -1    0    0  501    0  0.00000000000E+00  0.00000000000E+00  0.42979856612E+03  0.42979856612E+03  0.00000000000E+00 0. -1.
         -2   -1    0    0    0  501 -0.00000000000E+00 -0.00000000000E+00 -0.35433832356E+02  0.35433832356E+02  0.00000000000E+00 0.  1.
         25    2    1    2    0    0  0.58846084494E+02 -0.10123445430E+02  0.23317103191E+03  0.27125938617E+03  0.12509028202E+03 0.  0.
          5    1    3    3  502    0  0.34267764993E+02  0.12229819894E+00  0.24078741310E+03  0.24324955371E+03  0.41800000000E+01 0. -1.
         -5    1    3    3    0  502  0.24578319500E+02 -0.10245743628E+02 -0.76163811887E+01  0.28009832459E+02  0.41800000000E+01 0. -1.
        -11    1    1    2    0    0 -0.36915319564E+02  0.53808496147E+01  0.16673810354E+03  0.17086043876E+03  0.00000000000E+00 0. -1.
         11    1    1    2    0    0 -0.21930764930E+02  0.47425958148E+01 -0.55444016917E+01  0.23112573539E+02  0.00000000000E+00 0.  1.
</event>
<event>
 7    1  0.2841804E-009  0.1203449E+03  0.7561462E-02  0.1242529E+00
         -2   -1    0    0    0  501 -0.00000000000E+00  0.00000000000E+00  0.39025521384E+03  0.39025521384E+03  0.00000000000E+00 0.  1.
          2   -1    0    0  501    0  0.00000000000E+00 -0.00000000000E+00 -0.53663150972E+02  0.53663150972E+02  0.00000000000E+00 0. -1.
         25    2    1    2    0    0  0.77894259440E+02 -0.14502970069E+02  0.25533338202E+03  0.29516286588E+03  0.12509248427E+03 0.  0.
          5    1    3    3  502    0  0.65730262451E+02  0.28350747097E+02  0.23558519861E+03  0.24625614808E+03  0.41800000000E+01 0. -1.
         -5    1    3    3    0  502  0.12163996989E+02 -0.42853717165E+02  0.19748183417E+02  0.48906717800E+02  0.41800000000E+01 0. -1.
        -11    1    1    2    0    0  0.81590055644E+01  0.34869491997E+02  0.28630718057E+02  0.45849415049E+02  0.00000000000E+00 0.  1.
         11    1    1    2    0    0 -0.86053265005E+02 -0.20366521928E+02  0.52627962784E+02  0.10290608388E+03  0.00000000000E+00 0. -1.
</event>
<event>
 7    1  0.2841804E-009  0.1311390E+03  0.7561462E-02  0.1225775E+00
         -1   -1    0    0    0  501 -0.00000000000E+00  0.00000000000E+00  0.92976051818E+02  0.92976051818E+02  0.00000000000E+00 0.  1.
          1   -1    0    0  501    0  0.00000000000E+00 -0.00000000000E+00 -0.29253107893E+03  0.29253107893E+03  0.00000000000E+00 0. -1.
         25    2    1    2    0    0 -0.11736794906E+03  0.15063148153E+02 -0.14031441009E+03  0.22212041469E+03  0.12508881263E+03 0.  0.
          5    1    3    3  502    0 -0.58455120278E+02  0.14381827957E+02  0.94968724265E+01  0.61086013522E+02  0.41800000000E+01 0. -1.
         -5    1    3    3    0  502 -0.58912828787E+02  0.68132019604E+00 -0.14981128251E+03  0.16103440117E+03  0.41800000000E+01 0. -1.
        -11    1    1    2    0    0  0.11069816080E+03  0.15328996667E+02 -0.68307741545E+02  0.13097712967E+03  0.00000000000E+00 0.  1.
         11    1    1    2    0    0  0.66697882682E+01 -0.30392144820E+02  0.90671245190E+01  0.32409586380E+02  0.00000000000E+00 0. -1.
</event>
<event>
 7    1  0.2841804E-009  0.9688924E+02  0.7561462E-02  0.1286977E+00
          1   -1    0    0  501    0  0.00000000000E+00  0.00000000000E+00  0.52250716185E+02  0.52250716185E+02  0.00000000000E+00 0. -1.
         -1   -1    0    0    0  501 -0.00000000000E+00 -0.00000000000E+00 -0.31807478609E+03  0.31807478609E+03  0.00000000000E+00 0.  1.
         25    2    1    2    0    0  0.19289694717E+02 -0.60898681238E+02 -0.17185846093E+03  0.22195431570E+03  0.12509055105E+03 0.  0.
          5    1    3    3  502    0  0.42228631838E+02 -0.11841954854E+02 -0.16053495929E+03  0.16647052230E+03  0.41800000000E+01 0. -1.
         -5    1    3    3    0  502 -0.22938937121E+02 -0.49056726383E+02 -0.11323501642E+02  0.55483793392E+02  0.41800000000E+01 0. -1.
        -11    1    1    2    0    0 -0.32123945297E+02 -0.10508216580E+01  0.33326023483E+01  0.32313438784E+02  0.00000000000E+00 0. -1.
         11    1    1    2    0    0  0.12834250580E+02  0.61949502896E+02 -0.97298211317E+02  0.11605774779E+03  0.00000000000E+00 0.  1.
</event>
<event>
 7    1  0.2841804E-009  0.9141489E+02  0.7561462E-02  0.1299461E+00
          2   -1    0    0  501    0  0.00000000000E+00  0.00000000000E+00  0.47814304458E+03  0.47814304458E+03  0.00000000000E+00 0. -1.
         -2   -1    0    0    0  501 -0.00000000000E+00 -0.00000000000E+00 -0.26202628486E+02  0.26202628486E+02  0.00000000000E+00 0.  1.
         25    2    1    2    0    0 -0.12841557149E+02  0.16091224238E+02  0.30106209965E+03  0.32666402556E+03  0.12508862722E+03 0.  0.
          5    1    3    3  502    0 -0.68047717175E+02  0.30978645575E+01  0.13765200801E+03  0.15364125841E+03  0.41800000000E+01 0.  1.
         -5    1    3    3    0  502  0.55206160026E+02  0.12993359681E+02  0.16341009165E+03  0.17302276715E+03  0.41800000000E+01 0.  1.
        -11    1    1    2    0    0  0.33960914496E+02 -0.67652377793E+01  0.11624856357E+02  0.36527379333E+02  0.00000000000E+00 0. -1.
         11    1    1    2    0    0 -0.21119357347E+02 -0.93259864589E+01  0.13925346009E+03  0.14115426818E+03  0.00000000000E+00 0.  1.
</event>
<event>
 7    1  0.2841804E-009  0.7451314E+02  0.7561462E-02  0.1345385E+00
         -2   -1    0    0    0  501 -0.00000000000E+00  0.00000000000E+00  0.59025693487E+02  0.59025693487E+02  0.00000000000E+00 0.  1.
          2   -1    0    0  501    0  0.00000000000E+00 -0.00000000000E+00 -0.27170147018E+03  0.27170147018E+03  0.00000000000E+00 0. -1.
         25    2    1    2    0    0  0.45714551975E+02 -0.16329176342E+02 -0.70972673850E+02  0.15179292077E+03  0.12509000000E+03 0.  0.
          5    1    3    3  502    0 -0.23357779186E+02 -0.62112527944E+01  0.23688917875E+02  0.34099893546E+02  0.41800000000E+01 0.  1.
         -5    1    3    3    0  502  0.69072331160E+02 -0.10117923547E+02 -0.94661591725E+02  0.11769302722E+03  0.41800000000E+01 0.  1.
        -11    1    1    2    0    0 -0.10202334448E+02 -0.67294338589E+01  0.13411174419E+02  0.18144765294E+02  0.00000000000E+00 0.  1.
         11    1    1    2    0    0 -0.35512217526E+02  0.23058610201E+02 -0.15511427726E+03  0.16078947761E+03  0.00000000000E+00 0. -1.
</event>
<event>
 7    1  0.2841804E-009  0.9895385E+02  0.7561462E-02  0.1282511E+00
          2   -1    0    0  501    0  0.00000000000E+00  0.00000000000E+00  0.35818008583E+02  0.35818008583E+02  0.00000000000E+00 0. -1.
         -2   -1    0    0    0  501 -0.00000000000E+00 -0.00000000000E+00 -0.36608643045E+03  0.36608643045E+03  0.00000000000E+00 0.  1.
         25    2    1    2    0    0 -0.32043583258E+02  0.13791937335E+02 -0.16379036509E+03  0.20902481755E+03  0.12508829637E+03 0.  0.
          5    1    3    3  502    0 -0.73822374975E+02  0.19913916101E+02 -0.14198602427E+03  0.16131897157E+03  0.41800000000E+01 0. -1.
         -5    1    3    3    0  502  0.41778791716E+02 -0.61219787654E+01 -0.21804340822E+02  0.47705845973E+02  0.41800000000E+01 0. -1.
        -11    1    1    2    0    0  0.51535496600E+02  0.50609574558E+01 -0.45606360122E+02  0.69003338932E+02  0.00000000000E+00 0. -1.
         11    1    1    2    0    0 -0.19491913342E+02 -0.18852894791E+02 -0.12087169665E+03  0.12387628255E+03  0.00000000000E+00 0.  1.
</event>
<event>
 7    1  0.2841804E-009  0.1303410E+03  0.7561462E-02  0.1226951E+00
         -3   -1    0    0    0  501 -0.00000000000E+00  0.00000000000E+00  0.26640285048E+03  0.26640285048E+03  0.00000000000E+00 0.  1.
          3   -1    0    0  501    0  0.00000000000E+00 -0.00000000000E+00 -0.86954488551E+02  0.86954488551E+02  0.00000000000E+00 0. -1.
         25    2    1    2    0    0 -0.69324961312E+02 -0.22790987455E+02  0.71410329015E+01  0.14499767940E+03  0.12509177955E+03 0.  0.
          5    1    3    3  502    0 -0.34485264347E+02 -0.74171326050E+02 -0.29984616350E+01  0.81957807665E+02  0.41800000000E+01 0.  1.
         -5    1    3    3    0  502 -0.34839696965E+02  0.51380338595E+02  0.10139494537E+02  0.63039871734E+02  0.41800000000E+01 0.  1.
        -11    1    1    2    0    0  0.86596900944E+02 -0.16732485552E+01  0.13675077151E+03  0.16187216105E+03  0.00000000000E+00 0.  1.
         11    1    1    2    0    0 -0.17271939633E+02  0.24464236010E+02  0.35556557523E+02  0.46487498590E+02  0.00000000000E+00 0. -1.
</event>
<event>
 7    1  0.2841804E-009  0.1061804E+03  0.7561462E-02  0.1267811E+00
          2   -1    0    0  501    0  0.00000000000E+00  0.00000000000E+00  0.59485549116E+02  0.59485549116E+02  0.00000000000E+00 0. -1.
         -2   -1    0    0    0  501 -0.00000000000E+00 -0.00000000000E+00 -0.20825692685E+03  0.20825692685E+03  0.00000000000E+00 0.  1.
         25    2    1    2    0    0  0.57873781059E+01  0.25861660906E+02 -0.89521535561E+02  0.15608914678E+03  0.12508955657E+03 0.  0.
          5    1    3    3  502    0 -0.56738938022E+02  0.65888415473E+01 -0.20343143454E+02  0.60778580161E+02  0.41800000000E+01 0. -1.
         -5    1    3    3    0  502  0.62526316128E+02  0.19272819359E+02 -0.69178392107E+02  0.95310566618E+02  0.41800000000E+01 0. -1.
        -11    1    1    2    0    0 -0.42306004142E+02  0.38024708126E+01 -0.10194511425E+02  0.43682775026E+02  0.00000000000E+00 0.  1.
         11    1    1    2    0    0  0.36518626036E+02 -0.29664131719E+02 -0.49055330745E+02  0.67970554159E+02  0.00000000000E+00 0. -1.
</event>
<event>
 7    1  0.2841804E-009  0.1772993E+03  0.7561462E-02  0.1170443E+00
          1   -1    0    0  501    0  0.00000000000E+00  0.00000000000E+00  0.14050432068E+04  0.14050432068E+04  0.00000000000E+00 0. -1.
         -1   -1    0    0    0  501 -0.00000000000E+00 -0.00000000000E+00 -0.31704033531E+02  0.31704033531E+02  0.00000000000E+00 0.  1.
         25    2    1    2    0    0  0.11749246153E+03  0.11861202965E+03  0.48214622545E+03  0.52533971656E+03  0.12507414995E+03 0.  0.
          5    1    3    3  502    0  0.57159911415E+02  0.16723596556E+02  0.31409541200E+03  0.31971914924E+03  0.41800000000E+01 0. -1.
         -5    1    3    3    0  502  0.60332550119E+02  0.10188843309E+03  0.16805081345E+03  0.20562056731E+03  0.41800000000E+01 0. -1.
        -11    1    1    2    0    0 -0.42101642161E+02 -0.84819843098E+01  0.97055496535E+02  0.10613322636E+03  0.00000000000E+00 0.  1.
         11    1    1    2    0    0 -0.75390819373E+02 -0.11013004534E+03  0.79413745127E+03  0.80527429739E+03  0.00000000000E+00 0. -1.
</event>
<event>
 7    1  0.2841804E-009  0.1320059E+03  0.7561462E-02  0.1224509E+00
          1   -1    0    0  501    0  0.00000000000E+00  0.00000000000E+00  0.31832854228E+03  0.31832854228E+03  0.00000000000E+00 0. -1.
         -1   -1    0    0    0  501 -0.00000000000E+00 -0.00000000000E+00 -0.71839233810E+02  0.71839233810E+02  0.00000000000E+00 0.  1.
         25    2    1    2    0    0 -0.73981855084E+02 -0.27099007234E+02  0.44085527957E+02  0.15426623279E+03  0.12508743234E+03 0.  0.
          5    1    3    3  502    0 -0.10835224681E+03 -0.13320734341E+02  0.41664381762E+02  0.11692324175E+03  0.41800000000E+01 0. -1.
         -5    1    3    3    0  502  0.34370391728E+02 -0.13778272893E+02  0.24211461945E+01  0.37342991047E+02  0.41800000000E+01 0. -1.
        -11    1    1    2    0    0  0.30152468453E+02  0.56971069543E+02  0.13913375402E+03  0.15333973923E+03  0.00000000000E+00 0.  1.
         11    1    1    2    0    0  0.43829386631E+02 -0.29872062309E+02  0.63270026500E+02  0.82561804077E+02  0.00000000000E+00 0. -1.
</event>
<event>
 7    1  0.2841804E-009  0.1110224E+03  0.7561462E-02  0.1258688E+00
         -2   -1    0    0    0  501 -0.00000000000E+00  0.00000000000E+00  0.25211985501E+02  0.25211985501E+02  0.00000000000E+00 0.  1.
          2   -1    0    0  501    0  0.00000000000E+00 -0.00000000000E+00 -0.89139743185E+03  0.89139743185E+03  0.00000000000E+00 0. -1.
         25    2    1    2    0    0 -0.71089626544E+02  0.53896084497E+02 -0.64022686620E+03  0.65840473174E+03  0.12509127728E+03 0.  0.
          5    1    3    3  502    0 -0.34696831810E+02  0.64129526524E+02 -0.15134299654E+03  0.16804356968E+03  0.41800000000E+01 0. -1.
         -5    1    3    3    0  502 -0.36392794734E+02 -0.10233442027E+02 -0.48888386966E+03  0.49036116206E+03  0.41800000000E+01 0. -1.
        -11    1    1    2    0    0  0.57605614953E+02 -0.23044231732E+01 -0.57165242638E+02  0.81188559576E+02  0.00000000000E+00 0.  1.
         11    1    1    2    0    0  0.13484011591E+02 -0.51591661324E+02 -0.16879333752E+03  0.17701612604E+03  0.00000000000E+00 0. -1.
</event>
<event>
 7    1  0.2841804E-009  0.2512427E+03  0.7561462E-02  0.1112522E+00
          2   -1    0    0  501    0  0.00000000000E+00  0.00000000000E+00  0.97488608331E+03  0.97488608331E+03  0.00000000000E+00 0.  1.
         -2   -1    0    0    0  501 -0.00000000000E+00 -0.00000000000E+00 -0.66827624185E+02  0.66827624185E+02  0.00000000000E+00 0. -1.
         25    2    1    2    0    0 -0.39447335820E+02 -0.22597414971E+03  0.41893403021E+03  0.49372846852E+03  0.12506666350E+03 0.  0.
          5    1    3    3  502    0  0.43312275688E+02 -0.10518890006E+03  0.16242866229E+03  0.19834616370E+03  0.41800000000E+01 0.  1.
         -5    1    3    3    0  502 -0.82759611509E+02 -0.12078524965E+03  0.25650536791E+03  0.29538230482E+03  0.41800000000E+01 0.  1.
        -11    1    1    2    0    0  0.60585159368E+02  0.19831229228E+03  0.45082813790E+03  0.49623012477E+03  0.00000000000E+00 0.  1.
         11    1    1    2    0    0 -0.21137823547E+02  0.27661857434E+02  0.38296291016E+02  0.51755114207E+02  0.00000000000E+00 0. -1.
</event>
<event>
 7    1  0.3320496E-009  0.1183374E+03  0.7561462E-02  0.1245865E+00
         -1   -1    0    0    0  501 -0.00000000000E+00  0.00000000000E+00  0.16674125309E+03  0.16674125309E+03  0.00000000000E+00 0.  1.
          1   -1    0    0  501    0  0.00000000000E+00 -0.00000000000E+00 -0.13845929843E+03  0.13845929843E+03  0.00000000000E+00 0. -1.
         25    2    1    2    0    0 -0.36523176347E+02  0.77769760640E+02  0.77084648430E+02  0.17019971988E+03  0.12507527151E+03 0.  0.
          5    1    3    3  502    0 -0.79841343507E+02  0.29812896599E+02  0.56128540029E+02  0.10213390398E+03  0.41800000000E+01 0. -1.
         -5    1    3    3    0  502  0.43318167160E+02  0.47956864041E+02  0.20956108401E+02  0.68065815899E+02  0.41800000000E+01 0. -1.
        -11    1    1    2    0    0  0.32285050123E+01 -0.16907933398E+02 -0.62032946916E+02  0.64376921015E+02  0.00000000000E+00 0. -1.
         11    1    1    2    0    0  0.33294671334E+02 -0.60861827242E+02  0.13230253148E+02  0.70623910631E+02  0.00000000000E+00 0.  1.
</event>
<event>
 7    1  0.2841804E-009  0.2107156E+03  0.7561462E-02  0.1141001E+00
         -2   -1    0    0    0  501 -0.00000000000E+00  0.00000000000E+00  0.10335841625E+03  0.10335841625E+03  0.00000000000E+00 0.  1.
          2   -1    0    0  501    0  0.00000000000E+00 -0.00000000000E+00 -0.47389540233E+03  0.47389540233E+03  0.00000000000E+00 0. -1.
         25    2    1    2    0    0  0.32563108729E+02  0.18758739079E+03 -0.16160837094E+03  0.27931001899E+03  0.12508971148E+03 0.  0.
          5    1    3    3  502    0  0.50356264944E+02  0.51886339123E+02 -0.11259232107E+03  0.13387475031E+03  0.41800000000E+01 0.  1.
         -5    1    3    3    0  502 -0.17793156215E+02  0.13570105167E+03 -0.49016049864E+02  0.14543526868E+03  0.41800000000E+01 0.  1.
        -11    1    1    2    0    0  0.26925566125E+02 -0.11559191389E+03 -0.12517153690E+03  0.17249460953E+03  0.00000000000E+00 0. -1.
         11    1    1    2    0    0 -0.59488674854E+02 -0.71995476905E+02 -0.83757078239E+02  0.12544919006E+03  0.00000000000E+00 0.  1.
</event>
<event>
 7    1  0.2841804E-009  0.8888103E+02  0.7561462E-02  0.1305584E+00
         -2   -1    0    0    0  501 -0.00000000000E+00  0.00000000000E+00  0.20308726360E+02  0.20308726360E+02  0.00000000000E+00 0.  1.
          2   -1    0    0  501    0  0.00000000000E+00 -0.00000000000E+00 -0.14585670602E+04  0.14585670602E+04  0.00000000000E+00 0. -1.
         25    2    1    2    0    0 -0.26749271897E+01  0.17467175037E+02 -0.13388350149E+04  0.13447834392E+04  0.12510413228E+03 0.  0.
          5    1    3    3  502    0  0.49952751779E+02 -0.18857957127E+02 -0.86190598346E+03  0.86356835090E+03  0.41800000000E+01 0.  1.
         -5    1    3    3    0  502 -0.52627678969E+02  0.36325132165E+02 -0.47692903143E+03  0.48121508833E+03  0.41800000000E+01 0.  1.
        -11    1    1    2    0    0 -0.20472937107E+02  0.11151740815E+02 -0.94046791396E+02  0.96893247695E+02  0.00000000000E+00 0. -1.
         11    1    1    2    0    0  0.23147864297E+02 -0.28618915852E+02 -0.53765275781E+01  0.37199099651E+02  0.00000000000E+00 0.  1.
</event>
<event>
 7    1  0.2841804E-009  0.1311186E+03  0.7561462E-02  0.1225805E+00
          3   -1    0    0  501    0  0.00000000000E+00  0.00000000000E+00  0.71556685420E+02  0.71556685420E+02  0.00000000000E+00 0. -1.
         -3   -1    0    0    0  501 -0.00000000000E+00 -0.00000000000E+00 -0.40930650718E+03  0.40930650718E+03  0.00000000000E+00 0.  1.
         25    2    1    2    0    0  0.58332189598E+02 -0.81215047890E+02 -0.30055175920E+03  0.34055441380E+03  0.12508964965E+03 0.  0.
          5    1    3    3  502    0 -0.26168075761E+02 -0.51360377588E+02 -0.18764056735E+03  0.19633927648E+03  0.41800000000E+01 0.  1.
         -5    1    3    3    0  502  0.84500265359E+02 -0.29854670303E+02 -0.11291119186E+03  0.14421513732E+03  0.41800000000E+01 0.  1.
        -11    1    1    2    0    0  0.80109468500E+01  0.29614712859E+02 -0.46541566870E+02  0.55743375695E+02  0.00000000000E+00 0.  1.
         11    1    1    2    0    0 -0.66343136448E+02  0.51600335031E+02  0.93435043169E+01  0.84565403103E+02  0.00000000000E+00 0. -1.
</event>
<event>
 7    1  0.2841804E-009  0.8285336E+02  0.7561462E-02  0.1321144E+00
          1   -1    0    0  501    0  0.00000000000E+00  0.00000000000E+00  0.89754273031E+02  0.89754273031E+02  0.00000000000E+00 0. -1.
         -1   -1    0    0    0  501 -0.00000000000E+00 -0.00000000000E+00 -0.13492990423E+03  0.13492990423E+03  0.00000000000E+00 0.  1.
         25    2    1    2    0    0  0.17177414668E+02  0.94415356704E+01 -0.30051610998E+02  0.13013040761E+03  0.12508644007E+03 0.  0.
          5    1    3    3  502    0 -0.46710485542E+02  0.28241782504E+02  0.46084613047E+01  0.54937947306E+02  0.41800000000E+01 0.  1.
         -5    1    3    3    0  502  0.63887900211E+02 -0.18800246834E+02 -0.34660072302E+02  0.75192460302E+02  0.41800000000E+01 0.  1.
        -11    1    1    2    0    0 -0.10836993832E+02  0.15268907107E+02  0.34218695455E+02  0.39006397914E+02  0.00000000000E+00 0. -1.
         11    1    1    2    0    0 -0.63404208363E+01 -0.24710442778E+02 -0.49342715662E+02  0.55547371743E+02  0.00000000000E+00 0.  1.
</event>
<event>
 7    1  0.2841804E-009  0.2084622E+03  0.7561462E-02  0.1142790E+00
         -1   -1    0    0    0  501 -0.00000000000E+00  0.00000000000E+00  0.28254925894E+03  0.28254925894E+03  0.00000000000E+00 0.  1.
          1   -1    0    0  501    0  0.00000000000E+00 -0.00000000000E+00 -0.17926182139E+03  0.17926182139E+03  0.00000000000E+00 0. -1.
         25    2    1    2    0    0 -0.16031826083E+03 -0.11139052667E+03  0.28586290598E+02  0.23360367730E+03  0.12507480901E+03 0.  0.
          5    1    3    3  502    0 -0.13084123144E+03 -0.29642100868E+02 -0.17150224431E+02  0.13531328311E+03  0.41800000000E+01 0.  1.
         -5    1    3    3    0  502 -0.29477029394E+02 -0.81748425798E+02  0.45736515029E+02  0.98290394186E+02  0.41800000000E+01 0.  1.
        -11    1    1    2    0    0  0.13210329773E+03  0.85135132624E+02  0.96011465810E+02  0.18416697219E+03  0.00000000000E+00 0.  1.
         11    1    1    2    0    0  0.28214963102E+02  0.26255394042E+02 -0.21310318853E+02  0.44040430842E+02  0.00000000000E+00 0. -1.
</event>
<event>
 7    1  0.2841804E-009  0.1005250E+03  0.7561462E-02  0.1279196E+00
         -1   -1    0    0    0  501 -0.00000000000E+00  0.00000000000E+00  0.30642233745E+03  0.30642233745E+03  0.00000000000E+00 0.  1.
          1   -1    0    0  501    0  0.00000000000E+00 -0.00000000000E+00 -0.68759483939E+02  0.68759483939E+02  0.00000000000E+00 0. -1.
         25    2    1    2    0    0 -0.36183590380E+02  0.53908793860E+02  0.59849175215E+02  0.15311580814E+03  0.12508843536E+03 0.  0.
          5    1    3    3  502    0 -0.10294971324E+02  0.50478196656E+02 -0.29789688508E+02  0.59656791010E+02  0.41800000000E+01 0.  1.
         -5    1    3    3    0  502 -0.25888619056E+02  0.34305972042E+01  0.89638863724E+02  0.93459017133E+02  0.41800000000E+01 0.  1.
        -11    1    1    2    0    0  0.73309270561E+02 -0.37099764627E+02  0.15482593189E+03  0.17527609897E+03  0.00000000000E+00 0.  1.
         11    1    1    2    0    0 -0.37125680181E+02 -0.16809029233E+02  0.22987746400E+02  0.46789914268E+02  0.00000000000E+00 0. -1.
</event>
<event>
 7    1  0.2841804E-009  0.2047460E+03  0.7561462E-02  0.1145795E+00
         -1   -1    0    0    0  501 -0.00000000000E+00  0.00000000000E+00  0.52568564034E+02  0.52568564034E+02  0.00000000000E+00 0.  1.
          1   -1    0    0  501    0  0.00000000000E+00 -0.00000000000E+00 -0.10646598072E+04  0.10646598072E+04  0.00000000000E+00 0. -1.
         25    2    1    2    0    0 -0.43189937646E+02 -0.18753481858E+03 -0.32229263054E+03  0.39567005906E+03  0.12509027558E+03 0.  0.
          5    1    3    3  502    0 -0.22532960879E+02 -0.17645165193E+03 -0.32616725803E+03  0.37154471118E+03  0.41800000000E+01 0.  1.
         -5    1    3    3    0  502 -0.20656976768E+02 -0.11083166642E+02  0.38746274920E+01  0.24125347877E+02  0.41800000000E+01 0.  1.
        -11    1    1    2    0    0  0.63565906339E+02  0.10507572617E+03 -0.47385891065E+03  0.48951384033E+03  0.00000000000E+00 0. -1.
         11    1    1    2    0    0 -0.20375968693E+02  0.82459092400E+02 -0.21593970195E+03  0.23204447181E+03  0.00000000000E+00 0.  1.
</event>
<event>
 7    1  0.2841804E-009  0.7531370E+02  0.7561462E-02  0.1342902E+00
          1   -1    0    0  501    0  0.00000000000E+00  0.00000000000E+00  0.32617287224E+02  0.32617287224E+02  0.00000000000E+00 0. -1.
         -1   -1    0    0    0  501 -0.00000000000E+00 -0.00000000000E+00 -0.44164477281E+03  0.44164477281E+03  0.00000000000E+00 0.  1.
         25    2    1    2    0    0  0.34700876583E+02 -0.14108639454E+02 -0.30362078985E+03  0.33050778915E+03  0.12508641059E+03 0.  0.
          5    1    3    3  502    0 -0.64917582891E+01 -0.20804022647E+02 -0.28282331566E+03  0.28369252821E+03  0.41800000000E+01 0. -1.
         -5    1    3    3    0  502  0.41192634872E+02  0.66953831932E+01 -0.20797474197E+02  0.46815260939E+02  0.41800000000E+01 0. -1.
        -11    1    1    2    0    0 -0.52862888969E+02 -0.12460200244E+02 -0.30647311043E+02  0.62361841654E+02  0.00000000000E+00 0. -1.
         11    1    1    2    0    0  0.18162012386E+02  0.26568839698E+02 -0.74759384686E+02  0.81392429227E+02  0.00000000000E+00 0.  1.
</event>
<event>
 7    1  0.2841804E-009  0.1130565E+03  0.7561462E-02  0.1255012E+00
         -1   -1    0    0    0  501 -0.00000000000E+00  0.00000000000E+00  0.25073487489E+03  0.25073487489E+03  0.00000000000E+00 0.  1.
          1   -1    0    0  501    0  0.00000000000E+00 -0.00000000000E+00 -0.55043588055E+02  0.55043588055E+02  0.00000000000E+00 0. -1.
         25    2    1    2    0    0 -0.29817194924E+02 -0.33659876691E+02  0.10398551478E+03  0.16876922670E+03  0.12509201488E+03 0.  0.
          5    1    3    3  502    0  0.26179720542E+02 -0.60902633420E+02  0.74284294243E+02  0.99650074242E+02  0.41800000000E+01 0. -1.
         -5    1    3    3    0  502 -0.55996915466E+02  0.27242756729E+02  0.29701220533E+02  0.69119152462E+02  0.41800000000E+01 0. -1.
        -11    1    1    2    0    0 -0.28454036612E+02 -0.27183991144E+01  0.10044471018E+02  0.30297083875E+02  0.00000000000E+00 0. -1.
         11    1    1    2    0    0  0.58271231536E+02  0.36378275805E+02  0.81661301042E+02  0.10671215237E+03  0.00000000000E+00 0.  1.
</event>
<event>
 7    1  0.2841804E-009  0.1156507E+03  0.7561462E-02  0.1250450E+00
         -2   -1    0    0    0  501 -0.00000000000E+00  0.00000000000E+00  0.36637659309E+02  0.36637659309E+02  0.00000000000E+00 0.  1.
          2   -1    0    0  501    0  0.00000000000E+00 -0.00000000000E+00 -0.62677610110E+03  0.62677610110E+03  0.00000000000E+00 0. -1.
         25    2    1    2    0    0  0.70638992400E+02  0.78647204914E+02 -0.33498057112E+03  0.37287083943E+03  0.12508169242E+03 0.  0.
          5    1    3    3  502    0  0.36682532311E+02  0.46749241779E+02 -0.34639592147E+02  0.68909168677E+02  0.41800000000E+01 0. -1.
         -5    1    3    3    0  502  0.33956460089E+02  0.31897963135E+02 -0.30034097897E+03  0.30396167075E+03  0.41800000000E+01 0. -1.
        -11    1    1    2    0    0 -0.81010749454E+02 -0.51753336767E+02 -0.23874768213E+03  0.25737444535E+03  0.00000000000E+00 0. -1.
         11    1    1    2    0    0  0.10371757054E+02 -0.26893868147E+02 -0.16410188543E+02  0.33168475640E+02  0.00000000000E+00 0.  1.
</event>
<event>
 7    1  0.2841804E-009  0.7512714E+02  0.7561462E-02  0.1343478E+00
          2   -1    0    0  501    0  0.00000000000E+00  0.00000000000E+00  0.47651095736E+03  0.47651095736E+03  0.00000000000E+00 0. -1.
         -2   -1    0    0    0  501 -0.00000000000E+00 -0.00000000000E+00 -0.36402298862E+02  0.36402298862E+02  0.00000000000E+00 0.  1.
         25    2    1    2    0    0 -0.30758327499E+02 -0.34818440575E+02  0.13424228399E+03  0.18928164277E+03  0.12509256958E+03 0.  0.
          5    1    3    3  502    0  0.50126422116E+01 -0.45864591630E+02  0.14324546237E+03  0.15055039766E+03  0.41800000000E+01 0.  1.
         -5    1    3    3    0  502 -0.35770969710E+02  0.11046151055E+02 -0.90031783725E+01  0.38731245113E+02  0.41800000000E+01 0.  1.
        -11    1    1    2    0    0 -0.12219123942E+02  0.24701465636E+01 -0.59962711684E+00  0.12480711784E+02  0.00000000000E+00 0.  1.
         11    1    1    2    0    0  0.42977451441E+02  0.32348294011E+02  0.30646600162E+03  0.31115090166E+03  0.00000000000E+00 0. -1.
</event>
<event>
 7    1  0.2841804E-009  0.9654546E+02  0.7561462E-02  0.1287733E+00
          3   -1    0    0  501    0  0.00000000000E+00  0.00000000000E+00  0.50654150289E+02  0.50654150289E+02  0.00000000000E+00 0. -1.
         -3   -1    0    0    0  501 -0.00000000000E+00 -0.00000000000E+00 -0.32142018263E+03  0.32142018263E+03  0.00000000000E+00 0.  1.
         25    2    1    2    0    0  0.28906882982E+02  0.41892815346E+01 -0.23370555085E+03  0.26668150881E+03  0.12509030609E+03 0.  0.
          5    1    3    3  502    0 -0.39466470912E+02 -0.17343294694E+02 -0.35931078759E+02  0.56275278923E+02  0.41800000000E+01 0.  1.
         -5    1    3    3    0  502  0.68373353894E+02  0.21532576228E+02 -0.19777447210E+03  0.21040622989E+03  0.41800000000E+01 0.  1.
        -11    1    1    2    0    0 -0.22337313674E+02  0.33198402554E+02  0.13445055465E+02  0.42212072097E+02  0.00000000000E+00 0. -1.
         11    1    1    2    0    0 -0.65695693089E+01 -0.37387684089E+02 -0.50505536953E+02  0.63180752016E+02  0.00000000000E+00 0.  1.
</event>
<event>
 7    1  0.2841804E-009  0.3045211E+03  0.7561462E-02  0.1083002E+00
         -2   -1    0    0    0  501 -0.00000000000E+00  0.00000000000E+00  0.55305365496E+03  0.55305365496E+03  0.00000000000E+00 0.  1.
          2   -1    0    0  501    0  0.00000000000E+00 -0.00000000000E+00 -0.17329212078E+03  0.17329212078E+03  0.00000000000E+00 0. -1.
         25    2    1    2    0    0 -0.19721827210E+02  0.28876317878E+03  0.18524389017E+03  0.36569928138E+03  0.12509013416E+03 0.  0.
          5    1    3    3  502    0  0.43795725555E+02  0.13351574050E+03  0.12282010170E+03  0.18667289123E+03  0.41800000000E+01 0.  1.
         -5    1    3    3    0  502 -0.63517552765E+02  0.15524743828E+03  0.62423788474E+02  0.17902639014E+03  0.41800000000E+01 0.  1.
        -11    1    1    2    0    0 -0.31959309068E+02 -0.11918236702E+03  0.10512791276E+03  0.16210401625E+03  0.00000000000E+00 0. -1.
         11    1    1    2    0    0  0.51681136278E+02 -0.16958081176E+03  0.89389731244E+02  0.19854247812E+03  0.00000000000E+00 0.  1.
</event>
<event>
 7    1  0.2841804E-009  0.1227380E+03  0.7561462E-02  0.1238647E+00
          1   -1    0    0  501    0  0.00000000000E+00  0.00000000000E+00  0.18899245120E+02  0.18899245120E+02  0.00000000000E+00 0. -1.
         -1   -1    0    0    0  501 -0.00000000000E+00 -0.00000000000E+00 -0.12398767888E+04  0.12398767888E+04  0.00000000000E+00 0.  1.
         25    2    1    2    0    0 -0.10344605506E+03  0.26477297692E+02 -0.60103004768E+03  0.62312693152E+03  0.12509165026E+03 0.  0.
          5    1    3    3  502    0 -0.65142111262E+02  0.27484525031E+02 -0.11157487679E+03  0.13215641985E+03  0.41800000000E+01 0.  1.
         -5    1    3    3    0  502 -0.38303943802E+02 -0.10072273386E+01 -0.48945517089E+03  0.49097051167E+03  0.41800000000E+01 0.  1.
        -11    1    1    2    0    0  0.10625340146E+03  0.31939753097E+01 -0.53916068527E+03  0.54954001796E+03  0.00000000000E+00 0.  1.
         11    1    1    2    0    0 -0.28073463947E+01 -0.29671273002E+02 -0.80786810683E+02  0.86109084397E+02  0.00000000000E+00 0. -1.
</event>
<event>
 7    1  0.2841804E-009  0.1297972E+03  0.7561462E-02  0.1227757E+00
          1   -1    0    0  501    0  0.00000000000E+00  0.00000000000E+00  0.88829869685E+02  0.88829869685E+02  0.00000000000E+00 0. -1.
         -1   -1    0    0    0  501 -0.00000000000E+00 -0.00000000000E+00 -0.26444642184E+03  0.26444642184E+03  0.00000000000E+00 0.  1.
         25    2    1    2    0    0 -0.98956046084E+02  0.38815361337E+02 -0.11889746571E+03  0.20265806726E+03  0.12503900808E+03 0.  0.
          5    1    3    3  502    0 -0.94323786790E+00  0.19805450923E+02 -0.98638402251E+02  0.10069832363E+03  0.41800000000E+01 0.  1.
         -5    1    3    3    0  502 -0.98012808216E+02  0.19009910414E+02 -0.20259063454E+02  0.10195974363E+03  0.41800000000E+01 0.  1.
        -11    1    1    2    0    0  0.45640132319E+02 -0.65460778538E+02 -0.29286952858E+02  0.85005063452E+02  0.00000000000E+00 0. -1.
         11    1    1    2    0    0  0.53315913765E+02  0.26645417200E+02 -0.27432133591E+02  0.65613160812E+02  0.00000000000E+00 0.  1.
</event>
<event>
 7    1  0.2841804E-009  0.8291677E+02  0.7561462E-02  0.1320972E+00
          2   -1    0    0  501    0  0.00000000000E+00  0.00000000000E+00  0.63694309277E+02  0.63694309277E+02  0.00000000000E+00 0. -1.
         -2   -1    0    0    0  501 -0.00000000000E+00 -0.00000000000E+00 -0.22665562982E+03  0.22665562982E+03  0.00000000000E+00 0.  1.
         25    2    1    2    0    0 -0.22991121034E+02  0.44995973915E+02 -0.85138675234E+02  0.15953015076E+03  0.12509214869E+03 0.  0.
          5    1    3    3  502    0 -0.28268987935E+02 -0.38457931410E+01  0.25443453049E+02  0.38454746220E+02  0.41800000000E+01 0.  1.
         -5    1    3    3    0  502  0.52778669009E+01  0.48841767056E+02 -0.11058212828E+03  0.12107540454E+03  0.41800000000E+01 0.  1.
        -11    1    1    2    0    0  0.10878784930E+02  0.19361573794E+02  0.73394592634E+01  0.23389873099E+02  0.00000000000E+00 0. -1.
         11    1    1    2    0    0  0.12112336104E+02 -0.64357547709E+02 -0.85162104570E+02  0.10742991524E+03  0.00000000000E+00 0.  1.
</event>
<event>
 7    1  0.2841804E-009  0.1291795E+03  0.7561462E-02  0.1228678E+00
         -2   -1    0    0    0  501 -0.00000000000E+00  0.00000000000E+00  0.38799773183E+03  0.38799773183E+03  0.00000000000E+00 0.  1.
          2   -1    0    0  501    0  0.00000000000E+00 -0.00000000000E+00 -0.45901030222E+02  0.45901030222E+02  0.00000000000E+00 0. -1.
         25    2    1    2    0    0 -0.76409932082E+02 -0.17116638326E+02  0.16855852035E+03  0.22403263356E+03  0.12508872487E+03 0.  0.
          5    1    3    3  502    0  0.31476839090E+02 -0.12683259438E+02  0.17802793776E+02  0.38549556875E+02  0.41800000000E+01 0.  1.
         -5    1    3    3    0  502 -0.10788677117E+03 -0.44333788878E+01  0.15075572657E+03  0.18548307669E+03  0.41800000000E+01 0.  1.
        -11    1    1    2    0    0  0.79951954849E+02 -0.17056954771E+02  0.10382950408E+03  0.13215074993E+03  0.00000000000E+00 0. -1.
         11    1    1    2    0    0 -0.35420227673E+01  0.34173593097E+02  0.69708677177E+02  0.77715378556E+02  0.00000000000E+00 0.  1.
</event>
<event>
 7    1  0.2841804E-009  0.9129147E+02  0.7561462E-02  0.1299754E+00
         -1   -1    0    0    0  501 -0.00000000000E+00  0.00000000000E+00  0.11096180306E+03  0.11096180306E+03  0.00000000000E+00 0.  1.
          1   -1    0    0  501    0  0.00000000000E+00 -0.00000000000E+00 -0.12298684413E+03  0.12298684413E+03  0.00000000000E+00 0. -1.
         25    2    1    2    0    0  0.41790700783E+02 -0.10856222698E+01 -0.19085645392E+02  0.13326729109E+03  0.12509303644E+03 0.  0.
          5    1    3    3  502    0  0.26920683448E+02 -0.35329035084E+02  0.42183519138E+02  0.61398579822E+02  0.41800000000E+01 0.  1.
         -5    1    3    3    0  502  0.14870017335E+02  0.34243412814E+02 -0.61269164530E+02  0.71868711265E+02  0.41800000000E+01 0.  1.
        -11    1    1    2    0    0 -0.61972668131E+02  0.26965300494E+02  0.59002704173E+01  0.67842112416E+02  0.00000000000E+00 0.  1.
         11    1    1    2    0    0  0.20181967348E+02 -0.25879678224E+02  0.11603339020E+01  0.32839243685E+02  0.00000000000E+00 0. -1.
</event>
<event>
 6    1  0.3055836E-009  0.1013450E+03  0.7561462E-02  0.1277493E+00
         -2   -1    0    0    0  501 -0.00000000000E+00  0.00000000000E+00  0.48837967503E+02  0.48837967503E+02  0.00000000000E+00 0.  1.
          2   -1    0    0  501    0  0.00000000000E+00 -0.00000000000E+00 -0.45037005657E+03  0.45037005657E+03  0.00000000000E+00 0. -1.
          5    1    1    2  502    0  0.59570388562E+02 -0.29823702751E+02 -0.66015868648E+02  0.93881051084E+02  0.41800000000E+01 0. -1.
         -5    1    1    2    0  502 -0.37506861536E+02  0.18375649135E+02  0.13299253328E+02  0.44031485127E+02  0.41800000000E+01 0. -1.
        -11    1    1    2    0    0 -0.55875217215E+02 -0.54966654405E+01 -0.21907166269E+03  0.22615182207E+03  0.00000000000E+00 0.  1.
         11    1    1    2    0    0  0.33811690189E+02  0.16944719057E+02 -0.12974381105E+03  0.13514366579E+03  0.00000000000E+00 0. -1.
</event>
<event>
 7    1  0.2841804E-009  0.8204343E+02  0.7561462E-02  0.1323350E+00
         -4   -1    0    0    0  501 -0.00000000000E+00  0.00000000000E+00  0.83969804501E+02  0.83969804501E+02  0.00000000000E+00 0.  1.
          4   -1    0    0  501    0  0.00000000000E+00 -0.00000000000E+00 -0.22472889420E+03  0.22472889420E+03  0.00000000000E+00 0. -1.
         25    2    1    2    0    0  0.70291064169E+02 -0.20120805048E+02 -0.11869984880E+03  0.18730000287E+03  0.12508379781E+03 0.  0.
          5    1    3    3  502    0  0.30328808152E+02 -0.89186340201E+01  0.23175212753E+02  0.39420064978E+02  0.41800000000E+01 0. -1.
         -5    1    3    3    0  502  0.39962256017E+02 -0.11202171027E+02 -0.14187506155E+03  0.14787993789E+03  0.41800000000E+01 0. -1.
        -11    1    1    2    0    0 -0.63887328961E+02  0.36022746224E+02  0.19965297689E+02  0.76012118501E+02  0.00000000000E+00 0.  1.
         11    1    1    2    0    0 -0.64037352087E+01 -0.15901941177E+02 -0.42024538594E+02  0.45386577331E+02  0.00000000000E+00 0. -1.
</event>
<event>
 7    1  0.2841804E-009  0.1372471E+03  0.7561462E-02  0.1217082E+00
         -2   -1    0    0    0  501 -0.00000000000E+00  0.00000000000E+00  0.81720261844E+02  0.81720261844E+02  0.00000000000E+00 0.  1.
          2   -1    0    0  501    0  0.00000000000E+00 -0.00000000000E+00 -0.32920047554E+03  0.32920047554E+03  0.00000000000E+00 0. -1.
         25    2    1    2    0    0  0.10930556313E+03  0.45086719289E+02 -0.52602217164E+02  0.17998293008E+03  0.12508534480E+03 0.  0.
          5    1    3    3  502    0 -0.33132788376E+01 -0.20271487413E+02 -0.44812867241E+02  0.49472987468E+02  0.41800000000E+01 0. -1.
         -5    1    3    3    0  502  0.11261884197E+03  0.65358206702E+02 -0.77893499231E+01  0.13050994262E+03  0.41800000000E+01 0. -1.
        -11    1    1    2    0    0 -0.52490374173E+02 -0.30483159046E+01 -0.71517093231E+02  0.88765005688E+02  0.00000000000E+00 0. -1.
         11    1    1    2    0    0 -0.56815188956E+02 -0.42038403385E+02 -0.12336090330E+03  0.14217280161E+03  0.00000000000E+00 0.  1.
</event>
<event>
 7    1  0.2841804E-009  0.1122785E+03  0.7561462E-02  0.1256408E+00
          2   -1    0    0  501    0  0.00000000000E+00  0.00000000000E+00  0.45438911726E+03  0.45438911726E+03  0.00000000000E+00 0. -1.
         -2   -1    0    0    0  501 -0.00000000000E+00 -0.00000000000E+00 -0.36021650294E+02  0.36021650294E+02  0.00000000000E+00 0.  1.
         25    2    1    2    0    0 -0.23676325078E+02  0.63659266392E+02  0.21919363157E+03  0.26136064727E+03  0.12510183553E+03 0.  0.
          5    1    3    3  502    0  0.43755208842E+02 -0.15781249982E+01  0.10271430965E+03  0.11173500162E+03  0.41800000000E+01 0. -1.
         -5    1    3    3    0  502 -0.67431533921E+02  0.65237391391E+02  0.11647932192E+03  0.14962564565E+03  0.41800000000E+01 0. -1.
        -11    1    1    2    0    0  0.30364460031E+02 -0.91128927768E+01  0.11871547115E+02  0.33852309798E+02  0.00000000000E+00 0.  1.
         11    1    1    2    0    0 -0.66881349527E+01 -0.54546373616E+02  0.18730228828E+03  0.19519781048E+03  0.00000000000E+00 0. -1.
</event>
<event>
 7    1  0.2841804E-009  0.1413188E+03  0.7561462E-02  0.1211565E+00
          1   -1    0    0  501    0  0.00000000000E+00  0.00000000000E+00  0.37333637395E+03  0.37333637395E+03  0.00000000000E+00 0. -1.
         -1   -1    0    0    0  501 -0.00000000000E+00 -0.00000000000E+00 -0.72446576195E+02  0.72446576195E+02  0.00000000000E+00 0.  1.
         25    2    1    2    0    0  0.83566791649E+01 -0.11714573039E+03  0.10906647388E+03  0.20330770154E+03  0.12508225112E+03 0.  0.
          5    1    3    3  502    0  0.43518963382E+01  0.20517274090E+02 -0.76697091875E+01  0.22719911462E+02  0.41800000000E+01 0.  1.
         -5    1    3    3    0  502  0.40047828267E+01 -0.13766300448E+03  0.11673618307E+03  0.18058779008E+03  0.41800000000E+01 0.  1.
        -11    1    1    2    0    0  0.15321008938E+02  0.45901622177E+02  0.15465159268E+02  0.50802198619E+02  0.00000000000E+00 0.  1.
         11    1    1    2    0    0 -0.23677688103E+02  0.71244108211E+02  0.17635816461E+03  0.19167304999E+03  0.00000000000E+00 0. -1.
</event>
<event>
 7    1  0.2841804E-009  0.1194410E+03  0.7561462E-02  0.1244022E+00
          3   -1    0    0  501    0  0.00000000000E+00  0.00000000000E+00  0.13119363533E+02  0.13119363533E+02  0.00000000000E+00 0. -1.
         -3   -1    0    0    0  501 -0.00000000000E+00 -0.00000000000E+00 -0.11663882859E+04  0.11663882859E+04  0.00000000000E+00 0.  1.
         25    2    1    2    0    0 -0.37267903145E+02 -0.36220227494E+02 -0.77789876168E+03  0.78960415506E+03  0.12508971493E+03 0.  0.
          5    1    3    3  502    0 -0.61036576170E+02 -0.70557807612E+02 -0.55033609768E+03  0.55820351186E+03  0.41800000000E+01 0. -1.
         -5    1    3    3    0  502  0.23768673025E+02  0.34337580118E+02 -0.22756266400E+03  0.23140064320E+03  0.41800000000E+01 0. -1.
        -11    1    1    2    0    0  0.58419321095E+02 -0.34987881857E+01 -0.17442614256E+03  0.18398243885E+03  0.00000000000E+00 0. -1.
         11    1    1    2    0    0 -0.21151417949E+02  0.39719015680E+02 -0.20094401817E+03  0.20592105557E+03  0.00000000000E+00 0.  1.
</event>
<event>
 7    1  0.2841804E-009  0.1959315E+03  0.7561462E-02  0.1153218E+00
         -2   -1    0    0    0  501 -0.00000000000E+00  0.00000000000E+00  0.54176046465E+02  0.54176046465E+02  0.00000000000E+00 0. -1.
          2   -1    0    0  501    0  0.00000000000E+00 -0.00000000000E+00 -0.79155696104E+03  0.79155696104E+03  0.00000000000E+00 0.  1.
         25    2    1    2    0    0  0.11960128999E+03  0.11037349559E+03 -0.50844682421E+03  0.54831798354E+03  0.12509061087E+03 0.  0.
          5    1    3    3  502    0  0.42731427622E+02  0.12019012821E+03 -0.32079780257E+03  0.34525402874E+03  0.41800000000E+01 0.  1.
         -5    1    3    3    0  502  0.76869862373E+02 -0.98166326260E+01 -0.18764902164E+03  0.20306395480E+03  0.41800000000E+01 0.  1.
        -11    1    1    2    0    0 -0.16876634615E+01  0.14664183517E+02 -0.60256247646E+01  0.15943482681E+02  0.00000000000E+00 0.  1.
         11    1    1    2    0    0 -0.11791362653E+03 -0.12503767910E+03 -0.22290846561E+03  0.28147154129E+03  0.00000000000E+00 0. -1.
</event>
<event>
 7    1  0.2841804E-009  0.1661757E+03  0.7561462E-02  0.1181896E+00
          2   -1    0    0  501    0  0.00000000000E+00  0.00000000000E+00  0.15931290114E+03  0.15931290114E+03  0.00000000000E+00 0. -1.
         -2   -1    0    0    0  501 -0.00000000000E+00 -0.00000000000E+00 -0.31967396977E+03  0.31967396977E+03  0.00000000000E+00 0.  1.
         25    2    1    2    0    0 -0.61203408360E+02  0.15103055461E+03 -0.20024048910E+03  0.28687688816E+03  0.12508401122E+03 0.  0.
          5    1    3    3  502    0 -0.12858103302E+02  0.46057628155E+01 -0.10418246494E+03  0.10515703624E+03  0.41800000000E+01 0. -1.
         -5    1    3    3    0  502 -0.48345305058E+02  0.14642479180E+03 -0.96058024169E+02  0.18171985192E+03  0.41800000000E+01 0. -1.
        -11    1    1    2    0    0  0.42632303252E+02 -0.83223038574E+02  0.68798657889E+02  0.11608980471E+03  0.00000000000E+00 0.  1.
         11    1    1    2    0    0  0.18571105108E+02 -0.67807516039E+02 -0.28919237416E+02  0.76020178038E+02  0.00000000000E+00 0. -1.
</event>
<event>
 7    1  0.2841804E-009  0.2681898E+03  0.7561462E-02  0.1102320E+00
          2   -1    0    0  501    0  0.00000000000E+00  0.00000000000E+00  0.11079833147E+04  0.11079833147E+04  0.00000000000E+00 0. -1.
         -2   -1    0    0    0  501 -0.00000000000E+00 -0.00000000000E+00 -0.66299049588E+02  0.66299049588E+02  0.00000000000E+00 0.  1.
         25    2    1    2    0    0  0.15282092010E+03 -0.19441590101E+03  0.49494437773E+03  0.56724689567E+03  0.12508927777E+03 0.  0.
          5    1    3    3  502    0  0.15685285946E+02 -0.11075188168E+03  0.15455263980E+03  0.19082976277E+03  0.41800000000E+01 0. -1.
         -5    1    3    3    0  502  0.13713563416E+03 -0.83664019331E+02  0.34039173793E+03  0.37641713290E+03  0.41800000000E+01 0. -1.
        -11    1    1    2    0    0 -0.13024005086E+02  0.85619850050E+02  0.18182870844E+03  0.20140025483E+03  0.00000000000E+00 0. -1.
         11    1    1    2    0    0 -0.13979691502E+03  0.10879605096E+03  0.36491117895E+03  0.40563521380E+03  0.00000000000E+00 0.  1.
</event>
<event>
 7    1  0.2841804E-009  0.1167891E+03  0.7561462E-02  0.1248490E+00
         -1   -1    0    0    0  501 -0.00000000000E+00  0.00000000000E+00  0.22447129253E+03  0.22447129253E+03  0.00000000000E+00 0.  1.
          1   -1    0    0  501    0  0.00000000000E+00 -0.00000000000E+00 -0.71944506227E+02  0.71944506227E+02  0.00000000000E+00 0. -1.
         25    2    1    2    0    0 -0.61660829804E+02  0.18151546411E+02  0.70185900912E+02  0.15717967690E+03  0.12509138090E+03 0.  0.
          5    1    3    3  502    0  0.36608463786E+02 -0.56140148600E+01  0.31666618878E+02  0.48907503870E+02  0.41800000000E+01 0.  1.
         -5    1    3    3    0  502 -0.98269293590E+02  0.23765561271E+02  0.38519282034E+02  0.10827217303E+03  0.41800000000E+01 0.  1.
        -11    1    1    2    0    0 -0.85745271172E+01  0.15134330606E+02  0.53628042600E+02  0.56378519237E+02  0.00000000000E+00 0.  1.
         11    1    1    2    0    0  0.70235356921E+02 -0.33285877018E+02  0.28712842796E+02  0.82857602621E+02  0.00000000000E+00 0. -1.
</event>
<event>
 7    1  0.2841804E-009  0.1403371E+03  0.7561462E-02  0.1212876E+00
          1   -1    0    0  501    0  0.00000000000E+00  0.00000000000E+00  0.45953958630E+03  0.45953958630E+03  0.00000000000E+00 0. -1.
         -1   -1    0    0    0  501 -0.00000000000E+00 -0.00000000000E+00 -0.44650477694E+02  0.44650477694E+02  0.00000000000E+00 0.  1.
         25    2    1    2    0    0 -0.79402529606E+02  0.51309723988E+02  0.24773310220E+03  0.29318349985E+03  0.12508966854E+03 0.  0.
          5    1    3    3  502    0 -0.10552902787E+03  0.92088891477E+01  0.15216235064E+03  0.18545089030E+03  0.41800000000E+01 0.  1.
         -5    1    3    3    0  502  0.26126498262E+02  0.42100834841E+02  0.95570751565E+02  0.10773260955E+03  0.41800000000E+01 0.  1.
        -11    1    1    2    0    0  0.46830548790E+02  0.16546840594E+02  0.42406193148E+02  0.65308371983E+02  0.00000000000E+00 0.  1.
         11    1    1    2    0    0  0.32571980815E+02 -0.67856564583E+02  0.12474981325E+03  0.14569819216E+03  0.00000000000E+00 0. -1.
</event>
<event>
 7    1  0.2841804E-009  0.3262486E+03  0.7561462E-02  0.1072809E+00
          2   -1    0    0  501    0  0.00000000000E+00  0.00000000000E+00  0.83093581058E+02  0.83093581058E+02  0.00000000000E+00 0. -1.
         -2   -1    0    0    0  501 -0.00000000000E+00 -0.00000000000E+00 -0.13353957372E+04  0.13353957372E+04  0.00000000000E+00 0.  1.
         25    2    1    2    0    0  0.20209551174E+03  0.23503665277E+03 -0.51923697625E+03  0.61752707461E+03  0.12509127211E+03 0.  0.
          5    1    3    3  502    0  0.20288136162E+02  0.11296348446E+03 -0.19295377195E+03  0.22454618189E+03  0.41800000000E+01 0.  1.
         -5    1    3    3    0  502  0.18180737558E+03  0.12207316831E+03 -0.32628320430E+03  0.39298089272E+03  0.41800000000E+01 0.  1.
        -11    1    1    2    0    0 -0.17155211442E+03 -0.14865142169E+03 -0.57615023000E+03  0.61925476233E+03  0.00000000000E+00 0.  1.
         11    1    1    2    0    0 -0.30543397324E+02 -0.86385231078E+02 -0.15691494986E+03  0.18170748129E+03  0.00000000000E+00 0. -1.
</event>
<event>
 7    1  0.2841804E-009  0.1308088E+03  0.7561462E-02  0.1226261E+00
          1   -1    0    0  501    0  0.00000000000E+00  0.00000000000E+00  0.72649030843E+02  0.72649030843E+02  0.00000000000E+00 0. -1.
         -1   -1    0    0    0  501 -0.00000000000E+00 -0.00000000000E+00 -0.37353827879E+03  0.37353827879E+03  0.00000000000E+00 0.  1.
         25    2    1    2    0    0 -0.96888048104E+02  0.12066001333E+00 -0.26596953809E+03  0.30947483887E+03  0.12509025654E+03 0.  0.
          5    1    3    3  502    0  0.24362471429E+02  0.23491566794E+02 -0.68900562946E+02  0.76877458978E+02  0.41800000000E+01 0.  1.
         -5    1    3    3    0  502 -0.12125051953E+03 -0.23370906781E+02 -0.19706897514E+03  0.23259737990E+03  0.41800000000E+01 0.  1.
        -11    1    1    2    0    0  0.87327875048E+02 -0.12612032529E+02 -0.60287571773E+02  0.10686352247E+03  0.00000000000E+00 0.  1.
         11    1    1    2    0    0  0.95601730563E+01  0.12491372515E+02  0.25367861910E+02  0.29848948291E+02  0.00000000000E+00 0. -1.
</event>
<event>
 7    1  0.2841804E-009  0.1008296E+03  0.7561462E-02  0.1278561E+00
         -2   -1    0    0    0  501 -0.00000000000E+00  0.00000000000E+00  0.80278825070E+01  0.80278825070E+01  0.00000000000E+00 0.  1.
          2   -1    0    0  501    0  0.00000000000E+00 -0.00000000000E+00 -0.36881244486E+04  0.36881244486E+04  0.00000000000E+00 0. -1.
         25    2    1    2    0    0  0.57827961946E+02  0.24964963933E+02 -0.32203006844E+04  0.32233449388E+04  0.12509506096E+03 0.  0.
          5    1    3    3  502    0  0.18216511310E+02 -0.22692351514E+02 -0.25507885662E+04  0.25509579702E+04  0.41800000000E+01 0. -1.
         -5    1    3    3    0  502  0.39611450636E+02  0.47657315447E+02 -0.66951211819E+03  0.67238696860E+03  0.41800000000E+01 0. -1.
        -11    1    1    2    0    0 -0.82309107027E+02 -0.23623647559E+02 -0.35521167029E+03  0.36538773452E+03  0.00000000000E+00 0.  1.
         11    1    1    2    0    0  0.24481145081E+02 -0.13413163740E+01 -0.10458421142E+03  0.10741965776E+03  0.00000000000E+00 0. -1.
</event>
<event>
 7    1  0.2841804E-009  0.8104972E+02  0.7561462E-02  0.1326099E+00
          2   -1    0    0  501    0  0.00000000000E+00  0.00000000000E+00  0.98500218716E+02  0.98500218716E+02  0.00000000000E+00 0. -1.
         -2   -1    0    0    0  501 -0.00000000000E+00 -0.00000000000E+00 -0.20442477990E+03  0.20442477990E+03  0.00000000000E+00 0.  1.
         25    2    1    2    0    0 -0.36143295764E+02  0.57899954082E+02  0.72087464515E+01  0.14267997817E+03  0.12508743995E+03 0.  0.
          5    1    3    3  502    0 -0.43152704269E+02  0.62502528766E+02  0.55070793432E+02  0.93909459998E+02  0.41800000000E+01 0. -1.
         -5    1    3    3    0  502  0.70094085048E+01 -0.46025746844E+01 -0.47862046981E+02  0.48770518169E+02  0.41800000000E+01 0. -1.
        -11    1    1    2    0    0  0.16073490461E+02 -0.74962638068E+00  0.12761092863E+02  0.20536906447E+02  0.00000000000E+00 0.  1.
         11    1    1    2    0    0  0.20069805303E+02 -0.57150327701E+02 -0.12589440050E+03  0.13970811400E+03  0.00000000000E+00 0. -1.
</event>
<event>
 7    1  0.2841804E-009  0.1303583E+03  0.7561462E-02  0.1226925E+00
         -1   -1    0    0    0  501 -0.00000000000E+00  0.00000000000E+00  0.27318180522E+03  0.27318180522E+03  0.00000000000E+00 0.  1.
          1   -1    0    0  501    0  0.00000000000E+00 -0.00000000000E+00 -0.10461029483E+03  0.10461029483E+03  0.00000000000E+00 0. -1.
         25    2    1    2    0    0 -0.10365727128E+03  0.36558797642E+02  0.16602503874E+03  0.23514570693E+03  0.12509122442E+03 0.  0.
          5    1    3    3  502    0 -0.47427768716E+02  0.39804454650E+02  0.24631324329E+01  0.62107385042E+02  0.41800000000E+01 0.  1.
         -5    1    3    3    0  502 -0.56229502565E+02 -0.32456570083E+01  0.16356190631E+03  0.17303832189E+03  0.41800000000E+01 0.  1.
        -11    1    1    2    0    0  0.78935696110E+02  0.19156062663E+02 -0.41098714783E+01  0.81330743883E+02  0.00000000000E+00 0. -1.
         11    1    1    2    0    0  0.24721575171E+02 -0.55714860304E+02  0.66563431295E+01  0.61315649238E+02  0.00000000000E+00 0.  1.
</event>
<event>
 7    1  0.2841804E-009  0.8183060E+02  0.7561462E-02  0.1323935E+00
         -2   -1    0    0    0  501 -0.00000000000E+00  0.00000000000E+00  0.20342699966E+02  0.20342699966E+02  0.00000000000E+00 0.  1.
          2   -1    0    0  501    0  0.00000000000E+00 -0.00000000000E+00 -0.61381048086E+03  0.61381048086E+03  0.00000000000E+00 0. -1.
         25    2    1    2    0    0  0.19059250813E+01  0.28067016402E+02 -0.37252366572E+03  0.39397247618E+03  0.12509612507E+03 0.  0.
          5    1    3    3  502    0  0.11460092442E+02  0.50086487490E+02 -0.36478406847E+03  0.36840857612E+03  0.41800000000E+01 0.  1.
         -5    1    3    3    0  502 -0.95541673604E+01 -0.22019471088E+02 -0.77395972505E+01  0.25563900065E+02  0.41800000000E+01 0.  1.
        -11    1    1    2    0    0  0.33083907787E+02 -0.38949002794E+02 -0.16939030560E+03  0.17693118834E+03  0.00000000000E+00 0. -1.
         11    1    1    2    0    0 -0.34989832868E+02  0.10881986392E+02 -0.51553809564E+02  0.63249516302E+02  0.00000000000E+00 0.  1.
</event>
<event>
 7    1  0.2841804E-009  0.1060150E+03  0.7561462E-02  0.1268133E+00
         -2   -1    0    0    0  501 -0.00000000000E+00  0.00000000000E+00  0.46319619851E+02  0.46319619851E+02  0.00000000000E+00 0.  1.
          2   -1    0    0  501    0  0.00000000000E+00 -0.00000000000E+00 -0.26070178389E+03  0.26070178389E+03  0.00000000000E+00 0. -1.
         25    2    1    2    0    0  0.15806878098E+02  0.56983397037E+00 -0.11730333166E+03  0.17221704017E+03  0.12509378562E+03 0.  0.
          5    1    3    3  502    0 -0.15993721213E+02 -0.56861224944E+02 -0.44322229707E+02  0.73965738464E+02  0.41800000000E+01 0. -1.
         -5    1    3    3    0  502  0.31800599311E+02  0.57431058914E+02 -0.72981101949E+02  0.98251301702E+02  0.41800000000E+01 0. -1.
        -11    1    1    2    0    0  0.35604321613E+02  0.60344566807E+00 -0.65227900632E+02  0.74314943888E+02  0.00000000000E+00 0.  1.
         11    1    1    2    0    0 -0.51411199711E+02 -0.11732796384E+01 -0.31850931756E+02  0.60489419691E+02  0.00000000000E+00 0. -1.
</event>
<event>
 7    1  0.2841804E-009  0.1180985E+03  0.7561462E-02  0.1246267E+00
          1   -1    0    0  501    0  0.00000000000E+00  0.00000000000E+00  0.29165687134E+03  0.29165687134E+03  0.00000000000E+00 0. -1.
         -1   -1    0    0    0  501 -0.00000000000E+00 -0.00000000000E+00 -0.78630561618E+02  0.78630561618E+02  0.00000000000E+00 0.  1.
         25    2    1    2    0    0 -0.33298469729E+02 -0.43681764854E+02  0.22510078970E+03  0.26334053558E+03  0.12514386716E+03 0.  0.
          5    1    3    3  502    0 -0.80547969811E+02 -0.33820902081E+02  0.15777725349E+03  0.18039668228E+03  0.41800000000E+01 0.  1.
         -5    1    3    3    0  502  0.47249500082E+02 -0.98608627728E+01  0.67323536212E+02  0.82943853303E+02  0.41800000000E+01 0.  1.
        -11    1    1    2    0    0 -0.27259482609E+02  0.32013460706E+01 -0.19586406176E+02  0.33718768003E+02  0.00000000000E+00 0.  1.
         11    1    1    2    0    0  0.60557952337E+02  0.40480418783E+02  0.75119261927E+01  0.73228129371E+02  0.00000000000E+00 0. -1.
</event>
<event>
 7    1  0.2841804E-009  0.1074669E+03  0.7561462E-02  0.1265334E+00
         -1   -1    0    0    0  501 -0.00000000000E+00  0.00000000000E+00  0.23985959739E+03  0.23985959739E+03  0.00000000000E+00 0.  1.
          1   -1    0    0  501    0  0.00000000000E+00 -0.00000000000E+00 -0.83911351985E+02  0.83911351985E+02  0.00000000000E+00 0. -1.
         25    2    1    2    0    0 -0.23575025569E+02  0.88050794595E+02  0.95195406441E+02  0.18170003626E+03  0.12507603091E+03 0.  0.
          5    1    3    3  502    0  0.27795554897E+01  0.42343396855E+02  0.11694720989E+03  0.12447815666E+03  0.41800000000E+01 0.  1.
         -5    1    3    3    0  502 -0.26354581059E+02  0.45707397740E+02 -0.21751803447E+02  0.57221879593E+02  0.41800000000E+01 0.  1.
        -11    1    1    2    0    0  0.51650951628E+02 -0.48406886533E+02  0.94483959310E+01  0.71416522273E+02  0.00000000000E+00 0. -1.
         11    1    1    2    0    0 -0.28075926059E+02 -0.39643908062E+02  0.51304443030E+02  0.70654390841E+02  0.00000000000E+00 0.  1.
</event>
<event>
 7    1  0.2841804E-009  0.1352787E+03  0.7561462E-02  0.1219827E+00
          2   -1    0    0  501    0  0.00000000000E+00  0.00000000000E+00  0.27555761354E+03  0.27555761354E+03  0.00000000000E+00 0. -1.
         -2   -1    0    0    0  501 -0.00000000000E+00 -0.00000000000E+00 -0.78426472210E+02  0.78426472210E+02  0.00000000000E+00 0.  1.
         25    2    1    2    0    0 -0.21803322442E+02  0.96278865047E+02  0.10081898479E+03  0.18856182025E+03  0.12508432210E+03 0.  0.
          5    1    3    3  502    0  0.67342955572E+01  0.12085723788E+03  0.71472448936E+02  0.14063287681E+03  0.41800000000E+01 0.  1.
         -5    1    3    3    0  502 -0.28537617999E+02 -0.24578372829E+02  0.29346535854E+02  0.47928943434E+02  0.41800000000E+01 0.  1.
        -11    1    1    2    0    0 -0.16620864897E+02 -0.40849926469E+02 -0.42838032038E+01  0.44309373865E+02  0.00000000000E+00 0.  1.
         11    1    1    2    0    0  0.38424187339E+02 -0.55428938578E+02  0.10059595974E+03  0.12111289164E+03  0.00000000000E+00 0. -1.
</event>
<event>
 7    1  0.2841804E-009  0.8934784E+02  0.7561462E-02  0.1304439E+00
          1   -1    0    0  501    0  0.00000000000E+00  0.00000000000E+00  0.12742106763E+04  0.12742106763E+04  0.00000000000E+00 0. -1.
         -1   -1    0    0    0  501 -0.00000000000E+00 -0.00000000000E+00 -0.11216804525E+02  0.11216804525E+02  0.00000000000E+00 0.  1.
         25    2    1    2    0    0  0.74690253523E+00 -0.93198759732E+01  0.10151941909E+04  0.10229144570E+04  0.12508926057E+03 0.  0.
          5    1    3    3  502    0 -0.46337914005E+01 -0.50350100154E+02  0.88013396545E+03  0.88159507380E+03  0.41800000000E+01 0. -1.
         -5    1    3    3    0  502  0.53806939357E+01  0.41030224181E+02  0.13506022542E+03  0.14131938315E+03  0.41800000000E+01 0. -1.
        -11    1    1    2    0    0  0.21492822631E+02 -0.32522457620E+02  0.12247077787E+03  0.12852526252E+03  0.00000000000E+00 0.  1.
         11    1    1    2    0    0 -0.22239725166E+02  0.41842333593E+02  0.12532890300E+03  0.13398776132E+03  0.00000000000E+00 0. -1.
</event>
<event>
 7    1  0.2841804E-009  0.1090939E+03  0.7561462E-02  0.1262257E+00
          1   -1    0    0  501    0  0.00000000000E+00  0.00000000000E+00  0.29399669242E+03  0.29399669242E+03  0.00000000000E+00 0. -1.
         -1   -1    0    0    0  501 -0.00000000000E+00 -0.00000000000E+00 -0.56708847745E+02  0.56708847745E+02  0.00000000000E+00 0.  1.
         25    2    1    2    0    0 -0.33650183960E+02  0.44562755098E+02  0.75343723091E+02  0.15634075883E+03  0.12509029634E+03 0.  0.
          5    1    3    3  502    0 -0.54321959261E+02 -0.14944495931E+02 -0.19638076165E+01  0.56529126625E+02  0.41800000000E+01 0. -1.
         -5    1    3    3    0  502  0.20671775301E+02  0.59507251029E+02  0.77307530708E+02  0.99811632204E+02  0.41800000000E+01 0. -1.
        -11    1    1    2    0    0 -0.22325796754E+02  0.60099861519E+01  0.10966991537E+02  0.25589764313E+02  0.00000000000E+00 0. -1.
         11    1    1    2    0    0  0.55975980713E+02 -0.50572741249E+02  0.15097713004E+03  0.16877501702E+03  0.00000000000E+00 0.  1.
</event>
<event>
 7    1  0.2841804E-009  0.1563570E+03  0.7561462E-02  0.1192872E+00
         -1   -1    0    0    0  501 -0.00000000000E+00  0.00000000000E+00  0.76107745659E+02  0.76107745659E+02  0.00000000000E+00 0.  1.
          1   -1    0    0  501    0  0.00000000000E+00 -0.00000000000E+00 -0.40677055245E+03  0.40677055245E+03  0.00000000000E+00 0. -1.
         25    2    1    2    0    0  0.12953961974E+03  0.37494963508E+02 -0.13891693574E+03  0.23050432114E+03  0.12509173297E+03 0.  0.
          5    1    3    3  502    0  0.14602966281E+03  0.14125341802E+02 -0.85741271061E+02  0.16998007432E+03  0.41800000000E+01 0.  1.
         -5    1    3    3    0  502 -0.16490043073E+02  0.23369621706E+02 -0.53175664682E+02  0.60524246824E+02  0.41800000000E+01 0.  1.
        -11    1    1    2    0    0 -0.44057385735E+02 -0.94039502708E+00 -0.57555907337E+01  0.44441696697E+02  0.00000000000E+00 0.  1.
         11    1    1    2    0    0 -0.85482234004E+02 -0.36554568481E+02 -0.18599028032E+03  0.20793228027E+03  0.00000000000E+00 0. -1.
</event>
<event>
 7    1  0.2841804E-009  0.1171271E+03  0.7561462E-02  0.1247913E+00
         -1   -1    0    0    0  501 -0.00000000000E+00  0.00000000000E+00  0.88991122742E+02  0.88991122742E+02  0.00000000000E+00 0.  1.
          1   -1    0    0  501    0  0.00000000000E+00 -0.00000000000E+00 -0.17950006852E+03  0.17950006852E+03  0.00000000000E+00 0. -1.
         25    2    1    2    0    0 -0.15768844946E+02 -0.48107753033E+02 -0.93666518444E+02  0.16427726478E+03  0.12510232082E+03 0.  0.
          5    1    3    3  502    0  0.21823735789E+02 -0.78629327862E+02 -0.37212235954E+02  0.89783459214E+02  0.41800000000E+01 0.  1.
         -5    1    3    3    0  502 -0.37592580735E+02  0.30521574829E+02 -0.56454282491E+02  0.74493805567E+02  0.41800000000E+01 0.  1.
        -11    1    1    2    0    0 -0.34110006485E+02 -0.75442860226E+00 -0.21666503837E+01  0.34187074733E+02  0.00000000000E+00 0.  1.
         11    1    1    2    0    0  0.49878851431E+02  0.48862181635E+02  0.53242230520E+01  0.70026851745E+02  0.00000000000E+00 0. -1.
</event>
<event>
 7    1  0.2841804E-009  0.1177524E+03  0.7561462E-02  0.1246852E+00
          2   -1    0    0  501    0  0.00000000000E+00  0.00000000000E+00  0.15877966504E+03  0.15877966504E+03  0.00000000000E+00 0.  1.
         -2   -1    0    0    0  501 -0.00000000000E+00 -0.00000000000E+00 -0.12611934617E+03  0.12611934617E+03  0.00000000000E+00 0. -1.
         25    2    1    2    0    0  0.71741582098E+02 -0.16582114610E+02 -0.30547817838E+02  0.14832898854E+03  0.12508596460E+03 0.  0.
          5    1    3    3  502    0  0.81697590863E+02 -0.43986514729E+02 -0.56801215816E+02  0.10887222028E+03  0.41800000000E+01 0. -1.
         -5    1    3    3    0  502 -0.99560087650E+01  0.27404400119E+02  0.26253397977E+02  0.39456768263E+02  0.41800000000E+01 0. -1.
        -11    1    1    2    0    0 -0.42528905154E+02 -0.34206702708E+02  0.63853398975E+01  0.54950694712E+02  0.00000000000E+00 0. -1.
         11    1    1    2    0    0 -0.29212676943E+02  0.50788817318E+02  0.56822796804E+02  0.81619327952E+02  0.00000000000E+00 0.  1.
</event>
<event>
 7    1  0.2841804E-009  0.1106643E+03  0.7561462E-02  0.1259345E+00
         -2   -1    0    0    0  501 -0.00000000000E+00  0.00000000000E+00  0.40940983496E+03  0.40940983496E+03  0.00000000000E+00 0.  1.
          2   -1    0    0  501    0  0.00000000000E+00 -0.00000000000E+00 -0.57214966064E+02  0.57214966064E+02  0.00000000000E+00 0. -1.
         25    2    1    2    0    0 -0.15028795507E+02 -0.33906278023E+02  0.34612170086E+03  0.36989836829E+03  0.12509624563E+03 0.  0.
          5    1    3    3  502    0 -0.11042893526E+02 -0.79953041424E+02  0.25713960131E+03  0.26954161328E+03  0.41800000000E+01 0. -1.
         -5    1    3    3    0  502 -0.39859019809E+01  0.46046763401E+02  0.88982099556E+02  0.10035675501E+03  0.41800000000E+01 0. -1.
        -11    1    1    2    0    0  0.46889667667E+02  0.40034967000E+02  0.14219762522E+02  0.63274332575E+02  0.00000000000E+00 0. -1.
         11    1    1    2    0    0 -0.31860872160E+02 -0.61286889768E+01 -0.81465944893E+01  0.33452100160E+02  0.00000000000E+00 0.  1.
</event>
<event>
 7    1  0.2841804E-009  0.1110008E+03  0.7561462E-02  0.1258728E+00
         -4   -1    0    0    0  501 -0.00000000000E+00  0.00000000000E+00  0.84062982309E+02  0.84062982309E+02  0.00000000000E+00 0.  1.
          4   -1    0    0  501    0  0.00000000000E+00 -0.00000000000E+00 -0.20879454655E+03  0.20879454655E+03  0.00000000000E+00 0. -1.
         25    2    1    2    0    0  0.49261943702E+02  0.57439934945E+02 -0.84355943118E+02  0.16878832293E+03  0.12508991803E+03 0.  0.
          5    1    3    3  502    0 -0.12758186512E+02 -0.79914465734E+01  0.23458580281E+02  0.28185314088E+02  0.41800000000E+01 0. -1.
         -5    1    3    3    0  502  0.62020130215E+02  0.65431381519E+02 -0.10781452340E+03  0.14060300884E+03  0.41800000000E+01 0. -1.
        -11    1    1    2    0    0 -0.58425879878E+02 -0.47336400010E+00 -0.11502571276E+02  0.59549279248E+02  0.00000000000E+00 0.  1.
         11    1    1    2    0    0  0.91639361762E+01 -0.56966570945E+02 -0.28873049846E+02  0.64519926681E+02  0.00000000000E+00 0. -1.
</event>
<event>
 7    1  0.2841804E-009  0.1184043E+03  0.7561462E-02  0.1245753E+00
         -1   -1    0    0    0  501 -0.00000000000E+00  0.00000000000E+00  0.49151038389E+02  0.49151038389E+02  0.00000000000E+00 0.  1.
          1   -1    0    0  501    0  0.00000000000E+00 -0.00000000000E+00 -0.67337573573E+03  0.67337573573E+03  0.00000000000E+00 0. -1.
         25    2    1    2    0    0 -0.54606349032E+02  0.85637501141E+02 -0.12649795772E+03  0.20485315226E+03  0.12508975069E+03 0.  0.
          5    1    3    3  502    0 -0.57794274279E+02  0.91263412239E+02 -0.35872606226E+02  0.11390129424E+03  0.41800000000E+01 0.  1.
         -5    1    3    3    0  502  0.31879252473E+01 -0.56259110977E+01 -0.90625351492E+02  0.90951858014E+02  0.41800000000E+01 0.  1.
        -11    1    1    2    0    0  0.50922888638E+02 -0.19134546689E+02 -0.94969519888E+02  0.10944624787E+03  0.00000000000E+00 0.  1.
         11    1    1    2    0    0  0.36834603943E+01 -0.66502954452E+02 -0.40275721974E+03  0.40822737400E+03  0.00000000000E+00 0. -1.
</event>
<event>
 7    1  0.2841804E-009  0.1322653E+03  0.7561462E-02  0.1224133E+00
          1   -1    0    0  501    0  0.00000000000E+00  0.00000000000E+00  0.16998797091E+03  0.16998797091E+03  0.00000000000E+00 0. -1.
         -1   -1    0    0    0  501 -0.00000000000E+00 -0.00000000000E+00 -0.13255974056E+03  0.13255974056E+03  0.00000000000E+00 0.  1.
         25    2    1    2    0    0 -0.23104190625E+02  0.99167361816E+02  0.70922076097E+00  0.16129626740E+03  0.12509202057E+03 0.  0.
          5    1    3    3  502    0 -0.14678738119E+02 -0.24001107593E+02 -0.21671456180E+02  0.35758117001E+02  0.41800000000E+01 0.  1.
         -5    1    3    3    0  502 -0.84254525065E+01  0.12316846941E+03  0.22380676941E+02  0.12553815040E+03  0.41800000000E+01 0.  1.
        -11    1    1    2    0    0  0.49667828311E+01 -0.93394874721E+02 -0.67780853619E+01  0.93772138703E+02  0.00000000000E+00 0.  1.
         11    1    1    2    0    0  0.18137407794E+02 -0.57724870948E+01  0.43497094946E+02  0.47479305360E+02  0.00000000000E+00 0. -1.
</event>
<event>
 7    1  0.2841804E-009  0.9450089E+02  0.7561462E-02  0.1292304E+00
          2   -1    0    0  501    0  0.00000000000E+00  0.00000000000E+00  0.21717730076E+03  0.21717730076E+03  0.00000000000E+00 0. -1.
         -2   -1    0    0    0  501 -0.00000000000E+00 -0.00000000000E+00 -0.82853972667E+02  0.82853972667E+02  0.00000000000E+00 0.  1.
         25    2    1    2    0    0 -0.32979870701E+02 -0.29316518841E+02  0.31489730026E+01  0.13267766893E+03  0.12508524154E+03 0.  0.
          5    1    3    3  502    0  0.27664641902E+02 -0.20106222613E+02 -0.43507033519E+02  0.55497089698E+02  0.41800000000E+01 0. -1.
         -5    1    3    3    0  502 -0.60644512603E+02 -0.92102962287E+01  0.46656006521E+02  0.77180579228E+02  0.41800000000E+01 0. -1.
        -11    1    1    2    0    0  0.52204928908E+01  0.55000165055E+02  0.11215029561E+03  0.12501984045E+03  0.00000000000E+00 0. -1.
         11    1    1    2    0    0  0.27759377810E+02 -0.25683646213E+02  0.19024059481E+02  0.42333764047E+02  0.00000000000E+00 0.  1.
</event>
<event>
 7    1  0.2841804E-009  0.8906240E+02  0.7561462E-02  0.1305138E+00
         -2   -1    0    0    0  501 -0.00000000000E+00  0.00000000000E+00  0.59885485454E+02  0.59885485454E+02  0.00000000000E+00 0.  1.
          2   -1    0    0  501    0  0.00000000000E+00 -0.00000000000E+00 -0.20169791136E+03  0.20169791136E+03  0.00000000000E+00 0. -1.
         25    2    1    2    0    0  0.20157172608E+01 -0.71883872981E+01 -0.66990537734E+02  0.14209391675E+03  0.12508882046E+03 0.  0.
          5    1    3    3  502    0 -0.25255998328E+02  0.29707024372E+02  0.19727359669E+02  0.43897766094E+02  0.41800000000E+01 0. -1.
         -5    1    3    3    0  502  0.27271715589E+02 -0.36895411670E+02 -0.86717897403E+02  0.98196150655E+02  0.41800000000E+01 0. -1.
        -11    1    1    2    0    0 -0.30407781358E+02  0.39485076535E+02 -0.45114497812E+02  0.67223674021E+02  0.00000000000E+00 0.  1.
         11    1    1    2    0    0  0.28392064097E+02 -0.32296689237E+02 -0.29707390358E+02  0.52265806042E+02  0.00000000000E+00 0. -1.
</event>
<event>
 7    1  0.2841804E-009  0.8140647E+02  0.7561462E-02  0.1325107E+00
          2   -1    0    0  501    0  0.00000000000E+00  0.00000000000E+00  0.19709157627E+03  0.19709157627E+03  0.00000000000E+00 0.  1.
         -2   -1    0    0    0  501 -0.00000000000E+00 -0.00000000000E+00 -0.82158994217E+02  0.82158994217E+02  0.00000000000E+00 0. -1.
         25    2    1    2    0    0  0.94219945003E+01  0.40076031697E+01  0.66187584352E+02  0.14189130313E+03  0.12509001047E+03 0.  0.
          5    1    3    3  502    0  0.34451023855E+02  0.33643910287E+02 -0.15999072931E+02  0.50913932069E+02  0.41800000000E+01 0.  1.
         -5    1    3    3    0  502 -0.25029029354E+02 -0.29636307117E+02  0.82186657283E+02  0.90977371062E+02  0.41800000000E+01 0.  1.
        -11    1    1    2    0    0 -0.18374919479E+02 -0.36981302819E+02 -0.30318013087E+02  0.51229252792E+02  0.00000000000E+00 0. -1.
         11    1    1    2    0    0  0.89529249786E+01  0.32973699649E+02  0.79063010783E+02  0.86130014561E+02  0.00000000000E+00 0.  1.
</event>
<event>
 7    1  0.2841804E-009  0.1042404E+03  0.7561462E-02  0.1271623E+00
         -1   -1    0    0    0  501 -0.00000000000E+00  0.00000000000E+00  0.33232502236E+03  0.33232502236E+03  0.00000000000E+00 0.  1.
          1   -1    0    0  501    0  0.00000000000E+00 -0.00000000000E+00 -0.85821390416E+02  0.85821390416E+02  0.00000000000E+00 0. -1.
         25    2    1    2    0    0  0.31716895639E+02 -0.26179532127E+02  0.28390391703E+03  0.31296163074E+03  0.12510882797E+03 0.  0.
          5    1    3    3  502    0  0.56921942890E+02  0.21204202312E+02  0.22531287112E+03  0.23339470446E+03  0.41800000000E+01 0.  1.
         -5    1    3    3    0  502 -0.25205047251E+02 -0.47383734439E+02  0.58591045916E+02  0.79566926281E+02  0.41800000000E+01 0.  1.
        -11    1    1    2    0    0  0.28606531275E+02  0.15379303720E+02  0.16455634426E+01  0.32520216690E+02  0.00000000000E+00 0. -1.
         11    1    1    2    0    0 -0.60323426914E+02  0.10800228407E+02 -0.39045848536E+02  0.72664565341E+02  0.00000000000E+00 0.  1.
</event>
<event>
 7    1  0.2841804E-009  0.1236324E+03  0.7561462E-02  0.1237222E+00
          2   -1    0    0  501    0  0.00000000000E+00  0.00000000000E+00  0.10592550042E+04  0.10592550042E+04  0.00000000000E+00 0. -1.
         -2   -1    0    0    0  501 -0.00000000000E+00 -0.00000000000E+00 -0.21502270660E+02  0.21502270660E+02  0.00000000000E+00 0.  1.
         25    2    1    2    0    0 -0.43376108064E+02 -0.93741666154E+02  0.58895832152E+03  0.61089120728E+03  0.12508867223E+03 0.  0.
          5    1    3    3  502    0 -0.42609812044E+02 -0.95109444206E+02  0.23737235011E+03  0.25927689341E+03  0.41800000000E+01 0.  1.
         -5    1    3    3    0  502 -0.76629601968E+00  0.13677780513E+01  0.35158597141E+03  0.35161431387E+03  0.41800000000E+01 0.  1.
        -11    1    1    2    0    0  0.26962423687E+02  0.11126707132E+03  0.38666461414E+03  0.40325780498E+03  0.00000000000E+00 0.  1.
         11    1    1    2    0    0  0.16413684377E+02 -0.17525405168E+02  0.62129797851E+02  0.66608262566E+02  0.00000000000E+00 0. -1.
</event>
<event>
 7    1  0.2841804E-009  0.8461120E+02  0.7561462E-02  0.1316452E+00
          2   -1    0    0  501    0  0.00000000000E+00  0.00000000000E+00  0.14573165462E+03  0.14573165462E+03  0.00000000000E+00 0. -1.
         -2   -1    0    0    0  501 -0.00000000000E+00 -0.00000000000E+00 -0.12639119235E+03  0.12639119235E+03  0.00000000000E+00 0.  1.
         25    2    1    2    0    0  0.15432118810E+02 -0.14880459967E+02 -0.70865572034E+02  0.14535690979E+03  0.12508846287E+03 0.  0.
          5    1    3    3  502    0 -0.38061968974E+02  0.15988576376E+02  0.10803829705E+02  0.42878236823E+02  0.41800000000E+01 0. -1.
         -5    1    3    3    0  502  0.53494087785E+02 -0.30869036344E+02 -0.81669401740E+02  0.10247867297E+03  0.41800000000E+01 0. -1.
        -11    1    1    2    0    0 -0.17871453612E+02 -0.22292432646E+02  0.84347453974E+02  0.89055232296E+02  0.00000000000E+00 0. -1.
         11    1    1    2    0    0  0.24393348011E+01  0.37172892613E+02  0.58585803349E+01  0.37710704886E+02  0.00000000000E+00 0.  1.
</event>
<event>
 7    1  0.2841804E-009  0.1513399E+03  0.7561462E-02  0.1198836E+00
         -1   -1    0    0    0  501 -0.00000000000E+00  0.00000000000E+00  0.16014354880E+02  0.16014354880E+02  0.00000000000E+00 0.  1.
          1   -1    0    0  501    0  0.00000000000E+00 -0.00000000000E+00 -0.21249020583E+04  0.21249020583E+04  0.00000000000E+00 0. -1.
         25    2    1    2    0    0  0.35453116727E+02  0.11589110560E+03 -0.16109434111E+04  0.16203313249E+04  0.12508899554E+03 0.  0.
          5    1    3    3  502    0 -0.21121192583E+02 -0.14902145739E+01 -0.57335805163E+02  0.61263304427E+02  0.41800000000E+01 0. -1.
         -5    1    3    3    0  502  0.56574309310E+02  0.11738132018E+03 -0.15536076060E+04  0.15590680205E+04  0.41800000000E+01 0. -1.
        -11    1    1    2    0    0 -0.25905496507E+02 -0.13062549046E+03 -0.45765634921E+03  0.47663764799E+03  0.00000000000E+00 0. -1.
         11    1    1    2    0    0 -0.95476202198E+01  0.14734384856E+02 -0.40287943085E+02  0.43947440278E+02  0.00000000000E+00 0.  1.
</event>
<event>
 7    1  0.2841804E-009  0.1455241E+03  0.7561462E-02  0.1206083E+00
          2   -1    0    0  501    0  0.00000000000E+00  0.00000000000E+00  0.14818921648E+03  0.14818921648E+03  0.00000000000E+00 0. -1.
         -2   -1    0    0    0  501 -0.00000000000E+00 -0.00000000000E+00 -0.19966872440E+03  0.19966872440E+03  0.00000000000E+00 0.  1.
         25    2    1    2    0    0  0.12870193864E+03 -0.22127110037E+02 -0.58757140109E+00  0.18083635509E+03  0.12509054351E+03 0.  0.
          5    1    3    3  502    0  0.40580996512E+02  0.24598116903E+01  0.58855487413E+02  0.71654090952E+02  0.41800000000E+01 0.  1.
         -5    1    3    3    0  502  0.88120942127E+02 -0.24586921727E+02 -0.59443058815E+02  0.10918226414E+03  0.41800000000E+01 0.  1.
        -11    1    1    2    0    0 -0.10087346337E+03  0.55507795449E+02 -0.42681814602E+02  0.12279376314E+03  0.00000000000E+00 0.  1.
         11    1    1    2    0    0 -0.27828475270E+02 -0.33380685413E+02 -0.82101219197E+01  0.44227822651E+02  0.00000000000E+00 0. -1.
</event>
<event>
 7    1  0.2841804E-009  0.9462264E+02  0.7561462E-02  0.1292028E+00
          1   -1    0    0  501    0  0.00000000000E+00  0.00000000000E+00  0.75750531830E+03  0.75750531830E+03  0.00000000000E+00 0. -1.
         -1   -1    0    0    0  501 -0.00000000000E+00 -0.00000000000E+00 -0.17208381062E+02  0.17208381062E+02  0.00000000000E+00 0.  1.
         25    2    1    2    0    0 -0.90499170996E+01 -0.26519703540E+02  0.50895852291E+03  0.52485418112E+03  0.12509171724E+03 0.  0.
          5    1    3    3  502    0  0.42733985464E+02  0.12032520385E+02  0.84986825033E+02  0.95975037847E+02  0.41800000000E+01 0. -1.
         -5    1    3    3    0  502 -0.51783902564E+02 -0.38552223926E+02  0.42397169788E+03  0.42887914328E+03  0.41800000000E+01 0. -1.
        -11    1    1    2    0    0 -0.88152657715E+01  0.49822442275E+02  0.72990290780E+02  0.88811976743E+02  0.00000000000E+00 0.  1.
         11    1    1    2    0    0  0.17865182871E+02 -0.23302738735E+02  0.15834812355E+03  0.16104754150E+03  0.00000000000E+00 0. -1.
</event>
<event>
 7    1  0.2841804E-009  0.1161166E+03  0.7561462E-02  0.1249645E+00
         -1   -1    0    0    0  501 -0.00000000000E+00  0.00000000000E+00  0.53490289226E+02  0.53490289226E+02  0.00000000000E+00 0.  1.
          1   -1    0    0  501    0  0.00000000000E+00 -0.00000000000E+00 -0.40104141411E+03  0.40104141411E+03  0.00000000000E+00 0. -1.
         25    2    1    2    0    0 -0.43004263530E+02 -0.67226410738E+02 -0.11692381606E+03  0.18890904370E+03  0.12508673410E+03 0.  0.
          5    1    3    3  502    0 -0.74022793982E+02 -0.48796160322E+02 -0.12340937844E+03  0.15201245468E+03  0.41800000000E+01 0. -1.
         -5    1    3    3    0  502  0.31018530452E+02 -0.18430250416E+02  0.64855623800E+01  0.36896589018E+02  0.41800000000E+01 0. -1.
        -11    1    1    2    0    0  0.59718115827E+02  0.31061856479E+02 -0.21047265075E+03  0.22097472480E+03  0.00000000000E+00 0. -1.
         11    1    1    2    0    0 -0.16713852296E+02  0.36164554259E+02 -0.20154658074E+02  0.44647934839E+02  0.00000000000E+00 0.  1.
</event>
<event>
 7    1  0.2841804E-009  0.1468510E+03  0.7561462E-02  0.1204397E+00
         -2   -1    0    0    0  501 -0.00000000000E+00  0.00000000000E+00  0.52047768355E+02  0.52047768355E+02  0.00000000000E+00 0.  1.
          2   -1    0    0  501    0  0.00000000000E+00 -0.00000000000E+00 -0.51276036313E+03  0.51276036313E+03  0.00000000000E+00 0. -1.
         25    2    1    2    0    0  0.79385547852E+02 -0.91674470374E+02 -0.25783195188E+03  0.31117760850E+03  0.12509162601E+03 0.  0.
          5    1    3    3  502    0  0.10711279296E+03 -0.84463245117E+02 -0.16604012495E+03  0.21492786158E+03  0.41800000000E+01 0. -1.
         -5    1    3    3    0  502 -0.27727245108E+02 -0.72112252570E+01 -0.91791826930E+02  0.96249746920E+02  0.41800000000E+01 0. -1.
        -11    1    1    2    0    0 -0.54566361467E+02  0.87483978278E+02 -0.86578149105E+02  0.13463547141E+03  0.00000000000E+00 0.  1.
         11    1    1    2    0    0 -0.24819186385E+02  0.41904920963E+01 -0.11630249379E+03  0.11899505158E+03  0.00000000000E+00 0. -1.
</event>
<event>
 7    1  0.2841804E-009  0.1006304E+03  0.7561462E-02  0.1278976E+00
          1   -1    0    0  501    0  0.00000000000E+00  0.00000000000E+00  0.44441383245E+03  0.44441383245E+03  0.00000000000E+00 0. -1.
         -1   -1    0    0    0  501 -0.00000000000E+00 -0.00000000000E+00 -0.29090621944E+02  0.29090621944E+02  0.00000000000E+00 0.  1.
         25    2    1    2    0    0  0.12805066478E+02 -0.13800158557E+02  0.29300735833E+03  0.31914823997E+03  0.12509145829E+03 0.  0.
          5    1    3    3  502    0  0.58736180457E+02  0.24195925465E+02  0.11592598313E+03  0.13225614416E+03  0.41800000000E+01 0.  1.
         -5    1    3    3    0  502 -0.45931113980E+02 -0.37996084022E+02  0.17708137521E+03  0.18689209581E+03  0.41800000000E+01 0.  1.
        -11    1    1    2    0    0 -0.59419318339E+01 -0.31484638016E+02  0.96717032240E+02  0.10188608006E+03  0.00000000000E+00 0. -1.
         11    1    1    2    0    0 -0.68631346439E+01  0.45284796573E+02  0.25598819930E+02  0.52470134358E+02  0.00000000000E+00 0.  1.
</event>
<event>
 7    1  0.2932008E-009  0.7895966E+02  0.7561462E-02  0.1332030E+00
         -1   -1    0    0    0  501 -0.00000000000E+00  0.00000000000E+00  0.20125202093E+03  0.20125202093E+03  0.00000000000E+00 0.  1.
          1   -1    0    0  501    0  0.00000000000E+00 -0.00000000000E+00 -0.75076309018E+02  0.75076309018E+02  0.00000000000E+00 0. -1.
         25    2    1    2    0    0 -0.50475487789E+01 -0.56680263976E+01  0.64891563098E+01  0.12548775334E+03  0.12508981899E+03 0.  0.
          5    1    3    3  502    0 -0.51200909625E+02  0.22837687518E+02 -0.26190389767E+02  0.62020174409E+02  0.41800000000E+01 0.  1.
         -5    1    3    3    0  502  0.46153360846E+02 -0.28505713915E+02  0.32679546077E+02  0.63467578928E+02  0.41800000000E+01 0.  1.
        -11    1    1    2    0    0  0.14016710152E+02  0.23482624394E+02  0.12676140462E+03  0.12967789138E+03  0.00000000000E+00 0.  1.
         11    1    1    2    0    0 -0.89691613736E+01 -0.17814597996E+02 -0.70748490182E+01  0.21162685230E+02  0.00000000000E+00 0. -1.
</event>
<event>
 7    1  0.2841804E-009  0.1047085E+03  0.7561462E-02  0.1270695E+00
         -3   -1    0    0    0  501 -0.00000000000E+00  0.00000000000E+00  0.40010654175E+02  0.40010654175E+02  0.00000000000E+00 0.  1.
          3   -1    0    0  501    0  0.00000000000E+00 -0.00000000000E+00 -0.38349167086E+03  0.38349167086E+03  0.00000000000E+00 0. -1.
         25    2    1    2    0    0 -0.27856027260E+01 -0.45344476249E+02 -0.27833822760E+03  0.30853030158E+03  0.12511953062E+03 0.  0.
          5    1    3    3  502    0  0.48963357193E+02 -0.59878835780E+02 -0.13902426367E+03  0.15914805563E+03  0.41800000000E+01 0. -1.
         -5    1    3    3    0  502 -0.51748959919E+02  0.14534359530E+02 -0.13931396393E+03  0.14938224596E+03  0.41800000000E+01 0. -1.
        -11    1    1    2    0    0  0.12363264168E+02 -0.13567690348E+02  0.84591795002E+01  0.20211141484E+02  0.00000000000E+00 0.  1.
         11    1    1    2    0    0 -0.95776614420E+01  0.58912166597E+02 -0.73601968585E+02  0.94760881968E+02  0.00000000000E+00 0. -1.
</event>
<event>
 7    1  0.2841804E-009  0.6808386E+02  0.7561462E-02  0.1366733E+00
         -1   -1    0    0    0  501 -0.00000000000E+00  0.00000000000E+00  0.33708268907E+03  0.33708268907E+03  0.00000000000E+00 0.  1.
          1   -1    0    0  501    0  0.00000000000E+00 -0.00000000000E+00 -0.64902275808E+02  0.64902275808E+02  0.00000000000E+00 0. -1.
         25    2    1    2    0    0 -0.43535272817E+02 -0.15135929827E+02  0.27505569893E+02  0.13611479116E+03  0.12508502566E+03 0.  0.
          5    1    3    3  502    0 -0.22710120030E+02 -0.34756056209E+02  0.71901522178E+02  0.83132630696E+02  0.41800000000E+01 0. -1.
         -5    1    3    3    0  502 -0.20825152787E+02  0.19620126382E+02 -0.44395952284E+02  0.52982160461E+02  0.41800000000E+01 0. -1.
        -11    1    1    2    0    0 -0.46001636351E+01  0.16741709432E+02  0.90249117814E+00  0.17385650132E+02  0.00000000000E+00 0. -1.
         11    1    1    2    0    0  0.48135436452E+02 -0.16057796050E+01  0.24377235219E+03  0.24848452359E+03  0.00000000000E+00 0.  1.
</event>
<event>
 7    1  0.2841804E-009  0.9820488E+02  0.7561462E-02  0.1284117E+00
          2   -1    0    0  501    0  0.00000000000E+00  0.00000000000E+00  0.11281378550E+03  0.11281378550E+03  0.00000000000E+00 0. -1.
         -2   -1    0    0    0  501 -0.00000000000E+00 -0.00000000000E+00 -0.13845723033E+03  0.13845723033E+03  0.00000000000E+00 0.  1.
         25    2    1    2    0    0 -0.34829927277E+02  0.39930401776E+02 -0.41022268148E+02  0.14190380783E+03  0.12508518447E+03 0.  0.
          5    1    3    3  502    0 -0.79194591320E+02  0.12245212883E+02 -0.97645526572E+01  0.80836547561E+02  0.41800000000E+01 0.  1.
         -5    1    3    3    0  502  0.44364664043E+02  0.27685188893E+02 -0.31257715491E+02  0.61067260274E+02  0.41800000000E+01 0.  1.
        -11    1    1    2    0    0  0.38869007767E+02 -0.20667235585E+02  0.51793228549E+02  0.67974060604E+02  0.00000000000E+00 0. -1.
         11    1    1    2    0    0 -0.40390804899E+01 -0.19263166191E+02 -0.36414405226E+02  0.41393147390E+02  0.00000000000E+00 0.  1.
</event>
<event>
 7    1  0.3771474E-009  0.8849916E+02  0.7561462E-02  0.1306527E+00
         -2   -1    0    0    0  501 -0.00000000000E+00  0.00000000000E+00  0.70018526497E+02  0.70018526497E+02  0.00000000000E+00 0.  1.
          2   -1    0    0  501    0  0.00000000000E+00 -0.00000000000E+00 -0.26921839041E+03  0.26921839041E+03  0.00000000000E+00 0. -1.
         25    2    1    2    0    0  0.16360011506E+02 -0.81640778349E+02 -0.11514672409E+03  0.18931148467E+03  0.12508878245E+03 0.  0.
          5    1    3    3  502    0  0.76247637296E+00  0.44427221029E+01  0.24065950886E+02  0.24838710553E+02  0.41800000000E+01 0.  1.
         -5    1    3    3    0  502  0.15597535133E+02 -0.86083500451E+02 -0.13921267497E+03  0.16447277412E+03  0.41800000000E+01 0.  1.
        -11    1    1    2    0    0 -0.13333083250E+02  0.65348682096E+02 -0.10427575141E+03  0.12378066768E+03  0.00000000000E+00 0. -1.
         11    1    1    2    0    0 -0.30269282560E+01  0.16292096253E+02  0.20222611576E+02  0.26144764560E+02  0.00000000000E+00 0.  1.
</event>
<event>
 7    1  0.2841804E-009  0.8725105E+02  0.7561462E-02  0.1309649E+00
          1   -1    0    0  501    0  0.00000000000E+00  0.00000000000E+00  0.31415466036E+03  0.31415466036E+03  0.00000000000E+00 0. -1.
         -1   -1    0    0    0  501 -0.00000000000E+00 -0.00000000000E+00 -0.40163520697E+02  0.40163520697E+02  0.00000000000E+00 0.  1.
         25    2    1    2    0    0  0.13046146517E+01 -0.34536587004E+02  0.14976272301E+03  0.19816888526E+03  0.12509019155E+03 0.  0.
          5    1    3    3  502    0 -0.51872962973E+02 -0.42259295636E+02  0.11770764819E+03  0.13545927506E+03  0.41800000000E+01 0.  1.
         -5    1    3    3    0  502  0.53177577625E+02  0.77227086315E+01  0.32055074818E+02  0.62709610207E+02  0.41800000000E+01 0.  1.
        -11    1    1    2    0    0 -0.20810225510E+02  0.22487433337E+02  0.84173078332E+00  0.30650589792E+02  0.00000000000E+00 0.  1.
         11    1    1    2    0    0  0.19505610858E+02  0.12049153667E+02  0.12338668587E+03  0.12549870601E+03  0.00000000000E+00 0. -1.
</event>
<event>
 7    1  0.2841804E-009  0.1348808E+03  0.7561462E-02  0.1220388E+00
          1   -1    0    0  501    0  0.00000000000E+00  0.00000000000E+00  0.13527021396E+04  0.13527021396E+04  0.00000000000E+00 0. -1.
         -1   -1    0    0    0  501 -0.00000000000E+00 -0.00000000000E+00 -0.14507289051E+02  0.14507289051E+02  0.00000000000E+00 0.  1.
         25    2    1    2    0    0  0.51548766301E+02  0.62544676184E+02  0.90850470937E+03  0.92065066623E+03  0.12509088878E+03 0.  0.
          5    1    3    3  502    0  0.79740501724E+02  0.14632716430E+00  0.52969001487E+03  0.53567485780E+03  0.41800000000E+01 0.  1.
         -5    1    3    3    0  502 -0.28191735423E+02  0.62398349019E+02  0.37881469450E+03  0.38497580843E+03  0.41800000000E+01 0.  1.
        -11    1    1    2    0    0  0.65067601526E+01 -0.62920338742E+02  0.23873231920E+03  0.24697049861E+03  0.00000000000E+00 0.  1.
         11    1    1    2    0    0 -0.58055526454E+02  0.37566255799E+00  0.19095782197E+03  0.19958826380E+03  0.00000000000E+00 0. -1.
</event>
<event>
 7    1  0.2841804E-009  0.9452651E+02  0.7561462E-02  0.1292246E+00
          2   -1    0    0  501    0  0.00000000000E+00  0.00000000000E+00  0.43803877351E+03  0.43803877351E+03  0.00000000000E+00 0. -1.
         -2   -1    0    0    0  501 -0.00000000000E+00 -0.00000000000E+00 -0.28241130608E+02  0.28241130608E+02  0.00000000000E+00 0.  1.
         25    2    1    2    0    0 -0.14635525369E+01 -0.24545599866E+02  0.30740356729E+03  0.33278963827E+03  0.12508941482E+03 0.  0.
          5    1    3    3  502    0 -0.44914939915E+02  0.22109555598E+02  0.65245588032E+02  0.82344662450E+02  0.41800000000E+01 0. -1.
         -5    1    3    3    0  502  0.43451387378E+02 -0.46655155464E+02  0.24215797926E+03  0.25044497583E+03  0.41800000000E+01 0. -1.
        -11    1    1    2    0    0  0.29435068221E+02 -0.94371798869E+01  0.12391870959E+02  0.33302283274E+02  0.00000000000E+00 0.  1.
         11    1    1    2    0    0 -0.27971515684E+02  0.33982779753E+02  0.90002204651E+02  0.10018798257E+03  0.00000000000E+00 0. -1.
</event>
<event>
 7    1  0.2841804E-009  0.1212821E+03  0.7561462E-02  0.1240997E+00
          1   -1    0    0  501    0  0.00000000000E+00  0.00000000000E+00  0.15148864967E+03  0.15148864967E+03  0.00000000000E+00 0. -1.
         -1   -1    0    0    0  501 -0.00000000000E+00 -0.00000000000E+00 -0.13808449885E+03  0.13808449885E+03  0.00000000000E+00 0.  1.
         25    2    1    2    0    0  0.68547574538E+02  0.15153340980E+02 -0.59892369678E+02  0.15545143665E+03  0.12509859908E+03 0.  0.
          5    1    3    3  502    0 -0.20396773935E+02 -0.35144946066E+02 -0.12361139694E+02  0.42678633946E+02  0.41800000000E+01 0. -1.
         -5    1    3    3    0  502  0.88944348473E+02  0.50298287046E+02 -0.47531229984E+02  0.11277280270E+03  0.41800000000E+01 0. -1.
        -11    1    1    2    0    0 -0.41143032897E+02 -0.43600712163E+02  0.11902314236E+02  0.61118216117E+02  0.00000000000E+00 0.  1.
         11    1    1    2    0    0 -0.27404541641E+02  0.28447371183E+02  0.61394206261E+02  0.73003495753E+02  0.00000000000E+00 0. -1.
</event>
<event>
 7    1  0.2841804E-009  0.1453097E+03  0.7561462E-02  0.1206358E+00
          2   -1    0    0  501    0  0.00000000000E+00  0.00000000000E+00  0.18277303039E+03  0.18277303039E+03  0.00000000000E+00 0. -1.
         -2   -1    0    0    0  501 -0.00000000000E+00 -0.00000000000E+00 -0.16610609866E+03  0.16610609866E+03  0.00000000000E+00 0.  1.
         25    2    1    2    0    0  0.11877994941E+03  0.64940494403E+02  0.25830442406E+02  0.18611895579E+03  0.12508840775E+03 0.  0.
          5    1    3    3  502    0  0.10564429634E+03  0.63432403208E+02 -0.31400926792E+02  0.12723159092E+03  0.41800000000E+01 0.  1.
         -5    1    3    3    0  502  0.13135653075E+02  0.15080911955E+01  0.57231369198E+02  0.58887364868E+02  0.41800000000E+01 0.  1.
        -11    1    1    2    0    0 -0.10904566146E+03 -0.24371329863E+02  0.17714078083E+02  0.11313136861E+03  0.00000000000E+00 0.  1.
         11    1    1    2    0    0 -0.97342879586E+01 -0.40569164540E+02 -0.26877588754E+02  0.49628804648E+02  0.00000000000E+00 0. -1.
</event>
<event>
 7    1  0.2841804E-009  0.1014150E+03  0.7561462E-02  0.1277348E+00
         -2   -1    0    0    0  501 -0.00000000000E+00  0.00000000000E+00  0.12909520176E+03  0.12909520176E+03  0.00000000000E+00 0.  1.
          2   -1    0    0  501    0  0.00000000000E+00 -0.00000000000E+00 -0.13938812572E+03  0.13938812572E+03  0.00000000000E+00 0. -1.
         25    2    1    2    0    0 -0.35896420049E+02 -0.70225880484E+02 -0.13468436171E+02  0.14849520961E+03  0.12509676751E+03 0.  0.
          5    1    3    3  502    0 -0.57007963079E+01  0.15811698004E+02 -0.47902838253E+02  0.50937836478E+02  0.41800000000E+01 0. -1.
         -5    1    3    3    0  502 -0.30195623741E+02 -0.86037578489E+02  0.34434402082E+02  0.97557373130E+02  0.41800000000E+01 0. -1.
        -11    1    1    2    0    0 -0.33880961722E+01  0.49873315093E+02 -0.35428876911E+02  0.61270156465E+02  0.00000000000E+00 0. -1.
         11    1    1    2    0    0  0.39284516221E+02  0.20352565391E+02  0.38604389126E+02  0.58717961413E+02  0.00000000000E+00 0.  1.
</event>
<event>
 7    1  0.2841804E-009  0.8583504E+02  0.7561462E-02  0.1313263E+00
         -1   -1    0    0    0  501 -0.00000000000E+00  0.00000000000E+00  0.32266189334E+02  0.32266189334E+02  0.00000000000E+00 0.  1.
          1   -1    0    0  501    0  0.00000000000E+00 -0.00000000000E+00 -0.65563350163E+03  0.65563350163E+03  0.00000000000E+00 0. -1.
         25    2    1    2    0    0 -0.12173589372E+02  0.28002436560E+02 -0.55252772349E+03  0.56733278609E+03  0.12508905714E+03 0.  0.
          5    1    3    3  502    0  0.31870756342E+02  0.50121126083E+02 -0.44509721082E+03  0.44906221381E+03  0.41800000000E+01 0.  1.
         -5    1    3    3    0  502 -0.44044345714E+02 -0.22118689523E+02 -0.10743051267E+03  0.11827057228E+03  0.41800000000E+01 0.  1.
        -11    1    1    2    0    0 -0.17303830949E+02  0.53884164908E+01 -0.73737552279E+02  0.75932102657E+02  0.00000000000E+00 0. -1.
         11    1    1    2    0    0  0.29477420321E+02 -0.33390853051E+02  0.28979634775E+01  0.44634802212E+02  0.00000000000E+00 0.  1.
</event>
<event>
 7    1  0.2841804E-009  0.1142761E+03  0.7561462E-02  0.1252850E+00
         -2   -1    0    0    0  501 -0.00000000000E+00  0.00000000000E+00  0.50552374015E+02  0.50552374015E+02  0.00000000000E+00 0. -1.
          2   -1    0    0  501    0  0.00000000000E+00 -0.00000000000E+00 -0.54165672517E+03  0.54165672517E+03  0.00000000000E+00 0.  1.
         25    2    1    2    0    0 -0.79915734913E+02 -0.54226432239E+02 -0.40430586159E+03  0.43409399546E+03  0.12508931425E+03 0.  0.
          5    1    3    3  502    0 -0.19228730879E+02 -0.91658491357E+01  0.10467241375E+01  0.21733037363E+02  0.41800000000E+01 0.  1.
         -5    1    3    3    0  502 -0.60687004034E+02 -0.45060583103E+02 -0.40535258573E+03  0.41236095810E+03  0.41800000000E+01 0.  1.
        -11    1    1    2    0    0  0.62100175431E+02 -0.11402303682E+02 -0.32024969148E+02  0.70795783538E+02  0.00000000000E+00 0.  1.
         11    1    1    2    0    0  0.17815559482E+02  0.65628735921E+02 -0.54773520410E+02  0.87319320179E+02  0.00000000000E+00 0. -1.
</event>
<event>
 7    1  0.2841804E-009  0.6400099E+02  0.7561462E-02  0.1381769E+00
         -1   -1    0    0    0  501 -0.00000000000E+00  0.00000000000E+00  0.27091957372E+02  0.27091957372E+02  0.00000000000E+00 0.  1.
          1   -1    0    0  501    0  0.00000000000E+00 -0.00000000000E+00 -0.55166817057E+03  0.55166817057E+03  0.00000000000E+00 0. -1.
         25    2    1    2    0    0  0.34517764481E+02  0.27743400286E+01 -0.18807014937E+03  0.22850870406E+03  0.12508666485E+03 0.  0.
          5    1    3    3  502    0  0.30001574391E+02  0.50049668003E+01 -0.20659376006E+03  0.20886263010E+03  0.41800000000E+01 0.  1.
         -5    1    3    3    0  502  0.45161900901E+01 -0.22306267717E+01  0.18523610695E+02  0.19646073956E+02  0.41800000000E+01 0.  1.
        -11    1    1    2    0    0 -0.59813835369E+02  0.12635973909E+02 -0.16008250845E+03  0.17135860717E+03  0.00000000000E+00 0.  1.
         11    1    1    2    0    0  0.25296070888E+02 -0.15410313937E+02 -0.17642355538E+03  0.17889281671E+03  0.00000000000E+00 0. -1.
</event>
<event>
 7    1  0.2841804E-009  0.1252890E+03  0.7561462E-02  0.1234618E+00
          1   -1    0    0  501    0  0.00000000000E+00  0.00000000000E+00  0.97066980142E+02  0.97066980142E+02  0.00000000000E+00 0. -1.
         -1   -1    0    0    0  501 -0.00000000000E+00 -0.00000000000E+00 -0.32125160123E+03  0.32125160123E+03  0.00000000000E+00 0.  1.
         25    2    1    2    0    0 -0.71216428316E+02  0.57127088641E+02 -0.24277218067E+03  0.28796113489E+03  0.12509196451E+03 0.  0.
          5    1    3    3  502    0  0.31148739245E+02 -0.90401534069E+01 -0.57542103477E+02  0.66185605706E+02  0.41800000000E+01 0. -1.
         -5    1    3    3    0  502 -0.10236516756E+03  0.66167242048E+02 -0.18523007719E+03  0.22177552918E+03  0.41800000000E+01 0. -1.
        -11    1    1    2    0    0  0.39007445719E+02 -0.12662484514E+02  0.51891889476E+02  0.66141420676E+02  0.00000000000E+00 0. -1.
         11    1    1    2    0    0  0.32208982596E+02 -0.44464604127E+02 -0.33304329895E+02  0.64216025802E+02  0.00000000000E+00 0.  1.
</event>
<event>
 7    1  0.2841804E-009  0.1630856E+03  0.7561462E-02  0.1185257E+00
          2   -1    0    0  501    0  0.00000000000E+00  0.00000000000E+00  0.74039312830E+03  0.74039312830E+03  0.00000000000E+00 0. -1.
         -2   -1    0    0    0  501 -0.00000000000E+00 -0.00000000000E+00 -0.47483926334E+02  0.47483926334E+02  0.00000000000E+00 0.  1.
         25    2    1    2    0    0  0.14448867622E+03  0.42123451632E+02  0.28664376274E+03  0.34708025031E+03  0.12509472692E+03 0.  0.
          5    1    3    3  502    0  0.14340942379E+03  0.32865559514E+02  0.29765665588E+03  0.33205927938E+03  0.41800000000E+01 0. -1.
         -5    1    3    3    0  502  0.10792524353E+01  0.92578921183E+01 -0.11012893140E+02  0.15020970928E+02  0.41800000000E+01 0. -1.
        -11    1    1    2    0    0 -0.51511284331E+02  0.21803745588E+02  0.17010232519E+03  0.17906316419E+03  0.00000000000E+00 0.  1.
         11    1    1    2    0    0 -0.92977391890E+02 -0.63927197220E+02  0.23616311404E+03  0.26173364014E+03  0.00000000000E+00 0. -1.
</event>
<event>
 7    1  0.2841804E-009  0.7368311E+02  0.7561462E-02  0.1347998E+00
         -2   -1    0    0    0  501 -0.00000000000E+00  0.00000000000E+00  0.18842869597E+03  0.18842869597E+03  0.00000000000E+00 0.  1.
          2   -1    0    0  501    0  0.00000000000E+00 -0.00000000000E+00 -0.74354711174E+02  0.74354711174E+02  0.00000000000E+00 0. -1.
         25    2    1    2    0    0 -0.41129813931E+02  0.33871316064E+01  0.91366044379E+02  0.16030841854E+03  0.12509156940E+03 0.  0.
          5    1    3    3  502    0 -0.12554889199E+01  0.26120070033E+02  0.10808383253E+03  0.11128082299E+03  0.41800000000E+01 0. -1.
         -5    1    3    3    0  502 -0.39874325011E+02 -0.22732938426E+02 -0.16717788152E+02  0.49027595549E+02  0.41800000000E+01 0. -1.
        -11    1    1    2    0    0  0.15535960017E+02 -0.32505363429E+02  0.45086017392E+02  0.57712335506E+02  0.00000000000E+00 0.  1.
         11    1    1    2    0    0  0.25593853914E+02  0.29118231823E+02 -0.22378076979E+02  0.44762653093E+02  0.00000000000E+00 0. -1.
</event>
<event>
 7    1  0.2841804E-009  0.2068299E+03  0.7561462E-02  0.1144101E+00
         -2   -1    0    0    0  501 -0.00000000000E+00  0.00000000000E+00  0.98289047486E+02  0.98289047486E+02  0.00000000000E+00 0.  1.
          2   -1    0    0  501    0  0.00000000000E+00 -0.00000000000E+00 -0.51041429862E+03  0.51041429862E+03  0.00000000000E+00 0. -1.
         25    2    1    2    0    0  0.12479154596E+03  0.15242360625E+03 -0.22593471111E+03  0.32480679733E+03  0.12508827372E+03 0.  0.
          5    1    3    3  502    0  0.10866772952E+03  0.16233580791E+03 -0.23308160569E+03  0.30414815022E+03  0.41800000000E+01 0.  1.
         -5    1    3    3    0  502  0.16123816440E+02 -0.99122016612E+01  0.71468945802E+01  0.20658647112E+02  0.41800000000E+01 0.  1.
        -11    1    1    2    0    0 -0.57555335810E+02 -0.91800594782E+02 -0.47573215365E+02  0.11833501892E+03  0.00000000000E+00 0.  1.
         11    1    1    2    0    0 -0.67236210150E+02 -0.60623011463E+02 -0.13861732466E+03  0.16556152986E+03  0.00000000000E+00 0. -1.
</event>
<event>
 7    1  0.2841804E-009  0.1492340E+03  0.7561462E-02  0.1201417E+00
          2   -1    0    0  501    0  0.00000000000E+00  0.00000000000E+00  0.74028455407E+03  0.74028455407E+03  0.00000000000E+00 0. -1.
         -2   -1    0    0    0  501 -0.00000000000E+00 -0.00000000000E+00 -0.47804592692E+02  0.47804592692E+02  0.00000000000E+00 0.  1.
         25    2    1    2    0    0 -0.26626625588E+01  0.14293999309E+03  0.24919846553E+03  0.31334680349E+03  0.12508961841E+03 0.  0.
          5    1    3    3  502    0  0.21764928232E+02  0.69580502971E+02  0.21792986925E+03  0.22983920206E+03  0.41800000000E+01 0.  1.
         -5    1    3    3    0  502 -0.24427590791E+02  0.73359490115E+02  0.31268596287E+02  0.83507601423E+02  0.41800000000E+01 0.  1.
        -11    1    1    2    0    0 -0.17380701457E+02 -0.83259716693E+02  0.36239873214E+03  0.37224603458E+03  0.00000000000E+00 0. -1.
         11    1    1    2    0    0  0.20043364016E+02 -0.59680276393E+02  0.80882763710E+02  0.10249630870E+03  0.00000000000E+00 0.  1.
</event>
<event>
 7    1  0.2841804E-009  0.1182826E+03  0.7561462E-02  0.1245957E+00
          1   -1    0    0  501    0  0.00000000000E+00  0.00000000000E+00  0.64371559735E+02  0.64371559735E+02  0.00000000000E+00 0. -1.
         -1   -1    0    0    0  501 -0.00000000000E+00 -0.00000000000E+00 -0.30373337225E+03  0.30373337225E+03  0.00000000000E+00 0.  1.
         25    2    1    2    0    0  0.55952367193E+02 -0.42973076771E+02 -0.60019463556E+02  0.15564828504E+03  0.12508676952E+03 0.  0.
          5    1    3    3  502    0  0.72591809709E+02  0.47091686644E+01 -0.73204128476E+02  0.10328632016E+03  0.41800000000E+01 0.  1.
         -5    1    3    3    0  502 -0.16639442516E+02 -0.47682245435E+02  0.13184664919E+02  0.52361964879E+02  0.41800000000E+01 0.  1.
        -11    1    1    2    0    0 -0.28543110443E+02 -0.26122563777E+02 -0.74333774600E+02  0.83800999626E+02  0.00000000000E+00 0. -1.
         11    1    1    2    0    0 -0.27409256750E+02  0.69095640547E+02 -0.10500857436E+03  0.12865564732E+03  0.00000000000E+00 0.  1.
</event>
<event>
 7    1  0.2841804E-009  0.1106956E+03  0.7561462E-02  0.1259287E+00
          2   -1    0    0  501    0  0.00000000000E+00  0.00000000000E+00  0.18379502538E+03  0.18379502538E+03  0.00000000000E+00 0. -1.
         -2   -1    0    0    0  501 -0.00000000000E+00 -0.00000000000E+00 -0.72283488731E+02  0.72283488731E+02  0.00000000000E+00 0.  1.
         25    2    1    2    0    0 -0.31629958102E+02  0.28069243895E+01  0.38569282946E+02  0.13469788533E+03  0.12509035794E+03 0.  0.
          5    1    3    3  502    0  0.43556261319E+02  0.22430520614E+02  0.26787089156E+02  0.55993720189E+02  0.41800000000E+01 0.  1.
         -5    1    3    3    0  502 -0.75186219421E+02 -0.19623596225E+02  0.11782193790E+02  0.78704165138E+02  0.41800000000E+01 0.  1.
        -11    1    1    2    0    0 -0.13477271690E+02  0.33750648939E+02  0.14884450868E+02  0.39272000632E+02  0.00000000000E+00 0. -1.
         11    1    1    2    0    0  0.45107229792E+02 -0.36557573329E+02  0.58057802837E+02  0.82108628155E+02  0.00000000000E+00 0.  1.
</event>
<event>
 7    1  0.2841804E-009  0.1096994E+03  0.7561462E-02  0.1261128E+00
          1   -1    0    0  501    0  0.00000000000E+00  0.00000000000E+00  0.34458257684E+02  0.34458257684E+02  0.00000000000E+00 0. -1.
         -1   -1    0    0    0  501 -0.00000000000E+00 -0.00000000000E+00 -0.61846863880E+03  0.61846863880E+03  0.00000000000E+00 0.  1.
         25    2    1    2    0    0 -0.63288354277E+02 -0.17086354087E+02 -0.48243236226E+03  0.50267844651E+03  0.12508907684E+03 0.  0.
          5    1    3    3  502    0  0.29963432493E+02 -0.31304656897E+02 -0.10615928291E+03  0.11473907171E+03  0.41800000000E+01 0.  1.
         -5    1    3    3    0  502 -0.93251786771E+02  0.14218302810E+02 -0.37627307935E+03  0.38793937479E+03  0.41800000000E+01 0.  1.
        -11    1    1    2    0    0  0.47772663499E+02  0.33888525447E+02 -0.11100614107E+03  0.12551104689E+03  0.00000000000E+00 0.  1.
         11    1    1    2    0    0  0.15515690779E+02 -0.16802171360E+02  0.94281222218E+01  0.24737403085E+02  0.00000000000E+00 0. -1.
</event>
<event>
 7    1  0.2841804E-009  0.1216740E+03  0.7561462E-02  0.1240361E+00
          1   -1    0    0  501    0  0.00000000000E+00  0.00000000000E+00  0.65676652441E+02  0.65676652441E+02  0.00000000000E+00 0.  1.
         -1   -1    0    0    0  501 -0.00000000000E+00 -0.00000000000E+00 -0.24533718156E+03  0.24533718156E+03  0.00000000000E+00 0. -1.
         25    2    1    2    0    0 -0.48879305688E+02 -0.29146690341E+02 -0.58566113838E+02  0.14938561561E+03  0.12508939355E+03 0.  0.
          5    1    3    3  502    0  0.42077351538E+02 -0.17388013576E+01 -0.16920057462E+02  0.45577271607E+02  0.41800000000E+01 0.  1.
         -5    1    3    3    0  502 -0.90956657226E+02 -0.27407888984E+02 -0.41646056376E+02  0.10380834400E+03  0.41800000000E+01 0.  1.
        -11    1    1    2    0    0  0.46000575957E+01 -0.30951128063E+02 -0.46896436983E+02  0.56377377200E+02  0.00000000000E+00 0.  1.
         11    1    1    2    0    0  0.44279248092E+02  0.60097818404E+02 -0.74197978298E+02  0.10525084119E+03  0.00000000000E+00 0. -1.
</event>
<event>
 7    1  0.2841804E-009  0.2689777E+03  0.7561462E-02  0.1101866E+00
          1   -1    0    0  501    0  0.00000000000E+00  0.00000000000E+00  0.87746036310E+03  0.87746036310E+03  0.00000000000E+00 0. -1.
         -1   -1    0    0    0  501 -0.00000000000E+00 -0.00000000000E+00 -0.10046900275E+03  0.10046900275E+03  0.00000000000E+00 0.  1.
         25    2    1    2    0    0  0.74557132249E+02  0.24716520925E+03  0.55867049662E+03  0.62801907839E+03  0.12508330182E+03 0.  0.
          5    1    3    3  502    0 -0.24765319717E+02  0.84223001700E+02  0.25108618607E+03  0.26602364615E+03  0.41800000000E+01 0.  1.
         -5    1    3    3    0  502  0.99322451966E+02  0.16294220755E+03  0.30758431056E+03  0.36199543224E+03  0.41800000000E+01 0.  1.
        -11    1    1    2    0    0 -0.49587163002E+02 -0.19717481758E+03  0.11799923578E+03  0.23507576452E+03  0.00000000000E+00 0.  1.
         11    1    1    2    0    0 -0.24969969246E+02 -0.49990391668E+02  0.10032162795E+03  0.11483452293E+03  0.00000000000E+00 0. -1.
</event>
<event>
 7    1  0.2841804E-009  0.1281080E+03  0.7561462E-02  0.1230290E+00
          1   -1    0    0  501    0  0.00000000000E+00  0.00000000000E+00  0.45331929719E+02  0.45331929719E+02  0.00000000000E+00 0. -1.
         -1   -1    0    0    0  501 -0.00000000000E+00 -0.00000000000E+00 -0.47628487101E+03  0.47628487101E+03  0.00000000000E+00 0.  1.
         25    2    1    2    0    0  0.98008052920E+02 -0.16739237341E+02 -0.27896407046E+03  0.32148727787E+03  0.12508931499E+03 0.  0.
          5    1    3    3  502    0 -0.27729030571E+02 -0.39192031225E+01 -0.88042600385E+02  0.92483680572E+02  0.41800000000E+01 0.  1.
         -5    1    3    3    0  502  0.12573708349E+03 -0.12820034218E+02 -0.19092147007E+03  0.22900359730E+03  0.41800000000E+01 0.  1.
        -11    1    1    2    0    0 -0.63842930098E+02  0.20543414457E+02 -0.15157628832E+03  0.16575078516E+03  0.00000000000E+00 0.  1.
         11    1    1    2    0    0 -0.34165122822E+02 -0.38041771160E+01 -0.41258251082E+00  0.34378737692E+02  0.00000000000E+00 0. -1.
</event>
<event>
 7    1  0.2841804E-009  0.1190868E+03  0.7561462E-02  0.1244611E+00
         -2   -1    0    0    0  501 -0.00000000000E+00  0.00000000000E+00  0.25679929213E+02  0.25679929213E+02  0.00000000000E+00 0.  1.
          2   -1    0    0  501    0  0.00000000000E+00 -0.00000000000E+00 -0.79072180384E+03  0.79072180384E+03  0.00000000000E+00 0. -1.
         25    2    1    2    0    0 -0.48188564979E+02 -0.87209287922E+01 -0.19410292750E+03  0.23605478340E+03  0.12509085463E+03 0.  0.
          5    1    3    3  502    0 -0.51423397547E+02 -0.62006247217E+02 -0.11164459976E+03  0.13773572363E+03  0.41800000000E+01 0. -1.
         -5    1    3    3    0  502  0.32348325675E+01  0.53285318425E+02 -0.82458327740E+02  0.98319059775E+02  0.41800000000E+01 0. -1.
        -11    1    1    2    0    0  0.57709458865E+01 -0.39397395086E+02 -0.23179996516E+03  0.23519498805E+03  0.00000000000E+00 0. -1.
         11    1    1    2    0    0  0.42417619093E+02  0.48118323878E+02 -0.33913898197E+03  0.34515196159E+03  0.00000000000E+00 0.  1.
</event>
<event>
 7    1  0.2841804E-009  0.9644725E+02  0.7561462E-02  0.1287949E+00
          2   -1    0    0  501    0  0.00000000000E+00  0.00000000000E+00  0.34712235666E+03  0.34712235666E+03  0.00000000000E+00 0.  1.
         -2   -1    0    0    0  501 -0.00000000000E+00 -0.00000000000E+00 -0.45697466392E+02  0.45697466392E+02  0.00000000000E+00 0. -1.
         25    2    1    2    0    0  0.23952967264E+02 -0.16735284852E+02  0.25819735398E+03  0.28839023536E+03  0.12509692182E+03 0.  0.
          5    1    3    3  502    0  0.58933789239E+02 -0.20647845842E+02  0.24099709192E+03  0.24899115600E+03  0.41800000000E+01 0.  1.
         -5    1    3    3    0  502 -0.34980821975E+02  0.39125609895E+01  0.17200262061E+02  0.39399079361E+02  0.41800000000E+01 0.  1.
        -11    1    1    2    0    0 -0.49130130214E+02  0.37837152856E+02  0.25004495800E+02  0.66862879398E+02  0.00000000000E+00 0. -1.
         11    1    1    2    0    0  0.25177162950E+02 -0.21101868004E+02  0.18223040487E+02  0.37566708294E+02  0.00000000000E+00 0.  1.
</event>
<event>
 7    1  0.2841804E-009  0.9432753E+02  0.7561462E-02  0.1292698E+00
          1   -1    0    0  501    0  0.00000000000E+00  0.00000000000E+00  0.11035649488E+03  0.11035649488E+03  0.00000000000E+00 0. -1.
         -1   -1    0    0    0  501 -0.00000000000E+00 -0.00000000000E+00 -0.10412466922E+03  0.10412466922E+03  0.00000000000E+00 0.  1.
         25    2    1    2    0    0 -0.26711977224E+02 -0.27546294568E+02  0.44416142864E+02  0.13815117087E+03  0.12506248117E+03 0.  0.
          5    1    3    3  502    0  0.25596874938E+02 -0.59996455072E+02  0.63860283368E+01  0.65673650620E+02  0.41800000000E+01 0.  1.
         -5    1    3    3    0  502 -0.52308852162E+02  0.32450160504E+02  0.38030114527E+02  0.72477520254E+02  0.41800000000E+01 0.  1.
        -11    1    1    2    0    0  0.21945234077E+02 -0.97362778384E+01 -0.28980972555E+02  0.37633564474E+02  0.00000000000E+00 0.  1.
         11    1    1    2    0    0  0.47667431468E+01  0.37282572407E+02 -0.92033446492E+01  0.38696428753E+02  0.00000000000E+00 0. -1.
</event>
<event>
 7    1  0.2841804E-009  0.9972837E+02  0.7561462E-02  0.1280868E+00
          1   -1    0    0  501    0  0.00000000000E+00  0.00000000000E+00  0.43215204648E+02  0.43215204648E+02  0.00000000000E+00 0. -1.
         -1   -1    0    0    0  501 -0.00000000000E+00 -0.00000000000E+00 -0.28688807305E+03  0.28688807305E+03  0.00000000000E+00 0.  1.
         25    2    1    2    0    0 -0.95854831019E+01 -0.21417652737E+02 -0.13838121465E+03  0.18800937198E+03  0.12509023163E+03 0.  0.
          5    1    3    3  502    0  0.17582418093E+02  0.46851565485E+02 -0.35425226221E+02  0.61454289250E+02  0.41800000000E+01 0. -1.
         -5    1    3    3    0  502 -0.27167901195E+02 -0.68269218222E+02 -0.10295598843E+03  0.12655508273E+03  0.41800000000E+01 0. -1.
        -11    1    1    2    0    0  0.14415567640E+02  0.47231971294E+02 -0.10477165228E+03  0.11582645132E+03  0.00000000000E+00 0.  1.
         11    1    1    2    0    0 -0.48300845376E+01 -0.25814318557E+02 -0.52000147079E+00  0.26267454402E+02  0.00000000000E+00 0. -1.
</event>
<event>
 7    1  0.2841804E-009  0.8292899E+02  0.7561462E-02  0.1320939E+00
         -2   -1    0    0    0  501 -0.00000000000E+00  0.00000000000E+00  0.49449320241E+02  0.49449320241E+02  0.00000000000E+00 0.  1.
          2   -1    0    0  501    0  0.00000000000E+00 -0.00000000000E+00 -0.38724333745E+03  0.38724333745E+03  0.00000000000E+00 0. -1.
         25    2    1    2    0    0 -0.38817276186E+02 -0.57785701409E+02 -0.10696574785E+03  0.17872600146E+03  0.12512131780E+03 0.  0.
          5    1    3    3  502    0 -0.31979700128E+02 -0.51128925546E+02  0.10021152023E+02  0.61276130227E+02  0.41800000000E+01 0.  1.
         -5    1    3    3    0  502 -0.68375760586E+01 -0.66567758630E+01 -0.11698689987E+03  0.11744987124E+03  0.41800000000E+01 0.  1.
        -11    1    1    2    0    0  0.10410990218E+02 -0.14196180369E+02 -0.36617078141E+01  0.17981333613E+02  0.00000000000E+00 0.  1.
         11    1    1    2    0    0  0.28406285968E+02  0.71981881778E+02 -0.22716656155E+03  0.23998532262E+03  0.00000000000E+00 0. -1.
</event>
<event>
 7    1  0.2841804E-009  0.1620287E+03  0.7561462E-02  0.1186425E+00
          2   -1    0    0  501    0  0.00000000000E+00  0.00000000000E+00  0.40226373794E+02  0.40226373794E+02  0.00000000000E+00 0.  1.
         -2   -1    0    0    0  501 -0.00000000000E+00 -0.00000000000E+00 -0.95318198156E+03  0.95318198156E+03  0.00000000000E+00 0. -1.
         25    2    1    2    0    0 -0.12335277957E+03  0.85821135451E+02 -0.31949920679E+03  0.37457782310E+03  0.12509047483E+03 0.  0.
          5    1    3    3  502    0 -0.21889233639E+02  0.11330811682E+02  0.58743649603E+01  0.25680856807E+02  0.41800000000E+01 0. -1.
         -5    1    3    3    0  502 -0.10146354594E+03  0.74490323769E+02 -0.32537357175E+03  0.34889696629E+03  0.41800000000E+01 0. -1.
        -11    1    1    2    0    0  0.10138129904E+03 -0.10352593960E+03 -0.45452568325E+03  0.47706329213E+03  0.00000000000E+00 0. -1.
         11    1    1    2    0    0  0.21971480539E+02  0.17704804147E+02 -0.13893071772E+03  0.14176724013E+03  0.00000000000E+00 0.  1.
</event>
<event>
 7    1  0.2841804E-009  0.1071327E+03  0.7561462E-02  0.1265974E+00
          2   -1    0    0  501    0  0.00000000000E+00  0.00000000000E+00  0.73348270993E+03  0.73348270993E+03  0.00000000000E+00 0. -1.
         -2   -1    0    0    0  501 -0.00000000000E+00 -0.00000000000E+00 -0.16330298301E+02  0.16330298301E+02  0.00000000000E+00 0.  1.
         25    2    1    2    0    0  0.61133767090E+01  0.96835450306E+01  0.44493369952E+03  0.46232501157E+03  0.12508906804E+03 0.  0.
          5    1    3    3  502    0  0.22069377479E+02  0.62547896576E+02  0.29753217810E+03  0.30486417663E+03  0.41800000000E+01 0. -1.
         -5    1    3    3    0  502 -0.15956000770E+02 -0.52864351545E+02  0.14740152142E+03  0.15746083494E+03  0.41800000000E+01 0. -1.
        -11    1    1    2    0    0 -0.22617468859E+02  0.36748449751E+02  0.12988044594E+03  0.13686098310E+03  0.00000000000E+00 0.  1.
         11    1    1    2    0    0  0.16504092150E+02 -0.46431994782E+02  0.14233826617E+03  0.15062701356E+03  0.00000000000E+00 0. -1.
</event>
<event>
 7    1  0.2841804E-009  0.1029803E+03  0.7561462E-02  0.1274151E+00
          2   -1    0    0  501    0  0.00000000000E+00  0.00000000000E+00  0.20926037044E+03  0.20926037044E+03  0.00000000000E+00 0. -1.
         -2   -1    0    0    0  501 -0.00000000000E+00 -0.00000000000E+00 -0.71067722709E+02  0.71067722709E+02  0.00000000000E+00 0.  1.
         25    2    1    2    0    0 -0.44294348724E+02 -0.19550414137E+02  0.10366607750E+03  0.16953308292E+03  0.12510236832E+03 0.  0.
          5    1    3    3  502    0 -0.53929450978E+02 -0.47245077231E+02  0.11511622219E+02  0.72735636737E+02  0.41800000000E+01 0.  1.
         -5    1    3    3    0  502  0.96351022540E+01  0.27694663094E+02  0.92154455284E+02  0.96797446186E+02  0.41800000000E+01 0.  1.
        -11    1    1    2    0    0  0.45466016821E+02 -0.30313418175E+02  0.11421399311E+02  0.55825714230E+02  0.00000000000E+00 0. -1.
         11    1    1    2    0    0 -0.11716680967E+01  0.49863832312E+02  0.23105170914E+02  0.54969295993E+02  0.00000000000E+00 0.  1.
</event>
<event>
 7    1  0.2841804E-009  0.1011644E+03  0.7561462E-02  0.1277866E+00
          1   -1    0    0  501    0  0.00000000000E+00  0.00000000000E+00  0.35446591466E+03  0.35446591466E+03  0.00000000000E+00 0. -1.
         -1   -1    0    0    0  501 -0.00000000000E+00 -0.00000000000E+00 -0.37887202529E+02  0.37887202529E+02  0.00000000000E+00 0.  1.
         25    2    1    2    0    0  0.27977985501E+02 -0.22604791899E+02  0.18474112937E+03  0.22598836747E+03  0.12509081926E+03 0.  0.
          5    1    3    3  502    0 -0.25362721675E+02  0.29178362146E+02  0.16952942748E+02  0.42420739457E+02  0.41800000000E+01 0.  1.
         -5    1    3    3    0  502  0.53340707176E+02 -0.51783154045E+02  0.16778818662E+03  0.18356762801E+03  0.41800000000E+01 0.  1.
        -11    1    1    2    0    0 -0.13328379235E+01 -0.29992472576E+02  0.87748300007E+02  0.92742056383E+02  0.00000000000E+00 0.  1.
         11    1    1    2    0    0 -0.26645147578E+02  0.52597264475E+02  0.44089282752E+02  0.73622693331E+02  0.00000000000E+00 0. -1.
</event>
<event>
 7    1  0.2841804E-009  0.1028385E+03  0.7561462E-02  0.1274438E+00
          2   -1    0    0  501    0  0.00000000000E+00  0.00000000000E+00  0.59780315173E+03  0.59780315173E+03  0.00000000000E+00 0. -1.
         -2   -1    0    0    0  501 -0.00000000000E+00 -0.00000000000E+00 -0.20604473898E+02  0.20604473898E+02  0.00000000000E+00 0.  1.
         25    2    1    2    0    0  0.64752845240E+01 -0.11389986430E+02  0.38592491575E+03  0.40590322472E+03  0.12509087154E+03 0.  0.
          5    1    3    3  502    0 -0.21454499240E+01 -0.61954798146E+02  0.29455179329E+03  0.30103360493E+03  0.41800000000E+01 0.  1.
         -5    1    3    3    0  502  0.86207344479E+01  0.50564811717E+02  0.91373122465E+02  0.10486961979E+03  0.41800000000E+01 0.  1.
        -11    1    1    2    0    0 -0.26415390312E+02  0.45475116055E+02  0.12009695272E+03  0.13110696808E+03  0.00000000000E+00 0.  1.
         11    1    1    2    0    0  0.19940105788E+02 -0.34085129626E+02  0.71176809349E+02  0.81397432819E+02  0.00000000000E+00 0. -1.
</event>
<event>
 7    1  0.2841804E-009  0.8983463E+02  0.7561462E-02  0.1303253E+00
          1   -1    0    0  501    0  0.00000000000E+00  0.00000000000E+00  0.12395744131E+03  0.12395744131E+03  0.00000000000E+00 0. -1.
         -1   -1    0    0    0  501 -0.00000000000E+00 -0.00000000000E+00 -0.10357289089E+03  0.10357289089E+03  0.00000000000E+00 0.  1.
         25    2    1    2    0    0 -0.17910364891E+02 -0.35249024427E+02 -0.17233158308E+00  0.13118492440E+03  0.12508469050E+03 0.  0.
          5    1    3    3  502    0 -0.62888363974E+02 -0.48924840294E+02 -0.16056300267E+02  0.81387121214E+02  0.41800000000E+01 0. -1.
         -5    1    3    3    0  502  0.44977999083E+02  0.13675815868E+02  0.15883968684E+02  0.49797803188E+02  0.41800000000E+01 0. -1.
        -11    1    1    2    0    0 -0.91450382781E+01  0.19100295879E+02 -0.30031531630E+02  0.36747053213E+02  0.00000000000E+00 0.  1.
         11    1    1    2    0    0  0.27055403169E+02  0.16148728547E+02  0.50588413634E+02  0.59598354578E+02  0.00000000000E+00 0. -1.
</event>
<event>
 7    1  0.2841804E-009  0.8392918E+02  0.7561462E-02  0.1318257E+00
          1   -1    0    0  501    0  0.00000000000E+00  0.00000000000E+00  0.41672434283E+02  0.41672434283E+02  0.00000000000E+00 0.  1.
         -1   -1    0    0    0  501 -0.00000000000E+00 -0.00000000000E+00 -0.36618950235E+03  0.36618950235E+03  0.00000000000E+00 0. -1.
         25    2    1    2    0    0  0.20584268005E+02  0.18723444995E+02 -0.94760458309E+02  0.15937990508E+03  0.12509248660E+03 0.  0.
          5    1    3    3  502    0 -0.23393665036E+02 -0.93425938565E+01 -0.10324781701E+03  0.10635850573E+03  0.41800000000E+01 0. -1.
         -5    1    3    3    0  502  0.43977933041E+02  0.28066038852E+02  0.84873587014E+01  0.53021399351E+02  0.41800000000E+01 0. -1.
        -11    1    1    2    0    0 -0.41014115944E+02 -0.42211945543E+02 -0.18364677511E+03  0.19284746319E+03  0.00000000000E+00 0. -1.
         11    1    1    2    0    0  0.20429847939E+02  0.23488500548E+02 -0.46109834649E+02  0.55634568356E+02  0.00000000000E+00 0.  1.
</event>
<event>
 7    1  0.2841804E-009  0.1063672E+03  0.7561462E-02  0.1267449E+00
         -1   -1    0    0    0  501 -0.00000000000E+00  0.00000000000E+00  0.17615936096E+02  0.17615936096E+02  0.00000000000E+00 0.  1.
          1   -1    0    0  501    0  0.00000000000E+00 -0.00000000000E+00 -0.10603850863E+04  0.10603850863E+04  0.00000000000E+00 0. -1.
         25    2    1    2    0    0 -0.25660117792E+02 -0.64515420757E+02 -0.75218481770E+03  0.76567034130E+03  0.12509352667E+03 0.  0.
          5    1    3    3  502    0 -0.31670128738E+02  0.10611043158E+02 -0.55511886943E+02  0.64920207048E+02  0.41800000000E+01 0. -1.
         -5    1    3    3    0  502  0.60100109466E+01 -0.75126463914E+02 -0.69667293075E+03  0.70075013425E+03  0.41800000000E+01 0. -1.
        -11    1    1    2    0    0 -0.23629058837E+02  0.16217295697E+01 -0.13871628758E+03  0.14072373953E+03  0.00000000000E+00 0. -1.
         11    1    1    2    0    0  0.49289176628E+02  0.62893691187E+02 -0.15186804497E+03  0.17160694161E+03  0.00000000000E+00 0.  1.
</event>
<event>
 7    1  0.2841804E-009  0.1767381E+03  0.7561462E-02  0.1170998E+00
          3   -1    0    0  501    0  0.00000000000E+00  0.00000000000E+00  0.44673670480E+02  0.44673670480E+02  0.00000000000E+00 0. -1.
         -3   -1    0    0    0  501 -0.00000000000E+00 -0.00000000000E+00 -0.83996496238E+03  0.83996496238E+03  0.00000000000E+00 0.  1.
         25    2    1    2    0    0 -0.48276603049E+02  0.14287472967E+03 -0.54255304254E+03  0.57684907217E+03  0.12508888567E+03 0.  0.
          5    1    3    3  502    0 -0.78681426397E+02  0.12122730554E+03 -0.49807334056E+03  0.51863412098E+03  0.41800000000E+01 0. -1.
         -5    1    3    3    0  502  0.30404823348E+02  0.21647424131E+02 -0.44479701979E+02  0.58214951193E+02  0.41800000000E+01 0. -1.
        -11    1    1    2    0    0  0.36101328941E+02 -0.93972136384E+01 -0.30159984513E+02  0.47971223054E+02  0.00000000000E+00 0.  1.
         11    1    1    2    0    0  0.12175274108E+02 -0.13347751604E+03 -0.22257826485E+03  0.25981833763E+03  0.00000000000E+00 0. -1.
</event>
<event>
 7    1  0.3468124E-009  0.2080788E+03  0.7561462E-02  0.1143096E+00
          2   -1    0    0  501    0  0.00000000000E+00  0.00000000000E+00  0.58848538560E+03  0.58848538560E+03  0.00000000000E+00 0. -1.
         -2   -1    0    0    0  501 -0.00000000000E+00 -0.00000000000E+00 -0.10227706675E+03  0.10227706675E+03  0.00000000000E+00 0.  1.
         25    2    1    2    0    0  0.12978258861E+03 -0.15757544205E+03  0.13636328727E+03  0.27551888160E+03  0.12506865218E+03 0.  0.
          5    1    3    3  502    0  0.26471024787E+02 -0.74173374350E+02 -0.80786698238E+01  0.79278886987E+02  0.41800000000E+01 0.  1.
         -5    1    3    3    0  502  0.10331156382E+03 -0.83402067696E+02  0.14444195709E+03  0.19623999461E+03  0.41800000000E+01 0.  1.
        -11    1    1    2    0    0 -0.84157318986E+02  0.11043831383E+03  0.30686470804E+03  0.33681600993E+03  0.00000000000E+00 0. -1.
         11    1    1    2    0    0 -0.45625269625E+02  0.47137128216E+02  0.42980323545E+02  0.78427560824E+02  0.00000000000E+00 0.  1.
</event>
<event>
 7    1  0.2841804E-009  0.8273404E+02  0.7561462E-02  0.1321467E+00
          2   -1    0    0  501    0  0.00000000000E+00  0.00000000000E+00  0.69377319824E+02  0.69377319824E+02  0.00000000000E+00 0. -1.
         -2   -1    0    0    0  501 -0.00000000000E+00 -0.00000000000E+00 -0.21115860141E+03  0.21115860141E+03  0.00000000000E+00 0.  1.
         25    2    1    2    0    0  0.36517372382E+02  0.22982891861E+02 -0.41345156749E+02  0.13863903067E+03  0.12509846935E+03 0.  0.
          5    1    3    3  502    0 -0.37410687692E+02 -0.72169454084E+01  0.14630970537E+02  0.41026595684E+02  0.41800000000E+01 0. -1.
         -5    1    3    3    0  502  0.73928060074E+02  0.30199837270E+02 -0.55976127286E+02  0.97612434983E+02  0.41800000000E+01 0. -1.
        -11    1    1    2    0    0 -0.15926165487E+02 -0.21182043891E+02 -0.11408806580E+03  0.11712560988E+03  0.00000000000E+00 0.  1.
         11    1    1    2    0    0 -0.20591206895E+02 -0.18008479702E+01  0.13651940967E+02  0.24771280689E+02  0.00000000000E+00 0. -1.
</event>
<event>
 6    1  0.2841804E-009  0.3821766E+03  0.7561462E-02  0.1050132E+00
          1   -1    0    0  501    0  0.00000000000E+00  0.00000000000E+00  0.32343382494E+03  0.32343382494E+03  0.00000000000E+00 0. -1.
         -1   -1    0    0    0  501 -0.00000000000E+00 -0.00000000000E+00 -0.49597529257E+03  0.49597529257E+03  0.00000000000E+00 0.  1.
          5    1    1    2  502    0 -0.70780959618E+01  0.31477873656E+02 -0.25379168144E+01  0.32632336632E+02  0.41800000000E+01 0. -1.
         -5    1    1    2    0  502  0.27700690048E+03  0.21958534984E+03 -0.20157135685E+03  0.40693861095E+03  0.41800000000E+01 0. -1.
        -11    1    1    2    0    0 -0.92421864110E+01 -0.45216580597E+02  0.80327278230E+01  0.46845297382E+02  0.00000000000E+00 0. -1.
         11    1    1    2    0    0 -0.26068661811E+03 -0.20584664290E+03  0.23535078219E+02  0.33299287254E+03  0.00000000000E+00 0.  1.
</event>
<event>
 7    1  0.2841804E-009  0.6889389E+02  0.7561462E-02  0.1363895E+00
         -1   -1    0    0    0  501 -0.00000000000E+00  0.00000000000E+00  0.45680108258E+03  0.45680108258E+03  0.00000000000E+00 0.  1.
          1   -1    0    0  501    0  0.00000000000E+00 -0.00000000000E+00 -0.27031599117E+02  0.27031599117E+02  0.00000000000E+00 0. -1.
         25    2    1    2    0    0 -0.37364728994E+02  0.71227689333E+01  0.23956439619E+03  0.27292598961E+03  0.12510251426E+03 0.  0.
          5    1    3    3  502    0 -0.19873487956E+02  0.20531891161E+02  0.24746382365E+03  0.24914319275E+03  0.41800000000E+01 0. -1.
         -5    1    3    3    0  502 -0.17491241038E+02 -0.13409122228E+02 -0.78994274665E+01  0.23782796855E+02  0.41800000000E+01 0. -1.
        -11    1    1    2    0    0  0.31100895959E+02  0.33303673665E+02  0.13292245916E+03  0.14051612206E+03  0.00000000000E+00 0. -1.
         11    1    1    2    0    0  0.62638330353E+01 -0.40426442598E+02  0.57282628120E+02  0.70390570034E+02  0.00000000000E+00 0.  1.
</event>
<event>
 7    1  0.2841804E-009  0.9409478E+02  0.7561462E-02  0.1293228E+00
          2   -1    0    0  501    0  0.00000000000E+00  0.00000000000E+00  0.12371822861E+03  0.12371822861E+03  0.00000000000E+00 0.  1.
         -2   -1    0    0    0  501 -0.00000000000E+00 -0.00000000000E+00 -0.13611487297E+03  0.13611487297E+03  0.00000000000E+00 0. -1.
         25    2    1    2    0    0  0.10272923033E+02 -0.55304979533E+02 -0.48391927414E+02  0.14539937224E+03  0.12504009398E+03 0.  0.
          5    1    3    3  502    0 -0.28207804390E+02 -0.17336962347E+02  0.33434331832E+02  0.47239574903E+02  0.41800000000E+01 0.  1.
         -5    1    3    3    0  502  0.38480727422E+02 -0.37968017186E+02 -0.81826259246E+02  0.98159797342E+02  0.41800000000E+01 0.  1.
        -11    1    1    2    0    0 -0.31201982053E+02  0.68902951775E+02  0.44867974694E+02  0.87944957789E+02  0.00000000000E+00 0.  1.
         11    1    1    2    0    0  0.20929059021E+02 -0.13597972243E+02 -0.88726916394E+01  0.26488771537E+02  0.00000000000E+00 0. -1.
</event>
<event>
 7    1  0.2841804E-009  0.1229973E+03  0.7561462E-02  0.1238233E+00
          1   -1    0    0  501    0  0.00000000000E+00  0.00000000000E+00  0.13124285235E+03  0.13124285235E+03  0.00000000000E+00 0. -1.
         -1   -1    0    0    0  501 -0.00000000000E+00 -0.00000000000E+00 -0.13457496473E+03  0.13457496473E+03  0.00000000000E+00 0.  1.
         25    2    1    2    0    0 -0.15606909544E+02  0.56466174509E+02  0.47280435079E+02  0.14599718293E+03  0.12509090052E+03 0.  0.
          5    1    3    3  502    0  0.26330233075E+02 -0.31091463789E+02  0.13895516852E+02  0.43249486505E+02  0.41800000000E+01 0. -1.
         -5    1    3    3    0  502 -0.41937142619E+02  0.87557638297E+02  0.33384918227E+02  0.10274769642E+03  0.41800000000E+01 0. -1.
        -11    1    1    2    0    0 -0.21812850569E+02  0.15495223059E+02 -0.18776594977E+02  0.32687350864E+02  0.00000000000E+00 0. -1.
         11    1    1    2    0    0  0.37419760113E+02 -0.71961397567E+02 -0.31835952480E+02  0.87133283291E+02  0.00000000000E+00 0.  1.
</event>
<event>
 7    1  0.2841804E-009  0.1072046E+03  0.7561462E-02  0.1265836E+00
         -1   -1    0    0    0  501 -0.00000000000E+00  0.00000000000E+00  0.12900500814E+03  0.12900500814E+03  0.00000000000E+00 0.  1.
          1   -1    0    0  501    0  0.00000000000E+00 -0.00000000000E+00 -0.18518883492E+03  0.18518883492E+03  0.00000000000E+00 0. -1.
         25    2    1    2    0    0 -0.34010498682E+02  0.10008181733E+03 -0.56463157810E+01  0.16386700169E+03  0.12508968455E+03 0.  0.
          5    1    3    3  502    0 -0.23050933248E+02  0.36733425539E+02  0.58507864664E+02  0.72947465364E+02  0.41800000000E+01 0. -1.
         -5    1    3    3    0  502 -0.10959565434E+02  0.63348391792E+02 -0.64154180445E+02  0.90919536326E+02  0.41800000000E+01 0. -1.
        -11    1    1    2    0    0  0.22174082827E+02 -0.46150301185E+02 -0.74285532453E+02  0.90221286738E+02  0.00000000000E+00 0. -1.
         11    1    1    2    0    0  0.11836415855E+02 -0.53931516146E+02  0.23748021460E+02  0.60105554629E+02  0.00000000000E+00 0.  1.
</event>
<event>
 7    1  0.2841804E-009  0.9873553E+02  0.7561462E-02  0.1282978E+00
         -1   -1    0    0    0  501 -0.00000000000E+00  0.00000000000E+00  0.24973110703E+02  0.24973110703E+02  0.00000000000E+00 0.  1.
          1   -1    0    0  501    0  0.00000000000E+00 -0.00000000000E+00 -0.52575460247E+03  0.52575460247E+03  0.00000000000E+00 0. -1.
         25    2    1    2    0    0 -0.87272287632E+01  0.31203409104E+02 -0.27156104429E+03  0.30073737697E+03  0.12509097437E+03 0.  0.
          5    1    3    3  502    0  0.12772559122E+02  0.76038654552E+02 -0.19042546413E+03  0.20548563221E+03  0.41800000000E+01 0.  1.
         -5    1    3    3    0  502 -0.21499787885E+02 -0.44835245448E+02 -0.81135580159E+02  0.95251744767E+02  0.41800000000E+01 0.  1.
        -11    1    1    2    0    0 -0.23431846059E+02 -0.30141843475E+02 -0.20793420987E+03  0.21141007018E+03  0.00000000000E+00 0. -1.
         11    1    1    2    0    0  0.32159074822E+02 -0.10615656288E+01 -0.21286237601E+02  0.38580266020E+02  0.00000000000E+00 0.  1.
</event>
<event>
 7    1  0.2841804E-009  0.7823462E+02  0.7561462E-02  0.1334137E+00
         -1   -1    0    0    0  501 -0.00000000000E+00  0.00000000000E+00  0.45653676105E+03  0.45653676105E+03  0.00000000000E+00 0.  1.
          1   -1    0    0  501    0  0.00000000000E+00 -0.00000000000E+00 -0.36804444949E+02  0.36804444949E+02  0.00000000000E+00 0. -1.
         25    2    1    2    0    0  0.56017378468E+02  0.79329790469E+00  0.31341241285E+03  0.34207090147E+03  0.12508631057E+03 0.  0.
          5    1    3    3  502    0  0.19319759172E+02  0.70239701279E+01 -0.49163142828E+01  0.21546039009E+02  0.41800000000E+01 0. -1.
         -5    1    3    3    0  502  0.36697619295E+02 -0.62306722232E+01  0.31832872714E+03  0.32052486247E+03  0.41800000000E+01 0. -1.
        -11    1    1    2    0    0 -0.37774677630E+02 -0.39861755942E+02  0.89464410306E+02  0.10497507594E+03  0.00000000000E+00 0.  1.
         11    1    1    2    0    0 -0.18242700838E+02  0.39068458038E+02  0.16855492936E+02  0.46295228581E+02  0.00000000000E+00 0. -1.
</event>
<event>
 7    1  0.2841804E-009  0.9399864E+02  0.7561462E-02  0.1293447E+00
         -1   -1    0    0    0  501 -0.00000000000E+00  0.00000000000E+00  0.48816155263E+02  0.48816155263E+02  0.00000000000E+00 0.  1.
          1   -1    0    0  501    0  0.00000000000E+00 -0.00000000000E+00 -0.24796168259E+03  0.24796168259E+03  0.00000000000E+00 0. -1.
         25    2    1    2    0    0 -0.12143028578E+02 -0.15456436928E+02 -0.11374515307E+03  0.17020969227E+03  0.12508806861E+03 0.  0.
          5    1    3    3  502    0 -0.34061766677E+02  0.46730789436E+02 -0.70355560038E+02  0.91166593985E+02  0.41800000000E+01 0. -1.
         -5    1    3    3    0  502  0.21918738099E+02 -0.62187226365E+02 -0.43389593036E+02  0.79043098286E+02  0.41800000000E+01 0. -1.
        -11    1    1    2    0    0 -0.24024362679E+02  0.13885639700E+02  0.58856660289E+01  0.28365860759E+02  0.00000000000E+00 0.  1.
         11    1    1    2    0    0  0.36167391257E+02  0.15707972285E+01 -0.91286040281E+02  0.98202284823E+02  0.00000000000E+00 0. -1.
</event>
<event>
 7    1  0.2841804E-009  0.1982304E+03  0.7561462E-02  0.1151241E+00
          1   -1    0    0  501    0  0.00000000000E+00  0.00000000000E+00  0.12851804307E+03  0.12851804307E+03  0.00000000000E+00 0. -1.
         -1   -1    0    0    0  501 -0.00000000000E+00 -0.00000000000E+00 -0.38603347840E+03  0.38603347840E+03  0.00000000000E+00 0.  1.
         25    2    1    2    0    0  0.93698066787E+02 -0.15835725971E+03 -0.20444584496E+03  0.30216224506E+03  0.12509024501E+03 0.  0.
          5    1    3    3  502    0  0.26374040064E+02 -0.66700849603E+01  0.11458675284E+02  0.29813648920E+02  0.41800000000E+01 0. -1.
         -5    1    3    3    0  502  0.67324026723E+02 -0.15168717475E+03 -0.21590452024E+03  0.27234859614E+03  0.41800000000E+01 0. -1.
        -11    1    1    2    0    0 -0.57222601146E+02  0.21232055243E+02 -0.40034152368E+00  0.61035944534E+02  0.00000000000E+00 0. -1.
         11    1    1    2    0    0 -0.36475465640E+02  0.13712520447E+03 -0.52669248847E+02  0.15135333187E+03  0.00000000000E+00 0.  1.
</event>
<event>
 7    1  0.2841804E-009  0.1779779E+03  0.7561462E-02  0.1169775E+00
          2   -1    0    0  501    0  0.00000000000E+00  0.00000000000E+00  0.66778852999E+03  0.66778852999E+03  0.00000000000E+00 0. -1.
         -2   -1    0    0    0  501 -0.00000000000E+00 -0.00000000000E+00 -0.63044461215E+02  0.63044461215E+02  0.00000000000E+00 0.  1.
         25    2    1    2    0    0 -0.10564478001E+03 -0.13631554853E+03  0.28316132178E+03  0.35435904451E+03  0.12508896818E+03 0.  0.
          5    1    3    3  502    0 -0.28357884236E+02 -0.77298226660E+02  0.38383446195E+02  0.90939247770E+02  0.41800000000E+01 0.  1.
         -5    1    3    3    0  502 -0.77286895770E+02 -0.59017321868E+02  0.24477787559E+03  0.26341979674E+03  0.41800000000E+01 0.  1.
        -11    1    1    2    0    0  0.66205001101E+02  0.11122049820E+03  0.14756561003E+03  0.19628731659E+03  0.00000000000E+00 0.  1.
         11    1    1    2    0    0  0.39439778905E+02  0.25095050327E+02  0.17401713696E+03  0.18018663010E+03  0.00000000000E+00 0. -1.
</event>
<event>
 7    1  0.4168567E-009  0.1287688E+03  0.7561462E-02  0.1229294E+00
         -1   -1    0    0    0  501 -0.00000000000E+00  0.00000000000E+00  0.33643201030E+02  0.33643201030E+02  0.00000000000E+00 0.  1.
          1   -1    0    0  501    0  0.00000000000E+00 -0.00000000000E+00 -0.74333247779E+03  0.74333247779E+03  0.00000000000E+00 0. -1.
         25    2    1    2    0    0  0.91657369507E+02 -0.55460360731E+02 -0.47952245466E+03  0.50701779302E+03  0.12509329688E+03 0.  0.
          5    1    3    3  502    0  0.33495631926E+02  0.90135430481E+01 -0.21950891834E+02  0.41261548307E+02  0.41800000000E+01 0. -1.
         -5    1    3    3    0  502  0.58161737581E+02 -0.64473903779E+02 -0.45757156282E+03  0.46575624471E+03  0.41800000000E+01 0. -1.
        -11    1    1    2    0    0 -0.69992647354E+02  0.77729675790E+02 -0.14120094851E+03  0.17572302365E+03  0.00000000000E+00 0.  1.
         11    1    1    2    0    0 -0.21664722152E+02 -0.22269315058E+02 -0.88965873592E+02  0.94234862143E+02  0.00000000000E+00 0. -1.
</event>
<event>
 7    1  0.2841804E-009  0.1079043E+03  0.7561462E-02  0.1264501E+00
         -4   -1    0    0    0  501 -0.00000000000E+00  0.00000000000E+00  0.61554670778E+02  0.61554670778E+02  0.00000000000E+00 0.  1.
          4   -1    0    0  501    0  0.00000000000E+00 -0.00000000000E+00 -0.29054225789E+03  0.29054225789E+03  0.00000000000E+00 0. -1.
         25    2    1    2    0    0  0.60016392839E+02  0.51156179572E+02 -0.12164236594E+03  0.19147546278E+03  0.12508823101E+03 0.  0.
          5    1    3    3  502    0  0.15325625746E+02 -0.35416001993E+02 -0.45303872083E+01  0.39078956101E+02  0.41800000000E+01 0. -1.
         -5    1    3    3    0  502  0.44690767093E+02  0.86572181565E+02 -0.11711197874E+03  0.15239650668E+03  0.41800000000E+01 0. -1.
        -11    1    1    2    0    0 -0.13955443855E+02 -0.67742202827E+01  0.15620304614E+02  0.22014504079E+02  0.00000000000E+00 0.  1.
         11    1    1    2    0    0 -0.46060948985E+02 -0.44381959289E+02 -0.12296552578E+03  0.13860696181E+03  0.00000000000E+00 0. -1.
</event>
<event>
 6    1  0.2841804E-009  0.1187849E+03  0.7561462E-02  0.1245115E+00
         -2   -1    0    0    0  501 -0.00000000000E+00  0.00000000000E+00  0.21202309754E+03  0.21202309754E+03  0.00000000000E+00 0.  1.
          2   -1    0    0  501    0  0.00000000000E+00 -0.00000000000E+00 -0.11853678516E+03  0.11853678516E+03  0.00000000000E+00 0. -1.
          5    1    1    2  502    0  0.18601295549E+02  0.47137262704E+02  0.91085681819E+02  0.10431684219E+03  0.41800000000E+01 0. -1.
         -5    1    1    2    0  502 -0.75972068403E+02 -0.28202827541E+02  0.61389964221E+02  0.10175143619E+03  0.41800000000E+01 0. -1.
        -11    1    1    2    0    0  0.80392482952E+02 -0.10576044607E+02 -0.58516570403E+02  0.99994965106E+02  0.00000000000E+00 0. -1.
         11    1    1    2    0    0 -0.23021710097E+02 -0.83583905552E+01 -0.47276325683E+00  0.24496639230E+02  0.00000000000E+00 0.  1.
</event>
<event>
 7    1  0.3019383E-009  0.1609418E+03  0.7561462E-02  0.1187638E+00
         -2   -1    0    0    0  501 -0.00000000000E+00  0.00000000000E+00  0.25204765948E+03  0.25204765948E+03  0.00000000000E+00 0.  1.
          2   -1    0    0  501    0  0.00000000000E+00 -0.00000000000E+00 -0.15535455551E+03  0.15535455551E+03  0.00000000000E+00 0. -1.
         25    2    1    2    0    0 -0.15269937808E+03  0.73708923845E+01 -0.13541118944E+02  0.19798376621E+03  0.12507109842E+03 0.  0.
          5    1    3    3  502    0 -0.38068523295E+02  0.49317182181E+01 -0.62319281234E+02  0.73312342235E+02  0.41800000000E+01 0. -1.
         -5    1    3    3    0  502 -0.11463085479E+03  0.24391741664E+01  0.48778162289E+02  0.12467142398E+03  0.41800000000E+01 0. -1.
        -11    1    1    2    0    0  0.10800645752E+03 -0.37843298850E+02  0.10458069752E+03  0.15503106924E+03  0.00000000000E+00 0.  1.
         11    1    1    2    0    0  0.44692920560E+02  0.30472406466E+02  0.56535253898E+01  0.54387379541E+02  0.00000000000E+00 0. -1.
</event>
<event>
 7    1  0.2841804E-009  0.1038008E+03  0.7561462E-02  0.1272501E+00
          1   -1    0    0  501    0  0.00000000000E+00  0.00000000000E+00  0.36583511996E+03  0.36583511996E+03  0.00000000000E+00 0. -1.
         -1   -1    0    0    0  501 -0.00000000000E+00 -0.00000000000E+00 -0.45444900345E+02  0.45444900345E+02  0.00000000000E+00 0.  1.
         25    2    1    2    0    0  0.15371757842E+02 -0.50518737401E+02  0.10763147313E+03  0.17325737786E+03  0.12508057885E+03 0.  0.
          5    1    3    3  502    0 -0.78358184378E+01  0.33218882682E+02 -0.60823901215E+00  0.34390937352E+02  0.41800000000E+01 0. -1.
         -5    1    3    3    0  502  0.23207576279E+02 -0.83737620083E+02  0.10823971214E+03  0.13886644051E+03  0.41800000000E+01 0. -1.
        -11    1    1    2    0    0  0.26021331722E+02  0.88438888845E+01  0.14153671744E+02  0.30913597316E+02  0.00000000000E+00 0.  1.
         11    1    1    2    0    0 -0.41393089564E+02  0.41674848517E+02  0.19860507474E+03  0.20710904513E+03  0.00000000000E+00 0. -1.
</event>
<event>
 7    1  0.2841804E-009  0.1927807E+03  0.7561462E-02  0.1155977E+00
         -3   -1    0    0    0  501 -0.00000000000E+00  0.00000000000E+00  0.12671020708E+03  0.12671020708E+03  0.00000000000E+00 0.  1.
          3   -1    0    0  501    0  0.00000000000E+00 -0.00000000000E+00 -0.32536689188E+03  0.32536689188E+03  0.00000000000E+00 0. -1.
         25    2    1    2    0    0  0.17601730854E+01 -0.16907769848E+03 -0.13135680242E+03  0.24798056977E+03  0.12509751040E+03 0.  0.
          5    1    3    3  502    0  0.15522221814E+02 -0.18376268827E+03 -0.13292150404E+03  0.22736592446E+03  0.41800000000E+01 0. -1.
         -5    1    3    3    0  502 -0.13762048728E+02  0.14684989785E+02  0.15647016199E+01  0.20614645312E+02  0.41800000000E+01 0. -1.
        -11    1    1    2    0    0 -0.24260805722E+02  0.25444810725E+02 -0.44852440304E+02  0.56989178695E+02  0.00000000000E+00 0. -1.
         11    1    1    2    0    0  0.22500632637E+02  0.14363288776E+03 -0.22447442071E+02  0.14710735050E+03  0.00000000000E+00 0.  1.
</event>
<event>
 7    1  0.2841804E-009  0.1138291E+03  0.7561462E-02  0.1253639E+00
          2   -1    0    0  501    0  0.00000000000E+00  0.00000000000E+00  0.67009164914E+02  0.67009164914E+02  0.00000000000E+00 0. -1.
         -2   -1    0    0    0  501 -0.00000000000E+00 -0.00000000000E+00 -0.19827892710E+03  0.19827892710E+03  0.00000000000E+00 0.  1.
         25    2    1    2    0    0 -0.36299870474E+02  0.70979912384E+01 -0.65022819078E+02  0.14575232105E+03  0.12509080707E+03 0.  0.
          5    1    3    3  502    0 -0.82666195300E+02  0.70613109557E+01 -0.33734738882E+02  0.89660844103E+02  0.41800000000E+01 0. -1.
         -5    1    3    3    0  502  0.46366324826E+02  0.36680282710E-01 -0.31288080195E+02  0.56091476943E+02  0.41800000000E+01 0. -1.
        -11    1    1    2    0    0  0.45989281980E+02  0.33112676628E+02 -0.28037022407E+02  0.63226086673E+02  0.00000000000E+00 0. -1.
         11    1    1    2    0    0 -0.96894115063E+01 -0.40210667866E+02 -0.38209920705E+02  0.56309684299E+02  0.00000000000E+00 0.  1.
</event>
<event>
 7    1  0.2841804E-009  0.1085873E+03  0.7561462E-02  0.1263209E+00
         -1   -1    0    0    0  501 -0.00000000000E+00  0.00000000000E+00  0.73730499587E+02  0.73730499587E+02  0.00000000000E+00 0.  1.
          1   -1    0    0  501    0  0.00000000000E+00 -0.00000000000E+00 -0.23140110557E+03  0.23140110557E+03  0.00000000000E+00 0. -1.
         25    2    1    2    0    0 -0.14878724661E+02  0.51944209089E+02 -0.13805920884E+03  0.19397744054E+03  0.12508926807E+03 0.  0.
          5    1    3    3  502    0  0.37586066954E+02 -0.23155662243E+02 -0.40019763648E+02  0.59732327976E+02  0.41800000000E+01 0.  1.
         -5    1    3    3    0  502 -0.52464791615E+02  0.75099871332E+02 -0.98039445190E+02  0.13424511256E+03  0.41800000000E+01 0.  1.
        -11    1    1    2    0    0 -0.62107821426E+01 -0.58662962958E+02 -0.47366689084E+02  0.75653950806E+02  0.00000000000E+00 0. -1.
         11    1    1    2    0    0  0.21089506804E+02  0.67187538690E+01  0.27755291935E+02  0.35500213818E+02  0.00000000000E+00 0.  1.
</event>
<event>
 7    1  0.2841804E-009  0.1546484E+03  0.7561462E-02  0.1194875E+00
         -3   -1    0    0    0  501 -0.00000000000E+00  0.00000000000E+00  0.87179743110E+03  0.87179743110E+03  0.00000000000E+00 0.  1.
          3   -1    0    0  501    0  0.00000000000E+00 -0.00000000000E+00 -0.34577961278E+02  0.34577961278E+02  0.00000000000E+00 0. -1.
         25    2    1    2    0    0 -0.13027247946E+03  0.86047160297E+01  0.50886041318E+03  0.54002885968E+03  0.12508912482E+03 0.  0.
          5    1    3    3  502    0 -0.10459689889E+03  0.58451152330E+02  0.39888487542E+03  0.41651370290E+03  0.41800000000E+01 0. -1.
         -5    1    3    3    0  502 -0.25675580571E+02 -0.49846436300E+02  0.10997553776E+03  0.12351515678E+03  0.41800000000E+01 0. -1.
        -11    1    1    2    0    0  0.11962978861E+03 -0.15298856696E+02  0.33202461102E+03  0.35325017149E+03  0.00000000000E+00 0.  1.
         11    1    1    2    0    0  0.10642690859E+02  0.66941406658E+01 -0.36655543696E+01  0.13096361205E+02  0.00000000000E+00 0. -1.
</event>
<event>
 7    1  0.2841804E-009  0.1243216E+03  0.7561462E-02  0.1236133E+00
          3   -1    0    0  501    0  0.00000000000E+00  0.00000000000E+00  0.28365514362E+03  0.28365514362E+03  0.00000000000E+00 0. -1.
         -3   -1    0    0    0  501 -0.00000000000E+00 -0.00000000000E+00 -0.60103357355E+02  0.60103357355E+02  0.00000000000E+00 0.  1.
         25    2    1    2    0    0  0.30773723899E+02 -0.65627202020E+02  0.14255359650E+03  0.20303682655E+03  0.12509385810E+03 0.  0.
          5    1    3    3  502    0 -0.17450208295E+02  0.30675695042E+02  0.47529456561E+02  0.59346690530E+02  0.41800000000E+01 0.  1.
         -5    1    3    3    0  502  0.48223932194E+02 -0.96302897063E+02  0.95024139934E+02  0.14369013602E+03  0.41800000000E+01 0.  1.
        -11    1    1    2    0    0  0.15763364261E+02  0.55499827493E+02  0.15504236685E+02  0.59741910412E+02  0.00000000000E+00 0. -1.
         11    1    1    2    0    0 -0.46537088160E+02  0.10127374528E+02  0.65493953088E+02  0.80979764018E+02  0.00000000000E+00 0.  1.
</event>
<event>
 7    1  0.2841804E-009  0.1055538E+03  0.7561462E-02  0.1269032E+00
         -1   -1    0    0    0  501 -0.00000000000E+00  0.00000000000E+00  0.18961830501E+03  0.18961830501E+03  0.00000000000E+00 0.  1.
          1   -1    0    0  501    0  0.00000000000E+00 -0.00000000000E+00 -0.11636399788E+03  0.11636399788E+03  0.00000000000E+00 0. -1.
         25    2    1    2    0    0  0.32360898854E+01 -0.54346079050E+01  0.14610735465E+03  0.19244554683E+03  0.12509165509E+03 0.  0.
          5    1    3    3  502    0 -0.33227550042E+02 -0.54450216106E+02  0.78324068825E+02  0.10109910125E+03  0.41800000000E+01 0. -1.
         -5    1    3    3    0  502  0.36463639927E+02  0.49015608201E+02  0.67783285823E+02  0.91346445585E+02  0.41800000000E+01 0. -1.
        -11    1    1    2    0    0  0.38586737313E+02  0.17573492614E+02 -0.26830575999E+02  0.50176127267E+02  0.00000000000E+00 0.  1.
         11    1    1    2    0    0 -0.41822827198E+02 -0.12138884709E+02 -0.46022471511E+02  0.63360628792E+02  0.00000000000E+00 0. -1.
</event>
<event>
 7    1  0.2841804E-009  0.8895030E+02  0.7561462E-02  0.1305414E+00
          3   -1    0    0  501    0  0.00000000000E+00  0.00000000000E+00  0.15745620374E+03  0.15745620374E+03  0.00000000000E+00 0. -1.
         -3   -1    0    0    0  501 -0.00000000000E+00 -0.00000000000E+00 -0.10615302671E+03  0.10615302671E+03  0.00000000000E+00 0.  1.
         25    2    1    2    0    0 -0.38981312830E+02 -0.37637455139E+02 -0.13207478625E+02  0.13696006767E+03  0.12508997508E+03 0.  0.
          5    1    3    3  502    0  0.13289258611E+02 -0.14064911133E+02  0.48642259545E+02  0.52516358721E+02  0.41800000000E+01 0. -1.
         -5    1    3    3    0  502 -0.52270571441E+02 -0.23572544006E+02 -0.61849738170E+02  0.84443708951E+02  0.41800000000E+01 0. -1.
        -11    1    1    2    0    0 -0.12635007155E+02  0.46547885061E+02  0.55449428889E+02  0.73491415645E+02  0.00000000000E+00 0. -1.
         11    1    1    2    0    0  0.51616319985E+02 -0.89104299214E+01  0.90612267633E+01  0.53157747137E+02  0.00000000000E+00 0.  1.
</event>
<event>
 7    1  0.2841804E-009  0.1069009E+03  0.7561462E-02  0.1266419E+00
         -2   -1    0    0    0  501 -0.00000000000E+00  0.00000000000E+00  0.13279608507E+03  0.13279608507E+03  0.00000000000E+00 0. -1.
          2   -1    0    0  501    0  0.00000000000E+00 -0.00000000000E+00 -0.12860465321E+03  0.12860465321E+03  0.00000000000E+00 0.  1.
         25    2    1    2    0    0 -0.61382559750E+02 -0.32140946429E+02 -0.91312087474E+01  0.14328929298E+03  0.12509030111E+03 0.  0.
          5    1    3    3  502    0 -0.75805591802E+02 -0.26900782230E+02  0.41223901516E+02  0.90482165586E+02  0.41800000000E+01 0. -1.
         -5    1    3    3    0  502  0.14423032052E+02 -0.52401641989E+01 -0.50355110264E+02  0.52807127399E+02  0.41800000000E+01 0. -1.
        -11    1    1    2    0    0 -0.18896086717E+02  0.31895357115E+02  0.36508661054E+01  0.37251908972E+02  0.00000000000E+00 0.  1.
         11    1    1    2    0    0  0.80278646466E+02  0.24558931362E+00  0.96717745069E+01  0.80859536325E+02  0.00000000000E+00 0. -1.
</event>
<event>
 7    1  0.2841804E-009  0.7125717E+02  0.7561462E-02  0.1355869E+00
         -2   -1    0    0    0  501 -0.00000000000E+00  0.00000000000E+00  0.69204325003E+03  0.69204325003E+03  0.00000000000E+00 0.  1.
          2   -1    0    0  501    0  0.00000000000E+00 -0.00000000000E+00 -0.21931035419E+02  0.21931035419E+02  0.00000000000E+00 0. -1.
         25    2    1    2    0    0  0.28709170556E+02 -0.33198765515E+02  0.49133100457E+03  0.50889968401E+03  0.12508540214E+03 0.  0.
          5    1    3    3  502    0  0.67132255616E+01 -0.11997897534E+02 -0.20858305892E+01  0.14520331674E+02  0.41800000000E+01 0. -1.
         -5    1    3    3    0  502  0.21995944994E+02 -0.21200867981E+02  0.49341683516E+03  0.49437935234E+03  0.41800000000E+01 0. -1.
        -11    1    1    2    0    0 -0.31802082313E+02 -0.24116024110E+02  0.49220813598E+02  0.63369105640E+02  0.00000000000E+00 0.  1.
         11    1    1    2    0    0  0.30929117571E+01  0.57314789625E+02  0.12956039644E+03  0.14170549579E+03  0.00000000000E+00 0. -1.
</event>
<event>
 7    1  0.2841804E-009  0.8896193E+02  0.7561462E-02  0.1305385E+00
          1   -1    0    0  501    0  0.00000000000E+00  0.00000000000E+00  0.14233539008E+03  0.14233539008E+03  0.00000000000E+00 0. -1.
         -1   -1    0    0    0  501 -0.00000000000E+00 -0.00000000000E+00 -0.91282303671E+02  0.91282303671E+02  0.00000000000E+00 0.  1.
         25    2    1    2    0    0  0.27947907047E+02 -0.83046040897E+01  0.50427721154E+02  0.13799093666E+03  0.12509393104E+03 0.  0.
          5    1    3    3  502    0 -0.12897866802E+02 -0.38242738804E+02  0.72111553522E+02  0.82743039530E+02  0.41800000000E+01 0. -1.
         -5    1    3    3    0  502  0.40845773849E+02  0.29938134715E+02 -0.21683832368E+02  0.55247897133E+02  0.41800000000E+01 0. -1.
        -11    1    1    2    0    0 -0.52429629058E+02  0.23780882043E+02 -0.19017885022E+02  0.60630654826E+02  0.00000000000E+00 0.  1.
         11    1    1    2    0    0  0.24481722011E+02 -0.15476277954E+02  0.19643250275E+02  0.34996102259E+02  0.00000000000E+00 0. -1.
</event>
<event>
 7    1  0.2841804E-009  0.1433829E+03  0.7561462E-02  0.1208848E+00
         -2   -1    0    0    0  501 -0.00000000000E+00  0.00000000000E+00  0.63473986218E+02  0.63473986218E+02  0.00000000000E+00 0.  1.
          2   -1    0    0  501    0  0.00000000000E+00 -0.00000000000E+00 -0.45146013225E+03  0.45146013225E+03  0.00000000000E+00 0. -1.
         25    2    1    2    0    0  0.10982766405E+03  0.64111921169E+02 -0.21094059563E+03  0.27625396665E+03  0.12509142648E+03 0.  0.
          5    1    3    3  502    0  0.11672716413E+03  0.58159943103E+02 -0.22433606979E+03  0.25952255092E+03  0.41800000000E+01 0.  1.
         -5    1    3    3    0  502 -0.68995000836E+01  0.59519780660E+01  0.13395474160E+02  0.16731415728E+02  0.41800000000E+01 0.  1.
        -11    1    1    2    0    0 -0.12009276349E+03 -0.53420629407E+02 -0.18066932584E+03  0.22342211347E+03  0.00000000000E+00 0. -1.
         11    1    1    2    0    0  0.10265099436E+02 -0.10691291762E+02  0.36237754330E+01  0.15258038352E+02  0.00000000000E+00 0.  1.
</event>
<event>
 7    1  0.2841804E-009  0.1366491E+03  0.7561462E-02  0.1217910E+00
          3   -1    0    0  501    0  0.00000000000E+00  0.00000000000E+00  0.33752657366E+03  0.33752657366E+03  0.00000000000E+00 0. -1.
         -3   -1    0    0    0  501 -0.00000000000E+00 -0.00000000000E+00 -0.64770827319E+02  0.64770827319E+02  0.00000000000E+00 0.  1.
         25    2    1    2    0    0 -0.84132674138E+02  0.49840269034E+02  0.17842720571E+03  0.23884290868E+03  0.12508920024E+03 0.  0.
          5    1    3    3  502    0 -0.92683458722E+02  0.81454560557E+02  0.15593931756E+03  0.19889598316E+03  0.41800000000E+01 0. -1.
         -5    1    3    3    0  502  0.85507845838E+01 -0.31614291523E+02  0.22487888153E+02  0.39946925527E+02  0.41800000000E+01 0. -1.
        -11    1    1    2    0    0  0.33189279057E+02 -0.56417082109E+02  0.90845752044E+02  0.11197038029E+03  0.00000000000E+00 0. -1.
         11    1    1    2    0    0  0.50943395081E+02  0.65768130749E+01  0.34827885881E+01  0.51484112005E+02  0.00000000000E+00 0.  1.
</event>
<event>
 7    1  0.2841804E-009  0.1870224E+03  0.7561462E-02  0.1161175E+00
          4   -1    0    0  501    0  0.00000000000E+00  0.00000000000E+00  0.26139852902E+03  0.26139852902E+03  0.00000000000E+00 0. -1.
         -4   -1    0    0    0  501 -0.00000000000E+00 -0.00000000000E+00 -0.43949560517E+03  0.43949560517E+03  0.00000000000E+00 0.  1.
         25    2    1    2    0    0 -0.11188774583E+02  0.16063348240E+03 -0.37715620314E+03  0.42874435881E+03  0.12508644730E+03 0.  0.
          5    1    3    3  502    0  0.31109092164E+02  0.13490934619E+01 -0.25870464092E+02  0.40698267540E+02  0.41800000000E+01 0.  1.
         -5    1    3    3    0  502 -0.42297866747E+02  0.15928438894E+03 -0.35128573905E+03  0.38804609127E+03  0.41800000000E+01 0.  1.
        -11    1    1    2    0    0 -0.30799984636E+02 -0.43203726982E+02  0.98758621948E+02  0.11210917218E+03  0.00000000000E+00 0. -1.
         11    1    1    2    0    0  0.41988759219E+02 -0.11742975542E+03  0.10030050505E+03  0.16004060320E+03  0.00000000000E+00 0.  1.
</event>
<event>
 7    1  0.2841804E-009  0.1191670E+03  0.7561462E-02  0.1244478E+00
          3   -1    0    0  501    0  0.00000000000E+00  0.00000000000E+00  0.65514295508E+03  0.65514295508E+03  0.00000000000E+00 0. -1.
         -3   -1    0    0    0  501 -0.00000000000E+00 -0.00000000000E+00 -0.28234300468E+02  0.28234300468E+02  0.00000000000E+00 0.  1.
         25    2    1    2    0    0 -0.62401181830E+02  0.10189488476E+02  0.21215601041E+03  0.25427557810E+03  0.12509262047E+03 0.  0.
          5    1    3    3  502    0  0.37414209840E+02  0.13878970568E+02  0.57199791319E+02  0.69869431434E+02  0.41800000000E+01 0. -1.
         -5    1    3    3    0  502 -0.99815391671E+02 -0.36894820924E+01  0.15495621909E+03  0.18440614666E+03  0.41800000000E+01 0. -1.
        -11    1    1    2    0    0  0.22376377327E+01  0.27273511671E+02  0.45391633875E+02  0.53002376243E+02  0.00000000000E+00 0.  1.
         11    1    1    2    0    0  0.60163544098E+02 -0.37463000147E+02  0.36936101033E+03  0.37609930121E+03  0.00000000000E+00 0. -1.
</event>
<event>
 7    1  0.2841804E-009  0.1984923E+03  0.7561462E-02  0.1151017E+00
          1   -1    0    0  501    0  0.00000000000E+00  0.00000000000E+00  0.14465414789E+04  0.14465414789E+04  0.00000000000E+00 0. -1.
         -1   -1    0    0    0  501 -0.00000000000E+00 -0.00000000000E+00 -0.33251153262E+02  0.33251153262E+02  0.00000000000E+00 0.  1.
         25    2    1    2    0    0  0.64766363483E+02  0.17030642536E+03  0.91381697460E+03  0.94016411807E+03  0.12509254765E+03 0.  0.
          5    1    3    3  502    0 -0.74236317061E+01  0.14793670311E+00  0.27495835223E+03  0.27509034890E+03  0.41800000000E+01 0.  1.
         -5    1    3    3    0  502  0.72189995189E+02  0.17015848866E+03  0.63885862237E+03  0.66507376918E+03  0.41800000000E+01 0.  1.
        -11    1    1    2    0    0  0.23297627083E+01 -0.11923035945E+03  0.27046514332E+03  0.29558873483E+03  0.00000000000E+00 0.  1.
         11    1    1    2    0    0 -0.67096126192E+02 -0.51076065918E+02  0.22900820768E+03  0.24403977922E+03  0.00000000000E+00 0. -1.
</event>
<event>
 7    1  0.2841804E-009  0.8128038E+02  0.7561462E-02  0.1325457E+00
         -3   -1    0    0    0  501 -0.00000000000E+00  0.00000000000E+00  0.16219740781E+03  0.16219740781E+03  0.00000000000E+00 0.  1.
          3   -1    0    0  501    0  0.00000000000E+00 -0.00000000000E+00 -0.82228456105E+02  0.82228456105E+02  0.00000000000E+00 0. -1.
         25    2    1    2    0    0  0.22968466167E+02 -0.17283874907E+02  0.74838534716E+02  0.14856230640E+03  0.12507465704E+03 0.  0.
          5    1    3    3  502    0  0.46664001171E+02  0.37743603645E+02  0.11454128323E+02  0.61243596213E+02  0.41800000000E+01 0.  1.
         -5    1    3    3    0  502 -0.23695535004E+02 -0.55027478552E+02  0.63384406393E+02  0.87318710187E+02  0.41800000000E+01 0.  1.
        -11    1    1    2    0    0 -0.96987613549E+01  0.25121173057E+02  0.45377878456E+02  0.52766382866E+02  0.00000000000E+00 0.  1.
         11    1    1    2    0    0 -0.13269704812E+02 -0.78372981500E+01 -0.40247461467E+02  0.43097174648E+02  0.00000000000E+00 0. -1.
</event>
<event>
 7    1  0.2841804E-009  0.1029038E+03  0.7561462E-02  0.1274306E+00
         -1   -1    0    0    0  501 -0.00000000000E+00  0.00000000000E+00  0.59165720158E+02  0.59165720158E+02  0.00000000000E+00 0.  1.
          1   -1    0    0  501    0  0.00000000000E+00 -0.00000000000E+00 -0.34790910976E+03  0.34790910976E+03  0.00000000000E+00 0. -1.
         25    2    1    2    0    0 -0.91320664134E+02 -0.10412028435E+02 -0.13411268152E+03  0.20513781866E+03  0.12508972486E+03 0.  0.
          5    1    3    3  502    0 -0.25828564074E+02  0.98916607928E+01 -0.13354293778E+03  0.13644100669E+03  0.41800000000E+01 0.  1.
         -5    1    3    3    0  502 -0.65492100060E+02 -0.20303689228E+02 -0.56974373539E+00  0.68696811967E+02  0.41800000000E+01 0.  1.
        -11    1    1    2    0    0  0.10169967319E+02 -0.20033612598E+02  0.23788117470E+01  0.22592755793E+02  0.00000000000E+00 0.  1.
         11    1    1    2    0    0  0.81150696814E+02  0.30445641033E+02 -0.15700951983E+03  0.17934425547E+03  0.00000000000E+00 0. -1.
</event>
<event>
 7    1  0.2841804E-009  0.9996974E+02  0.7561462E-02  0.1280360E+00
          1   -1    0    0  501    0  0.00000000000E+00  0.00000000000E+00  0.31336688249E+02  0.31336688249E+02  0.00000000000E+00 0. -1.
         -1   -1    0    0    0  501 -0.00000000000E+00 -0.00000000000E+00 -0.42633975480E+03  0.42633975480E+03  0.00000000000E+00 0.  1.
         25    2    1    2    0    0 -0.16205283079E+01  0.59934381995E+01 -0.30122784083E+03  0.32622679655E+03  0.12508862171E+03 0.  0.
          5    1    3    3  502    0  0.38964044370E+02 -0.39972367615E+02 -0.87805269669E+02  0.10413080576E+03  0.41800000000E+01 0.  1.
         -5    1    3    3    0  502 -0.40584572678E+02  0.45965805815E+02 -0.21342257117E+03  0.22209599079E+03  0.41800000000E+01 0.  1.
        -11    1    1    2    0    0 -0.33446259303E+02  0.19892718505E+02 -0.73954522979E+02  0.83568199573E+02  0.00000000000E+00 0.  1.
         11    1    1    2    0    0  0.35066787611E+02 -0.25886156704E+02 -0.19820702734E+02  0.47881446919E+02  0.00000000000E+00 0. -1.
</event>
<event>
 7    1  0.2841804E-009  0.1060077E+03  0.7561462E-02  0.1268147E+00
          1   -1    0    0  501    0  0.00000000000E+00  0.00000000000E+00  0.12851550311E+03  0.12851550311E+03  0.00000000000E+00 0. -1.
         -1   -1    0    0    0  501 -0.00000000000E+00 -0.00000000000E+00 -0.94332307605E+02  0.94332307605E+02  0.00000000000E+00 0.  1.
         25    2    1    2    0    0 -0.18267067195E+02 -0.12660497196E+02  0.83777703659E+01  0.12732600850E+03  0.12509097278E+03 0.  0.
          5    1    3    3  502    0 -0.69325399513E+02 -0.62027645597E+01 -0.13884520643E+02  0.71096677976E+02  0.41800000000E+01 0. -1.
         -5    1    3    3    0  502  0.51058332318E+02 -0.64577326362E+01  0.22262291009E+02  0.56229330521E+02  0.41800000000E+01 0. -1.
        -11    1    1    2    0    0  0.26015686355E+02 -0.34304208996E+02  0.20318080625E+02  0.47606922728E+02  0.00000000000E+00 0. -1.
         11    1    1    2    0    0 -0.77486191609E+01  0.46964706191E+02  0.54873445122E+01  0.47914879488E+02  0.00000000000E+00 0.  1.
</event>
<event>
 7    1  0.2841804E-009  0.1413746E+03  0.7561462E-02  0.1211491E+00
         -2   -1    0    0    0  501 -0.00000000000E+00  0.00000000000E+00  0.23266934293E+02  0.23266934293E+02  0.00000000000E+00 0.  1.
          2   -1    0    0  501    0  0.00000000000E+00 -0.00000000000E+00 -0.10842561000E+04  0.10842561000E+04  0.00000000000E+00 0. -1.
         25    2    1    2    0    0 -0.83292170018E+02  0.75387404716E+02 -0.47134872061E+03  0.50043779983E+03  0.12509008234E+03 0.  0.
          5    1    3    3  502    0  0.22629591668E+02 -0.55897493423E+01 -0.24380167383E+02  0.33988360925E+02  0.41800000000E+01 0. -1.
         -5    1    3    3    0  502 -0.10592176169E+03  0.80977154059E+02 -0.44696855323E+03  0.46644943891E+03  0.41800000000E+01 0. -1.
        -11    1    1    2    0    0  0.28040581199E+02  0.46431624031E+01 -0.40974878983E+02  0.49867563193E+02  0.00000000000E+00 0.  1.
         11    1    1    2    0    0  0.55251588819E+02 -0.80030567120E+02 -0.54866556614E+03  0.55721767130E+03  0.00000000000E+00 0. -1.
</event>
<event>
 7    1  0.2841804E-009  0.1645461E+03  0.7561462E-02  0.1183658E+00
         -1   -1    0    0    0  501 -0.00000000000E+00  0.00000000000E+00  0.31835245143E+02  0.31835245143E+02  0.00000000000E+00 0.  1.
          1   -1    0    0  501    0  0.00000000000E+00 -0.00000000000E+00 -0.92386342419E+03  0.92386342419E+03  0.00000000000E+00 0. -1.
         25    2    1    2    0    0  0.12799698644E+03  0.30750398738E+02 -0.52074072718E+03  0.55148978473E+03  0.12506503171E+03 0.  0.
          5    1    3    3  502    0  0.87521365769E+02 -0.36396405667E+02 -0.20126714162E+03  0.22250982564E+03  0.41800000000E+01 0. -1.
         -5    1    3    3    0  502  0.40475620669E+02  0.67146804405E+02 -0.31947358556E+03  0.32897995909E+03  0.41800000000E+01 0. -1.
        -11    1    1    2    0    0 -0.86243476412E+02  0.21433206815E+02 -0.16562323622E+03  0.18795844209E+03  0.00000000000E+00 0.  1.
         11    1    1    2    0    0 -0.41753510026E+02 -0.52183605553E+02 -0.20566421565E+03  0.21625044251E+03  0.00000000000E+00 0. -1.
</event>
<event>
 7    1  0.2841804E-009  0.8008576E+02  0.7561462E-02  0.1328808E+00
         -2   -1    0    0    0  501 -0.00000000000E+00  0.00000000000E+00  0.11263301159E+03  0.11263301159E+03  0.00000000000E+00 0.  1.
          2   -1    0    0  501    0  0.00000000000E+00 -0.00000000000E+00 -0.11592018637E+03  0.11592018637E+03  0.00000000000E+00 0. -1.
         25    2    1    2    0    0  0.24720953926E+02  0.82821936421E+01 -0.11047089931E+02  0.12825553980E+03  0.12509086697E+03 0.  0.
          5    1    3    3  502    0 -0.35212607469E+02  0.12498709496E+02  0.35829202211E+02  0.51936014430E+02  0.41800000000E+01 0.  1.
         -5    1    3    3    0  502  0.59933561395E+02 -0.42165158534E+01 -0.46876292143E+02  0.76319525369E+02  0.41800000000E+01 0.  1.
        -11    1    1    2    0    0 -0.22842159492E+02  0.22172610889E+02  0.43116687882E+02  0.53595127556E+02  0.00000000000E+00 0.  1.
         11    1    1    2    0    0 -0.18787944346E+01 -0.30454804531E+02 -0.35356772724E+02  0.46702530606E+02  0.00000000000E+00 0. -1.
</event>
<event>
 7    1  0.2841804E-009  0.1197318E+03  0.7561462E-02  0.1243540E+00
          1   -1    0    0  501    0  0.00000000000E+00  0.00000000000E+00  0.74371947131E+03  0.74371947131E+03  0.00000000000E+00 0. -1.
         -1   -1    0    0    0  501 -0.00000000000E+00 -0.00000000000E+00 -0.26763605656E+02  0.26763605656E+02  0.00000000000E+00 0.  1.
         25    2    1    2    0    0  0.40067834477E+02  0.45422001615E+02  0.57303949568E+03  0.58965331747E+03  0.12509269206E+03 0.  0.
          5    1    3    3  502    0 -0.94987331844E+01 -0.34395839826E+02  0.79618896960E+02  0.87349532813E+02  0.41800000000E+01 0.  1.
         -5    1    3    3    0  502  0.49566567661E+02  0.79817841441E+02  0.49342059872E+03  0.50230378466E+03  0.41800000000E+01 0.  1.
        -11    1    1    2    0    0  0.29731379398E+02 -0.11451834420E+02  0.41808735961E+02  0.52564910683E+02  0.00000000000E+00 0.  1.
         11    1    1    2    0    0 -0.69799213875E+02 -0.33970167194E+02  0.10210763401E+03  0.12826484881E+03  0.00000000000E+00 0. -1.
</event>
<event>
 7    1  0.2841804E-009  0.1144386E+03  0.7561462E-02  0.1252564E+00
          2   -1    0    0  501    0  0.00000000000E+00  0.00000000000E+00  0.37770932805E+02  0.37770932805E+02  0.00000000000E+00 0. -1.
         -2   -1    0    0    0  501 -0.00000000000E+00 -0.00000000000E+00 -0.37830445503E+03  0.37830445503E+03  0.00000000000E+00 0.  1.
         25    2    1    2    0    0  0.25606521313E+02  0.42423732364E+02 -0.22008401973E+03  0.25794894071E+03  0.12508082695E+03 0.  0.
          5    1    3    3  502    0 -0.18739065646E+02 -0.34448012956E+02 -0.10767080393E+03  0.11466600454E+03  0.41800000000E+01 0.  1.
         -5    1    3    3    0  502  0.44345586959E+02  0.76871745320E+02 -0.11241321580E+03  0.14328293617E+03  0.41800000000E+01 0.  1.
        -11    1    1    2    0    0 -0.33786897084E+02 -0.66813739856E+02 -0.10172804386E+03  0.12631003585E+03  0.00000000000E+00 0.  1.
         11    1    1    2    0    0  0.81803757712E+01  0.24390007492E+02 -0.18721458631E+02  0.31816411276E+02  0.00000000000E+00 0. -1.
</event>
<event>
 7    1  0.2841804E-009  0.2197295E+03  0.7561462E-02  0.1134085E+00
          1   -1    0    0  501    0  0.00000000000E+00  0.00000000000E+00  0.41318605308E+03  0.41318605308E+03  0.00000000000E+00 0. -1.
         -1   -1    0    0    0  501 -0.00000000000E+00 -0.00000000000E+00 -0.11805650392E+03  0.11805650392E+03  0.00000000000E+00 0.  1.
         25    2    1    2    0    0 -0.13436448042E+03 -0.13621462081E+03  0.16006017100E+03  0.27907712820E+03  0.12512613085E+03 0.  0.
          5    1    3    3  502    0 -0.50500668387E+02  0.15609500306E+02  0.22224986152E+02  0.57492577058E+02  0.41800000000E+01 0. -1.
         -5    1    3    3    0  502 -0.83863812037E+02 -0.15182412111E+03  0.13783518485E+03  0.22158455114E+03  0.41800000000E+01 0. -1.
        -11    1    1    2    0    0  0.86202350521E+02  0.14023353687E+03  0.10480891753E+03  0.19514404755E+03  0.00000000000E+00 0. -1.
         11    1    1    2    0    0  0.48162129903E+02 -0.40189160652E+01  0.30260460633E+02  0.57021381261E+02  0.00000000000E+00 0.  1.
</event>
<event>
 7    1  0.2841804E-009  0.1145550E+03  0.7561462E-02  0.1252360E+00
          1   -1    0    0  501    0  0.00000000000E+00  0.00000000000E+00  0.16954358198E+03  0.16954358198E+03  0.00000000000E+00 0.  1.
         -1   -1    0    0    0  501 -0.00000000000E+00 -0.00000000000E+00 -0.81549760782E+02  0.81549760782E+02  0.00000000000E+00 0. -1.
         25    2    1    2    0    0 -0.22353845323E+02 -0.40849992908E+02  0.57541311700E+02  0.14534696618E+03  0.12508525774E+03 0.  0.
          5    1    3    3  502    0  0.51936670405E+02 -0.13992136956E+02  0.17745448804E+02  0.56794110457E+02  0.41800000000E+01 0. -1.
         -5    1    3    3    0  502 -0.74290515728E+02 -0.26857855953E+02  0.39795862896E+02  0.88552855725E+02  0.41800000000E+01 0. -1.
        -11    1    1    2    0    0  0.12483889384E+02 -0.25807420474E+02 -0.57704161021E+01  0.29243258157E+02  0.00000000000E+00 0. -1.
         11    1    1    2    0    0  0.98699559385E+01  0.66657413382E+02  0.36222925599E+02  0.76503118420E+02  0.00000000000E+00 0.  1.
</event>
<event>
 7    1  0.2841804E-009  0.1369694E+03  0.7561462E-02  0.1217466E+00
          2   -1    0    0  501    0  0.00000000000E+00  0.00000000000E+00  0.65119633533E+03  0.65119633533E+03  0.00000000000E+00 0. -1.
         -2   -1    0    0    0  501 -0.00000000000E+00 -0.00000000000E+00 -0.37598862584E+02  0.37598862584E+02  0.00000000000E+00 0.  1.
         25    2    1    2    0    0 -0.11120845351E+03 -0.24220573964E+01  0.34501515643E+03  0.38347986057E+03  0.12509260092E+03 0.  0.
          5    1    3    3  502    0 -0.13092036907E+03  0.62259990403E+01  0.33424732296E+03  0.35905104290E+03  0.41800000000E+01 0.  1.
         -5    1    3    3    0  502  0.19711915561E+02 -0.86480564366E+01  0.10767833467E+02  0.24428817671E+02  0.41800000000E+01 0.  1.
        -11    1    1    2    0    0  0.34775125506E+01 -0.11716389022E+02 -0.31871929919E+01  0.12630323211E+02  0.00000000000E+00 0.  1.
         11    1    1    2    0    0  0.10773094096E+03  0.14138446418E+02  0.27176950932E+03  0.29268501414E+03  0.00000000000E+00 0. -1.
</event>
<event>
 7    1  0.2841804E-009  0.1229380E+03  0.7561462E-02  0.1238328E+00
          1   -1    0    0  501    0  0.00000000000E+00  0.00000000000E+00  0.15960645634E+04  0.15960645634E+04  0.00000000000E+00 0. -1.
         -1   -1    0    0    0  501 -0.00000000000E+00 -0.00000000000E+00 -0.12199901332E+02  0.12199901332E+02  0.00000000000E+00 0.  1.
         25    2    1    2    0    0  0.83875792775E+02 -0.44202724172E+01  0.10508116295E+04  0.10615589185E+04  0.12509024473E+03 0.  0.
          5    1    3    3  502    0  0.79989927837E+02 -0.42778227234E+02  0.93558493047E+03  0.93998138269E+03  0.41800000000E+01 0. -1.
         -5    1    3    3    0  502  0.38858649376E+01  0.38357954817E+02  0.11522669907E+03  0.12157753585E+03  0.41800000000E+01 0. -1.
        -11    1    1    2    0    0 -0.22652770570E+02 -0.36280490128E+02  0.12586254484E+03  0.13293156951E+03  0.00000000000E+00 0.  1.
         11    1    1    2    0    0 -0.61223022204E+02  0.40700762545E+02  0.40719048765E+03  0.41377397665E+03  0.00000000000E+00 0. -1.
</event>
<event>
 7    1  0.2841804E-009  0.1902994E+03  0.7561462E-02  0.1158192E+00
          2   -1    0    0  501    0  0.00000000000E+00  0.00000000000E+00  0.24654209020E+03  0.24654209020E+03  0.00000000000E+00 0. -1.
         -2   -1    0    0    0  501 -0.00000000000E+00 -0.00000000000E+00 -0.25072733188E+03  0.25072733188E+03  0.00000000000E+00 0.  1.
         25    2    1    2    0    0 -0.18684907650E+03 -0.17371111054E+02  0.11883593249E+03  0.25491734783E+03  0.12508614026E+03 0.  0.
          5    1    3    3  502    0 -0.34859580681E+02 -0.12201814780E+02 -0.25605898758E+02  0.45135452810E+02  0.41800000000E+01 0.  1.
         -5    1    3    3    0  502 -0.15198949582E+03 -0.51692962748E+01  0.14444183125E+03  0.20978189502E+03  0.41800000000E+01 0.  1.
        -11    1    1    2    0    0  0.14075436870E+03  0.29100674527E+02 -0.13058174462E+03  0.19419122945E+03  0.00000000000E+00 0.  1.
         11    1    1    2    0    0  0.46094707795E+02 -0.11729563473E+02  0.75605704448E+01  0.48160844796E+02  0.00000000000E+00 0. -1.
</event>
<event>
 7    1  0.2841804E-009  0.1538816E+03  0.7561462E-02  0.1195783E+00
          3   -1    0    0  501    0  0.00000000000E+00  0.00000000000E+00  0.39089549092E+02  0.39089549092E+02  0.00000000000E+00 0. -1.
         -3   -1    0    0    0  501 -0.00000000000E+00 -0.00000000000E+00 -0.79559328142E+03  0.79559328142E+03  0.00000000000E+00 0.  1.
         25    2    1    2    0    0  0.76120771717E+02  0.11612455305E+03 -0.41278374922E+03  0.45311791915E+03  0.12508453672E+03 0.  0.
          5    1    3    3  502    0  0.66274274334E+02  0.25718116213E+02 -0.75589782877E+02  0.10385079978E+03  0.41800000000E+01 0.  1.
         -5    1    3    3    0  502  0.98464973824E+01  0.90406436840E+02 -0.33719396634E+03  0.34926711937E+03  0.41800000000E+01 0.  1.
        -11    1    1    2    0    0 -0.55307483696E+02 -0.11109621516E+03 -0.33699805518E+03  0.35912250830E+03  0.00000000000E+00 0.  1.
         11    1    1    2    0    0 -0.20813288020E+02 -0.50283378908E+01 -0.67219279363E+01  0.22442403065E+02  0.00000000000E+00 0. -1.
</event>
<event>
 7    1  0.2841804E-009  0.1707103E+03  0.7561462E-02  0.1177109E+00
         -2   -1    0    0    0  501 -0.00000000000E+00  0.00000000000E+00  0.69227200688E+03  0.69227200688E+03  0.00000000000E+00 0.  1.
          2   -1    0    0  501    0  0.00000000000E+00 -0.00000000000E+00 -0.56944107689E+02  0.56944107689E+02  0.00000000000E+00 0. -1.
         25    2    1    2    0    0  0.10640918842E+03 -0.47128030777E+02  0.48500830700E+03  0.51422233085E+03  0.12509029148E+03 0.  0.
          5    1    3    3  502    0 -0.84220497870E+01 -0.44895683001E+02  0.70761226324E+02  0.84327793909E+02  0.41800000000E+01 0. -1.
         -5    1    3    3    0  502  0.11483123820E+03 -0.22323477761E+01  0.41424708068E+03  0.42989453695E+03  0.41800000000E+01 0. -1.
        -11    1    1    2    0    0 -0.63796840293E+02  0.96325162034E+02  0.95306780482E+02  0.14977301519E+03  0.00000000000E+00 0.  1.
         11    1    1    2    0    0 -0.42612348124E+02 -0.49197131257E+02  0.55012811704E+02  0.85220768526E+02  0.00000000000E+00 0. -1.
</event>
<event>
 7    1  0.2841804E-009  0.1605106E+03  0.7561462E-02  0.1188121E+00
          1   -1    0    0  501    0  0.00000000000E+00  0.00000000000E+00  0.75236531788E+03  0.75236531788E+03  0.00000000000E+00 0. -1.
         -1   -1    0    0    0  501 -0.00000000000E+00 -0.00000000000E+00 -0.40013215242E+02  0.40013215242E+02  0.00000000000E+00 0.  1.
         25    2    1    2    0    0  0.53403938912E+02 -0.12138193225E+03  0.39998746867E+03  0.43957169492E+03  0.12509094976E+03 0.  0.
          5    1    3    3  502    0 -0.19327747853E+02  0.18508670566E+01  0.65725297412E+01  0.20920279471E+02  0.41800000000E+01 0. -1.
         -5    1    3    3    0  502  0.72731686765E+02 -0.12323279931E+03  0.39341493892E+03  0.41865141544E+03  0.41800000000E+01 0. -1.
        -11    1    1    2    0    0 -0.23830362515E+02 -0.81141842407E+01  0.93124352160E+02  0.96466943192E+02  0.00000000000E+00 0.  1.
         11    1    1    2    0    0 -0.29573576397E+02  0.12949611649E+03  0.21924028182E+03  0.25633989502E+03  0.00000000000E+00 0. -1.
</event>
<event>
 7    1  0.2841804E-009  0.8163494E+02  0.7561462E-02  0.1324475E+00
          1   -1    0    0  501    0  0.00000000000E+00  0.00000000000E+00  0.78821350815E+02  0.78821350815E+02  0.00000000000E+00 0. -1.
         -1   -1    0    0    0  501 -0.00000000000E+00 -0.00000000000E+00 -0.17241212582E+03  0.17241212582E+03  0.00000000000E+00 0.  1.
         25    2    1    2    0    0  0.26703193765E+02  0.34171216596E+02 -0.63294284859E+02  0.14674551249E+03  0.12508935342E+03 0.  0.
          5    1    3    3  502    0 -0.23612654691E+02  0.14046402499E+02 -0.84080413353E+02  0.88554204837E+02  0.41800000000E+01 0.  1.
         -5    1    3    3    0  502  0.50315848456E+02  0.20124814097E+02  0.20786128493E+02  0.58191307650E+02  0.41800000000E+01 0.  1.
        -11    1    1    2    0    0 -0.41095470857E+02  0.30613759370E+01  0.15235743343E+02  0.43935607686E+02  0.00000000000E+00 0. -1.
         11    1    1    2    0    0  0.14392277091E+02 -0.37232592533E+02 -0.45532233486E+02  0.60552356460E+02  0.00000000000E+00 0.  1.
</event>
<event>
 7    1  0.2841804E-009  0.1136767E+03  0.7561462E-02  0.1253909E+00
         -1   -1    0    0    0  501 -0.00000000000E+00  0.00000000000E+00  0.23464384283E+02  0.23464384283E+02  0.00000000000E+00 0.  1.
          1   -1    0    0  501    0  0.00000000000E+00 -0.00000000000E+00 -0.61890971596E+03  0.61890971596E+03  0.00000000000E+00 0. -1.
         25    2    1    2    0    0 -0.16149556620E+02  0.43761385643E+02 -0.26673666614E+03  0.29828154295E+03  0.12509021846E+03 0.  0.
          5    1    3    3  502    0  0.41375340699E+02  0.60190799227E+02 -0.13540677095E+03  0.15390684568E+03  0.41800000000E+01 0.  1.
         -5    1    3    3    0  502 -0.57524897319E+02 -0.16429413585E+02 -0.13132989519E+03  0.14437469727E+03  0.41800000000E+01 0.  1.
        -11    1    1    2    0    0  0.38410774121E+02 -0.56691818419E+02 -0.28718036893E+03  0.29523196667E+03  0.00000000000E+00 0. -1.
         11    1    1    2    0    0 -0.22261217501E+02  0.12930432776E+02 -0.41528296615E+02  0.48860590624E+02  0.00000000000E+00 0.  1.
</event>
<event>
 7    1  0.2841804E-009  0.1077286E+03  0.7561462E-02  0.1264835E+00
         -4   -1    0    0    0  501 -0.00000000000E+00  0.00000000000E+00  0.44512435771E+03  0.44512435771E+03  0.00000000000E+00 0.  1.
          4   -1    0    0  501    0  0.00000000000E+00 -0.00000000000E+00 -0.45785841563E+02  0.45785841563E+02  0.00000000000E+00 0. -1.
         25    2    1    2    0    0 -0.71252053230E+02 -0.55154748456E+02  0.18505189182E+03  0.24085396887E+03  0.12509008868E+03 0.  0.
          5    1    3    3  502    0 -0.25377939938E+02 -0.32813632810E+02 -0.68403302631E+01  0.42249696470E+02  0.41800000000E+01 0. -1.
         -5    1    3    3    0  502 -0.45874113292E+02 -0.22341115646E+02  0.19189222209E+03  0.19860427240E+03  0.41800000000E+01 0. -1.
        -11    1    1    2    0    0  0.33688803341E+02 -0.19551064804E+02  0.10806980293E+03  0.11487498383E+03  0.00000000000E+00 0.  1.
         11    1    1    2    0    0  0.37563249889E+02  0.74705813260E+02  0.10621682140E+03  0.13518124657E+03  0.00000000000E+00 0. -1.
</event>
<event>
 7    1  0.2841804E-009  0.1305383E+03  0.7561462E-02  0.1226659E+00
          1   -1    0    0  501    0  0.00000000000E+00  0.00000000000E+00  0.49473737220E+02  0.49473737220E+02  0.00000000000E+00 0. -1.
         -1   -1    0    0    0  501 -0.00000000000E+00 -0.00000000000E+00 -0.40085062914E+03  0.40085062914E+03  0.00000000000E+00 0.  1.
         25    2    1    2    0    0  0.62724284898E+02 -0.64681937613E+02 -0.19272751856E+03  0.24679623635E+03  0.12508555832E+03 0.  0.
          5    1    3    3  502    0  0.45528847230E+02 -0.92319072026E+02 -0.83088901596E+02  0.13235152042E+03  0.41800000000E+01 0.  1.
         -5    1    3    3    0  502  0.17195437668E+02  0.27637134413E+02 -0.10963861696E+03  0.11444471593E+03  0.41800000000E+01 0.  1.
        -11    1    1    2    0    0 -0.71006505450E+01  0.69078090198E+02 -0.68730013118E+02  0.97703717876E+02  0.00000000000E+00 0.  1.
         11    1    1    2    0    0 -0.55623634353E+02 -0.43961525853E+01 -0.89919360241E+02  0.10582441213E+03  0.00000000000E+00 0. -1.
</event>
<event>
 7    1  0.2841804E-009  0.1675965E+03  0.7561462E-02  0.1180378E+00
         -1   -1    0    0    0  501 -0.00000000000E+00  0.00000000000E+00  0.77662790032E+02  0.77662790032E+02  0.00000000000E+00 0. -1.
          1   -1    0    0  501    0  0.00000000000E+00 -0.00000000000E+00 -0.42084742312E+03  0.42084742312E+03  0.00000000000E+00 0.  1.
         25    2    1    2    0    0  0.77876091156E+02  0.11876097421E+03 -0.14684700033E+03  0.23954198626E+03  0.12508983614E+03 0.  0.
          5    1    3    3  502    0  0.51949889888E+02 -0.10129428024E+02 -0.67670280607E+02  0.86012415667E+02  0.41800000000E+01 0.  1.
         -5    1    3    3    0  502  0.25926201268E+02  0.12889040224E+03 -0.79176719727E+02  0.15352957060E+03  0.41800000000E+01 0.  1.
        -11    1    1    2    0    0 -0.41938569755E+02 -0.10320658245E+03 -0.18861135528E+03  0.21905407011E+03  0.00000000000E+00 0.  1.
         11    1    1    2    0    0 -0.35937521402E+02 -0.15554391766E+02 -0.77262774792E+01  0.39914156779E+02  0.00000000000E+00 0. -1.
</event>
<event>
 7    1  0.2841804E-009  0.1057994E+03  0.7561462E-02  0.1268553E+00
         -1   -1    0    0    0  501 -0.00000000000E+00  0.00000000000E+00  0.43326236178E+02  0.43326236178E+02  0.00000000000E+00 0.  1.
          1   -1    0    0  501    0  0.00000000000E+00 -0.00000000000E+00 -0.29552374082E+03  0.29552374082E+03  0.00000000000E+00 0. -1.
         25    2    1    2    0    0  0.14142452042E+02  0.13001002144E+02 -0.11045500609E+03  0.16798005868E+03  0.12509179325E+03 0.  0.
          5    1    3    3  502    0 -0.49041082654E+02  0.19790805246E+02 -0.83277899499E+02  0.98738972575E+02  0.41800000000E+01 0.  1.
         -5    1    3    3    0  502  0.63183534696E+02 -0.67898031024E+01 -0.27177106589E+02  0.69241086108E+02  0.41800000000E+01 0.  1.
        -11    1    1    2    0    0  0.23383794238E+02 -0.41574189870E+02 -0.62040312145E+02  0.78257366601E+02  0.00000000000E+00 0.  1.
         11    1    1    2    0    0 -0.37526246280E+02  0.28573187726E+02 -0.79702186406E+02  0.92612551712E+02  0.00000000000E+00 0. -1.
</event>
<event>
 7    1  0.2841804E-009  0.1163939E+03  0.7561462E-02  0.1249167E+00
          1   -1    0    0  501    0  0.00000000000E+00  0.00000000000E+00  0.49593508362E+03  0.49593508362E+03  0.00000000000E+00 0. -1.
         -1   -1    0    0    0  501 -0.00000000000E+00 -0.00000000000E+00 -0.34123754253E+02  0.34123754253E+02  0.00000000000E+00 0.  1.
         25    2    1    2    0    0  0.62063684824E+02 -0.13187001616E+02  0.33578091351E+03  0.36390834977E+03  0.12511861239E+03 0.  0.
          5    1    3    3  502    0 -0.29329384645E+02  0.12436818557E+02  0.30942193161E+02  0.44606938665E+02  0.41800000000E+01 0.  1.
         -5    1    3    3    0  502  0.91393069469E+02 -0.25623820173E+02  0.30483872035E+03  0.31930141110E+03  0.41800000000E+01 0.  1.
        -11    1    1    2    0    0 -0.33528023287E+02 -0.35741822678E+02  0.76803703961E+02  0.91106614337E+02  0.00000000000E+00 0.  1.
         11    1    1    2    0    0 -0.28535661537E+02  0.48928824294E+02  0.49226711895E+02  0.75043873768E+02  0.00000000000E+00 0. -1.
</event>
<event>
 7    1  0.2841804E-009  0.8234872E+02  0.7561462E-02  0.1322515E+00
         -3   -1    0    0    0  501 -0.00000000000E+00  0.00000000000E+00  0.34719159432E+03  0.34719159432E+03  0.00000000000E+00 0.  1.
          3   -1    0    0  501    0  0.00000000000E+00 -0.00000000000E+00 -0.39773534230E+02  0.39773534230E+02  0.00000000000E+00 0. -1.
         25    2    1    2    0    0 -0.11727910229E+02 -0.10158286812E+02  0.10521200849E+03  0.16418672337E+03  0.12508788404E+03 0.  0.
          5    1    3    3  502    0 -0.33524180458E+02 -0.28532883355E+02 -0.10074913630E+02  0.45353857527E+02  0.41800000000E+01 0.  1.
         -5    1    3    3    0  502  0.21796270229E+02  0.18374596543E+02  0.11528692212E+03  0.11883286585E+03  0.41800000000E+01 0.  1.
        -11    1    1    2    0    0  0.29700927650E+02  0.44151502822E+02  0.95037062699E+02  0.10891989530E+03  0.00000000000E+00 0.  1.
         11    1    1    2    0    0 -0.17973017420E+02 -0.33993216010E+02  0.10716898890E+03  0.11385850988E+03  0.00000000000E+00 0. -1.
</event>
<event>
 7    1  0.2841804E-009  0.1202184E+03  0.7561462E-02  0.1242737E+00
          2   -1    0    0  501    0  0.00000000000E+00  0.00000000000E+00  0.68731279431E+03  0.68731279431E+03  0.00000000000E+00 0. -1.
         -2   -1    0    0    0  501 -0.00000000000E+00 -0.00000000000E+00 -0.35966258479E+02  0.35966258479E+02  0.00000000000E+00 0.  1.
         25    2    1    2    0    0 -0.94809387055E+02 -0.45883986469E+02  0.44356238601E+03  0.47274679595E+03  0.12509109765E+03 0.  0.
          5    1    3    3  502    0 -0.11158368619E+02 -0.80152168286E+01 -0.47365105441E+01  0.15121502015E+02  0.41800000000E+01 0.  1.
         -5    1    3    3    0  502 -0.83651018436E+02 -0.37868769640E+02  0.44829889655E+03  0.45762529394E+03  0.41800000000E+01 0.  1.
        -11    1    1    2    0    0  0.70925272111E+02 -0.11638512354E+02  0.75069712541E+02  0.10392935550E+03  0.00000000000E+00 0.  1.
         11    1    1    2    0    0  0.23884114945E+02  0.57522498823E+02  0.13271443728E+03  0.14660290133E+03  0.00000000000E+00 0. -1.
</event>
<event>
 7    1  0.3395627E-009  0.7806394E+02  0.7561462E-02  0.1334637E+00
          2   -1    0    0  501    0  0.00000000000E+00  0.00000000000E+00  0.31204516854E+03  0.31204516854E+03  0.00000000000E+00 0. -1.
         -2   -1    0    0    0  501 -0.00000000000E+00 -0.00000000000E+00 -0.54399645820E+02  0.54399645820E+02  0.00000000000E+00 0.  1.
         25    2    1    2    0    0  0.60766657821E+02  0.83046605262E+01  0.19635606536E+03  0.24075833447E+03  0.12508923666E+03 0.  0.
          5    1    3    3  502    0  0.16064238818E+02 -0.28675621197E+02 -0.28291158474E+01  0.33253981961E+02  0.41800000000E+01 0. -1.
         -5    1    3    3    0  502  0.44702419002E+02  0.36980281723E+02  0.19918518120E+03  0.20750435251E+03  0.41800000000E+01 0. -1.
        -11    1    1    2    0    0 -0.35963648356E+02 -0.15261681503E+02 -0.17488549602E+02  0.42803648122E+02  0.00000000000E+00 0.  1.
         11    1    1    2    0    0 -0.24803009464E+02  0.69570209769E+01  0.78778006967E+02  0.82882831763E+02  0.00000000000E+00 0. -1.
</event>
<event>
 7    1  0.2841804E-009  0.1073744E+03  0.7561462E-02  0.1265511E+00
          1   -1    0    0  501    0  0.00000000000E+00  0.00000000000E+00  0.34204497554E+03  0.34204497554E+03  0.00000000000E+00 0. -1.
         -1   -1    0    0    0  501 -0.00000000000E+00 -0.00000000000E+00 -0.52474913643E+02  0.52474913643E+02  0.00000000000E+00 0.  1.
         25    2    1    2    0    0 -0.98276190496E+01 -0.78069815530E+02  0.15164720413E+03  0.21174457365E+03  0.12508961490E+03 0.  0.
          5    1    3    3  502    0 -0.20670914534E+02 -0.82450557245E+02  0.31176933560E+02  0.90635835540E+02  0.41800000000E+01 0. -1.
         -5    1    3    3    0  502  0.10843295484E+02  0.43807417153E+01  0.12047027057E+03  0.12110873811E+03  0.41800000000E+01 0. -1.
        -11    1    1    2    0    0 -0.25177207055E+02  0.78269386489E+02  0.77740911117E+02  0.11315316115E+03  0.00000000000E+00 0.  1.
         11    1    1    2    0    0  0.35004826104E+02 -0.19957095887E+00  0.60181946650E+02  0.69622154389E+02  0.00000000000E+00 0. -1.
</event>
<event>
 7    1  0.2841804E-009  0.8862555E+02  0.7561462E-02  0.1306215E+00
          2   -1    0    0  501    0  0.00000000000E+00  0.00000000000E+00  0.55749804936E+02  0.55749804936E+02  0.00000000000E+00 0. -1.
         -2   -1    0    0    0  501 -0.00000000000E+00 -0.00000000000E+00 -0.31587512783E+03  0.31587512783E+03  0.00000000000E+00 0.  1.
         25    2    1    2    0    0 -0.52257234358E+02 -0.34304125783E+02 -0.81739466036E+02  0.16197724447E+03  0.12509075038E+03 0.  0.
          5    1    3    3  502    0 -0.75890261832E+02 -0.17374756052E+02 -0.30947418970E+01  0.78027327368E+02  0.41800000000E+01 0. -1.
         -5    1    3    3    0  502  0.23633027474E+02 -0.16929369731E+02 -0.78644724139E+02  0.83949917105E+02  0.41800000000E+01 0. -1.
        -11    1    1    2    0    0  0.33328487725E+02  0.31705066910E+01 -0.67060640380E+01  0.34143981923E+02  0.00000000000E+00 0. -1.
         11    1    1    2    0    0  0.18928746633E+02  0.31133619092E+02 -0.17167979282E+03  0.17550370637E+03  0.00000000000E+00 0.  1.
</event>
<event>
 7    1  0.2841804E-009  0.1260025E+03  0.7561462E-02  0.1233511E+00
          1   -1    0    0  501    0  0.00000000000E+00  0.00000000000E+00  0.45793708341E+03  0.45793708341E+03  0.00000000000E+00 0. -1.
         -1   -1    0    0    0  501 -0.00000000000E+00 -0.00000000000E+00 -0.38374096735E+02  0.38374096735E+02  0.00000000000E+00 0.  1.
         25    2    1    2    0    0  0.51971125818E+02 -0.53491986283E+02  0.26330286336E+03  0.30089105354E+03  0.12507852626E+03 0.  0.
          5    1    3    3  502    0 -0.21309939494E+02  0.25379383315E+02  0.98364393321E+02  0.10388095539E+03  0.41800000000E+01 0. -1.
         -5    1    3    3    0  502  0.73281065313E+02 -0.78871369597E+02  0.16493847004E+03  0.19701009815E+03  0.41800000000E+01 0. -1.
        -11    1    1    2    0    0 -0.71294153165E+02  0.23280905326E+02  0.13295871400E+03  0.15265279709E+03  0.00000000000E+00 0. -1.
         11    1    1    2    0    0  0.19323027346E+02  0.30211080956E+02  0.23301409308E+02  0.42767329518E+02  0.00000000000E+00 0.  1.
</event>
<event>
 7    1  0.2841804E-009  0.2460947E+03  0.7561462E-02  0.1115798E+00
          2   -1    0    0  501    0  0.00000000000E+00  0.00000000000E+00  0.23312668002E+04  0.23312668002E+04  0.00000000000E+00 0. -1.
         -2   -1    0    0    0  501 -0.00000000000E+00 -0.00000000000E+00 -0.33511591022E+02  0.33511591022E+02  0.00000000000E+00 0.  1.
         25    2    1    2    0    0 -0.96131123883E+02 -0.21630584931E+03  0.15892466262E+04  0.16116397796E+04  0.12509407236E+03 0.  0.
          5    1    3    3  502    0 -0.79684162748E+01 -0.27324568642E+02  0.59775974051E+03  0.59845159160E+03  0.41800000000E+01 0.  1.
         -5    1    3    3    0  502 -0.88162707608E+02 -0.18898128067E+03  0.99148688571E+03  0.10131881880E+04  0.41800000000E+01 0.  1.
        -11    1    1    2    0    0  0.55421452999E+02  0.27818056994E+02  0.19466672213E+03  0.20430495454E+03  0.00000000000E+00 0.  1.
         11    1    1    2    0    0  0.40709670884E+02  0.18848779232E+03  0.51384186084E+03  0.54883365704E+03  0.00000000000E+00 0. -1.
</event>
<event>
 7    1  0.2841804E-009  0.1202289E+03  0.7561462E-02  0.1242720E+00
         -3   -1    0    0    0  501 -0.00000000000E+00  0.00000000000E+00  0.46199226198E+02  0.46199226198E+02  0.00000000000E+00 0.  1.
          3   -1    0    0  501    0  0.00000000000E+00 -0.00000000000E+00 -0.38368973063E+03  0.38368973063E+03  0.00000000000E+00 0. -1.
         25    2    1    2    0    0 -0.19519551234E+02  0.75102487599E+02 -0.17029446789E+03  0.22509930455E+03  0.12509234425E+03 0.  0.
          5    1    3    3  502    0  0.13683114140E+02  0.91145047982E+02 -0.16296795246E+03  0.18727165646E+03  0.41800000000E+01 0.  1.
         -5    1    3    3    0  502 -0.33202665374E+02 -0.16042560383E+02 -0.73265154305E+01  0.37827648089E+02  0.41800000000E+01 0.  1.
        -11    1    1    2    0    0 -0.55754106640E+01 -0.84205893244E+02 -0.15256075278E+03  0.17434592324E+03  0.00000000000E+00 0.  1.
         11    1    1    2    0    0  0.25094961898E+02  0.91034056453E+01 -0.14635283757E+02  0.30443729037E+02  0.00000000000E+00 0. -1.
</event>
<event>
 7    1  0.2841804E-009  0.1192284E+03  0.7561462E-02  0.1244375E+00
         -1   -1    0    0    0  501 -0.00000000000E+00  0.00000000000E+00  0.21927625718E+02  0.21927625718E+02  0.00000000000E+00 0.  1.
          1   -1    0    0  501    0  0.00000000000E+00 -0.00000000000E+00 -0.73365274297E+03  0.73365274297E+03  0.00000000000E+00 0. -1.
         25    2    1    2    0    0 -0.39034630988E+02 -0.41867757100E+02 -0.30480405657E+03  0.33440848358E+03  0.12508760726E+03 0.  0.
          5    1    3    3  502    0 -0.87014892933E+01  0.41275887660E+02 -0.15173938286E+03  0.15754912735E+03  0.41800000000E+01 0.  1.
         -5    1    3    3    0  502 -0.30333141695E+02 -0.83143644760E+02 -0.15306467371E+03  0.17685935623E+03  0.41800000000E+01 0.  1.
        -11    1    1    2    0    0  0.50699511477E+02 -0.12204836810E+02 -0.22837530207E+03  0.23425344630E+03  0.00000000000E+00 0.  1.
         11    1    1    2    0    0 -0.11664880489E+02  0.54072593909E+02 -0.17854575862E+03  0.18691843882E+03  0.00000000000E+00 0. -1.
</event>
<event>
 7    1  0.2841804E-009  0.1153339E+03  0.7561462E-02  0.1250999E+00
         -2   -1    0    0    0  501 -0.00000000000E+00  0.00000000000E+00  0.53334038334E+02  0.53334038334E+02  0.00000000000E+00 0.  1.
          2   -1    0    0  501    0  0.00000000000E+00 -0.00000000000E+00 -0.27735595572E+03  0.27735595572E+03  0.00000000000E+00 0. -1.
         25    2    1    2    0    0  0.13015519714E+02  0.52454416385E+02 -0.14236849841E+03  0.19706343277E+03  0.12507732666E+03 0.  0.
          5    1    3    3  502    0  0.59979668445E+02  0.58862577714E+02 -0.65379324654E+02  0.10655652103E+03  0.41800000000E+01 0. -1.
         -5    1    3    3    0  502 -0.46964148730E+02 -0.64081613286E+01 -0.76989173756E+02  0.90506911742E+02  0.41800000000E+01 0. -1.
        -11    1    1    2    0    0  0.20729755671E+02 -0.60752883764E+02 -0.74148677388E+02  0.98074777666E+02  0.00000000000E+00 0. -1.
         11    1    1    2    0    0 -0.33745275386E+02  0.82984673782E+01 -0.75047415838E+01  0.35551783611E+02  0.00000000000E+00 0.  1.
</event>
<event>
 7    1  0.2841804E-009  0.1399436E+03  0.7561462E-02  0.1213405E+00
          1   -1    0    0  501    0  0.00000000000E+00  0.00000000000E+00  0.16131520398E+03  0.16131520398E+03  0.00000000000E+00 0. -1.
         -1   -1    0    0    0  501 -0.00000000000E+00 -0.00000000000E+00 -0.13940745100E+03  0.13940745100E+03  0.00000000000E+00 0.  1.
         25    2    1    2    0    0 -0.38719767516E+02  0.89352284587E+02  0.46817892153E+02  0.16529417383E+03  0.12508875936E+03 0.  0.
          5    1    3    3  502    0  0.43388193091E+02  0.30762809614E+02  0.34632648669E+02  0.63606434492E+02  0.41800000000E+01 0.  1.
         -5    1    3    3    0  502 -0.82107960606E+02  0.58589474973E+02  0.12185243484E+02  0.10168773934E+03  0.41800000000E+01 0.  1.
        -11    1    1    2    0    0  0.57977841802E+02 -0.89122581107E+02 -0.31482782609E+01  0.10636811674E+03  0.00000000000E+00 0. -1.
         11    1    1    2    0    0 -0.19258074286E+02 -0.22970347920E+00 -0.21761860913E+02  0.29060364404E+02  0.00000000000E+00 0.  1.
</event>
<event>
 7    1  0.2841804E-009  0.1511317E+03  0.7561462E-02  0.1199089E+00
          1   -1    0    0  501    0  0.00000000000E+00  0.00000000000E+00  0.38429062956E+03  0.38429062956E+03  0.00000000000E+00 0. -1.
         -1   -1    0    0    0  501 -0.00000000000E+00 -0.00000000000E+00 -0.81504321360E+02  0.81504321360E+02  0.00000000000E+00 0.  1.
         25    2    1    2    0    0 -0.13172407371E+03 -0.37835374348E+02  0.12494561332E+03  0.22369486923E+03  0.12508093813E+03 0.  0.
          5    1    3    3  502    0 -0.94601450943E+02 -0.38671591776E+02  0.99360044180E+01  0.10276732513E+03  0.41800000000E+01 0. -1.
         -5    1    3    3    0  502 -0.37122622771E+02  0.83621742845E+00  0.11500960890E+03  0.12092754409E+03  0.41800000000E+01 0. -1.
        -11    1    1    2    0    0  0.10109669614E+03  0.66219377526E+02  0.14634963299E+03  0.18979927030E+03  0.00000000000E+00 0. -1.
         11    1    1    2    0    0  0.30627377574E+02 -0.28384003178E+02  0.31491061893E+02  0.52300811395E+02  0.00000000000E+00 0.  1.
</event>
<event>
 6    1  0.2841804E-009  0.1397143E+03  0.7561462E-02  0.1213714E+00
          2   -1    0    0  501    0  0.00000000000E+00  0.00000000000E+00  0.42296437117E+03  0.42296437117E+03  0.00000000000E+00 0. -1.
         -2   -1    0    0    0  501 -0.00000000000E+00 -0.00000000000E+00 -0.64236948616E+02  0.64236948616E+02  0.00000000000E+00 0.  1.
          5    1    1    2  502    0 -0.96430075926E+02  0.55109565068E+01  0.22879806412E+03  0.24838509764E+03  0.41800000000E+01 0. -1.
         -5    1    1    2    0  502 -0.23252631407E+02  0.22035682935E+02 -0.83332691643E+01  0.33364231817E+02  0.41800000000E+01 0. -1.
        -11    1    1    2    0    0  0.11454346906E+02  0.26939973813E+02  0.39300081149E+02  0.49004700085E+02  0.00000000000E+00 0. -1.
         11    1    1    2    0    0  0.10822836043E+03 -0.54486613255E+02  0.98962546450E+02  0.15644729024E+03  0.00000000000E+00 0.  1.
</event>
<event>
 7    1  0.2841804E-009  0.1176639E+03  0.7561462E-02  0.1247001E+00
          2   -1    0    0  501    0  0.00000000000E+00  0.00000000000E+00  0.90001566977E+03  0.90001566977E+03  0.00000000000E+00 0. -1.
         -2   -1    0    0    0  501 -0.00000000000E+00 -0.00000000000E+00 -0.16841833689E+02  0.16841833689E+02  0.00000000000E+00 0.  1.
         25    2    1    2    0    0 -0.39409315587E+02 -0.38327413081E+02  0.57685206370E+03  0.59281336109E+03  0.12508913998E+03 0.  0.
          5    1    3    3  502    0  0.17662142620E+02 -0.68509713791E+02  0.33828889385E+03  0.34563330318E+03  0.41800000000E+01 0.  1.
         -5    1    3    3    0  502 -0.57071458207E+02  0.30182300710E+02  0.23856316985E+03  0.24718005791E+03  0.41800000000E+01 0.  1.
        -11    1    1    2    0    0  0.25907194923E+02  0.64939820572E+02  0.15843007520E+03  0.17317174069E+03  0.00000000000E+00 0.  1.
         11    1    1    2    0    0  0.13502120664E+02 -0.26612407491E+02  0.14789169717E+03  0.15087240168E+03  0.00000000000E+00 0. -1.
</event>
<event>
 6    1  0.3739807E-009  0.1372957E+03  0.7561462E-02  0.1217015E+00
          1   -1    0    0  501    0  0.00000000000E+00  0.00000000000E+00  0.10817662222E+03  0.10817662222E+03  0.00000000000E+00 0. -1.
         -1   -1    0    0    0  501 -0.00000000000E+00 -0.00000000000E+00 -0.19147436076E+03  0.19147436076E+03  0.00000000000E+00 0.  1.
          5    1    1    2  502    0 -0.73989893017E+02 -0.25352111425E+02 -0.44155566233E+02  0.89913404183E+02  0.41800000000E+01 0. -1.
         -5    1    1    2    0  502  0.46349558860E+02 -0.59081082730E+02 -0.34175291825E+02  0.82609193885E+02  0.41800000000E+01 0. -1.
        -11    1    1    2    0    0 -0.13763388721E+02  0.77943269229E+02 -0.21592881628E+02  0.82041676142E+02  0.00000000000E+00 0.  1.
         11    1    1    2    0    0  0.41403722878E+02  0.64899249260E+01  0.16626001148E+02  0.45086708772E+02  0.00000000000E+00 0. -1.
</event>
<event>
 7    1  0.2841804E-009  0.8465074E+02  0.7561462E-02  0.1316348E+00
          2   -1    0    0  501    0  0.00000000000E+00  0.00000000000E+00  0.32260102714E+03  0.32260102714E+03  0.00000000000E+00 0. -1.
         -2   -1    0    0    0  501 -0.00000000000E+00 -0.00000000000E+00 -0.36979697341E+02  0.36979697341E+02  0.00000000000E+00 0.  1.
         25    2    1    2    0    0 -0.50434777973E+01 -0.71280591127E-01  0.13161863999E+03  0.18164859113E+03  0.12508917826E+03 0.  0.
          5    1    3    3  502    0  0.22225940281E+02  0.35267311708E+02 -0.74122430448E+00  0.41902237529E+02  0.41800000000E+01 0.  1.
         -5    1    3    3    0  502 -0.27269418079E+02 -0.35338592299E+02  0.13235986430E+03  0.13974635360E+03  0.41800000000E+01 0.  1.
        -11    1    1    2    0    0  0.10982737881E+02  0.40371267248E+02  0.44411445956E+02  0.61015049640E+02  0.00000000000E+00 0.  1.
         11    1    1    2    0    0 -0.59392600840E+01 -0.40299986657E+02  0.10959124385E+03  0.11691708371E+03  0.00000000000E+00 0. -1.
</event>
<event>
 7    1  0.2841804E-009  0.1025140E+03  0.7561462E-02  0.1275096E+00
          3   -1    0    0  501    0  0.00000000000E+00  0.00000000000E+00  0.20325313128E+03  0.20325313128E+03  0.00000000000E+00 0. -1.
         -3   -1    0    0    0  501 -0.00000000000E+00 -0.00000000000E+00 -0.58459086908E+02  0.58459086908E+02  0.00000000000E+00 0.  1.
         25    2    1    2    0    0 -0.37863969846E+01 -0.68255857484E+01  0.10620747197E+03  0.16428039401E+03  0.12508835010E+03 0.  0.
          5    1    3    3  502    0  0.27263911016E+02  0.50272477986E+02  0.67295170746E+02  0.88412415941E+02  0.41800000000E+01 0. -1.
         -5    1    3    3    0  502 -0.31050308001E+02 -0.57098063735E+02  0.38912301223E+02  0.75867978065E+02  0.41800000000E+01 0. -1.
        -11    1    1    2    0    0 -0.36764009977E+02 -0.10835293874E+02  0.36849304766E+02  0.53168292098E+02  0.00000000000E+00 0. -1.
         11    1    1    2    0    0  0.40550406961E+02  0.17660879623E+02  0.17372676380E+01  0.44263532085E+02  0.00000000000E+00 0.  1.
</event>
<event>
 7    1  0.2841804E-009  0.2035491E+03  0.7561462E-02  0.1146779E+00
         -1   -1    0    0    0  501 -0.00000000000E+00  0.00000000000E+00  0.27114592630E+03  0.27114592630E+03  0.00000000000E+00 0.  1.
          1   -1    0    0  501    0  0.00000000000E+00 -0.00000000000E+00 -0.16747175973E+03  0.16747175973E+03  0.00000000000E+00 0. -1.
         25    2    1    2    0    0 -0.16255243349E+03 -0.84241330048E+02  0.54056462258E+02  0.22823112778E+03  0.12508977278E+03 0.  0.
          5    1    3    3  502    0 -0.13051304940E+03  0.75080434051E+00  0.36950827036E+02  0.13570945358E+03  0.41800000000E+01 0. -1.
         -5    1    3    3    0  502 -0.32039384085E+02 -0.84992134388E+02  0.17105635222E+02  0.92521674200E+02  0.41800000000E+01 0. -1.
        -11    1    1    2    0    0  0.15626118987E+03  0.72482977471E+02  0.70078740456E+02  0.18596336023E+03  0.00000000000E+00 0.  1.
         11    1    1    2    0    0  0.62912436169E+01  0.11758352576E+02 -0.20461036144E+02  0.24423198022E+02  0.00000000000E+00 0. -1.
</event>
<event>
 7    1  0.2841804E-009  0.2710574E+03  0.7561462E-02  0.1100676E+00
          2   -1    0    0  501    0  0.00000000000E+00  0.00000000000E+00  0.19349532972E+04  0.19349532972E+04  0.00000000000E+00 0. -1.
         -2   -1    0    0    0  501 -0.00000000000E+00 -0.00000000000E+00 -0.49311840919E+02  0.49311840919E+02  0.00000000000E+00 0.  1.
         25    2    1    2    0    0 -0.77241396333E+02 -0.23649818324E+03  0.48768399006E+03  0.56159362733E+03  0.12511636229E+03 0.  0.
          5    1    3    3  502    0 -0.11166221917E+03 -0.18420293124E+03  0.38812025000E+03  0.44390761643E+03  0.41800000000E+01 0.  1.
         -5    1    3    3    0  502  0.34420822833E+02 -0.52295252000E+02  0.99563740064E+02  0.11768601090E+03  0.41800000000E+01 0.  1.
        -11    1    1    2    0    0  0.62775776580E+02  0.60013363943E+02  0.44168585542E+03  0.45014308487E+03  0.00000000000E+00 0.  1.
         11    1    1    2    0    0  0.14465619753E+02  0.17648481930E+03  0.95627161083E+03  0.97252842595E+03  0.00000000000E+00 0. -1.
</event>
<event>
 7    1  0.2841804E-009  0.1079738E+03  0.7561462E-02  0.1264369E+00
         -2   -1    0    0    0  501 -0.00000000000E+00  0.00000000000E+00  0.51653512598E+03  0.51653512598E+03  0.00000000000E+00 0.  1.
          2   -1    0    0  501    0  0.00000000000E+00 -0.00000000000E+00 -0.50060932264E+02  0.50060932264E+02  0.00000000000E+00 0. -1.
         25    2    1    2    0    0  0.58804028105E+02  0.17378889045E+02  0.75214913349E+02  0.15831979167E+03  0.12509170132E+03 0.  0.
          5    1    3    3  502    0  0.81849523174E+02  0.26482002815E+02  0.79264711389E+01  0.86492440489E+02  0.41800000000E+01 0. -1.
         -5    1    3    3    0  502 -0.23045495069E+02 -0.91031137700E+01  0.67288442210E+02  0.71827351185E+02  0.41800000000E+01 0. -1.
        -11    1    1    2    0    0 -0.71703720096E+02 -0.37401936388E+02  0.36002533059E+03  0.36899670322E+03  0.00000000000E+00 0.  1.
         11    1    1    2    0    0  0.12899691990E+02  0.20023047343E+02  0.31233949785E+02  0.39279563357E+02  0.00000000000E+00 0. -1.
</event>
<event>
 7    1  0.2841804E-009  0.1049175E+03  0.7561462E-02  0.1270282E+00
         -2   -1    0    0    0  501 -0.00000000000E+00  0.00000000000E+00  0.34855363562E+02  0.34855363562E+02  0.00000000000E+00 0.  1.
          2   -1    0    0  501    0  0.00000000000E+00 -0.00000000000E+00 -0.46808667032E+03  0.46808667032E+03  0.00000000000E+00 0. -1.
         25    2    1    2    0    0 -0.66215939735E+02  0.10576682572E+02 -0.23967569214E+03  0.27854751054E+03  0.12509141191E+03 0.  0.
          5    1    3    3  502    0 -0.49096392613E+02 -0.31529093342E+02 -0.22203613778E+03  0.22961284453E+03  0.41800000000E+01 0.  1.
         -5    1    3    3    0  502 -0.17119547122E+02  0.42105775914E+02 -0.17639554364E+02  0.48934666006E+02  0.41800000000E+01 0.  1.
        -11    1    1    2    0    0  0.71648578840E+02 -0.35656633775E+02 -0.10396231667E+03  0.13119861916E+03  0.00000000000E+00 0.  1.
         11    1    1    2    0    0 -0.54326391043E+01  0.25079951203E+02 -0.89593297948E+02  0.93195904187E+02  0.00000000000E+00 0. -1.
</event>
<event>
 7    1  0.2841804E-009  0.9508263E+02  0.7561462E-02  0.1290990E+00
          2   -1    0    0  501    0  0.00000000000E+00  0.00000000000E+00  0.92295279922E+03  0.92295279922E+03  0.00000000000E+00 0.  1.
         -2   -1    0    0    0  501 -0.00000000000E+00 -0.00000000000E+00 -0.27369750289E+02  0.27369750289E+02  0.00000000000E+00 0. -1.
         25    2    1    2    0    0 -0.24997504695E+02  0.69986387601E+02  0.74276045344E+03  0.75687538374E+03  0.12507711873E+03 0.  0.
          5    1    3    3  502    0  0.49226120302E+01  0.12025996717E+02  0.59671503175E+03  0.59687114038E+03  0.41800000000E+01 0. -1.
         -5    1    3    3    0  502 -0.29920116725E+02  0.57960390884E+02  0.14604542169E+03  0.16000424336E+03  0.41800000000E+01 0. -1.
        -11    1    1    2    0    0 -0.28166177979E+02 -0.43334049364E+02  0.38040541911E+02  0.64173641358E+02  0.00000000000E+00 0. -1.
         11    1    1    2    0    0  0.53163682674E+02 -0.26652338237E+02  0.11478205358E+03  0.12927352441E+03  0.00000000000E+00 0.  1.
</event>
<event>
 7    1  0.2841804E-009  0.1513490E+03  0.7561462E-02  0.1198825E+00
          1   -1    0    0  501    0  0.00000000000E+00  0.00000000000E+00  0.65271152284E+02  0.65271152284E+02  0.00000000000E+00 0. -1.
         -1   -1    0    0    0  501 -0.00000000000E+00 -0.00000000000E+00 -0.49396407280E+03  0.49396407280E+03  0.00000000000E+00 0.  1.
         25    2    1    2    0    0 -0.12713614963E+03 -0.47957645161E+02 -0.23263148301E+03  0.29703640452E+03  0.12509869084E+03 0.  0.
          5    1    3    3  502    0 -0.40158067697E+02  0.16615303821E+02 -0.38006659699E+01  0.43825291603E+02  0.41800000000E+01 0. -1.
         -5    1    3    3    0  502 -0.86978081931E+02 -0.64572948981E+02 -0.22883081704E+03  0.25321111291E+03  0.41800000000E+01 0. -1.
        -11    1    1    2    0    0  0.11753402781E+03  0.17668036058E+02 -0.19737320316E+03  0.23039658964E+03  0.00000000000E+00 0.  1.
         11    1    1    2    0    0  0.96021218215E+01  0.30289609103E+02  0.13117656526E+01  0.31802230931E+02  0.00000000000E+00 0. -1.
</event>
<event>
 7    1  0.2841804E-009  0.1211139E+03  0.7561462E-02  0.1241271E+00
          1   -1    0    0  501    0  0.00000000000E+00  0.00000000000E+00  0.41043403093E+03  0.41043403093E+03  0.00000000000E+00 0. -1.
         -1   -1    0    0    0  501 -0.00000000000E+00 -0.00000000000E+00 -0.45687090751E+02  0.45687090751E+02  0.00000000000E+00 0.  1.
         25    2    1    2    0    0 -0.22428908074E+02  0.55225322421E+02  0.30103078222E+03  0.33139082375E+03  0.12508978402E+03 0.  0.
          5    1    3    3  502    0 -0.35946430329E+02 -0.32798532459E+02  0.92524095014E+02  0.10462346841E+03  0.41800000000E+01 0.  1.
         -5    1    3    3    0  502  0.13517522255E+02  0.88023854880E+02  0.20850668721E+03  0.22676735533E+03  0.41800000000E+01 0.  1.
        -11    1    1    2    0    0 -0.32731976420E+02 -0.15245783100E+02  0.36578851000E+02  0.51398721027E+02  0.00000000000E+00 0.  1.
         11    1    1    2    0    0  0.55160884494E+02 -0.39979539321E+02  0.27137306958E+02  0.73331576906E+02  0.00000000000E+00 0. -1.
</event>
<event>
 7    1  0.2841804E-009  0.1084150E+03  0.7561462E-02  0.1263534E+00
         -1   -1    0    0    0  501 -0.00000000000E+00  0.00000000000E+00  0.92321155942E+01  0.92321155942E+01  0.00000000000E+00 0.  1.
          1   -1    0    0  501    0  0.00000000000E+00 -0.00000000000E+00 -0.18602276842E+04  0.18602276842E+04  0.00000000000E+00 0. -1.
         25    2    1    2    0    0 -0.44722031473E+02 -0.45897584921E+02 -0.13312879667E+04  0.13386865434E+04  0.12508941928E+03 0.  0.
          5    1    3    3  502    0  0.18274250468E+02  0.13071170119E+02 -0.56110009292E+02  0.60585553238E+02  0.41800000000E+01 0. -1.
         -5    1    3    3    0  502 -0.62996281941E+02 -0.58968755040E+02 -0.12751779574E+04  0.12781009901E+04  0.41800000000E+01 0. -1.
        -11    1    1    2    0    0  0.15512970947E+02  0.68763342702E+02 -0.35663782101E+03  0.36353759770E+03  0.00000000000E+00 0.  1.
         11    1    1    2    0    0  0.29209060526E+02 -0.22865757780E+02 -0.16306978096E+03  0.16723565875E+03  0.00000000000E+00 0. -1.
</event>
<event>
 7    1  0.2841804E-009  0.1010335E+03  0.7561462E-02  0.1278138E+00
         -3   -1    0    0    0  501 -0.00000000000E+00  0.00000000000E+00  0.30214188838E+03  0.30214188838E+03  0.00000000000E+00 0. -1.
          3   -1    0    0  501    0  0.00000000000E+00 -0.00000000000E+00 -0.69183062048E+02  0.69183062048E+02  0.00000000000E+00 0.  1.
         25    2    1    2    0    0 -0.46297469437E+02 -0.16773081007E+01  0.23262041612E+03  0.26815202186E+03  0.12508788827E+03 0.  0.
          5    1    3    3  502    0  0.28005397733E+02  0.37150438797E+02  0.11047564838E+03  0.11994498193E+03  0.41800000000E+01 0. -1.
         -5    1    3    3    0  502 -0.74302867170E+02 -0.38827746898E+02  0.12214476775E+03  0.14820703994E+03  0.41800000000E+01 0. -1.
        -11    1    1    2    0    0  0.28692978247E+02 -0.25929418575E+02 -0.36992969068E+02  0.53517301024E+02  0.00000000000E+00 0.  1.
         11    1    1    2    0    0  0.17604491190E+02  0.27606726676E+02  0.37331379278E+02  0.49655627543E+02  0.00000000000E+00 0. -1.
</event>
<event>
 7    1  0.2841804E-009  0.1080996E+03  0.7561462E-02  0.1264130E+00
          1   -1    0    0  501    0  0.00000000000E+00  0.00000000000E+00  0.22661440703E+03  0.22661440703E+03  0.00000000000E+00 0. -1.
         -1   -1    0    0    0  501 -0.00000000000E+00 -0.00000000000E+00 -0.90523697074E+02  0.90523697074E+02  0.00000000000E+00 0.  1.
         25    2    1    2    0    0  0.61042924863E+02  0.47050458505E+02  0.13217216892E+03  0.19762656136E+03  0.12508713442E+03 0.  0.
          5    1    3    3  502    0 -0.31994547384E+02  0.11821008416E+02  0.75749821969E+02  0.83179896794E+02  0.41800000000E+01 0.  1.
         -5    1    3    3    0  502  0.93037472247E+02  0.35229450089E+02  0.56422346950E+02  0.11444666457E+03  0.41800000000E+01 0.  1.
        -11    1    1    2    0    0 -0.33972760862E+02 -0.43142463100E+02 -0.39885748114E+02  0.67869680311E+02  0.00000000000E+00 0.  1.
         11    1    1    2    0    0 -0.27070164001E+02 -0.39079954050E+01  0.43804289149E+02  0.51641862427E+02  0.00000000000E+00 0. -1.
</event>
<event>
 7    1  0.2841804E-009  0.9329534E+02  0.7561462E-02  0.1295062E+00
         -1   -1    0    0    0  501 -0.00000000000E+00  0.00000000000E+00  0.18748387108E+03  0.18748387108E+03  0.00000000000E+00 0.  1.
          1   -1    0    0  501    0  0.00000000000E+00 -0.00000000000E+00 -0.72680753647E+02  0.72680753647E+02  0.00000000000E+00 0. -1.
         25    2    1    2    0    0 -0.38650103768E+02  0.10196052454E+02  0.84968877593E+02  0.15641308076E+03  0.12509017414E+03 0.  0.
          5    1    3    3  502    0 -0.13868554086E+02 -0.35593667618E+02 -0.16863970693E+02  0.41965603468E+02  0.41800000000E+01 0. -1.
         -5    1    3    3    0  502 -0.24781549682E+02  0.45789720072E+02  0.10183284829E+03  0.11444747729E+03  0.41800000000E+01 0. -1.
        -11    1    1    2    0    0  0.61703796480E+01 -0.46678063945E+02  0.28191135688E+02  0.54878551092E+02  0.00000000000E+00 0. -1.
         11    1    1    2    0    0  0.32479724120E+02  0.36482011490E+02  0.16431041534E+01  0.48872992875E+02  0.00000000000E+00 0.  1.
</event>
<event>
 7    1  0.2841804E-009  0.1697447E+03  0.7561462E-02  0.1178114E+00
          2   -1    0    0  501    0  0.00000000000E+00  0.00000000000E+00  0.59834421880E+03  0.59834421880E+03  0.00000000000E+00 0.  1.
         -2   -1    0    0    0  501 -0.00000000000E+00 -0.00000000000E+00 -0.56753474015E+02  0.56753474015E+02  0.00000000000E+00 0. -1.
         25    2    1    2    0    0 -0.23531901879E+02  0.14533807366E+03  0.31749679854E+03  0.37165658446E+03  0.12508994216E+03 0.  0.
          5    1    3    3  502    0  0.39478550950E+02  0.88247644826E+02  0.23025618751E+03  0.24976306190E+03  0.41800000000E+01 0.  1.
         -5    1    3    3    0  502 -0.63010452829E+02  0.57090428830E+02  0.87240611025E+02  0.12189352256E+03  0.41800000000E+01 0.  1.
        -11    1    1    2    0    0  0.41240335378E+02 -0.81435826483E+02  0.18543329262E+03  0.20668349017E+03  0.00000000000E+00 0.  1.
         11    1    1    2    0    0 -0.17708433500E+02 -0.63902247173E+02  0.38660653632E+02  0.76757618188E+02  0.00000000000E+00 0. -1.
</event>
<event>
 7    1  0.2841804E-009  0.1087219E+03  0.7561462E-02  0.1262955E+00
         -1   -1    0    0    0  501 -0.00000000000E+00  0.00000000000E+00  0.60841855153E+02  0.60841855153E+02  0.00000000000E+00 0.  1.
          1   -1    0    0  501    0  0.00000000000E+00 -0.00000000000E+00 -0.24833441034E+03  0.24833441034E+03  0.00000000000E+00 0. -1.
         25    2    1    2    0    0  0.17065096882E+02  0.10240064800E+02 -0.11266664842E+03  0.16950883141E+03  0.12507355357E+03 0.  0.
          5    1    3    3  502    0 -0.14051722295E+02  0.60968852691E+02 -0.79489115946E+02  0.10124546336E+03  0.41800000000E+01 0.  1.
         -5    1    3    3    0  502  0.31116819177E+02 -0.50728787891E+02 -0.33177532471E+02  0.68263368049E+02  0.41800000000E+01 0.  1.
        -11    1    1    2    0    0  0.31661734351E+02  0.20263976463E+02  0.83990928866E+01  0.38518033770E+02  0.00000000000E+00 0.  1.
         11    1    1    2    0    0 -0.48726831233E+02 -0.30504041263E+02 -0.83224999660E+02  0.10114940031E+03  0.00000000000E+00 0. -1.
</event>
<event>
 7    1  0.2841804E-009  0.1703978E+03  0.7561462E-02  0.1177434E+00
          1   -1    0    0  501    0  0.00000000000E+00  0.00000000000E+00  0.87400806551E+03  0.87400806551E+03  0.00000000000E+00 0. -1.
         -1   -1    0    0    0  501 -0.00000000000E+00 -0.00000000000E+00 -0.37217499814E+02  0.37217499814E+02  0.00000000000E+00 0.  1.
         25    2    1    2    0    0  0.67188496171E+02  0.12477126922E+03  0.39005370756E+03  0.43344156430E+03  0.12509009248E+03 0.  0.
          5    1    3    3  502    0  0.94381433059E+02  0.60166646902E+02  0.29276428975E+03  0.31345858109E+03  0.41800000000E+01 0.  1.
         -5    1    3    3    0  502 -0.27192936888E+02  0.64604622318E+02  0.97289417810E+02  0.11998298321E+03  0.41800000000E+01 0.  1.
        -11    1    1    2    0    0 -0.67511008989E+02 -0.50525319051E+02  0.31977497299E+03  0.33070618010E+03  0.00000000000E+00 0. -1.
         11    1    1    2    0    0  0.32251281826E+00 -0.74245950169E+02  0.12696188514E+03  0.14707782093E+03  0.00000000000E+00 0.  1.
</event>
<event>
 7    1  0.2841804E-009  0.1069774E+03  0.7561462E-02  0.1266272E+00
         -1   -1    0    0    0  501 -0.00000000000E+00  0.00000000000E+00  0.64160721842E+02  0.64160721842E+02  0.00000000000E+00 0.  1.
          1   -1    0    0  501    0  0.00000000000E+00 -0.00000000000E+00 -0.27008423918E+03  0.27008423918E+03  0.00000000000E+00 0. -1.
         25    2    1    2    0    0 -0.67079790693E+02  0.83052930543E+01 -0.14568666515E+03  0.20356648166E+03  0.12508409907E+03 0.  0.
          5    1    3    3  502    0 -0.93850963738E+02  0.38171843725E+02 -0.11133974189E+03  0.15059582854E+03  0.41800000000E+01 0. -1.
         -5    1    3    3    0  502  0.26771173046E+02 -0.29866550670E+02 -0.34346923258E+02  0.52970653125E+02  0.41800000000E+01 0. -1.
        -11    1    1    2    0    0  0.53871916397E+02 -0.16908683515E+02  0.11165825901E+02  0.57556603640E+02  0.00000000000E+00 0.  1.
         11    1    1    2    0    0  0.13207874296E+02  0.86033904611E+01 -0.71402678085E+02  0.73121875719E+02  0.00000000000E+00 0. -1.
</event>
<event>
 7    1  0.2841804E-009  0.1707462E+03  0.7561462E-02  0.1177072E+00
         -2   -1    0    0    0  501 -0.00000000000E+00  0.00000000000E+00  0.40245731125E+03  0.40245731125E+03  0.00000000000E+00 0.  1.
          2   -1    0    0  501    0  0.00000000000E+00 -0.00000000000E+00 -0.11316150864E+03  0.11316150864E+03  0.00000000000E+00 0. -1.
         25    2    1    2    0    0  0.13087381775E+03  0.96794906600E+02  0.25431901800E+03  0.32683744222E+03  0.12508933049E+03 0.  0.
          5    1    3    3  502    0  0.12040046406E+03  0.53412888800E+02  0.24896939112E+03  0.28169564879E+03  0.41800000000E+01 0.  1.
         -5    1    3    3    0  502  0.10473353688E+02  0.43382017800E+02  0.53496268871E+01  0.45141793426E+02  0.41800000000E+01 0.  1.
        -11    1    1    2    0    0 -0.11786583523E+03 -0.75631624825E+02  0.61046244012E+02  0.15277153431E+03  0.00000000000E+00 0.  1.
         11    1    1    2    0    0 -0.13007982515E+02 -0.21163281774E+02 -0.26069459411E+02  0.36009843356E+02  0.00000000000E+00 0. -1.
</event>
<event>
 7    1  0.3004016E-009  0.1243166E+03  0.7561462E-02  0.1236141E+00
          2   -1    0    0  501    0  0.00000000000E+00  0.00000000000E+00  0.91526716102E+03  0.91526716102E+03  0.00000000000E+00 0. -1.
         -2   -1    0    0    0  501 -0.00000000000E+00 -0.00000000000E+00 -0.24535862399E+02  0.24535862399E+02  0.00000000000E+00 0.  1.
         25    2    1    2    0    0 -0.80060035990E+02 -0.20198397894E+02  0.67449265245E+03  0.69094446354E+03  0.12508528628E+03 0.  0.
          5    1    3    3  502    0  0.41847757746E+01  0.43019159347E+02  0.16164090652E+03  0.16737208692E+03  0.41800000000E+01 0. -1.
         -5    1    3    3    0  502 -0.84244811765E+02 -0.63217557242E+02  0.51285174593E+03  0.52357237661E+03  0.41800000000E+01 0. -1.
        -11    1    1    2    0    0  0.34443665534E+02  0.37586986975E+02  0.36742829584E+02  0.62842527091E+02  0.00000000000E+00 0.  1.
         11    1    1    2    0    0  0.45616370456E+02 -0.17388589081E+02  0.17949581659E+03  0.18601603280E+03  0.00000000000E+00 0. -1.
</event>
<event>
 7    1  0.2841804E-009  0.9949556E+02  0.7561462E-02  0.1281360E+00
         -1   -1    0    0    0  501 -0.00000000000E+00  0.00000000000E+00  0.16176923148E+02  0.16176923148E+02  0.00000000000E+00 0.  1.
          1   -1    0    0  501    0  0.00000000000E+00 -0.00000000000E+00 -0.10978071826E+04  0.10978071826E+04  0.00000000000E+00 0. -1.
         25    2    1    2    0    0  0.61398338176E+02 -0.50467828396E+01 -0.74527343647E+03  0.75820329442E+03  0.12507803414E+03 0.  0.
          5    1    3    3  502    0 -0.10305015108E+02 -0.53901243165E+01 -0.33401270027E+01  0.12801391523E+02  0.41800000000E+01 0. -1.
         -5    1    3    3    0  502  0.71703353284E+02  0.34334147693E+00 -0.74193330946E+03  0.74540190290E+03  0.41800000000E+01 0. -1.
        -11    1    1    2    0    0 -0.75373533942E+02  0.33977502366E+02 -0.26318299962E+03  0.27586397295E+03  0.00000000000E+00 0. -1.
         11    1    1    2    0    0  0.13975195766E+02 -0.28930719527E+02 -0.73173823366E+02  0.79916838370E+02  0.00000000000E+00 0.  1.
</event>
<event>
 7    1  0.3187413E-009  0.1171682E+03  0.7561462E-02  0.1247843E+00
         -2   -1    0    0    0  501 -0.00000000000E+00  0.00000000000E+00  0.93795729593E+02  0.93795729593E+02  0.00000000000E+00 0.  1.
          2   -1    0    0  501    0  0.00000000000E+00 -0.00000000000E+00 -0.23905900839E+03  0.23905900839E+03  0.00000000000E+00 0. -1.
         25    2    1    2    0    0  0.36476624083E+02  0.77184546198E+02 -0.14354085329E+02  0.15212183987E+03  0.12508803350E+03 0.  0.
          5    1    3    3  502    0 -0.74709263942E+01 -0.24251208788E+02  0.23860277748E+02  0.35081635125E+02  0.41800000000E+01 0. -1.
         -5    1    3    3    0  502  0.43947550477E+02  0.10143575499E+03 -0.38214363077E+02  0.11704020475E+03  0.41800000000E+01 0. -1.
        -11    1    1    2    0    0 -0.45702751186E+02 -0.43600624239E+02 -0.22802336068E+02  0.67154318030E+02  0.00000000000E+00 0.  1.
         11    1    1    2    0    0  0.92261271026E+01 -0.33583921959E+02 -0.10810685740E+03  0.11357858008E+03  0.00000000000E+00 0. -1.
</event>
<event>
 7    1  0.2841804E-009  0.7566481E+02  0.7561462E-02  0.1341825E+00
          2   -1    0    0  501    0  0.00000000000E+00  0.00000000000E+00  0.82927687407E+03  0.82927687407E+03  0.00000000000E+00 0. -1.
         -2   -1    0    0    0  501 -0.00000000000E+00 -0.00000000000E+00 -0.14536326048E+02  0.14536326048E+02  0.00000000000E+00 0.  1.
         25    2    1    2    0    0 -0.17495853683E+02 -0.11383326701E+01  0.45639766662E+03  0.47355404062E+03  0.12508876284E+03 0.  0.
          5    1    3    3  502    0  0.65514697062E+01 -0.28823529775E+02  0.20773934598E+02  0.36369580458E+02  0.41800000000E+01 0.  1.
         -5    1    3    3    0  502 -0.24047323389E+02  0.27685197105E+02  0.43562373203E+03  0.43718446016E+03  0.41800000000E+01 0.  1.
        -11    1    1    2    0    0  0.25064502355E+02 -0.37550062965E+02  0.26674073587E+03  0.27053439094E+03  0.00000000000E+00 0.  1.
         11    1    1    2    0    0 -0.75686486717E+01  0.38688395635E+02  0.91602145522E+02  0.99724768557E+02  0.00000000000E+00 0. -1.
</event>
<event>
 7    1  0.2841804E-009  0.6949904E+02  0.7561462E-02  0.1361805E+00
          1   -1    0    0  501    0  0.00000000000E+00  0.00000000000E+00  0.35211133826E+02  0.35211133826E+02  0.00000000000E+00 0.  1.
         -1   -1    0    0    0  501 -0.00000000000E+00 -0.00000000000E+00 -0.52399135154E+03  0.52399135154E+03  0.00000000000E+00 0. -1.
         25    2    1    2    0    0 -0.52555280042E+02  0.19258637437E+02 -0.39364958729E+03  0.41682374197E+03  0.12509628982E+03 0.  0.
          5    1    3    3  502    0 -0.19448363286E+01  0.39394606477E+00 -0.34181551599E+03  0.34184683259E+03  0.41800000000E+01 0. -1.
         -5    1    3    3    0  502 -0.50610443713E+02  0.18864691373E+02 -0.51834071300E+02  0.74976909385E+02  0.41800000000E+01 0. -1.
        -11    1    1    2    0    0  0.50289381547E+02  0.96443640313E+01 -0.96391004356E+01  0.52105162040E+02  0.00000000000E+00 0.  1.
         11    1    1    2    0    0  0.22658984947E+01 -0.28903001469E+02 -0.85491529990E+02  0.90273581351E+02  0.00000000000E+00 0. -1.
</event>
<event>
 7    1  0.2869507E-009  0.1060260E+03  0.7561462E-02  0.1268111E+00
          1   -1    0    0  501    0  0.00000000000E+00  0.00000000000E+00  0.57893041089E+03  0.57893041089E+03  0.00000000000E+00 0. -1.
         -1   -1    0    0    0  501 -0.00000000000E+00 -0.00000000000E+00 -0.25022479280E+02  0.25022479280E+02  0.00000000000E+00 0.  1.
         25    2    1    2    0    0 -0.20915820509E+02 -0.18764256701E+02  0.42171295721E+03  0.44077150939E+03  0.12509251109E+03 0.  0.
          5    1    3    3  502    0 -0.35265631421E+02  0.45411523879E+02  0.13898608694E+03  0.15046752481E+03  0.41800000000E+01 0.  1.
         -5    1    3    3    0  502  0.14349810911E+02 -0.64175780580E+02  0.28272687027E+03  0.29030398458E+03  0.41800000000E+01 0.  1.
        -11    1    1    2    0    0 -0.32505969972E+02  0.22042130368E+01  0.21140840767E+02  0.38838534824E+02  0.00000000000E+00 0.  1.
         11    1    1    2    0    0  0.53421790482E+02  0.16560043664E+02  0.11105413363E+03  0.12434284596E+03  0.00000000000E+00 0. -1.
</event>
<event>
 7    1  0.2841804E-009  0.1039410E+03  0.7561462E-02  0.1272220E+00
          2   -1    0    0  501    0  0.00000000000E+00  0.00000000000E+00  0.31592952820E+03  0.31592952820E+03  0.00000000000E+00 0. -1.
         -2   -1    0    0    0  501 -0.00000000000E+00 -0.00000000000E+00 -0.41640401323E+02  0.41640401323E+02  0.00000000000E+00 0.  1.
         25    2    1    2    0    0 -0.24388963842E+02 -0.25445242524E+02  0.15498934110E+03  0.20226627717E+03  0.12509064353E+03 0.  0.
          5    1    3    3  502    0  0.29398296164E+02 -0.55476650616E+02  0.49602359882E+02  0.80123561371E+02  0.41800000000E+01 0. -1.
         -5    1    3    3    0  502 -0.53787260006E+02  0.30031408092E+02  0.10538698122E+03  0.12214271579E+03  0.41800000000E+01 0. -1.
        -11    1    1    2    0    0 -0.18732521717E+02 -0.15072123120E+02  0.81778448777E+02  0.85239609042E+02  0.00000000000E+00 0. -1.
         11    1    1    2    0    0  0.43121485559E+02  0.40517365644E+02  0.37521336996E+02  0.70064043314E+02  0.00000000000E+00 0.  1.
</event>
<event>
 7    1  0.2841804E-009  0.1577492E+03  0.7561462E-02  0.1191262E+00
         -3   -1    0    0    0  501 -0.00000000000E+00  0.00000000000E+00  0.26004159813E+03  0.26004159813E+03  0.00000000000E+00 0.  1.
          3   -1    0    0  501    0  0.00000000000E+00 -0.00000000000E+00 -0.11184914073E+03  0.11184914073E+03  0.00000000000E+00 0. -1.
         25    2    1    2    0    0 -0.40635370757E+02  0.12071827571E+03  0.45337384248E+02  0.18419109303E+03  0.12508694934E+03 0.  0.
          5    1    3    3  502    0 -0.23168631654E+02  0.14199570760E+03  0.17801162778E+02  0.14503075627E+03  0.41800000000E+01 0. -1.
         -5    1    3    3    0  502 -0.17466739103E+02 -0.21277431882E+02  0.27536221470E+02  0.39160336761E+02  0.41800000000E+01 0. -1.
        -11    1    1    2    0    0  0.54379273809E+02 -0.57966532748E+02  0.93606297730E+02  0.12279805908E+03  0.00000000000E+00 0.  1.
         11    1    1    2    0    0 -0.13743903052E+02 -0.62751742966E+02  0.92487754170E+01  0.64901586753E+02  0.00000000000E+00 0. -1.
</event>
<event>
 7    1  0.2841804E-009  0.9089461E+02  0.7561462E-02  0.1300700E+00
          4   -1    0    0  501    0  0.00000000000E+00  0.00000000000E+00  0.37832625098E+02  0.37832625098E+02  0.00000000000E+00 0. -1.
         -4   -1    0    0    0  501 -0.00000000000E+00 -0.00000000000E+00 -0.52614770057E+03  0.52614770057E+03  0.00000000000E+00 0.  1.
         25    2    1    2    0    0 -0.60999480021E+02  0.66864117406E+02 -0.26450405056E+03  0.30626999054E+03  0.12508863891E+03 0.  0.
          5    1    3    3  502    0 -0.91882434711E+01  0.11667319003E+02 -0.21537076214E+03  0.21592264295E+03  0.41800000000E+01 0. -1.
         -5    1    3    3    0  502 -0.51811236550E+02  0.55196798403E+02 -0.49133288412E+02  0.90347347592E+02  0.41800000000E+01 0. -1.
        -11    1    1    2    0    0  0.33958569901E+02 -0.39036706339E+02 -0.21038121788E+03  0.21665019212E+03  0.00000000000E+00 0. -1.
         11    1    1    2    0    0  0.27040910120E+02 -0.27827411067E+02 -0.13429807043E+02  0.41060143010E+02  0.00000000000E+00 0.  1.
</event>
<event>
 7    1  0.2841804E-009  0.9729170E+02  0.7561462E-02  0.1286096E+00
          1   -1    0    0  501    0  0.00000000000E+00  0.00000000000E+00  0.67158801900E+03  0.67158801900E+03  0.00000000000E+00 0. -1.
         -1   -1    0    0    0  501 -0.00000000000E+00 -0.00000000000E+00 -0.25444095706E+02  0.25444095706E+02  0.00000000000E+00 0.  1.
         25    2    1    2    0    0  0.72786390779E+02  0.61057140043E+00  0.38956691578E+03  0.41558139265E+03  0.12508909054E+03 0.  0.
          5    1    3    3  502    0  0.13449865146E+02  0.13392674490E+02 -0.17953373186E+01  0.19518151514E+02  0.41800000000E+01 0.  1.
         -5    1    3    3    0  502  0.59336525633E+02 -0.12782103089E+02  0.39136225310E+03  0.39606324114E+03  0.41800000000E+01 0.  1.
        -11    1    1    2    0    0 -0.93477771516E+02 -0.26468178090E+01  0.19113887671E+03  0.21278902604E+03  0.00000000000E+00 0. -1.
         11    1    1    2    0    0  0.20691380737E+02  0.20362464086E+01  0.65438130801E+02  0.68661696010E+02  0.00000000000E+00 0.  1.
</event>
<event>
 7    1  0.2841804E-009  0.1040234E+03  0.7561462E-02  0.1272056E+00
         -1   -1    0    0    0  501 -0.00000000000E+00  0.00000000000E+00  0.29808261765E+03  0.29808261765E+03  0.00000000000E+00 0.  1.
          1   -1    0    0  501    0  0.00000000000E+00 -0.00000000000E+00 -0.48085129275E+02  0.48085129275E+02  0.00000000000E+00 0. -1.
         25    2    1    2    0    0  0.52698251867E+00 -0.38546108523E+02  0.15277977547E+03  0.20118494571E+03  0.12509053678E+03 0.  0.
          5    1    3    3  502    0 -0.55089554553E+02 -0.27688483783E+02  0.36518432630E+02  0.71781470289E+02  0.41800000000E+01 0.  1.
         -5    1    3    3    0  502  0.55616537072E+02 -0.10857624740E+02  0.11626134284E+03  0.12940347542E+03  0.41800000000E+01 0.  1.
        -11    1    1    2    0    0 -0.40228463431E+02  0.25539503340E+02  0.10598954756E+02  0.48815298245E+02  0.00000000000E+00 0. -1.
         11    1    1    2    0    0  0.39701480912E+02  0.13006605183E+02  0.86618758148E+02  0.96167502973E+02  0.00000000000E+00 0.  1.
</event>
<event>
 7    1  0.2841804E-009  0.5761065E+03  0.7561462E-02  0.9956256E-01
         -2   -1    0    0    0  501 -0.00000000000E+00  0.00000000000E+00  0.43285780825E+03  0.43285780825E+03  0.00000000000E+00 0.  1.
          2   -1    0    0  501    0  0.00000000000E+00 -0.00000000000E+00 -0.81169843089E+03  0.81169843089E+03  0.00000000000E+00 0. -1.
         25    2    1    2    0    0 -0.57454319196E+03  0.29046191970E+02 -0.28665430748E+03  0.65479889606E+03  0.12508933444E+03 0.  0.
          5    1    3    3  502    0 -0.48537132968E+03  0.35473535494E+02 -0.28756811756E+03  0.56529336989E+03  0.41800000000E+01 0. -1.
         -5    1    3    3    0  502 -0.89171862274E+02 -0.64273435241E+01  0.91381008699E+00  0.89505526171E+02  0.41800000000E+01 0. -1.
        -11    1    1    2    0    0  0.53017457586E+03 -0.18883722696E+02 -0.59749999018E+02  0.53386490637E+03  0.00000000000E+00 0. -1.
         11    1    1    2    0    0  0.44368616100E+02 -0.10162469274E+02 -0.32436316145E+02  0.55892436711E+02  0.00000000000E+00 0.  1.
</event>
<event>
 7    1  0.2841804E-009  0.8390905E+02  0.7561462E-02  0.1318310E+00
         -2   -1    0    0    0  501 -0.00000000000E+00  0.00000000000E+00  0.16267978265E+03  0.16267978265E+03  0.00000000000E+00 0.  1.
          2   -1    0    0  501    0  0.00000000000E+00 -0.00000000000E+00 -0.74590545214E+02  0.74590545214E+02  0.00000000000E+00 0. -1.
         25    2    1    2    0    0 -0.10157377542E+02  0.23167279391E+02  0.60758934455E+02  0.14134763641E+03  0.12509041150E+03 0.  0.
          5    1    3    3  502    0  0.26170436539E+02 -0.41366225065E+02  0.42499267507E+02  0.64959344696E+02  0.41800000000E+01 0. -1.
         -5    1    3    3    0  502 -0.36327814081E+02  0.64533504456E+02  0.18259666949E+02  0.76388291710E+02  0.41800000000E+01 0. -1.
        -11    1    1    2    0    0  0.69452543203E+01  0.94576787369E+01  0.53001463473E+02  0.54284798747E+02  0.00000000000E+00 0.  1.
         11    1    1    2    0    0  0.32121232215E+01 -0.32624958128E+02 -0.25671160491E+02  0.41637892711E+02  0.00000000000E+00 0. -1.
</event>
<event>
 7    1  0.2841804E-009  0.1763955E+03  0.7561462E-02  0.1171338E+00
         -2   -1    0    0    0  501 -0.00000000000E+00  0.00000000000E+00  0.28978134690E+02  0.28978134690E+02  0.00000000000E+00 0.  1.
          2   -1    0    0  501    0  0.00000000000E+00 -0.00000000000E+00 -0.12279462467E+04  0.12279462467E+04  0.00000000000E+00 0. -1.
         25    2    1    2    0    0  0.10137503932E+03 -0.10658628150E+03 -0.47749790371E+03  0.51506078528E+03  0.12508329419E+03 0.  0.
          5    1    3    3  502    0  0.59646649539E+02 -0.12205453850E+03 -0.26397718304E+03  0.29691153352E+03  0.41800000000E+01 0.  1.
         -5    1    3    3    0  502  0.41728389786E+02  0.15468257004E+02 -0.21352072067E+03  0.21814925176E+03  0.41800000000E+01 0.  1.
        -11    1    1    2    0    0 -0.22636526602E+02  0.88554102657E+02 -0.35277446096E+03  0.36442291605E+03  0.00000000000E+00 0.  1.
         11    1    1    2    0    0 -0.78738512722E+02  0.18032178843E+02 -0.36869574733E+03  0.37744068005E+03  0.00000000000E+00 0. -1.
</event>
<event>
 7    1  0.2841804E-009  0.1258659E+03  0.7561462E-02  0.1233722E+00
         -3   -1    0    0    0  501 -0.00000000000E+00  0.00000000000E+00  0.32878877754E+03  0.32878877754E+03  0.00000000000E+00 0.  1.
          3   -1    0    0  501    0  0.00000000000E+00 -0.00000000000E+00 -0.50440698204E+02  0.50440698204E+02  0.00000000000E+00 0. -1.
         25    2    1    2    0    0 -0.71392339133E+02  0.94102045204E+01  0.15019617689E+03  0.20830058613E+03  0.12507927323E+03 0.  0.
          5    1    3    3  502    0 -0.85814480648E+02  0.47202307127E+02  0.13021890665E+03  0.16299269596E+03  0.41800000000E+01 0.  1.
         -5    1    3    3    0  502  0.14422141514E+02 -0.37792102607E+02  0.19977270243E+02  0.45307890170E+02  0.41800000000E+01 0.  1.
        -11    1    1    2    0    0  0.78710160549E+02  0.21239847717E+02  0.89647001794E+02  0.12117345186E+03  0.00000000000E+00 0.  1.
         11    1    1    2    0    0 -0.73178214158E+01 -0.30650052237E+02  0.38504900658E+02  0.49755437764E+02  0.00000000000E+00 0. -1.
</event>
<event>
 7    1  0.2841804E-009  0.1551681E+03  0.7561462E-02  0.1194263E+00
          2   -1    0    0  501    0  0.00000000000E+00  0.00000000000E+00  0.20119266441E+03  0.20119266441E+03  0.00000000000E+00 0. -1.
         -2   -1    0    0    0  501 -0.00000000000E+00 -0.00000000000E+00 -0.16052764941E+03  0.16052764941E+03  0.00000000000E+00 0.  1.
         25    2    1    2    0    0 -0.86114564914E+02  0.11279930676E+03  0.27441797465E+01  0.18919441308E+03  0.12509034144E+03 0.  0.
          5    1    3    3  502    0 -0.67559998307E+02  0.46578741230E+02 -0.55351939388E+02  0.99071903685E+02  0.41800000000E+01 0.  1.
         -5    1    3    3    0  502 -0.18554566607E+02  0.66220565530E+02  0.58096119135E+02  0.90122509394E+02  0.41800000000E+01 0.  1.
        -11    1    1    2    0    0  0.35703644158E+02 -0.10151823560E+03  0.51223469029E+02  0.11918282655E+03  0.00000000000E+00 0.  1.
         11    1    1    2    0    0  0.50410920755E+02 -0.11281071159E+02 -0.13302633774E+02  0.53343074183E+02  0.00000000000E+00 0. -1.
</event>
<event>
 7    1  0.2841804E-009  0.1781136E+03  0.7561462E-02  0.1169641E+00
          2   -1    0    0  501    0  0.00000000000E+00  0.00000000000E+00  0.11939675523E+04  0.11939675523E+04  0.00000000000E+00 0. -1.
         -2   -1    0    0    0  501 -0.00000000000E+00 -0.00000000000E+00 -0.28089973826E+02  0.28089973826E+02  0.00000000000E+00 0.  1.
         25    2    1    2    0    0 -0.14360363463E+03  0.92609125518E+01  0.54367229763E+03  0.57613840826E+03  0.12509248534E+03 0.  0.
          5    1    3    3  502    0  0.86567474187E+01 -0.25669296249E+02  0.37893064992E+02  0.46767604389E+02  0.41800000000E+01 0. -1.
         -5    1    3    3    0  502 -0.15226038205E+03  0.34930208801E+02  0.50577923264E+03  0.52937080387E+03  0.41800000000E+01 0. -1.
        -11    1    1    2    0    0 -0.11392483604E+02 -0.13279934787E+02  0.45919783733E+02  0.49140328537E+02  0.00000000000E+00 0.  1.
         11    1    1    2    0    0  0.15499611823E+03  0.40190222353E+01  0.57628549715E+03  0.59677878936E+03  0.00000000000E+00 0. -1.
</event>
<event>
 7    1  0.2841804E-009  0.1109618E+03  0.7561462E-02  0.1258799E+00
         -2   -1    0    0    0  501 -0.00000000000E+00  0.00000000000E+00  0.40392691824E+03  0.40392691824E+03  0.00000000000E+00 0.  1.
          2   -1    0    0  501    0  0.00000000000E+00 -0.00000000000E+00 -0.68516640780E+02  0.68516640780E+02  0.00000000000E+00 0. -1.
         25    2    1    2    0    0  0.55047196791E+02  0.32338156624E+02  0.22335530018E+02  0.14220611733E+03  0.12509098151E+03 0.  0.
          5    1    3    3  502    0  0.37386370838E+02 -0.32433257784E+02  0.49070882773E+02  0.69821779346E+02  0.41800000000E+01 0.  1.
         -5    1    3    3    0  502  0.17660825953E+02  0.64771414409E+02 -0.26735352754E+02  0.72384337979E+02  0.41800000000E+01 0.  1.
        -11    1    1    2    0    0 -0.23396488058E+02  0.28219755898E+02  0.10293040925E+03  0.10926307438E+03  0.00000000000E+00 0.  1.
         11    1    1    2    0    0 -0.31650708732E+02 -0.60557912522E+02  0.21014433819E+03  0.22097436731E+03  0.00000000000E+00 0. -1.
</event>
<event>
 7    1  0.2841804E-009  0.9182229E+02  0.7561462E-02  0.1298498E+00
          2   -1    0    0  501    0  0.00000000000E+00  0.00000000000E+00  0.14109450902E+03  0.14109450902E+03  0.00000000000E+00 0. -1.
         -2   -1    0    0    0  501 -0.00000000000E+00 -0.00000000000E+00 -0.16418980048E+03  0.16418980048E+03  0.00000000000E+00 0.  1.
         25    2    1    2    0    0  0.25863784261E+02  0.67448344064E+02  0.64717229641E+02  0.15828352500E+03  0.12508852873E+03 0.  0.
          5    1    3    3  502    0  0.15497464767E+02  0.75252149819E+01 -0.36244197623E+02  0.40347422917E+02  0.41800000000E+01 0. -1.
         -5    1    3    3    0  502  0.10366319493E+02  0.59923129082E+02  0.10096142726E+03  0.11793610208E+03  0.41800000000E+01 0. -1.
        -11    1    1    2    0    0  0.27071672880E+02 -0.27962156624E+02 -0.67483488684E+02  0.77902367875E+02  0.00000000000E+00 0. -1.
         11    1    1    2    0    0 -0.52935457140E+02 -0.39486187440E+02 -0.20329032424E+02  0.69098416628E+02  0.00000000000E+00 0.  1.
</event>
<event>
 7    1  0.2841804E-009  0.3844860E+03  0.7561462E-02  0.1049288E+00
          2   -1    0    0  501    0  0.00000000000E+00  0.00000000000E+00  0.19437455928E+03  0.19437455928E+03  0.00000000000E+00 0. -1.
         -2   -1    0    0    0  501 -0.00000000000E+00 -0.00000000000E+00 -0.12757177157E+04  0.12757177157E+04  0.00000000000E+00 0.  1.
         25    2    1    2    0    0 -0.31862587082E+03 -0.21217595848E+03 -0.98563590602E+03  0.10647376572E+04  0.12508819464E+03 0.  0.
          5    1    3    3  502    0 -0.30671945481E+03 -0.20154606635E+03 -0.82138555171E+03  0.89966067925E+03  0.41800000000E+01 0. -1.
         -5    1    3    3    0  502 -0.11906416010E+02 -0.10629892136E+02 -0.16425035431E+03  0.16507697793E+03  0.41800000000E+01 0. -1.
        -11    1    1    2    0    0  0.29533716320E+03  0.18052211120E+03 -0.58138114942E+02  0.35098762515E+03  0.00000000000E+00 0.  1.
         11    1    1    2    0    0  0.23288707629E+02  0.31653847281E+02 -0.37569135418E+02  0.54366992622E+02  0.00000000000E+00 0. -1.
</event>
<event>
 7    1  0.2841804E-009  0.1560109E+03  0.7561462E-02  0.1193275E+00
          2   -1    0    0  501    0  0.00000000000E+00  0.00000000000E+00  0.11501737062E+04  0.11501737062E+04  0.00000000000E+00 0. -1.
         -2   -1    0    0    0  501 -0.00000000000E+00 -0.00000000000E+00 -0.29517337434E+02  0.29517337434E+02  0.00000000000E+00 0.  1.
         25    2    1    2    0    0  0.82451824019E+02 -0.12350377004E+03  0.60082956209E+03  0.63142292530E+03  0.12508902195E+03 0.  0.
          5    1    3    3  502    0  0.37494821943E+02 -0.72568366770E+01  0.34859809502E+02  0.51876797025E+02  0.41800000000E+01 0.  1.
         -5    1    3    3    0  502  0.44957002077E+02 -0.11624693337E+03  0.56596975259E+03  0.57954612827E+03  0.41800000000E+01 0.  1.
        -11    1    1    2    0    0 -0.51810440243E+02  0.67914818744E+02  0.14650922773E+03  0.16959274198E+03  0.00000000000E+00 0.  1.
         11    1    1    2    0    0 -0.30641383777E+02  0.55588951298E+02  0.37331757891E+03  0.37867537631E+03  0.00000000000E+00 0. -1.
</event>
<event>
 7    1  0.2841804E-009  0.3224448E+03  0.7561462E-02  0.1074530E+00
         -1   -1    0    0    0  501 -0.00000000000E+00  0.00000000000E+00  0.71012975110E+02  0.71012975110E+02  0.00000000000E+00 0.  1.
          1   -1    0    0  501    0  0.00000000000E+00 -0.00000000000E+00 -0.16568244354E+04  0.16568244354E+04  0.00000000000E+00 0. -1.
         25    2    1    2    0    0 -0.59879088382E+02 -0.30609803297E+03 -0.10352871048E+04  0.10884614923E+04  0.12509004738E+03 0.  0.
          5    1    3    3  502    0  0.20262487379E+02 -0.87710939541E+02 -0.44384281601E+03  0.45289921068E+03  0.41800000000E+01 0.  1.
         -5    1    3    3    0  502 -0.80141575761E+02 -0.21838709343E+03 -0.59144428876E+03  0.63556228164E+03  0.41800000000E+01 0.  1.
        -11    1    1    2    0    0  0.72784241578E+02  0.16402327831E+03 -0.34949217871E+03  0.39286888988E+03  0.00000000000E+00 0. -1.
         11    1    1    2    0    0 -0.12905153196E+02  0.14207475466E+03 -0.20103217676E+03  0.24650702826E+03  0.00000000000E+00 0.  1.
</event>
<event>
 7    1  0.2841804E-009  0.4846706E+02  0.7561462E-02  0.1453790E+00
          1   -1    0    0  501    0  0.00000000000E+00  0.00000000000E+00  0.28619997057E+03  0.28619997057E+03  0.00000000000E+00 0. -1.
         -1   -1    0    0    0  501 -0.00000000000E+00 -0.00000000000E+00 -0.49490688079E+02  0.49490688079E+02  0.00000000000E+00 0.  1.
         25    2    1    2    0    0 -0.12891113605E+02  0.88746171778E+01  0.19669798342E+03  0.23363354732E+03  0.12509835376E+03 0.  0.
          5    1    3    3  502    0  0.10262353418E+02  0.18998844660E+02 -0.10840397645E+02  0.24520575384E+02  0.41800000000E+01 0.  1.
         -5    1    3    3    0  502 -0.23153467023E+02 -0.10124227482E+02  0.20753838107E+03  0.20911297194E+03  0.41800000000E+01 0.  1.
        -11    1    1    2    0    0  0.26317860814E+02  0.82361449367E+01  0.63992779042E+02  0.69681702410E+02  0.00000000000E+00 0. -1.
         11    1    1    2    0    0 -0.13426747209E+02 -0.17110762114E+02 -0.23981479973E+02  0.32375408916E+02  0.00000000000E+00 0.  1.
</event>
<event>
 7    1  0.2841804E-009  0.1278805E+03  0.7561462E-02  0.1230635E+00
          2   -1    0    0  501    0  0.00000000000E+00  0.00000000000E+00  0.27569373474E+03  0.27569373474E+03  0.00000000000E+00 0. -1.
         -2   -1    0    0    0  501 -0.00000000000E+00 -0.00000000000E+00 -0.74324811996E+02  0.74324811996E+02  0.00000000000E+00 0.  1.
         25    2    1    2    0    0  0.34211765982E+02  0.82779382537E+02  0.77657661862E+02  0.17233996685E+03  0.12508989017E+03 0.  0.
          5    1    3    3  502    0  0.70467095007E+02  0.53163146870E+02  0.85764219498E+01  0.88786029741E+02  0.41800000000E+01 0.  1.
         -5    1    3    3    0  502 -0.36255329024E+02  0.29616235667E+02  0.69081239912E+02  0.83553937104E+02  0.41800000000E+01 0.  1.
        -11    1    1    2    0    0 -0.54988113841E+02 -0.27800575096E+02  0.33845631212E+02  0.70300009897E+02  0.00000000000E+00 0.  1.
         11    1    1    2    0    0  0.20776347859E+02 -0.54978807441E+02  0.89865629670E+02  0.10737856999E+03  0.00000000000E+00 0. -1.
</event>
<event>
 7    1  0.2841804E-009  0.6095497E+02  0.7561462E-02  0.1393867E+00
          2   -1    0    0  501    0  0.00000000000E+00  0.00000000000E+00  0.14918401605E+03  0.14918401605E+03  0.00000000000E+00 0. -1.
         -2   -1    0    0    0  501 -0.00000000000E+00 -0.00000000000E+00 -0.84719215270E+02  0.84719215270E+02  0.00000000000E+00 0.  1.
         25    2    1    2    0    0 -0.16009153674E+02  0.22889062748E+02  0.34987404643E+02  0.13286017789E+03  0.12508999237E+03 0.  0.
          5    1    3    3  502    0 -0.35600109493E+02  0.32310013944E+02 -0.34897256527E+02  0.59553301421E+02  0.41800000000E+01 0. -1.
         -5    1    3    3    0  502  0.19590955819E+02 -0.94209511965E+01  0.69884661170E+02  0.73306876473E+02  0.41800000000E+01 0. -1.
        -11    1    1    2    0    0  0.28122730962E+02 -0.26738767253E+02 -0.24298775698E+02  0.45785152303E+02  0.00000000000E+00 0.  1.
         11    1    1    2    0    0 -0.12113577287E+02  0.38497045057E+01  0.53776171830E+02  0.55257901120E+02  0.00000000000E+00 0. -1.
</event>
<event>
 7    1  0.2841804E-009  0.1009379E+03  0.7561462E-02  0.1278336E+00
         -1   -1    0    0    0  501 -0.00000000000E+00  0.00000000000E+00  0.20138445438E+02  0.20138445438E+02  0.00000000000E+00 0.  1.
          1   -1    0    0  501    0  0.00000000000E+00 -0.00000000000E+00 -0.78260050229E+03  0.78260050229E+03  0.00000000000E+00 0. -1.
         25    2    1    2    0    0  0.59666400204E+02 -0.95287324012E+01 -0.36787494049E+03  0.39323083226E+03  0.12509052542E+03 0.  0.
          5    1    3    3  502    0 -0.19123820091E+02  0.74661022703E+00 -0.25146267871E+03  0.25222456087E+03  0.41800000000E+01 0. -1.
         -5    1    3    3    0  502  0.78790220295E+02 -0.10275342628E+02 -0.11641226178E+03  0.14100627139E+03  0.41800000000E+01 0. -1.
        -11    1    1    2    0    0 -0.50123188384E+02  0.44157192620E+02 -0.31766975618E+03  0.32461710624E+03  0.00000000000E+00 0.  1.
         11    1    1    2    0    0 -0.95432118208E+01 -0.34628460218E+02 -0.76917360190E+02  0.84891009227E+02  0.00000000000E+00 0. -1.
</event>
<event>
 7    1  0.2841804E-009  0.9500084E+02  0.7561462E-02  0.1291174E+00
          1   -1    0    0  501    0  0.00000000000E+00  0.00000000000E+00  0.19099006633E+03  0.19099006633E+03  0.00000000000E+00 0. -1.
         -1   -1    0    0    0  501 -0.00000000000E+00 -0.00000000000E+00 -0.94027343774E+02  0.94027343774E+02  0.00000000000E+00 0.  1.
         25    2    1    2    0    0  0.58259419338E+02 -0.22793371934E+02  0.35529655432E+02  0.14430660002E+03  0.12509332775E+03 0.  0.
          5    1    3    3  502    0  0.27738351064E+02 -0.14684912737E+02  0.82037218064E+02  0.87935432731E+02  0.41800000000E+01 0.  1.
         -5    1    3    3    0  502  0.30521068274E+02 -0.81084591972E+01 -0.46507562633E+02  0.56371167286E+02  0.41800000000E+01 0.  1.
        -11    1    1    2    0    0  0.30648095321E+01 -0.39178926271E+02  0.16414168406E+02  0.42588804229E+02  0.00000000000E+00 0.  1.
         11    1    1    2    0    0 -0.61324228871E+02  0.61972298205E+02  0.45018898717E+02  0.98122005856E+02  0.00000000000E+00 0. -1.
</event>
<event>
 7    1  0.2841804E-009  0.2196482E+03  0.7561462E-02  0.1134146E+00
         -1   -1    0    0    0  501 -0.00000000000E+00  0.00000000000E+00  0.55509815791E+02  0.55509815791E+02  0.00000000000E+00 0.  1.
          1   -1    0    0  501    0  0.00000000000E+00 -0.00000000000E+00 -0.14362657326E+04  0.14362657326E+04  0.00000000000E+00 0. -1.
         25    2    1    2    0    0  0.30258247642E+02  0.20829314676E+03 -0.11086823407E+04  0.11353967736E+04  0.12509078508E+03 0.  0.
          5    1    3    3  502    0  0.41662822822E+02  0.19943613106E+03 -0.77401370236E+03  0.80039068274E+03  0.41800000000E+01 0. -1.
         -5    1    3    3    0  502 -0.11404575180E+02  0.88570156980E+01 -0.33466863830E+03  0.33500609088E+03  0.41800000000E+01 0. -1.
        -11    1    1    2    0    0  0.19723882286E+02 -0.35603433620E+02 -0.16524421980E+02  0.43928265840E+02  0.00000000000E+00 0.  1.
         11    1    1    2    0    0 -0.49982129928E+02 -0.17268971314E+03 -0.25554915416E+03  0.31245050892E+03  0.00000000000E+00 0. -1.
</event>
<event>
 7    1  0.2841804E-009  0.1365668E+03  0.7561462E-02  0.1218025E+00
          1   -1    0    0  501    0  0.00000000000E+00  0.00000000000E+00  0.54923124539E+03  0.54923124539E+03  0.00000000000E+00 0. -1.
         -1   -1    0    0    0  501 -0.00000000000E+00 -0.00000000000E+00 -0.40626815626E+02  0.40626815626E+02  0.00000000000E+00 0.  1.
         25    2    1    2    0    0  0.64308576986E+02  0.79593595434E+02  0.30074546055E+03  0.34141801862E+03  0.12509075863E+03 0.  0.
          5    1    3    3  502    0  0.99425202546E+02  0.45661208781E+02  0.23647990034E+03  0.26059649375E+03  0.41800000000E+01 0.  1.
         -5    1    3    3    0  502 -0.35116625561E+02  0.33932386652E+02  0.64265560210E+02  0.80821524879E+02  0.41800000000E+01 0.  1.
        -11    1    1    2    0    0 -0.56805099671E+02 -0.29550851780E+02  0.17917644176E+03  0.19027419549E+03  0.00000000000E+00 0. -1.
         11    1    1    2    0    0 -0.75034773146E+01 -0.50042743653E+02  0.28682527461E+02  0.58165846901E+02  0.00000000000E+00 0.  1.
</event>
<event>
 7    1  0.2841804E-009  0.1724696E+03  0.7561462E-02  0.1175297E+00
          2   -1    0    0  501    0  0.00000000000E+00  0.00000000000E+00  0.13685148499E+04  0.13685148499E+04  0.00000000000E+00 0.  1.
         -2   -1    0    0    0  501 -0.00000000000E+00 -0.00000000000E+00 -0.25561343604E+02  0.25561343604E+02  0.00000000000E+00 0. -1.
         25    2    1    2    0    0  0.91082346229E+02  0.11855577819E+03  0.61851381156E+03  0.64850460265E+03  0.12508964081E+03 0.  0.
          5    1    3    3  502    0 -0.11122347626E+02 -0.91677684772E+01  0.92055716723E+01  0.17605951987E+02  0.41800000000E+01 0.  1.
         -5    1    3    3    0  502  0.10220469386E+03  0.12772354667E+03  0.60930823988E+03  0.63089865066E+03  0.41800000000E+01 0.  1.
        -11    1    1    2    0    0 -0.19389468085E+02 -0.84919327154E+02  0.25418308817E+03  0.26869366555E+03  0.00000000000E+00 0. -1.
         11    1    1    2    0    0 -0.71692878144E+02 -0.33636451035E+02  0.47025660654E+03  0.47687792527E+03  0.00000000000E+00 0.  1.
</event>
<event>
 7    1  0.2841804E-009  0.9488726E+02  0.7561462E-02  0.1291430E+00
         -1   -1    0    0    0  501 -0.00000000000E+00  0.00000000000E+00  0.69881001424E+03  0.69881001424E+03  0.00000000000E+00 0.  1.
          1   -1    0    0  501    0  0.00000000000E+00 -0.00000000000E+00 -0.54629085006E+02  0.54629085006E+02  0.00000000000E+00 0. -1.
         25    2    1    2    0    0 -0.82305576009E+02  0.15994173234E+02  0.60705077214E+03  0.62544896822E+03  0.12508297431E+03 0.  0.
          5    1    3    3  502    0 -0.58604598028E+02  0.35769341611E+02  0.12736081718E+03  0.14474873008E+03  0.41800000000E+01 0. -1.
         -5    1    3    3    0  502 -0.23700977980E+02 -0.19775168377E+02  0.47968995497E+03  0.48070023813E+03  0.41800000000E+01 0. -1.
        -11    1    1    2    0    0  0.13622848643E+02  0.94676686883E+01  0.50830754074E+02  0.53469470872E+02  0.00000000000E+00 0.  1.
         11    1    1    2    0    0  0.68682727365E+02 -0.25461841922E+02 -0.13700596986E+02  0.74520660157E+02  0.00000000000E+00 0. -1.
</event>
<event>
 7    1  0.2841804E-009  0.1105335E+03  0.7561462E-02  0.1259585E+00
          2   -1    0    0  501    0  0.00000000000E+00  0.00000000000E+00  0.27932779658E+03  0.27932779658E+03  0.00000000000E+00 0. -1.
         -2   -1    0    0    0  501 -0.00000000000E+00 -0.00000000000E+00 -0.75424176633E+02  0.75424176633E+02  0.00000000000E+00 0.  1.
         25    2    1    2    0    0 -0.27820912674E+01  0.94985100594E+02  0.12941399108E+03  0.20353209799E+03  0.12508966568E+03 0.  0.
          5    1    3    3  502    0 -0.16133898495E+02  0.84800416126E+02  0.14875381578E+02  0.87693572358E+02  0.41800000000E+01 0.  1.
         -5    1    3    3    0  502  0.13351807227E+02  0.10184684468E+02  0.11453860950E+03  0.11583852563E+03  0.41800000000E+01 0.  1.
        -11    1    1    2    0    0  0.11806874862E+02 -0.10394995034E+03  0.35930148554E+02  0.11061631907E+03  0.00000000000E+00 0.  1.
         11    1    1    2    0    0 -0.90247835941E+01  0.89648497489E+01  0.38559480315E+02  0.40603556151E+02  0.00000000000E+00 0. -1.
</event>
<event>
 7    1  0.2841804E-009  0.1287762E+03  0.7561462E-02  0.1229283E+00
         -1   -1    0    0    0  501 -0.00000000000E+00  0.00000000000E+00  0.25661479257E+03  0.25661479257E+03  0.00000000000E+00 0.  1.
          1   -1    0    0  501    0  0.00000000000E+00 -0.00000000000E+00 -0.10485134752E+03  0.10485134752E+03  0.00000000000E+00 0. -1.
         25    2    1    2    0    0 -0.10166712468E+03 -0.48651677093E+02  0.13289995189E+03  0.21450834558E+03  0.12509293820E+03 0.  0.
          5    1    3    3  502    0 -0.16855296011E+02 -0.38363828221E+01  0.11558390967E+03  0.11694413800E+03  0.41800000000E+01 0.  1.
         -5    1    3    3    0  502 -0.84811828670E+02 -0.44815294271E+02  0.17316042213E+02  0.97564207581E+02  0.41800000000E+01 0.  1.
        -11    1    1    2    0    0  0.85620072740E+02 -0.69307437089E+01 -0.65121369308E+00  0.85902596838E+02  0.00000000000E+00 0.  1.
         11    1    1    2    0    0  0.16047051942E+02  0.55582420802E+02  0.19514706854E+02  0.61055197664E+02  0.00000000000E+00 0. -1.
</event>
<event>
 7    1  0.2841804E-009  0.1293537E+03  0.7561462E-02  0.1228418E+00
          2   -1    0    0  501    0  0.00000000000E+00  0.00000000000E+00  0.26068598790E+03  0.26068598790E+03  0.00000000000E+00 0.  1.
         -2   -1    0    0    0  501 -0.00000000000E+00 -0.00000000000E+00 -0.11800798218E+03  0.11800798218E+03  0.00000000000E+00 0. -1.
         25    2    1    2    0    0 -0.40727156168E+02 -0.72997367835E+02 -0.40875315498E+02  0.15590232248E+03  0.12508967095E+03 0.  0.
          5    1    3    3  502    0 -0.78992728047E+02 -0.20588700716E+02 -0.56146693476E+01  0.81931328521E+02  0.41800000000E+01 0.  1.
         -5    1    3    3    0  502  0.38265571879E+02 -0.52408667119E+02 -0.35260646150E+02  0.73970993959E+02  0.41800000000E+01 0.  1.
        -11    1    1    2    0    0  0.98646913909E+01 -0.15413362986E+02  0.18695081537E+01  0.18395079655E+02  0.00000000000E+00 0. -1.
         11    1    1    2    0    0  0.30862464777E+02  0.88410730821E+02  0.18168381307E+03  0.20439656795E+03  0.00000000000E+00 0.  1.
</event>
<event>
 7    1  0.2841804E-009  0.1545516E+03  0.7561462E-02  0.1194989E+00
         -2   -1    0    0    0  501 -0.00000000000E+00  0.00000000000E+00  0.64138660079E+02  0.64138660079E+02  0.00000000000E+00 0.  1.
          2   -1    0    0  501    0  0.00000000000E+00 -0.00000000000E+00 -0.47164469786E+03  0.47164469786E+03  0.00000000000E+00 0. -1.
         25    2    1    2    0    0 -0.13193568690E+03  0.16600013482E+02 -0.25910265201E+03  0.31696035209E+03  0.12508834715E+03 0.  0.
          5    1    3    3  502    0 -0.32688772863E+02 -0.40785085993E+02 -0.14898698806E+03  0.15794484519E+03  0.41800000000E+01 0. -1.
         -5    1    3    3    0  502 -0.99246914033E+02  0.57385099475E+02 -0.11011566395E+03  0.15901550690E+03  0.41800000000E+01 0. -1.
        -11    1    1    2    0    0  0.10581682824E+03  0.79346739938E+01 -0.56582036258E+02  0.12025675456E+03  0.00000000000E+00 0.  1.
         11    1    1    2    0    0  0.26118858654E+02 -0.24534687476E+02 -0.91821349512E+02  0.98566251289E+02  0.00000000000E+00 0. -1.
</event>
<event>
 7    1  0.2973067E-009  0.9714174E+02  0.7561462E-02  0.1286424E+00
          2   -1    0    0  501    0  0.00000000000E+00  0.00000000000E+00  0.42207889121E+03  0.42207889121E+03  0.00000000000E+00 0.  1.
         -2   -1    0    0    0  501 -0.00000000000E+00 -0.00000000000E+00 -0.49625136498E+02  0.49625136498E+02  0.00000000000E+00 0. -1.
         25    2    1    2    0    0 -0.61491816218E+02  0.62205967843E+02  0.26411023102E+03  0.30504649566E+03  0.12509326316E+03 0.  0.
          5    1    3    3  502    0 -0.31150693926E+01  0.19993870051E+02 -0.90195014244E+01  0.22545117052E+02  0.41800000000E+01 0.  1.
         -5    1    3    3    0  502 -0.58376746825E+02  0.42212097792E+02  0.27312973244E+03  0.28250137860E+03  0.41800000000E+01 0.  1.
        -11    1    1    2    0    0  0.35342579402E+00 -0.34218811137E+02 -0.52835480000E+01  0.34626114782E+02  0.00000000000E+00 0. -1.
         11    1    1    2    0    0  0.61138390424E+02 -0.27987156706E+02  0.11362707169E+03  0.13203141727E+03  0.00000000000E+00 0.  1.
</event>
<event>
 7    1  0.2841804E-009  0.1000247E+03  0.7561462E-02  0.1280244E+00
         -1   -1    0    0    0  501 -0.00000000000E+00  0.00000000000E+00  0.63932233101E+02  0.63932233101E+02  0.00000000000E+00 0.  1.
          1   -1    0    0  501    0  0.00000000000E+00 -0.00000000000E+00 -0.51786241375E+03  0.51786241375E+03  0.00000000000E+00 0. -1.
         25    2    1    2    0    0  0.76709114780E+02  0.43803400369E+02 -0.42597897837E+03  0.45266894892E+03  0.12509221048E+03 0.  0.
          5    1    3    3  502    0  0.71269107109E+02  0.49666308254E+02 -0.43274015037E+03  0.44139272530E+03  0.41800000000E+01 0. -1.
         -5    1    3    3    0  502  0.54400076710E+01 -0.58629078854E+01  0.67611719971E+01  0.11276223619E+02  0.41800000000E+01 0. -1.
        -11    1    1    2    0    0  0.87738626757E+01 -0.57221324856E+01  0.21034534118E+02  0.23498406159E+02  0.00000000000E+00 0.  1.
         11    1    1    2    0    0 -0.85482977456E+02 -0.38081267883E+02 -0.48985736398E+02  0.10562729178E+03  0.00000000000E+00 0. -1.
</event>
<event>
 7    1  0.2841804E-009  0.1353851E+03  0.7561462E-02  0.1219677E+00
         -1   -1    0    0    0  501 -0.00000000000E+00  0.00000000000E+00  0.30745228120E+02  0.30745228120E+02  0.00000000000E+00 0.  1.
          1   -1    0    0  501    0  0.00000000000E+00 -0.00000000000E+00 -0.70481511547E+03  0.70481511547E+03  0.00000000000E+00 0. -1.
         25    2    1    2    0    0 -0.71323103095E+02 -0.40629274772E+02 -0.22709971155E+03  0.27195499756E+03  0.12509004240E+03 0.  0.
          5    1    3    3  502    0  0.34238979022E+02  0.17389044696E+00 -0.36291607136E+02  0.50068863287E+02  0.41800000000E+01 0.  1.
         -5    1    3    3    0  502 -0.10556208212E+03 -0.40803165219E+02 -0.19080810441E+03  0.22188613427E+03  0.41800000000E+01 0.  1.
        -11    1    1    2    0    0  0.50350469796E+02  0.70434942749E+02 -0.32050452041E+03  0.33199307007E+03  0.00000000000E+00 0.  1.
         11    1    1    2    0    0  0.20972633299E+02 -0.29805667977E+02 -0.12646565539E+03  0.13161227597E+03  0.00000000000E+00 0. -1.
</event>
<event>
 7    1  0.2910309E-009  0.1329680E+03  0.7561462E-02  0.1223117E+00
         -1   -1    0    0    0  501 -0.00000000000E+00  0.00000000000E+00  0.24454466038E+03  0.24454466038E+03  0.00000000000E+00 0.  1.
          1   -1    0    0  501    0  0.00000000000E+00 -0.00000000000E+00 -0.87238844016E+02  0.87238844016E+02  0.00000000000E+00 0. -1.
         25    2    1    2    0    0 -0.33492698467E+02  0.91059785066E+02  0.72336008848E+02  0.17405345250E+03  0.12509380817E+03 0.  0.
          5    1    3    3  502    0 -0.80744175752E+02  0.51630266091E+02  0.51913503947E+02  0.10907699385E+03  0.41800000000E+01 0. -1.
         -5    1    3    3    0  502  0.47251477285E+02  0.39429518975E+02  0.20422504901E+02  0.64976458650E+02  0.41800000000E+01 0. -1.
        -11    1    1    2    0    0  0.46044582094E+02 -0.69339461859E+02  0.98716660456E+02  0.12912414012E+03  0.00000000000E+00 0.  1.
         11    1    1    2    0    0 -0.12551883627E+02 -0.21720323207E+02 -0.13746852941E+02  0.28605911777E+02  0.00000000000E+00 0. -1.
</event>
<event>
 7    1  0.2841804E-009  0.8446591E+02  0.7561462E-02  0.1316835E+00
         -4   -1    0    0    0  501 -0.00000000000E+00  0.00000000000E+00  0.67452812916E+02  0.67452812916E+02  0.00000000000E+00 0. -1.
          4   -1    0    0  501    0  0.00000000000E+00 -0.00000000000E+00 -0.19483532156E+03  0.19483532156E+03  0.00000000000E+00 0.  1.
         25    2    1    2    0    0 -0.13488889557E+02 -0.47415478787E+01 -0.10871597421E+03  0.16634646007E+03  0.12509016473E+03 0.  0.
          5    1    3    3  502    0  0.37646915945E+02 -0.44546582707E+02 -0.68074795441E+02  0.89740394948E+02  0.41800000000E+01 0. -1.
         -5    1    3    3    0  502 -0.51135805502E+02  0.39805034828E+02 -0.40641178765E+02  0.76606065122E+02  0.41800000000E+01 0. -1.
        -11    1    1    2    0    0 -0.12627402475E+02  0.13007177266E+02 -0.50670195397E+02  0.53815487133E+02  0.00000000000E+00 0.  1.
         11    1    1    2    0    0  0.26116292032E+02 -0.82656293877E+01  0.32003660965E+02  0.42126187269E+02  0.00000000000E+00 0. -1.
</event>
<event>
 7    1  0.2841804E-009  0.9890089E+02  0.7561462E-02  0.1282624E+00
         -2   -1    0    0    0  501 -0.00000000000E+00  0.00000000000E+00  0.28600667114E+02  0.28600667114E+02  0.00000000000E+00 0.  1.
          2   -1    0    0  501    0  0.00000000000E+00 -0.00000000000E+00 -0.77524591766E+03  0.77524591766E+03  0.00000000000E+00 0. -1.
         25    2    1    2    0    0 -0.40364574005E+02  0.39502231395E+02 -0.63842550383E+03  0.65301210848E+03  0.12509182535E+03 0.  0.
          5    1    3    3  502    0 -0.84401764288E+02  0.26717909389E+02 -0.47625364927E+03  0.48443009335E+03  0.41800000000E+01 0.  1.
         -5    1    3    3    0  502  0.44037190283E+02  0.12784322006E+02 -0.16217185455E+03  0.16858201513E+03  0.41800000000E+01 0.  1.
        -11    1    1    2    0    0  0.14252677464E+02  0.16944330736E+01  0.13501008908E+02  0.19705003422E+02  0.00000000000E+00 0.  1.
         11    1    1    2    0    0  0.26111896541E+02 -0.41196664469E+02 -0.12172075563E+03  0.13112947287E+03  0.00000000000E+00 0. -1.
</event>
<event>
 7    1  0.2841804E-009  0.1663975E+03  0.7561462E-02  0.1181658E+00
          1   -1    0    0  501    0  0.00000000000E+00  0.00000000000E+00  0.51739404121E+03  0.51739404121E+03  0.00000000000E+00 0. -1.
         -1   -1    0    0    0  501 -0.00000000000E+00 -0.00000000000E+00 -0.63520997585E+02  0.63520997585E+02  0.00000000000E+00 0.  1.
         25    2    1    2    0    0  0.13986171277E+03 -0.33599972105E+02  0.21953763328E+03  0.29074784445E+03  0.12508908745E+03 0.  0.
          5    1    3    3  502    0  0.80148413919E+02 -0.66604682984E+02  0.18903111766E+03  0.21589392741E+03  0.41800000000E+01 0. -1.
         -5    1    3    3    0  502  0.59713298853E+02  0.33004710879E+02  0.30506515620E+02  0.74853917034E+02  0.41800000000E+01 0. -1.
        -11    1    1    2    0    0 -0.63581159995E+02  0.51465206657E+02  0.17050551888E+03  0.18911203921E+03  0.00000000000E+00 0. -1.
         11    1    1    2    0    0 -0.76280552776E+02 -0.17865234552E+02  0.63829891461E+02  0.10105515514E+03  0.00000000000E+00 0.  1.
</event>
<event>
 7    1  0.2841804E-009  0.7224694E+02  0.7561462E-02  0.1352615E+00
         -1   -1    0    0    0  501 -0.00000000000E+00  0.00000000000E+00  0.17975036403E+03  0.17975036403E+03  0.00000000000E+00 0.  1.
          1   -1    0    0  501    0  0.00000000000E+00 -0.00000000000E+00 -0.67630123651E+02  0.67630123651E+02  0.00000000000E+00 0. -1.
         25    2    1    2    0    0 -0.11248414974E+01 -0.20409406840E+02  0.44518950595E+02  0.13433818336E+03  0.12508797461E+03 0.  0.
          5    1    3    3  502    0 -0.27563147737E+02  0.27310404313E+02 -0.24639403709E+02  0.46153633790E+02  0.41800000000E+01 0.  1.
         -5    1    3    3    0  502  0.26438306240E+02 -0.47719811153E+02  0.69158354304E+02  0.88184549573E+02  0.41800000000E+01 0.  1.
        -11    1    1    2    0    0  0.18846887360E+02 -0.52540045682E+01 -0.15061822013E+02  0.24691460255E+02  0.00000000000E+00 0. -1.
         11    1    1    2    0    0 -0.17722045863E+02  0.25663411408E+02  0.82663111794E+02  0.88350844060E+02  0.00000000000E+00 0.  1.
</event>
<event>
 7    1  0.2841804E-009  0.1259833E+03  0.7561462E-02  0.1233541E+00
         -1   -1    0    0    0  501 -0.00000000000E+00  0.00000000000E+00  0.69716713197E+03  0.69716713197E+03  0.00000000000E+00 0.  1.
          1   -1    0    0  501    0  0.00000000000E+00 -0.00000000000E+00 -0.24521110461E+02  0.24521110461E+02  0.00000000000E+00 0. -1.
         25    2    1    2    0    0 -0.61271591196E+02  0.36122309873E+02  0.42221711498E+03  0.44606540854E+03  0.12509207550E+03 0.  0.
          5    1    3    3  502    0 -0.76010551149E+01 -0.42954284631E+02  0.18854166008E+03  0.19356724050E+03  0.41800000000E+01 0.  1.
         -5    1    3    3    0  502 -0.53670536081E+02  0.79076594504E+02  0.23367545490E+03  0.25249816804E+03  0.41800000000E+01 0.  1.
        -11    1    1    2    0    0  0.81592833468E+02 -0.14609387888E+02  0.15584789798E+03  0.17652023112E+03  0.00000000000E+00 0.  1.
         11    1    1    2    0    0 -0.20321242272E+02 -0.21512921985E+02  0.94581008546E+02  0.99102602778E+02  0.00000000000E+00 0. -1.
</event>
<event>
 7    1  0.2841804E-009  0.1037259E+03  0.7561462E-02  0.1272650E+00
         -3   -1    0    0    0  501 -0.00000000000E+00  0.00000000000E+00  0.29303332636E+02  0.29303332636E+02  0.00000000000E+00 0.  1.
          3   -1    0    0  501    0  0.00000000000E+00 -0.00000000000E+00 -0.50368475720E+03  0.50368475720E+03  0.00000000000E+00 0. -1.
         25    2    1    2    0    0  0.19661025756E+02 -0.48958227625E+02 -0.23224983138E+03  0.26901836729E+03  0.12508970294E+03 0.  0.
          5    1    3    3  502    0 -0.13083139792E+02  0.22166569702E+02 -0.24295269518E+01  0.26189699509E+02  0.41800000000E+01 0.  1.
         -5    1    3    3    0  502  0.32744165548E+02 -0.71124797327E+02 -0.22982030442E+03  0.24282866778E+03  0.41800000000E+01 0.  1.
        -11    1    1    2    0    0  0.34155278965E+02  0.73475490373E+01 -0.58443177667E+02  0.68089460079E+02  0.00000000000E+00 0.  1.
         11    1    1    2    0    0 -0.53816304721E+02  0.41610678587E+02 -0.18368841552E+03  0.19588026246E+03  0.00000000000E+00 0. -1.
</event>
<event>
 7    1  0.2841804E-009  0.9276576E+02  0.7561462E-02  0.1296289E+00
          1   -1    0    0  501    0  0.00000000000E+00  0.00000000000E+00  0.31340752966E+03  0.31340752966E+03  0.00000000000E+00 0. -1.
         -1   -1    0    0    0  501 -0.00000000000E+00 -0.00000000000E+00 -0.76220323654E+02  0.76220323654E+02  0.00000000000E+00 0.  1.
         25    2    1    2    0    0  0.18201477114E+02  0.20385864100E+02 -0.66982303979E+01  0.12821674913E+03  0.12509113175E+03 0.  0.
          5    1    3    3  502    0  0.43986267376E+02  0.63424945182E+02 -0.89889765703E+01  0.77818953274E+02  0.41800000000E+01 0. -1.
         -5    1    3    3    0  502 -0.25784790261E+02 -0.43039081082E+02  0.22907461725E+01  0.50397795857E+02  0.41800000000E+01 0. -1.
        -11    1    1    2    0    0 -0.35940812775E+02 -0.17278158910E+02  0.23960373947E+03  0.24289962693E+03  0.00000000000E+00 0. -1.
         11    1    1    2    0    0  0.17739335661E+02 -0.31077051897E+01  0.42816969360E+01  0.18511477248E+02  0.00000000000E+00 0.  1.
</event>
<event>
 7    1  0.2841804E-009  0.1226235E+03  0.7561462E-02  0.1238831E+00
         -3   -1    0    0    0  501 -0.00000000000E+00  0.00000000000E+00  0.19105280540E+02  0.19105280540E+02  0.00000000000E+00 0.  1.
          3   -1    0    0  501    0  0.00000000000E+00 -0.00000000000E+00 -0.87435759895E+03  0.87435759895E+03  0.00000000000E+00 0. -1.
         25    2    1    2    0    0  0.30273789858E+02 -0.62988581107E+02 -0.54058938133E+03  0.55925701173E+03  0.12508981678E+03 0.  0.
          5    1    3    3  502    0  0.45695419861E+02 -0.90506906274E+02 -0.30286398549E+03  0.31941139239E+03  0.41800000000E+01 0. -1.
         -5    1    3    3    0  502 -0.15421630003E+02  0.27518325167E+02 -0.23772539584E+03  0.23984561934E+03  0.41800000000E+01 0. -1.
        -11    1    1    2    0    0 -0.27349759000E+02 -0.16808022924E+02 -0.74682909815E+02  0.81289949996E+02  0.00000000000E+00 0.  1.
         11    1    1    2    0    0 -0.29240308575E+01  0.79796604031E+02 -0.23998002727E+03  0.25291591777E+03  0.00000000000E+00 0. -1.
</event>
<event>
 7    1  0.2841804E-009  0.9669133E+02  0.7561462E-02  0.1287412E+00
         -4   -1    0    0    0  501 -0.00000000000E+00  0.00000000000E+00  0.12404962302E+03  0.12404962302E+03  0.00000000000E+00 0.  1.
          4   -1    0    0  501    0  0.00000000000E+00 -0.00000000000E+00 -0.96352198899E+02  0.96352198899E+02  0.00000000000E+00 0. -1.
         25    2    1    2    0    0 -0.26442076465E+01  0.99213010506E+01  0.31828737420E+02  0.12948303018E+03  0.12508941814E+03 0.  0.
          5    1    3    3  502    0 -0.56060716389E+02  0.32832638382E+02  0.28639453233E+02  0.71122969192E+02  0.41800000000E+01 0. -1.
         -5    1    3    3    0  502  0.53416508742E+02 -0.22911337332E+02  0.31892841872E+01  0.58360060985E+02  0.41800000000E+01 0. -1.
        -11    1    1    2    0    0 -0.15289073623E+02  0.25827258358E+02  0.26894999752E+02  0.40300670692E+02  0.00000000000E+00 0.  1.
         11    1    1    2    0    0  0.17933281270E+02 -0.35748559409E+02 -0.31026313053E+02  0.50618121049E+02  0.00000000000E+00 0. -1.
</event>
<event>
 7    1  0.2841804E-009  0.1663223E+03  0.7561462E-02  0.1181738E+00
         -2   -1    0    0    0  501 -0.00000000000E+00  0.00000000000E+00  0.55217742544E+02  0.55217742544E+02  0.00000000000E+00 0.  1.
          2   -1    0    0  501    0  0.00000000000E+00 -0.00000000000E+00 -0.57803630961E+03  0.57803630961E+03  0.00000000000E+00 0. -1.
         25    2    1    2    0    0 -0.74273813690E+02 -0.12064520099E+03 -0.27921687607E+03  0.33717742704E+03  0.12511870165E+03 0.  0.
          5    1    3    3  502    0 -0.94444829001E+02 -0.13434032874E+03 -0.24160979628E+03  0.29216419306E+03  0.41800000000E+01 0. -1.
         -5    1    3    3    0  502  0.20171015312E+02  0.13695127749E+02 -0.37607079793E+02  0.45013233980E+02  0.41800000000E+01 0. -1.
        -11    1    1    2    0    0  0.64908943884E+02  0.85978412045E+02 -0.96415182600E+02  0.14457297731E+03  0.00000000000E+00 0.  1.
         11    1    1    2    0    0  0.93648698051E+01  0.34666788943E+02 -0.14718650839E+03  0.15150364779E+03  0.00000000000E+00 0. -1.
</event>
<event>
 7    1  0.2841804E-009  0.1336199E+03  0.7561462E-02  0.1222181E+00
         -1   -1    0    0    0  501 -0.00000000000E+00  0.00000000000E+00  0.11876953674E+04  0.11876953674E+04  0.00000000000E+00 0.  1.
          1   -1    0    0  501    0  0.00000000000E+00 -0.00000000000E+00 -0.21986891988E+02  0.21986891988E+02  0.00000000000E+00 0. -1.
         25    2    1    2    0    0 -0.16575252537E+02 -0.91878334968E+02  0.87305151862E+03  0.88689506546E+03  0.12509010967E+03 0.  0.
          5    1    3    3  502    0 -0.52812584339E+02 -0.10119405959E+02  0.17492127484E+03  0.18304779767E+03  0.41800000000E+01 0. -1.
         -5    1    3    3    0  502  0.36237331802E+02 -0.81758929009E+02  0.69813024379E+03  0.70384726779E+03  0.41800000000E+01 0. -1.
        -11    1    1    2    0    0  0.36397209199E+02  0.96746045459E+02  0.28071097477E+03  0.29913743582E+03  0.00000000000E+00 0.  1.
         11    1    1    2    0    0 -0.19821956662E+02 -0.48677104911E+01  0.11945981978E+02  0.23649758070E+02  0.00000000000E+00 0. -1.
</event>
<event>
 7    1  0.2841804E-009  0.1680354E+03  0.7561462E-02  0.1179912E+00
         -2   -1    0    0    0  501 -0.00000000000E+00  0.00000000000E+00  0.21755972613E+03  0.21755972613E+03  0.00000000000E+00 0.  1.
          2   -1    0    0  501    0  0.00000000000E+00 -0.00000000000E+00 -0.25533062449E+03  0.25533062449E+03  0.00000000000E+00 0. -1.
         25    2    1    2    0    0  0.12440643985E+03 -0.58718610434E+02  0.13805390665E+03  0.23158410638E+03  0.12508988648E+03 0.  0.
          5    1    3    3  502    0  0.13833206173E+03 -0.33133742103E+02  0.14300135723E+03  0.20174356182E+03  0.41800000000E+01 0.  1.
         -5    1    3    3    0  502 -0.13925621878E+02 -0.25584868331E+02 -0.49474505790E+01  0.29840544557E+02  0.41800000000E+01 0.  1.
        -11    1    1    2    0    0 -0.18803999181E+02  0.55594344126E+02 -0.75351779495E+02  0.95510272521E+02  0.00000000000E+00 0. -1.
         11    1    1    2    0    0 -0.10560244067E+03  0.31242663077E+01 -0.10047302551E+03  0.14579597172E+03  0.00000000000E+00 0.  1.
</event>
<event>
 7    1  0.2841804E-009  0.1327326E+03  0.7561462E-02  0.1223456E+00
         -1   -1    0    0    0  501 -0.00000000000E+00  0.00000000000E+00  0.85056616667E+02  0.85056616667E+02  0.00000000000E+00 0.  1.
          1   -1    0    0  501    0  0.00000000000E+00 -0.00000000000E+00 -0.27912049534E+03  0.27912049534E+03  0.00000000000E+00 0. -1.
         25    2    1    2    0    0 -0.87586882463E+02  0.33429791197E+02 -0.41303009584E+02  0.16168648888E+03  0.12509024409E+03 0.  0.
          5    1    3    3  502    0 -0.71394830771E+02  0.65125251056E+02  0.11988223149E+02  0.97466456180E+02  0.41800000000E+01 0. -1.
         -5    1    3    3    0  502 -0.16192051692E+02 -0.31695459859E+02 -0.53291232733E+02  0.64220032699E+02  0.41800000000E+01 0. -1.
        -11    1    1    2    0    0 -0.15188238859E+02  0.13126051032E+02 -0.24111335401E+02  0.31374070666E+02  0.00000000000E+00 0.  1.
         11    1    1    2    0    0  0.10277512132E+03 -0.46555842229E+02 -0.12864953369E+03  0.17111655246E+03  0.00000000000E+00 0. -1.
</event>
<event>
 7    1  0.2841804E-009  0.9135105E+02  0.7561462E-02  0.1299613E+00
         -2   -1    0    0    0  501 -0.00000000000E+00  0.00000000000E+00  0.11264084078E+03  0.11264084078E+03  0.00000000000E+00 0.  1.
          2   -1    0    0  501    0  0.00000000000E+00 -0.00000000000E+00 -0.11461910556E+03  0.11461910556E+03  0.00000000000E+00 0. -1.
         25    2    1    2    0    0 -0.95361214193E+01  0.27553325324E+02  0.29028558267E+02  0.13168435880E+03  0.12509192544E+03 0.  0.
          5    1    3    3  502    0 -0.41039297880E+02  0.47897457954E+02 -0.23126787128E+02  0.67310557357E+02  0.41800000000E+01 0. -1.
         -5    1    3    3    0  502  0.31503176460E+02 -0.20344132629E+02  0.52155345395E+02  0.64373801448E+02  0.41800000000E+01 0. -1.
        -11    1    1    2    0    0  0.43132854983E+02 -0.18701309993E+02  0.28038400686E+01  0.47096111237E+02  0.00000000000E+00 0.  1.
         11    1    1    2    0    0 -0.33596733564E+02 -0.88520153315E+01 -0.33810663115E+02  0.48479476295E+02  0.00000000000E+00 0. -1.
</event>
<event>
 7    1  0.2841804E-009  0.1302038E+03  0.7561462E-02  0.1227154E+00
          1   -1    0    0  501    0  0.00000000000E+00  0.00000000000E+00  0.10424141028E+04  0.10424141028E+04  0.00000000000E+00 0. -1.
         -1   -1    0    0    0  501 -0.00000000000E+00 -0.00000000000E+00 -0.19957665113E+02  0.19957665113E+02  0.00000000000E+00 0.  1.
         25    2    1    2    0    0 -0.74385341803E+02 -0.15255834151E+02  0.77051043557E+03  0.78428197216E+03  0.12508381581E+03 0.  0.
          5    1    3    3  502    0  0.80363833551E+01  0.42783558733E+02  0.18159818307E+03  0.18678969149E+03  0.41800000000E+01 0. -1.
         -5    1    3    3    0  502 -0.82421725158E+02 -0.58039392884E+02  0.58891225250E+03  0.59749228066E+03  0.41800000000E+01 0. -1.
        -11    1    1    2    0    0  0.91825082580E+02  0.25828316962E+02  0.18556208821E+03  0.20864380252E+03  0.00000000000E+00 0. -1.
         11    1    1    2    0    0 -0.17439740777E+02 -0.10572482811E+02  0.66383913883E+02  0.69445993215E+02  0.00000000000E+00 0.  1.
</event>
<event>
 7    1  0.2841804E-009  0.1231472E+03  0.7561462E-02  0.1237994E+00
          2   -1    0    0  501    0  0.00000000000E+00  0.00000000000E+00  0.13277093806E+04  0.13277093806E+04  0.00000000000E+00 0. -1.
         -2   -1    0    0    0  501 -0.00000000000E+00 -0.00000000000E+00 -0.21143642507E+02  0.21143642507E+02  0.00000000000E+00 0.  1.
         25    2    1    2    0    0 -0.10581329481E+03 -0.27680249406E+02  0.94889742278E+03  0.96333604860E+03  0.12508946405E+03 0.  0.
          5    1    3    3  502    0 -0.92105905250E+02 -0.20660651736E+02  0.94063069535E+03  0.94536444705E+03  0.41800000000E+01 0. -1.
         -5    1    3    3    0  502 -0.13707389560E+02 -0.70195976694E+01  0.82667274282E+01  0.17971601552E+02  0.41800000000E+01 0. -1.
        -11    1    1    2    0    0  0.49820765400E+02 -0.27777803818E+02  0.90577088095E+02  0.10704169252E+03  0.00000000000E+00 0.  1.
         11    1    1    2    0    0  0.55992529410E+02  0.55458053223E+02  0.26709122718E+03  0.27847528195E+03  0.00000000000E+00 0. -1.
</event>
<event>
 7    1  0.2841804E-009  0.1399973E+03  0.7561462E-02  0.1213333E+00
         -1   -1    0    0    0  501 -0.00000000000E+00  0.00000000000E+00  0.33976915533E+03  0.33976915533E+03  0.00000000000E+00 0.  1.
          1   -1    0    0  501    0  0.00000000000E+00 -0.00000000000E+00 -0.80555386090E+02  0.80555386090E+02  0.00000000000E+00 0. -1.
         25    2    1    2    0    0 -0.32807847822E+02 -0.10428488711E+03  0.21408943713E+03  0.27098433241E+03  0.12508608541E+03 0.  0.
          5    1    3    3  502    0  0.16301082995E+01 -0.12067118093E+03  0.12408426618E+03  0.17314320279E+03  0.41800000000E+01 0.  1.
         -5    1    3    3    0  502 -0.34437956121E+02  0.16386293818E+02  0.90005170946E+02  0.97841129613E+02  0.41800000000E+01 0.  1.
        -11    1    1    2    0    0  0.40825960880E+02  0.43864210019E+02  0.61869270970E+02  0.86131496520E+02  0.00000000000E+00 0.  1.
         11    1    1    2    0    0 -0.80181130580E+01  0.60420677093E+02 -0.16744938859E+02  0.63208712491E+02  0.00000000000E+00 0. -1.
</event>
<event>
 7    1  0.2841804E-009  0.2181431E+03  0.7561462E-02  0.1135275E+00
          2   -1    0    0  501    0  0.00000000000E+00  0.00000000000E+00  0.46616413124E+03  0.46616413124E+03  0.00000000000E+00 0. -1.
         -2   -1    0    0    0  501 -0.00000000000E+00 -0.00000000000E+00 -0.11177050593E+03  0.11177050593E+03  0.00000000000E+00 0.  1.
         25    2    1    2    0    0  0.17381794407E+03  0.89277740157E+02  0.24081450730E+03  0.33439849216E+03  0.12509009577E+03 0.  0.
          5    1    3    3  502    0  0.11570694810E+03  0.11668078830E+03  0.19674896628E+03  0.25637888432E+03  0.41800000000E+01 0.  1.
         -5    1    3    3    0  502  0.58110995975E+02 -0.27403048141E+02  0.44065541023E+02  0.78019607832E+02  0.41800000000E+01 0.  1.
        -11    1    1    2    0    0 -0.10284897725E+03 -0.13546362639E+02  0.89458641090E+02  0.13698271616E+03  0.00000000000E+00 0. -1.
         11    1    1    2    0    0 -0.70968966827E+02 -0.75731377518E+02  0.24120476926E+02  0.10655342885E+03  0.00000000000E+00 0.  1.
</event>
<event>
 7    1  0.2841804E-009  0.1455091E+03  0.7561462E-02  0.1206103E+00
         -3   -1    0    0    0  501 -0.00000000000E+00  0.00000000000E+00  0.24012264904E+03  0.24012264904E+03  0.00000000000E+00 0.  1.
          3   -1    0    0  501    0  0.00000000000E+00 -0.00000000000E+00 -0.12422954211E+03  0.12422954211E+03  0.00000000000E+00 0. -1.
         25    2    1    2    0    0 -0.22165743677E+02  0.11542737379E+03 -0.49689150957E+01  0.17172693949E+03  0.12510256918E+03 0.  0.
          5    1    3    3  502    0 -0.40239327238E+01  0.13185863338E+03 -0.31182418024E+02  0.13561971400E+03  0.41800000000E+01 0. -1.
         -5    1    3    3    0  502 -0.18141810953E+02 -0.16431259591E+02  0.26213502929E+02  0.36107225485E+02  0.41800000000E+01 0. -1.
        -11    1    1    2    0    0 -0.14263475202E+02 -0.86541789692E+02  0.11664657702E+03  0.14594297523E+03  0.00000000000E+00 0.  1.
         11    1    1    2    0    0  0.36429218879E+02 -0.28885584100E+02  0.42154450112E+01  0.46682276440E+02  0.00000000000E+00 0. -1.
</event>
<event>
 7    1  0.2841804E-009  0.1267475E+03  0.7561462E-02  0.1232363E+00
         -1   -1    0    0    0  501 -0.00000000000E+00  0.00000000000E+00  0.11146434798E+03  0.11146434798E+03  0.00000000000E+00 0.  1.
          1   -1    0    0  501    0  0.00000000000E+00 -0.00000000000E+00 -0.29956300539E+03  0.29956300539E+03  0.00000000000E+00 0. -1.
         25    2    1    2    0    0  0.83329539866E+02  0.26209054708E+02 -0.23098842752E+03  0.27683471891E+03  0.12510428124E+03 0.  0.
          5    1    3    3  502    0 -0.10782815275E+02 -0.27007345147E+02 -0.10445364382E+02  0.31180824784E+02  0.41800000000E+01 0. -1.
         -5    1    3    3    0  502  0.94112355141E+02  0.53216399855E+02 -0.22054306313E+03  0.24565389413E+03  0.41800000000E+01 0. -1.
        -11    1    1    2    0    0 -0.63116960695E+02 -0.52958560690E+02  0.54415941533E+02  0.98739326363E+02  0.00000000000E+00 0.  1.
         11    1    1    2    0    0 -0.20212579171E+02  0.26749505983E+02 -0.11526171428E+02  0.35453308095E+02  0.00000000000E+00 0. -1.
</event>
<event>
 7    1  0.2841804E-009  0.2671452E+03  0.7561462E-02  0.1102925E+00
         -1   -1    0    0    0  501 -0.00000000000E+00  0.00000000000E+00  0.23418665677E+03  0.23418665677E+03  0.00000000000E+00 0.  1.
          1   -1    0    0  501    0  0.00000000000E+00 -0.00000000000E+00 -0.39330685547E+03  0.39330685547E+03  0.00000000000E+00 0. -1.
         25    2    1    2    0    0 -0.16505574205E+03 -0.18735355837E+03  0.56478202752E+02  0.28492378084E+03  0.12508804771E+03 0.  0.
          5    1    3    3  502    0 -0.78068935426E+02 -0.16374867211E+03  0.68382371472E+02  0.19391237047E+03  0.41800000000E+01 0. -1.
         -5    1    3    3    0  502 -0.86986806629E+02 -0.23604886268E+02 -0.11904168720E+02  0.91011410362E+02  0.41800000000E+01 0. -1.
        -11    1    1    2    0    0  0.14429344592E+03  0.10706446045E+03 -0.12025033626E+03  0.21620254531E+03  0.00000000000E+00 0. -1.
         11    1    1    2    0    0  0.20762296135E+02  0.80289097928E+02 -0.95348065186E+02  0.12636718609E+03  0.00000000000E+00 0.  1.
</event>
<event>
 7    1  0.2841804E-009  0.1048679E+03  0.7561462E-02  0.1270380E+00
          2   -1    0    0  501    0  0.00000000000E+00  0.00000000000E+00  0.11701194594E+03  0.11701194594E+03  0.00000000000E+00 0. -1.
         -2   -1    0    0    0  501 -0.00000000000E+00 -0.00000000000E+00 -0.17274355564E+03  0.17274355564E+03  0.00000000000E+00 0.  1.
         25    2    1    2    0    0  0.78582005207E+02  0.10638660143E+02  0.16887218816E+02  0.14906737892E+03  0.12509033803E+03 0.  0.
          5    1    3    3  502    0  0.39412597167E+01 -0.29684219840E+02 -0.37528348911E+02  0.48192694546E+02  0.41800000000E+01 0. -1.
         -5    1    3    3    0  502  0.74640745490E+02  0.40322879982E+02  0.54415567727E+02  0.10087468438E+03  0.41800000000E+01 0. -1.
        -11    1    1    2    0    0 -0.57125181837E+02 -0.30988931424E+02 -0.86357881627E+02  0.10807998885E+03  0.00000000000E+00 0.  1.
         11    1    1    2    0    0 -0.21456823370E+02  0.20350271281E+02  0.13739053107E+02  0.32608133811E+02  0.00000000000E+00 0. -1.
</event>
<event>
 7    1  0.2841804E-009  0.1742883E+03  0.7561462E-02  0.1173448E+00
          1   -1    0    0  501    0  0.00000000000E+00  0.00000000000E+00  0.30923343986E+03  0.30923343986E+03  0.00000000000E+00 0.  1.
         -1   -1    0    0    0  501 -0.00000000000E+00 -0.00000000000E+00 -0.11587432874E+03  0.11587432874E+03  0.00000000000E+00 0. -1.
         25    2    1    2    0    0 -0.13338731848E+03 -0.40841317439E+02  0.18191206981E+03  0.26115181083E+03  0.12509227481E+03 0.  0.
          5    1    3    3  502    0  0.54736737961E+01  0.29812607309E+02  0.40037727647E+02  0.50390918771E+02  0.41800000000E+01 0. -1.
         -5    1    3    3    0  502 -0.13886099228E+03 -0.70653924748E+02  0.14187434216E+03  0.21076089206E+03  0.41800000000E+01 0. -1.
        -11    1    1    2    0    0  0.12268949457E+03  0.29255488374E+01 -0.71128672476E+00  0.12272643091E+03  0.00000000000E+00 0.  1.
         11    1    1    2    0    0  0.10697823910E+02  0.37915768601E+02  0.12158328034E+02  0.41229526866E+02  0.00000000000E+00 0. -1.
</event>
<event>
 7    1  0.2841804E-009  0.1014381E+03  0.7561462E-02  0.1277301E+00
          1   -1    0    0  501    0  0.00000000000E+00  0.00000000000E+00  0.92113691919E+02  0.92113691919E+02  0.00000000000E+00 0. -1.
         -1   -1    0    0    0  501 -0.00000000000E+00 -0.00000000000E+00 -0.17917825261E+03  0.17917825261E+03  0.00000000000E+00 0.  1.
         25    2    1    2    0    0 -0.61980456560E+02 -0.69138210549E+01 -0.85142556657E+02  0.16366456176E+03  0.12508979137E+03 0.  0.
          5    1    3    3  502    0 -0.59708204404E+02 -0.33333488404E+02  0.58836370385E+01  0.68762494916E+02  0.41800000000E+01 0.  1.
         -5    1    3    3    0  502 -0.22722521564E+01  0.26419667349E+02 -0.91026193695E+02  0.94902066845E+02  0.41800000000E+01 0.  1.
        -11    1    1    2    0    0 -0.20692864045E+02 -0.10238749908E+02  0.13833828709E+01  0.23128777966E+02  0.00000000000E+00 0.  1.
         11    1    1    2    0    0  0.82673320605E+02  0.17152570963E+02 -0.33053869020E+01  0.84498604799E+02  0.00000000000E+00 0. -1.
</event>
<event>
 7    1  0.2841804E-009  0.1084911E+03  0.7561462E-02  0.1263390E+00
         -2   -1    0    0    0  501 -0.00000000000E+00  0.00000000000E+00  0.16508298993E+02  0.16508298993E+02  0.00000000000E+00 0.  1.
          2   -1    0    0  501    0  0.00000000000E+00 -0.00000000000E+00 -0.11523022173E+04  0.11523022173E+04  0.00000000000E+00 0. -1.
         25    2    1    2    0    0  0.35681615152E+01 -0.58388305225E+02 -0.89598067361E+03  0.90655965115E+03  0.12508839931E+03 0.  0.
          5    1    3    3  502    0 -0.36895566863E+02  0.10554953229E+02 -0.11125833033E+03  0.11776492840E+03  0.41800000000E+01 0. -1.
         -5    1    3    3    0  502  0.40463728378E+02 -0.68943258455E+02 -0.78472234327E+03  0.78879472275E+03  0.41800000000E+01 0. -1.
        -11    1    1    2    0    0  0.14824340550E+02  0.73217948286E+02 -0.21663490119E+03  0.22915346263E+03  0.00000000000E+00 0. -1.
         11    1    1    2    0    0 -0.18392502065E+02 -0.14829643061E+02 -0.23178343521E+02  0.33097402525E+02  0.00000000000E+00 0.  1.
</event>
<event>
 7    1  0.2841804E-009  0.1252150E+03  0.7561462E-02  0.1234734E+00
          2   -1    0    0  501    0  0.00000000000E+00  0.00000000000E+00  0.56538541320E+02  0.56538541320E+02  0.00000000000E+00 0. -1.
         -2   -1    0    0    0  501 -0.00000000000E+00 -0.00000000000E+00 -0.33052082988E+03  0.33052082988E+03  0.00000000000E+00 0.  1.
         25    2    1    2    0    0 -0.80056415204E+02  0.12999171243E+02 -0.12779488770E+03  0.19636247595E+03  0.12509468643E+03 0.  0.
          5    1    3    3  502    0 -0.79053087836E+02 -0.32877590629E+02 -0.12315763357E+03  0.15005199689E+03  0.41800000000E+01 0.  1.
         -5    1    3    3    0  502 -0.10033273681E+01  0.45876761872E+02 -0.46372541229E+01  0.46310479068E+02  0.41800000000E+01 0.  1.
        -11    1    1    2    0    0 -0.79088671467E+01  0.22443195051E+02 -0.12765733588E+02  0.27003909674E+02  0.00000000000E+00 0. -1.
         11    1    1    2    0    0  0.87965282350E+02 -0.35442366294E+02 -0.13342166728E+03  0.16369298558E+03  0.00000000000E+00 0.  1.
</event>
<event>
 7    1  0.2841804E-009  0.1627791E+03  0.7561462E-02  0.1185594E+00
          2   -1    0    0  501    0  0.00000000000E+00  0.00000000000E+00  0.81620818705E+03  0.81620818705E+03  0.00000000000E+00 0. -1.
         -2   -1    0    0    0  501 -0.00000000000E+00 -0.00000000000E+00 -0.72808056102E+02  0.72808056102E+02  0.00000000000E+00 0.  1.
         25    2    1    2    0    0  0.65162922924E+02 -0.10574891723E+03  0.56625176595E+02  0.18515655860E+03  0.12508996981E+03 0.  0.
          5    1    3    3  502    0  0.99374255301E+02 -0.87654542321E+02  0.61093546647E+02  0.14597415952E+03  0.41800000000E+01 0. -1.
         -5    1    3    3    0  502 -0.34211332376E+02 -0.18094374908E+02 -0.44683700515E+01  0.39182399074E+02  0.41800000000E+01 0. -1.
        -11    1    1    2    0    0 -0.84839307685E+02  0.59005767276E+02  0.44980981933E+03  0.46152818145E+03  0.00000000000E+00 0.  1.
         11    1    1    2    0    0  0.19676384761E+02  0.46743149953E+02  0.23696513502E+03  0.24233150311E+03  0.00000000000E+00 0. -1.
</event>
<event>
 7    1  0.2841804E-009  0.1481503E+03  0.7561462E-02  0.1202764E+00
         -2   -1    0    0    0  501 -0.00000000000E+00  0.00000000000E+00  0.25957038671E+02  0.25957038671E+02  0.00000000000E+00 0.  1.
          2   -1    0    0  501    0  0.00000000000E+00 -0.00000000000E+00 -0.99214241528E+03  0.99214241528E+03  0.00000000000E+00 0. -1.
         25    2    1    2    0    0 -0.10952572745E+03  0.16510858017E+02 -0.38752237821E+03  0.42200688760E+03  0.12509087163E+03 0.  0.
          5    1    3    3  502    0 -0.21632408986E+02 -0.48816750559E+02 -0.17317523186E+03  0.18126822552E+03  0.41800000000E+01 0.  1.
         -5    1    3    3    0  502 -0.87893318469E+02  0.65327608576E+02 -0.21434714635E+03  0.24073866208E+03  0.41800000000E+01 0.  1.
        -11    1    1    2    0    0  0.78569662437E+02  0.24011310518E+02 -0.45450378137E+03  0.46186948608E+03  0.00000000000E+00 0. -1.
         11    1    1    2    0    0  0.30956065017E+02 -0.40522168535E+02 -0.12415921703E+03  0.13422308028E+03  0.00000000000E+00 0.  1.
</event>
<event>
 7    1  0.2841804E-009  0.1105862E+03  0.7561462E-02  0.1259488E+00
         -1   -1    0    0    0  501 -0.00000000000E+00  0.00000000000E+00  0.96784184525E+02  0.96784184525E+02  0.00000000000E+00 0.  1.
          1   -1    0    0  501    0  0.00000000000E+00 -0.00000000000E+00 -0.13244842575E+03  0.13244842575E+03  0.00000000000E+00 0. -1.
         25    2    1    2    0    0  0.23625619059E+02  0.71432690475E+01 -0.42270397000E+02  0.13432659956E+03  0.12509057805E+03 0.  0.
          5    1    3    3  502    0  0.62819170485E+02 -0.33132578102E+02 -0.23031893351E+02  0.74779385017E+02  0.41800000000E+01 0. -1.
         -5    1    3    3    0  502 -0.39193551426E+02  0.40275847150E+02 -0.19238503648E+02  0.59547214541E+02  0.41800000000E+01 0. -1.
        -11    1    1    2    0    0  0.15401341308E+02 -0.39870332996E+02 -0.38369571529E+01  0.42913482817E+02  0.00000000000E+00 0. -1.
         11    1    1    2    0    0 -0.39026960367E+02  0.32727063949E+02  0.10443112924E+02  0.51992527903E+02  0.00000000000E+00 0.  1.
</event>
<event>
 7    1  0.2841804E-009  0.1773178E+03  0.7561462E-02  0.1170424E+00
          3   -1    0    0  501    0  0.00000000000E+00  0.00000000000E+00  0.10065181225E+04  0.10065181225E+04  0.00000000000E+00 0. -1.
         -3   -1    0    0    0  501 -0.00000000000E+00 -0.00000000000E+00 -0.39090429113E+02  0.39090429113E+02  0.00000000000E+00 0.  1.
         25    2    1    2    0    0 -0.13512628512E+02 -0.15635771441E+03  0.36626588740E+03  0.41764612342E+03  0.12508900093E+03 0.  0.
          5    1    3    3  502    0  0.21628322351E+02 -0.51875868938E+01  0.33019193450E+01  0.22870733632E+02  0.41800000000E+01 0.  1.
         -5    1    3    3    0  502 -0.35140950863E+02 -0.15117012752E+03  0.36296396805E+03  0.39477538979E+03  0.41800000000E+01 0.  1.
        -11    1    1    2    0    0  0.22336735791E+02  0.16373136999E+03  0.58646584609E+03  0.60930212532E+03  0.00000000000E+00 0. -1.
         11    1    1    2    0    0 -0.88241072789E+01 -0.73736555793E+01  0.14695959879E+02  0.18660302855E+02  0.00000000000E+00 0.  1.
</event>
<event>
 7    1  0.2841804E-009  0.1295805E+03  0.7561462E-02  0.1228080E+00
          2   -1    0    0  501    0  0.00000000000E+00  0.00000000000E+00  0.82541093646E+03  0.82541093646E+03  0.00000000000E+00 0. -1.
         -2   -1    0    0    0  501 -0.00000000000E+00 -0.00000000000E+00 -0.22241904361E+02  0.22241904361E+02  0.00000000000E+00 0.  1.
         25    2    1    2    0    0 -0.72528069260E+02  0.32471397137E+02  0.37045394371E+03  0.39899640594E+03  0.12508914852E+03 0.  0.
          5    1    3    3  502    0 -0.82001662087E+02  0.69620067487E+02  0.24166648457E+03  0.26455885649E+03  0.41800000000E+01 0. -1.
         -5    1    3    3    0  502  0.94735928276E+01 -0.37148670351E+02  0.12878745913E+03  0.13443754944E+03  0.41800000000E+01 0. -1.
        -11    1    1    2    0    0  0.47114075981E+02 -0.59467373462E+02  0.34814625926E+03  0.35631716560E+03  0.00000000000E+00 0. -1.
         11    1    1    2    0    0  0.25413993278E+02  0.26995976325E+02  0.84568829122E+02  0.92339269280E+02  0.00000000000E+00 0.  1.
</event>
<event>
 7    1  0.2841804E-009  0.1155315E+03  0.7561462E-02  0.1250656E+00
         -4   -1    0    0    0  501 -0.00000000000E+00  0.00000000000E+00  0.27615103087E+02  0.27615103087E+02  0.00000000000E+00 0.  1.
          4   -1    0    0  501    0  0.00000000000E+00 -0.00000000000E+00 -0.54337685198E+03  0.54337685198E+03  0.00000000000E+00 0. -1.
         25    2    1    2    0    0 -0.21955550589E+02  0.40163006272E+02 -0.37061081979E+03  0.39382176266E+03  0.12509231681E+03 0.  0.
          5    1    3    3  502    0  0.43538074844E+02 -0.12897008201E+02 -0.91532819074E+02  0.10226253541E+03  0.41800000000E+01 0.  1.
         -5    1    3    3    0  502 -0.65493625433E+02  0.53060014473E+02 -0.27907800071E+03  0.29155922724E+03  0.41800000000E+01 0.  1.
        -11    1    1    2    0    0  0.41995099413E+02  0.13238011370E+02 -0.72212764312E+02  0.84578464454E+02  0.00000000000E+00 0.  1.
         11    1    1    2    0    0 -0.20039548824E+02 -0.53401017642E+02 -0.72938164788E+02  0.92591727951E+02  0.00000000000E+00 0. -1.
</event>
<event>
 7    1  0.2841804E-009  0.1311215E+03  0.7561462E-02  0.1225801E+00
         -1   -1    0    0    0  501 -0.00000000000E+00  0.00000000000E+00  0.99605993998E+02  0.99605993998E+02  0.00000000000E+00 0.  1.
          1   -1    0    0  501    0  0.00000000000E+00 -0.00000000000E+00 -0.21086483872E+03  0.21086483872E+03  0.00000000000E+00 0. -1.
         25    2    1    2    0    0  0.39715385572E+02 -0.67288672085E+02 -0.12367956266E+03  0.19248396909E+03  0.12509343265E+03 0.  0.
          5    1    3    3  502    0 -0.39925034807E+02  0.90892825791E+00 -0.50667830558E+02  0.64649331074E+02  0.41800000000E+01 0.  1.
         -5    1    3    3    0  502  0.79640420380E+02 -0.68197600343E+02 -0.73011732103E+02  0.12783463801E+03  0.41800000000E+01 0.  1.
        -11    1    1    2    0    0  0.27430830333E+02  0.28747625954E+02  0.72695515579E+01  0.40394589125E+02  0.00000000000E+00 0.  1.
         11    1    1    2    0    0 -0.67146215905E+02  0.38541046131E+02  0.51511663856E+01  0.77592274502E+02  0.00000000000E+00 0. -1.
</event>
<event>
 7    1  0.3363637E-009  0.9816612E+02  0.7561462E-02  0.1284200E+00
          2   -1    0    0  501    0  0.00000000000E+00  0.00000000000E+00  0.20354664762E+03  0.20354664762E+03  0.00000000000E+00 0. -1.
         -2   -1    0    0    0  501 -0.00000000000E+00 -0.00000000000E+00 -0.94993731043E+02  0.94993731043E+02  0.00000000000E+00 0.  1.
         25    2    1    2    0    0  0.57627746952E+02  0.50313885490E+02  0.14963782405E+02  0.14738986997E+03  0.12508962665E+03 0.  0.
          5    1    3    3  502    0  0.26518834765E+02  0.15778118678E+02 -0.55050526277E+02  0.63247375200E+02  0.41800000000E+01 0. -1.
         -5    1    3    3    0  502  0.31108912188E+02  0.34535766812E+02  0.70014308682E+02  0.84142494775E+02  0.41800000000E+01 0. -1.
        -11    1    1    2    0    0 -0.62435971039E+02  0.53391024542E+01  0.45473961883E+02  0.77425045715E+02  0.00000000000E+00 0.  1.
         11    1    1    2    0    0  0.48082240869E+01 -0.55652987944E+02  0.48115172284E+02  0.73725462968E+02  0.00000000000E+00 0. -1.
</event>
<event>
 7    1  0.2841804E-009  0.8062635E+02  0.7561462E-02  0.1327283E+00
          2   -1    0    0  501    0  0.00000000000E+00  0.00000000000E+00  0.59213451387E+03  0.59213451387E+03  0.00000000000E+00 0. -1.
         -2   -1    0    0    0  501 -0.00000000000E+00 -0.00000000000E+00 -0.26470603702E+02  0.26470603702E+02  0.00000000000E+00 0.  1.
         25    2    1    2    0    0 -0.54455472086E+02  0.31298602403E+02  0.27263311960E+03  0.30646057494E+03  0.12507703681E+03 0.  0.
          5    1    3    3  502    0 -0.10407489926E+02  0.37075564313E+02  0.99199174688E+01  0.39984878120E+02  0.41800000000E+01 0.  1.
         -5    1    3    3    0  502 -0.44047982160E+02 -0.57769619097E+01  0.26271320213E+03  0.26647569682E+03  0.41800000000E+01 0.  1.
        -11    1    1    2    0    0  0.79553998055E+00 -0.23685879255E+02  0.13227725777E+02  0.27140863825E+02  0.00000000000E+00 0.  1.
         11    1    1    2    0    0  0.53659932106E+02 -0.76127231485E+01  0.27980306479E+03  0.28500367880E+03  0.00000000000E+00 0. -1.
</event>
<event>
 7    1  0.2841804E-009  0.9911359E+02  0.7561462E-02  0.1282171E+00
          2   -1    0    0  501    0  0.00000000000E+00  0.00000000000E+00  0.89043979756E+03  0.89043979756E+03  0.00000000000E+00 0. -1.
         -2   -1    0    0    0  501 -0.00000000000E+00 -0.00000000000E+00 -0.15245370258E+02  0.15245370258E+02  0.00000000000E+00 0.  1.
         25    2    1    2    0    0 -0.59961669593E+01 -0.38123539441E+02  0.53346476856E+03  0.54929428478E+03  0.12510073426E+03 0.  0.
          5    1    3    3  502    0  0.36042352964E+02 -0.43146982605E+02  0.10912243940E+03  0.12282464124E+03  0.41800000000E+01 0. -1.
         -5    1    3    3    0  502 -0.42038519924E+02  0.50234431645E+01  0.42434232916E+03  0.42646964354E+03  0.41800000000E+01 0. -1.
        -11    1    1    2    0    0  0.44224312292E+02 -0.15003860388E+01  0.18677553855E+03  0.19194567657E+03  0.00000000000E+00 0. -1.
         11    1    1    2    0    0 -0.38228145332E+02  0.39623925480E+02  0.15495412019E+03  0.16444520646E+03  0.00000000000E+00 0.  1.
</event>
<event>
 7    1  0.2841804E-009  0.1163684E+03  0.7561462E-02  0.1249211E+00
          1   -1    0    0  501    0  0.00000000000E+00  0.00000000000E+00  0.80528546555E+03  0.80528546555E+03  0.00000000000E+00 0. -1.
         -1   -1    0    0    0  501 -0.00000000000E+00 -0.00000000000E+00 -0.18343783576E+02  0.18343783576E+02  0.00000000000E+00 0.  1.
         25    2    1    2    0    0 -0.13671082144E+02  0.55497733856E+02  0.41816706966E+03  0.44019809396E+03  0.12507504480E+03 0.  0.
          5    1    3    3  502    0  0.47841247986E+02  0.19408882819E+01  0.90087520581E+02  0.10210673739E+03  0.41800000000E+01 0. -1.
         -5    1    3    3    0  502 -0.61512330131E+02  0.53556845574E+02  0.32807954908E+03  0.33809135657E+03  0.41800000000E+01 0. -1.
        -11    1    1    2    0    0  0.43367295448E+02 -0.39885385319E+01  0.12024660597E+03  0.12789009735E+03  0.00000000000E+00 0.  1.
         11    1    1    2    0    0 -0.29696213304E+02 -0.51509195324E+02  0.24852800634E+03  0.25554105781E+03  0.00000000000E+00 0. -1.
</event>
<event>
 7    1  0.2841804E-009  0.1095239E+03  0.7561462E-02  0.1261454E+00
         -2   -1    0    0    0  501 -0.00000000000E+00  0.00000000000E+00  0.18791951215E+02  0.18791951215E+02  0.00000000000E+00 0. -1.
          2   -1    0    0  501    0  0.00000000000E+00 -0.00000000000E+00 -0.89159400390E+03  0.89159400390E+03  0.00000000000E+00 0.  1.
         25    2    1    2    0    0 -0.51427551834E+02 -0.50375102808E+02 -0.48387361581E+03  0.50492546781E+03  0.12503442685E+03 0.  0.
          5    1    3    3  502    0 -0.15786476964E+02 -0.65178600036E+02 -0.44480099612E+03  0.44984759787E+03  0.41800000000E+01 0.  1.
         -5    1    3    3    0  502 -0.35641074870E+02  0.14803497228E+02 -0.39072619684E+02  0.55077869939E+02  0.41800000000E+01 0.  1.
        -11    1    1    2    0    0 -0.48743724160E+01 -0.21323327514E+02 -0.10506957664E+03  0.10732222388E+03  0.00000000000E+00 0.  1.
         11    1    1    2    0    0  0.56301924250E+02  0.71698430322E+02 -0.28385886024E+03  0.29813826343E+03  0.00000000000E+00 0. -1.
</event>
<event>
 7    1  0.2841804E-009  0.6394957E+02  0.7561462E-02  0.1381967E+00
         -1   -1    0    0    0  501 -0.00000000000E+00  0.00000000000E+00  0.33156334498E+03  0.33156334498E+03  0.00000000000E+00 0.  1.
          1   -1    0    0  501    0  0.00000000000E+00 -0.00000000000E+00 -0.48959152469E+02  0.48959152469E+02  0.00000000000E+00 0. -1.
         25    2    1    2    0    0 -0.46267293336E+02 -0.19587498721E+02  0.90342992362E+02  0.16227704731E+03  0.12509057229E+03 0.  0.
          5    1    3    3  502    0 -0.12600039880E+02  0.10417691232E+01  0.11484873956E+03  0.11561812862E+03  0.41800000000E+01 0.  1.
         -5    1    3    3    0  502 -0.33667253456E+02 -0.20629267844E+02 -0.24505747199E+02  0.46658918685E+02  0.41800000000E+01 0.  1.
        -11    1    1    2    0    0 -0.50689323795E+01  0.22881063694E+02  0.48893991431E+01  0.23940413013E+02  0.00000000000E+00 0. -1.
         11    1    1    2    0    0  0.51336225715E+02 -0.32935649736E+01  0.18737180101E+03  0.19430503713E+03  0.00000000000E+00 0.  1.
</event>
<event>
 7    1  0.2841804E-009  0.1803440E+03  0.7561462E-02  0.1167471E+00
         -1   -1    0    0    0  501 -0.00000000000E+00  0.00000000000E+00  0.37027788074E+02  0.37027788074E+02  0.00000000000E+00 0.  1.
          1   -1    0    0  501    0  0.00000000000E+00 -0.00000000000E+00 -0.97808004564E+03  0.97808004564E+03  0.00000000000E+00 0. -1.
         25    2    1    2    0    0  0.82710226025E+02  0.12712912346E+03 -0.60226335309E+03  0.63353815283E+03  0.12508656644E+03 0.  0.
          5    1    3    3  502    0  0.43851693134E+01 -0.21978235186E+02 -0.34885771098E+02  0.41674476084E+02  0.41800000000E+01 0. -1.
         -5    1    3    3    0  502  0.78325056712E+02  0.14910735864E+03 -0.56737758199E+03  0.59186367675E+03  0.41800000000E+01 0. -1.
        -11    1    1    2    0    0  0.12544404283E+02 -0.33809254031E+02 -0.12042769884E+03  0.12571101139E+03  0.00000000000E+00 0. -1.
         11    1    1    2    0    0 -0.95254630308E+02 -0.93319869426E+02 -0.21836120563E+03  0.25585866949E+03  0.00000000000E+00 0.  1.
</event>
<event>
 6    1  0.2841804E-009  0.1030364E+03  0.7561462E-02  0.1274037E+00
          3   -1    0    0  501    0  0.00000000000E+00  0.00000000000E+00  0.35265841113E+03  0.35265841113E+03  0.00000000000E+00 0. -1.
         -3   -1    0    0    0  501 -0.00000000000E+00 -0.00000000000E+00 -0.56807678985E+02  0.56807678985E+02  0.00000000000E+00 0.  1.
          5    1    1    2  502    0  0.61032803158E+02  0.69777214125E+02  0.17853854402E+03  0.20121467833E+03  0.41800000000E+01 0. -1.
         -5    1    1    2    0  502 -0.20046506181E+02 -0.37282669952E+02  0.89462927278E+02  0.99060323268E+02  0.41800000000E+01 0. -1.
        -11    1    1    2    0    0 -0.33611622351E+02  0.36874454037E+01  0.54161264948E+02  0.63849675265E+02  0.00000000000E+00 0. -1.
         11    1    1    2    0    0 -0.73746746252E+01 -0.36181989577E+02 -0.26312004106E+02  0.45341413252E+02  0.00000000000E+00 0.  1.
</event>
<event>
 7    1  0.2841804E-009  0.1012396E+03  0.7561462E-02  0.1277711E+00
          1   -1    0    0  501    0  0.00000000000E+00  0.00000000000E+00  0.73482964008E+03  0.73482964008E+03  0.00000000000E+00 0. -1.
         -1   -1    0    0    0  501 -0.00000000000E+00 -0.00000000000E+00 -0.19475884774E+02  0.19475884774E+02  0.00000000000E+00 0.  1.
         25    2    1    2    0    0 -0.39963481542E+02  0.28192722122E+02  0.44588509369E+03  0.46567523857E+03  0.12509197259E+03 0.  0.
          5    1    3    3  502    0 -0.34285163352E+02  0.60234631373E+02  0.12395306474E+03  0.14207574705E+03  0.41800000000E+01 0.  1.
         -5    1    3    3    0  502 -0.56783181897E+01 -0.32041909250E+02  0.32193202895E+03  0.32359949152E+03  0.41800000000E+01 0.  1.
        -11    1    1    2    0    0 -0.26866638739E+02  0.19198116534E+01  0.44455865304E+02  0.51979091122E+02  0.00000000000E+00 0.  1.
         11    1    1    2    0    0  0.66830120281E+02 -0.30112533776E+02  0.22501279632E+03  0.23665119517E+03  0.00000000000E+00 0. -1.
</event>
<event>
 7    1  0.2841804E-009  0.1066151E+03  0.7561462E-02  0.1266970E+00
          1   -1    0    0  501    0  0.00000000000E+00  0.00000000000E+00  0.58245209071E+03  0.58245209071E+03  0.00000000000E+00 0. -1.
         -1   -1    0    0    0  501 -0.00000000000E+00 -0.00000000000E+00 -0.32942005810E+02  0.32942005810E+02  0.00000000000E+00 0.  1.
         25    2    1    2    0    0  0.77720657239E+02  0.79984732888E+01  0.22315197462E+03  0.26748431718E+03  0.12508629031E+03 0.  0.
          5    1    3    3  502    0  0.68718084824E+02  0.27716698917E+02  0.23209074001E+03  0.24366775449E+03  0.41800000000E+01 0.  1.
         -5    1    3    3    0  502  0.90025724147E+01 -0.19718225629E+02 -0.89387653831E+01  0.23816562695E+02  0.41800000000E+01 0.  1.
        -11    1    1    2    0    0 -0.77480724574E+02 -0.38443463701E+02  0.19938337983E+03  0.21733590301E+03  0.00000000000E+00 0. -1.
         11    1    1    2    0    0 -0.23993266440E+00  0.30444990412E+02  0.12697473044E+03  0.13057387633E+03  0.00000000000E+00 0.  1.
</event>
<event>
 7    1  0.2841804E-009  0.1705190E+03  0.7561462E-02  0.1177308E+00
         -2   -1    0    0    0  501 -0.00000000000E+00  0.00000000000E+00  0.88117632078E+02  0.88117632078E+02  0.00000000000E+00 0. -1.
          2   -1    0    0  501    0  0.00000000000E+00 -0.00000000000E+00 -0.34930072551E+03  0.34930072551E+03  0.00000000000E+00 0.  1.
         25    2    1    2    0    0  0.12166511719E+03  0.62368229399E+02 -0.15238198861E+03  0.23991641599E+03  0.12508964558E+03 0.  0.
          5    1    3    3  502    0  0.62423390832E+01 -0.28387984097E+02 -0.15939981160E+01  0.29408462529E+02  0.41800000000E+01 0.  1.
         -5    1    3    3    0  502  0.11542277810E+03  0.90756213496E+02 -0.15078799050E+03  0.21050795346E+03  0.41800000000E+01 0.  1.
        -11    1    1    2    0    0  0.84479139620E+01 -0.29356155631E+02 -0.18335002417E+02  0.35627565695E+02  0.00000000000E+00 0.  1.
         11    1    1    2    0    0 -0.13011303115E+03 -0.33012073768E+02 -0.90466102406E+02  0.16187437590E+03  0.00000000000E+00 0. -1.
</event>
<event>
 7    1  0.2841804E-009  0.8523382E+02  0.7561462E-02  0.1314822E+00
         -2   -1    0    0    0  501 -0.00000000000E+00  0.00000000000E+00  0.33065689315E+02  0.33065689315E+02  0.00000000000E+00 0.  1.
          2   -1    0    0  501    0  0.00000000000E+00 -0.00000000000E+00 -0.36830042930E+03  0.36830042930E+03  0.00000000000E+00 0. -1.
         25    2    1    2    0    0 -0.11404886583E+02 -0.19346292010E+02 -0.20822017516E+03  0.24394200337E+03  0.12509080386E+03 0.  0.
          5    1    3    3  502    0 -0.47895469710E+02  0.14418637751E+02 -0.17947724429E+03  0.18636369483E+03  0.41800000000E+01 0.  1.
         -5    1    3    3    0  502  0.36490583127E+02 -0.33764929761E+02 -0.28742930870E+02  0.57578308535E+02  0.41800000000E+01 0.  1.
        -11    1    1    2    0    0  0.10924168596E+02  0.44197619145E+02 -0.12435400670E+03  0.13242615293E+03  0.00000000000E+00 0. -1.
         11    1    1    2    0    0  0.48071798630E+00 -0.24851327135E+02 -0.26605581166E+01  0.24997962310E+02  0.00000000000E+00 0.  1.
</event>
<event>
 7    1  0.2841804E-009  0.1155688E+03  0.7561462E-02  0.1250591E+00
         -1   -1    0    0    0  501 -0.00000000000E+00  0.00000000000E+00  0.13114231478E+02  0.13114231478E+02  0.00000000000E+00 0.  1.
          1   -1    0    0  501    0  0.00000000000E+00 -0.00000000000E+00 -0.10703666026E+04  0.10703666026E+04  0.00000000000E+00 0. -1.
         25    2    1    2    0    0 -0.32229630474E+02 -0.39833396154E+02 -0.70297650542E+03  0.71585536215E+03  0.12508990291E+03 0.  0.
          5    1    3    3  502    0 -0.29095163173E+02  0.42495335024E+02 -0.31451343241E+03  0.31872959320E+03  0.41800000000E+01 0. -1.
         -5    1    3    3    0  502 -0.31344673015E+01 -0.82328731179E+02 -0.38846307301E+03  0.39712576894E+03  0.41800000000E+01 0. -1.
        -11    1    1    2    0    0 -0.23100923723E+02  0.34316810454E+02 -0.12345826772E+03  0.13020460831E+03  0.00000000000E+00 0.  1.
         11    1    1    2    0    0  0.55330554198E+02  0.55165857007E+01 -0.23081759795E+03  0.23742086359E+03  0.00000000000E+00 0. -1.
</event>
<event>
 7    1  0.2841804E-009  0.9502942E+02  0.7561462E-02  0.1291110E+00
         -1   -1    0    0    0  501 -0.00000000000E+00  0.00000000000E+00  0.56691165045E+02  0.56691165045E+02  0.00000000000E+00 0.  1.
          1   -1    0    0  501    0  0.00000000000E+00 -0.00000000000E+00 -0.31450993381E+03  0.31450993381E+03  0.00000000000E+00 0. -1.
         25    2    1    2    0    0 -0.36172143681E+02  0.53054285468E+02 -0.20681567714E+03  0.25008175583E+03  0.12507989088E+03 0.  0.
          5    1    3    3  502    0 -0.41700967930E+02  0.62914472687E+02 -0.45325319329E+02  0.88142263257E+02  0.41800000000E+01 0.  1.
         -5    1    3    3    0  502  0.55288242489E+01 -0.98601872192E+01 -0.16149035781E+03  0.16193949257E+03  0.41800000000E+01 0.  1.
        -11    1    1    2    0    0  0.42926676953E+02  0.56698701095E+01 -0.39181500856E+00  0.43301276428E+02  0.00000000000E+00 0.  1.
         11    1    1    2    0    0 -0.67545332723E+01 -0.58724155578E+02 -0.50611276620E+02  0.77818066599E+02  0.00000000000E+00 0. -1.
</event>
<event>
 7    1  0.2841804E-009  0.1218365E+03  0.7561462E-02  0.1240098E+00
         -1   -1    0    0    0  501 -0.00000000000E+00  0.00000000000E+00  0.12033404223E+02  0.12033404223E+02  0.00000000000E+00 0.  1.
          1   -1    0    0  501    0  0.00000000000E+00 -0.00000000000E+00 -0.13175818610E+04  0.13175818610E+04  0.00000000000E+00 0. -1.
         25    2    1    2    0    0  0.59893701519E+02  0.93174359452E+01 -0.83363650025E+03  0.84514599730E+03  0.12509145495E+03 0.  0.
          5    1    3    3  502    0  0.68397352774E+02 -0.44314705153E+02 -0.58120732125E+03  0.58690835199E+03  0.41800000000E+01 0. -1.
         -5    1    3    3    0  502 -0.85036512543E+01  0.53632141099E+02 -0.25242917900E+03  0.25823764531E+03  0.41800000000E+01 0. -1.
        -11    1    1    2    0    0 -0.70670108539E+02  0.22377155481E+02 -0.27929526471E+03  0.28896512976E+03  0.00000000000E+00 0.  1.
         11    1    1    2    0    0  0.10776407020E+02 -0.31694591427E+02 -0.19261669186E+03  0.19550413821E+03  0.00000000000E+00 0. -1.
</event>
<event>
 7    1  0.2841804E-009  0.1297130E+03  0.7561462E-02  0.1227882E+00
          2   -1    0    0  501    0  0.00000000000E+00  0.00000000000E+00  0.43575677259E+03  0.43575677259E+03  0.00000000000E+00 0.  1.
         -2   -1    0    0    0  501 -0.00000000000E+00 -0.00000000000E+00 -0.53448066618E+02  0.53448066618E+02  0.00000000000E+00 0. -1.
         25    2    1    2    0    0 -0.10451841217E+03  0.61983934386E+01  0.23990746440E+03  0.29011240210E+03  0.12508835203E+03 0.  0.
          5    1    3    3  502    0  0.18863001721E+02 -0.17944556944E+02  0.93209375817E+02  0.96867332461E+02  0.41800000000E+01 0.  1.
         -5    1    3    3    0  502 -0.12338141389E+03  0.24142950383E+02  0.14669808859E+03  0.19324506964E+03  0.41800000000E+01 0.  1.
        -11    1    1    2    0    0  0.28502527587E+02 -0.12222337999E+02  0.11331014063E+03  0.11747751953E+03  0.00000000000E+00 0.  1.
         11    1    1    2    0    0  0.76015884582E+02  0.60239445605E+01  0.29091100937E+02  0.81614917574E+02  0.00000000000E+00 0. -1.
</event>
<event>
 7    1  0.2841804E-009  0.1069371E+03  0.7561462E-02  0.1266349E+00
          2   -1    0    0  501    0  0.00000000000E+00  0.00000000000E+00  0.15908223348E+03  0.15908223348E+03  0.00000000000E+00 0. -1.
         -2   -1    0    0    0  501 -0.00000000000E+00 -0.00000000000E+00 -0.13062130242E+03  0.13062130242E+03  0.00000000000E+00 0.  1.
         25    2    1    2    0    0 -0.73730095645E+02  0.84037836921E+01 -0.42627534557E+02  0.15156359846E+03  0.12509063551E+03 0.  0.
          5    1    3    3  502    0 -0.16466575629E+02 -0.31539993353E+02 -0.68244997148E+02  0.77076399303E+02  0.41800000000E+01 0. -1.
         -5    1    3    3    0  502 -0.57263520016E+02  0.39943777046E+02  0.25617462591E+02  0.74487199161E+02  0.41800000000E+01 0. -1.
        -11    1    1    2    0    0  0.87396029753E+02  0.68038164683E+01  0.77191477650E+02  0.11680274893E+03  0.00000000000E+00 0.  1.
         11    1    1    2    0    0 -0.13665934108E+02 -0.15207600160E+02 -0.61030120267E+01  0.21337188509E+02  0.00000000000E+00 0. -1.
</event>
<event>
 7    1  0.2918591E-009  0.8865901E+02  0.7561462E-02  0.1306132E+00
         -2   -1    0    0    0  501 -0.00000000000E+00  0.00000000000E+00  0.38733920301E+02  0.38733920301E+02  0.00000000000E+00 0.  1.
          2   -1    0    0  501    0  0.00000000000E+00 -0.00000000000E+00 -0.48141921953E+03  0.48141921953E+03  0.00000000000E+00 0. -1.
         25    2    1    2    0    0  0.45465797994E+02 -0.66765145783E+02 -0.27253492973E+03  0.31056031596E+03  0.12509076082E+03 0.  0.
          5    1    3    3  502    0  0.41919582341E+02 -0.15469804626E+02 -0.25045889537E+03  0.25444782748E+03  0.41800000000E+01 0. -1.
         -5    1    3    3    0  502  0.35462156522E+01 -0.51295341157E+02 -0.22076034364E+02  0.56112488477E+02  0.41800000000E+01 0. -1.
        -11    1    1    2    0    0 -0.13575658618E+02  0.22876452048E+02  0.42594586664E+01  0.26940184731E+02  0.00000000000E+00 0.  1.
         11    1    1    2    0    0 -0.31890139376E+02  0.43888693735E+02 -0.17440982816E+03  0.18265263914E+03  0.00000000000E+00 0. -1.
</event>
<event>
 7    1  0.2841804E-009  0.1354809E+03  0.7561462E-02  0.1219542E+00
          1   -1    0    0  501    0  0.00000000000E+00  0.00000000000E+00  0.57884608985E+03  0.57884608985E+03  0.00000000000E+00 0. -1.
         -1   -1    0    0    0  501 -0.00000000000E+00 -0.00000000000E+00 -0.13143136479E+03  0.13143136479E+03  0.00000000000E+00 0.  1.
         25    2    1    2    0    0  0.62542218499E+02 -0.10565192535E+03  0.51610568480E+03  0.54505483323E+03  0.12508331195E+03 0.  0.
          5    1    3    3  502    0  0.56011014823E+02 -0.51519463311E+02  0.46158340464E+03  0.46783351816E+03  0.41800000000E+01 0.  1.
         -5    1    3    3    0  502  0.65312036762E+01 -0.54132462034E+02  0.54522280159E+02  0.77221315070E+02  0.41800000000E+01 0.  1.
        -11    1    1    2    0    0 -0.10115019841E+00  0.66199659876E+02 -0.62601163647E+02  0.91111529945E+02  0.00000000000E+00 0. -1.
         11    1    1    2    0    0 -0.62441068301E+02  0.39452265469E+02 -0.60897960974E+01  0.74111091462E+02  0.00000000000E+00 0.  1.
</event>
<event>
 7    1  0.2841804E-009  0.1518702E+03  0.7561462E-02  0.1198194E+00
         -1   -1    0    0    0  501 -0.00000000000E+00  0.00000000000E+00  0.18566043737E+03  0.18566043737E+03  0.00000000000E+00 0.  1.
          1   -1    0    0  501    0  0.00000000000E+00 -0.00000000000E+00 -0.24658482377E+03  0.24658482377E+03  0.00000000000E+00 0. -1.
         25    2    1    2    0    0 -0.73099247232E+02  0.99867536488E+02  0.60334426242E+02  0.18602684064E+03  0.12509483466E+03 0.  0.
          5    1    3    3  502    0 -0.63042960785E+02  0.11322815765E+03  0.85651923838E+02  0.15539869706E+03  0.41800000000E+01 0.  1.
         -5    1    3    3    0  502 -0.10056286447E+02 -0.13360621163E+02 -0.25317497596E+02  0.30628143585E+02  0.41800000000E+01 0.  1.
        -11    1    1    2    0    0  0.42362043193E+02 -0.11501890727E+03 -0.24821859497E+01  0.12259711653E+03  0.00000000000E+00 0.  1.
         11    1    1    2    0    0  0.30737204039E+02  0.15151370783E+02 -0.11877662669E+03  0.12362130397E+03  0.00000000000E+00 0. -1.
</event>
<event>
 7    1  0.2841804E-009  0.1994617E+03  0.7561462E-02  0.1150194E+00
          3   -1    0    0  501    0  0.00000000000E+00  0.00000000000E+00  0.34929693728E+03  0.34929693728E+03  0.00000000000E+00 0. -1.
         -3   -1    0    0    0  501 -0.00000000000E+00 -0.00000000000E+00 -0.12451628816E+03  0.12451628816E+03  0.00000000000E+00 0.  1.
         25    2    1    2    0    0  0.15353900574E+03  0.90146376192E+02  0.12613147433E+03  0.25150927109E+03  0.12508864538E+03 0.  0.
          5    1    3    3  502    0  0.87348071275E+02  0.10067584418E+03  0.12728182717E+03  0.18434599829E+03  0.41800000000E+01 0. -1.
         -5    1    3    3    0  502  0.66190934467E+02 -0.10529467984E+02 -0.11503528494E+01  0.67163272801E+02  0.41800000000E+01 0. -1.
        -11    1    1    2    0    0 -0.34061101381E+02 -0.69185254059E+02  0.28730432027E+02  0.82293351681E+02  0.00000000000E+00 0.  1.
         11    1    1    2    0    0 -0.11947790436E+03 -0.20961122133E+02  0.69918742769E+02  0.14001060268E+03  0.00000000000E+00 0. -1.
</event>
<event>
 7    1  0.3707496E-009  0.8921481E+02  0.7561462E-02  0.1304764E+00
          2   -1    0    0  501    0  0.00000000000E+00  0.00000000000E+00  0.15048224858E+03  0.15048224858E+03  0.00000000000E+00 0. -1.
         -2   -1    0    0    0  501 -0.00000000000E+00 -0.00000000000E+00 -0.11209657178E+03  0.11209657178E+03  0.00000000000E+00 0.  1.
         25    2    1    2    0    0  0.30212132087E+02  0.40281029078E+02 -0.29842822169E+02  0.13810572298E+03  0.12508901812E+03 0.  0.
          5    1    3    3  502    0  0.31651967854E+02 -0.29172038234E+02  0.24593296167E+02  0.49750954766E+02  0.41800000000E+01 0. -1.
         -5    1    3    3    0  502 -0.14398357669E+01  0.69453067312E+02 -0.54436118336E+02  0.88354768211E+02  0.41800000000E+01 0. -1.
        -11    1    1    2    0    0  0.66638155745E+01 -0.24653153181E+02 -0.16742106733E+02  0.30536577046E+02  0.00000000000E+00 0.  1.
         11    1    1    2    0    0 -0.36875947662E+02 -0.15627875896E+02  0.84970605699E+02  0.93936520341E+02  0.00000000000E+00 0. -1.
</event>
<event>
 7    1  0.2841804E-009  0.1490428E+03  0.7561462E-02  0.1201654E+00
          1   -1    0    0  501    0  0.00000000000E+00  0.00000000000E+00  0.23233279729E+02  0.23233279729E+02  0.00000000000E+00 0. -1.
         -1   -1    0    0    0  501 -0.00000000000E+00 -0.00000000000E+00 -0.12319490747E+04  0.12319490747E+04  0.00000000000E+00 0.  1.
         25    2    1    2    0    0  0.84101394410E+02  0.89354341736E+02 -0.79128974723E+03  0.81045940255E+03  0.12509091171E+03 0.  0.
          5    1    3    3  502    0 -0.29892695173E+02  0.41989470379E+02 -0.23557581430E+03  0.24118483685E+03  0.41800000000E+01 0.  1.
         -5    1    3    3    0  502  0.11399408958E+03  0.47364871357E+02 -0.55571393293E+03  0.56927456570E+03  0.41800000000E+01 0.  1.
        -11    1    1    2    0    0 -0.26568283547E+02 -0.24173355632E+02 -0.27543211428E+02  0.45264260835E+02  0.00000000000E+00 0. -1.
         11    1    1    2    0    0 -0.57533110864E+02 -0.65180986104E+02 -0.38988283636E+03  0.39945869109E+03  0.00000000000E+00 0.  1.
</event>
<event>
 7    1  0.2841804E-009  0.2678679E+03  0.7561462E-02  0.1102506E+00
          2   -1    0    0  501    0  0.00000000000E+00  0.00000000000E+00  0.88097489027E+02  0.88097489027E+02  0.00000000000E+00 0. -1.
         -2   -1    0    0    0  501 -0.00000000000E+00 -0.00000000000E+00 -0.91840585897E+03  0.91840585897E+03  0.00000000000E+00 0.  1.
         25    2    1    2    0    0 -0.22393107721E+03 -0.12515469170E+03 -0.52499440360E+03  0.59755705045E+03  0.12508589262E+03 0.  0.
          5    1    3    3  502    0 -0.22821244779E+03 -0.12377020170E+03 -0.42963228446E+03  0.50199736693E+03  0.41800000000E+01 0. -1.
         -5    1    3    3    0  502  0.42813705828E+01 -0.13844899995E+01 -0.95362119142E+02  0.95559683517E+02  0.41800000000E+01 0. -1.
        -11    1    1    2    0    0  0.66237077477E+02 -0.36433598762E+01 -0.54231197621E+02  0.85683413210E+02  0.00000000000E+00 0.  1.
         11    1    1    2    0    0  0.15769399973E+03  0.12879805158E+03 -0.25108276872E+03  0.32326288434E+03  0.00000000000E+00 0. -1.
</event>
<event>
 7    1  0.2841804E-009  0.1065479E+03  0.7561462E-02  0.1267099E+00
         -1   -1    0    0    0  501 -0.00000000000E+00  0.00000000000E+00  0.43600292126E+02  0.43600292126E+02  0.00000000000E+00 0.  1.
          1   -1    0    0  501    0  0.00000000000E+00 -0.00000000000E+00 -0.35509998781E+03  0.35509998781E+03  0.00000000000E+00 0. -1.
         25    2    1    2    0    0 -0.16879537944E+02  0.13558760199E+02 -0.83352510370E+02  0.15186558510E+03  0.12508699442E+03 0.  0.
          5    1    3    3  502    0 -0.60184338865E+02  0.36949473776E+02 -0.24129531629E+02  0.74747073210E+02  0.41800000000E+01 0. -1.
         -5    1    3    3    0  502  0.43304800921E+02 -0.23390713577E+02 -0.59222978741E+02  0.77118511885E+02  0.41800000000E+01 0. -1.
        -11    1    1    2    0    0  0.50989547479E+02 -0.25247711652E+02 -0.15857751820E+03  0.16847614126E+03  0.00000000000E+00 0. -1.
         11    1    1    2    0    0 -0.34110009535E+02  0.11688951453E+02 -0.69569667114E+02  0.78358553578E+02  0.00000000000E+00 0.  1.
</event>
<event>
 7    1  0.2841804E-009  0.8881082E+02  0.7561462E-02  0.1305757E+00
         -4   -1    0    0    0  501 -0.00000000000E+00  0.00000000000E+00  0.39581736841E+03  0.39581736841E+03  0.00000000000E+00 0.  1.
          4   -1    0    0  501    0  0.00000000000E+00 -0.00000000000E+00 -0.31701658915E+02  0.31701658915E+02  0.00000000000E+00 0. -1.
         25    2    1    2    0    0  0.11012829085E+01 -0.38114032786E+02  0.19690687103E+03  0.23639077902E+03  0.12511751368E+03 0.  0.
          5    1    3    3  502    0  0.42170533516E+02 -0.20319852399E+02  0.15484763250E+02  0.49482326051E+02  0.41800000000E+01 0.  1.
         -5    1    3    3    0  502 -0.41069250607E+02 -0.17794180387E+02  0.18142210778E+03  0.18690845297E+03  0.41800000000E+01 0.  1.
        -11    1    1    2    0    0 -0.15679119161E+01 -0.23751955881E+02  0.84818225954E+02  0.88095091861E+02  0.00000000000E+00 0. -1.
         11    1    1    2    0    0  0.46662900758E+00  0.61865988667E+02  0.82390612509E+02  0.10303315644E+03  0.00000000000E+00 0.  1.
</event>
<event>
 7    1  0.3437429E-009  0.9322610E+02  0.7561462E-02  0.1295222E+00
          1   -1    0    0  501    0  0.00000000000E+00  0.00000000000E+00  0.44119142606E+02  0.44119142606E+02  0.00000000000E+00 0. -1.
         -1   -1    0    0    0  501 -0.00000000000E+00 -0.00000000000E+00 -0.51499018964E+03  0.51499018964E+03  0.00000000000E+00 0.  1.
         25    2    1    2    0    0 -0.25528216871E+02 -0.87041847592E+02 -0.15892775385E+03  0.22165906418E+03  0.12508691659E+03 0.  0.
          5    1    3    3  502    0 -0.17126183730E+02 -0.66790170504E+02 -0.17885908229E+03  0.19173491274E+03  0.41800000000E+01 0.  1.
         -5    1    3    3    0  502 -0.84020331409E+01 -0.20251677089E+02  0.19931328446E+02  0.29924151440E+02  0.41800000000E+01 0.  1.
        -11    1    1    2    0    0  0.30208501339E+02  0.55694536282E+02 -0.29456844482E+03  0.30130549881E+03  0.00000000000E+00 0.  1.
         11    1    1    2    0    0 -0.46802844676E+01  0.31347311310E+02 -0.17374848361E+02  0.36144769257E+02  0.00000000000E+00 0. -1.
</event>
<event>
 7    1  0.2841804E-009  0.1500439E+03  0.7561462E-02  0.1200419E+00
         -2   -1    0    0    0  501 -0.00000000000E+00  0.00000000000E+00  0.22244305308E+03  0.22244305308E+03  0.00000000000E+00 0.  1.
          2   -1    0    0  501    0  0.00000000000E+00 -0.00000000000E+00 -0.14827789750E+03  0.14827789750E+03  0.00000000000E+00 0. -1.
         25    2    1    2    0    0  0.65239155612E+02 -0.11742021692E+03 -0.19303286888E+02  0.18456618015E+03  0.12509357779E+03 0.  0.
          5    1    3    3  502    0  0.54583690886E+02 -0.11701966149E+03  0.31096615847E+02  0.13288134708E+03  0.41800000000E+01 0.  1.
         -5    1    3    3    0  502  0.10655464726E+02 -0.40055543110E+00 -0.50399902735E+02  0.51684833064E+02  0.41800000000E+01 0.  1.
        -11    1    1    2    0    0 -0.54503483695E+02  0.15093458570E+02  0.21092250018E+02  0.60359963861E+02  0.00000000000E+00 0. -1.
         11    1    1    2    0    0 -0.10735671917E+02  0.10232675835E+03  0.72376192444E+02  0.12579480657E+03  0.00000000000E+00 0.  1.
</event>
<event>
 7    1  0.2841804E-009  0.1861954E+03  0.7561462E-02  0.1161938E+00
         -1   -1    0    0    0  501 -0.00000000000E+00  0.00000000000E+00  0.36446106767E+02  0.36446106767E+02  0.00000000000E+00 0.  1.
          1   -1    0    0  501    0  0.00000000000E+00 -0.00000000000E+00 -0.10661367884E+04  0.10661367884E+04  0.00000000000E+00 0. -1.
         25    2    1    2    0    0  0.15285510769E+02  0.15925634072E+03 -0.64226598138E+03  0.67361021715E+03  0.12509558311E+03 0.  0.
          5    1    3    3  502    0  0.32126496600E+02  0.16720690760E+03 -0.46302276864E+03  0.49335364437E+03  0.41800000000E+01 0. -1.
         -5    1    3    3    0  502 -0.16840985831E+02 -0.79505668830E+01 -0.17924321274E+03  0.18025657278E+03  0.41800000000E+01 0. -1.
        -11    1    1    2    0    0  0.31665073470E+02 -0.23762420653E+02 -0.65160276851E+02  0.76244286294E+02  0.00000000000E+00 0.  1.
         11    1    1    2    0    0 -0.46950584239E+02 -0.13549392006E+03 -0.32226442337E+03  0.35272839169E+03  0.00000000000E+00 0. -1.
</event>
<event>
 7    1  0.2841804E-009  0.1234354E+03  0.7561462E-02  0.1237535E+00
          1   -1    0    0  501    0  0.00000000000E+00  0.00000000000E+00  0.12310352140E+03  0.12310352140E+03  0.00000000000E+00 0. -1.
         -1   -1    0    0    0  501 -0.00000000000E+00 -0.00000000000E+00 -0.21482753144E+03  0.21482753144E+03  0.00000000000E+00 0.  1.
         25    2    1    2    0    0  0.72837770438E+02  0.20160422005E+02 -0.15092705010E+03  0.21009058669E+03  0.12508915518E+03 0.  0.
          5    1    3    3  502    0  0.73514712535E+02  0.66616584200E+02 -0.97448111932E+02  0.13912508461E+03  0.41800000000E+01 0.  1.
         -5    1    3    3    0  502 -0.67694209631E+00 -0.46456162194E+02 -0.53478938173E+02  0.70965502074E+02  0.41800000000E+01 0.  1.
        -11    1    1    2    0    0 -0.75435501670E+00 -0.28367170384E+02  0.46075872607E+02  0.54113320390E+02  0.00000000000E+00 0.  1.
         11    1    1    2    0    0 -0.72083415422E+02  0.82067483786E+01  0.13127167453E+02  0.73727145768E+02  0.00000000000E+00 0. -1.
</event>
<event>
 7    1  0.2841804E-009  0.1409894E+03  0.7561462E-02  0.1212004E+00
          4   -1    0    0  501    0  0.00000000000E+00  0.00000000000E+00  0.30176430958E+03  0.30176430958E+03  0.00000000000E+00 0. -1.
         -4   -1    0    0    0  501 -0.00000000000E+00 -0.00000000000E+00 -0.84584438197E+02  0.84584438197E+02  0.00000000000E+00 0.  1.
         25    2    1    2    0    0  0.40340495990E+02  0.10978857686E+03  0.12967714556E+03  0.21481173413E+03  0.12508809621E+03 0.  0.
          5    1    3    3  502    0 -0.19112491124E+02  0.39536465146E+02 -0.12090436142E+02  0.45739156522E+02  0.41800000000E+01 0.  1.
         -5    1    3    3    0  502  0.59452987114E+02  0.70252111711E+02  0.14176758171E+03  0.16907257761E+03  0.41800000000E+01 0.  1.
        -11    1    1    2    0    0 -0.10948490835E+01 -0.10633601514E+03  0.75268600916E+02  0.13028395563E+03  0.00000000000E+00 0.  1.
         11    1    1    2    0    0 -0.39245646907E+02 -0.34525617165E+01  0.12234124902E+02  0.41253058016E+02  0.00000000000E+00 0. -1.
</event>
<event>
 7    1  0.2841804E-009  0.7379304E+02  0.7561462E-02  0.1347650E+00
         -1   -1    0    0    0  501 -0.00000000000E+00  0.00000000000E+00  0.20960681168E+02  0.20960681168E+02  0.00000000000E+00 0.  1.
          1   -1    0    0  501    0  0.00000000000E+00 -0.00000000000E+00 -0.73377112778E+03  0.73377112778E+03  0.00000000000E+00 0. -1.
         25    2    1    2    0    0 -0.48104576767E+02  0.10319848147E+01 -0.50277404538E+03  0.52033183158E+03  0.12509340093E+03 0.  0.
          5    1    3    3  502    0 -0.19648791287E+02  0.46670955804E+01 -0.43649777115E+01  0.21080375012E+02  0.41800000000E+01 0.  1.
         -5    1    3    3    0  502 -0.28455785479E+02 -0.36351107657E+01 -0.49840906767E+03  0.49925145657E+03  0.41800000000E+01 0.  1.
        -11    1    1    2    0    0  0.57811387412E+02  0.30230151355E+02 -0.17341899188E+03  0.18528401256E+03  0.00000000000E+00 0. -1.
         11    1    1    2    0    0 -0.97068106450E+01 -0.31262136170E+02 -0.36617409355E+02  0.49115964804E+02  0.00000000000E+00 0.  1.
</event>
<event>
 7    1  0.2841804E-009  0.9704049E+02  0.7561462E-02  0.1286645E+00
          2   -1    0    0  501    0  0.00000000000E+00  0.00000000000E+00  0.44573575459E+03  0.44573575459E+03  0.00000000000E+00 0. -1.
         -2   -1    0    0    0  501 -0.00000000000E+00 -0.00000000000E+00 -0.35216484536E+02  0.35216484536E+02  0.00000000000E+00 0.  1.
         25    2    1    2    0    0 -0.45012270113E+02  0.35894083044E+02  0.28710269904E+03  0.31841872500E+03  0.12509210598E+03 0.  0.
          5    1    3    3  502    0 -0.16272916858E+02  0.54687669624E+02  0.27632667356E+03  0.28218690960E+03  0.41800000000E+01 0. -1.
         -5    1    3    3    0  502 -0.28739353254E+02 -0.18793586580E+02  0.10776025480E+02  0.36231815399E+02  0.41800000000E+01 0. -1.
        -11    1    1    2    0    0  0.13533565119E+02  0.27973151731E+02  0.58203233289E+02  0.65979322275E+02  0.00000000000E+00 0.  1.
         11    1    1    2    0    0  0.31478704993E+02 -0.63867234775E+02  0.65213337727E+02  0.96554191848E+02  0.00000000000E+00 0. -1.
</event>
<event>
 7    1  0.2841804E-009  0.1178325E+03  0.7561462E-02  0.1246716E+00
          2   -1    0    0  501    0  0.00000000000E+00  0.00000000000E+00  0.11252867149E+03  0.11252867149E+03  0.00000000000E+00 0. -1.
         -2   -1    0    0    0  501 -0.00000000000E+00 -0.00000000000E+00 -0.15627532633E+03  0.15627532633E+03  0.00000000000E+00 0.  1.
         25    2    1    2    0    0  0.54326584339E+02  0.20969960233E+02  0.29321363950E+02  0.14106002197E+03  0.12508825051E+03 0.  0.
          5    1    3    3  502    0 -0.19837822526E+02 -0.38014853382E+02  0.75247274365E+01  0.43735136941E+02  0.41800000000E+01 0. -1.
         -5    1    3    3    0  502  0.74164406866E+02  0.58984813614E+02  0.21796636513E+02  0.97324885030E+02  0.41800000000E+01 0. -1.
        -11    1    1    2    0    0 -0.18532526956E+02 -0.48921798527E+02 -0.61766767955E+02  0.80943996381E+02  0.00000000000E+00 0.  1.
         11    1    1    2    0    0 -0.35794057383E+02  0.27951838294E+02 -0.11301250829E+02  0.46799979469E+02  0.00000000000E+00 0. -1.
</event>
<event>
 7    1  0.2841804E-009  0.1674989E+03  0.7561462E-02  0.1180481E+00
          2   -1    0    0  501    0  0.00000000000E+00  0.00000000000E+00  0.14449086506E+03  0.14449086506E+03  0.00000000000E+00 0. -1.
         -2   -1    0    0    0  501 -0.00000000000E+00 -0.00000000000E+00 -0.31120794697E+03  0.31120794697E+03  0.00000000000E+00 0.  1.
         25    2    1    2    0    0  0.64176059263E+02  0.13700658722E+03 -0.19438066093E+03  0.27628953825E+03  0.12515069349E+03 0.  0.
          5    1    3    3  502    0  0.32376506549E+02  0.24339330012E+02  0.88910086196E+01  0.41679294572E+02  0.41800000000E+01 0.  1.
         -5    1    3    3    0  502  0.31799552714E+02  0.11266725721E+03 -0.20327166955E+03  0.23461024368E+03  0.41800000000E+01 0.  1.
        -11    1    1    2    0    0 -0.70375647754E+02 -0.42061523086E+02  0.93906258846E+01  0.82523253545E+02  0.00000000000E+00 0.  1.
         11    1    1    2    0    0  0.61995884916E+01 -0.94945064134E+02  0.18272953131E+02  0.96886020235E+02  0.00000000000E+00 0. -1.
</event>
<event>
 7    1  0.2841804E-009  0.9621235E+02  0.7561462E-02  0.1288469E+00
         -1   -1    0    0    0  501 -0.00000000000E+00  0.00000000000E+00  0.20402508231E+02  0.20402508231E+02  0.00000000000E+00 0. -1.
          1   -1    0    0  501    0  0.00000000000E+00 -0.00000000000E+00 -0.62433404981E+03  0.62433404981E+03  0.00000000000E+00 0.  1.
         25    2    1    2    0    0  0.28363222042E+02  0.20877143123E+02 -0.33137813398E+03  0.35594217742E+03  0.12507213328E+03 0.  0.
          5    1    3    3  502    0 -0.35201343909E+02  0.11246340972E+02 -0.30076839535E+02  0.47829943285E+02  0.41800000000E+01 0.  1.
         -5    1    3    3    0  502  0.63564565951E+02  0.96308021508E+01 -0.30130129444E+03  0.30811223414E+03  0.41800000000E+01 0.  1.
        -11    1    1    2    0    0 -0.32792394088E+02  0.27153104346E+02 -0.17313714516E+03  0.17829498933E+03  0.00000000000E+00 0.  1.
         11    1    1    2    0    0  0.44291720461E+01 -0.48030247469E+02 -0.99416262443E+02  0.11049939129E+03  0.00000000000E+00 0. -1.
</event>
<event>
 7    1  0.2841804E-009  0.1085397E+03  0.7561462E-02  0.1263298E+00
         -3   -1    0    0    0  501 -0.00000000000E+00  0.00000000000E+00  0.10949175863E+03  0.10949175863E+03  0.00000000000E+00 0.  1.
          3   -1    0    0  501    0  0.00000000000E+00 -0.00000000000E+00 -0.16512792937E+03  0.16512792937E+03  0.00000000000E+00 0. -1.
         25    2    1    2    0    0 -0.19905065437E+02  0.65400710137E+02 -0.63979896129E+02  0.15625193694E+03  0.12509107151E+03 0.  0.
          5    1    3    3  502    0 -0.60036022729E+02 -0.43342943820E+00 -0.48976761159E+02  0.77593217615E+02  0.41800000000E+01 0.  1.
         -5    1    3    3    0  502  0.40130957292E+02  0.65834139575E+02 -0.15003134970E+02  0.78658719324E+02  0.41800000000E+01 0.  1.
        -11    1    1    2    0    0  0.31365088186E+02 -0.34011616928E+02  0.47893836779E+02  0.66591128872E+02  0.00000000000E+00 0.  1.
         11    1    1    2    0    0 -0.11460022749E+02 -0.31389093208E+02 -0.39550111393E+02  0.51776622186E+02  0.00000000000E+00 0. -1.
</event>
<event>
 7    1  0.2841804E-009  0.9623593E+02  0.7561462E-02  0.1288416E+00
          2   -1    0    0  501    0  0.00000000000E+00  0.00000000000E+00  0.67564754248E+03  0.67564754248E+03  0.00000000000E+00 0. -1.
         -2   -1    0    0    0  501 -0.00000000000E+00 -0.00000000000E+00 -0.27787783755E+02  0.27787783755E+02  0.00000000000E+00 0.  1.
         25    2    1    2    0    0  0.60286684852E+02 -0.15400039237E+02  0.50085647790E+03  0.51997774047E+03  0.12509194038E+03 0.  0.
          5    1    3    3  502    0  0.39692897438E+02  0.17650481893E+02  0.46447885369E+03  0.46652453691E+03  0.41800000000E+01 0. -1.
         -5    1    3    3    0  502  0.20593787414E+02 -0.33050521130E+02  0.36377624215E+02  0.53453203557E+02  0.41800000000E+01 0. -1.
        -11    1    1    2    0    0 -0.29287941498E+02  0.53231153135E+02  0.85159884047E+02  0.10461140011E+03  0.00000000000E+00 0.  1.
         11    1    1    2    0    0 -0.30998743353E+02 -0.37831113898E+02  0.61843396774E+02  0.78846185658E+02  0.00000000000E+00 0. -1.
</event>
<event>
 7    1  0.2841804E-009  0.7700616E+02  0.7561462E-02  0.1337769E+00
          1   -1    0    0  501    0  0.00000000000E+00  0.00000000000E+00  0.35752552316E+03  0.35752552316E+03  0.00000000000E+00 0. -1.
         -1   -1    0    0    0  501 -0.00000000000E+00 -0.00000000000E+00 -0.36033299834E+02  0.36033299834E+02  0.00000000000E+00 0.  1.
         25    2    1    2    0    0  0.10080065390E+02  0.28880006623E+02  0.21265731347E+03  0.24860928143E+03  0.12509108417E+03 0.  0.
          5    1    3    3  502    0 -0.23810892031E+02  0.15819005391E+02 -0.37521113009E+01  0.29133318556E+02  0.41800000000E+01 0. -1.
         -5    1    3    3    0  502  0.33890957421E+02  0.13061001232E+02  0.21640942477E+03  0.21947596287E+03  0.41800000000E+01 0. -1.
        -11    1    1    2    0    0 -0.14352734899E+02  0.28030063877E+02  0.14440763773E+02  0.34644207862E+02  0.00000000000E+00 0.  1.
         11    1    1    2    0    0  0.42726695093E+01 -0.56910070500E+02  0.94394146076E+02  0.11030533370E+03  0.00000000000E+00 0. -1.
</event>
<event>
 7    1  0.2841804E-009  0.2195860E+03  0.7561462E-02  0.1134192E+00
         -2   -1    0    0    0  501 -0.00000000000E+00  0.00000000000E+00  0.55635240191E+02  0.55635240191E+02  0.00000000000E+00 0.  1.
          2   -1    0    0  501    0  0.00000000000E+00 -0.00000000000E+00 -0.10939727450E+04  0.10939727450E+04  0.00000000000E+00 0. -1.
         25    2    1    2    0    0  0.19449070997E+03  0.69897478258E+02 -0.47656792551E+03  0.53430039696E+03  0.12509049858E+03 0.  0.
          5    1    3    3  502    0  0.16397969231E+03  0.35448433360E+02 -0.23750446073E+03  0.29081226278E+03  0.41800000000E+01 0.  1.
         -5    1    3    3    0  502  0.30511017659E+02  0.34449044898E+02 -0.23906346478E+03  0.24348813418E+03  0.41800000000E+01 0.  1.
        -11    1    1    2    0    0 -0.41385917959E+02  0.21702193155E+02 -0.32888846167E+02  0.57144165015E+02  0.00000000000E+00 0. -1.
         11    1    1    2    0    0 -0.15310479201E+03 -0.91599671412E+02 -0.52888073314E+03  0.55816342322E+03  0.00000000000E+00 0.  1.
</event>
<event>
 7    1  0.2841804E-009  0.1939639E+03  0.7561462E-02  0.1154934E+00
         -2   -1    0    0    0  501 -0.00000000000E+00  0.00000000000E+00  0.56285482502E+02  0.56285482502E+02  0.00000000000E+00 0.  1.
          2   -1    0    0  501    0  0.00000000000E+00 -0.00000000000E+00 -0.70151624059E+03  0.70151624059E+03  0.00000000000E+00 0. -1.
         25    2    1    2    0    0  0.74960859050E+01 -0.16316397652E+03 -0.29834096489E+03  0.36240044675E+03  0.12509227770E+03 0.  0.
          5    1    3    3  502    0  0.61646941226E+02 -0.74041251899E+02 -0.18296069272E+03  0.20682006631E+03  0.41800000000E+01 0.  1.
         -5    1    3    3    0  502 -0.54150855321E+02 -0.89122724622E+02 -0.11538027216E+03  0.15558038045E+03  0.41800000000E+01 0.  1.
        -11    1    1    2    0    0 -0.49206049246E+02  0.99683075912E+02 -0.17289741823E+03  0.20555161915E+03  0.00000000000E+00 0.  1.
         11    1    1    2    0    0  0.41709963341E+02  0.63480900609E+02 -0.17399237497E+03  0.18984965718E+03  0.00000000000E+00 0. -1.
</event>
<event>
 7    1  0.2841804E-009  0.1112948E+03  0.7561462E-02  0.1258191E+00
          1   -1    0    0  501    0  0.00000000000E+00  0.00000000000E+00  0.30359645939E+03  0.30359645939E+03  0.00000000000E+00 0. -1.
         -1   -1    0    0    0  501 -0.00000000000E+00 -0.00000000000E+00 -0.67408781484E+02  0.67408781484E+02  0.00000000000E+00 0.  1.
         25    2    1    2    0    0  0.36348337438E+02 -0.81097087942E+02  0.17690020278E+03  0.23417793643E+03  0.12509070653E+03 0.  0.
          5    1    3    3  502    0  0.50812454370E+02 -0.11420068910E+02  0.10695264117E+02  0.53330896932E+02  0.41800000000E+01 0. -1.
         -5    1    3    3    0  502 -0.14464116933E+02 -0.69677019032E+02  0.16620493866E+03  0.18084703950E+03  0.41800000000E+01 0. -1.
        -11    1    1    2    0    0  0.25549882993E+01  0.47747560388E+02 -0.11749095316E+02  0.49238183648E+02  0.00000000000E+00 0.  1.
         11    1    1    2    0    0 -0.38903325737E+02  0.33349527554E+02  0.71036570444E+02  0.87589120797E+02  0.00000000000E+00 0. -1.
</event>
<event>
 7    1  0.2841804E-009  0.1998664E+03  0.7561462E-02  0.1149852E+00
         -1   -1    0    0    0  501 -0.00000000000E+00  0.00000000000E+00  0.34906156631E+03  0.34906156631E+03  0.00000000000E+00 0.  1.
          1   -1    0    0  501    0  0.00000000000E+00 -0.00000000000E+00 -0.13436476973E+03  0.13436476973E+03  0.00000000000E+00 0. -1.
         25    2    1    2    0    0 -0.50043712453E+02 -0.17711663166E+03  0.14865980961E+03  0.26762101340E+03  0.12508634399E+03 0.  0.
          5    1    3    3  502    0 -0.60128506385E+02 -0.32627057934E+02  0.14301801046E+02  0.70014113596E+02  0.41800000000E+01 0. -1.
         -5    1    3    3    0  502  0.10084793932E+02 -0.14448957372E+03  0.13435800856E+03  0.19760689980E+03  0.41800000000E+01 0. -1.
        -11    1    1    2    0    0  0.10496085142E+02  0.90129156534E+02  0.77804423401E+02  0.11952807604E+03  0.00000000000E+00 0.  1.
         11    1    1    2    0    0  0.39547627312E+02  0.86987475123E+02 -0.11767436430E+02  0.96277246608E+02  0.00000000000E+00 0. -1.
</event>
<event>
 7    1  0.2841804E-009  0.1171169E+03  0.7561462E-02  0.1247930E+00
          2   -1    0    0  501    0  0.00000000000E+00  0.00000000000E+00  0.65504423088E+03  0.65504423088E+03  0.00000000000E+00 0. -1.
         -2   -1    0    0    0  501 -0.00000000000E+00 -0.00000000000E+00 -0.26153910695E+02  0.26153910695E+02  0.00000000000E+00 0.  1.
         25    2    1    2    0    0  0.22985360463E+02 -0.52989985399E+02  0.46563617376E+03  0.48559278427E+03  0.12508813083E+03 0.  0.
          5    1    3    3  502    0  0.11937275674E+02  0.37672470503E+02  0.80780467857E+02  0.90025940548E+02  0.41800000000E+01 0.  1.
         -5    1    3    3    0  502  0.11048084790E+02 -0.90662455902E+02  0.38485570590E+03  0.39556684373E+03  0.41800000000E+01 0.  1.
        -11    1    1    2    0    0 -0.51489196757E+02  0.53909088294E+02  0.89199705152E+02  0.11624936379E+03  0.00000000000E+00 0.  1.
         11    1    1    2    0    0  0.28503836294E+02 -0.91910289593E+00  0.74054441271E+02  0.79355993508E+02  0.00000000000E+00 0. -1.
</event>
<event>
 7    1  0.2841804E-009  0.1091577E+03  0.7561462E-02  0.1262138E+00
         -2   -1    0    0    0  501 -0.00000000000E+00  0.00000000000E+00  0.66756652553E+03  0.66756652553E+03  0.00000000000E+00 0. -1.
          2   -1    0    0  501    0  0.00000000000E+00 -0.00000000000E+00 -0.25031295441E+02  0.25031295441E+02  0.00000000000E+00 0.  1.
         25    2    1    2    0    0  0.59107957649E+00  0.64048150297E+02  0.27662538140E+03  0.31027556587E+03  0.12508721041E+03 0.  0.
          5    1    3    3  502    0  0.43805361134E+02 -0.13859343179E+02  0.13734436369E+03  0.14488594720E+03  0.41800000000E+01 0. -1.
         -5    1    3    3    0  502 -0.43214281557E+02  0.77907493475E+02  0.13928101771E+03  0.16538961867E+03  0.41800000000E+01 0. -1.
        -11    1    1    2    0    0  0.12971825647E+02  0.40241025398E+01  0.45003776129E+01  0.14307867085E+02  0.00000000000E+00 0.  1.
         11    1    1    2    0    0 -0.13562905223E+02 -0.68072252836E+02  0.36140947108E+03  0.36801438802E+03  0.00000000000E+00 0. -1.
</event>
<event>
 7    1  0.2841804E-009  0.1163837E+03  0.7561462E-02  0.1249185E+00
         -1   -1    0    0    0  501 -0.00000000000E+00  0.00000000000E+00  0.29934282725E+02  0.29934282725E+02  0.00000000000E+00 0.  1.
          1   -1    0    0  501    0  0.00000000000E+00 -0.00000000000E+00 -0.47019796476E+03  0.47019796476E+03  0.00000000000E+00 0. -1.
         25    2    1    2    0    0 -0.25656497641E+02 -0.36039492058E+02 -0.21999822843E+03  0.25691220975E+03  0.12509021603E+03 0.  0.
          5    1    3    3  502    0  0.44962698199E+02 -0.41899789267E+02 -0.97345593865E+02  0.11519927784E+03  0.41800000000E+01 0. -1.
         -5    1    3    3    0  502 -0.70619195841E+02  0.58602972089E+01 -0.12265263457E+03  0.14171293191E+03  0.41800000000E+01 0. -1.
        -11    1    1    2    0    0 -0.12560291457E+02  0.55773243444E+02 -0.15349107555E+03  0.16379232546E+03  0.00000000000E+00 0.  1.
         11    1    1    2    0    0  0.38216789099E+02 -0.19733751387E+02 -0.66774378049E+02  0.79427712271E+02  0.00000000000E+00 0. -1.
</event>
<event>
 7    1  0.2841804E-009  0.1205397E+03  0.7561462E-02  0.1242209E+00
         -2   -1    0    0    0  501 -0.00000000000E+00  0.00000000000E+00  0.16930562290E+03  0.16930562290E+03  0.00000000000E+00 0.  1.
          2   -1    0    0  501    0  0.00000000000E+00 -0.00000000000E+00 -0.17019962129E+03  0.17019962129E+03  0.00000000000E+00 0. -1.
         25    2    1    2    0    0  0.62534933517E+02  0.28504060839E+02 -0.10435586861E+03  0.17680686273E+03  0.12508964786E+03 0.  0.
          5    1    3    3  502    0  0.99887894052E+02  0.31175396258E+02 -0.71400179951E+02  0.12674760277E+03  0.41800000000E+01 0.  1.
         -5    1    3    3    0  502 -0.37352960535E+02 -0.26713354198E+01 -0.32955688656E+02  0.50059259967E+02  0.41800000000E+01 0.  1.
        -11    1    1    2    0    0 -0.21323525025E+01  0.20674583348E+02  0.78045264384E+02  0.80765392443E+02  0.00000000000E+00 0.  1.
         11    1    1    2    0    0 -0.60402581015E+02 -0.49178644186E+02  0.25416605828E+02  0.81932989016E+02  0.00000000000E+00 0. -1.
</event>
<event>
 7    1  0.2841804E-009  0.9401116E+02  0.7561462E-02  0.1293419E+00
          1   -1    0    0  501    0  0.00000000000E+00  0.00000000000E+00  0.22922304123E+03  0.22922304123E+03  0.00000000000E+00 0. -1.
         -1   -1    0    0    0  501 -0.00000000000E+00 -0.00000000000E+00 -0.50308316301E+02  0.50308316301E+02  0.00000000000E+00 0.  1.
         25    2    1    2    0    0  0.10101787468E+02 -0.33833413548E+01  0.89243579576E+02  0.15404901261E+03  0.12511270392E+03 0.  0.
          5    1    3    3  502    0  0.64561333584E+02 -0.19870359696E+02  0.57195621048E+02  0.88610430851E+02  0.41800000000E+01 0. -1.
         -5    1    3    3    0  502 -0.54459546115E+02  0.16487018341E+02  0.32047958527E+02  0.65438581759E+02  0.41800000000E+01 0. -1.
        -11    1    1    2    0    0  0.25575662340E+02  0.91211530116E+01 -0.17186041851E+01  0.27207784488E+02  0.00000000000E+00 0.  1.
         11    1    1    2    0    0 -0.35677449809E+02 -0.57378116567E+01  0.91389749542E+02  0.98274560436E+02  0.00000000000E+00 0. -1.
</event>
<event>
 7    1  0.2841804E-009  0.3342316E+03  0.7561462E-02  0.1069280E+00
         -1   -1    0    0    0  501 -0.00000000000E+00  0.00000000000E+00  0.86677842149E+02  0.86677842149E+02  0.00000000000E+00 0.  1.
          1   -1    0    0  501    0  0.00000000000E+00 -0.00000000000E+00 -0.13848621858E+04  0.13848621858E+04  0.00000000000E+00 0. -1.
         25    2    1    2    0    0 -0.12231276920E+03 -0.29910196298E+03 -0.79017913642E+03  0.86281711191E+03  0.12509157923E+03 0.  0.
          5    1    3    3  502    0  0.23630751044E+02 -0.59687879040E+02 -0.18389384862E+03  0.19482164988E+03  0.41800000000E+01 0.  1.
         -5    1    3    3    0  502 -0.14594352025E+03 -0.23941408394E+03 -0.60628528780E+03  0.66799546203E+03  0.41800000000E+01 0.  1.
        -11    1    1    2    0    0  0.52109827138E+02  0.15270313417E+03 -0.33282532729E+03  0.36987346452E+03  0.00000000000E+00 0. -1.
         11    1    1    2    0    0  0.70202942067E+02  0.14639882881E+03 -0.17517987990E+03  0.23884945148E+03  0.00000000000E+00 0.  1.
</event>
<event>
 7    1  0.2841804E-009  0.9911396E+02  0.7561462E-02  0.1282170E+00
          1   -1    0    0  501    0  0.00000000000E+00  0.00000000000E+00  0.17719614021E+02  0.17719614021E+02  0.00000000000E+00 0. -1.
         -1   -1    0    0    0  501 -0.00000000000E+00 -0.00000000000E+00 -0.76062204261E+03  0.76062204261E+03  0.00000000000E+00 0.  1.
         25    2    1    2    0    0  0.37061645302E+01  0.43916687394E+02 -0.39691941030E+03  0.41849157010E+03  0.12509102640E+03 0.  0.
          5    1    3    3  502    0  0.42685535553E+02 -0.24433921977E+01 -0.48365363151E+02  0.64689302544E+02  0.41800000000E+01 0. -1.
         -5    1    3    3    0  502 -0.38979371022E+02  0.46360079592E+02 -0.34855404715E+03  0.35380226755E+03  0.41800000000E+01 0. -1.
        -11    1    1    2    0    0 -0.43673691938E+02 -0.20661357458E+02 -0.12353550083E+03  0.13264728804E+03  0.00000000000E+00 0. -1.
         11    1    1    2    0    0  0.39967527408E+02 -0.23255329936E+02 -0.22244751746E+03  0.22720279849E+03  0.00000000000E+00 0.  1.
</event>
<event>
 7    1  0.2841804E-009  0.1082297E+03  0.7561462E-02  0.1263884E+00
          1   -1    0    0  501    0  0.00000000000E+00  0.00000000000E+00  0.27363230228E+02  0.27363230228E+02  0.00000000000E+00 0. -1.
         -1   -1    0    0    0  501 -0.00000000000E+00 -0.00000000000E+00 -0.44818987551E+03  0.44818987551E+03  0.00000000000E+00 0.  1.
         25    2    1    2    0    0  0.63497073573E+01  0.10332082228E+02 -0.20480981116E+03  0.24029103721E+03  0.12508258515E+03 0.  0.
          5    1    3    3  502    0 -0.55965260945E+02 -0.12922943707E+02 -0.11317057252E+03  0.12698095838E+03  0.41800000000E+01 0.  1.
         -5    1    3    3    0  502  0.62314968302E+02  0.23255025934E+02 -0.91639238640E+02  0.11331007883E+03  0.41800000000E+01 0.  1.
        -11    1    1    2    0    0 -0.44397070620E+02  0.14601135345E+02 -0.92533944375E+02  0.10366688909E+03  0.00000000000E+00 0. -1.
         11    1    1    2    0    0  0.38047363263E+02 -0.24933217572E+02 -0.12348288975E+03  0.13159517944E+03  0.00000000000E+00 0.  1.
</event>
<event>
 7    1  0.2841804E-009  0.1339910E+03  0.7561462E-02  0.1221651E+00
         -2   -1    0    0    0  501 -0.00000000000E+00  0.00000000000E+00  0.50489747536E+02  0.50489747536E+02  0.00000000000E+00 0.  1.
          2   -1    0    0  501    0  0.00000000000E+00 -0.00000000000E+00 -0.41848994570E+03  0.41848994570E+03  0.00000000000E+00 0. -1.
         25    2    1    2    0    0 -0.43663110826E+02  0.77612520598E+02 -0.25894815563E+03  0.30105426578E+03  0.12509737422E+03 0.  0.
          5    1    3    3  502    0 -0.40286633928E+02 -0.19970748704E+02 -0.14001698352E+03  0.14711924330E+03  0.41800000000E+01 0. -1.
         -5    1    3    3    0  502 -0.33764768980E+01  0.97583269302E+02 -0.11893117212E+03  0.15393502248E+03  0.41800000000E+01 0. -1.
        -11    1    1    2    0    0 -0.22603740792E+02 -0.46881933905E+02 -0.62385934395E+02  0.81245613019E+02  0.00000000000E+00 0. -1.
         11    1    1    2    0    0  0.66266851618E+02 -0.30730586693E+02 -0.46666108130E+02  0.86679814431E+02  0.00000000000E+00 0.  1.
</event>
<event>
 7    1  0.2841804E-009  0.1171133E+03  0.7561462E-02  0.1247937E+00
         -1   -1    0    0    0  501 -0.00000000000E+00  0.00000000000E+00  0.25686969682E+03  0.25686969682E+03  0.00000000000E+00 0.  1.
          1   -1    0    0  501    0  0.00000000000E+00 -0.00000000000E+00 -0.84537861175E+02  0.84537861175E+02  0.00000000000E+00 0. -1.
         25    2    1    2    0    0  0.79584979829E+02  0.45429008405E+02  0.13812139075E+03  0.20767272611E+03  0.12511146538E+03 0.  0.
          5    1    3    3  502    0  0.25716771841E+02 -0.16601129446E+02  0.11936721175E+03  0.12330025747E+03  0.41800000000E+01 0. -1.
         -5    1    3    3    0  502  0.53868207988E+02  0.62030137852E+02  0.18754179002E+02  0.84372468637E+02  0.41800000000E+01 0. -1.
        -11    1    1    2    0    0 -0.82479716350E+02 -0.72668056944E+01  0.60270239073E+00  0.82801408951E+02  0.00000000000E+00 0. -1.
         11    1    1    2    0    0  0.28947365207E+01 -0.38162202711E+02  0.33607742502E+02  0.50933422930E+02  0.00000000000E+00 0.  1.
</event>
<event>
 7    1  0.2841804E-009  0.1021387E+03  0.7561462E-02  0.1275862E+00
         -1   -1    0    0    0  501 -0.00000000000E+00  0.00000000000E+00  0.32094423320E+02  0.32094423320E+02  0.00000000000E+00 0.  1.
          1   -1    0    0  501    0  0.00000000000E+00 -0.00000000000E+00 -0.50009575764E+03  0.50009575764E+03  0.00000000000E+00 0. -1.
         25    2    1    2    0    0 -0.18670960993E+02 -0.59464908404E+02 -0.21099214237E+03  0.25307922966E+03  0.12508689871E+03 0.  0.
          5    1    3    3  502    0 -0.39534077624E+01  0.16856663445E+02  0.88315538193E+01  0.19880776602E+02  0.41800000000E+01 0. -1.
         -5    1    3    3    0  502 -0.14717553231E+02 -0.76321571849E+02 -0.21982369619E+03  0.23319845306E+03  0.41800000000E+01 0. -1.
        -11    1    1    2    0    0  0.38200491363E+02 -0.74492113829E+01 -0.10089994412E+03  0.10814604484E+03  0.00000000000E+00 0.  1.
         11    1    1    2    0    0 -0.19529530370E+02  0.66914119787E+02 -0.15610924783E+03  0.17096490646E+03  0.00000000000E+00 0. -1.
</event>
<event>
 7    1  0.2841804E-009  0.9692037E+02  0.7561462E-02  0.1286909E+00
         -2   -1    0    0    0  501 -0.00000000000E+00  0.00000000000E+00  0.53920921428E+02  0.53920921428E+02  0.00000000000E+00 0.  1.
          2   -1    0    0  501    0  0.00000000000E+00 -0.00000000000E+00 -0.29256370089E+03  0.29256370089E+03  0.00000000000E+00 0. -1.
         25    2    1    2    0    0 -0.51011520775E+02  0.24390963382E+02 -0.17016228849E+03  0.21863302437E+03  0.12509236817E+03 0.  0.
          5    1    3    3  502    0 -0.77819961146E+01  0.69322774909E+02 -0.11841292029E+03  0.13749654060E+03  0.41800000000E+01 0. -1.
         -5    1    3    3    0  502 -0.43229524660E+02 -0.44931811527E+02 -0.51749368193E+02  0.81136483766E+02  0.41800000000E+01 0. -1.
        -11    1    1    2    0    0  0.27379979783E+02  0.17312607256E+00 -0.85482665515E+02  0.89760678302E+02  0.00000000000E+00 0. -1.
         11    1    1    2    0    0  0.23631540992E+02 -0.24564089455E+02  0.17002174543E+02  0.38090919647E+02  0.00000000000E+00 0.  1.
</event>
<event>
 7    1  0.2841804E-009  0.9132676E+02  0.7561462E-02  0.1299670E+00
          2   -1    0    0  501    0  0.00000000000E+00  0.00000000000E+00  0.33960357606E+03  0.33960357606E+03  0.00000000000E+00 0. -1.
         -2   -1    0    0    0  501 -0.00000000000E+00 -0.00000000000E+00 -0.62653831854E+02  0.62653831854E+02  0.00000000000E+00 0.  1.
         25    2    1    2    0    0  0.11166414083E+02 -0.33551062188E+02  0.27830346873E+03  0.30716547394E+03  0.12508974817E+03 0.  0.
          5    1    3    3  502    0 -0.54611769133E+02 -0.55256679013E+01  0.87655705789E+02  0.10350832571E+03  0.41800000000E+01 0.  1.
         -5    1    3    3    0  502  0.65778183216E+02 -0.28025394287E+02  0.19064776294E+03  0.20365714823E+03  0.41800000000E+01 0.  1.
        -11    1    1    2    0    0 -0.99714900080E+01  0.44177512534E+02 -0.36618910509E+02  0.58241118066E+02  0.00000000000E+00 0.  1.
         11    1    1    2    0    0 -0.11949240754E+01 -0.10626450346E+02  0.35265185985E+02  0.36850815907E+02  0.00000000000E+00 0. -1.
</event>
<event>
 7    1  0.2841804E-009  0.9767888E+02  0.7561462E-02  0.1285254E+00
          3   -1    0    0  501    0  0.00000000000E+00  0.00000000000E+00  0.35409983911E+02  0.35409983911E+02  0.00000000000E+00 0. -1.
         -3   -1    0    0    0  501 -0.00000000000E+00 -0.00000000000E+00 -0.45256813752E+03  0.45256813752E+03  0.00000000000E+00 0.  1.
         25    2    1    2    0    0  0.24204667477E+02  0.26517054366E+02 -0.37031332677E+03  0.39251993128E+03  0.12510362254E+03 0.  0.
          5    1    3    3  502    0 -0.24316389147E+02  0.62953909947E+02 -0.22640121009E+03  0.23628258905E+03  0.41800000000E+01 0.  1.
         -5    1    3    3    0  502  0.48521056624E+02 -0.36436855581E+02 -0.14391211668E+03  0.15623734223E+03  0.41800000000E+01 0.  1.
        -11    1    1    2    0    0  0.16304433254E+02  0.32799735363E+01 -0.41716796250E+02  0.44909730120E+02  0.00000000000E+00 0.  1.
         11    1    1    2    0    0 -0.40509100731E+02 -0.29797027902E+02 -0.51280305949E+01  0.50548460032E+02  0.00000000000E+00 0. -1.
</event>
<event>
 7    1  0.2841804E-009  0.1361392E+03  0.7561462E-02  0.1218620E+00
         -2   -1    0    0    0  501 -0.00000000000E+00  0.00000000000E+00  0.29322535961E+03  0.29322535961E+03  0.00000000000E+00 0. -1.
          2   -1    0    0  501    0  0.00000000000E+00 -0.00000000000E+00 -0.12201623327E+03  0.12201623327E+03  0.00000000000E+00 0.  1.
         25    2    1    2    0    0  0.98373569947E+02  0.65773575995E+02  0.20000196126E+03  0.26391556089E+03  0.12508843355E+03 0.  0.
          5    1    3    3  502    0  0.82162516049E+02  0.76644163604E+01  0.18348112274E+03  0.20122678034E+03  0.41800000000E+01 0. -1.
         -5    1    3    3    0  502  0.16211053899E+02  0.58109159635E+02  0.16520838515E+02  0.62688780553E+02  0.41800000000E+01 0. -1.
        -11    1    1    2    0    0 -0.43855942930E+02 -0.13751977698E+00  0.24979391639E+02  0.50471107068E+02  0.00000000000E+00 0. -1.
         11    1    1    2    0    0 -0.54517627018E+02 -0.65636056218E+02 -0.53772226559E+02  0.10085492492E+03  0.00000000000E+00 0.  1.
</event>
<event>
 7    1  0.2841804E-009  0.1473019E+03  0.7561462E-02  0.1203828E+00
         -2   -1    0    0    0  501 -0.00000000000E+00  0.00000000000E+00  0.52308964757E+02  0.52308964757E+02  0.00000000000E+00 0.  1.
          2   -1    0    0  501    0  0.00000000000E+00 -0.00000000000E+00 -0.55034595655E+03  0.55034595655E+03  0.00000000000E+00 0. -1.
         25    2    1    2    0    0  0.80590146407E+02  0.75399900525E+02 -0.38844979896E+03  0.42275372086E+03  0.12509014945E+03 0.  0.
          5    1    3    3  502    0  0.59913916842E+02 -0.19708314566E+02 -0.10005653552E+03  0.11835065608E+03  0.41800000000E+01 0. -1.
         -5    1    3    3    0  502  0.20676229565E+02  0.95108215092E+02 -0.28839326344E+03  0.30440306478E+03  0.41800000000E+01 0. -1.
        -11    1    1    2    0    0 -0.24007782172E+02 -0.73541496575E+02 -0.31679055432E+02  0.83595980025E+02  0.00000000000E+00 0.  1.
         11    1    1    2    0    0 -0.56582364235E+02 -0.18584039502E+01 -0.77908137395E+02  0.96305220419E+02  0.00000000000E+00 0. -1.
</event>
<event>
 7    1  0.2841804E-009  0.2359656E+03  0.7561462E-02  0.1122510E+00
          1   -1    0    0  501    0  0.00000000000E+00  0.00000000000E+00  0.70970886571E+03  0.70970886571E+03  0.00000000000E+00 0. -1.
         -1   -1    0    0    0  501 -0.00000000000E+00 -0.00000000000E+00 -0.10217605478E+03  0.10217605478E+03  0.00000000000E+00 0.  1.
         25    2    1    2    0    0 -0.28058937347E+01 -0.21504507977E+03  0.12143647902E+03  0.27684959222E+03  0.12508644571E+03 0.  0.
          5    1    3    3  502    0  0.59211295145E+02 -0.77296127084E+02  0.42044137978E+02  0.10614071167E+03  0.41800000000E+01 0.  1.
         -5    1    3    3    0  502 -0.62017188880E+02 -0.13774895269E+03  0.79392341040E+02  0.17070888055E+03  0.41800000000E+01 0.  1.
        -11    1    1    2    0    0 -0.27784170833E+02  0.13089911137E+03  0.28012489622E+03  0.31044563935E+03  0.00000000000E+00 0.  1.
         11    1    1    2    0    0  0.30590064568E+02  0.84145968405E+02  0.20597143569E+03  0.22458968892E+03  0.00000000000E+00 0. -1.
</event>
<event>
 7    1  0.2841804E-009  0.1265178E+03  0.7561462E-02  0.1232716E+00
          1   -1    0    0  501    0  0.00000000000E+00  0.00000000000E+00  0.24603951175E+02  0.24603951175E+02  0.00000000000E+00 0.  1.
         -1   -1    0    0    0  501 -0.00000000000E+00 -0.00000000000E+00 -0.68180311629E+03  0.68180311629E+03  0.00000000000E+00 0. -1.
         25    2    1    2    0    0  0.40084838547E+02  0.57159894453E+02 -0.36314671924E+03  0.39038200320E+03  0.12509404829E+03 0.  0.
          5    1    3    3  502    0 -0.45086253600E+02  0.22407671593E+02 -0.11131813440E+03  0.12224595477E+03  0.41800000000E+01 0.  1.
         -5    1    3    3    0  502  0.85171092147E+02  0.34752222859E+02 -0.25182858484E+03  0.26813604844E+03  0.41800000000E+01 0.  1.
        -11    1    1    2    0    0  0.22478053509E+01 -0.66945104486E+02 -0.12905158631E+03  0.14539948959E+03  0.00000000000E+00 0.  1.
         11    1    1    2    0    0 -0.42332643898E+02  0.97852100337E+01 -0.16500085957E+03  0.17062557468E+03  0.00000000000E+00 0. -1.
</event>
<event>
 7    1  0.2841804E-009  0.1895833E+03  0.7561462E-02  0.1158838E+00
         -2   -1    0    0    0  501 -0.00000000000E+00  0.00000000000E+00  0.51617451073E+03  0.51617451073E+03  0.00000000000E+00 0. -1.
          2   -1    0    0  501    0  0.00000000000E+00 -0.00000000000E+00 -0.72319423224E+02  0.72319423224E+02  0.00000000000E+00 0.  1.
         25    2    1    2    0    0  0.33350856413E+02  0.15343525635E+03  0.18689412408E+03  0.27428230299E+03  0.12508681228E+03 0.  0.
          5    1    3    3  502    0 -0.26316039056E+02 -0.78854856902E+01  0.17521730709E+02  0.32851152844E+02  0.41800000000E+01 0.  1.
         -5    1    3    3    0  502  0.59666895470E+02  0.16132074204E+03  0.16937239337E+03  0.24143115015E+03  0.41800000000E+01 0.  1.
        -11    1    1    2    0    0  0.28134152811E+02 -0.28320275535E+02  0.41490361394E+02  0.57576198636E+02  0.00000000000E+00 0.  1.
         11    1    1    2    0    0 -0.61485009224E+02 -0.12511498081E+03  0.21547060204E+03  0.25663543233E+03  0.00000000000E+00 0. -1.
</event>
<event>
 7    1  0.2841804E-009  0.1084885E+03  0.7561462E-02  0.1263395E+00
         -2   -1    0    0    0  501 -0.00000000000E+00  0.00000000000E+00  0.39431986539E+03  0.39431986539E+03  0.00000000000E+00 0.  1.
          2   -1    0    0  501    0  0.00000000000E+00 -0.00000000000E+00 -0.44260001174E+02  0.44260001174E+02  0.00000000000E+00 0. -1.
         25    2    1    2    0    0  0.41454220907E+02  0.16990087343E+02  0.29139337302E+03  0.32025546595E+03  0.12508537137E+03 0.  0.
          5    1    3    3  502    0  0.29143647388E+02 -0.50585782662E+02  0.18043103123E+03  0.18968685517E+03  0.41800000000E+01 0.  1.
         -5    1    3    3    0  502  0.12310573520E+02  0.67575870004E+02  0.11096234179E+03  0.13056861078E+03  0.41800000000E+01 0.  1.
        -11    1    1    2    0    0  0.16281451769E+02  0.16256821605E+02 -0.77228526133E+01  0.24269577106E+02  0.00000000000E+00 0. -1.
         11    1    1    2    0    0 -0.57735672676E+02 -0.33246908948E+02  0.66389343809E+02  0.94054823509E+02  0.00000000000E+00 0.  1.
</event>
<event>
 7    1  0.2841804E-009  0.1019866E+03  0.7561462E-02  0.1276173E+00
          1   -1    0    0  501    0  0.00000000000E+00  0.00000000000E+00  0.97480943532E+02  0.97480943532E+02  0.00000000000E+00 0. -1.
         -1   -1    0    0    0  501 -0.00000000000E+00 -0.00000000000E+00 -0.14712038339E+03  0.14712038339E+03  0.00000000000E+00 0.  1.
         25    2    1    2    0    0  0.23775377353E+02 -0.27221388494E+02 -0.62147091027E+02  0.14424971357E+03  0.12505777217E+03 0.  0.
          5    1    3    3  502    0 -0.29633808059E+02 -0.42837597178E+02  0.98326040330E+01  0.53173064743E+02  0.41800000000E+01 0.  1.
         -5    1    3    3    0  502  0.53409185412E+02  0.15616208684E+02 -0.71979695060E+02  0.91076648824E+02  0.41800000000E+01 0.  1.
        -11    1    1    2    0    0 -0.56114937790E+02  0.43063922806E+01 -0.60178274130E+01  0.56600755335E+02  0.00000000000E+00 0.  1.
         11    1    1    2    0    0  0.32339560437E+02  0.22914996213E+02  0.18525478583E+02  0.43750858020E+02  0.00000000000E+00 0. -1.
</event>
<event>
 7    1  0.2841804E-009  0.1057127E+03  0.7561462E-02  0.1268722E+00
         -2   -1    0    0    0  501 -0.00000000000E+00  0.00000000000E+00  0.10481326111E+03  0.10481326111E+03  0.00000000000E+00 0. -1.
          2   -1    0    0  501    0  0.00000000000E+00 -0.00000000000E+00 -0.12710501243E+03  0.12710501243E+03  0.00000000000E+00 0.  1.
         25    2    1    2    0    0 -0.10557236587E+01  0.31018623007E+02  0.12085264658E+02  0.12944595926E+03  0.12508770212E+03 0.  0.
          5    1    3    3  502    0 -0.46006832642E+02  0.55103370214E+02  0.25929407087E+02  0.76438318993E+02  0.41800000000E+01 0.  1.
         -5    1    3    3    0  502  0.44951108983E+02 -0.24084747206E+02 -0.13844142429E+02  0.53007640265E+02  0.41800000000E+01 0.  1.
        -11    1    1    2    0    0  0.40402234952E+02 -0.39534609773E+01 -0.36608275240E+02  0.54663847824E+02  0.00000000000E+00 0.  1.
         11    1    1    2    0    0 -0.39346511294E+02 -0.27065162030E+02  0.22312592647E+01  0.47808466453E+02  0.00000000000E+00 0. -1.
</event>
<event>
 7    1  0.2841804E-009  0.8944198E+02  0.7561462E-02  0.1304209E+00
         -2   -1    0    0    0  501 -0.00000000000E+00  0.00000000000E+00  0.56533271970E+02  0.56533271970E+02  0.00000000000E+00 0.  1.
          2   -1    0    0  501    0  0.00000000000E+00 -0.00000000000E+00 -0.26684597042E+03  0.26684597042E+03  0.00000000000E+00 0. -1.
         25    2    1    2    0    0  0.31210634919E+02 -0.38129557046E+02 -0.74546737376E+02  0.15372824985E+03  0.12508873609E+03 0.  0.
          5    1    3    3  502    0 -0.12594429901E+02 -0.39048151778E+02 -0.96206676725E+02  0.10467365890E+03  0.41800000000E+01 0. -1.
         -5    1    3    3    0  502  0.43805064820E+02  0.91859473203E+00  0.21659939349E+02  0.49054590945E+02  0.41800000000E+01 0. -1.
        -11    1    1    2    0    0  0.11446707250E+02  0.48414482377E+02 -0.38370940653E+02  0.62827687347E+02  0.00000000000E+00 0.  1.
         11    1    1    2    0    0 -0.42657342169E+02 -0.10284925332E+02 -0.97395020418E+02  0.10682330519E+03  0.00000000000E+00 0. -1.
</event>
<event>
 7    1  0.2841804E-009  0.7667820E+02  0.7561462E-02  0.1338752E+00
         -1   -1    0    0    0  501 -0.00000000000E+00  0.00000000000E+00  0.21423106134E+03  0.21423106134E+03  0.00000000000E+00 0.  1.
          1   -1    0    0  501    0  0.00000000000E+00 -0.00000000000E+00 -0.68989629587E+02  0.68989629587E+02  0.00000000000E+00 0. -1.
         25    2    1    2    0    0 -0.53632626650E+01  0.48976208173E+02  0.11015832550E+03  0.17380249339E+03  0.12508004029E+03 0.  0.
          5    1    3    3  502    0 -0.27533502851E+02  0.60127735236E+02  0.58732025908E+01  0.66523719323E+02  0.41800000000E+01 0. -1.
         -5    1    3    3    0  502  0.22170240186E+02 -0.11151527064E+02  0.10428512291E+03  0.10727877407E+03  0.41800000000E+01 0. -1.
        -11    1    1    2    0    0 -0.58120612880E+01 -0.50334075662E+02  0.62100981678E+02  0.80148806320E+02  0.00000000000E+00 0.  1.
         11    1    1    2    0    0  0.11175323953E+02  0.13578674899E+01 -0.27017875425E+02  0.29269391214E+02  0.00000000000E+00 0. -1.
</event>
<event>
 7    1  0.2841804E-009  0.1514850E+03  0.7561462E-02  0.1198660E+00
          2   -1    0    0  501    0  0.00000000000E+00  0.00000000000E+00  0.14049953097E+04  0.14049953097E+04  0.00000000000E+00 0. -1.
         -2   -1    0    0    0  501 -0.00000000000E+00 -0.00000000000E+00 -0.22816573096E+02  0.22816573096E+02  0.00000000000E+00 0.  1.
         25    2    1    2    0    0  0.11585504885E+03  0.68698357209E+02  0.96136985750E+03  0.97878532813E+03  0.12508740554E+03 0.  0.
          5    1    3    3  502    0  0.92186832680E+02  0.74960827705E+01  0.78705043008E+03  0.79247741625E+03  0.41800000000E+01 0. -1.
         -5    1    3    3    0  502  0.23668216173E+02  0.61202274439E+02  0.17431942742E+03  0.18630791188E+03  0.41800000000E+01 0. -1.
        -11    1    1    2    0    0 -0.10008610318E+02  0.88958183870E+01  0.74292045574E+01  0.15313423707E+02  0.00000000000E+00 0.  1.
         11    1    1    2    0    0 -0.10584643853E+03 -0.77594175596E+02  0.41337967452E+03  0.43371313094E+03  0.00000000000E+00 0. -1.
</event>
<event>
 7    1  0.2841804E-009  0.1601518E+03  0.7561462E-02  0.1188526E+00
         -1   -1    0    0    0  501 -0.00000000000E+00  0.00000000000E+00  0.83400398816E+02  0.83400398816E+02  0.00000000000E+00 0.  1.
          1   -1    0    0  501    0  0.00000000000E+00 -0.00000000000E+00 -0.42498444804E+03  0.42498444804E+03  0.00000000000E+00 0. -1.
         25    2    1    2    0    0  0.60800677838E+02  0.14027885304E+03 -0.15861060603E+03  0.25334207823E+03  0.12509998089E+03 0.  0.
          5    1    3    3  502    0  0.35520915479E+02  0.65807832752E+02 -0.15769798137E+03  0.17458101849E+03  0.41800000000E+01 0.  1.
         -5    1    3    3    0  502  0.25279762359E+02  0.74471020290E+02 -0.91262466552E+00  0.78761059742E+02  0.41800000000E+01 0.  1.
        -11    1    1    2    0    0 -0.75732875186E+00 -0.85094669843E+02 -0.48989474163E+02  0.98191878286E+02  0.00000000000E+00 0.  1.
         11    1    1    2    0    0 -0.60043349086E+02 -0.55184183199E+02 -0.13398396903E+03  0.15685089034E+03  0.00000000000E+00 0. -1.
</event>
<event>
 7    1  0.2841804E-009  0.1248664E+03  0.7561462E-02  0.1235278E+00
          1   -1    0    0  501    0  0.00000000000E+00  0.00000000000E+00  0.33060261483E+03  0.33060261483E+03  0.00000000000E+00 0. -1.
         -1   -1    0    0    0  501 -0.00000000000E+00 -0.00000000000E+00 -0.50890959346E+02  0.50890959346E+02  0.00000000000E+00 0.  1.
         25    2    1    2    0    0  0.40947301810E+02  0.57905175229E+02  0.14324155830E+03  0.20296734285E+03  0.12509159601E+03 0.  0.
          5    1    3    3  502    0  0.95735989453E+01  0.92956848168E+02  0.11381539836E+03  0.14732293346E+03  0.41800000000E+01 0. -1.
         -5    1    3    3    0  502  0.31373702865E+02 -0.35051672939E+02  0.29426159941E+02  0.55644409388E+02  0.41800000000E+01 0. -1.
        -11    1    1    2    0    0 -0.65382510179E+02 -0.52707112639E+02  0.76661065643E+02  0.11370941626E+03  0.00000000000E+00 0.  1.
         11    1    1    2    0    0  0.24435208369E+02 -0.51980625899E+01  0.59809031539E+02  0.64816815075E+02  0.00000000000E+00 0. -1.
</event>
<event>
 7    1  0.2841804E-009  0.9020167E+02  0.7561462E-02  0.1302364E+00
         -1   -1    0    0    0  501 -0.00000000000E+00  0.00000000000E+00  0.67840839771E+03  0.67840839771E+03  0.00000000000E+00 0.  1.
          1   -1    0    0  501    0  0.00000000000E+00 -0.00000000000E+00 -0.18920275355E+02  0.18920275355E+02  0.00000000000E+00 0. -1.
         25    2    1    2    0    0  0.37111988855E+02 -0.80186669078E+00  0.39677256225E+03  0.41768239474E+03  0.12510864886E+03 0.  0.
          5    1    3    3  502    0 -0.29622015430E+02 -0.29681405186E+02  0.61261027290E+02  0.74356139468E+02  0.41800000000E+01 0.  1.
         -5    1    3    3    0  502  0.66734004285E+02  0.28879538496E+02  0.33551153495E+03  0.34332625527E+03  0.41800000000E+01 0.  1.
        -11    1    1    2    0    0 -0.47109341682E+02  0.13743683241E+02  0.25800129299E+03  0.26262681906E+03  0.00000000000E+00 0.  1.
         11    1    1    2    0    0  0.99973528265E+01 -0.12941816550E+02  0.47142671141E+01  0.17019459262E+02  0.00000000000E+00 0. -1.
</event>
<event>
 7    1  0.2841804E-009  0.1568027E+03  0.7561462E-02  0.1192355E+00
          1   -1    0    0  501    0  0.00000000000E+00  0.00000000000E+00  0.15763193788E+03  0.15763193788E+03  0.00000000000E+00 0. -1.
         -1   -1    0    0    0  501 -0.00000000000E+00 -0.00000000000E+00 -0.22054462414E+03  0.22054462414E+03  0.00000000000E+00 0.  1.
         25    2    1    2    0    0 -0.13164208808E+03 -0.77959766754E+01  0.42393726057E+02  0.18664233834E+03  0.12509083839E+03 0.  0.
          5    1    3    3  502    0  0.47446466874E+01 -0.23693451642E+02  0.42731609405E+02  0.49268186137E+02  0.41800000000E+01 0. -1.
         -5    1    3    3    0  502 -0.13638673476E+03  0.15897474967E+02 -0.33788334832E+00  0.13737415221E+03  0.41800000000E+01 0. -1.
        -11    1    1    2    0    0  0.10411787130E+03 -0.26788190445E+02 -0.44485779438E+02  0.11634914199E+03  0.00000000000E+00 0. -1.
         11    1    1    2    0    0  0.27524216780E+02  0.34584167120E+02 -0.60820632871E+02  0.75185081682E+02  0.00000000000E+00 0.  1.
</event>
<event>
 7    1  0.2841804E-009  0.1055725E+03  0.7561462E-02  0.1268996E+00
         -2   -1    0    0    0  501 -0.00000000000E+00  0.00000000000E+00  0.19443661644E+02  0.19443661644E+02  0.00000000000E+00 0.  1.
          2   -1    0    0  501    0  0.00000000000E+00 -0.00000000000E+00 -0.99945977952E+03  0.99945977952E+03  0.00000000000E+00 0. -1.
         25    2    1    2    0    0  0.19391384402E+02 -0.66293232522E+02 -0.72804507023E+03  0.74193482233E+03  0.12508732080E+03 0.  0.
          5    1    3    3  502    0  0.54000466746E+02 -0.84579677826E+02 -0.58560086318E+03  0.59415117240E+03  0.41800000000E+01 0. -1.
         -5    1    3    3    0  502 -0.34609082344E+02  0.18286445304E+02 -0.14244420706E+03  0.14778364993E+03  0.41800000000E+01 0. -1.
        -11    1    1    2    0    0  0.25628096514E+01  0.19369869373E+02  0.19140887833E+00  0.19539612846E+02  0.00000000000E+00 0.  1.
         11    1    1    2    0    0 -0.21954194053E+02  0.46923363149E+02 -0.25216245652E+03  0.25742900599E+03  0.00000000000E+00 0. -1.
</event>
<event>
 7    1  0.2841804E-009  0.1160379E+03  0.7561462E-02  0.1249780E+00
         -1   -1    0    0    0  501 -0.00000000000E+00  0.00000000000E+00  0.52221932671E+03  0.52221932671E+03  0.00000000000E+00 0.  1.
          1   -1    0    0  501    0  0.00000000000E+00 -0.00000000000E+00 -0.35431212286E+02  0.35431212286E+02  0.00000000000E+00 0. -1.
         25    2    1    2    0    0  0.83245841528E+00 -0.62436099312E+02  0.37985571199E+03  0.40476979928E+03  0.12509703831E+03 0.  0.
          5    1    3    3  502    0 -0.31677009201E+02  0.17722446242E+02  0.40532518552E+02  0.54569913624E+02  0.41800000000E+01 0. -1.
         -5    1    3    3    0  502  0.32509467617E+02 -0.80158545554E+02  0.33932319344E+03  0.35019988566E+03  0.41800000000E+01 0. -1.
        -11    1    1    2    0    0  0.25391696584E+02  0.75488435575E+02  0.72813741552E+02  0.10791238631E+03  0.00000000000E+00 0. -1.
         11    1    1    2    0    0 -0.26224154999E+02 -0.13052336262E+02  0.34118660885E+02  0.44968353405E+02  0.00000000000E+00 0.  1.
</event>
<event>
 7    1  0.2841804E-009  0.1217645E+03  0.7561462E-02  0.1240214E+00
          2   -1    0    0  501    0  0.00000000000E+00  0.00000000000E+00  0.46721878972E+02  0.46721878972E+02  0.00000000000E+00 0. -1.
         -2   -1    0    0    0  501 -0.00000000000E+00 -0.00000000000E+00 -0.34203016030E+03  0.34203016030E+03  0.00000000000E+00 0.  1.
         25    2    1    2    0    0  0.16143777641E+02  0.53131316428E+02 -0.20631655695E+03  0.24758297048E+03  0.12508895737E+03 0.  0.
          5    1    3    3  502    0  0.13990284106E+02 -0.39835598792E+02 -0.49252966374E+02  0.65007154046E+02  0.41800000000E+01 0.  1.
         -5    1    3    3    0  502  0.21534935346E+01  0.92966915220E+02 -0.15706359058E+03  0.18257581643E+03  0.41800000000E+01 0.  1.
        -11    1    1    2    0    0  0.37999110515E+02 -0.32747887137E+02 -0.29541172957E+02  0.58215439632E+02  0.00000000000E+00 0.  1.
         11    1    1    2    0    0 -0.54142888156E+02 -0.20383429291E+02 -0.59450551415E+02  0.82953629162E+02  0.00000000000E+00 0. -1.
</event>
<event>
 7    1  0.2841804E-009  0.1144182E+03  0.7561462E-02  0.1252600E+00
         -2   -1    0    0    0  501 -0.00000000000E+00  0.00000000000E+00  0.61593892230E+02  0.61593892230E+02  0.00000000000E+00 0.  1.
          2   -1    0    0  501    0  0.00000000000E+00 -0.00000000000E+00 -0.24548092680E+03  0.24548092680E+03  0.00000000000E+00 0. -1.
         25    2    1    2    0    0 -0.34460534946E+01  0.41746421771E+02 -0.54977833877E+02  0.14291426732E+03  0.12508911452E+03 0.  0.
          5    1    3    3  502    0 -0.61709278073E+02  0.22609043430E+02 -0.47055997819E+02  0.80937897031E+02  0.41800000000E+01 0.  1.
         -5    1    3    3    0  502  0.58263224578E+02  0.19137378342E+02 -0.79218360587E+01  0.61976370292E+02  0.41800000000E+01 0.  1.
        -11    1    1    2    0    0 -0.44082596911E+02 -0.27248188264E+02 -0.69909421880E+02  0.87023366872E+02  0.00000000000E+00 0.  1.
         11    1    1    2    0    0  0.47528650406E+02 -0.14498233508E+02 -0.58999778809E+02  0.77137184832E+02  0.00000000000E+00 0. -1.
</event>
<event>
 7    1  0.2841804E-009  0.1151450E+03  0.7561462E-02  0.1251328E+00
         -1   -1    0    0    0  501 -0.00000000000E+00  0.00000000000E+00  0.70821104012E+03  0.70821104012E+03  0.00000000000E+00 0.  1.
          1   -1    0    0  501    0  0.00000000000E+00 -0.00000000000E+00 -0.20585026679E+02  0.20585026679E+02  0.00000000000E+00 0. -1.
         25    2    1    2    0    0 -0.32104741119E+02  0.28341082819E+02  0.30336209779E+03  0.33092387523E+03  0.12509243561E+03 0.  0.
          5    1    3    3  502    0 -0.72326364127E+02 -0.10367519884E+02  0.13589637126E+03  0.15434987703E+03  0.41800000000E+01 0.  1.
         -5    1    3    3    0  502  0.40221623008E+02  0.38708602703E+02  0.16746572653E+03  0.17657399820E+03  0.41800000000E+01 0.  1.
        -11    1    1    2    0    0 -0.23621365938E+02 -0.37829020488E+02  0.13124193526E+03  0.13861258706E+03  0.00000000000E+00 0. -1.
         11    1    1    2    0    0  0.55726107057E+02  0.94879376690E+01  0.25302198039E+03  0.25925960451E+03  0.00000000000E+00 0.  1.
</event>
<event>
 7    1  0.2841804E-009  0.9411929E+02  0.7561462E-02  0.1293172E+00
          2   -1    0    0  501    0  0.00000000000E+00  0.00000000000E+00  0.31705302645E+03  0.31705302645E+03  0.00000000000E+00 0. -1.
         -2   -1    0    0    0  501 -0.00000000000E+00 -0.00000000000E+00 -0.38478456742E+02  0.38478456742E+02  0.00000000000E+00 0.  1.
         25    2    1    2    0    0 -0.16282811255E+02  0.10169436876E+02  0.22115703206E+03  0.25480591825E+03  0.12508827188E+03 0.  0.
          5    1    3    3  502    0  0.11773324231E+02 -0.50664197533E+02  0.56069078344E+02  0.76594294967E+02  0.41800000000E+01 0. -1.
         -5    1    3    3    0  502 -0.28056135486E+02  0.60833634409E+02  0.16508795371E+03  0.17821162329E+03  0.41800000000E+01 0. -1.
        -11    1    1    2    0    0 -0.12847827939E+01  0.27416199101E+02 -0.28114006561E+01  0.27589900573E+02  0.00000000000E+00 0.  1.
         11    1    1    2    0    0  0.17567594049E+02 -0.37585635977E+02  0.60228938313E+02  0.73135664370E+02  0.00000000000E+00 0. -1.
</event>
<event>
 7    1  0.2841804E-009  0.1356207E+03  0.7561462E-02  0.1219346E+00
         -2   -1    0    0    0  501 -0.00000000000E+00  0.00000000000E+00  0.12855934505E+03  0.12855934505E+03  0.00000000000E+00 0.  1.
          2   -1    0    0  501    0  0.00000000000E+00 -0.00000000000E+00 -0.17102431115E+03  0.17102431115E+03  0.00000000000E+00 0. -1.
         25    2    1    2    0    0  0.10100201136E+03  0.12203651985E+02 -0.21553599261E+02  0.16267287704E+03  0.12509025486E+03 0.  0.
          5    1    3    3  502    0  0.10415848249E+03  0.37119143543E+02 -0.52601958408E+02  0.12252044205E+03  0.41800000000E+01 0.  1.
         -5    1    3    3    0  502 -0.31564711297E+01 -0.24915491558E+02  0.31048359146E+02  0.40152434985E+02  0.41800000000E+01 0.  1.
        -11    1    1    2    0    0 -0.76579220721E+02  0.33282591160E+02 -0.16317484284E+02  0.85078600211E+02  0.00000000000E+00 0.  1.
         11    1    1    2    0    0 -0.24422790640E+02 -0.45486243146E+02 -0.45938825507E+01  0.51832178953E+02  0.00000000000E+00 0. -1.
</event>
<event>
 7    1  0.2841804E-009  0.8123575E+02  0.7561462E-02  0.1325581E+00
         -2   -1    0    0    0  501 -0.00000000000E+00  0.00000000000E+00  0.16532191304E+02  0.16532191304E+02  0.00000000000E+00 0.  1.
          2   -1    0    0  501    0  0.00000000000E+00 -0.00000000000E+00 -0.70448702369E+03  0.70448702369E+03  0.00000000000E+00 0. -1.
         25    2    1    2    0    0 -0.18115829469E+01 -0.15694070154E+01 -0.39579040337E+03  0.41509492016E+03  0.12509198405E+03 0.  0.
          5    1    3    3  502    0  0.25171454637E+02 -0.28953552967E+02 -0.34574367573E+02  0.51814762867E+02  0.41800000000E+01 0. -1.
         -5    1    3    3    0  502 -0.26983037584E+02  0.27384145951E+02 -0.36121603580E+03  0.36328015730E+03  0.41800000000E+01 0. -1.
        -11    1    1    2    0    0  0.51870647246E+01 -0.41592278330E+02 -0.91508909610E+02  0.10065139738E+03  0.00000000000E+00 0.  1.
         11    1    1    2    0    0 -0.33754817778E+01  0.43161685346E+02 -0.20065551940E+03  0.20527289745E+03  0.00000000000E+00 0. -1.
</event>
<event>
 7    1  0.2841804E-009  0.1062660E+03  0.7561462E-02  0.1267645E+00
         -2   -1    0    0    0  501 -0.00000000000E+00  0.00000000000E+00  0.15509686604E+02  0.15509686604E+02  0.00000000000E+00 0.  1.
          2   -1    0    0  501    0  0.00000000000E+00 -0.00000000000E+00 -0.10268292586E+04  0.10268292586E+04  0.00000000000E+00 0. -1.
         25    2    1    2    0    0 -0.97346383256E+01 -0.58481728445E+01 -0.77229614011E+03  0.78244315619E+03  0.12508797036E+03 0.  0.
          5    1    3    3  502    0  0.48877347072E+02  0.92928367771E+01 -0.17235141701E+03  0.17943755242E+03  0.41800000000E+01 0.  1.
         -5    1    3    3    0  502 -0.58611985398E+02 -0.15141009622E+02 -0.59994472310E+03  0.60300560377E+03  0.41800000000E+01 0.  1.
        -11    1    1    2    0    0 -0.37828329300E+02  0.30277983512E+02 -0.12002915525E+03  0.12944008998E+03  0.00000000000E+00 0.  1.
         11    1    1    2    0    0  0.47562967626E+02 -0.24429810668E+02 -0.11899427660E+03  0.13045569900E+03  0.00000000000E+00 0. -1.
</event>
<event>
 7    1  0.2841804E-009  0.3005592E+03  0.7561462E-02  0.1084961E+00
          2   -1    0    0  501    0  0.00000000000E+00  0.00000000000E+00  0.36420057384E+03  0.36420057384E+03  0.00000000000E+00 0. -1.
         -2   -1    0    0    0  501 -0.00000000000E+00 -0.00000000000E+00 -0.33592349789E+03  0.33592349789E+03  0.00000000000E+00 0.  1.
         25    2    1    2    0    0 -0.25429377252E+03  0.15543012468E+03  0.16154606813E+03  0.36134270061E+03  0.12509024246E+03 0.  0.
          5    1    3    3  502    0 -0.19807161583E+03  0.11593340347E+03  0.17811205736E+03  0.29054138503E+03  0.41800000000E+01 0. -1.
         -5    1    3    3    0  502 -0.56222156688E+02  0.39496721210E+02 -0.16565989231E+02  0.70801315583E+02  0.41800000000E+01 0. -1.
        -11    1    1    2    0    0  0.23246964539E+03 -0.12126309413E+03 -0.14070199979E+03  0.29756331557E+03  0.00000000000E+00 0. -1.
         11    1    1    2    0    0  0.21824127126E+02 -0.34167030549E+02  0.74330076115E+01  0.41218055553E+02  0.00000000000E+00 0.  1.
</event>
<event>
 7    1  0.2841804E-009  0.1165807E+03  0.7561462E-02  0.1248847E+00
         -2   -1    0    0    0  501 -0.00000000000E+00  0.00000000000E+00  0.42629736551E+02  0.42629736551E+02  0.00000000000E+00 0.  1.
          2   -1    0    0  501    0  0.00000000000E+00 -0.00000000000E+00 -0.33595894417E+03  0.33595894417E+03  0.00000000000E+00 0. -1.
         25    2    1    2    0    0 -0.16920787465E+02  0.42522892187E+02 -0.20861243462E+03  0.24750948089E+03  0.12508911161E+03 0.  0.
          5    1    3    3  502    0 -0.26698216682E+02  0.85111210094E+02 -0.14079463313E+03  0.16672526496E+03  0.41800000000E+01 0. -1.
         -5    1    3    3    0  502  0.97774292171E+01 -0.42588317907E+02 -0.67817801484E+02  0.80784215923E+02  0.41800000000E+01 0. -1.
        -11    1    1    2    0    0 -0.27832857961E+02 -0.47380694755E+02 -0.48759181733E+02  0.73464658313E+02  0.00000000000E+00 0.  1.
         11    1    1    2    0    0  0.44753645426E+02  0.48578025679E+01 -0.35957591265E+02  0.57614541518E+02  0.00000000000E+00 0. -1.
</event>
<event>
 7    1  0.2841804E-009  0.1431674E+03  0.7561462E-02  0.1209129E+00
         -2   -1    0    0    0  501 -0.00000000000E+00  0.00000000000E+00  0.11923106296E+03  0.11923106296E+03  0.00000000000E+00 0.  1.
          2   -1    0    0  501    0  0.00000000000E+00 -0.00000000000E+00 -0.39274134214E+03  0.39274134214E+03  0.00000000000E+00 0. -1.
         25    2    1    2    0    0 -0.93027159289E+02 -0.45493942972E+02 -0.32709830405E+03  0.36519107284E+03  0.12508983954E+03 0.  0.
          5    1    3    3  502    0  0.11798334303E+02 -0.43802140315E+02 -0.44247703219E+02  0.63507163602E+02  0.41800000000E+01 0.  1.
         -5    1    3    3    0  502 -0.10482549359E+03 -0.16918026569E+01 -0.28285060083E+03  0.30168390923E+03  0.41800000000E+01 0.  1.
        -11    1    1    2    0    0  0.41234915621E+02 -0.25121102885E+02  0.11575035834E+02  0.49652487661E+02  0.00000000000E+00 0. -1.
         11    1    1    2    0    0  0.51792243668E+02  0.70615045857E+02  0.42012989031E+02  0.97128844598E+02  0.00000000000E+00 0.  1.
</event>
<event>
 7    1  0.2841804E-009  0.1864607E+03  0.7561462E-02  0.1161693E+00
         -1   -1    0    0    0  501 -0.00000000000E+00  0.00000000000E+00  0.95808784303E+02  0.95808784303E+02  0.00000000000E+00 0.  1.
          1   -1    0    0  501    0  0.00000000000E+00 -0.00000000000E+00 -0.42864182397E+03  0.42864182397E+03  0.00000000000E+00 0. -1.
         25    2    1    2    0    0 -0.17075804820E+03  0.20347515759E+00 -0.17614266114E+03  0.27537643002E+03  0.12509032221E+03 0.  0.
          5    1    3    3  502    0 -0.17075363123E+03 -0.10792597853E+02 -0.19097759211E+03  0.25644335795E+03  0.41800000000E+01 0. -1.
         -5    1    3    3    0  502 -0.44169698188E-02  0.10996073011E+02  0.14834930972E+02  0.18933072073E+02  0.41800000000E+01 0. -1.
        -11    1    1    2    0    0  0.39685480947E+02 -0.36593669263E+02 -0.67416352301E+02  0.86365494184E+02  0.00000000000E+00 0.  1.
         11    1    1    2    0    0  0.13107256725E+03  0.36390194105E+02 -0.89274026225E+02  0.16270868407E+03  0.00000000000E+00 0. -1.
</event>
<event>
 7    1  0.2841804E-009  0.8171472E+02  0.7561462E-02  0.1324255E+00
         -1   -1    0    0    0  501 -0.00000000000E+00  0.00000000000E+00  0.13800616407E+03  0.13800616407E+03  0.00000000000E+00 0.  1.
          1   -1    0    0  501    0  0.00000000000E+00 -0.00000000000E+00 -0.10945108047E+03  0.10945108047E+03  0.00000000000E+00 0. -1.
         25    2    1    2    0    0 -0.40225416086E+02 -0.42843608288E+02  0.22329052582E+02  0.13999753960E+03  0.12508823140E+03 0.  0.
          5    1    3    3  502    0  0.22818487969E+02 -0.14922484141E+02  0.56542793199E+02  0.62912032147E+02  0.41800000000E+01 0. -1.
         -5    1    3    3    0  502 -0.63043904055E+02 -0.27921124147E+02 -0.34213740617E+02  0.77085507452E+02  0.41800000000E+01 0. -1.
        -11    1    1    2    0    0  0.13014330051E+02 -0.30943388051E+01 -0.36629403552E+02  0.38995652628E+02  0.00000000000E+00 0. -1.
         11    1    1    2    0    0  0.27211086036E+02  0.45937947093E+02  0.42855434576E+02  0.68464052313E+02  0.00000000000E+00 0.  1.
</event>
<event>
 7    1  0.2841804E-009  0.1291024E+03  0.7561462E-02  0.1228794E+00
          1   -1    0    0  501    0  0.00000000000E+00  0.00000000000E+00  0.29649239393E+03  0.29649239393E+03  0.00000000000E+00 0. -1.
         -1   -1    0    0    0  501 -0.00000000000E+00 -0.00000000000E+00 -0.67119014580E+02  0.67119014580E+02  0.00000000000E+00 0.  1.
         25    2    1    2    0    0  0.82230608077E+02  0.11466546489E+01  0.16332440913E+03  0.22155220603E+03  0.12508928675E+03 0.  0.
          5    1    3    3  502    0  0.30769689270E+02  0.59715328053E+02  0.10230238716E+03  0.12245793156E+03  0.41800000000E+01 0.  1.
         -5    1    3    3    0  502  0.51460918807E+02 -0.58568673404E+02  0.61022021967E+02  0.99094274475E+02  0.41800000000E+01 0.  1.
        -11    1    1    2    0    0  0.42166460274E+01 -0.23220780614E+02 -0.92120304223E+01  0.25334684931E+02  0.00000000000E+00 0. -1.
         11    1    1    2    0    0 -0.86447254104E+02  0.22074125965E+02  0.75261000646E+02  0.11672451755E+03  0.00000000000E+00 0.  1.
</event>
<event>
 7    1  0.2841804E-009  0.2274368E+03  0.7561462E-02  0.1128457E+00
         -2   -1    0    0    0  501 -0.00000000000E+00  0.00000000000E+00  0.25252488991E+03  0.25252488991E+03  0.00000000000E+00 0.  1.
          2   -1    0    0  501    0  0.00000000000E+00 -0.00000000000E+00 -0.23086991985E+03  0.23086991985E+03  0.00000000000E+00 0. -1.
         25    2    1    2    0    0 -0.20576780396E+03 -0.44164764738E+02  0.56177865316E+02  0.25118646191E+03  0.12509104885E+03 0.  0.
          5    1    3    3  502    0 -0.62694429542E+02  0.25982425333E+02 -0.24827796155E+02  0.72384872617E+02  0.41800000000E+01 0.  1.
         -5    1    3    3    0  502 -0.14307337442E+03 -0.70147190072E+02  0.81005661471E+02  0.17880158929E+03  0.41800000000E+01 0.  1.
        -11    1    1    2    0    0  0.17389514656E+03  0.10930856984E+01 -0.12729601547E+02  0.17436387123E+03  0.00000000000E+00 0.  1.
         11    1    1    2    0    0  0.31872657395E+02  0.43071679040E+02 -0.21793293709E+02  0.57844476620E+02  0.00000000000E+00 0. -1.
</event>
<event>
 7    1  0.2841804E-009  0.6513005E+02  0.7561462E-02  0.1377483E+00
         -4   -1    0    0    0  501 -0.00000000000E+00  0.00000000000E+00  0.25812330453E+03  0.25812330453E+03  0.00000000000E+00 0.  1.
          4   -1    0    0  501    0  0.00000000000E+00 -0.00000000000E+00 -0.68391307100E+02  0.68391307100E+02  0.00000000000E+00 0. -1.
         25    2    1    2    0    0 -0.11429288678E+01 -0.15811174633E+02  0.19811353768E+03  0.23483407494E+03  0.12508704733E+03 0.  0.
          5    1    3    3  502    0 -0.29778573076E+02 -0.24583819923E+02  0.20075645442E+03  0.20447922634E+03  0.41800000000E+01 0.  1.
         -5    1    3    3    0  502  0.28635644208E+02  0.87726452901E+01 -0.26429167320E+01  0.30354848599E+02  0.41800000000E+01 0.  1.
        -11    1    1    2    0    0 -0.22148874247E+02  0.27344127547E+02 -0.38325580568E+02  0.52030030440E+02  0.00000000000E+00 0. -1.
         11    1    1    2    0    0  0.23291803115E+02 -0.11532952914E+02  0.29944040313E+02  0.39650506246E+02  0.00000000000E+00 0.  1.
</event>
<event>
 7    1  0.2841804E-009  0.2137935E+03  0.7561462E-02  0.1138597E+00
          3   -1    0    0  501    0  0.00000000000E+00  0.00000000000E+00  0.71528841507E+03  0.71528841507E+03  0.00000000000E+00 0. -1.
         -3   -1    0    0    0  501 -0.00000000000E+00 -0.00000000000E+00 -0.77255135340E+02  0.77255135340E+02  0.00000000000E+00 0.  1.
         25    2    1    2    0    0  0.14175111449E+02 -0.18818399083E+03  0.18102519803E+03  0.28988380042E+03  0.12509335407E+03 0.  0.
          5    1    3    3  502    0 -0.40430567154E+02 -0.15260740982E+03  0.14910216651E+03  0.21719249699E+03  0.41800000000E+01 0. -1.
         -5    1    3    3    0  502  0.54605678603E+02 -0.35576581011E+02  0.31923031523E+02  0.72691303426E+02  0.41800000000E+01 0. -1.
        -11    1    1    2    0    0  0.25815310723E+02  0.13693680243E+03  0.35857086845E+03  0.38469622539E+03  0.00000000000E+00 0. -1.
         11    1    1    2    0    0 -0.39990422172E+02  0.51247188405E+02  0.98437213250E+02  0.11796352461E+03  0.00000000000E+00 0.  1.
</event>
<event>
 7    1  0.2889094E-009  0.1459819E+03  0.7561462E-02  0.1205499E+00
         -3   -1    0    0    0  501 -0.00000000000E+00  0.00000000000E+00  0.40814580211E+02  0.40814580211E+02  0.00000000000E+00 0.  1.
          3   -1    0    0  501    0  0.00000000000E+00 -0.00000000000E+00 -0.76330450401E+03  0.76330450401E+03  0.00000000000E+00 0. -1.
         25    2    1    2    0    0 -0.12243114025E+03 -0.65558546848E+02 -0.38293936217E+03  0.42611875810E+03  0.12508930304E+03 0.  0.
          5    1    3    3  502    0 -0.88645984541E+02 -0.55033299735E+02 -0.37545842660E+03  0.38970922129E+03  0.41800000000E+01 0. -1.
         -5    1    3    3    0  502 -0.33785155711E+02 -0.10525247113E+02 -0.74809355663E+01  0.36409536802E+02  0.41800000000E+01 0. -1.
        -11    1    1    2    0    0  0.66987851912E+02  0.12511586028E+01 -0.22903525466E+03  0.23863378968E+03  0.00000000000E+00 0. -1.
         11    1    1    2    0    0  0.55443288340E+02  0.64307388246E+02 -0.11051530697E+03  0.13936653644E+03  0.00000000000E+00 0.  1.
</event>
<event>
 7    1  0.2841804E-009  0.1289177E+03  0.7561462E-02  0.1229071E+00
         -1   -1    0    0    0  501 -0.00000000000E+00  0.00000000000E+00  0.76353226815E+02  0.76353226815E+02  0.00000000000E+00 0.  1.
          1   -1    0    0  501    0  0.00000000000E+00 -0.00000000000E+00 -0.24520015726E+03  0.24520015726E+03  0.00000000000E+00 0. -1.
         25    2    1    2    0    0 -0.74161810994E+02  0.37774685852E+02 -0.86347054533E+02  0.17329208200E+03  0.12508969085E+03 0.  0.
          5    1    3    3  502    0 -0.68463769611E+02 -0.27932461703E+02 -0.14121988813E+02  0.75395047147E+02  0.41800000000E+01 0. -1.
         -5    1    3    3    0  502 -0.56980413824E+01  0.65707147556E+02 -0.72225065720E+02  0.97897034857E+02  0.41800000000E+01 0. -1.
        -11    1    1    2    0    0  0.51986974933E+02 -0.64576843793E+02 -0.76804131703E+02  0.11301189744E+03  0.00000000000E+00 0. -1.
         11    1    1    2    0    0  0.22174836061E+02  0.26802157940E+02 -0.56957442086E+01  0.35249404629E+02  0.00000000000E+00 0.  1.
</event>
<event>
 7    1  0.2841804E-009  0.1700348E+03  0.7561462E-02  0.1177812E+00
          2   -1    0    0  501    0  0.00000000000E+00  0.00000000000E+00  0.24627331134E+03  0.24627331134E+03  0.00000000000E+00 0. -1.
         -2   -1    0    0    0  501 -0.00000000000E+00 -0.00000000000E+00 -0.12782144843E+03  0.12782144843E+03  0.00000000000E+00 0.  1.
         25    2    1    2    0    0 -0.85744033668E+02 -0.10845978631E+03  0.84537293552E+02  0.20471296096E+03  0.12508108501E+03 0.  0.
          5    1    3    3  502    0 -0.11172880861E+03 -0.11350856007E+03  0.68065304635E+02  0.17325668235E+03  0.41800000000E+01 0.  1.
         -5    1    3    3    0  502  0.25984774940E+02  0.50487737619E+01  0.16471988917E+02  0.31456278611E+02  0.41800000000E+01 0.  1.
        -11    1    1    2    0    0 -0.11646488993E+02  0.14718181003E+02  0.28465968963E+02  0.34096582628E+02  0.00000000000E+00 0. -1.
         11    1    1    2    0    0  0.97390522661E+02  0.93741605310E+02  0.54486003940E+01  0.13528521618E+03  0.00000000000E+00 0.  1.
</event>
<event>
 7    1  0.2841804E-009  0.9879571E+02  0.7561462E-02  0.1282849E+00
         -2   -1    0    0    0  501 -0.00000000000E+00  0.00000000000E+00  0.25912865070E+02  0.25912865070E+02  0.00000000000E+00 0. -1.
          2   -1    0    0  501    0  0.00000000000E+00 -0.00000000000E+00 -0.57623888516E+03  0.57623888516E+03  0.00000000000E+00 0.  1.
         25    2    1    2    0    0  0.90746985800E+01  0.55661607934E+02 -0.25391660353E+03  0.28861919021E+03  0.12508729215E+03 0.  0.
          5    1    3    3  502    0 -0.27751220666E+02  0.71111621435E+02 -0.82138711177E+02  0.11221066449E+03  0.41800000000E+01 0. -1.
         -5    1    3    3    0  502  0.36825919246E+02 -0.15450013501E+02 -0.17177789235E+03  0.17640852572E+03  0.41800000000E+01 0. -1.
        -11    1    1    2    0    0  0.24018641954E+02 -0.33260750845E+02 -0.24503444876E+03  0.24844527322E+03  0.00000000000E+00 0.  1.
         11    1    1    2    0    0 -0.33093340534E+02 -0.22400857089E+02 -0.51374967803E+02  0.65087286798E+02  0.00000000000E+00 0. -1.
</event>
<event>
 7    1  0.2841804E-009  0.1234045E+03  0.7561462E-02  0.1237584E+00
         -2   -1    0    0    0  501 -0.00000000000E+00  0.00000000000E+00  0.47763317422E+02  0.47763317422E+02  0.00000000000E+00 0.  1.
          2   -1    0    0  501    0  0.00000000000E+00 -0.00000000000E+00 -0.38021256549E+03  0.38021256549E+03  0.00000000000E+00 0. -1.
         25    2    1    2    0    0  0.23770274255E+02  0.61331966718E+02 -0.25141274630E+03  0.28841318979E+03  0.12508862043E+03 0.  0.
          5    1    3    3  502    0  0.28979528301E+02  0.98608873428E+02 -0.17154238829E+03  0.20001946495E+03  0.41800000000E+01 0. -1.
         -5    1    3    3    0  502 -0.52092540464E+01 -0.37276906710E+02 -0.79870358011E+02  0.88393724836E+02  0.41800000000E+01 0. -1.
        -11    1    1    2    0    0 -0.32072311964E+02  0.10512995447E+02 -0.51207054049E+02  0.61329590349E+02  0.00000000000E+00 0. -1.
         11    1    1    2    0    0  0.83020377094E+01 -0.71844962165E+02 -0.29829447716E+02  0.78233102774E+02  0.00000000000E+00 0.  1.
</event>
<event>
 6    1  0.2841804E-009  0.1695120E+03  0.7561462E-02  0.1178358E+00
          2   -1    0    0  501    0  0.00000000000E+00  0.00000000000E+00  0.18650485312E+04  0.18650485312E+04  0.00000000000E+00 0. -1.
         -2   -1    0    0    0  501 -0.00000000000E+00 -0.00000000000E+00 -0.29324901333E+02  0.29324901333E+02  0.00000000000E+00 0.  1.
          5    1    1    2  502    0 -0.46236792539E+02  0.32150777347E+02  0.36367995760E+03  0.36803817388E+03  0.41800000000E+01 0.  1.
         -5    1    1    2    0  502 -0.68126805069E+02 -0.10324515529E+03  0.12332622921E+04  0.12394572107E+04  0.41800000000E+01 0.  1.
        -11    1    1    2    0    0 -0.10646941470E+02  0.22074018255E+02  0.31638225504E+02  0.40019956992E+02  0.00000000000E+00 0.  1.
         11    1    1    2    0    0  0.12501053908E+03  0.49020359689E+02  0.20714315461E+03  0.24685809091E+03  0.00000000000E+00 0. -1.
</event>
<event>
 7    1  0.2841804E-009  0.1076800E+03  0.7561462E-02  0.1264927E+00
          2   -1    0    0  501    0  0.00000000000E+00  0.00000000000E+00  0.26155094789E+03  0.26155094789E+03  0.00000000000E+00 0. -1.
         -2   -1    0    0    0  501 -0.00000000000E+00 -0.00000000000E+00 -0.65641374572E+02  0.65641374572E+02  0.00000000000E+00 0.  1.
         25    2    1    2    0    0 -0.15047110819E+01 -0.27312061157E+02  0.19479858977E+03  0.23311402665E+03  0.12508975179E+03 0.  0.
          5    1    3    3  502    0 -0.46783679573E+02  0.24391383325E+02  0.50141311486E+02  0.72905937841E+02  0.41800000000E+01 0. -1.
         -5    1    3    3    0  502  0.45278968491E+02 -0.51703444483E+02  0.14465727829E+03  0.16020808881E+03  0.41800000000E+01 0. -1.
        -11    1    1    2    0    0 -0.33431539088E+02  0.43675173925E+02 -0.40770429256E+01  0.55152614645E+02  0.00000000000E+00 0. -1.
         11    1    1    2    0    0  0.34936250169E+02 -0.16363112767E+02  0.51880264668E+01  0.38925681163E+02  0.00000000000E+00 0.  1.
</event>
<event>
 7    1  0.2841804E-009  0.2036053E+03  0.7561462E-02  0.1146732E+00
          1   -1    0    0  501    0  0.00000000000E+00  0.00000000000E+00  0.33920240648E+03  0.33920240648E+03  0.00000000000E+00 0. -1.
         -1   -1    0    0    0  501 -0.00000000000E+00 -0.00000000000E+00 -0.13517544918E+03  0.13517544918E+03  0.00000000000E+00 0.  1.
         25    2    1    2    0    0 -0.18409267247E+03  0.17157586787E+02  0.85937512559E+02  0.23919771484E+03  0.12508315586E+03 0.  0.
          5    1    3    3  502    0 -0.31362750765E+02  0.56314227923E+02  0.15320935739E+02  0.66386127120E+02  0.41800000000E+01 0.  1.
         -5    1    3    3    0  502 -0.15272992170E+03 -0.39156641136E+02  0.70616576820E+02  0.17281158772E+03  0.41800000000E+01 0.  1.
        -11    1    1    2    0    0  0.27753495068E+02 -0.28261514732E+01 -0.12881921813E+02  0.30727634634E+02  0.00000000000E+00 0.  1.
         11    1    1    2    0    0  0.15633917740E+03 -0.14331435314E+02  0.13097136655E+03  0.20445250618E+03  0.00000000000E+00 0. -1.
</event>
<event>
 7    1  0.2841804E-009  0.7897524E+02  0.7561462E-02  0.1331985E+00
          1   -1    0    0  501    0  0.00000000000E+00  0.00000000000E+00  0.47691567501E+02  0.47691567501E+02  0.00000000000E+00 0.  1.
         -1   -1    0    0    0  501 -0.00000000000E+00 -0.00000000000E+00 -0.29208906134E+03  0.29208906134E+03  0.00000000000E+00 0. -1.
         25    2    1    2    0    0 -0.13543584616E+02 -0.36528436171E+02 -0.99684663234E+02  0.16462737601E+03  0.12508951001E+03 0.  0.
          5    1    3    3  502    0 -0.33028087278E+02 -0.38961070596E+02  0.10766860947E+02  0.52366184373E+02  0.41800000000E+01 0. -1.
         -5    1    3    3    0  502  0.19484502662E+02  0.24326344247E+01 -0.11045152418E+03  0.11226119164E+03  0.41800000000E+01 0. -1.
        -11    1    1    2    0    0  0.45425028731E+02  0.28922758295E+02 -0.44955737530E+02  0.70149679397E+02  0.00000000000E+00 0.  1.
         11    1    1    2    0    0 -0.31881444115E+02  0.76056778760E+01 -0.99757093077E+02  0.10500357343E+03  0.00000000000E+00 0. -1.
</event>
<event>
 7    1  0.2841804E-009  0.2089076E+03  0.7561462E-02  0.1142434E+00
          1   -1    0    0  501    0  0.00000000000E+00  0.00000000000E+00  0.20912430653E+04  0.20912430653E+04  0.00000000000E+00 0. -1.
         -1   -1    0    0    0  501 -0.00000000000E+00 -0.00000000000E+00 -0.24882857710E+02  0.24882857710E+02  0.00000000000E+00 0.  1.
         25    2    1    2    0    0 -0.15455608164E+03 -0.11372077070E+03  0.13334622261E+04  0.13529927538E+04  0.12509151500E+03 0.  0.
          5    1    3    3  502    0  0.14203103938E+02 -0.36792778563E+02  0.15371852002E+03  0.15875229924E+03  0.41800000000E+01 0.  1.
         -5    1    3    3    0  502 -0.16875918558E+03 -0.76927992138E+02  0.11797437061E+04  0.11942404545E+04  0.41800000000E+01 0.  1.
        -11    1    1    2    0    0  0.13577939457E+03  0.10634731220E+03  0.71699270595E+03  0.73744446244E+03  0.00000000000E+00 0. -1.
         11    1    1    2    0    0  0.18776687075E+02  0.73734585050E+01  0.15905275458E+02  0.25688706765E+02  0.00000000000E+00 0.  1.
</event>
<event>
 7    1  0.2841804E-009  0.1393498E+03  0.7561462E-02  0.1214207E+00
          2   -1    0    0  501    0  0.00000000000E+00  0.00000000000E+00  0.22415219922E+03  0.22415219922E+03  0.00000000000E+00 0. -1.
         -2   -1    0    0    0  501 -0.00000000000E+00 -0.00000000000E+00 -0.19838545133E+03  0.19838545133E+03  0.00000000000E+00 0.  1.
         25    2    1    2    0    0  0.60705527185E+02 -0.89170311036E+02 -0.13144970560E+03  0.21109940456E+03  0.12508968023E+03 0.  0.
          5    1    3    3  502    0  0.81734802088E+01  0.16972489184E+02  0.13739062247E+02  0.23687663440E+02  0.41800000000E+01 0. -1.
         -5    1    3    3    0  502  0.52532046976E+02 -0.10614280022E+03 -0.14518876785E+03  0.18741174112E+03  0.41800000000E+01 0. -1.
        -11    1    1    2    0    0 -0.81069521768E+02  0.46108699141E+02  0.11216713891E+03  0.14587579151E+03  0.00000000000E+00 0.  1.
         11    1    1    2    0    0  0.20363994583E+02  0.43061611895E+02  0.45049314583E+02  0.65562454491E+02  0.00000000000E+00 0. -1.
</event>
<event>
 6    1  0.2841804E-009  0.9799948E+02  0.7561462E-02  0.1284560E+00
          2   -1    0    0  501    0  0.00000000000E+00  0.00000000000E+00  0.46332273364E+03  0.46332273364E+03  0.00000000000E+00 0. -1.
         -2   -1    0    0    0  501 -0.00000000000E+00 -0.00000000000E+00 -0.31044818838E+02  0.31044818838E+02  0.00000000000E+00 0.  1.
          5    1    1    2  502    0  0.63275024265E+02 -0.15010832117E+02  0.13169429713E+03  0.14693506754E+03  0.41800000000E+01 0.  1.
         -5    1    1    2    0  502 -0.41182227854E+02  0.17215603357E+02  0.15236659286E+02  0.47349562576E+02  0.41800000000E+01 0.  1.
        -11    1    1    2    0    0 -0.50040408361E+02  0.16131906913E+02  0.11446411479E+03  0.12596155947E+03  0.00000000000E+00 0.  1.
         11    1    1    2    0    0  0.27947611949E+02 -0.18336678153E+02  0.17088284360E+03  0.17412136289E+03  0.00000000000E+00 0. -1.
</event>
<event>
 7    1  0.2841804E-009  0.1002222E+03  0.7561462E-02  0.1279829E+00
         -2   -1    0    0    0  501 -0.00000000000E+00  0.00000000000E+00  0.61484705438E+02  0.61484705438E+02  0.00000000000E+00 0.  1.
          2   -1    0    0  501    0  0.00000000000E+00 -0.00000000000E+00 -0.27350205132E+03  0.27350205132E+03  0.00000000000E+00 0. -1.
         25    2    1    2    0    0 -0.59632656810E+02 -0.43487189003E+01 -0.16670472716E+03  0.21682501826E+03  0.12509059666E+03 0.  0.
          5    1    3    3  502    0 -0.75694653613E+02 -0.14795966512E+02 -0.36998191259E+02  0.85644262896E+02  0.41800000000E+01 0.  1.
         -5    1    3    3    0  502  0.16061996802E+02  0.10447247611E+02 -0.12970653590E+03  0.13118075537E+03  0.41800000000E+01 0.  1.
        -11    1    1    2    0    0  0.74788824632E+02  0.24209377669E+02 -0.17045069967E+02  0.80436289491E+02  0.00000000000E+00 0.  1.
         11    1    1    2    0    0 -0.15156167822E+02 -0.19860658769E+02 -0.28267548754E+02  0.37725449001E+02  0.00000000000E+00 0. -1.
</event>
<event>
 7    1  0.2841804E-009  0.1233034E+03  0.7561462E-02  0.1237745E+00
          1   -1    0    0  501    0  0.00000000000E+00  0.00000000000E+00  0.55583277507E+02  0.55583277507E+02  0.00000000000E+00 0. -1.
         -1   -1    0    0    0  501 -0.00000000000E+00 -0.00000000000E+00 -0.29075448122E+03  0.29075448122E+03  0.00000000000E+00 0.  1.
         25    2    1    2    0    0  0.40073472268E+02 -0.45945255183E+02 -0.16529415987E+03  0.21606840965E+03  0.12508616513E+03 0.  0.
          5    1    3    3  502    0  0.82543387825E+02 -0.45635357679E+02 -0.13013171852E+03  0.16077230268E+03  0.41800000000E+01 0.  1.
         -5    1    3    3    0  502 -0.42469915558E+02 -0.30989750395E+00 -0.35162441349E+02  0.55296106966E+02  0.41800000000E+01 0.  1.
        -11    1    1    2    0    0  0.29641333866E+02  0.15456525507E+02 -0.16173423577E+02  0.37136134482E+02  0.00000000000E+00 0. -1.
         11    1    1    2    0    0 -0.69714806133E+02  0.30488729677E+02 -0.53703620266E+02  0.93133214597E+02  0.00000000000E+00 0.  1.
</event>
<event>
 7    1  0.2841804E-009  0.2270025E+03  0.7561462E-02  0.1128767E+00
          2   -1    0    0  501    0  0.00000000000E+00  0.00000000000E+00  0.24315222718E+04  0.24315222718E+04  0.00000000000E+00 0. -1.
         -2   -1    0    0    0  501 -0.00000000000E+00 -0.00000000000E+00 -0.26863473283E+02  0.26863473283E+02  0.00000000000E+00 0.  1.
         25    2    1    2    0    0  0.27488834827E+02 -0.22123757074E+03  0.15217445568E+04  0.15430667796E+04  0.12508753568E+03 0.  0.
          5    1    3    3  502    0 -0.18269468464E+02 -0.89639649009E+02  0.95712104876E+03  0.96149218122E+03  0.41800000000E+01 0.  1.
         -5    1    3    3    0  502  0.45758303291E+02 -0.13159792173E+03  0.56462350799E+03  0.58157459839E+03  0.41800000000E+01 0.  1.
        -11    1    1    2    0    0 -0.62644520104E+01  0.76019557576E+02  0.15493541386E+03  0.17269394593E+03  0.00000000000E+00 0.  1.
         11    1    1    2    0    0 -0.21224382817E+02  0.14521801317E+03  0.72797882786E+03  0.74262501950E+03  0.00000000000E+00 0. -1.
</event>
<event>
 7    1  0.2841804E-009  0.1058183E+03  0.7561462E-02  0.1268516E+00
          2   -1    0    0  501    0  0.00000000000E+00  0.00000000000E+00  0.11172219356E+03  0.11172219356E+03  0.00000000000E+00 0. -1.
         -2   -1    0    0    0  501 -0.00000000000E+00 -0.00000000000E+00 -0.15502100414E+03  0.15502100414E+03  0.00000000000E+00 0.  1.
         25    2    1    2    0    0 -0.17316324668E+02  0.69035010654E+02 -0.45512157565E+02  0.15094783739E+03  0.12509278689E+03 0.  0.
          5    1    3    3  502    0  0.41135828091E+02  0.68938281116E+02 -0.67149328211E+01  0.80667252828E+02  0.41800000000E+01 0.  1.
         -5    1    3    3    0  502 -0.58452152759E+02  0.96729538323E-01 -0.38797224744E+02  0.70280584564E+02  0.41800000000E+01 0.  1.
        -11    1    1    2    0    0 -0.10946454634E+01 -0.23584718600E+02 -0.43025433320E+02  0.49077745594E+02  0.00000000000E+00 0.  1.
         11    1    1    2    0    0  0.18410970131E+02 -0.45450292054E+02  0.45238780303E+02  0.66717614708E+02  0.00000000000E+00 0. -1.
</event>
<event>
 7    1  0.2841804E-009  0.1337546E+03  0.7561462E-02  0.1221989E+00
         -1   -1    0    0    0  501 -0.00000000000E+00  0.00000000000E+00  0.10314062158E+03  0.10314062158E+03  0.00000000000E+00 0.  1.
          1   -1    0    0  501    0  0.00000000000E+00 -0.00000000000E+00 -0.31639763546E+03  0.31639763546E+03  0.00000000000E+00 0. -1.
         25    2    1    2    0    0 -0.91070485895E+01 -0.12639138151E+03 -0.33399948806E+02  0.18116354547E+03  0.12508778507E+03 0.  0.
          5    1    3    3  502    0 -0.31718063716E+02 -0.39486831733E+02  0.40346992252E+02  0.64889117963E+02  0.41800000000E+01 0. -1.
         -5    1    3    3    0  502  0.22611015127E+02 -0.86904549775E+02 -0.73746941057E+02  0.11627442751E+03  0.41800000000E+01 0. -1.
        -11    1    1    2    0    0  0.22266464462E+01  0.61142855807E+02 -0.15765299446E+03  0.16910905781E+03  0.00000000000E+00 0. -1.
         11    1    1    2    0    0  0.68804021433E+01  0.65248525701E+02 -0.22204070615E+02  0.69265653766E+02  0.00000000000E+00 0.  1.
</event>
<event>
 7    1  0.2841804E-009  0.3164624E+03  0.7561462E-02  0.1077289E+00
         -1   -1    0    0    0  501 -0.00000000000E+00  0.00000000000E+00  0.15262704418E+03  0.15262704418E+03  0.00000000000E+00 0.  1.
          1   -1    0    0  501    0  0.00000000000E+00 -0.00000000000E+00 -0.71578075021E+03  0.71578075021E+03  0.00000000000E+00 0. -1.
         25    2    1    2    0    0 -0.12649574126E+03 -0.27655115957E+03 -0.37846229700E+03  0.50136106238E+03  0.12508992048E+03 0.  0.
          5    1    3    3  502    0 -0.57062659902E+02 -0.21618977683E+03 -0.19770757591E+03  0.29849610506E+03  0.41800000000E+01 0. -1.
         -5    1    3    3    0  502 -0.69433081360E+02 -0.60361382730E+02 -0.18075472110E+03  0.20286495732E+03  0.41800000000E+01 0. -1.
        -11    1    1    2    0    0  0.10003894232E+02  0.12811637653E+03 -0.74852999509E+02  0.14871736741E+03  0.00000000000E+00 0.  1.
         11    1    1    2    0    0  0.11649184703E+03  0.14843478304E+03 -0.10983840951E+03  0.21832936460E+03  0.00000000000E+00 0. -1.
</event>
<event>
 7    1  0.2841804E-009  0.9358846E+02  0.7561462E-02  0.1294387E+00
          1   -1    0    0  501    0  0.00000000000E+00  0.00000000000E+00  0.39653529764E+03  0.39653529764E+03  0.00000000000E+00 0. -1.
         -1   -1    0    0    0  501 -0.00000000000E+00 -0.00000000000E+00 -0.46069563671E+02  0.46069563671E+02  0.00000000000E+00 0.  1.
         25    2    1    2    0    0 -0.33899992670E+02 -0.39440634532E+02  0.29587065831E+03  0.32541170493E+03  0.12509419693E+03 0.  0.
          5    1    3    3  502    0  0.76393474218E+01  0.29416855701E+02  0.16845659904E+02  0.34999424080E+02  0.41800000000E+01 0.  1.
         -5    1    3    3    0  502 -0.41539340092E+02 -0.68857490232E+02  0.27902499840E+03  0.29041228085E+03  0.41800000000E+01 0.  1.
        -11    1    1    2    0    0  0.45559826958E+02  0.13477210803E+02 -0.82326917720E+01  0.48219397106E+02  0.00000000000E+00 0.  1.
         11    1    1    2    0    0 -0.11659834288E+02  0.25963423729E+02  0.62827767430E+02  0.68973759268E+02  0.00000000000E+00 0. -1.
</event>
<event>
 7    1  0.2841804E-009  0.3092950E+03  0.7561462E-02  0.1080684E+00
         -2   -1    0    0    0  501 -0.00000000000E+00  0.00000000000E+00  0.10076827196E+03  0.10076827196E+03  0.00000000000E+00 0.  1.
          2   -1    0    0  501    0  0.00000000000E+00 -0.00000000000E+00 -0.16886189451E+04  0.16886189451E+04  0.00000000000E+00 0. -1.
         25    2    1    2    0    0  0.11070063042E+03 -0.28622872857E+03 -0.25435164482E+03  0.41775828736E+03  0.12508282376E+03 0.  0.
          5    1    3    3  502    0 -0.10574224891E+01 -0.34596323565E+02  0.97630749296E+01  0.36205162320E+02  0.41800000000E+01 0.  1.
         -5    1    3    3    0  502  0.11175805291E+03 -0.25163240500E+03 -0.26411471975E+03  0.38155312504E+03  0.41800000000E+01 0.  1.
        -11    1    1    2    0    0 -0.35569957016E+02  0.13343189830E+03 -0.79335868920E+03  0.80528709356E+03  0.00000000000E+00 0.  1.
         11    1    1    2    0    0 -0.75130673402E+02  0.15279683027E+03 -0.54014033916E+03  0.56634183618E+03  0.00000000000E+00 0. -1.
</event>
<event>
 7    1  0.2841804E-009  0.1025760E+03  0.7561462E-02  0.1274970E+00
         -2   -1    0    0    0  501 -0.00000000000E+00  0.00000000000E+00  0.73642988437E+02  0.73642988437E+02  0.00000000000E+00 0.  1.
          2   -1    0    0  501    0  0.00000000000E+00 -0.00000000000E+00 -0.24248519806E+03  0.24248519806E+03  0.00000000000E+00 0. -1.
         25    2    1    2    0    0  0.21991667496E+02  0.31817133706E+02 -0.12436081675E+02  0.13152255028E+03  0.12509021412E+03 0.  0.
          5    1    3    3  502    0  0.61254034536E+02  0.10722415081E+02  0.30593524970E+02  0.69429554962E+02  0.41800000000E+01 0.  1.
         -5    1    3    3    0  502 -0.39262367040E+02  0.21094718625E+02 -0.43029606645E+02  0.62092995317E+02  0.41800000000E+01 0.  1.
        -11    1    1    2    0    0  0.25621712059E+02  0.16300436352E+02 -0.49078270200E+02  0.57713542258E+02  0.00000000000E+00 0. -1.
         11    1    1    2    0    0 -0.47613379556E+02 -0.48117570059E+02 -0.10732785775E+03  0.12689209396E+03  0.00000000000E+00 0.  1.
</event>
<event>
 7    1  0.2841804E-009  0.9685969E+02  0.7561462E-02  0.1287042E+00
          1   -1    0    0  501    0  0.00000000000E+00  0.00000000000E+00  0.79408770910E+02  0.79408770910E+02  0.00000000000E+00 0.  1.
         -1   -1    0    0    0  501 -0.00000000000E+00 -0.00000000000E+00 -0.23157232689E+03  0.23157232689E+03  0.00000000000E+00 0. -1.
         25    2    1    2    0    0  0.30332137285E+02 -0.39850768664E+02 -0.98201558961E+01  0.13512140279E+03  0.12511289188E+03 0.  0.
          5    1    3    3  502    0  0.27350663274E+02  0.18121540845E+02  0.44544239629E+02  0.55480723754E+02  0.41800000000E+01 0. -1.
         -5    1    3    3    0  502  0.29814740101E+01 -0.57972309509E+02 -0.54364395525E+02  0.79640679040E+02  0.41800000000E+01 0. -1.
        -11    1    1    2    0    0  0.13810130278E+02 -0.22290463100E+02 -0.46697167952E+02  0.53555671392E+02  0.00000000000E+00 0.  1.
         11    1    1    2    0    0 -0.44142267563E+02  0.62141231764E+02 -0.95646232127E+02  0.12230402361E+03  0.00000000000E+00 0. -1.
</event>
<event>
 7    1  0.2841804E-009  0.1275105E+03  0.7561462E-02  0.1231197E+00
          1   -1    0    0  501    0  0.00000000000E+00  0.00000000000E+00  0.20207038765E+03  0.20207038765E+03  0.00000000000E+00 0. -1.
         -1   -1    0    0    0  501 -0.00000000000E+00 -0.00000000000E+00 -0.12007456355E+03  0.12007456355E+03  0.00000000000E+00 0.  1.
         25    2    1    2    0    0 -0.65427098765E+02  0.89427857899E+02  0.48906147627E+02  0.17412054317E+03  0.12509238688E+03 0.  0.
          5    1    3    3  502    0 -0.67187999697E+02  0.50112979171E+02  0.85797003980E+02  0.12001723325E+03  0.41800000000E+01 0.  1.
         -5    1    3    3    0  502  0.17609009325E+01  0.39314878728E+02 -0.36890856353E+02  0.54103309917E+02  0.41800000000E+01 0.  1.
        -11    1    1    2    0    0 -0.14491917818E+02 -0.24878592274E+02 -0.17311829332E+02  0.33595527535E+02  0.00000000000E+00 0.  1.
         11    1    1    2    0    0  0.79919016582E+02 -0.64549265626E+02  0.50401505800E+02  0.11442888049E+03  0.00000000000E+00 0. -1.
</event>
<event>
 7    1  0.2841804E-009  0.1419203E+03  0.7561462E-02  0.1210768E+00
         -1   -1    0    0    0  501 -0.00000000000E+00  0.00000000000E+00  0.27672570900E+02  0.27672570900E+02  0.00000000000E+00 0.  1.
          1   -1    0    0  501    0  0.00000000000E+00 -0.00000000000E+00 -0.98939159538E+03  0.98939159538E+03  0.00000000000E+00 0. -1.
         25    2    1    2    0    0  0.11128673482E+03 -0.51691586984E+02 -0.57007345779E+03  0.59639531282E+03  0.12508742690E+03 0.  0.
          5    1    3    3  502    0  0.12126806729E+03 -0.43609996216E+02 -0.56833517036E+03  0.58277792870E+03  0.41800000000E+01 0.  1.
         -5    1    3    3    0  502 -0.99813324654E+01 -0.80815907673E+01 -0.17382874306E+01  0.13617384121E+02  0.41800000000E+01 0.  1.
        -11    1    1    2    0    0 -0.67871197790E+02  0.66990263735E+02 -0.33141238397E+03  0.34485991819E+03  0.00000000000E+00 0.  1.
         11    1    1    2    0    0 -0.43415537032E+02 -0.15298676751E+02 -0.60233182727E+02  0.75808935275E+02  0.00000000000E+00 0. -1.
</event>
<event>
 7    1  0.2841804E-009  0.1010340E+03  0.7561462E-02  0.1278136E+00
         -1   -1    0    0    0  501 -0.00000000000E+00  0.00000000000E+00  0.28153687420E+02  0.28153687420E+02  0.00000000000E+00 0.  1.
          1   -1    0    0  501    0  0.00000000000E+00 -0.00000000000E+00 -0.52982288394E+03  0.52982288394E+03  0.00000000000E+00 0. -1.
         25    2    1    2    0    0 -0.12896331746E+00 -0.34579975706E+02 -0.37903487039E+03  0.40064847310E+03  0.12512383736E+03 0.  0.
          5    1    3    3  502    0  0.27276796563E+02 -0.74766373916E+02 -0.20670640848E+03  0.22153791099E+03  0.41800000000E+01 0. -1.
         -5    1    3    3    0  502 -0.27405759881E+02  0.40186398210E+02 -0.17232846191E+03  0.17911056211E+03  0.41800000000E+01 0. -1.
        -11    1    1    2    0    0 -0.29905665518E+02  0.31376697665E+02 -0.15526193771E+02  0.46042466044E+02  0.00000000000E+00 0.  1.
         11    1    1    2    0    0  0.30034628835E+02  0.32032780407E+01 -0.10710813236E+03  0.11128563221E+03  0.00000000000E+00 0. -1.
</event>
<event>
 7    1  0.2841804E-009  0.1131084E+03  0.7561462E-02  0.1254920E+00
         -2   -1    0    0    0  501 -0.00000000000E+00  0.00000000000E+00  0.13448961065E+04  0.13448961065E+04  0.00000000000E+00 0. -1.
          2   -1    0    0  501    0  0.00000000000E+00 -0.00000000000E+00 -0.13884305158E+02  0.13884305158E+02  0.00000000000E+00 0.  1.
         25    2    1    2    0    0 -0.48933190411E+02  0.57098908634E+02  0.91071767303E+03  0.92233928306E+03  0.12509328769E+03 0.  0.
          5    1    3    3  502    0 -0.14031768255E+02  0.69799941174E+02  0.83356525290E+03  0.83661067741E+03  0.41800000000E+01 0. -1.
         -5    1    3    3    0  502 -0.34901422155E+02 -0.12701032540E+02  0.77152420122E+02  0.85728605650E+02  0.41800000000E+01 0. -1.
        -11    1    1    2    0    0  0.73160350905E+02 -0.25014192802E+02  0.26812879782E+03  0.27905411484E+03  0.00000000000E+00 0.  1.
         11    1    1    2    0    0 -0.24227160494E+02 -0.32084715832E+02  0.15216533045E+03  0.15738701371E+03  0.00000000000E+00 0. -1.
</event>
<event>
 7    1  0.3178118E-009  0.9659585E+02  0.7561462E-02  0.1287622E+00
         -1   -1    0    0    0  501 -0.00000000000E+00  0.00000000000E+00  0.15289890862E+03  0.15289890862E+03  0.00000000000E+00 0.  1.
          1   -1    0    0  501    0  0.00000000000E+00 -0.00000000000E+00 -0.13725580209E+03  0.13725580209E+03  0.00000000000E+00 0. -1.
         25    2    1    2    0    0  0.33109904440E+02 -0.67057451322E+02 -0.50572969371E+02  0.15426529770E+03  0.12508872569E+03 0.  0.
          5    1    3    3  502    0 -0.63316004788E+01 -0.21730715272E+02  0.39614175229E+02  0.45815591559E+02  0.41800000000E+01 0. -1.
         -5    1    3    3    0  502  0.39441504919E+02 -0.45326736050E+02 -0.90187144600E+02  0.10844970614E+03  0.41800000000E+01 0. -1.
        -11    1    1    2    0    0 -0.58791638881E+02  0.33427365461E+02  0.64628228950E+02  0.93544927930E+02  0.00000000000E+00 0.  1.
         11    1    1    2    0    0  0.25681734442E+02  0.33630085861E+02  0.15878469508E+01  0.42344485082E+02  0.00000000000E+00 0. -1.
</event>
<event>
 7    1  0.2841804E-009  0.9839472E+02  0.7561462E-02  0.1283708E+00
         -1   -1    0    0    0  501 -0.00000000000E+00  0.00000000000E+00  0.16997838508E+02  0.16997838508E+02  0.00000000000E+00 0.  1.
          1   -1    0    0  501    0  0.00000000000E+00 -0.00000000000E+00 -0.12902385735E+04  0.12902385735E+04  0.00000000000E+00 0. -1.
         25    2    1    2    0    0 -0.17691631126E+02  0.71636865018E+02 -0.10152926313E+04  0.10256292838E+04  0.12510582035E+03 0.  0.
          5    1    3    3  502    0 -0.60684013692E+01 -0.88528154046E+01 -0.58707689625E+01  0.12928115252E+02  0.41800000000E+01 0.  1.
         -5    1    3    3    0  502 -0.11623229757E+02  0.80489680423E+02 -0.10094218624E+04  0.10127011685E+04  0.41800000000E+01 0.  1.
        -11    1    1    2    0    0 -0.28734593460E+02 -0.26540228875E+02 -0.15615677198E+03  0.16098135931E+03  0.00000000000E+00 0. -1.
         11    1    1    2    0    0  0.46426224586E+02 -0.45096636143E+02 -0.10179133170E+03  0.12062576893E+03  0.00000000000E+00 0.  1.
</event>
<event>
 7    1  0.2841804E-009  0.1840442E+03  0.7561462E-02  0.1163946E+00
          1   -1    0    0  501    0  0.00000000000E+00  0.00000000000E+00  0.11027697532E+04  0.11027697532E+04  0.00000000000E+00 0. -1.
         -1   -1    0    0    0  501 -0.00000000000E+00 -0.00000000000E+00 -0.47147033309E+02  0.47147033309E+02  0.00000000000E+00 0.  1.
         25    2    1    2    0    0 -0.89760026243E+02  0.13207896888E+03  0.24175453691E+03  0.31557698863E+03  0.12506743504E+03 0.  0.
          5    1    3    3  502    0 -0.59539369782E+02  0.10535694687E+02  0.25745211694E+02  0.65850024614E+02  0.41800000000E+01 0.  1.
         -5    1    3    3    0  502 -0.30220656461E+02  0.12154327420E+03  0.21600932521E+03  0.24972696402E+03  0.41800000000E+01 0.  1.
        -11    1    1    2    0    0  0.71664598624E+02 -0.28671674858E+02  0.29289227367E+03  0.30289233006E+03  0.00000000000E+00 0. -1.
         11    1    1    2    0    0  0.18095427619E+02 -0.10340729403E+03  0.52097590936E+03  0.53144746786E+03  0.00000000000E+00 0.  1.
</event>
<event>
 7    1  0.2841804E-009  0.1071298E+03  0.7561462E-02  0.1265979E+00
         -4   -1    0    0    0  501 -0.00000000000E+00  0.00000000000E+00  0.98716302543E+02  0.98716302543E+02  0.00000000000E+00 0.  1.
          4   -1    0    0  501    0  0.00000000000E+00 -0.00000000000E+00 -0.12671115531E+03  0.12671115531E+03  0.00000000000E+00 0. -1.
         25    2    1    2    0    0  0.20812492767E+02 -0.11388594954E+02 -0.30378230074E+02  0.13089275243E+03  0.12508883174E+03 0.  0.
          5    1    3    3  502    0  0.22681696283E+02 -0.64808124597E+02  0.94848086883E+00  0.68796252630E+02  0.41800000000E+01 0.  1.
         -5    1    3    3    0  502 -0.18692035164E+01  0.53419529643E+02 -0.31326710942E+02  0.62096499801E+02  0.41800000000E+01 0.  1.
        -11    1    1    2    0    0  0.26955288153E+02 -0.20975885125E+02  0.11667775981E+02  0.36093106164E+02  0.00000000000E+00 0.  1.
         11    1    1    2    0    0 -0.47767780920E+02  0.32364480079E+02 -0.92843986718E+01  0.58441599255E+02  0.00000000000E+00 0. -1.
</event>
<event>
 7    1  0.2841804E-009  0.1075255E+03  0.7561462E-02  0.1265222E+00
          4   -1    0    0  501    0  0.00000000000E+00  0.00000000000E+00  0.16699938871E+03  0.16699938871E+03  0.00000000000E+00 0. -1.
         -4   -1    0    0    0  501 -0.00000000000E+00 -0.00000000000E+00 -0.12752731594E+03  0.12752731594E+03  0.00000000000E+00 0.  1.
         25    2    1    2    0    0 -0.85632821224E+02 -0.18119337396E+02  0.64241102602E+02  0.16564254835E+03  0.12509693881E+03 0.  0.
          5    1    3    3  502    0 -0.29147830224E+02  0.42566505392E+01 -0.37011174916E+02  0.47486993475E+02  0.41800000000E+01 0.  1.
         -5    1    3    3    0  502 -0.56484990999E+02 -0.22375987935E+02  0.10125227752E+03  0.11815555487E+03  0.41800000000E+01 0.  1.
        -11    1    1    2    0    0  0.26553825740E+02  0.50480369838E+02 -0.22995640061E+02  0.61499372861E+02  0.00000000000E+00 0.  1.
         11    1    1    2    0    0  0.59078995484E+02 -0.32361032443E+02 -0.17733897763E+01  0.67384783441E+02  0.00000000000E+00 0. -1.
</event>
<event>
 7    1  0.2841804E-009  0.1506038E+03  0.7561462E-02  0.1199733E+00
          1   -1    0    0  501    0  0.00000000000E+00  0.00000000000E+00  0.27603141937E+03  0.27603141937E+03  0.00000000000E+00 0. -1.
         -1   -1    0    0    0  501 -0.00000000000E+00 -0.00000000000E+00 -0.96158581860E+02  0.96158581860E+02  0.00000000000E+00 0.  1.
         25    2    1    2    0    0  0.22024414960E+02  0.11651076337E+03  0.68265117140E+02  0.18537922615E+03  0.12508196687E+03 0.  0.
          5    1    3    3  502    0  0.51732753387E+02  0.12703558982E+03  0.68952774067E+02  0.15357824164E+03  0.41800000000E+01 0. -1.
         -5    1    3    3    0  502 -0.29708338427E+02 -0.10524826449E+02 -0.68765692717E+00  0.31800984512E+02  0.41800000000E+01 0. -1.
        -11    1    1    2    0    0  0.15551966551E+02 -0.73252638827E+02  0.10523240909E+03  0.12915754985E+03  0.00000000000E+00 0.  1.
         11    1    1    2    0    0 -0.37576381512E+02 -0.43258124541E+02  0.63753112805E+01  0.57653225237E+02  0.00000000000E+00 0. -1.
</event>
<event>
 7    1  0.2841804E-009  0.9387468E+02  0.7561462E-02  0.1293731E+00
          1   -1    0    0  501    0  0.00000000000E+00  0.00000000000E+00  0.77578279864E+02  0.77578279864E+02  0.00000000000E+00 0. -1.
         -1   -1    0    0    0  501 -0.00000000000E+00 -0.00000000000E+00 -0.24198212549E+03  0.24198212549E+03  0.00000000000E+00 0.  1.
         25    2    1    2    0    0 -0.71636258799E+00  0.13947862439E+02  0.50540153533E+01  0.12595020696E+03  0.12507140168E+03 0.  0.
          5    1    3    3  502    0 -0.37245198804E+02 -0.43586041276E+02 -0.87087562340E-02  0.57484087397E+02  0.41800000000E+01 0.  1.
         -5    1    3    3    0  502  0.36528836216E+02  0.57533903715E+02  0.50627241096E+01  0.68466119558E+02  0.41800000000E+01 0.  1.
        -11    1    1    2    0    0 -0.29710061500E+02 -0.97668118087E+01 -0.15762436423E+03  0.16069697746E+03  0.00000000000E+00 0.  1.
         11    1    1    2    0    0  0.30426424088E+02 -0.41810506300E+01 -0.11833496754E+02  0.32913220939E+02  0.00000000000E+00 0. -1.
</event>
<event>
 7    1  0.2841804E-009  0.1507830E+03  0.7561462E-02  0.1199514E+00
         -2   -1    0    0    0  501 -0.00000000000E+00  0.00000000000E+00  0.26422283518E+03  0.26422283518E+03  0.00000000000E+00 0.  1.
          2   -1    0    0  501    0  0.00000000000E+00 -0.00000000000E+00 -0.14670813705E+03  0.14670813705E+03  0.00000000000E+00 0. -1.
         25    2    1    2    0    0  0.96699911777E+02  0.77577474869E+02 -0.50120163041E+02  0.18310862182E+03  0.12509036373E+03 0.  0.
          5    1    3    3  502    0 -0.10790279105E+02 -0.86764157910E+01  0.22900256547E+02  0.27085133636E+02  0.41800000000E+01 0.  1.
         -5    1    3    3    0  502  0.10749019088E+03  0.86253890660E+02 -0.73020419588E+02  0.15602348819E+03  0.41800000000E+01 0.  1.
        -11    1    1    2    0    0 -0.11121979378E+03 -0.59831230709E+02  0.15960559479E+03  0.20352779806E+03  0.00000000000E+00 0.  1.
         11    1    1    2    0    0  0.14519881999E+02 -0.17746244160E+02  0.80292663718E+01  0.24294552342E+02  0.00000000000E+00 0. -1.
</event>
<event>
 7    1  0.2841804E-009  0.1052910E+03  0.7561462E-02  0.1269547E+00
         -2   -1    0    0    0  501 -0.00000000000E+00  0.00000000000E+00  0.18895092714E+03  0.18895092714E+03  0.00000000000E+00 0.  1.
          2   -1    0    0  501    0  0.00000000000E+00 -0.00000000000E+00 -0.73570613472E+02  0.73570613472E+02  0.00000000000E+00 0. -1.
         25    2    1    2    0    0 -0.12883772951E+02  0.22992093126E+02  0.10208758462E+03  0.16359544413E+03  0.12508783496E+03 0.  0.
          5    1    3    3  502    0  0.34659997318E+02  0.55170597110E+02  0.76585464594E+02  0.10063754760E+03  0.41800000000E+01 0. -1.
         -5    1    3    3    0  502 -0.47543770270E+02 -0.32178503984E+02  0.25502120026E+02  0.62957896534E+02  0.41800000000E+01 0. -1.
        -11    1    1    2    0    0  0.22524572364E+02  0.27943810291E+02  0.27452443993E+02  0.45186829662E+02  0.00000000000E+00 0.  1.
         11    1    1    2    0    0 -0.96407994125E+01 -0.50935903417E+02 -0.14159714948E+02  0.53739266814E+02  0.00000000000E+00 0. -1.
</event>
<event>
 7    1  0.2841804E-009  0.8436664E+02  0.7561462E-02  0.1317097E+00
          2   -1    0    0  501    0  0.00000000000E+00  0.00000000000E+00  0.58928377320E+03  0.58928377320E+03  0.00000000000E+00 0. -1.
         -2   -1    0    0    0  501 -0.00000000000E+00 -0.00000000000E+00 -0.21929789701E+02  0.21929789701E+02  0.00000000000E+00 0.  1.
         25    2    1    2    0    0 -0.17343183147E+02  0.30726667082E+02  0.35738950349E+03  0.38028941028E+03  0.12509142372E+03 0.  0.
          5    1    3    3  502    0 -0.18109054364E+02 -0.18263149276E+02  0.77158978499E+01  0.27175134794E+02  0.41800000000E+01 0.  1.
         -5    1    3    3    0  502  0.76587121741E+00  0.48989816358E+02  0.34967360564E+03  0.35311427548E+03  0.41800000000E+01 0.  1.
        -11    1    1    2    0    0  0.77793320431E+01  0.30529223984E+02  0.98013237595E+02  0.10295215524E+03  0.00000000000E+00 0. -1.
         11    1    1    2    0    0  0.95638511039E+01 -0.61255891066E+02  0.11195124241E+03  0.12797199739E+03  0.00000000000E+00 0.  1.
</event>
<event>
 7    1  0.2841804E-009  0.1051606E+03  0.7561462E-02  0.1269803E+00
         -1   -1    0    0    0  501 -0.00000000000E+00  0.00000000000E+00  0.29774704354E+02  0.29774704354E+02  0.00000000000E+00 0.  1.
          1   -1    0    0  501    0  0.00000000000E+00 -0.00000000000E+00 -0.41215313050E+03  0.41215313050E+03  0.00000000000E+00 0. -1.
         25    2    1    2    0    0 -0.61070595072E+01 -0.19874890681E+02 -0.19123200014E+03  0.22945435937E+03  0.12508923896E+03 0.  0.
          5    1    3    3  502    0  0.52718885923E+02  0.60007524038E+01 -0.45105907729E+02  0.69766075383E+02  0.41800000000E+01 0. -1.
         -5    1    3    3    0  502 -0.58825945430E+02 -0.25875643085E+02 -0.14612609241E+03  0.15968828399E+03  0.41800000000E+01 0. -1.
        -11    1    1    2    0    0  0.15279762324E+02 -0.34405775357E+02 -0.82076273252E+02  0.90298079412E+02  0.00000000000E+00 0.  1.
         11    1    1    2    0    0 -0.91727028168E+01  0.54280666038E+02 -0.10907015276E+03  0.12217539607E+03  0.00000000000E+00 0. -1.
</event>
<event>
 7    1  0.2841804E-009  0.1848067E+03  0.7561462E-02  0.1163230E+00
          2   -1    0    0  501    0  0.00000000000E+00  0.00000000000E+00  0.80829200816E+03  0.80829200816E+03  0.00000000000E+00 0. -1.
         -2   -1    0    0    0  501 -0.00000000000E+00 -0.00000000000E+00 -0.64553985683E+02  0.64553985683E+02  0.00000000000E+00 0.  1.
         25    2    1    2    0    0  0.96192292474E+02  0.14547778373E+03  0.57300450878E+03  0.61187991837E+03  0.12508447039E+03 0.  0.
          5    1    3    3  502    0  0.69350017988E+02  0.11121122013E+03  0.54358177064E+03  0.55917436838E+03  0.41800000000E+01 0.  1.
         -5    1    3    3    0  502  0.26842274486E+02  0.34266563598E+02  0.29422738137E+02  0.52705549991E+02  0.41800000000E+01 0.  1.
        -11    1    1    2    0    0 -0.19718302330E+02  0.95372033872E+01  0.34566585602E+02  0.40922103263E+02  0.00000000000E+00 0. -1.
         11    1    1    2    0    0 -0.76473990143E+02 -0.15501498712E+03  0.13616692810E+03  0.22004397221E+03  0.00000000000E+00 0.  1.
</event>
<event>
 7    1  0.3085095E-009  0.1139573E+03  0.7561462E-02  0.1253412E+00
          2   -1    0    0  501    0  0.00000000000E+00  0.00000000000E+00  0.60118812711E+03  0.60118812711E+03  0.00000000000E+00 0. -1.
         -2   -1    0    0    0  501 -0.00000000000E+00 -0.00000000000E+00 -0.30358974300E+02  0.30358974300E+02  0.00000000000E+00 0.  1.
         25    2    1    2    0    0  0.73606738703E+01  0.78812081410E+02  0.27861341116E+03  0.31549673233E+03  0.12508889453E+03 0.  0.
          5    1    3    3  502    0  0.11660547690E+02 -0.27087983762E+02  0.19733475348E+02  0.35729675146E+02  0.41800000000E+01 0.  1.
         -5    1    3    3    0  502 -0.42998738195E+01  0.10590006517E+03  0.25887993582E+03  0.27976705719E+03  0.41800000000E+01 0.  1.
        -11    1    1    2    0    0 -0.26112869367E+02 -0.60287896542E+02  0.27887138577E+03  0.28650612946E+03  0.00000000000E+00 0. -1.
         11    1    1    2    0    0  0.18752195497E+02 -0.18524184869E+02  0.13344355877E+02  0.29544239621E+02  0.00000000000E+00 0.  1.
</event>
<event>
 7    1  0.2841804E-009  0.9139824E+02  0.7561462E-02  0.1299501E+00
          1   -1    0    0  501    0  0.00000000000E+00  0.00000000000E+00  0.12338388555E+03  0.12338388555E+03  0.00000000000E+00 0. -1.
         -1   -1    0    0    0  501 -0.00000000000E+00 -0.00000000000E+00 -0.99587862019E+02  0.99587862019E+02  0.00000000000E+00 0.  1.
         25    2    1    2    0    0 -0.88788457515E+01  0.25174122469E+01 -0.74083452819E+01  0.12565329061E+03  0.12509474248E+03 0.  0.
          5    1    3    3  502    0 -0.62414394443E+02 -0.21501311023E+02 -0.93034841136E+01  0.66797381880E+02  0.41800000000E+01 0. -1.
         -5    1    3    3    0  502  0.53535548692E+02  0.24018723269E+02  0.18951388317E+01  0.58855908730E+02  0.41800000000E+01 0. -1.
        -11    1    1    2    0    0 -0.11080773053E+02  0.22939780092E+02 -0.22916729652E+02  0.34266507556E+02  0.00000000000E+00 0.  1.
         11    1    1    2    0    0  0.19959618805E+02 -0.25457192339E+02  0.54121098464E+02  0.63051949403E+02  0.00000000000E+00 0. -1.
</event>
<event>
 7    1  0.2841804E-009  0.1283593E+03  0.7561462E-02  0.1229911E+00
         -1   -1    0    0    0  501 -0.00000000000E+00  0.00000000000E+00  0.47247390971E+03  0.47247390971E+03  0.00000000000E+00 0.  1.
          1   -1    0    0  501    0  0.00000000000E+00 -0.00000000000E+00 -0.51499712893E+02  0.51499712893E+02  0.00000000000E+00 0. -1.
         25    2    1    2    0    0  0.30352711554E+00 -0.10077346618E+03  0.30681068498E+03  0.34631806826E+03  0.12509206358E+03 0.  0.
          5    1    3    3  502    0  0.57713339513E+02 -0.33804028267E+02  0.17751389113E+03  0.18974244604E+03  0.41800000000E+01 0.  1.
         -5    1    3    3    0  502 -0.57409812397E+02 -0.66969437914E+02  0.12929679384E+03  0.15657562222E+03  0.41800000000E+01 0.  1.
        -11    1    1    2    0    0  0.36973490394E+01  0.86309612536E+02  0.28919737043E+02  0.91100882524E+02  0.00000000000E+00 0. -1.
         11    1    1    2    0    0 -0.40008761549E+01  0.14463853645E+02  0.85243774796E+02  0.86554671819E+02  0.00000000000E+00 0.  1.
</event>
<event>
 7    1  0.2841804E-009  0.1068190E+03  0.7561462E-02  0.1266577E+00
          1   -1    0    0  501    0  0.00000000000E+00  0.00000000000E+00  0.22981854088E+02  0.22981854088E+02  0.00000000000E+00 0. -1.
         -1   -1    0    0    0  501 -0.00000000000E+00 -0.00000000000E+00 -0.92088680696E+03  0.92088680696E+03  0.00000000000E+00 0.  1.
         25    2    1    2    0    0 -0.75756023758E+02  0.71202696676E+01 -0.67979754452E+03  0.69538578922E+03  0.12508805275E+03 0.  0.
          5    1    3    3  502    0 -0.44227467718E+01 -0.43377153804E+02 -0.10209351723E+03  0.11109318980E+03  0.41800000000E+01 0.  1.
         -5    1    3    3    0  502 -0.71333276987E+02  0.50497423472E+02 -0.57770402730E+03  0.58429259942E+03  0.41800000000E+01 0.  1.
        -11    1    1    2    0    0  0.35956705246E+02  0.12366911284E+02 -0.19467737784E+03  0.19835600971E+03  0.00000000000E+00 0.  1.
         11    1    1    2    0    0  0.39799318512E+02 -0.19487180952E+02 -0.23430030511E+02  0.50126862112E+02  0.00000000000E+00 0. -1.
</event>
<event>
 7    1  0.2841804E-009  0.9778028E+02  0.7561462E-02  0.1285034E+00
         -1   -1    0    0    0  501 -0.00000000000E+00  0.00000000000E+00  0.19450573236E+02  0.19450573236E+02  0.00000000000E+00 0.  1.
          1   -1    0    0  501    0  0.00000000000E+00 -0.00000000000E+00 -0.15511349297E+04  0.15511349297E+04  0.00000000000E+00 0. -1.
         25    2    1    2    0    0 -0.69987313735E+02 -0.36590157739E+02 -0.13099463454E+04  0.13182736985E+04  0.12509617292E+03 0.  0.
          5    1    3    3  502    0 -0.47690503120E+02  0.22783862400E+02 -0.21342588387E+03  0.21991263898E+03  0.41800000000E+01 0. -1.
         -5    1    3    3    0  502 -0.22296810616E+02 -0.59374020139E+02 -0.10965204616E+04  0.10983610595E+04  0.41800000000E+01 0. -1.
        -11    1    1    2    0    0  0.22221023556E+02  0.12163659564E+02 -0.12202986384E+01  0.25361735560E+02  0.00000000000E+00 0.  1.
         11    1    1    2    0    0  0.47766290180E+02  0.24426498175E+02 -0.22051771242E+03  0.22695006892E+03  0.00000000000E+00 0. -1.
</event>
<event>
 7    1  0.2841804E-009  0.1517747E+03  0.7561462E-02  0.1198309E+00
          3   -1    0    0  501    0  0.00000000000E+00  0.00000000000E+00  0.12868527628E+03  0.12868527628E+03  0.00000000000E+00 0. -1.
         -3   -1    0    0    0  501 -0.00000000000E+00 -0.00000000000E+00 -0.22719614529E+03  0.22719614529E+03  0.00000000000E+00 0.  1.
         25    2    1    2    0    0  0.83647128287E+02 -0.74810518940E+02 -0.11606650544E+03  0.20423352601E+03  0.12508574519E+03 0.  0.
          5    1    3    3  502    0  0.26632677288E+01 -0.85942395226E+02 -0.63186405278E+02  0.10678568492E+03  0.41800000000E+01 0. -1.
         -5    1    3    3    0  502  0.80983860559E+02  0.11131876286E+02 -0.52880100161E+02  0.97447841093E+02  0.41800000000E+01 0. -1.
        -11    1    1    2    0    0  0.32020948728E+01  0.43002028308E+02  0.37367099190E+02  0.57058986601E+02  0.00000000000E+00 0. -1.
         11    1    1    2    0    0 -0.86849223160E+02  0.31808490632E+02 -0.19811462761E+02  0.94588908951E+02  0.00000000000E+00 0.  1.
</event>
<event>
 7    1  0.2841804E-009  0.1130579E+03  0.7561462E-02  0.1255010E+00
         -1   -1    0    0    0  501 -0.00000000000E+00  0.00000000000E+00  0.12153557410E+02  0.12153557410E+02  0.00000000000E+00 0.  1.
          1   -1    0    0  501    0  0.00000000000E+00 -0.00000000000E+00 -0.11854048141E+04  0.11854048141E+04  0.00000000000E+00 0. -1.
         25    2    1    2    0    0  0.47656787456E+01 -0.44943385553E+02 -0.82217800695E+03  0.83286533572E+03  0.12508146444E+03 0.  0.
          5    1    3    3  502    0  0.58260662580E+02  0.63631365273E+01 -0.36429173868E+03  0.36899964442E+03  0.41800000000E+01 0. -1.
         -5    1    3    3    0  502 -0.53494983835E+02 -0.51306522080E+02 -0.45788626827E+03  0.46386569131E+03  0.41800000000E+01 0. -1.
        -11    1    1    2    0    0 -0.30739562448E+02  0.56787199066E+02 -0.29238043350E+03  0.29942615880E+03  0.00000000000E+00 0. -1.
         11    1    1    2    0    0  0.25973883703E+02 -0.11843813513E+02 -0.58692816221E+02  0.65266876967E+02  0.00000000000E+00 0.  1.
</event>
<event>
 7    1  0.2841804E-009  0.1606315E+03  0.7561462E-02  0.1187986E+00
         -1   -1    0    0    0  501 -0.00000000000E+00  0.00000000000E+00  0.20137526003E+03  0.20137526003E+03  0.00000000000E+00 0.  1.
          1   -1    0    0  501    0  0.00000000000E+00 -0.00000000000E+00 -0.17289473059E+03  0.17289473059E+03  0.00000000000E+00 0. -1.
         25    2    1    2    0    0  0.78935694150E+02 -0.12865558568E+03  0.28743202717E+02  0.19810944162E+03  0.12505229153E+03 0.  0.
          5    1    3    3  502    0  0.62042018281E+02 -0.13601163873E+03 -0.15154816402E+02  0.15031805867E+03  0.41800000000E+01 0.  1.
         -5    1    3    3    0  502  0.16893675869E+02  0.73560530501E+01  0.43898019120E+02  0.47791382942E+02  0.41800000000E+01 0.  1.
        -11    1    1    2    0    0 -0.77414186718E+02  0.11233890106E+03  0.31859243228E+02  0.14009995138E+03  0.00000000000E+00 0.  1.
         11    1    1    2    0    0 -0.15215074323E+01  0.16316684620E+02 -0.32121916503E+02  0.36060597634E+02  0.00000000000E+00 0. -1.
</event>
<event>
 7    1  0.2841804E-009  0.3925862E+02  0.7561462E-02  0.1513739E+00
         -1   -1    0    0    0  501 -0.00000000000E+00  0.00000000000E+00  0.26330999896E+02  0.26330999896E+02  0.00000000000E+00 0.  1.
          1   -1    0    0  501    0  0.00000000000E+00 -0.00000000000E+00 -0.54006713338E+03  0.54006713338E+03  0.00000000000E+00 0. -1.
         25    2    1    2    0    0  0.48047156042E+01  0.24183620794E+02 -0.42528019108E+03  0.44398069926E+03  0.12509071741E+03 0.  0.
          5    1    3    3  502    0 -0.78357125259E+01  0.74143002955E+01  0.54009378976E+01  0.12767645430E+02  0.41800000000E+01 0.  1.
         -5    1    3    3    0  502  0.12640428130E+02  0.16769320498E+02 -0.43068112898E+03  0.43121305383E+03  0.41800000000E+01 0.  1.
        -11    1    1    2    0    0  0.15708899304E+01  0.10325002610E+02  0.12058901542E+02  0.15952757770E+02  0.00000000000E+00 0.  1.
         11    1    1    2    0    0 -0.63756055346E+01 -0.34508623404E+02 -0.10051484395E+03  0.10646467625E+03  0.00000000000E+00 0. -1.
</event>
<event>
 7    1  0.2841804E-009  0.1344624E+03  0.7561462E-02  0.1220981E+00
          2   -1    0    0  501    0  0.00000000000E+00  0.00000000000E+00  0.40789464308E+03  0.40789464308E+03  0.00000000000E+00 0. -1.
         -2   -1    0    0    0  501 -0.00000000000E+00 -0.00000000000E+00 -0.87652270079E+02  0.87652270079E+02  0.00000000000E+00 0.  1.
         25    2    1    2    0    0 -0.57504978162E+02  0.11089386453E+03  0.28685329107E+03  0.33694883012E+03  0.12508170055E+03 0.  0.
          5    1    3    3  502    0  0.16813524149E+02  0.19039064498E+02 -0.10000731023E+01  0.25761465748E+02  0.41800000000E+01 0. -1.
         -5    1    3    3    0  502 -0.74318502311E+02  0.91854800035E+02  0.28785336418E+03  0.31118736437E+03  0.41800000000E+01 0. -1.
        -11    1    1    2    0    0  0.17852282947E+02 -0.31430983546E+02 -0.32030518013E+02  0.48296633602E+02  0.00000000000E+00 0.  1.
         11    1    1    2    0    0  0.39652695216E+02 -0.79462880987E+02  0.65419599941E+02  0.11030144944E+03  0.00000000000E+00 0. -1.
</event>
<event>
 7    1  0.2841804E-009  0.9154294E+02  0.7561462E-02  0.1299158E+00
          1   -1    0    0  501    0  0.00000000000E+00  0.00000000000E+00  0.76055920815E+03  0.76055920815E+03  0.00000000000E+00 0. -1.
         -1   -1    0    0    0  501 -0.00000000000E+00 -0.00000000000E+00 -0.15822275928E+02  0.15822275928E+02  0.00000000000E+00 0.  1.
         25    2    1    2    0    0 -0.16643663177E+02  0.17566424075E+01  0.45897168359E+03  0.47600640748E+03  0.12508795429E+03 0.  0.
          5    1    3    3  502    0  0.32676753542E+02 -0.37171253407E+02  0.31463520073E+03  0.31853140228E+03  0.41800000000E+01 0. -1.
         -5    1    3    3    0  502 -0.49320416719E+02  0.38927895815E+02  0.14433648286E+03  0.15747500520E+03  0.41800000000E+01 0. -1.
        -11    1    1    2    0    0 -0.24133815788E+02  0.12588029247E+02  0.28147480029E+02  0.39155844734E+02  0.00000000000E+00 0.  1.
         11    1    1    2    0    0  0.40777478965E+02 -0.14344671654E+02  0.25761776861E+03  0.26121923187E+03  0.00000000000E+00 0. -1.
</event>
<event>
 7    1  0.2841804E-009  0.1155019E+03  0.7561462E-02  0.1250708E+00
          1   -1    0    0  501    0  0.00000000000E+00  0.00000000000E+00  0.77706152693E+03  0.77706152693E+03  0.00000000000E+00 0. -1.
         -1   -1    0    0    0  501 -0.00000000000E+00 -0.00000000000E+00 -0.21577891363E+02  0.21577891363E+02  0.00000000000E+00 0.  1.
         25    2    1    2    0    0  0.98610301008E+01  0.54367149372E+02  0.33343522323E+03  0.36038724132E+03  0.12508752444E+03 0.  0.
          5    1    3    3  502    0  0.52406865199E+02  0.46841111929E+02  0.29202805419E+03  0.30039711404E+03  0.41800000000E+01 0.  1.
         -5    1    3    3    0  502 -0.42545835098E+02  0.75260374433E+01  0.41407169041E+02  0.59990127286E+02  0.41800000000E+01 0.  1.
        -11    1    1    2    0    0  0.46884992292E+02 -0.21209988079E+02  0.21231872881E+03  0.21846580671E+03  0.00000000000E+00 0.  1.
         11    1    1    2    0    0 -0.56746022393E+02 -0.33157161293E+02  0.20972968353E+03  0.21978637027E+03  0.00000000000E+00 0. -1.
</event>
<event>
 7    1  0.2841804E-009  0.1137232E+03  0.7561462E-02  0.1253826E+00
         -1   -1    0    0    0  501 -0.00000000000E+00  0.00000000000E+00  0.19972032587E+03  0.19972032587E+03  0.00000000000E+00 0.  1.
          1   -1    0    0  501    0  0.00000000000E+00 -0.00000000000E+00 -0.14806928373E+03  0.14806928373E+03  0.00000000000E+00 0. -1.
         25    2    1    2    0    0  0.59594016473E+02 -0.39351268955E+02 -0.86740750777E+02  0.16813960780E+03  0.12508797184E+03 0.  0.
          5    1    3    3  502    0  0.17225949275E+02 -0.77025619302E+02 -0.77218148452E+02  0.11049793757E+03  0.41800000000E+01 0.  1.
         -5    1    3    3    0  502  0.42368067198E+02  0.37674350347E+02 -0.95226023250E+01  0.57641670232E+02  0.41800000000E+01 0.  1.
        -11    1    1    2    0    0 -0.59596435729E+02  0.51888847318E+02  0.14525429160E+03  0.16535717964E+03  0.00000000000E+00 0.  1.
         11    1    1    2    0    0  0.24192556180E-02 -0.12537578363E+02 -0.68624986874E+01  0.14292822160E+02  0.00000000000E+00 0. -1.
</event>
<event>
 7    1  0.2841804E-009  0.9689790E+02  0.7561462E-02  0.1286958E+00
          1   -1    0    0  501    0  0.00000000000E+00  0.00000000000E+00  0.10456162553E+04  0.10456162553E+04  0.00000000000E+00 0. -1.
         -1   -1    0    0    0  501 -0.00000000000E+00 -0.00000000000E+00 -0.20677964419E+02  0.20677964419E+02  0.00000000000E+00 0.  1.
         25    2    1    2    0    0  0.41207578907E+01  0.78195677215E+02  0.76868216074E+03  0.78272004498E+03  0.12508740938E+03 0.  0.
          5    1    3    3  502    0  0.26596638239E+02  0.64791956301E+02  0.17634608644E+03  0.18979144704E+03  0.41800000000E+01 0. -1.
         -5    1    3    3    0  502 -0.22475880349E+02  0.13403720914E+02  0.59233607430E+03  0.59292859793E+03  0.41800000000E+01 0. -1.
        -11    1    1    2    0    0  0.24808104016E+02 -0.19008648180E+02  0.18047539208E+03  0.18316150763E+03  0.00000000000E+00 0. -1.
         11    1    1    2    0    0 -0.28928861907E+02 -0.59187029035E+02  0.75780738086E+02  0.10041266714E+03  0.00000000000E+00 0.  1.
</event>
<event>
 7    1  0.2841804E-009  0.1230880E+03  0.7561462E-02  0.1238088E+00
         -2   -1    0    0    0  501 -0.00000000000E+00  0.00000000000E+00  0.22357946228E+02  0.22357946228E+02  0.00000000000E+00 0.  1.
          2   -1    0    0  501    0  0.00000000000E+00 -0.00000000000E+00 -0.80869804761E+03  0.80869804761E+03  0.00000000000E+00 0. -1.
         25    2    1    2    0    0  0.37412507848E+02 -0.69526384810E+02 -0.45169540676E+03  0.47530134430E+03  0.12509601704E+03 0.  0.
          5    1    3    3  502    0 -0.30495164914E+01 -0.95021372153E+02 -0.23885050130E+03  0.25710969466E+03  0.41800000000E+01 0.  1.
         -5    1    3    3    0  502  0.40462024340E+02  0.25494987343E+02 -0.21284490546E+03  0.21819164964E+03  0.41800000000E+01 0.  1.
        -11    1    1    2    0    0 -0.45929126607E+02  0.15740951413E+02 -0.67686565407E+02  0.83299059772E+02  0.00000000000E+00 0.  1.
         11    1    1    2    0    0  0.85166187584E+01  0.53785433397E+02 -0.26695812922E+03  0.27245558977E+03  0.00000000000E+00 0. -1.
</event>
<event>
 7    1  0.2841804E-009  0.1141706E+03  0.7561462E-02  0.1253036E+00
         -1   -1    0    0    0  501 -0.00000000000E+00  0.00000000000E+00  0.12145278812E+03  0.12145278812E+03  0.00000000000E+00 0.  1.
          1   -1    0    0  501    0  0.00000000000E+00 -0.00000000000E+00 -0.25449475124E+03  0.25449475124E+03  0.00000000000E+00 0. -1.
         25    2    1    2    0    0 -0.37487813795E+02  0.48911248090E+02 -0.20176530771E+03  0.24526412103E+03  0.12509038050E+03 0.  0.
          5    1    3    3  502    0  0.36565705496E+02  0.44405915273E+02 -0.50195153503E+02  0.76458890685E+02  0.41800000000E+01 0. -1.
         -5    1    3    3    0  502 -0.74053519291E+02  0.45053328165E+01 -0.15157015421E+03  0.16880523034E+03  0.41800000000E+01 0. -1.
        -11    1    1    2    0    0 -0.22069862643E+02 -0.57540400775E+01 -0.82176878973E+01  0.24242900170E+02  0.00000000000E+00 0. -1.
         11    1    1    2    0    0  0.59557676438E+02 -0.43157208012E+02  0.76941032495E+02  0.10644051817E+03  0.00000000000E+00 0.  1.
</event>
<event>
 7    1  0.2841804E-009  0.1175833E+03  0.7561462E-02  0.1247138E+00
         -1   -1    0    0    0  501 -0.00000000000E+00  0.00000000000E+00  0.17124800778E+03  0.17124800778E+03  0.00000000000E+00 0.  1.
          1   -1    0    0  501    0  0.00000000000E+00 -0.00000000000E+00 -0.12807978784E+03  0.12807978784E+03  0.00000000000E+00 0. -1.
         25    2    1    2    0    0  0.19049004726E+02  0.89532497951E+02  0.66328945741E+02  0.16860048293E+03  0.12509061129E+03 0.  0.
          5    1    3    3  502    0 -0.35879324096E+02  0.53876947588E+02  0.78531203091E+02  0.10185614188E+03  0.41800000000E+01 0. -1.
         -5    1    3    3    0  502  0.54928328822E+02  0.35655550363E+02 -0.12202257350E+02  0.66744341058E+02  0.41800000000E+01 0. -1.
        -11    1    1    2    0    0 -0.35642687723E+02 -0.73109310367E+02  0.18095169902E+02  0.83323511833E+02  0.00000000000E+00 0.  1.
         11    1    1    2    0    0  0.16593682997E+02 -0.16423187584E+02 -0.41255895698E+02  0.47403800856E+02  0.00000000000E+00 0. -1.
</event>
<event>
 7    1  0.2841804E-009  0.1361109E+03  0.7561462E-02  0.1218660E+00
         -2   -1    0    0    0  501 -0.00000000000E+00  0.00000000000E+00  0.58365373447E+02  0.58365373447E+02  0.00000000000E+00 0.  1.
          2   -1    0    0  501    0  0.00000000000E+00 -0.00000000000E+00 -0.40102770902E+03  0.40102770902E+03  0.00000000000E+00 0. -1.
         25    2    1    2    0    0  0.96610054876E+02  0.35982876983E+02 -0.13675794170E+03  0.21207713025E+03  0.12508279025E+03 0.  0.
          5    1    3    3  502    0 -0.89740455225E+01 -0.33551138685E+02 -0.22284077267E+02  0.41476076234E+02  0.41800000000E+01 0. -1.
         -5    1    3    3    0  502  0.10558410040E+03  0.69534015669E+02 -0.11447386444E+03  0.17060105402E+03  0.41800000000E+01 0. -1.
        -11    1    1    2    0    0 -0.26113051515E+02 -0.30332699681E+02 -0.13362602538E+02  0.42196247179E+02  0.00000000000E+00 0.  1.
         11    1    1    2    0    0 -0.70497003361E+02 -0.56501773019E+01 -0.19254179133E+03  0.20511970504E+03  0.00000000000E+00 0. -1.
</event>
<event>
 7    1  0.2841804E-009  0.2142266E+03  0.7561462E-02  0.1138262E+00
          2   -1    0    0  501    0  0.00000000000E+00  0.00000000000E+00  0.23678845931E+04  0.23678845931E+04  0.00000000000E+00 0. -1.
         -2   -1    0    0    0  501 -0.00000000000E+00 -0.00000000000E+00 -0.48688016983E+02  0.48688016983E+02  0.00000000000E+00 0.  1.
         25    2    1    2    0    0 -0.72988380597E+02  0.18048365272E+03  0.20868160356E+04  0.20996071433E+04  0.12508931638E+03 0.  0.
          5    1    3    3  502    0  0.16434689695E+02  0.12486787354E+03  0.11317053722E+04  0.11386995243E+04  0.41800000000E+01 0.  1.
         -5    1    3    3    0  502 -0.89423070292E+02  0.55615779184E+02  0.95511066339E+03  0.96090761893E+03  0.41800000000E+01 0.  1.
        -11    1    1    2    0    0  0.23945554683E+00 -0.29013397150E+02 -0.14149358927E+01  0.29048865670E+02  0.00000000000E+00 0.  1.
         11    1    1    2    0    0  0.72748925050E+02 -0.15147025557E+03  0.23379547642E+03  0.28791660114E+03  0.00000000000E+00 0. -1.
</event>
<event>
 7    1  0.2841804E-009  0.1585443E+03  0.7561462E-02  0.1190350E+00
          1   -1    0    0  501    0  0.00000000000E+00  0.00000000000E+00  0.82523739138E+03  0.82523739138E+03  0.00000000000E+00 0. -1.
         -1   -1    0    0    0  501 -0.00000000000E+00 -0.00000000000E+00 -0.37204072019E+02  0.37204072019E+02  0.00000000000E+00 0.  1.
         25    2    1    2    0    0  0.25434666569E+02 -0.13341879702E+03  0.44083164184E+03  0.47794044855E+03  0.12508812194E+03 0.  0.
          5    1    3    3  502    0 -0.18390408123E+02 -0.13585342284E+03  0.36888675697E+03  0.39355974321E+03  0.41800000000E+01 0. -1.
         -5    1    3    3    0  502  0.43825074691E+02  0.24346258182E+01  0.71944884871E+02  0.84380705340E+02  0.41800000000E+01 0. -1.
        -11    1    1    2    0    0 -0.13097076028E+02  0.74826779478E+02  0.78611775601E+02  0.10931784662E+03  0.00000000000E+00 0.  1.
         11    1    1    2    0    0 -0.12337590541E+02  0.58592017543E+02  0.26858990192E+03  0.27518316822E+03  0.00000000000E+00 0. -1.
</event>
<event>
 7    1  0.2841804E-009  0.1317238E+03  0.7561462E-02  0.1224920E+00
         -1   -1    0    0    0  501 -0.00000000000E+00  0.00000000000E+00  0.32682896594E+03  0.32682896594E+03  0.00000000000E+00 0.  1.
          1   -1    0    0  501    0  0.00000000000E+00 -0.00000000000E+00 -0.54374990436E+02  0.54374990436E+02  0.00000000000E+00 0. -1.
         25    2    1    2    0    0  0.65726760965E+02 -0.39700521020E+02  0.13302496435E+03  0.19808745088E+03  0.12508740376E+03 0.  0.
          5    1    3    3  502    0 -0.21620710388E+01  0.40592775553E+02  0.28918228229E+02  0.50061804823E+02  0.41800000000E+01 0.  1.
         -5    1    3    3    0  502  0.67888832004E+02 -0.80293296573E+02  0.10410673612E+03  0.14802564606E+03  0.41800000000E+01 0.  1.
        -11    1    1    2    0    0 -0.17652451304E+02 -0.28732181691E+02  0.53246996558E+02  0.63026898577E+02  0.00000000000E+00 0. -1.
         11    1    1    2    0    0 -0.48074309661E+02  0.68432702711E+02  0.86182014596E+02  0.12008960692E+03  0.00000000000E+00 0.  1.
</event>
<event>
 7    1  0.2841804E-009  0.1319485E+03  0.7561462E-02  0.1224593E+00
          2   -1    0    0  501    0  0.00000000000E+00  0.00000000000E+00  0.87107821683E+03  0.87107821683E+03  0.00000000000E+00 0. -1.
         -2   -1    0    0    0  501 -0.00000000000E+00 -0.00000000000E+00 -0.25371719879E+02  0.25371719879E+02  0.00000000000E+00 0.  1.
         25    2    1    2    0    0 -0.14556759868E+02 -0.10078590326E+03  0.46387809479E+03  0.49111945310E+03  0.12508290384E+03 0.  0.
          5    1    3    3  502    0  0.62308389035E+01 -0.11446689664E+03  0.24200461544E+03  0.26781560835E+03  0.41800000000E+01 0.  1.
         -5    1    3    3    0  502 -0.20787598771E+02  0.13680993380E+02  0.22187347935E+03  0.22330384475E+03  0.41800000000E+01 0.  1.
        -11    1    1    2    0    0 -0.28780287586E+02  0.38361973600E+02  0.73401114361E+02  0.87679356530E+02  0.00000000000E+00 0.  1.
         11    1    1    2    0    0  0.43337047454E+02  0.62423929657E+02  0.30842728780E+03  0.31765112708E+03  0.00000000000E+00 0. -1.
</event>
<event>
 7    1  0.2841804E-009  0.1724589E+03  0.7561462E-02  0.1175308E+00
         -3   -1    0    0    0  501 -0.00000000000E+00  0.00000000000E+00  0.73113018995E+02  0.73113018995E+02  0.00000000000E+00 0.  1.
          3   -1    0    0  501    0  0.00000000000E+00 -0.00000000000E+00 -0.45522736277E+03  0.45522736277E+03  0.00000000000E+00 0. -1.
         25    2    1    2    0    0 -0.59776550038E+02 -0.12311474696E+03 -0.27538664404E+03  0.33198875340E+03  0.12509297269E+03 0.  0.
          5    1    3    3  502    0 -0.39989235816E+02 -0.14775973448E+03 -0.21927988218E+03  0.26745694465E+03  0.41800000000E+01 0. -1.
         -5    1    3    3    0  502 -0.19787314222E+02  0.24644987521E+02 -0.56106761861E+02  0.64531808750E+02  0.41800000000E+01 0. -1.
        -11    1    1    2    0    0  0.52272665366E+02  0.19151046473E+02 -0.60832330658E+02  0.82460697176E+02  0.00000000000E+00 0.  1.
         11    1    1    2    0    0  0.75038846724E+01  0.10396370048E+03 -0.45895369076E+02  0.11389093119E+03  0.00000000000E+00 0. -1.
</event>
<event>
 7    1  0.2841804E-009  0.1285490E+03  0.7561462E-02  0.1229625E+00
         -1   -1    0    0    0  501 -0.00000000000E+00  0.00000000000E+00  0.25116744406E+02  0.25116744406E+02  0.00000000000E+00 0.  1.
          1   -1    0    0  501    0  0.00000000000E+00 -0.00000000000E+00 -0.69384092384E+03  0.69384092384E+03  0.00000000000E+00 0. -1.
         25    2    1    2    0    0  0.11460890684E+02  0.73680741592E+02 -0.33814547230E+03  0.36817053810E+03  0.12508789306E+03 0.  0.
          5    1    3    3  502    0 -0.47287659735E+02 -0.49498464216E+00 -0.77911268927E+02  0.91235990699E+02  0.41800000000E+01 0. -1.
         -5    1    3    3    0  502  0.58748550419E+02  0.74175726234E+02 -0.26023420338E+03  0.27693454740E+03  0.41800000000E+01 0. -1.
        -11    1    1    2    0    0 -0.40380170055E+02 -0.53792227548E+01 -0.15323760914E+03  0.15855995404E+03  0.00000000000E+00 0. -1.
         11    1    1    2    0    0  0.28919279371E+02 -0.68301518837E+02 -0.17734109799E+03  0.19222717610E+03  0.00000000000E+00 0.  1.
</event>
<event>
 7    1  0.2841804E-009  0.1064694E+03  0.7561462E-02  0.1267251E+00
          1   -1    0    0  501    0  0.00000000000E+00  0.00000000000E+00  0.34843437455E+02  0.34843437455E+02  0.00000000000E+00 0. -1.
         -1   -1    0    0    0  501 -0.00000000000E+00 -0.00000000000E+00 -0.44378367535E+03  0.44378367535E+03  0.00000000000E+00 0.  1.
         25    2    1    2    0    0 -0.28283282386E+02  0.28531898477E+02 -0.31446290703E+03  0.34080608537E+03  0.12509138515E+03 0.  0.
          5    1    3    3  502    0 -0.72964508959E+02  0.35081120013E+02 -0.24301327250E+03  0.25617850722E+03  0.41800000000E+01 0. -1.
         -5    1    3    3    0  502  0.44681226573E+02 -0.65492215368E+01 -0.71449634524E+02  0.84627578155E+02  0.41800000000E+01 0. -1.
        -11    1    1    2    0    0  0.54372893271E+02 -0.12153024810E+02 -0.91160832359E+02  0.10683821831E+03  0.00000000000E+00 0. -1.
         11    1    1    2    0    0 -0.26089610885E+02 -0.16378873666E+02 -0.33164985084E+01  0.30982809122E+02  0.00000000000E+00 0.  1.
</event>
<event>
 7    1  0.2841804E-009  0.9338766E+02  0.7561462E-02  0.1294849E+00
          3   -1    0    0  501    0  0.00000000000E+00  0.00000000000E+00  0.11931543977E+03  0.11931543977E+03  0.00000000000E+00 0. -1.
         -3   -1    0    0    0  501 -0.00000000000E+00 -0.00000000000E+00 -0.14359588320E+03  0.14359588320E+03  0.00000000000E+00 0.  1.
         25    2    1    2    0    0 -0.47846934932E+02 -0.38808754854E+02 -0.40993210905E+02  0.14535201042E+03  0.12510521554E+03 0.  0.
          5    1    3    3  502    0 -0.51918067475E+02 -0.49833748269E+02 -0.78053766923E+02  0.10624853471E+03  0.41800000000E+01 0. -1.
         -5    1    3    3    0  502  0.40711325434E+01  0.11024993415E+02  0.37060556018E+02  0.39103475706E+02  0.41800000000E+01 0. -1.
        -11    1    1    2    0    0 -0.20031514652E+02 -0.59645438252E+01  0.28554690869E+02  0.35386547344E+02  0.00000000000E+00 0. -1.
         11    1    1    2    0    0  0.67878449584E+02  0.44773298679E+02 -0.11841923391E+02  0.82172765209E+02  0.00000000000E+00 0.  1.
</event>
<event>
 7    1  0.2841804E-009  0.2649775E+03  0.7561462E-02  0.1104189E+00
         -2   -1    0    0    0  501 -0.00000000000E+00  0.00000000000E+00  0.16489685597E+03  0.16489685597E+03  0.00000000000E+00 0.  1.
          2   -1    0    0  501    0  0.00000000000E+00 -0.00000000000E+00 -0.55762531844E+03  0.55762531844E+03  0.00000000000E+00 0. -1.
         25    2    1    2    0    0  0.14419972181E+03  0.20388091814E+03 -0.40331808219E+02  0.28219655279E+03  0.12508897273E+03 0.  0.
          5    1    3    3  502    0  0.53657346151E+01 -0.17026173409E+02 -0.18126643493E+01  0.18423893209E+02  0.41800000000E+01 0. -1.
         -5    1    3    3    0  502  0.13883398719E+03  0.22090709155E+03 -0.38519143870E+02  0.26377265958E+03  0.41800000000E+01 0. -1.
        -11    1    1    2    0    0 -0.13248182964E+03 -0.17487138237E+03 -0.24690908158E+03  0.33029612490E+03  0.00000000000E+00 0. -1.
         11    1    1    2    0    0 -0.11717892166E+02 -0.29009535771E+02 -0.10548757267E+03  0.11002949673E+03  0.00000000000E+00 0.  1.
</event>
<event>
 7    1  0.2841804E-009  0.2183948E+03  0.7561462E-02  0.1135085E+00
          2   -1    0    0  501    0  0.00000000000E+00  0.00000000000E+00  0.54967685491E+03  0.54967685491E+03  0.00000000000E+00 0. -1.
         -2   -1    0    0    0  501 -0.00000000000E+00 -0.00000000000E+00 -0.11437396563E+03  0.11437396563E+03  0.00000000000E+00 0.  1.
         25    2    1    2    0    0  0.56264712203E+01  0.21023389772E+03  0.11503320907E+03  0.27038805176E+03  0.12508841039E+03 0.  0.
          5    1    3    3  502    0 -0.67704823682E+01  0.14501550016E+03  0.93759896142E+01  0.14553596222E+03  0.41800000000E+01 0.  1.
         -5    1    3    3    0  502  0.12396953589E+02  0.65218397561E+02  0.10565721945E+03  0.12485208953E+03  0.41800000000E+01 0.  1.
        -11    1    1    2    0    0  0.29367895775E+02 -0.16628838946E+03  0.20627465787E+03  0.26657744888E+03  0.00000000000E+00 0.  1.
         11    1    1    2    0    0 -0.34994366995E+02 -0.43945508259E+02  0.11399502234E+03  0.12708531991E+03  0.00000000000E+00 0. -1.
</event>
<event>
 7    1  0.2841804E-009  0.1094203E+03  0.7561462E-02  0.1261647E+00
          2   -1    0    0  501    0  0.00000000000E+00  0.00000000000E+00  0.84506945617E+03  0.84506945617E+03  0.00000000000E+00 0. -1.
         -2   -1    0    0    0  501 -0.00000000000E+00 -0.00000000000E+00 -0.35399938248E+02  0.35399938248E+02  0.00000000000E+00 0.  1.
         25    2    1    2    0    0  0.57883833600E+02  0.61962407928E+02  0.69256495445E+03  0.70886096715E+03  0.12509107255E+03 0.  0.
          5    1    3    3  502    0  0.34164591830E+02 -0.18348372173E+02  0.45987535468E+03  0.46152648498E+03  0.41800000000E+01 0.  1.
         -5    1    3    3    0  502  0.23719241770E+02  0.80310780101E+02  0.23268959977E+03  0.24733448218E+03  0.41800000000E+01 0.  1.
        -11    1    1    2    0    0 -0.19318795965E+02 -0.52982679250E+02  0.98116011118E+01  0.57242009874E+02  0.00000000000E+00 0.  1.
         11    1    1    2    0    0 -0.38565037635E+02 -0.89797286785E+01  0.10729296236E+03  0.11436641739E+03  0.00000000000E+00 0. -1.
</event>
<event>
 7    1  0.2841804E-009  0.1114960E+03  0.7561462E-02  0.1257824E+00
         -2   -1    0    0    0  501 -0.00000000000E+00  0.00000000000E+00  0.18901003851E+02  0.18901003851E+02  0.00000000000E+00 0.  1.
          2   -1    0    0  501    0  0.00000000000E+00 -0.00000000000E+00 -0.74445117470E+03  0.74445117470E+03  0.00000000000E+00 0. -1.
         25    2    1    2    0    0  0.14367940849E+02  0.50738923411E+02 -0.39454328012E+03  0.41724492917E+03  0.12509218584E+03 0.  0.
          5    1    3    3  502    0  0.19309905943E+02  0.87985917956E+02 -0.33320635753E+03  0.34519319710E+03  0.41800000000E+01 0.  1.
         -5    1    3    3    0  502 -0.49419650943E+01 -0.37246994545E+02 -0.61336922595E+02  0.72051732075E+02  0.41800000000E+01 0.  1.
        -11    1    1    2    0    0  0.41103007331E+01 -0.68946173440E+02 -0.17825547158E+03  0.19116872796E+03  0.00000000000E+00 0.  1.
         11    1    1    2    0    0 -0.18478241582E+02  0.18207250029E+02 -0.15275141915E+03  0.15493852141E+03  0.00000000000E+00 0. -1.
</event>
<event>
 7    1  0.2841804E-009  0.1410204E+03  0.7561462E-02  0.1211963E+00
          4   -1    0    0  501    0  0.00000000000E+00  0.00000000000E+00  0.12253830289E+03  0.12253830289E+03  0.00000000000E+00 0. -1.
         -4   -1    0    0    0  501 -0.00000000000E+00 -0.00000000000E+00 -0.21574536419E+03  0.21574536419E+03  0.00000000000E+00 0.  1.
         25    2    1    2    0    0  0.22336863932E+02  0.11107014971E+03 -0.50265901709E+01  0.16883169807E+03  0.12507342650E+03 0.  0.
          5    1    3    3  502    0 -0.46529420235E+02  0.33640583045E+02  0.22050350363E+02  0.61647109633E+02  0.41800000000E+01 0.  1.
         -5    1    3    3    0  502  0.68866284166E+02  0.77429566666E+02 -0.27076940534E+02  0.10718458843E+03  0.41800000000E+01 0.  1.
        -11    1    1    2    0    0 -0.34842962595E+02 -0.79053377303E+02 -0.13764317393E+02  0.87480997586E+02  0.00000000000E+00 0. -1.
         11    1    1    2    0    0  0.12506098663E+02 -0.32016772408E+02 -0.74416153742E+02  0.81970971428E+02  0.00000000000E+00 0.  1.
</event>
<event>
 7    1  0.2841804E-009  0.1437440E+03  0.7561462E-02  0.1208378E+00
          2   -1    0    0  501    0  0.00000000000E+00  0.00000000000E+00  0.28747362863E+03  0.28747362863E+03  0.00000000000E+00 0. -1.
         -2   -1    0    0    0  501 -0.00000000000E+00 -0.00000000000E+00 -0.80771587575E+02  0.80771587575E+02  0.00000000000E+00 0.  1.
         25    2    1    2    0    0 -0.39445140715E+02 -0.89757963327E+02  0.15267985159E+03  0.22037756755E+03  0.12507087627E+03 0.  0.
          5    1    3    3  502    0  0.14414701051E+02 -0.97903492235E+02  0.12391346254E+03  0.15863447291E+03  0.41800000000E+01 0.  1.
         -5    1    3    3    0  502 -0.53859841765E+02  0.81455289082E+01  0.28766389056E+02  0.61743094638E+02  0.41800000000E+01 0.  1.
        -11    1    1    2    0    0  0.36916249960E+02 -0.65281156489E+01  0.31461884477E+02  0.48941556778E+02  0.00000000000E+00 0. -1.
         11    1    1    2    0    0  0.25288907549E+01  0.96286078976E+02  0.22560304986E+02  0.98926091877E+02  0.00000000000E+00 0.  1.
</event>
<event>
 7    1  0.2841804E-009  0.2222832E+03  0.7561462E-02  0.1132192E+00
          1   -1    0    0  501    0  0.00000000000E+00  0.00000000000E+00  0.76235614760E+02  0.76235614760E+02  0.00000000000E+00 0. -1.
         -1   -1    0    0    0  501 -0.00000000000E+00 -0.00000000000E+00 -0.71616865434E+03  0.71616865434E+03  0.00000000000E+00 0.  1.
         25    2    1    2    0    0  0.87069102520E+02 -0.18583967525E+03 -0.36992755375E+03  0.44114741954E+03  0.12508891732E+03 0.  0.
          5    1    3    3  502    0  0.25591863993E+02  0.28349117146E+01 -0.62356074025E+01  0.26820429280E+02  0.41800000000E+01 0. -1.
         -5    1    3    3    0  502  0.61477238526E+02 -0.18867458697E+03 -0.36369194635E+03  0.41432699026E+03  0.41800000000E+01 0. -1.
        -11    1    1    2    0    0 -0.88090997475E+02  0.96528037914E+02 -0.12430888471E+03  0.18036181624E+03  0.00000000000E+00 0. -1.
         11    1    1    2    0    0  0.10218949554E+01  0.89311637340E+02 -0.14569660112E+03  0.17089503332E+03  0.00000000000E+00 0.  1.
</event>
<event>
 7    1  0.2841804E-009  0.1058985E+03  0.7561462E-02  0.1268359E+00
          4   -1    0    0  501    0  0.00000000000E+00  0.00000000000E+00  0.45627111853E+02  0.45627111853E+02  0.00000000000E+00 0. -1.
         -4   -1    0    0    0  501 -0.00000000000E+00 -0.00000000000E+00 -0.32710087527E+03  0.32710087527E+03  0.00000000000E+00 0.  1.
         25    2    1    2    0    0  0.33778558909E+02 -0.32324059604E+02 -0.20894316736E+03  0.24796990677E+03  0.12508393826E+03 0.  0.
          5    1    3    3  502    0  0.45556782683E+02 -0.73182690909E+02 -0.10723608618E+03  0.13765237839E+03  0.41800000000E+01 0.  1.
         -5    1    3    3    0  502 -0.11778223774E+02  0.40858631305E+02 -0.10170708118E+03  0.11031752839E+03  0.41800000000E+01 0.  1.
        -11    1    1    2    0    0 -0.20281455436E+02 -0.20145636975E+02 -0.63759800312E+02  0.69874861428E+02  0.00000000000E+00 0.  1.
         11    1    1    2    0    0 -0.13497103473E+02  0.52469696579E+02 -0.87707957514E+01  0.54883218923E+02  0.00000000000E+00 0. -1.
</event>
<event>
 7    1  0.2841804E-009  0.1470210E+03  0.7561462E-02  0.1204182E+00
          1   -1    0    0  501    0  0.00000000000E+00  0.00000000000E+00  0.10957926767E+03  0.10957926767E+03  0.00000000000E+00 0. -1.
         -1   -1    0    0    0  501 -0.00000000000E+00 -0.00000000000E+00 -0.45851862274E+03  0.45851862274E+03  0.00000000000E+00 0.  1.
         25    2    1    2    0    0  0.18099895299E+02 -0.10597183124E+03 -0.38812141152E+03  0.42171396468E+03  0.12508718039E+03 0.  0.
          5    1    3    3  502    0 -0.32872514343E+02  0.29492906630E+01 -0.16392231350E+03  0.16726415569E+03  0.41800000000E+01 0.  1.
         -5    1    3    3    0  502  0.50972409642E+02 -0.10892112191E+03 -0.22419909802E+03  0.25444980899E+03  0.41800000000E+01 0.  1.
        -11    1    1    2    0    0 -0.49191447340E+02  0.28233898071E+02  0.22471970454E+02  0.61007712199E+02  0.00000000000E+00 0.  1.
         11    1    1    2    0    0  0.31091552040E+02  0.77737933174E+02  0.16710086002E+02  0.85376213530E+02  0.00000000000E+00 0. -1.
</event>
<event>
 7    1  0.2841804E-009  0.1613668E+03  0.7561462E-02  0.1187162E+00
         -1   -1    0    0    0  501 -0.00000000000E+00  0.00000000000E+00  0.52796435541E+03  0.52796435541E+03  0.00000000000E+00 0.  1.
          1   -1    0    0  501    0  0.00000000000E+00 -0.00000000000E+00 -0.57975251865E+02  0.57975251865E+02  0.00000000000E+00 0. -1.
         25    2    1    2    0    0 -0.12912415692E+03  0.44725534417E+02  0.24046370088E+03  0.30355102690E+03  0.12508802167E+03 0.  0.
          5    1    3    3  502    0  0.14895879421E+02 -0.46149884269E+01 -0.29580428544E+01  0.16413645526E+02  0.41800000000E+01 0.  1.
         -5    1    3    3    0  502 -0.14402003634E+03  0.49340522844E+02  0.24342174374E+03  0.28713738138E+03  0.41800000000E+01 0.  1.
        -11    1    1    2    0    0  0.93008282276E+01  0.17096135818E+02  0.74178805272E+02  0.76689493526E+02  0.00000000000E+00 0.  1.
         11    1    1    2    0    0  0.11982332869E+03 -0.61821670234E+02  0.15534659739E+03  0.20569908684E+03  0.00000000000E+00 0. -1.
</event>
<event>
 7    1  0.2841804E-009  0.1380087E+03  0.7561462E-02  0.1216034E+00
          1   -1    0    0  501    0  0.00000000000E+00  0.00000000000E+00  0.13219404464E+04  0.13219404464E+04  0.00000000000E+00 0. -1.
         -1   -1    0    0    0  501 -0.00000000000E+00 -0.00000000000E+00 -0.17149776816E+02  0.17149776816E+02  0.00000000000E+00 0.  1.
         25    2    1    2    0    0 -0.88727933303E+02 -0.15741493824E+02  0.94374480995E+03  0.95625433303E+03  0.12509053665E+03 0.  0.
          5    1    3    3  502    0 -0.58703019357E+01  0.47909678687E+02  0.35575429479E+03  0.35903814341E+03  0.41800000000E+01 0.  1.
         -5    1    3    3    0  502 -0.82857631367E+02 -0.63651172511E+02  0.58799051515E+03  0.59721618962E+03  0.41800000000E+01 0.  1.
        -11    1    1    2    0    0  0.96454117892E+02 -0.91988068096E+01  0.31855290981E+03  0.33296241718E+03  0.00000000000E+00 0.  1.
         11    1    1    2    0    0 -0.77261845892E+01  0.24940300634E+02  0.42492949774E+02  0.49873472954E+02  0.00000000000E+00 0. -1.
</event>
<event>
 7    1  0.2841804E-009  0.1325020E+03  0.7561462E-02  0.1223790E+00
          1   -1    0    0  501    0  0.00000000000E+00  0.00000000000E+00  0.92196297803E+03  0.92196297803E+03  0.00000000000E+00 0. -1.
         -1   -1    0    0    0  501 -0.00000000000E+00 -0.00000000000E+00 -0.21163044854E+02  0.21163044854E+02  0.00000000000E+00 0.  1.
         25    2    1    2    0    0 -0.11209166964E+02  0.82898530000E+02  0.53032087939E+03  0.55125844459E+03  0.12509127033E+03 0.  0.
          5    1    3    3  502    0  0.54731807219E+02  0.56114524057E+02  0.30415300259E+03  0.31411929568E+03  0.41800000000E+01 0.  1.
         -5    1    3    3    0  502 -0.65940974183E+02  0.26784005943E+02  0.22616787680E+03  0.23713914891E+03  0.41800000000E+01 0.  1.
        -11    1    1    2    0    0 -0.34352115916E+02 -0.38428320298E+02  0.85264896501E+02  0.99633860932E+02  0.00000000000E+00 0.  1.
         11    1    1    2    0    0  0.45561282880E+02 -0.44470209702E+02  0.28521415729E+03  0.29223371737E+03  0.00000000000E+00 0. -1.
</event>
<event>
 7    1  0.2841804E-009  0.1206919E+03  0.7561462E-02  0.1241960E+00
         -2   -1    0    0    0  501 -0.00000000000E+00  0.00000000000E+00  0.69955186502E+02  0.69955186502E+02  0.00000000000E+00 0.  1.
          2   -1    0    0  501    0  0.00000000000E+00 -0.00000000000E+00 -0.24858050181E+03  0.24858050181E+03  0.00000000000E+00 0. -1.
         25    2    1    2    0    0  0.43526326118E+02 -0.56602110897E+02 -0.12167041995E+03  0.18852665495E+03  0.12506105914E+03 0.  0.
          5    1    3    3  502    0 -0.23348443440E+02 -0.57981064630E+02 -0.18178432889E+02  0.65229452619E+02  0.41800000000E+01 0.  1.
         -5    1    3    3    0  502  0.66874769558E+02  0.13789537329E+01 -0.10349198706E+03  0.12329720233E+03  0.41800000000E+01 0.  1.
        -11    1    1    2    0    0 -0.63374035552E+02  0.14263611338E+02 -0.13864669808E+02  0.66422496636E+02  0.00000000000E+00 0. -1.
         11    1    1    2    0    0  0.19847709433E+02  0.42338499559E+02 -0.43090225547E+02  0.63586536722E+02  0.00000000000E+00 0.  1.
</event>
<event>
 7    1  0.2841804E-009  0.1652111E+03  0.7561462E-02  0.1182936E+00
         -1   -1    0    0    0  501 -0.00000000000E+00  0.00000000000E+00  0.50947928333E+03  0.50947928333E+03  0.00000000000E+00 0.  1.
          1   -1    0    0  501    0  0.00000000000E+00 -0.00000000000E+00 -0.93103354081E+02  0.93103354081E+02  0.00000000000E+00 0. -1.
         25    2    1    2    0    0  0.15984381619E+03  0.19952416194E+02  0.81469163117E+02  0.21961617410E+03  0.12508355168E+03 0.  0.
          5    1    3    3  502    0  0.73255797678E+02  0.22820063736E+01  0.10495486477E+03  0.12808050392E+03  0.41800000000E+01 0. -1.
         -5    1    3    3    0  502  0.86588018512E+02  0.17670409820E+02 -0.23485701649E+02  0.91535670179E+02  0.41800000000E+01 0. -1.
        -11    1    1    2    0    0 -0.21088606027E+02  0.14474348316E+02  0.13380301314E+03  0.13622585066E+03  0.00000000000E+00 0.  1.
         11    1    1    2    0    0 -0.13875521016E+03 -0.34426764510E+02  0.20110375299E+03  0.24674061264E+03  0.00000000000E+00 0. -1.
</event>
<event>
 7    1  0.2841804E-009  0.1078905E+03  0.7561462E-02  0.1264527E+00
         -1   -1    0    0    0  501 -0.00000000000E+00  0.00000000000E+00  0.19074642970E+03  0.19074642970E+03  0.00000000000E+00 0.  1.
          1   -1    0    0  501    0  0.00000000000E+00 -0.00000000000E+00 -0.80013822545E+02  0.80013822545E+02  0.00000000000E+00 0. -1.
         25    2    1    2    0    0  0.56363948540E+02 -0.13677635554E+02  0.42434670439E+02  0.14426240698E+03  0.12508784274E+03 0.  0.
          5    1    3    3  502    0  0.26869211362E+02  0.47940933132E+02  0.51242190693E+02  0.75256375782E+02  0.41800000000E+01 0.  1.
         -5    1    3    3    0  502  0.29494737178E+02 -0.61618568687E+02 -0.88075202542E+01  0.69006031195E+02  0.41800000000E+01 0.  1.
        -11    1    1    2    0    0 -0.31588604255E+02  0.43305265086E+02  0.70135912142E+01  0.54059008173E+02  0.00000000000E+00 0. -1.
         11    1    1    2    0    0 -0.24775344285E+02 -0.29627629532E+02  0.61284345501E+02  0.72438837094E+02  0.00000000000E+00 0.  1.
</event>
<event>
 7    1  0.2841804E-009  0.1370830E+03  0.7561462E-02  0.1217309E+00
          2   -1    0    0  501    0  0.00000000000E+00  0.00000000000E+00  0.21669364828E+04  0.21669364828E+04  0.00000000000E+00 0. -1.
         -2   -1    0    0    0  501 -0.00000000000E+00 -0.00000000000E+00 -0.11259890161E+02  0.11259890161E+02  0.00000000000E+00 0.  1.
         25    2    1    2    0    0  0.41717805626E+02 -0.76509662488E+02  0.16335192727E+04  0.16406178825E+04  0.12509083970E+03 0.  0.
          5    1    3    3  502    0  0.38541394283E+02 -0.10887244612E+03  0.14069860170E+04  0.14117243969E+04  0.41800000000E+01 0. -1.
         -5    1    3    3    0  502  0.31764113434E+01  0.32362783628E+02  0.22653325577E+03  0.22889348554E+03  0.41800000000E+01 0. -1.
        -11    1    1    2    0    0  0.28926803452E+02  0.17879258182E+02  0.10239594272E+03  0.10789511999E+03  0.00000000000E+00 0.  1.
         11    1    1    2    0    0 -0.70644609078E+02  0.58630404306E+02  0.41976137720E+03  0.42968337051E+03  0.00000000000E+00 0. -1.
</event>
<event>
 6    1  0.2841804E-009  0.2095373E+03  0.7561462E-02  0.1141933E+00
         -1   -1    0    0    0  501 -0.00000000000E+00  0.00000000000E+00  0.51023344931E+02  0.51023344931E+02  0.00000000000E+00 0.  1.
          1   -1    0    0  501    0  0.00000000000E+00 -0.00000000000E+00 -0.10002339626E+04  0.10002339626E+04  0.00000000000E+00 0. -1.
          5    1    1    2  502    0 -0.17466056756E+03  0.10189432238E+03 -0.33499306175E+03  0.39131392847E+03  0.41800000000E+01 0. -1.
         -5    1    1    2    0  502  0.11144470089E+02  0.98032377336E+01 -0.11483298742E+03  0.11586367025E+03  0.41800000000E+01 0. -1.
        -11    1    1    2    0    0  0.12120403845E+03 -0.62030173107E+02 -0.23341043296E+03  0.27021952470E+03  0.00000000000E+00 0.  1.
         11    1    1    2    0    0  0.42312059013E+02 -0.49667387008E+02 -0.26597413555E+03  0.27386018413E+03  0.00000000000E+00 0. -1.
</event>
<event>
 7    1  0.2841804E-009  0.3166389E+03  0.7561462E-02  0.1077207E+00
         -1   -1    0    0    0  501 -0.00000000000E+00  0.00000000000E+00  0.19852997429E+03  0.19852997429E+03  0.00000000000E+00 0.  1.
          1   -1    0    0  501    0  0.00000000000E+00 -0.00000000000E+00 -0.68538691415E+03  0.68538691415E+03  0.00000000000E+00 0. -1.
         25    2    1    2    0    0 -0.25336811492E+03 -0.15467997750E+03 -0.47305672551E+03  0.57232094529E+03  0.12508917526E+03 0.  0.
          5    1    3    3  502    0 -0.41391738464E+02 -0.92002879191E+02 -0.14274820226E+03  0.17484944221E+03  0.41800000000E+01 0. -1.
         -5    1    3    3    0  502 -0.21197637645E+03 -0.62677098307E+02 -0.33030852325E+03  0.39747150308E+03  0.41800000000E+01 0. -1.
        -11    1    1    2    0    0  0.10406661736E+03  0.11827973281E+03 -0.10335939326E+02  0.15788219559E+03  0.00000000000E+00 0.  1.
         11    1    1    2    0    0  0.14930149756E+03  0.36400244682E+02 -0.34642750166E+01  0.15371374756E+03  0.00000000000E+00 0. -1.
</event>
<event>
 7    1  0.2841804E-009  0.1167273E+03  0.7561462E-02  0.1248596E+00
          1   -1    0    0  501    0  0.00000000000E+00  0.00000000000E+00  0.49284795231E+03  0.49284795231E+03  0.00000000000E+00 0. -1.
         -1   -1    0    0    0  501 -0.00000000000E+00 -0.00000000000E+00 -0.32644585938E+02  0.32644585938E+02  0.00000000000E+00 0.  1.
         25    2    1    2    0    0  0.38176343566E+01 -0.63590872776E+02  0.31221428226E+03  0.34230865272E+03  0.12505631630E+03 0.  0.
          5    1    3    3  502    0  0.63888073381E+02 -0.40454714014E+02  0.16197233878E+03  0.17880374923E+03  0.41800000000E+01 0.  1.
         -5    1    3    3    0  502 -0.60070439025E+02 -0.23136158762E+02  0.15024194347E+03  0.16350490349E+03  0.41800000000E+01 0.  1.
        -11    1    1    2    0    0  0.21108006284E+02 -0.37212168908E+01  0.33232872949E+01  0.21689620164E+02  0.00000000000E+00 0.  1.
         11    1    1    2    0    0 -0.24925640640E+02  0.67312089667E+02  0.14466579682E+03  0.16149426536E+03  0.00000000000E+00 0. -1.
</event>
<event>
 7    1  0.2841804E-009  0.9194636E+02  0.7561462E-02  0.1298206E+00
         -1   -1    0    0    0  501 -0.00000000000E+00  0.00000000000E+00  0.27819961337E+02  0.27819961337E+02  0.00000000000E+00 0.  1.
          1   -1    0    0  501    0  0.00000000000E+00 -0.00000000000E+00 -0.55182014844E+03  0.55182014844E+03  0.00000000000E+00 0. -1.
         25    2    1    2    0    0 -0.18059692849E+02 -0.21026836572E+02 -0.41466163244E+03  0.43399759252E+03  0.12506542502E+03 0.  0.
          5    1    3    3  502    0  0.45625572980E+02 -0.39944941679E+02 -0.22142548539E+03  0.22961709269E+03  0.41800000000E+01 0. -1.
         -5    1    3    3    0  502 -0.63685265828E+02  0.18918105107E+02 -0.19323614705E+03  0.20438049983E+03  0.41800000000E+01 0. -1.
        -11    1    1    2    0    0  0.25081495007E+02  0.33725894017E+02 -0.12031672531E+03  0.12744658374E+03  0.00000000000E+00 0. -1.
         11    1    1    2    0    0 -0.70218021586E+01 -0.12699057445E+02  0.10978170647E+02  0.18195933510E+02  0.00000000000E+00 0.  1.
</event>
<event>
 7    1  0.2841804E-009  0.1168263E+03  0.7561462E-02  0.1248426E+00
          2   -1    0    0  501    0  0.00000000000E+00  0.00000000000E+00  0.23778972658E+03  0.23778972658E+03  0.00000000000E+00 0. -1.
         -2   -1    0    0    0  501 -0.00000000000E+00 -0.00000000000E+00 -0.10155325044E+03  0.10155325044E+03  0.00000000000E+00 0.  1.
         25    2    1    2    0    0 -0.93010691924E+02  0.48703062199E+02  0.38795018728E+02  0.16785551448E+03  0.12508974052E+03 0.  0.
          5    1    3    3  502    0  0.95879248319E+00  0.32890986956E+02 -0.34278550105E+02  0.47699346990E+02  0.41800000000E+01 0. -1.
         -5    1    3    3    0  502 -0.93969484407E+02  0.15812075243E+02  0.73073568832E+02  0.12015616749E+03  0.41800000000E+01 0. -1.
        -11    1    1    2    0    0  0.56125589050E+02 -0.26712243315E+02 -0.30213128356E+01  0.62231455233E+02  0.00000000000E+00 0.  1.
         11    1    1    2    0    0  0.36885102874E+02 -0.21990818883E+02  0.10046277024E+03  0.10925600731E+03  0.00000000000E+00 0. -1.
</event>
<event>
 7    1  0.2841804E-009  0.9014368E+02  0.7561462E-02  0.1302504E+00
         -2   -1    0    0    0  501 -0.00000000000E+00  0.00000000000E+00  0.27050094865E+02  0.27050094865E+02  0.00000000000E+00 0. -1.
          2   -1    0    0  501    0  0.00000000000E+00 -0.00000000000E+00 -0.56430989928E+03  0.56430989928E+03  0.00000000000E+00 0.  1.
         25    2    1    2    0    0 -0.33257661597E+02 -0.17915377153E+02 -0.40982992807E+03  0.43015911136E+03  0.12509699576E+03 0.  0.
          5    1    3    3  502    0 -0.50708420667E+02 -0.41238382587E+02 -0.10391579190E+03  0.12283286340E+03  0.41800000000E+01 0. -1.
         -5    1    3    3    0  502  0.17450759070E+02  0.23323005434E+02 -0.30591413617E+03  0.30732624796E+03  0.41800000000E+01 0. -1.
        -11    1    1    2    0    0  0.18780028661E+02  0.48238050163E+02 -0.34050650750E+02  0.61960033703E+02  0.00000000000E+00 0. -1.
         11    1    1    2    0    0  0.14477632936E+02 -0.30322673010E+02 -0.93379225592E+02  0.99240849079E+02  0.00000000000E+00 0.  1.
</event>
<event>
 7    1  0.2841804E-009  0.8475445E+02  0.7561462E-02  0.1316076E+00
          1   -1    0    0  501    0  0.00000000000E+00  0.00000000000E+00  0.43014483204E+03  0.43014483204E+03  0.00000000000E+00 0. -1.
         -1   -1    0    0    0  501 -0.00000000000E+00 -0.00000000000E+00 -0.36872823724E+02  0.36872823724E+02  0.00000000000E+00 0.  1.
         25    2    1    2    0    0  0.24317485524E+02 -0.55579622934E+02  0.22956573875E+03  0.26837961400E+03  0.12508698660E+03 0.  0.
          5    1    3    3  502    0  0.78688888413E+01 -0.47605034205E+02  0.24139700342E+03  0.24620752294E+03  0.41800000000E+01 0. -1.
         -5    1    3    3    0  502  0.16448596683E+02 -0.79745887292E+01 -0.11831264669E+02  0.22172091059E+02  0.41800000000E+01 0. -1.
        -11    1    1    2    0    0 -0.47283669131E+02  0.59715488903E+01  0.11841878221E+03  0.12764957009E+03  0.00000000000E+00 0.  1.
         11    1    1    2    0    0  0.22966183606E+02  0.49608074044E+02  0.45287487345E+02  0.70988471668E+02  0.00000000000E+00 0. -1.
</event>
<event>
 7    1  0.2841804E-009  0.9202867E+02  0.7561462E-02  0.1298012E+00
         -4   -1    0    0    0  501 -0.00000000000E+00  0.00000000000E+00  0.56298961444E+03  0.56298961444E+03  0.00000000000E+00 0.  1.
          4   -1    0    0  501    0  0.00000000000E+00 -0.00000000000E+00 -0.19340493367E+02  0.19340493367E+02  0.00000000000E+00 0. -1.
         25    2    1    2    0    0  0.38894091885E+02 -0.42634999346E+01  0.38890685899E+03  0.41040268306E+03  0.12510351503E+03 0.  0.
          5    1    3    3  502    0 -0.33829396829E+02 -0.31366043873E+02  0.21476389230E+03  0.21970265959E+03  0.41800000000E+01 0.  1.
         -5    1    3    3    0  502  0.72723488714E+02  0.27102543938E+02  0.17414296670E+03  0.19070002346E+03  0.41800000000E+01 0.  1.
        -11    1    1    2    0    0 -0.26785777078E+02  0.24584959695E+02  0.37155643069E+02  0.51984996958E+02  0.00000000000E+00 0. -1.
         11    1    1    2    0    0 -0.12108314806E+02 -0.20321459761E+02  0.11758661901E+03  0.11994242779E+03  0.00000000000E+00 0.  1.
</event>
<event>
 7    1  0.2841804E-009  0.7940564E+02  0.7561462E-02  0.1330747E+00
          1   -1    0    0  501    0  0.00000000000E+00  0.00000000000E+00  0.21418444759E+03  0.21418444759E+03  0.00000000000E+00 0. -1.
         -1   -1    0    0    0  501 -0.00000000000E+00 -0.00000000000E+00 -0.74263557036E+02  0.74263557036E+02  0.00000000000E+00 0.  1.
         25    2    1    2    0    0 -0.36452096421E+02 -0.49443928534E+02  0.97591474724E+02  0.17012783539E+03  0.12508368013E+03 0.  0.
          5    1    3    3  502    0 -0.27976074462E+02 -0.13364971297E+02  0.12174049119E+03  0.12569607311E+03  0.41800000000E+01 0. -1.
         -5    1    3    3    0  502 -0.84760219589E+01 -0.36078957238E+02 -0.24149016465E+02  0.44431762286E+02  0.41800000000E+01 0. -1.
        -11    1    1    2    0    0  0.55804305972E+02  0.40246593800E+02  0.59421787506E+02  0.90911262822E+02  0.00000000000E+00 0. -1.
         11    1    1    2    0    0 -0.19352209551E+02  0.91973347340E+01 -0.17092371680E+02  0.27408906406E+02  0.00000000000E+00 0.  1.
</event>
<event>
 7    1  0.2841804E-009  0.2065995E+03  0.7561462E-02  0.1144287E+00
         -2   -1    0    0    0  501 -0.00000000000E+00  0.00000000000E+00  0.97380167591E+02  0.97380167591E+02  0.00000000000E+00 0.  1.
          2   -1    0    0  501    0  0.00000000000E+00 -0.00000000000E+00 -0.53945477776E+03  0.53945477776E+03  0.00000000000E+00 0. -1.
         25    2    1    2    0    0  0.32274138249E+02  0.17678005169E+03 -0.10289165077E+03  0.24192244084E+03  0.12508784477E+03 0.  0.
          5    1    3    3  502    0 -0.20555434325E+02 -0.10510308122E+02 -0.47561774072E+01  0.23939216375E+02  0.41800000000E+01 0. -1.
         -5    1    3    3    0  502  0.52829572574E+02  0.18729035981E+03 -0.98135473367E+02  0.21798322447E+03  0.41800000000E+01 0. -1.
        -11    1    1    2    0    0 -0.55048840168E+02 -0.91121200477E+02 -0.13209864351E+03  0.16965700574E+03  0.00000000000E+00 0.  1.
         11    1    1    2    0    0  0.22774701919E+02 -0.85658851213E+02 -0.20708431588E+03  0.22525549877E+03  0.00000000000E+00 0. -1.
</event>
<event>
 7    1  0.2841804E-009  0.1158138E+03  0.7561462E-02  0.1250167E+00
         -2   -1    0    0    0  501 -0.00000000000E+00  0.00000000000E+00  0.61323055843E+02  0.61323055843E+02  0.00000000000E+00 0.  1.
          2   -1    0    0  501    0  0.00000000000E+00 -0.00000000000E+00 -0.58711040415E+03  0.58711040415E+03  0.00000000000E+00 0. -1.
         25    2    1    2    0    0  0.96484987706E+01  0.50584709845E+02 -0.24598725099E+02  0.13749038874E+03  0.12508638343E+03 0.  0.
          5    1    3    3  502    0  0.11589815731E+02 -0.39891893715E+02 -0.21218158583E+02  0.46833424672E+02  0.41800000000E+01 0.  1.
         -5    1    3    3    0  502 -0.19413169606E+01  0.90476603560E+02 -0.33805665164E+01  0.90656964064E+02  0.41800000000E+01 0.  1.
        -11    1    1    2    0    0 -0.42022720025E+02 -0.52024372074E+02 -0.34703324992E+03  0.35341833687E+03  0.00000000000E+00 0.  1.
         11    1    1    2    0    0  0.32374221254E+02  0.14396622288E+01 -0.15415537329E+03  0.15752473439E+03  0.00000000000E+00 0. -1.
</event>
<event>
 7    1  0.2841804E-009  0.1312896E+03  0.7561462E-02  0.1225555E+00
         -1   -1    0    0    0  501 -0.00000000000E+00  0.00000000000E+00  0.11485620334E+03  0.11485620334E+03  0.00000000000E+00 0.  1.
          1   -1    0    0  501    0  0.00000000000E+00 -0.00000000000E+00 -0.39713719608E+03  0.39713719608E+03  0.00000000000E+00 0. -1.
         25    2    1    2    0    0 -0.44761501375E+01 -0.10180191788E+03  0.36143809680E+02  0.16534001219E+03  0.12508908126E+03 0.  0.
          5    1    3    3  502    0  0.44752286228E+02 -0.10176699119E+03  0.31996343541E+02  0.11576064106E+03  0.41800000000E+01 0.  1.
         -5    1    3    3    0  502 -0.49228436366E+02 -0.34926689085E-01  0.41474661393E+01  0.49579371136E+02  0.41800000000E+01 0.  1.
        -11    1    1    2    0    0  0.32110288664E+01  0.48678011578E+02 -0.27123018187E+03  0.27558242157E+03  0.00000000000E+00 0. -1.
         11    1    1    2    0    0  0.12651212711E+01  0.53123906297E+02 -0.47194620548E+02  0.71070965666E+02  0.00000000000E+00 0.  1.
</event>
<event>
 7    1  0.2841804E-009  0.1065888E+03  0.7561462E-02  0.1267021E+00
         -2   -1    0    0    0  501 -0.00000000000E+00  0.00000000000E+00  0.61359371901E+02  0.61359371901E+02  0.00000000000E+00 0.  1.
          2   -1    0    0  501    0  0.00000000000E+00 -0.00000000000E+00 -0.26847090648E+03  0.26847090648E+03  0.00000000000E+00 0. -1.
         25    2    1    2    0    0  0.49855523650E+02  0.94425440819E+00 -0.56037393205E+02  0.14585752976E+03  0.12509102564E+03 0.  0.
          5    1    3    3  502    0  0.84126674863E+02 -0.93125011392E+01 -0.70243461949E+01  0.85034310372E+02  0.41800000000E+01 0. -1.
         -5    1    3    3    0  502 -0.34271151213E+02  0.10256755547E+02 -0.49013047010E+02  0.60823219391E+02  0.41800000000E+01 0. -1.
        -11    1    1    2    0    0 -0.49311821182E+02  0.32442089284E+02 -0.49447907849E+02  0.77001561387E+02  0.00000000000E+00 0.  1.
         11    1    1    2    0    0 -0.54370246826E+00 -0.33386343692E+02 -0.10162623353E+03  0.10697118724E+03  0.00000000000E+00 0. -1.
</event>
<event>
 7    1  0.2841804E-009  0.1191774E+03  0.7561462E-02  0.1244460E+00
         -3   -1    0    0    0  501 -0.00000000000E+00  0.00000000000E+00  0.23537166782E+03  0.23537166782E+03  0.00000000000E+00 0.  1.
          3   -1    0    0  501    0  0.00000000000E+00 -0.00000000000E+00 -0.68219649538E+02  0.68219649538E+02  0.00000000000E+00 0. -1.
         25    2    1    2    0    0 -0.59483351123E+02  0.76516846263E+01  0.67676054046E+02  0.15434502036E+03  0.12508205179E+03 0.  0.
          5    1    3    3  502    0  0.17753898502E+02 -0.38903231091E+02  0.25801521930E+01  0.43044069124E+02  0.41800000000E+01 0. -1.
         -5    1    3    3    0  502 -0.77237249625E+02  0.46554915718E+02  0.65095901853E+02  0.11130095123E+03  0.41800000000E+01 0. -1.
        -11    1    1    2    0    0  0.82154852709E+02 -0.63359280054E+01  0.95597312098E+02  0.12620780439E+03  0.00000000000E+00 0.  1.
         11    1    1    2    0    0 -0.22671501586E+02 -0.13157566209E+01  0.38786521377E+01  0.23038492617E+02  0.00000000000E+00 0. -1.
</event>
<event>
 7    1  0.2934325E-009  0.1072507E+03  0.7561462E-02  0.1265748E+00
         -2   -1    0    0    0  501 -0.00000000000E+00  0.00000000000E+00  0.67391613639E+02  0.67391613639E+02  0.00000000000E+00 0.  1.
          2   -1    0    0  501    0  0.00000000000E+00 -0.00000000000E+00 -0.28882189294E+03  0.28882189294E+03  0.00000000000E+00 0. -1.
         25    2    1    2    0    0  0.67154591515E+01  0.84527410331E+02 -0.94935823511E+02  0.17846659960E+03  0.12509011191E+03 0.  0.
          5    1    3    3  502    0 -0.41905474215E+02  0.38103785995E+02 -0.95498431394E+02  0.11110981089E+03  0.41800000000E+01 0. -1.
         -5    1    3    3    0  502  0.48620933366E+02  0.46423624337E+02  0.56260788268E+00  0.67356788712E+02  0.41800000000E+01 0. -1.
        -11    1    1    2    0    0  0.11665765578E+02 -0.48804524470E+02 -0.12806161505E+03  0.13754180799E+03  0.00000000000E+00 0. -1.
         11    1    1    2    0    0 -0.18381224730E+02 -0.35722885861E+02  0.15671592618E+01  0.40205098992E+02  0.00000000000E+00 0.  1.
</event>
<event>
 7    1  0.2841804E-009  0.2315763E+03  0.7561462E-02  0.1125535E+00
          2   -1    0    0  501    0  0.00000000000E+00  0.00000000000E+00  0.17008210035E+04  0.17008210035E+04  0.00000000000E+00 0. -1.
         -2   -1    0    0    0  501 -0.00000000000E+00 -0.00000000000E+00 -0.46857156735E+02  0.46857156735E+02  0.00000000000E+00 0.  1.
         25    2    1    2    0    0  0.19492792432E+03  0.11831096057E+03  0.12406342597E+04  0.12676021696E+04  0.12509002796E+03 0.  0.
          5    1    3    3  502    0  0.16901314101E+03  0.10936210849E+03  0.12084824690E+04  0.12251419766E+04  0.41800000000E+01 0. -1.
         -5    1    3    3    0  502  0.25914783311E+02  0.89488520748E+01  0.32151790742E+02  0.42460193068E+02  0.41800000000E+01 0. -1.
        -11    1    1    2    0    0 -0.37754156016E+02 -0.69959630972E+00  0.13008833739E+03  0.13545789477E+03  0.00000000000E+00 0. -1.
         11    1    1    2    0    0 -0.15717376830E+03 -0.11761136426E+03  0.28324124970E+03  0.34461809583E+03  0.00000000000E+00 0.  1.
</event>
<event>
 7    1  0.2841804E-009  0.1116848E+03  0.7561462E-02  0.1257481E+00
         -2   -1    0    0    0  501 -0.00000000000E+00  0.00000000000E+00  0.84336720067E+02  0.84336720067E+02  0.00000000000E+00 0.  1.
          2   -1    0    0  501    0  0.00000000000E+00 -0.00000000000E+00 -0.27790584654E+03  0.27790584654E+03  0.00000000000E+00 0. -1.
         25    2    1    2    0    0 -0.32356793190E+02 -0.80607197824E+02 -0.17915167535E+03  0.23513096443E+03  0.12508703068E+03 0.  0.
          5    1    3    3  502    0 -0.18649385577E+02  0.17568793080E+02 -0.11285677194E+03  0.11580408216E+03  0.41800000000E+01 0. -1.
         -5    1    3    3    0  502 -0.13707407613E+02 -0.98175990904E+02 -0.66294903414E+02  0.11932688227E+03  0.41800000000E+01 0. -1.
        -11    1    1    2    0    0 -0.11811238342E+02  0.19420686893E+02  0.31448972716E+02  0.38803431748E+02  0.00000000000E+00 0.  1.
         11    1    1    2    0    0  0.44168031531E+02  0.61186510931E+02 -0.45866423843E+02  0.88308170434E+02  0.00000000000E+00 0. -1.
</event>
<event>
 7    1  0.2841804E-009  0.1068334E+03  0.7561462E-02  0.1266549E+00
         -1   -1    0    0    0  501 -0.00000000000E+00  0.00000000000E+00  0.28857991885E+02  0.28857991885E+02  0.00000000000E+00 0.  1.
          1   -1    0    0  501    0  0.00000000000E+00 -0.00000000000E+00 -0.66296273392E+03  0.66296273392E+03  0.00000000000E+00 0. -1.
         25    2    1    2    0    0  0.71152540112E+02  0.29798033554E+02 -0.27161263130E+03  0.30882773692E+03  0.12510212963E+03 0.  0.
          5    1    3    3  502    0  0.57696281381E+02 -0.10621343651E+01 -0.26860984422E+03  0.27477028555E+03  0.41800000000E+01 0. -1.
         -5    1    3    3    0  502  0.13456258731E+02  0.30860167919E+02 -0.30027870887E+01  0.34057451363E+02  0.41800000000E+01 0. -1.
        -11    1    1    2    0    0  0.21483972131E+02  0.64154453437E+01 -0.94924962755E+02  0.97537006062E+02  0.00000000000E+00 0.  1.
         11    1    1    2    0    0 -0.92636512243E+02 -0.36213478897E+02 -0.26756714798E+03  0.28545598283E+03  0.00000000000E+00 0. -1.
</event>
<event>
 7    1  0.2841804E-009  0.1358983E+03  0.7561462E-02  0.1218957E+00
         -2   -1    0    0    0  501 -0.00000000000E+00  0.00000000000E+00  0.20936626903E+02  0.20936626903E+02  0.00000000000E+00 0.  1.
          2   -1    0    0  501    0  0.00000000000E+00 -0.00000000000E+00 -0.11852696576E+04  0.11852696576E+04  0.00000000000E+00 0. -1.
         25    2    1    2    0    0  0.47393923581E+02  0.10191076672E+03 -0.57740324388E+03  0.60139320522E+03  0.12508913971E+03 0.  0.
          5    1    3    3  502    0  0.32167488204E+02  0.10182730515E+02 -0.39644912495E+03  0.39790428042E+03  0.41800000000E+01 0. -1.
         -5    1    3    3    0  502  0.15226435377E+02  0.91728036207E+02 -0.18095411893E+03  0.20348892481E+03  0.41800000000E+01 0. -1.
        -11    1    1    2    0    0  0.27178552430E+02 -0.18734386905E+02 -0.10315651523E+03  0.10830936063E+03  0.00000000000E+00 0. -1.
         11    1    1    2    0    0 -0.74572476011E+02 -0.83176379817E+02 -0.48377327154E+03  0.49650371861E+03  0.00000000000E+00 0.  1.
</event>
<event>
 7    1  0.2841804E-009  0.2060599E+03  0.7561462E-02  0.1144725E+00
          1   -1    0    0  501    0  0.00000000000E+00  0.00000000000E+00  0.22219586859E+03  0.22219586859E+03  0.00000000000E+00 0. -1.
         -1   -1    0    0    0  501 -0.00000000000E+00 -0.00000000000E+00 -0.21452022110E+03  0.21452022110E+03  0.00000000000E+00 0.  1.
         25    2    1    2    0    0  0.10150336791E+02  0.18635225874E+03 -0.42487454725E+00  0.22467297138E+03  0.12509024691E+03 0.  0.
          5    1    3    3  502    0  0.45646383787E+02  0.12961564344E+02  0.27371748003E+00  0.47635510119E+02  0.41800000000E+01 0. -1.
         -5    1    3    3    0  502 -0.35496046996E+02  0.17339069440E+03 -0.69859202728E+00  0.17703746126E+03  0.41800000000E+01 0. -1.
        -11    1    1    2    0    0 -0.15195976856E+02 -0.13807945790E+03  0.50287862413E+02  0.14773531573E+03  0.00000000000E+00 0. -1.
         11    1    1    2    0    0  0.50456400649E+01 -0.48272800844E+02 -0.42187340378E+02  0.64307802583E+02  0.00000000000E+00 0.  1.
</event>
<event>
 7    1  0.2841804E-009  0.1388167E+03  0.7561462E-02  0.1214930E+00
         -1   -1    0    0    0  501 -0.00000000000E+00  0.00000000000E+00  0.16528804991E+02  0.16528804991E+02  0.00000000000E+00 0.  1.
          1   -1    0    0  501    0  0.00000000000E+00 -0.00000000000E+00 -0.12033719294E+04  0.12033719294E+04  0.00000000000E+00 0. -1.
         25    2    1    2    0    0  0.43443077232E+02 -0.74113762500E+02 -0.58731744535E+03  0.60660568076E+03  0.12509404290E+03 0.  0.
          5    1    3    3  502    0 -0.92719663954E+01  0.31181515372E+02 -0.16087843127E+03  0.16418769232E+03  0.41800000000E+01 0.  1.
         -5    1    3    3    0  502  0.52715043627E+02 -0.10529527787E+03 -0.42643901407E+03  0.44241798844E+03  0.41800000000E+01 0.  1.
        -11    1    1    2    0    0 -0.55650217322E+02  0.39510306556E+01 -0.32079200259E+03  0.32560722697E+03  0.00000000000E+00 0. -1.
         11    1    1    2    0    0  0.12207140090E+02  0.70162731845E+02 -0.27873367652E+03  0.28768782670E+03  0.00000000000E+00 0.  1.
</event>
<event>
 7    1  0.2841804E-009  0.7511654E+02  0.7561462E-02  0.1343511E+00
          4   -1    0    0  501    0  0.00000000000E+00  0.00000000000E+00  0.14749435623E+02  0.14749435623E+02  0.00000000000E+00 0. -1.
         -4   -1    0    0    0  501 -0.00000000000E+00 -0.00000000000E+00 -0.86094199463E+03  0.86094199463E+03  0.00000000000E+00 0.  1.
         25    2    1    2    0    0 -0.13220065486E+01  0.34815804514E+02 -0.48751085356E+03  0.50451030328E+03  0.12509966359E+03 0.  0.
          5    1    3    3  502    0 -0.29623259933E+00 -0.94953604530E+01 -0.43722740237E+03  0.43735057266E+03  0.41800000000E+01 0.  1.
         -5    1    3    3    0  502 -0.10257739493E+01  0.44311164967E+02 -0.50283451186E+02  0.67159730614E+02  0.41800000000E+01 0.  1.
        -11    1    1    2    0    0 -0.16578112971E+02  0.26611107770E+02 -0.12886980907E+03  0.13262885273E+03  0.00000000000E+00 0. -1.
         11    1    1    2    0    0  0.17900119520E+02 -0.61426912284E+02 -0.22981189638E+03  0.23855227425E+03  0.00000000000E+00 0.  1.
</event>
<event>
 7    1  0.2841804E-009  0.9391221E+02  0.7561462E-02  0.1293645E+00
         -1   -1    0    0    0  501 -0.00000000000E+00  0.00000000000E+00  0.24850843030E+03  0.24850843030E+03  0.00000000000E+00 0.  1.
          1   -1    0    0  501    0  0.00000000000E+00 -0.00000000000E+00 -0.77343278554E+02  0.77343278554E+02  0.00000000000E+00 0. -1.
         25    2    1    2    0    0  0.18446409759E+02 -0.59356762223E+02  0.21390050650E+02  0.14130814263E+03  0.12508781576E+03 0.  0.
          5    1    3    3  502    0 -0.19476990098E+02 -0.31615512508E+02 -0.45864084550E+02  0.59159787238E+02  0.41800000000E+01 0. -1.
         -5    1    3    3    0  502  0.37923399857E+02 -0.27741249715E+02  0.67254135200E+02  0.82148355394E+02  0.41800000000E+01 0. -1.
        -11    1    1    2    0    0  0.24900491174E+02 -0.52839099332E+01  0.16904856603E+02  0.30556968791E+02  0.00000000000E+00 0. -1.
         11    1    1    2    0    0 -0.43346900933E+02  0.64640672156E+02  0.13287024449E+03  0.15398659743E+03  0.00000000000E+00 0.  1.
</event>
<event>
 7    1  0.2841804E-009  0.1810248E+03  0.7561462E-02  0.1166815E+00
          2   -1    0    0  501    0  0.00000000000E+00  0.00000000000E+00  0.88201029364E+02  0.88201029364E+02  0.00000000000E+00 0. -1.
         -2   -1    0    0    0  501 -0.00000000000E+00 -0.00000000000E+00 -0.43640407632E+03  0.43640407632E+03  0.00000000000E+00 0.  1.
         25    2    1    2    0    0  0.75461969568E+02  0.14320378958E+03 -0.20346487544E+03  0.28852515447E+03  0.12508786921E+03 0.  0.
          5    1    3    3  502    0  0.59634728230E+02  0.36988769609E+02 -0.15586798723E+03  0.17098763619E+03  0.41800000000E+01 0.  1.
         -5    1    3    3    0  502  0.15827241338E+02  0.10621501997E+03 -0.47596888217E+02  0.11753751828E+03  0.41800000000E+01 0.  1.
        -11    1    1    2    0    0 -0.61170676388E+02 -0.26429751872E+02 -0.70297259998E+02  0.96861180031E+02  0.00000000000E+00 0. -1.
         11    1    1    2    0    0 -0.14291293180E+02 -0.11677403770E+03 -0.74440911512E+02  0.13921877118E+03  0.00000000000E+00 0.  1.
</event>
<event>
 7    1  0.2841804E-009  0.2344454E+03  0.7561462E-02  0.1123549E+00
         -2   -1    0    0    0  501 -0.00000000000E+00  0.00000000000E+00  0.12430147189E+03  0.12430147189E+03  0.00000000000E+00 0.  1.
          2   -1    0    0  501    0  0.00000000000E+00 -0.00000000000E+00 -0.55258434719E+03  0.55258434719E+03  0.00000000000E+00 0. -1.
         25    2    1    2    0    0 -0.10218364781E+03  0.19845308156E+03 -0.11338152342E+03  0.27987579000E+03  0.12509981820E+03 0.  0.
          5    1    3    3  502    0 -0.19018002345E+02  0.87463288993E+02  0.14986398320E+02  0.90849193003E+02  0.41800000000E+01 0.  1.
         -5    1    3    3    0  502 -0.83165645462E+02  0.11098979257E+03 -0.12836792174E+03  0.18902659699E+03  0.41800000000E+01 0.  1.
        -11    1    1    2    0    0  0.53158954279E+02 -0.22235552240E+02 -0.59098907292E+02  0.82540747795E+02  0.00000000000E+00 0.  1.
         11    1    1    2    0    0  0.49024693528E+02 -0.17621752932E+03 -0.25580244459E+03  0.31446928129E+03  0.00000000000E+00 0. -1.
</event>
<event>
 7    1  0.2841804E-009  0.6728594E+02  0.7561462E-02  0.1369573E+00
         -2   -1    0    0    0  501 -0.00000000000E+00  0.00000000000E+00  0.41919763071E+02  0.41919763071E+02  0.00000000000E+00 0.  1.
          2   -1    0    0  501    0  0.00000000000E+00 -0.00000000000E+00 -0.34301811008E+03  0.34301811008E+03  0.00000000000E+00 0. -1.
         25    2    1    2    0    0 -0.27587807687E+02  0.12345571122E+02 -0.98769365523E+02  0.16223303332E+03  0.12510263496E+03 0.  0.
          5    1    3    3  502    0 -0.26567145480E+01  0.15870339793E+02 -0.12472632671E+03  0.12582946710E+03  0.41800000000E+01 0.  1.
         -5    1    3    3    0  502 -0.24931093139E+02 -0.35247686712E+01  0.25956961184E+02  0.36403566215E+02  0.41800000000E+01 0.  1.
        -11    1    1    2    0    0  0.42473201703E+02  0.27018460472E+02 -0.12304508221E+03  0.13294383147E+03  0.00000000000E+00 0.  1.
         11    1    1    2    0    0 -0.14885394016E+02 -0.39364031594E+02 -0.79283899275E+02  0.89761008365E+02  0.00000000000E+00 0. -1.
</event>
<event>
 7    1  0.2841804E-009  0.1144774E+03  0.7561462E-02  0.1252496E+00
          2   -1    0    0  501    0  0.00000000000E+00  0.00000000000E+00  0.11330201702E+04  0.11330201702E+04  0.00000000000E+00 0. -1.
         -2   -1    0    0    0  501 -0.00000000000E+00 -0.00000000000E+00 -0.13692393971E+02  0.13692393971E+02  0.00000000000E+00 0.  1.
         25    2    1    2    0    0  0.46349570890E+02 -0.39197942059E+02  0.66314819090E+03  0.67756755074E+03  0.12508997295E+03 0.  0.
          5    1    3    3  502    0  0.79579350270E+02  0.17417920643E+01  0.29257009632E+03  0.30323364010E+03  0.41800000000E+01 0. -1.
         -5    1    3    3    0  502 -0.33229779380E+02 -0.40939734123E+02  0.37057809458E+03  0.37433391064E+03  0.41800000000E+01 0. -1.
        -11    1    1    2    0    0 -0.64692939102E+02  0.42920090737E+02  0.43006058801E+03  0.43701192194E+03  0.00000000000E+00 0. -1.
         11    1    1    2    0    0  0.18343368212E+02 -0.37221486787E+01  0.26118997330E+02  0.32133091504E+02  0.00000000000E+00 0.  1.
</event>
<event>
 7    1  0.2841804E-009  0.2688919E+03  0.7561462E-02  0.1101915E+00
         -2   -1    0    0    0  501 -0.00000000000E+00  0.00000000000E+00  0.88128124203E+02  0.88128124203E+02  0.00000000000E+00 0.  1.
          2   -1    0    0  501    0  0.00000000000E+00 -0.00000000000E+00 -0.10212105792E+04  0.10212105792E+04  0.00000000000E+00 0. -1.
         25    2    1    2    0    0 -0.21208348834E+03  0.15572983902E+03 -0.30312913897E+03  0.42043780255E+03  0.12509789021E+03 0.  0.
          5    1    3    3  502    0 -0.11805784919E+03  0.95046761618E+02 -0.81534057235E+02  0.17215347089E+03  0.41800000000E+01 0. -1.
         -5    1    3    3    0  502 -0.94025639148E+02  0.60683077397E+02 -0.22159508174E+03  0.24828433166E+03  0.41800000000E+01 0. -1.
        -11    1    1    2    0    0  0.13453080888E+03 -0.51031415948E+02 -0.39262942595E+03  0.41816337725E+03  0.00000000000E+00 0.  1.
         11    1    1    2    0    0  0.77552679461E+02 -0.10469842307E+03 -0.23732389007E+03  0.27073752359E+03  0.00000000000E+00 0. -1.
</event>
<event>
 7    1  0.2841804E-009  0.1284086E+03  0.7561462E-02  0.1229836E+00
         -1   -1    0    0    0  501 -0.00000000000E+00  0.00000000000E+00  0.72231853187E+02  0.72231853187E+02  0.00000000000E+00 0.  1.
          1   -1    0    0  501    0  0.00000000000E+00 -0.00000000000E+00 -0.32891805476E+03  0.32891805476E+03  0.00000000000E+00 0. -1.
         25    2    1    2    0    0  0.96905390648E+02 -0.19620505535E+02 -0.78818698965E+02  0.17786039769E+03  0.12508523009E+03 0.  0.
          5    1    3    3  502    0 -0.10708469807E+02  0.72661664389E+01  0.23334539103E+02  0.27008176826E+02  0.41800000000E+01 0.  1.
         -5    1    3    3    0  502  0.10761386045E+03 -0.26886671974E+02 -0.10215323807E+03  0.15085222086E+03  0.41800000000E+01 0.  1.
        -11    1    1    2    0    0 -0.49179044282E+02 -0.34489008752E+02 -0.10354400922E+03  0.11970560541E+03  0.00000000000E+00 0. -1.
         11    1    1    2    0    0 -0.47726346365E+02  0.54109514287E+02 -0.74323493390E+02  0.10358390485E+03  0.00000000000E+00 0.  1.
</event>
<event>
 7    1  0.2841804E-009  0.6701094E+02  0.7561462E-02  0.1370563E+00
          2   -1    0    0  501    0  0.00000000000E+00  0.00000000000E+00  0.10595124738E+04  0.10595124738E+04  0.00000000000E+00 0. -1.
         -2   -1    0    0    0  501 -0.00000000000E+00 -0.00000000000E+00 -0.16469789545E+02  0.16469789545E+02  0.00000000000E+00 0.  1.
         25    2    1    2    0    0 -0.11980247680E+02 -0.23120644588E+02  0.85940258476E+03  0.86884891686E+03  0.12509015592E+03 0.  0.
          5    1    3    3  502    0  0.11237856279E+02 -0.66550226001E+01  0.60113516367E+01  0.14972891773E+02  0.41800000000E+01 0. -1.
         -5    1    3    3    0  502 -0.23218103958E+02 -0.16465621988E+02  0.85339123312E+03  0.85387602509E+03  0.41800000000E+01 0. -1.
        -11    1    1    2    0    0 -0.35060104448E+02 -0.69045132213E+01  0.43528903787E+02  0.56317392443E+02  0.00000000000E+00 0.  1.
         11    1    1    2    0    0  0.47040352128E+02  0.30025157809E+02  0.14011119575E+03  0.15081595408E+03  0.00000000000E+00 0. -1.
</event>
<event>
 7    1  0.2841804E-009  0.1076310E+03  0.7561462E-02  0.1265021E+00
          3   -1    0    0  501    0  0.00000000000E+00  0.00000000000E+00  0.29585944738E+03  0.29585944738E+03  0.00000000000E+00 0. -1.
         -3   -1    0    0    0  501 -0.00000000000E+00 -0.00000000000E+00 -0.54311368859E+02  0.54311368859E+02  0.00000000000E+00 0.  1.
         25    2    1    2    0    0 -0.58838431071E+02 -0.19987359002E+02  0.10887907177E+03  0.17709919555E+03  0.12509203532E+03 0.  0.
          5    1    3    3  502    0  0.91762304070E+01  0.38378518859E+02  0.52511628871E+01  0.40027003709E+02  0.41800000000E+01 0. -1.
         -5    1    3    3    0  502 -0.68014661478E+02 -0.58365877861E+02  0.10362790889E+03  0.13707219184E+03  0.41800000000E+01 0. -1.
        -11    1    1    2    0    0  0.59012623326E+02  0.36471812683E+02  0.13904956398E+03  0.15539454326E+03  0.00000000000E+00 0. -1.
         11    1    1    2    0    0 -0.17419225448E+00 -0.16484453681E+02 -0.63805572299E+01  0.17677077435E+02  0.00000000000E+00 0.  1.
</event>
<event>
 7    1  0.2841804E-009  0.1116308E+03  0.7561462E-02  0.1257579E+00
          1   -1    0    0  501    0  0.00000000000E+00  0.00000000000E+00  0.25193473634E+02  0.25193473634E+02  0.00000000000E+00 0. -1.
         -1   -1    0    0    0  501 -0.00000000000E+00 -0.00000000000E+00 -0.60094821149E+03  0.60094821149E+03  0.00000000000E+00 0.  1.
         25    2    1    2    0    0  0.17635014950E+02 -0.25523074405E+02 -0.45412010347E+03  0.47205348088E+03  0.12508796648E+03 0.  0.
          5    1    3    3  502    0 -0.35506626183E+02  0.33674435334E+02 -0.18244713032E+03  0.18894209658E+03  0.41800000000E+01 0.  1.
         -5    1    3    3    0  502  0.53141641133E+02 -0.59197509738E+02 -0.27167297315E+03  0.28311138430E+03  0.41800000000E+01 0.  1.
        -11    1    1    2    0    0 -0.30608187130E+02 -0.26736606070E+02 -0.55978618696E+02  0.69175956622E+02  0.00000000000E+00 0. -1.
         11    1    1    2    0    0  0.12973172180E+02  0.52259680474E+02 -0.65656015695E+02  0.84912247624E+02  0.00000000000E+00 0.  1.
</event>
<event>
 7    1  0.2841804E-009  0.1530398E+03  0.7561462E-02  0.1196787E+00
          1   -1    0    0  501    0  0.00000000000E+00  0.00000000000E+00  0.19897246887E+03  0.19897246887E+03  0.00000000000E+00 0. -1.
         -1   -1    0    0    0  501 -0.00000000000E+00 -0.00000000000E+00 -0.13999090302E+03  0.13999090302E+03  0.00000000000E+00 0.  1.
         25    2    1    2    0    0 -0.34605718143E+02  0.10846657724E+03  0.87088471913E+02  0.19024518462E+03  0.12508506795E+03 0.  0.
          5    1    3    3  502    0 -0.80861377025E+02  0.77089957031E+02  0.46701443990E+02  0.12116072400E+03  0.41800000000E+01 0.  1.
         -5    1    3    3    0  502  0.46255658882E+02  0.31376620212E+02  0.40387027923E+02  0.69084460619E+02  0.41800000000E+01 0.  1.
        -11    1    1    2    0    0  0.21862793224E+02 -0.11943424979E+03 -0.68442990549E+01  0.12161153802E+03  0.00000000000E+00 0. -1.
         11    1    1    2    0    0  0.12742924920E+02  0.10967672545E+02 -0.21262607015E+02  0.27106649252E+02  0.00000000000E+00 0.  1.
</event>
<event>
 7    1  0.2841804E-009  0.9130196E+02  0.7561462E-02  0.1299729E+00
         -1   -1    0    0    0  501 -0.00000000000E+00  0.00000000000E+00  0.33611048206E+02  0.33611048206E+02  0.00000000000E+00 0.  1.
          1   -1    0    0  501    0  0.00000000000E+00 -0.00000000000E+00 -0.50136226128E+03  0.50136226128E+03  0.00000000000E+00 0. -1.
         25    2    1    2    0    0  0.60051968834E+02 -0.42455966333E+00 -0.34298143240E+03  0.36998694408E+03  0.12509059358E+03 0.  0.
          5    1    3    3  502    0  0.15152028304E+02  0.19879885324E+02 -0.30887285395E+03  0.30991080347E+03  0.41800000000E+01 0.  1.
         -5    1    3    3    0  502  0.44899940530E+02 -0.20304444987E+02 -0.34108578452E+02  0.60076140604E+02  0.41800000000E+01 0.  1.
        -11    1    1    2    0    0 -0.80230809715E+02 -0.15972763273E+02 -0.98220982066E+02  0.12782594929E+03  0.00000000000E+00 0.  1.
         11    1    1    2    0    0  0.20178840882E+02  0.16397322936E+02 -0.26548798611E+02  0.37160416124E+02  0.00000000000E+00 0. -1.
</event>
<event>
 7    1  0.2841804E-009  0.1016931E+03  0.7561462E-02  0.1276775E+00
          3   -1    0    0  501    0  0.00000000000E+00  0.00000000000E+00  0.21753381889E+03  0.21753381889E+03  0.00000000000E+00 0. -1.
         -3   -1    0    0    0  501 -0.00000000000E+00 -0.00000000000E+00 -0.10013188778E+03  0.10013188778E+03  0.00000000000E+00 0.  1.
         25    2    1    2    0    0 -0.11683065932E+02  0.59519163532E+02  0.15205420394E+03  0.20602706508E+03  0.12509055021E+03 0.  0.
          5    1    3    3  502    0 -0.50358511028E+02  0.40644614728E+02  0.21219209852E+02  0.68232628603E+02  0.41800000000E+01 0.  1.
         -5    1    3    3    0  502  0.38675445096E+02  0.18874548804E+02  0.13083499409E+03  0.13779443648E+03  0.41800000000E+01 0.  1.
        -11    1    1    2    0    0  0.42974032998E+02 -0.37523907919E+02  0.40896754168E+01  0.57197348038E+02  0.00000000000E+00 0. -1.
         11    1    1    2    0    0 -0.31290967066E+02 -0.21995255614E+02 -0.38741948252E+02  0.54441293554E+02  0.00000000000E+00 0.  1.
</event>
<event>
 7    1  0.2841804E-009  0.4665015E+03  0.7561462E-02  0.1022912E+00
         -1   -1    0    0    0  501 -0.00000000000E+00  0.00000000000E+00  0.54404733576E+03  0.54404733576E+03  0.00000000000E+00 0.  1.
          1   -1    0    0  501    0  0.00000000000E+00 -0.00000000000E+00 -0.41651271976E+03  0.41651271976E+03  0.00000000000E+00 0. -1.
         25    2    1    2    0    0 -0.42840397288E+03  0.16991266649E+03  0.16309203629E+02  0.47782158550E+03  0.12508876542E+03 0.  0.
          5    1    3    3  502    0 -0.36973199694E+03  0.12685721708E+03 -0.29011512160E+02  0.39198678973E+03  0.41800000000E+01 0.  1.
         -5    1    3    3    0  502 -0.58671975935E+02  0.43055449416E+02  0.45320715789E+02  0.85834795766E+02  0.41800000000E+01 0.  1.
        -11    1    1    2    0    0  0.32988885426E+03 -0.88921608619E+02  0.70505394032E+02  0.34886203467E+03  0.00000000000E+00 0.  1.
         11    1    1    2    0    0  0.98515118615E+02 -0.80991057874E+02  0.40720018332E+02  0.13387643536E+03  0.00000000000E+00 0. -1.
</event>
<event>
 7    1  0.2841804E-009  0.1603427E+03  0.7561462E-02  0.1188310E+00
         -2   -1    0    0    0  501 -0.00000000000E+00  0.00000000000E+00  0.27686470373E+03  0.27686470373E+03  0.00000000000E+00 0.  1.
          2   -1    0    0  501    0  0.00000000000E+00 -0.00000000000E+00 -0.11801903749E+03  0.11801903749E+03  0.00000000000E+00 0. -1.
         25    2    1    2    0    0  0.33682089398E+01 -0.14077702873E+03  0.52505767450E+02  0.19553524314E+03  0.12509060335E+03 0.  0.
          5    1    3    3  502    0 -0.32945959729E+02 -0.91515207714E+00  0.37652904662E+02  0.50214414218E+02  0.41800000000E+01 0.  1.
         -5    1    3    3    0  502  0.36314168668E+02 -0.13986187665E+03  0.14852862789E+02  0.14532082893E+03  0.41800000000E+01 0.  1.
        -11    1    1    2    0    0  0.10417214309E+02  0.72871285686E+02  0.14356977461E+01  0.73626108545E+02  0.00000000000E+00 0. -1.
         11    1    1    2    0    0 -0.13785423249E+02  0.67905743043E+02  0.10490420104E+03  0.12572238953E+03  0.00000000000E+00 0.  1.
</event>
<event>
 6    1  0.2841804E-009  0.1488764E+03  0.7561462E-02  0.1201861E+00
          1   -1    0    0  501    0  0.00000000000E+00  0.00000000000E+00  0.21859170461E+03  0.21859170461E+03  0.00000000000E+00 0. -1.
         -1   -1    0    0    0  501 -0.00000000000E+00 -0.00000000000E+00 -0.12584786334E+03  0.12584786334E+03  0.00000000000E+00 0.  1.
          5    1    1    2  502    0 -0.11505750779E+03  0.85083180931E+02  0.23334757234E+02  0.14504951248E+03  0.41800000000E+01 0.  1.
         -5    1    1    2    0  502  0.75664570130E+01 -0.21390493129E+02  0.33341023318E+02  0.40545045368E+02  0.41800000000E+01 0.  1.
        -11    1    1    2    0    0  0.35938446474E+02 -0.32041170083E+00  0.50703866591E+02  0.62149470520E+02  0.00000000000E+00 0. -1.
         11    1    1    2    0    0  0.71552604302E+02 -0.63372276101E+02 -0.14635805880E+02  0.96695539578E+02  0.00000000000E+00 0.  1.
</event>
<event>
 7    1  0.2841804E-009  0.6077051E+02  0.7561462E-02  0.1394626E+00
          2   -1    0    0  501    0  0.00000000000E+00  0.00000000000E+00  0.70400429935E+03  0.70400429935E+03  0.00000000000E+00 0. -1.
         -2   -1    0    0    0  501 -0.00000000000E+00 -0.00000000000E+00 -0.20481764634E+02  0.20481764634E+02  0.00000000000E+00 0.  1.
         25    2    1    2    0    0  0.15450013498E+02 -0.51952577629E+02  0.39862139791E+03  0.42128903198E+03  0.12509059260E+03 0.  0.
          5    1    3    3  502    0  0.36539760381E+01 -0.42604828438E+02  0.40282738836E+03  0.40511220688E+03  0.41800000000E+01 0. -1.
         -5    1    3    3    0  502  0.11796037460E+02 -0.93477491905E+01 -0.42059904529E+01  0.16176825102E+02  0.41800000000E+01 0. -1.
        -11    1    1    2    0    0  0.97601785934E+01  0.97455399609E+01 -0.29372669939E+00  0.13795756981E+02  0.00000000000E+00 0.  1.
         11    1    1    2    0    0 -0.25210192092E+02  0.42207037668E+02  0.28519486351E+03  0.28940127503E+03  0.00000000000E+00 0. -1.
</event>
<event>
 7    1  0.2841804E-009  0.3779001E+03  0.7561462E-02  0.1051713E+00
          1   -1    0    0  501    0  0.00000000000E+00  0.00000000000E+00  0.10586035744E+04  0.10586035744E+04  0.00000000000E+00 0. -1.
         -1   -1    0    0    0  501 -0.00000000000E+00 -0.00000000000E+00 -0.17626725763E+03  0.17626725763E+03  0.00000000000E+00 0.  1.
         25    2    1    2    0    0 -0.32661732075E+03  0.15931608535E+03  0.14917295987E+03  0.41224674606E+03  0.12503726810E+03 0.  0.
          5    1    3    3  502    0 -0.26010143235E+03  0.63809543746E+02  0.10330698393E+03  0.28707876674E+03  0.41800000000E+01 0.  1.
         -5    1    3    3    0  502 -0.66515888404E+02  0.95506541602E+02  0.45865975942E+02  0.12516797932E+03  0.41800000000E+01 0.  1.
        -11    1    1    2    0    0  0.28529014720E+03 -0.16532284006E+03  0.67237805550E+03  0.74887539622E+03  0.00000000000E+00 0.  1.
         11    1    1    2    0    0  0.41327173548E+02  0.60067547136E+01  0.60785301384E+02  0.73748689751E+02  0.00000000000E+00 0. -1.
</event>
<event>
 7    1  0.2841804E-009  0.8331569E+02  0.7561462E-02  0.1319897E+00
         -2   -1    0    0    0  501 -0.00000000000E+00  0.00000000000E+00  0.63718441239E+02  0.63718441239E+02  0.00000000000E+00 0. -1.
          2   -1    0    0  501    0  0.00000000000E+00 -0.00000000000E+00 -0.22399814432E+03  0.22399814432E+03  0.00000000000E+00 0.  1.
         25    2    1    2    0    0  0.29078200271E+02  0.33391790304E+02 -0.10480547905E+03  0.16909428438E+03  0.12509250648E+03 0.  0.
          5    1    3    3  502    0  0.33632565852E+01 -0.29334834938E+02 -0.96095460989E+02  0.10061637073E+03  0.41800000000E+01 0.  1.
         -5    1    3    3    0  502  0.25714943686E+02  0.62726625241E+02 -0.87100180648E+01  0.68477913648E+02  0.41800000000E+01 0.  1.
        -11    1    1    2    0    0 -0.38580248039E+02 -0.49442976678E+01 -0.73836786854E+02  0.83455093979E+02  0.00000000000E+00 0.  1.
         11    1    1    2    0    0  0.95020477684E+01 -0.28447492636E+02  0.18362562826E+02  0.35167207205E+02  0.00000000000E+00 0. -1.
</event>
<event>
 7    1  0.2841804E-009  0.1058073E+03  0.7561462E-02  0.1268537E+00
          2   -1    0    0  501    0  0.00000000000E+00  0.00000000000E+00  0.17910219606E+04  0.17910219606E+04  0.00000000000E+00 0. -1.
         -2   -1    0    0    0  501 -0.00000000000E+00 -0.00000000000E+00 -0.92651532501E+01  0.92651532501E+01  0.00000000000E+00 0.  1.
         25    2    1    2    0    0  0.25305053938E+02  0.52482529142E+02  0.13823552441E+04  0.13892260789E+04  0.12509322885E+03 0.  0.
          5    1    3    3  502    0  0.25021196753E+02  0.83038315698E+02  0.59860894270E+03  0.60487317748E+03  0.41800000000E+01 0. -1.
         -5    1    3    3    0  502  0.28385718516E+00 -0.30555786557E+02  0.78374630138E+03  0.78435290143E+03  0.41800000000E+01 0. -1.
        -11    1    1    2    0    0 -0.28203584693E+02  0.11091390930E+02  0.83918613693E+02  0.89223286570E+02  0.00000000000E+00 0.  1.
         11    1    1    2    0    0  0.28985307545E+01 -0.63573920071E+02  0.31548294962E+03  0.32183774840E+03  0.00000000000E+00 0. -1.
</event>
<event>
 7    1  0.2841804E-009  0.1604092E+03  0.7561462E-02  0.1188236E+00
         -2   -1    0    0    0  501 -0.00000000000E+00  0.00000000000E+00  0.30911020300E+02  0.30911020300E+02  0.00000000000E+00 0.  1.
          2   -1    0    0  501    0  0.00000000000E+00 -0.00000000000E+00 -0.90997671071E+03  0.90997671071E+03  0.00000000000E+00 0. -1.
         25    2    1    2    0    0  0.12276273976E+03  0.23793084136E+02 -0.53908147346E+03  0.56735633005E+03  0.12509024381E+03 0.  0.
          5    1    3    3  502    0  0.71037800541E+02  0.69562303866E+02 -0.39755825739E+03  0.40982352744E+03  0.41800000000E+01 0.  1.
         -5    1    3    3    0  502  0.51724939215E+02 -0.45769219730E+02 -0.14152321606E+03  0.15753280261E+03  0.41800000000E+01 0.  1.
        -11    1    1    2    0    0  0.99981508241E+00 -0.28251651041E+02 -0.39924790626E+02  0.48919774358E+02  0.00000000000E+00 0.  1.
         11    1    1    2    0    0 -0.12376255484E+03  0.44585669043E+01 -0.30005942633E+03  0.32461162660E+03  0.00000000000E+00 0. -1.
</event>
<event>
 7    1  0.2841804E-009  0.9960611E+02  0.7561462E-02  0.1281126E+00
         -1   -1    0    0    0  501 -0.00000000000E+00  0.00000000000E+00  0.43441049759E+03  0.43441049759E+03  0.00000000000E+00 0.  1.
          1   -1    0    0  501    0  0.00000000000E+00 -0.00000000000E+00 -0.42698847422E+02  0.42698847422E+02  0.00000000000E+00 0. -1.
         25    2    1    2    0    0 -0.67204085828E+02 -0.21009805184E+02  0.14179677413E+03  0.20177155525E+03  0.12509050439E+03 0.  0.
          5    1    3    3  502    0 -0.43073008275E+02  0.22280078462E+02 -0.29048366064E+01  0.48760603091E+02  0.41800000000E+01 0. -1.
         -5    1    3    3    0  502 -0.24131077553E+02 -0.43289883646E+02  0.14470161074E+03  0.15301095216E+03  0.41800000000E+01 0. -1.
        -11    1    1    2    0    0 -0.77126259481E+01  0.24617529027E+02  0.17635726020E+02  0.31249418661E+02  0.00000000000E+00 0. -1.
         11    1    1    2    0    0  0.74916711776E+02 -0.36077238435E+01  0.23227915001E+03  0.24408837110E+03  0.00000000000E+00 0.  1.
</event>
<event>
 7    1  0.2841804E-009  0.2060677E+03  0.7561462E-02  0.1144718E+00
         -2   -1    0    0    0  501 -0.00000000000E+00  0.00000000000E+00  0.12812904845E+03  0.12812904845E+03  0.00000000000E+00 0. -1.
          2   -1    0    0  501    0  0.00000000000E+00 -0.00000000000E+00 -0.35506582526E+03  0.35506582526E+03  0.00000000000E+00 0.  1.
         25    2    1    2    0    0  0.10784280286E+03 -0.14728942382E+03 -0.10222888095E+03  0.24376789300E+03  0.12509115501E+03 0.  0.
          5    1    3    3  502    0 -0.12439753149E+02 -0.70315634791E+02 -0.63741801673E+02  0.95809841013E+02  0.41800000000E+01 0.  1.
         -5    1    3    3    0  502  0.12028255601E+03 -0.76973789033E+02 -0.38487079275E+02  0.14795805199E+03  0.41800000000E+01 0.  1.
        -11    1    1    2    0    0 -0.45505220616E+02  0.94717980656E+01 -0.54322602669E+01  0.46796896409E+02  0.00000000000E+00 0. -1.
         11    1    1    2    0    0 -0.62337582243E+02  0.13781762576E+03 -0.11927563560E+03  0.19263008430E+03  0.00000000000E+00 0.  1.
</event>
<event>
 7    1  0.2841804E-009  0.8402745E+02  0.7561462E-02  0.1317996E+00
         -2   -1    0    0    0  501 -0.00000000000E+00  0.00000000000E+00  0.20442976493E+03  0.20442976493E+03  0.00000000000E+00 0.  1.
          2   -1    0    0  501    0  0.00000000000E+00 -0.00000000000E+00 -0.87658168476E+02  0.87658168476E+02  0.00000000000E+00 0. -1.
         25    2    1    2    0    0  0.36373665710E+02 -0.43576787098E+02  0.12202033730E+03  0.18373218198E+03  0.12508625844E+03 0.  0.
          5    1    3    3  502    0  0.52675640156E+02 -0.13882438592E+02  0.13621741547E+03  0.14676546543E+03  0.41800000000E+01 0. -1.
         -5    1    3    3    0  502 -0.16301974446E+02 -0.29694348506E+02 -0.14197078169E+02  0.36966716551E+02  0.41800000000E+01 0. -1.
        -11    1    1    2    0    0  0.92466538158E+01 -0.66852521272E+01  0.29837991207E+02  0.31945248819E+02  0.00000000000E+00 0.  1.
         11    1    1    2    0    0 -0.45620319526E+02  0.50262039225E+02 -0.35086732058E+02  0.76410502597E+02  0.00000000000E+00 0. -1.
</event>
<event>
 7    1  0.2841804E-009  0.7848296E+02  0.7561462E-02  0.1333413E+00
          2   -1    0    0  501    0  0.00000000000E+00  0.00000000000E+00  0.23830493481E+03  0.23830493481E+03  0.00000000000E+00 0. -1.
         -2   -1    0    0    0  501 -0.00000000000E+00 -0.00000000000E+00 -0.64294199124E+02  0.64294199124E+02  0.00000000000E+00 0.  1.
         25    2    1    2    0    0  0.26748144193E+02  0.36072075511E+02  0.14119405239E+03  0.19391343032E+03  0.12509996075E+03 0.  0.
          5    1    3    3  502    0  0.16399058016E+02  0.60598574716E+02  0.15228733368E+03  0.16477263353E+03  0.41800000000E+01 0.  1.
         -5    1    3    3    0  502  0.10349086177E+02 -0.24526499205E+02 -0.11093281291E+02  0.29140796793E+02  0.41800000000E+01 0.  1.
        -11    1    1    2    0    0 -0.19668810928E+02  0.88909432069E+01 -0.26333662455E+02  0.34049563474E+02  0.00000000000E+00 0.  1.
         11    1    1    2    0    0 -0.70793332646E+01 -0.44963018718E+02  0.59150345749E+02  0.74636140133E+02  0.00000000000E+00 0. -1.
</event>
<event>
 7    1  0.2841804E-009  0.1273524E+03  0.7561462E-02  0.1231438E+00
          1   -1    0    0  501    0  0.00000000000E+00  0.00000000000E+00  0.70886747122E+03  0.70886747122E+03  0.00000000000E+00 0. -1.
         -1   -1    0    0    0  501 -0.00000000000E+00 -0.00000000000E+00 -0.25568649460E+02  0.25568649460E+02  0.00000000000E+00 0.  1.
         25    2    1    2    0    0 -0.27731040355E+02  0.72368642208E+02  0.32766206872E+03  0.35918760541E+03  0.12508826336E+03 0.  0.
          5    1    3    3  502    0  0.41296657893E+02  0.47173815040E+01  0.16244890316E+03  0.16773427253E+03  0.41800000000E+01 0.  1.
         -5    1    3    3    0  502 -0.69027698248E+02  0.67651260704E+02  0.16521316556E+03  0.19145333289E+03  0.41800000000E+01 0.  1.
        -11    1    1    2    0    0  0.22985283122E+02 -0.92598685577E+02  0.24999144647E+03  0.26757907825E+03  0.00000000000E+00 0.  1.
         11    1    1    2    0    0  0.47457572331E+01  0.20230043369E+02  0.10564530657E+03  0.10766943702E+03  0.00000000000E+00 0. -1.
</event>
<event>
 7    1  0.3447018E-009  0.1662653E+03  0.7561462E-02  0.1181799E+00
         -2   -1    0    0    0  501 -0.00000000000E+00  0.00000000000E+00  0.52434435322E+02  0.52434435322E+02  0.00000000000E+00 0.  1.
          2   -1    0    0  501    0  0.00000000000E+00 -0.00000000000E+00 -0.66580992978E+03  0.66580992978E+03  0.00000000000E+00 0. -1.
         25    2    1    2    0    0  0.42429381678E+02  0.14544519075E+03 -0.33327986062E+03  0.38688133539E+03  0.12508855357E+03 0.  0.
          5    1    3    3  502    0  0.71882262696E+02  0.72958815507E+02 -0.26049625171E+03  0.27993895407E+03  0.41800000000E+01 0. -1.
         -5    1    3    3    0  502 -0.29452881018E+02  0.72486375241E+02 -0.72783608910E+02  0.10694238132E+03  0.41800000000E+01 0. -1.
        -11    1    1    2    0    0 -0.10138920554E+02 -0.46421089809E+02 -0.18265358529E+03  0.18873274096E+03  0.00000000000E+00 0. -1.
         11    1    1    2    0    0 -0.32290461123E+02 -0.99024100938E+02 -0.97442048542E+02  0.14263028876E+03  0.00000000000E+00 0.  1.
</event>
<event>
 7    1  0.2841804E-009  0.1084530E+03  0.7561462E-02  0.1263462E+00
          4   -1    0    0  501    0  0.00000000000E+00  0.00000000000E+00  0.17197057980E+03  0.17197057980E+03  0.00000000000E+00 0. -1.
         -4   -1    0    0    0  501 -0.00000000000E+00 -0.00000000000E+00 -0.15681698818E+03  0.15681698818E+03  0.00000000000E+00 0.  1.
         25    2    1    2    0    0 -0.72538313903E+02 -0.79995991013E+02 -0.73983128090E+02  0.18106021159E+03  0.12509249145E+03 0.  0.
          5    1    3    3  502    0 -0.30176055178E+02 -0.28369222697E+02  0.34187091891E+02  0.53866842812E+02  0.41800000000E+01 0. -1.
         -5    1    3    3    0  502 -0.42362258725E+02 -0.51626768316E+02 -0.10817021998E+03  0.12719336878E+03  0.41800000000E+01 0. -1.
        -11    1    1    2    0    0  0.14134376888E+02  0.21296462358E+02 -0.67422608345E+00  0.25569014447E+02  0.00000000000E+00 0.  1.
         11    1    1    2    0    0  0.58403937015E+02  0.58699528655E+02  0.89810945787E+02  0.12215834194E+03  0.00000000000E+00 0. -1.
</event>
<event>
 7    1  0.2841804E-009  0.1241315E+03  0.7561462E-02  0.1236433E+00
         -1   -1    0    0    0  501 -0.00000000000E+00  0.00000000000E+00  0.59661711070E+02  0.59661711070E+02  0.00000000000E+00 0.  1.
          1   -1    0    0  501    0  0.00000000000E+00 -0.00000000000E+00 -0.36687280828E+03  0.36687280828E+03  0.00000000000E+00 0. -1.
         25    2    1    2    0    0 -0.73075013736E+02  0.66019930230E+02 -0.13850786868E+03  0.21102243139E+03  0.12508975993E+03 0.  0.
          5    1    3    3  502    0 -0.89842082039E+02  0.34200640475E+02 -0.14521130232E+03  0.17419838758E+03  0.41800000000E+01 0.  1.
         -5    1    3    3    0  502  0.16767068302E+02  0.31819289754E+02  0.67034336324E+01  0.36824043808E+02  0.41800000000E+01 0.  1.
        -11    1    1    2    0    0 -0.53686843766E+01 -0.28274015008E+02 -0.37832790513E+01  0.29026813414E+02  0.00000000000E+00 0.  1.
         11    1    1    2    0    0  0.78443698113E+02 -0.37745915222E+02 -0.16491994948E+03  0.18648527455E+03  0.00000000000E+00 0. -1.
</event>
<event>
 7    1  0.2841804E-009  0.1800182E+03  0.7561462E-02  0.1167785E+00
          1   -1    0    0  501    0  0.00000000000E+00  0.00000000000E+00  0.10194821414E+04  0.10194821414E+04  0.00000000000E+00 0. -1.
         -1   -1    0    0    0  501 -0.00000000000E+00 -0.00000000000E+00 -0.45269120598E+02  0.45269120598E+02  0.00000000000E+00 0.  1.
         25    2    1    2    0    0 -0.15374527170E+03 -0.17001556788E+02  0.28299537693E+03  0.34591763183E+03  0.12508382449E+03 0.  0.
          5    1    3    3  502    0 -0.23808736047E+02 -0.42027317174E+02  0.15251148531E+03  0.16003242438E+03  0.41800000000E+01 0.  1.
         -5    1    3    3    0  502 -0.12993653565E+03  0.25025760387E+02  0.13048389162E+03  0.18588520746E+03  0.41800000000E+01 0.  1.
        -11    1    1    2    0    0  0.15587893510E+03  0.36051471484E+02  0.67506782497E+03  0.69376834701E+03  0.00000000000E+00 0. -1.
         11    1    1    2    0    0 -0.21336634063E+01 -0.19049914697E+02  0.16149818944E+02  0.25065283190E+02  0.00000000000E+00 0.  1.
</event>
<event>
 7    1  0.2841804E-009  0.2102431E+03  0.7561462E-02  0.1141374E+00
         -3   -1    0    0    0  501 -0.00000000000E+00  0.00000000000E+00  0.10132515750E+03  0.10132515750E+03  0.00000000000E+00 0.  1.
          3   -1    0    0  501    0  0.00000000000E+00 -0.00000000000E+00 -0.55042532019E+03  0.55042532019E+03  0.00000000000E+00 0. -1.
         25    2    1    2    0    0  0.31342833813E+02  0.20640224388E+03 -0.26163584799E+03  0.35733034240E+03  0.12508955647E+03 0.  0.
          5    1    3    3  502    0  0.84854755080E+01  0.84205957345E+02 -0.22330145927E+02  0.87628502008E+02  0.41800000000E+01 0.  1.
         -5    1    3    3    0  502  0.22857358305E+02  0.12219628653E+03 -0.23930570207E+03  0.26970184039E+03  0.41800000000E+01 0.  1.
        -11    1    1    2    0    0 -0.83318723393E+01 -0.15286310497E+03 -0.81361270874E+02  0.17336725572E+03  0.00000000000E+00 0.  1.
         11    1    1    2    0    0 -0.23010961474E+02 -0.53539138903E+02 -0.10610304383E+03  0.12105287957E+03  0.00000000000E+00 0. -1.
</event>
<event>
 7    1  0.2841804E-009  0.2777873E+03  0.7561462E-02  0.1096904E+00
          2   -1    0    0  501    0  0.00000000000E+00  0.00000000000E+00  0.15753107361E+04  0.15753107361E+04  0.00000000000E+00 0.  1.
         -2   -1    0    0    0  501 -0.00000000000E+00 -0.00000000000E+00 -0.61093715239E+02  0.61093715239E+02  0.00000000000E+00 0. -1.
         25    2    1    2    0    0 -0.25372236299E+03 -0.63269412638E+02  0.11037759961E+04  0.11412039176E+04  0.12508747283E+03 0.  0.
          5    1    3    3  502    0 -0.17087899585E+03  0.81242910902E+01  0.52542075648E+03  0.55258490666E+03  0.41800000000E+01 0. -1.
         -5    1    3    3    0  502 -0.82843367139E+02 -0.71393703728E+02  0.57835523964E+03  0.58861901093E+03  0.41800000000E+01 0. -1.
        -11    1    1    2    0    0  0.24170287704E+02 -0.19433288450E+02  0.67856431553E+02  0.74607980879E+02  0.00000000000E+00 0.  1.
         11    1    1    2    0    0  0.22955207529E+03  0.82702701088E+02  0.34258459316E+03  0.42059255284E+03  0.00000000000E+00 0. -1.
</event>
<event>
 6    1  0.2975289E-009  0.1140600E+03  0.7561462E-02  0.1253231E+00
          4   -1    0    0  501    0  0.00000000000E+00  0.00000000000E+00  0.79869433105E+03  0.79869433105E+03  0.00000000000E+00 0. -1.
         -4   -1    0    0    0  501 -0.00000000000E+00 -0.00000000000E+00 -0.23419652688E+02  0.23419652688E+02  0.00000000000E+00 0.  1.
          5    1    1    2  502    0 -0.56923833375E+02 -0.65580201212E+02  0.11638011695E+03  0.14526833660E+03  0.41800000000E+01 0.  1.
         -5    1    1    2    0  502 -0.73781750387E+01  0.18152059065E+02  0.23840116994E+03  0.23924156190E+03  0.41800000000E+01 0.  1.
        -11    1    1    2    0    0  0.27378177638E+02  0.71840524531E+02  0.27127531077E+03  0.28195907470E+03  0.00000000000E+00 0.  1.
         11    1    1    2    0    0  0.36923830776E+02 -0.24412382384E+02  0.14921808071E+03  0.15564501053E+03  0.00000000000E+00 0. -1.
</event>
<event>
 7    1  0.2841804E-009  0.6495593E+02  0.7561462E-02  0.1378137E+00
          1   -1    0    0  501    0  0.00000000000E+00  0.00000000000E+00  0.22852782490E+02  0.22852782490E+02  0.00000000000E+00 0. -1.
         -1   -1    0    0    0  501 -0.00000000000E+00 -0.00000000000E+00 -0.63058752397E+03  0.63058752397E+03  0.00000000000E+00 0.  1.
         25    2    1    2    0    0  0.33047388848E+02 -0.29471031065E+02 -0.40628215928E+03  0.42740401753E+03  0.12509328387E+03 0.  0.
          5    1    3    3  502    0  0.25260224800E+02 -0.10887054327E+02 -0.40586883194E+03  0.40682132201E+03  0.41800000000E+01 0. -1.
         -5    1    3    3    0  502  0.77871640484E+01 -0.18583976737E+02 -0.41332734801E+00  0.20582695518E+02  0.41800000000E+01 0. -1.
        -11    1    1    2    0    0 -0.25238410704E+02  0.51927271020E+02 -0.19192831008E+03  0.20042428760E+03  0.00000000000E+00 0.  1.
         11    1    1    2    0    0 -0.78089781444E+01 -0.22456239955E+02 -0.95242721177E+01  0.25612001327E+02  0.00000000000E+00 0. -1.
</event>
<event>
 7    1  0.2841804E-009  0.1121846E+03  0.7561462E-02  0.1256577E+00
          2   -1    0    0  501    0  0.00000000000E+00  0.00000000000E+00  0.80620503656E+03  0.80620503656E+03  0.00000000000E+00 0. -1.
         -2   -1    0    0    0  501 -0.00000000000E+00 -0.00000000000E+00 -0.18654809965E+02  0.18654809965E+02  0.00000000000E+00 0.  1.
         25    2    1    2    0    0  0.10599459214E+02  0.36348993555E+02  0.32199794723E+03  0.34750974712E+03  0.12508696357E+03 0.  0.
          5    1    3    3  502    0  0.48122052063E+02 -0.20269046138E+02  0.76224775893E+02  0.92489215512E+02  0.41800000000E+01 0. -1.
         -5    1    3    3    0  502 -0.37522592849E+02  0.56618039694E+02  0.24577317134E+03  0.25502053161E+03  0.41800000000E+01 0. -1.
        -11    1    1    2    0    0 -0.17035380045E+02  0.31483563055E+02  0.20108571516E+03  0.20424711444E+03  0.00000000000E+00 0. -1.
         11    1    1    2    0    0  0.64359208308E+01 -0.67832556610E+02  0.26446656420E+03  0.27310298496E+03  0.00000000000E+00 0.  1.
</event>
<event>
 6    1  0.2841804E-009  0.1132458E+03  0.7561462E-02  0.1254675E+00
         -1   -1    0    0    0  501 -0.00000000000E+00  0.00000000000E+00  0.17765672857E+03  0.17765672857E+03  0.00000000000E+00 0.  1.
          1   -1    0    0  501    0  0.00000000000E+00 -0.00000000000E+00 -0.92029174115E+02  0.92029174115E+02  0.00000000000E+00 0. -1.
          5    1    1    2  502    0  0.40481715896E+02  0.83381951441E+02 -0.19760283629E+01  0.92804613226E+02  0.41800000000E+01 0.  1.
         -5    1    1    2    0  502  0.68358228056E+01 -0.41060802615E+02  0.26864335113E+02  0.49718033809E+02  0.41800000000E+01 0.  1.
        -11    1    1    2    0    0 -0.31343673563E+02 -0.60216138674E+02  0.73449769954E+02  0.10001638833E+03  0.00000000000E+00 0.  1.
         11    1    1    2    0    0 -0.15973865139E+02  0.17894989849E+02 -0.12710522248E+02  0.27146867315E+02  0.00000000000E+00 0. -1.
</event>
<event>
 7    1  0.2841804E-009  0.1453941E+03  0.7561462E-02  0.1206250E+00
          2   -1    0    0  501    0  0.00000000000E+00  0.00000000000E+00  0.49677604708E+03  0.49677604708E+03  0.00000000000E+00 0. -1.
         -2   -1    0    0    0  501 -0.00000000000E+00 -0.00000000000E+00 -0.49698646708E+02  0.49698646708E+02  0.00000000000E+00 0.  1.
         25    2    1    2    0    0  0.10005537720E+03  0.18833739561E+02  0.32678242431E+03  0.36441644647E+03  0.12508719106E+03 0.  0.
          5    1    3    3  502    0  0.11058860478E+03  0.54815859131E+02  0.25447656096E+03  0.28286111503E+03  0.41800000000E+01 0. -1.
         -5    1    3    3    0  502 -0.10533227570E+02 -0.35982119570E+02  0.72305863349E+02  0.81555331441E+02  0.41800000000E+01 0. -1.
        -11    1    1    2    0    0 -0.11386598750E+03 -0.13122908974E+02  0.81945733919E+02  0.14089988345E+03  0.00000000000E+00 0.  1.
         11    1    1    2    0    0  0.13810610297E+02 -0.57108305869E+01  0.38349242141E+02  0.41158363859E+02  0.00000000000E+00 0. -1.
</event>
<event>
 7    1  0.2841804E-009  0.8667907E+02  0.7561462E-02  0.1311099E+00
         -1   -1    0    0    0  501 -0.00000000000E+00  0.00000000000E+00  0.30616162830E+02  0.30616162830E+02  0.00000000000E+00 0.  1.
          1   -1    0    0  501    0  0.00000000000E+00 -0.00000000000E+00 -0.50366645226E+03  0.50366645226E+03  0.00000000000E+00 0. -1.
         25    2    1    2    0    0 -0.29606940803E+02 -0.43597911955E+01 -0.37552832325E+03  0.39694298998E+03  0.12508651811E+03 0.  0.
          5    1    3    3  502    0  0.38779937291E+02  0.30064877956E+02 -0.18803162942E+03  0.19437372889E+03  0.41800000000E+01 0.  1.
         -5    1    3    3    0  502 -0.68386878094E+02 -0.34424669151E+02 -0.18749669383E+03  0.20256926109E+03  0.41800000000E+01 0.  1.
        -11    1    1    2    0    0  0.13422652623E+02 -0.16348192363E+02  0.12264599263E+02  0.24450999817E+02  0.00000000000E+00 0.  1.
         11    1    1    2    0    0  0.16184288181E+02  0.20707983559E+02 -0.10978656544E+03  0.11288862529E+03  0.00000000000E+00 0. -1.
</event>
<event>
 7    1  0.2841804E-009  0.1501073E+03  0.7561462E-02  0.1200341E+00
          2   -1    0    0  501    0  0.00000000000E+00  0.00000000000E+00  0.59910959742E+03  0.59910959742E+03  0.00000000000E+00 0. -1.
         -2   -1    0    0    0  501 -0.00000000000E+00 -0.00000000000E+00 -0.55042267955E+02  0.55042267955E+02  0.00000000000E+00 0.  1.
         25    2    1    2    0    0  0.43710155658E+02 -0.94544235008E+02  0.10541745356E+03  0.19393055646E+03  0.12508809349E+03 0.  0.
          5    1    3    3  502    0 -0.43815394725E+02 -0.26720184017E+02  0.26635226531E+02  0.57971240638E+02  0.41800000000E+01 0. -1.
         -5    1    3    3    0  502  0.87525550383E+02 -0.67824050991E+02  0.78782227032E+02  0.13595931582E+03  0.41800000000E+01 0. -1.
        -11    1    1    2    0    0 -0.71571029387E+02  0.76301059400E+02  0.35783201788E+03  0.37281096676E+03  0.00000000000E+00 0. -1.
         11    1    1    2    0    0  0.27860873728E+02  0.18243175608E+02  0.80817858018E+02  0.87410342156E+02  0.00000000000E+00 0.  1.
</event>
<event>
 7    1  0.2841804E-009  0.1570018E+03  0.7561462E-02  0.1192124E+00
          2   -1    0    0  501    0  0.00000000000E+00  0.00000000000E+00  0.50954798890E+03  0.50954798890E+03  0.00000000000E+00 0. -1.
         -2   -1    0    0    0  501 -0.00000000000E+00 -0.00000000000E+00 -0.70359753244E+02  0.70359753244E+02  0.00000000000E+00 0.  1.
         25    2    1    2    0    0  0.69412867022E+02  0.97596755526E+02  0.79831707669E+02  0.19069274489E+03  0.12508936249E+03 0.  0.
          5    1    3    3  502    0  0.41652047543E+02 -0.20909301846E+02  0.42764907356E+02  0.63390864243E+02  0.41800000000E+01 0.  1.
         -5    1    3    3    0  502  0.27760819478E+02  0.11850605737E+03  0.37066800312E+02  0.12730188065E+03  0.41800000000E+01 0.  1.
        -11    1    1    2    0    0  0.63871414393E+01 -0.60855467351E+02  0.19734197014E+03  0.20661083385E+03  0.00000000000E+00 0. -1.
         11    1    1    2    0    0 -0.75800008461E+02 -0.36741288175E+02  0.16201455784E+03  0.18260416340E+03  0.00000000000E+00 0.  1.
</event>
<event>
 7    1  0.2841804E-009  0.8007099E+02  0.7561462E-02  0.1328850E+00
         -2   -1    0    0    0  501 -0.00000000000E+00  0.00000000000E+00  0.94703430630E+02  0.94703430630E+02  0.00000000000E+00 0.  1.
          2   -1    0    0  501    0  0.00000000000E+00 -0.00000000000E+00 -0.27540072548E+03  0.27540072548E+03  0.00000000000E+00 0. -1.
         25    2    1    2    0    0 -0.23520313947E+01  0.35207427749E+02  0.33677992464E+02  0.13426268343E+03  0.12508863243E+03 0.  0.
          5    1    3    3  502    0 -0.12032591118E+02  0.45578847849E+02 -0.38237301166E+02  0.60842240432E+02  0.41800000000E+01 0.  1.
         -5    1    3    3    0  502  0.96805597235E+01 -0.10371420100E+02  0.71915293631E+02  0.73420442994E+02  0.41800000000E+01 0.  1.
        -11    1    1    2    0    0 -0.41379083661E+02  0.78779602059E+00 -0.81795065402E+02  0.91669416445E+02  0.00000000000E+00 0. -1.
         11    1    1    2    0    0  0.43731115056E+02 -0.35995223769E+02 -0.13258022191E+03  0.14417205624E+03  0.00000000000E+00 0.  1.
</event>
<event>
 7    1  0.2841804E-009  0.1022747E+03  0.7561462E-02  0.1275584E+00
          4   -1    0    0  501    0  0.00000000000E+00  0.00000000000E+00  0.23515948115E+03  0.23515948115E+03  0.00000000000E+00 0. -1.
         -4   -1    0    0    0  501 -0.00000000000E+00 -0.00000000000E+00 -0.46036856067E+02  0.46036856067E+02  0.00000000000E+00 0.  1.
         25    2    1    2    0    0 -0.18693246643E+02  0.10573919102E+02  0.11339848875E+03  0.17020084049E+03  0.12509142104E+03 0.  0.
          5    1    3    3  502    0 -0.67502643232E+02  0.29818362543E+02  0.72627660070E+02  0.10362427802E+03  0.41800000000E+01 0.  1.
         -5    1    3    3    0  502  0.48809396589E+02 -0.19244443442E+02  0.40770828678E+02  0.66576562466E+02  0.41800000000E+01 0.  1.
        -11    1    1    2    0    0  0.45585452298E+02 -0.19622985380E+02  0.62171259682E+02  0.79550993375E+02  0.00000000000E+00 0. -1.
         11    1    1    2    0    0 -0.26892205655E+02  0.90490662789E+01  0.13552876649E+02  0.31444503350E+02  0.00000000000E+00 0.  1.
</event>
<event>
 7    1  0.2841804E-009  0.1090616E+03  0.7561462E-02  0.1262318E+00
         -1   -1    0    0    0  501 -0.00000000000E+00  0.00000000000E+00  0.72861010568E+02  0.72861010568E+02  0.00000000000E+00 0.  1.
          1   -1    0    0  501    0  0.00000000000E+00 -0.00000000000E+00 -0.17173750329E+03  0.17173750329E+03  0.00000000000E+00 0. -1.
         25    2    1    2    0    0 -0.18173993088E+02  0.22166337852E+02 -0.51785471403E+02  0.13838969701E+03  0.12509329571E+03 0.  0.
          5    1    3    3  502    0 -0.64941076313E+02  0.35620754093E+02 -0.50096952299E+02  0.89517364486E+02  0.41800000000E+01 0. -1.
         -5    1    3    3    0  502  0.46767083225E+02 -0.13454416241E+02 -0.16885191036E+01  0.48872332526E+02  0.41800000000E+01 0. -1.
        -11    1    1    2    0    0 -0.14449168708E+02 -0.50101870933E+02 -0.28300119626E+02  0.59328515220E+02  0.00000000000E+00 0.  1.
         11    1    1    2    0    0  0.32623161797E+02  0.27935533081E+02 -0.18790901696E+02  0.46880301627E+02  0.00000000000E+00 0. -1.
</event>
<event>
 7    1  0.2841804E-009  0.1099030E+03  0.7561462E-02  0.1260750E+00
          1   -1    0    0  501    0  0.00000000000E+00  0.00000000000E+00  0.16350935359E+03  0.16350935359E+03  0.00000000000E+00 0. -1.
         -1   -1    0    0    0  501 -0.00000000000E+00 -0.00000000000E+00 -0.11883873569E+03  0.11883873569E+03  0.00000000000E+00 0.  1.
         25    2    1    2    0    0 -0.68030600361E+02 -0.19170335705E+02  0.75420320876E+02  0.16222482917E+03  0.12503202007E+03 0.  0.
          5    1    3    3  502    0  0.31232863291E+02  0.16871013345E+02  0.31969863108E+02  0.47954847386E+02  0.41800000000E+01 0. -1.
         -5    1    3    3    0  502 -0.99263463652E+02 -0.36041349050E+02  0.43450457768E+02  0.11426998179E+03  0.41800000000E+01 0. -1.
        -11    1    1    2    0    0  0.49826601653E+02 -0.27254497023E+01 -0.60845933111E+02  0.78691460049E+02  0.00000000000E+00 0.  1.
         11    1    1    2    0    0  0.18203998708E+02  0.21895785407E+02  0.30096230137E+02  0.41431800058E+02  0.00000000000E+00 0. -1.
</event>
<event>
 7    1  0.2841804E-009  0.1235637E+03  0.7561462E-02  0.1237331E+00
         -3   -1    0    0    0  501 -0.00000000000E+00  0.00000000000E+00  0.41584086325E+02  0.41584086325E+02  0.00000000000E+00 0.  1.
          3   -1    0    0  501    0  0.00000000000E+00 -0.00000000000E+00 -0.61053054616E+03  0.61053054616E+03  0.00000000000E+00 0. -1.
         25    2    1    2    0    0  0.10211749081E+03  0.38900164309E+02 -0.37012001473E+03  0.40568261819E+03  0.12509339185E+03 0.  0.
          5    1    3    3  502    0  0.64713364765E+02  0.57684339931E+01 -0.34210528833E+03  0.34824502167E+03  0.41800000000E+01 0. -1.
         -5    1    3    3    0  502  0.37404126048E+02  0.33131730316E+02 -0.28014726394E+02  0.57437596521E+02  0.41800000000E+01 0. -1.
        -11    1    1    2    0    0 -0.27123084409E+02  0.22276717926E+02 -0.10854374466E+03  0.11407742272E+03  0.00000000000E+00 0. -1.
         11    1    1    2    0    0 -0.74994406404E+02 -0.61176882234E+02 -0.90282700450E+02  0.13235459158E+03  0.00000000000E+00 0.  1.
</event>
<event>
 7    1  0.2841804E-009  0.1219440E+03  0.7561462E-02  0.1239924E+00
         -2   -1    0    0    0  501 -0.00000000000E+00  0.00000000000E+00  0.58083155885E+02  0.58083155885E+02  0.00000000000E+00 0. -1.
          2   -1    0    0  501    0  0.00000000000E+00 -0.00000000000E+00 -0.34077790358E+03  0.34077790358E+03  0.00000000000E+00 0.  1.
         25    2    1    2    0    0 -0.84551881151E+02  0.82882599207E+01 -0.11758980441E+03  0.19155109070E+03  0.12508693932E+03 0.  0.
          5    1    3    3  502    0 -0.10305110345E+03  0.30310467064E+02 -0.51178226714E+02  0.11905854705E+03  0.41800000000E+01 0. -1.
         -5    1    3    3    0  502  0.18499222296E+02 -0.22022207143E+02 -0.66411577696E+02  0.72492543652E+02  0.41800000000E+01 0. -1.
        -11    1    1    2    0    0  0.80436592027E+02  0.16574229819E+02 -0.16237392046E+03  0.18196164562E+03  0.00000000000E+00 0.  1.
         11    1    1    2    0    0  0.41152891242E+01 -0.24862489740E+02 -0.27310228243E+01  0.25348323146E+02  0.00000000000E+00 0. -1.
</event>
<event>
 7    1  0.2841804E-009  0.1721469E+03  0.7561462E-02  0.1175627E+00
         -1   -1    0    0    0  501 -0.00000000000E+00  0.00000000000E+00  0.32568661941E+03  0.32568661941E+03  0.00000000000E+00 0.  1.
          1   -1    0    0  501    0  0.00000000000E+00 -0.00000000000E+00 -0.12196261577E+03  0.12196261577E+03  0.00000000000E+00 0. -1.
         25    2    1    2    0    0  0.78065964981E+02  0.11257312616E+03  0.21168962751E+03  0.28147340281E+03  0.12509106472E+03 0.  0.
          5    1    3    3  502    0 -0.21982440521E+02 -0.62220300876E+01  0.65378752669E+01  0.24127941534E+02  0.41800000000E+01 0.  1.
         -5    1    3    3    0  502  0.10004840550E+03  0.11879515624E+03  0.20515175224E+03  0.25734546127E+03  0.41800000000E+01 0.  1.
        -11    1    1    2    0    0 -0.99170473794E+02 -0.10134521361E+03 -0.10233449181E+02  0.14216314106E+03  0.00000000000E+00 0. -1.
         11    1    1    2    0    0  0.21104508813E+02 -0.11227912549E+02  0.22678253151E+01  0.24012691313E+02  0.00000000000E+00 0.  1.
</event>
<event>
 7    1  0.2841804E-009  0.9554242E+02  0.7561462E-02  0.1289959E+00
          1   -1    0    0  501    0  0.00000000000E+00  0.00000000000E+00  0.93351811946E+03  0.93351811946E+03  0.00000000000E+00 0. -1.
         -1   -1    0    0    0  501 -0.00000000000E+00 -0.00000000000E+00 -0.24176131592E+02  0.24176131592E+02  0.00000000000E+00 0.  1.
         25    2    1    2    0    0  0.24563418832E+02 -0.15977485111E+01  0.81045224886E+03  0.82041825586E+03  0.12508937816E+03 0.  0.
          5    1    3    3  502    0  0.54110900295E+02  0.45715905197E+02  0.41363321634E+03  0.41967587920E+03  0.41800000000E+01 0. -1.
         -5    1    3    3    0  502 -0.29547481463E+02 -0.47313653708E+02  0.39681903252E+03  0.40074237667E+03  0.41800000000E+01 0. -1.
        -11    1    1    2    0    0 -0.41913793601E+02  0.12446658807E+02  0.84267341649E+01  0.44527466335E+02  0.00000000000E+00 0.  1.
         11    1    1    2    0    0  0.17350374769E+02 -0.10848910296E+02  0.90463004847E+02  0.92748528857E+02  0.00000000000E+00 0. -1.
</event>
<event>
 7    1  0.2841804E-009  0.9476293E+02  0.7561462E-02  0.1291711E+00
         -1   -1    0    0    0  501 -0.00000000000E+00  0.00000000000E+00  0.13449387786E+02  0.13449387786E+02  0.00000000000E+00 0.  1.
          1   -1    0    0  501    0  0.00000000000E+00 -0.00000000000E+00 -0.11281480016E+04  0.11281480016E+04  0.00000000000E+00 0. -1.
         25    2    1    2    0    0  0.25838406091E+01  0.54679660320E+02 -0.73769391277E+03  0.75022434713E+03  0.12509084941E+03 0.  0.
          5    1    3    3  502    0 -0.31536247724E+02  0.54725001022E+01 -0.47528325162E+02  0.57453435673E+02  0.41800000000E+01 0.  1.
         -5    1    3    3    0  502  0.34120088333E+02  0.49207160218E+02 -0.69016558761E+03  0.69277091146E+03  0.41800000000E+01 0.  1.
        -11    1    1    2    0    0  0.18361830750E+02  0.15471027742E+02 -0.41249183493E+02  0.47728447143E+02  0.00000000000E+00 0.  1.
         11    1    1    2    0    0 -0.20945671359E+02 -0.70150688062E+02 -0.33575551760E+03  0.34364459516E+03  0.00000000000E+00 0. -1.
</event>
<event>
 7    1  0.2841804E-009  0.1252450E+03  0.7561462E-02  0.1234687E+00
         -2   -1    0    0    0  501 -0.00000000000E+00  0.00000000000E+00  0.33920778556E+02  0.33920778556E+02  0.00000000000E+00 0.  1.
          2   -1    0    0  501    0  0.00000000000E+00 -0.00000000000E+00 -0.67476192687E+03  0.67476192687E+03  0.00000000000E+00 0. -1.
         25    2    1    2    0    0 -0.48136962596E+02 -0.84236685923E+02 -0.25353312997E+03  0.29889756564E+03  0.12509084830E+03 0.  0.
          5    1    3    3  502    0  0.16839930126E+02  0.20502285353E+02 -0.16018185349E+02  0.31272697568E+02  0.41800000000E+01 0.  1.
         -5    1    3    3    0  502 -0.64976892722E+02 -0.10473897128E+03 -0.23751494462E+03  0.26762486807E+03  0.41800000000E+01 0.  1.
        -11    1    1    2    0    0  0.16840831815E+02  0.96329547301E+01 -0.64741977647E+01  0.20452937925E+02  0.00000000000E+00 0.  1.
         11    1    1    2    0    0  0.31296130781E+02  0.74603731193E+02 -0.38083382058E+03  0.38933220186E+03  0.00000000000E+00 0. -1.
</event>
<event>
 7    1  0.2841804E-009  0.1097959E+03  0.7561462E-02  0.1260948E+00
         -1   -1    0    0    0  501 -0.00000000000E+00  0.00000000000E+00  0.49868585318E+02  0.49868585318E+02  0.00000000000E+00 0.  1.
          1   -1    0    0  501    0  0.00000000000E+00 -0.00000000000E+00 -0.45792101695E+03  0.45792101695E+03  0.00000000000E+00 0. -1.
         25    2    1    2    0    0 -0.64401691551E+02  0.66851247977E+02 -0.13767285665E+03  0.20788915694E+03  0.12508964339E+03 0.  0.
          5    1    3    3  502    0 -0.57937719177E+02  0.41868210015E+02 -0.40346675971E+01  0.71718039961E+02  0.41800000000E+01 0.  1.
         -5    1    3    3    0  502 -0.64639723749E+01  0.24983037962E+02 -0.13363818905E+03  0.13617111698E+03  0.41800000000E+01 0.  1.
        -11    1    1    2    0    0  0.73949177799E+02 -0.77787098217E+02 -0.26201686423E+03  0.28314687123E+03  0.00000000000E+00 0. -1.
         11    1    1    2    0    0 -0.95474862479E+01  0.10935850239E+02 -0.83627107524E+01  0.16753574103E+02  0.00000000000E+00 0.  1.
</event>
<event>
 7    1  0.2841804E-009  0.4930539E+02  0.7561462E-02  0.1449124E+00
         -2   -1    0    0    0  501 -0.00000000000E+00  0.00000000000E+00  0.12474137474E+03  0.12474137474E+03  0.00000000000E+00 0.  1.
          2   -1    0    0  501    0  0.00000000000E+00 -0.00000000000E+00 -0.14814511252E+03  0.14814511252E+03  0.00000000000E+00 0. -1.
         25    2    1    2    0    0  0.30537235431E+01  0.42052436913E+02  0.58411723711E+02  0.14434295837E+03  0.12508088378E+03 0.  0.
          5    1    3    3  502    0 -0.13892612412E+02  0.34506040921E+02 -0.33652610343E+02  0.50335296986E+02  0.41800000000E+01 0. -1.
         -5    1    3    3    0  502  0.16946335955E+02  0.75463959922E+01  0.92064334054E+02  0.94007661388E+02  0.41800000000E+01 0. -1.
        -11    1    1    2    0    0 -0.14232010220E+01 -0.19365755204E+02  0.17813574291E+02  0.26351117714E+02  0.00000000000E+00 0.  1.
         11    1    1    2    0    0 -0.16305225211E+01 -0.22686681709E+02 -0.99629035786E+02  0.10219241118E+03  0.00000000000E+00 0. -1.
</event>
<event>
 7    1  0.2841804E-009  0.1032701E+03  0.7561462E-02  0.1273566E+00
         -4   -1    0    0    0  501 -0.00000000000E+00  0.00000000000E+00  0.32395326423E+03  0.32395326423E+03  0.00000000000E+00 0. -1.
          4   -1    0    0  501    0  0.00000000000E+00 -0.00000000000E+00 -0.60116962375E+02  0.60116962375E+02  0.00000000000E+00 0.  1.
         25    2    1    2    0    0 -0.31784533984E+02  0.77719523851E+02  0.17735477562E+03  0.23270605691E+03  0.12508721557E+03 0.  0.
          5    1    3    3  502    0 -0.22023676721E+02  0.75952230063E+02  0.29573267570E+02  0.84533035807E+02  0.41800000000E+01 0. -1.
         -5    1    3    3    0  502 -0.97608572626E+01  0.17672937874E+01  0.14778150805E+03  0.14817302111E+03  0.41800000000E+01 0. -1.
        -11    1    1    2    0    0 -0.27294532722E+02 -0.30696312086E+02  0.68830268873E+01  0.41648903363E+02  0.00000000000E+00 0.  1.
         11    1    1    2    0    0  0.59079066706E+02 -0.47023211764E+02  0.79598499349E+02  0.10971526633E+03  0.00000000000E+00 0. -1.
</event>
<event>
 7    1  0.2841804E-009  0.1219938E+03  0.7561462E-02  0.1239844E+00
          2   -1    0    0  501    0  0.00000000000E+00  0.00000000000E+00  0.72390428165E+03  0.72390428165E+03  0.00000000000E+00 0. -1.
         -2   -1    0    0    0  501 -0.00000000000E+00 -0.00000000000E+00 -0.47804411760E+02  0.47804411760E+02  0.00000000000E+00 0.  1.
         25    2    1    2    0    0 -0.52982395088E+02  0.57613593109E+02  0.62150658581E+03  0.63878518602E+03  0.12509843069E+03 0.  0.
          5    1    3    3  502    0  0.30870246860E+02  0.47540333774E+02  0.34458506173E+03  0.34924116688E+03  0.41800000000E+01 0.  1.
         -5    1    3    3    0  502 -0.83852641949E+02  0.10073259336E+02  0.27692152408E+03  0.28954401913E+03  0.41800000000E+01 0.  1.
        -11    1    1    2    0    0  0.47850841866E+01 -0.54050792967E+02 -0.69136899179E+01  0.54700862510E+02  0.00000000000E+00 0.  1.
         11    1    1    2    0    0  0.48197310902E+02 -0.35628001420E+01  0.61506973993E+02  0.78222644885E+02  0.00000000000E+00 0. -1.
</event>
<event>
 7    1  0.2841804E-009  0.1197542E+03  0.7561462E-02  0.1243503E+00
          2   -1    0    0  501    0  0.00000000000E+00  0.00000000000E+00  0.71206188107E+02  0.71206188107E+02  0.00000000000E+00 0. -1.
         -2   -1    0    0    0  501 -0.00000000000E+00 -0.00000000000E+00 -0.22760325051E+03  0.22760325051E+03  0.00000000000E+00 0.  1.
         25    2    1    2    0    0  0.22742934195E+02  0.52423927278E+02 -0.12621038440E+03  0.18666064846E+03  0.12509047664E+03 0.  0.
          5    1    3    3  502    0 -0.45643448629E+02  0.41519618219E+00 -0.20060617543E+02  0.50033964133E+02  0.41800000000E+01 0. -1.
         -5    1    3    3    0  502  0.68386382824E+02  0.52008731096E+02 -0.10614976686E+03  0.13662668433E+03  0.41800000000E+01 0. -1.
        -11    1    1    2    0    0 -0.39929097578E+02  0.11426038819E+02 -0.16095076075E+02  0.44541426451E+02  0.00000000000E+00 0. -1.
         11    1    1    2    0    0  0.17186163383E+02 -0.63849966097E+02 -0.14091601924E+02  0.67607363705E+02  0.00000000000E+00 0.  1.
</event>
<event>
 7    1  0.2841804E-009  0.9590080E+02  0.7561462E-02  0.1289160E+00
         -2   -1    0    0    0  501 -0.00000000000E+00  0.00000000000E+00  0.21398913570E+02  0.21398913570E+02  0.00000000000E+00 0. -1.
          2   -1    0    0  501    0  0.00000000000E+00 -0.00000000000E+00 -0.69985771805E+03  0.69985771805E+03  0.00000000000E+00 0.  1.
         25    2    1    2    0    0 -0.38223309913E+02  0.13871168137E+02 -0.51612312595E+03  0.53262076280E+03  0.12509342546E+03 0.  0.
          5    1    3    3  502    0  0.24553255700E+02  0.49613499053E+02 -0.16404038707E+03  0.17317933665E+03  0.41800000000E+01 0. -1.
         -5    1    3    3    0  502 -0.62776565613E+02 -0.35742330916E+02 -0.35208273889E+03  0.35944142615E+03  0.41800000000E+01 0. -1.
        -11    1    1    2    0    0  0.47595864928E+02 -0.21127840317E+02 -0.16771901319E+03  0.17561725251E+03  0.00000000000E+00 0.  1.
         11    1    1    2    0    0 -0.93725550156E+01  0.72566721800E+01  0.53833346585E+01  0.13018616313E+02  0.00000000000E+00 0. -1.
</event>
<event>
 7    1  0.2841804E-009  0.1133654E+03  0.7561462E-02  0.1254462E+00
         -2   -1    0    0    0  501 -0.00000000000E+00  0.00000000000E+00  0.21351923537E+03  0.21351923537E+03  0.00000000000E+00 0.  1.
          2   -1    0    0  501    0  0.00000000000E+00 -0.00000000000E+00 -0.80470336664E+02  0.80470336664E+02  0.00000000000E+00 0. -1.
         25    2    1    2    0    0  0.27160977258E+02 -0.60814442890E+02  0.10900885662E+03  0.17878969507E+03  0.12508680623E+03 0.  0.
          5    1    3    3  502    0  0.61097867373E+02  0.10883271570E+02  0.50856211643E+02  0.80344394082E+02  0.41800000000E+01 0. -1.
         -5    1    3    3    0  502 -0.33936890116E+02 -0.71697714460E+02  0.58152644974E+02  0.98445300990E+02  0.41800000000E+01 0. -1.
        -11    1    1    2    0    0 -0.81440301625E+01 -0.93507274311E+01  0.39048587134E+02  0.40970153624E+02  0.00000000000E+00 0.  1.
         11    1    1    2    0    0 -0.19016947095E+02  0.70165170321E+02 -0.15008545043E+02  0.74229723342E+02  0.00000000000E+00 0. -1.
</event>
<event>
 7    1  0.3594178E-009  0.1786770E+03  0.7561462E-02  0.1169090E+00
          2   -1    0    0  501    0  0.00000000000E+00  0.00000000000E+00  0.54607190866E+03  0.54607190866E+03  0.00000000000E+00 0. -1.
         -2   -1    0    0    0  501 -0.00000000000E+00 -0.00000000000E+00 -0.79990289518E+02  0.79990289518E+02  0.00000000000E+00 0.  1.
         25    2    1    2    0    0  0.81835549296E+02 -0.12288856585E+03  0.93280779749E+02  0.21481936642E+03  0.12508956621E+03 0.  0.
          5    1    3    3  502    0  0.37008400082E+02  0.20984356470E+02  0.19767706614E+02  0.47097765529E+02  0.41800000000E+01 0.  1.
         -5    1    3    3    0  502  0.44827149214E+02 -0.14387292232E+03  0.73513073135E+02  0.16772160089E+03  0.41800000000E+01 0.  1.
        -11    1    1    2    0    0 -0.51782882275E+02  0.18124057869E+02  0.66978561754E+02  0.86579882796E+02  0.00000000000E+00 0.  1.
         11    1    1    2    0    0 -0.30052667021E+02  0.10476450798E+03  0.30582227764E+03  0.32466294896E+03  0.00000000000E+00 0. -1.
</event>
<event>
 7    1  0.2841804E-009  0.1022219E+03  0.7561462E-02  0.1275692E+00
         -1   -1    0    0    0  501 -0.00000000000E+00  0.00000000000E+00  0.28146736894E+03  0.28146736894E+03  0.00000000000E+00 0.  1.
          1   -1    0    0  501    0  0.00000000000E+00 -0.00000000000E+00 -0.57675854503E+02  0.57675854503E+02  0.00000000000E+00 0. -1.
         25    2    1    2    0    0  0.34052722269E+02  0.55940493496E+02  0.13912982846E+03  0.19822532509E+03  0.12508894288E+03 0.  0.
          5    1    3    3  502    0  0.49969125198E+02  0.56595327409E+02  0.20343105739E+02  0.78302355704E+02  0.41800000000E+01 0.  1.
         -5    1    3    3    0  502 -0.15916402929E+02 -0.65483391290E+00  0.11878672272E+03  0.11992296938E+03  0.41800000000E+01 0.  1.
        -11    1    1    2    0    0  0.83466836858E+01  0.22057463433E+02  0.22016331640E+02  0.32263255889E+02  0.00000000000E+00 0. -1.
         11    1    1    2    0    0 -0.42399405955E+02 -0.77997956929E+02  0.62645354331E+02  0.10865464247E+03  0.00000000000E+00 0.  1.
</event>
<event>
 7    1  0.2841804E-009  0.1314611E+03  0.7561462E-02  0.1225304E+00
         -1   -1    0    0    0  501 -0.00000000000E+00  0.00000000000E+00  0.30338707293E+02  0.30338707293E+02  0.00000000000E+00 0.  1.
          1   -1    0    0  501    0  0.00000000000E+00 -0.00000000000E+00 -0.15997535849E+04  0.15997535849E+04  0.00000000000E+00 0. -1.
         25    2    1    2    0    0  0.24485921509E+02 -0.78091702468E+02 -0.14523049945E+04  0.14599745945E+04  0.12505257050E+03 0.  0.
          5    1    3    3  502    0  0.13108725454E+02 -0.10875357442E+03 -0.89377883953E+03  0.90047613241E+03  0.41800000000E+01 0. -1.
         -5    1    3    3    0  502  0.11377196055E+02  0.30661871955E+02 -0.55852615493E+03  0.55949846212E+03  0.41800000000E+01 0. -1.
        -11    1    1    2    0    0  0.22720198372E+02 -0.63492807896E+01 -0.39862868525E+02  0.46320287863E+02  0.00000000000E+00 0.  1.
         11    1    1    2    0    0 -0.47206119881E+02  0.84440983258E+02 -0.77247014642E+02  0.12379740982E+03  0.00000000000E+00 0. -1.
</event>
<event>
 7    1  0.2841804E-009  0.1008060E+03  0.7561462E-02  0.1278610E+00
          3   -1    0    0  501    0  0.00000000000E+00  0.00000000000E+00  0.34842982443E+03  0.34842982443E+03  0.00000000000E+00 0. -1.
         -3   -1    0    0    0  501 -0.00000000000E+00 -0.00000000000E+00 -0.45849133317E+02  0.45849133317E+02  0.00000000000E+00 0.  1.
         25    2    1    2    0    0  0.61177786644E+02  0.22327667774E+02  0.14259469501E+03  0.20055473329E+03  0.12509079771E+03 0.  0.
          5    1    3    3  502    0  0.16376055572E+02 -0.41249043720E+02  0.10499352748E+03  0.11406477115E+03  0.41800000000E+01 0. -1.
         -5    1    3    3    0  502  0.44801731072E+02  0.63576711494E+02  0.37601167530E+02  0.86489962141E+02  0.41800000000E+01 0. -1.
        -11    1    1    2    0    0 -0.86948709992E+01 -0.25126505425E+02  0.13657460134E+01  0.26623435517E+02  0.00000000000E+00 0.  1.
         11    1    1    2    0    0 -0.52482915645E+02  0.27988376503E+01  0.15862025009E+03  0.16710078894E+03  0.00000000000E+00 0. -1.
</event>
<event>
 7    1  0.2841804E-009  0.7111989E+02  0.7561462E-02  0.1356326E+00
         -1   -1    0    0    0  501 -0.00000000000E+00  0.00000000000E+00  0.76173067076E+02  0.76173067076E+02  0.00000000000E+00 0.  1.
          1   -1    0    0  501    0  0.00000000000E+00 -0.00000000000E+00 -0.19472084297E+03  0.19472084297E+03  0.00000000000E+00 0. -1.
         25    2    1    2    0    0 -0.22761351493E+01 -0.25910848129E+02 -0.99772280236E+02  0.16214062670E+03  0.12513401648E+03 0.  0.
          5    1    3    3  502    0 -0.12219935799E+02 -0.13759660788E+02 -0.12810070618E+03  0.12948327467E+03  0.41800000000E+01 0. -1.
         -5    1    3    3    0  502  0.99438006495E+01 -0.12151187340E+02  0.28328425943E+02  0.32657352029E+02  0.41800000000E+01 0. -1.
        -11    1    1    2    0    0  0.43392883709E+02  0.44359730751E+02 -0.10905535391E+02  0.63005228125E+02  0.00000000000E+00 0. -1.
         11    1    1    2    0    0 -0.41116748560E+02 -0.18448882622E+02 -0.78699602702E+01  0.45748055224E+02  0.00000000000E+00 0.  1.
</event>
<event>
 7    1  0.2841804E-009  0.2675989E+03  0.7561462E-02  0.1102662E+00
         -1   -1    0    0    0  501 -0.00000000000E+00  0.00000000000E+00  0.39665800046E+02  0.39665800046E+02  0.00000000000E+00 0.  1.
          1   -1    0    0  501    0  0.00000000000E+00 -0.00000000000E+00 -0.19143223535E+04  0.19143223535E+04  0.00000000000E+00 0. -1.
         25    2    1    2    0    0  0.24831021418E+03  0.30993482916E+02 -0.10929329531E+04  0.11281709494E+04  0.12509473464E+03 0.  0.
          5    1    3    3  502    0  0.24671542798E+03  0.49017553592E+02 -0.10671119365E+04  0.10963651675E+04  0.41800000000E+01 0.  1.
         -5    1    3    3    0  502  0.15947862032E+01 -0.18024070676E+02 -0.25821016552E+02  0.31805781904E+02  0.41800000000E+01 0.  1.
        -11    1    1    2    0    0 -0.18103468806E+02 -0.29772431083E+02 -0.13173359569E+03  0.13626398449E+03  0.00000000000E+00 0. -1.
         11    1    1    2    0    0 -0.23020674537E+03 -0.12210518335E+01 -0.64999000467E+03  0.68955321967E+03  0.00000000000E+00 0.  1.
</event>
<event>
 7    1  0.2841804E-009  0.1255214E+03  0.7561462E-02  0.1234257E+00
         -1   -1    0    0    0  501 -0.00000000000E+00  0.00000000000E+00  0.35157368533E+02  0.35157368533E+02  0.00000000000E+00 0.  1.
          1   -1    0    0  501    0  0.00000000000E+00 -0.00000000000E+00 -0.72726874845E+03  0.72726874845E+03  0.00000000000E+00 0. -1.
         25    2    1    2    0    0  0.53612849451E+02 -0.75353490261E+02 -0.19294670465E+03  0.24784694839E+03  0.12508873997E+03 0.  0.
          5    1    3    3  502    0  0.34609971639E+02  0.19085038833E+02 -0.99012957146E+01  0.40958477766E+02  0.41800000000E+01 0. -1.
         -5    1    3    3    0  502  0.19002877812E+02 -0.94438529094E+02 -0.18304540894E+03  0.20688847062E+03  0.41800000000E+01 0. -1.
        -11    1    1    2    0    0 -0.10698905939E+02  0.70933677958E+02 -0.40081138113E+03  0.40718032430E+03  0.00000000000E+00 0. -1.
         11    1    1    2    0    0 -0.42913943512E+02  0.44198123024E+01 -0.98353294142E+02  0.10739884430E+03  0.00000000000E+00 0.  1.
</event>
<event>
 7    1  0.2841804E-009  0.7286321E+02  0.7561462E-02  0.1350619E+00
         -2   -1    0    0    0  501 -0.00000000000E+00  0.00000000000E+00  0.24220729234E+02  0.24220729234E+02  0.00000000000E+00 0.  1.
          2   -1    0    0  501    0  0.00000000000E+00 -0.00000000000E+00 -0.54120824635E+03  0.54120824635E+03  0.00000000000E+00 0. -1.
         25    2    1    2    0    0 -0.20678199187E+01 -0.37596440746E+02 -0.30387489291E+03  0.33076404789E+03  0.12508851506E+03 0.  0.
          5    1    3    3  502    0  0.37394437951E+02 -0.37660201174E+02 -0.27876750527E+03  0.28380526622E+03  0.41800000000E+01 0. -1.
         -5    1    3    3    0  502 -0.39462257870E+02  0.63760428402E-01 -0.25107387639E+02  0.46958781667E+02  0.41800000000E+01 0. -1.
        -11    1    1    2    0    0  0.10885051796E+02 -0.29784211727E+01  0.52094050350E+01  0.12429531210E+02  0.00000000000E+00 0.  1.
         11    1    1    2    0    0 -0.88172318771E+01  0.40574861918E+02 -0.21832202924E+03  0.22223539649E+03  0.00000000000E+00 0. -1.
</event>
<event>
 7    1  0.2841804E-009  0.8981041E+02  0.7561462E-02  0.1303311E+00
         -3   -1    0    0    0  501 -0.00000000000E+00  0.00000000000E+00  0.82245981725E+02  0.82245981725E+02  0.00000000000E+00 0.  1.
          3   -1    0    0  501    0  0.00000000000E+00 -0.00000000000E+00 -0.17165789811E+03  0.17165789811E+03  0.00000000000E+00 0. -1.
         25    2    1    2    0    0 -0.23100106105E+02 -0.32967461474E+02 -0.78182745425E+02  0.15290326921E+03  0.12508556926E+03 0.  0.
          5    1    3    3  502    0 -0.35509298807E+02  0.83588720071E+01 -0.98430798682E+02  0.10505653512E+03  0.41800000000E+01 0. -1.
         -5    1    3    3    0  502  0.12409192702E+02 -0.41326333481E+02  0.20248053257E+02  0.47846734092E+02  0.41800000000E+01 0. -1.
        -11    1    1    2    0    0  0.10988109941E+02 -0.31808256609E+02  0.22873251520E+01  0.33730336567E+02  0.00000000000E+00 0.  1.
         11    1    1    2    0    0  0.12111996164E+02  0.64775718083E+02 -0.13516496116E+02  0.67270274056E+02  0.00000000000E+00 0. -1.
</event>
<event>
 7    1  0.2841804E-009  0.1701389E+03  0.7561462E-02  0.1177703E+00
         -2   -1    0    0    0  501 -0.00000000000E+00  0.00000000000E+00  0.47007570412E+03  0.47007570412E+03  0.00000000000E+00 0.  1.
          2   -1    0    0  501    0  0.00000000000E+00 -0.00000000000E+00 -0.85305928660E+02  0.85305928660E+02  0.00000000000E+00 0. -1.
         25    2    1    2    0    0 -0.79155005440E+02  0.12199583825E+03  0.31892017399E+03  0.37216355897E+03  0.12508851990E+03 0.  0.
          5    1    3    3  502    0  0.24759109066E+02  0.25930998746E+01  0.92406248711E+02  0.95792091790E+02  0.41800000000E+01 0. -1.
         -5    1    3    3    0  502 -0.10391411451E+03  0.11940273837E+03  0.22651392528E+03  0.27637146718E+03  0.41800000000E+01 0. -1.
        -11    1    1    2    0    0  0.12925342377E+02 -0.73441324440E+02  0.68212834999E+02  0.10106276995E+03  0.00000000000E+00 0.  1.
         11    1    1    2    0    0  0.66229663062E+02 -0.48554513807E+02 -0.23632335279E+01  0.82155303864E+02  0.00000000000E+00 0. -1.
</event>
<event>
 7    1  0.2841804E-009  0.9468740E+02  0.7561462E-02  0.1291882E+00
          1   -1    0    0  501    0  0.00000000000E+00  0.00000000000E+00  0.32503562801E+03  0.32503562801E+03  0.00000000000E+00 0. -1.
         -1   -1    0    0    0  501 -0.00000000000E+00 -0.00000000000E+00 -0.42409873463E+02  0.42409873463E+02  0.00000000000E+00 0.  1.
         25    2    1    2    0    0 -0.34328830604E+02 -0.12426399622E+01  0.11224604031E+03  0.17154304377E+03  0.12509128482E+03 0.  0.
          5    1    3    3  502    0 -0.40092992025E+01  0.43247595591E+02 -0.35463669697E+01  0.43777598417E+02  0.41800000000E+01 0.  1.
         -5    1    3    3    0  502 -0.30319531401E+02 -0.44490235553E+02  0.11579240728E+03  0.12776544536E+03  0.41800000000E+01 0.  1.
        -11    1    1    2    0    0  0.13747735814E+02 -0.41814634063E+02  0.51181012491E+02  0.67505258324E+02  0.00000000000E+00 0. -1.
         11    1    1    2    0    0  0.20581094789E+02  0.43057274025E+02  0.11919870174E+03  0.12839719937E+03  0.00000000000E+00 0.  1.
</event>
<event>
 6    1  0.2841804E-009  0.8847453E+02  0.7561462E-02  0.1306588E+00
         -1   -1    0    0    0  501 -0.00000000000E+00  0.00000000000E+00  0.22512802778E+03  0.22512802778E+03  0.00000000000E+00 0.  1.
          1   -1    0    0  501    0  0.00000000000E+00 -0.00000000000E+00 -0.58743625390E+02  0.58743625390E+02  0.00000000000E+00 0. -1.
          5    1    1    2  502    0 -0.50299585413E+02  0.31035633540E+02  0.87060648844E+02  0.10531043547E+03  0.41800000000E+01 0. -1.
         -5    1    1    2    0  502  0.34468947773E+02 -0.10681322303E+01 -0.20445941632E+02  0.40308289423E+02  0.41800000000E+01 0. -1.
        -11    1    1    2    0    0  0.12457050929E+02 -0.55664957841E+02  0.96542498512E+02  0.11213482808E+03  0.00000000000E+00 0.  1.
         11    1    1    2    0    0  0.33735867118E+01  0.25697456531E+02  0.32271966634E+01  0.26118100194E+02  0.00000000000E+00 0. -1.
</event>
<event>
 7    1  0.2841804E-009  0.4158276E+03  0.7561462E-02  0.1038433E+00
          2   -1    0    0  501    0  0.00000000000E+00  0.00000000000E+00  0.13330052244E+04  0.13330052244E+04  0.00000000000E+00 0. -1.
         -2   -1    0    0    0  501 -0.00000000000E+00 -0.00000000000E+00 -0.14708941497E+03  0.14708941497E+03  0.00000000000E+00 0.  1.
         25    2    1    2    0    0  0.38067877350E+03  0.14343966360E+03  0.82735783755E+03  0.93040844449E+03  0.12509043343E+03 0.  0.
          5    1    3    3  502    0  0.11843594071E+03 -0.24850113596E+01  0.16442224977E+03  0.20269532790E+03  0.41800000000E+01 0.  1.
         -5    1    3    3    0  502  0.26224283279E+03  0.14592467496E+03  0.66293558778E+03  0.72771311659E+03  0.41800000000E+01 0.  1.
        -11    1    1    2    0    0 -0.16525075900E+03 -0.10020294680E+03  0.20427287894E+03  0.28120429045E+03  0.00000000000E+00 0. -1.
         11    1    1    2    0    0 -0.21542801450E+03 -0.43236716804E+02  0.15428509298E+03  0.26848190447E+03  0.00000000000E+00 0.  1.
</event>
<event>
 7    1  0.2841804E-009  0.1129298E+03  0.7561462E-02  0.1255239E+00
         -2   -1    0    0    0  501 -0.00000000000E+00  0.00000000000E+00  0.77458854463E+02  0.77458854463E+02  0.00000000000E+00 0.  1.
          2   -1    0    0  501    0  0.00000000000E+00 -0.00000000000E+00 -0.20447003400E+03  0.20447003400E+03  0.00000000000E+00 0. -1.
         25    2    1    2    0    0  0.29847749869E+02  0.55708539773E+02 -0.77146516714E+02  0.15998161286E+03  0.12509277292E+03 0.  0.
          5    1    3    3  502    0  0.75685679932E+02  0.52370354454E+02 -0.38757766423E+02  0.99953054133E+02  0.41800000000E+01 0. -1.
         -5    1    3    3    0  502 -0.45837930063E+02  0.33381853192E+01 -0.38388750290E+02  0.60028558725E+02  0.41800000000E+01 0. -1.
        -11    1    1    2    0    0  0.14478478126E+02 -0.36503269123E+02  0.14158013794E+02  0.41744033587E+02  0.00000000000E+00 0.  1.
         11    1    1    2    0    0 -0.44326227995E+02 -0.19205270650E+02 -0.64022676614E+02  0.80203242016E+02  0.00000000000E+00 0. -1.
</event>
<event>
 7    1  0.2841804E-009  0.1218639E+03  0.7561462E-02  0.1240053E+00
         -2   -1    0    0    0  501 -0.00000000000E+00  0.00000000000E+00  0.35415728550E+02  0.35415728550E+02  0.00000000000E+00 0.  1.
          2   -1    0    0  501    0  0.00000000000E+00 -0.00000000000E+00 -0.54525725945E+03  0.54525725945E+03  0.00000000000E+00 0. -1.
         25    2    1    2    0    0 -0.41497074010E+02  0.76476748159E+02 -0.28934966565E+03  0.32701962299E+03  0.12509158505E+03 0.  0.
          5    1    3    3  502    0  0.86135337590E+01 -0.22931593149E+02 -0.10945227678E+02  0.27153661578E+02  0.41800000000E+01 0.  1.
         -5    1    3    3    0  502 -0.50110607769E+02  0.99408341308E+02 -0.27840443797E+03  0.29986596141E+03  0.41800000000E+01 0.  1.
        -11    1    1    2    0    0  0.42707694216E+02 -0.13937897394E+02 -0.32278803984E+02  0.55318471739E+02  0.00000000000E+00 0.  1.
         11    1    1    2    0    0 -0.12106202058E+01 -0.62538850765E+02 -0.18821306127E+03  0.19833489327E+03  0.00000000000E+00 0. -1.
</event>
<event>
 7    1  0.2841804E-009  0.1150553E+03  0.7561462E-02  0.1251485E+00
         -1   -1    0    0    0  501 -0.00000000000E+00  0.00000000000E+00  0.94808500298E+02  0.94808500298E+02  0.00000000000E+00 0.  1.
          1   -1    0    0  501    0  0.00000000000E+00 -0.00000000000E+00 -0.16622779594E+03  0.16622779594E+03  0.00000000000E+00 0. -1.
         25    2    1    2    0    0  0.93758806110E+01 -0.54435218939E+02 -0.72750021284E+02  0.15489131819E+03  0.12509058580E+03 0.  0.
          5    1    3    3  502    0  0.62816150282E+02 -0.34304572615E+02 -0.65618252418E+02  0.97190019492E+02  0.41800000000E+01 0.  1.
         -5    1    3    3    0  502 -0.53440269671E+02 -0.20130646324E+02 -0.71317688658E+01  0.57701298695E+02  0.41800000000E+01 0.  1.
        -11    1    1    2    0    0  0.37898786816E+02  0.26513066754E+02 -0.15398457495E+02  0.48748058875E+02  0.00000000000E+00 0. -1.
         11    1    1    2    0    0 -0.47274667427E+02  0.27922152184E+02  0.16729183134E+02  0.57396919179E+02  0.00000000000E+00 0.  1.
</event>
<event>
 7    1  0.2841804E-009  0.1116625E+03  0.7561462E-02  0.1257522E+00
          1   -1    0    0  501    0  0.00000000000E+00  0.00000000000E+00  0.53912400782E+03  0.53912400782E+03  0.00000000000E+00 0. -1.
         -1   -1    0    0    0  501 -0.00000000000E+00 -0.00000000000E+00 -0.24046854997E+02  0.24046854997E+02  0.00000000000E+00 0.  1.
         25    2    1    2    0    0 -0.27848349190E+02 -0.18743044305E+02  0.29181764175E+03  0.31926636294E+03  0.12508653887E+03 0.  0.
          5    1    3    3  502    0 -0.60438506580E+01  0.53396242045E+02  0.11445051904E+03  0.12650723498E+03  0.41800000000E+01 0.  1.
         -5    1    3    3    0  502 -0.21804498532E+02 -0.72139286351E+02  0.17736712272E+03  0.19275912796E+03  0.41800000000E+01 0.  1.
        -11    1    1    2    0    0  0.59506042216E+02  0.59516256593E+01  0.10523705568E+03  0.12104226037E+03  0.00000000000E+00 0.  1.
         11    1    1    2    0    0 -0.31657693026E+02  0.12791418646E+02  0.11802245539E+03  0.12286223950E+03  0.00000000000E+00 0. -1.
</event>
<event>
 7    1  0.2841804E-009  0.1164554E+03  0.7561462E-02  0.1249062E+00
          1   -1    0    0  501    0  0.00000000000E+00  0.00000000000E+00  0.42310752166E+02  0.42310752166E+02  0.00000000000E+00 0. -1.
         -1   -1    0    0    0  501 -0.00000000000E+00 -0.00000000000E+00 -0.59922789402E+03  0.59922789402E+03  0.00000000000E+00 0.  1.
         25    2    1    2    0    0 -0.54412975453E+02  0.66369957043E+02 -0.45538994105E+03  0.47998250371E+03  0.12504983950E+03 0.  0.
          5    1    3    3  502    0 -0.65332084094E+02  0.16053079132E+02 -0.98390388716E+02  0.11926493011E+03  0.41800000000E+01 0. -1.
         -5    1    3    3    0  502  0.10919108641E+02  0.50316877912E+02 -0.35699955234E+03  0.36071757360E+03  0.41800000000E+01 0. -1.
        -11    1    1    2    0    0  0.57141012946E+02 -0.10727862430E+02 -0.17457470851E+02  0.60703753437E+02  0.00000000000E+00 0. -1.
         11    1    1    2    0    0 -0.27280374935E+01 -0.55642094613E+02 -0.84069729953E+02  0.10085238904E+03  0.00000000000E+00 0.  1.
</event>
<event>
 7    1  0.2841804E-009  0.2330863E+03  0.7561462E-02  0.1124486E+00
         -1   -1    0    0    0  501 -0.00000000000E+00  0.00000000000E+00  0.27388406512E+03  0.27388406512E+03  0.00000000000E+00 0.  1.
          1   -1    0    0  501    0  0.00000000000E+00 -0.00000000000E+00 -0.21737533484E+03  0.21737533484E+03  0.00000000000E+00 0. -1.
         25    2    1    2    0    0  0.12550440705E+03  0.17497733981E+03  0.51481454500E+02  0.25429500686E+03  0.12508870740E+03 0.  0.
          5    1    3    3  502    0 -0.43864436008E+01  0.56620385180E+02 -0.25509429780E+02  0.62396412662E+02  0.41800000000E+01 0.  1.
         -5    1    3    3    0  502  0.12989085065E+03  0.11835695463E+03  0.76990884280E+02  0.19189859419E+03  0.41800000000E+01 0.  1.
        -11    1    1    2    0    0 -0.13081089267E+03 -0.11781802278E+03 -0.13706331085E+02  0.17657983930E+03  0.00000000000E+00 0.  1.
         11    1    1    2    0    0  0.53064856202E+01 -0.57159317023E+02  0.18733606865E+02  0.60384553805E+02  0.00000000000E+00 0. -1.
</event>
<event>
 7    1  0.2841804E-009  0.9318718E+02  0.7561462E-02  0.1295312E+00
          3   -1    0    0  501    0  0.00000000000E+00  0.00000000000E+00  0.61464676336E+02  0.61464676336E+02  0.00000000000E+00 0. -1.
         -3   -1    0    0    0  501 -0.00000000000E+00 -0.00000000000E+00 -0.23525375972E+03  0.23525375972E+03  0.00000000000E+00 0.  1.
         25    2    1    2    0    0  0.64028338250E+01  0.11238121586E+02 -0.16005740019E+03  0.20355277929E+03  0.12509224974E+03 0.  0.
          5    1    3    3  502    0  0.50802015196E+02 -0.20306368766E+02 -0.13022624342E+03  0.14131362367E+03  0.41800000000E+01 0. -1.
         -5    1    3    3    0  502 -0.44399181371E+02  0.31544490352E+02 -0.29831156775E+02  0.62239155622E+02  0.41800000000E+01 0. -1.
        -11    1    1    2    0    0  0.27889649566E+02 -0.27287259349E+02 -0.32616276235E+02  0.50855172315E+02  0.00000000000E+00 0.  1.
         11    1    1    2    0    0 -0.34292483391E+02  0.16049137763E+02  0.18884593042E+02  0.42310484451E+02  0.00000000000E+00 0. -1.
</event>
<event>
 7    1  0.2841804E-009  0.1103106E+03  0.7561462E-02  0.1259996E+00
         -1   -1    0    0    0  501 -0.00000000000E+00  0.00000000000E+00  0.29314863415E+03  0.29314863415E+03  0.00000000000E+00 0.  1.
          1   -1    0    0  501    0  0.00000000000E+00 -0.00000000000E+00 -0.79567295094E+02  0.79567295094E+02  0.00000000000E+00 0. -1.
         25    2    1    2    0    0 -0.58418252906E+02  0.17007474957E+02  0.22417779906E+03  0.26383022150E+03  0.12509497875E+03 0.  0.
          5    1    3    3  502    0 -0.93733325859E+02 -0.23395540103E+01  0.18523954739E+03  0.20765975105E+03  0.41800000000E+01 0. -1.
         -5    1    3    3    0  502  0.35315072953E+02  0.19347028967E+02  0.38938251673E+02  0.56170470453E+02  0.41800000000E+01 0. -1.
        -11    1    1    2    0    0 -0.51000497991E+01  0.14505528822E+02 -0.31424080652E+02  0.34984192418E+02  0.00000000000E+00 0. -1.
         11    1    1    2    0    0  0.63518302705E+02 -0.31513003779E+02  0.20827620652E+02  0.73901515327E+02  0.00000000000E+00 0.  1.
</event>
<event>
 7    1  0.2841804E-009  0.7645905E+02  0.7561462E-02  0.1339411E+00
         -2   -1    0    0    0  501 -0.00000000000E+00  0.00000000000E+00  0.14272418063E+03  0.14272418063E+03  0.00000000000E+00 0.  1.
          2   -1    0    0  501    0  0.00000000000E+00 -0.00000000000E+00 -0.94614797595E+02  0.94614797595E+02  0.00000000000E+00 0. -1.
         25    2    1    2    0    0  0.11995019392E+02 -0.29301434247E+02  0.12149452236E+02  0.12960093173E+03  0.12508532199E+03 0.  0.
          5    1    3    3  502    0  0.44119045226E+02 -0.64532005757E+01 -0.42731769116E+02  0.61900003563E+02  0.41800000000E+01 0.  1.
         -5    1    3    3    0  502 -0.32124025834E+02 -0.22848233671E+02  0.54881221351E+02  0.67700928167E+02  0.41800000000E+01 0.  1.
        -11    1    1    2    0    0  0.24605178805E+02  0.16892585624E+02  0.56554399565E+02  0.63946652635E+02  0.00000000000E+00 0.  1.
         11    1    1    2    0    0 -0.36600198197E+02  0.12408848623E+02 -0.20594468767E+02  0.43791393858E+02  0.00000000000E+00 0. -1.
</event>
<event>
 7    1  0.2841804E-009  0.1249118E+03  0.7561462E-02  0.1235207E+00
         -2   -1    0    0    0  501 -0.00000000000E+00  0.00000000000E+00  0.29315909088E+02  0.29315909088E+02  0.00000000000E+00 0.  1.
          2   -1    0    0  501    0  0.00000000000E+00 -0.00000000000E+00 -0.93400299184E+03  0.93400299184E+03  0.00000000000E+00 0. -1.
         25    2    1    2    0    0  0.70451230183E+02  0.61121169578E+02 -0.72000906596E+03  0.73672422904E+03  0.12510140444E+03 0.  0.
          5    1    3    3  502    0 -0.20568116730E+02 -0.68343068507E+01 -0.29083427621E+02  0.36511276863E+02  0.41800000000E+01 0. -1.
         -5    1    3    3    0  502  0.91019346913E+02  0.67955476429E+02 -0.69092563834E+03  0.70021295218E+03  0.41800000000E+01 0. -1.
        -11    1    1    2    0    0 -0.69400131529E+02 -0.19005109357E+02 -0.55949934543E+02  0.91148053261E+02  0.00000000000E+00 0.  1.
         11    1    1    2    0    0 -0.10510986539E+01 -0.42116060221E+02 -0.12872808225E+03  0.13544661863E+03  0.00000000000E+00 0. -1.
</event>
<event>
 7    1  0.2841804E-009  0.1231000E+03  0.7561462E-02  0.1238069E+00
          2   -1    0    0  501    0  0.00000000000E+00  0.00000000000E+00  0.13212439005E+04  0.13212439005E+04  0.00000000000E+00 0. -1.
         -2   -1    0    0    0  501 -0.00000000000E+00 -0.00000000000E+00 -0.12924641242E+02  0.12924641242E+02  0.00000000000E+00 0.  1.
         25    2    1    2    0    0 -0.79572824589E+02  0.16212098494E+02  0.84307674743E+03  0.85616630517E+03  0.12509066112E+03 0.  0.
          5    1    3    3  502    0 -0.82920746664E+01  0.55295926309E+02  0.51912645821E+03  0.52214571720E+03  0.41800000000E+01 0.  1.
         -5    1    3    3    0  502 -0.71280749923E+02 -0.39083827815E+02  0.32395028922E+03  0.33402058797E+03  0.41800000000E+01 0.  1.
        -11    1    1    2    0    0  0.16861086544E+00 -0.28395680198E+02  0.15150699134E+03  0.15414509888E+03  0.00000000000E+00 0. -1.
         11    1    1    2    0    0  0.79404213724E+02  0.12183581703E+02  0.31373552050E+03  0.32385713770E+03  0.00000000000E+00 0.  1.
</event>
<event>
 7    1  0.3218034E-009  0.1242881E+03  0.7561462E-02  0.1236186E+00
         -2   -1    0    0    0  501 -0.00000000000E+00  0.00000000000E+00  0.21549925573E+02  0.21549925573E+02  0.00000000000E+00 0.  1.
          2   -1    0    0  501    0  0.00000000000E+00 -0.00000000000E+00 -0.80103397598E+03  0.80103397598E+03  0.00000000000E+00 0. -1.
         25    2    1    2    0    0  0.31075416176E+02  0.64924095643E+02 -0.49009939177E+03  0.51090656193E+03  0.12508909431E+03 0.  0.
          5    1    3    3  502    0  0.78647526361E+02  0.53493574360E+02 -0.32084078393E+03  0.33466890643E+03  0.41800000000E+01 0. -1.
         -5    1    3    3    0  502 -0.47572110186E+02  0.11430521283E+02 -0.16925860785E+03  0.17623765550E+03  0.41800000000E+01 0. -1.
        -11    1    1    2    0    0  0.25099762696E+02 -0.24333747112E+02 -0.41377280732E+02  0.54168336662E+02  0.00000000000E+00 0.  1.
         11    1    1    2    0    0 -0.56175178872E+02 -0.40590348531E+02 -0.24800737790E+03  0.25750900296E+03  0.00000000000E+00 0. -1.
</event>
<event>
 7    1  0.2841804E-009  0.1249703E+03  0.7561462E-02  0.1235116E+00
         -1   -1    0    0    0  501 -0.00000000000E+00  0.00000000000E+00  0.20050027050E+02  0.20050027050E+02  0.00000000000E+00 0.  1.
          1   -1    0    0  501    0  0.00000000000E+00 -0.00000000000E+00 -0.10279944496E+04  0.10279944496E+04  0.00000000000E+00 0. -1.
         25    2    1    2    0    0  0.84123016794E+02  0.33678380104E+02 -0.44463284765E+03  0.47070014136E+03  0.12509731661E+03 0.  0.
          5    1    3    3  502    0  0.58689148700E+02 -0.25723684013E+02 -0.92141393149E+02  0.11231043062E+03  0.41800000000E+01 0. -1.
         -5    1    3    3    0  502  0.25433868094E+02  0.59402064117E+02 -0.35249145450E+03  0.35838971074E+03  0.41800000000E+01 0. -1.
        -11    1    1    2    0    0 -0.13469468028E+01 -0.38056768372E+02 -0.10722505988E+03  0.11378640231E+03  0.00000000000E+00 0.  1.
         11    1    1    2    0    0 -0.82776069991E+02  0.43783882679E+01 -0.45608651498E+03  0.46355793294E+03  0.00000000000E+00 0. -1.
</event>
<event>
 7    1  0.2841804E-009  0.1302362E+03  0.7561462E-02  0.1227106E+00
          1   -1    0    0  501    0  0.00000000000E+00  0.00000000000E+00  0.61214326628E+02  0.61214326628E+02  0.00000000000E+00 0.  1.
         -1   -1    0    0    0  501 -0.00000000000E+00 -0.00000000000E+00 -0.31280002834E+03  0.31280002834E+03  0.00000000000E+00 0. -1.
         25    2    1    2    0    0 -0.80000999113E+02 -0.38901199955E+01 -0.17544675284E+03  0.22987933749E+03  0.12509058250E+03 0.  0.
          5    1    3    3  502    0 -0.74722801988E+02 -0.57372436735E+02 -0.10414577444E+03  0.14049522543E+03  0.41800000000E+01 0.  1.
         -5    1    3    3    0  502 -0.52781971243E+01  0.53482316739E+02 -0.71300978402E+02  0.89384112066E+02  0.41800000000E+01 0.  1.
        -11    1    1    2    0    0  0.14760468825E+02 -0.33828249847E+02 -0.54334964010E+02  0.65684931618E+02  0.00000000000E+00 0. -1.
         11    1    1    2    0    0  0.65240530288E+02  0.37718369843E+02 -0.21803984864E+02  0.78450085862E+02  0.00000000000E+00 0.  1.
</event>
<event>
 7    1  0.2841804E-009  0.8990294E+02  0.7561462E-02  0.1303087E+00
         -1   -1    0    0    0  501 -0.00000000000E+00  0.00000000000E+00  0.89308772271E+02  0.89308772271E+02  0.00000000000E+00 0.  1.
          1   -1    0    0  501    0  0.00000000000E+00 -0.00000000000E+00 -0.15836769355E+03  0.15836769355E+03  0.00000000000E+00 0. -1.
         25    2    1    2    0    0 -0.40689945466E+02 -0.26686122213E+02 -0.23883746892E+02  0.13633177039E+03  0.12509235576E+03 0.  0.
          5    1    3    3  502    0 -0.22693789549E+02 -0.57776391244E+02 -0.59130696297E+02  0.85831410997E+02  0.41800000000E+01 0. -1.
         -5    1    3    3    0  502 -0.17996155917E+02  0.31090269031E+02  0.35246949404E+02  0.50500359390E+02  0.41800000000E+01 0. -1.
        -11    1    1    2    0    0  0.15376873311E+02  0.46694038123E+02  0.73436787519E+01  0.49706247562E+02  0.00000000000E+00 0.  1.
         11    1    1    2    0    0  0.25313072155E+02 -0.20007915910E+02 -0.52518853141E+02  0.61638447873E+02  0.00000000000E+00 0. -1.
</event>
<event>
 7    1  0.3888438E-009  0.1099006E+03  0.7561462E-02  0.1260754E+00
          2   -1    0    0  501    0  0.00000000000E+00  0.00000000000E+00  0.46483002114E+03  0.46483002114E+03  0.00000000000E+00 0. -1.
         -2   -1    0    0    0  501 -0.00000000000E+00 -0.00000000000E+00 -0.44245443700E+02  0.44245443700E+02  0.00000000000E+00 0.  1.
         25    2    1    2    0    0 -0.42935658424E+02 -0.83411647210E+02  0.23006077966E+03  0.27816670888E+03  0.12509109456E+03 0.  0.
          5    1    3    3  502    0 -0.16361013265E+02 -0.45213184617E+02  0.22619474593E+03  0.23128651129E+03  0.41800000000E+01 0.  1.
         -5    1    3    3    0  502 -0.26574645160E+02 -0.38198462593E+02  0.38660337332E+01  0.46880197596E+02  0.41800000000E+01 0.  1.
        -11    1    1    2    0    0 -0.11419064659E+02  0.67104060493E+02  0.69711633789E+02  0.97432345029E+02  0.00000000000E+00 0.  1.
         11    1    1    2    0    0  0.54354723083E+02  0.16307586717E+02  0.12081216399E+03  0.13347641093E+03  0.00000000000E+00 0. -1.
</event>
<event>
 7    1  0.2841804E-009  0.1192170E+03  0.7561462E-02  0.1244394E+00
         -2   -1    0    0    0  501 -0.00000000000E+00  0.00000000000E+00  0.49139920916E+02  0.49139920916E+02  0.00000000000E+00 0.  1.
          2   -1    0    0  501    0  0.00000000000E+00 -0.00000000000E+00 -0.47450158522E+03  0.47450158522E+03  0.00000000000E+00 0. -1.
         25    2    1    2    0    0  0.83015256235E+02 -0.33462761403E+02 -0.12567263152E+03  0.19862493549E+03  0.12508783121E+03 0.  0.
          5    1    3    3  502    0  0.66526737317E+02  0.14629791766E+02 -0.59690302796E+01  0.68505031258E+02  0.41800000000E+01 0. -1.
         -5    1    3    3    0  502  0.16488518918E+02 -0.48092553169E+02 -0.11970360124E+03  0.13011990423E+03  0.41800000000E+01 0. -1.
        -11    1    1    2    0    0 -0.40490012107E+00  0.36508734608E+02 -0.49393054792E+02  0.61422516299E+02  0.00000000000E+00 0.  1.
         11    1    1    2    0    0 -0.82610356114E+02 -0.30459732051E+01 -0.25029597799E+03  0.26359405435E+03  0.00000000000E+00 0. -1.
</event>
<event>
 7    1  0.2841804E-009  0.1067109E+03  0.7561462E-02  0.1266785E+00
          2   -1    0    0  501    0  0.00000000000E+00  0.00000000000E+00  0.25674551876E+03  0.25674551876E+03  0.00000000000E+00 0. -1.
         -2   -1    0    0    0  501 -0.00000000000E+00 -0.00000000000E+00 -0.46242508780E+02  0.46242508780E+02  0.00000000000E+00 0.  1.
         25    2    1    2    0    0  0.54109741103E+01 -0.12063526728E+01  0.13061030428E+03  0.18093335856E+03  0.12508834770E+03 0.  0.
          5    1    3    3  502    0 -0.47219018299E+01  0.59434507576E+02  0.42195313848E+02  0.73161970712E+02  0.41800000000E+01 0. -1.
         -5    1    3    3    0  502  0.10132875940E+02 -0.60640860249E+02  0.88414990432E+02  0.10777138785E+03  0.41800000000E+01 0. -1.
        -11    1    1    2    0    0  0.41552787210E+02  0.13127037667E+02  0.33412001292E+02  0.54911884626E+02  0.00000000000E+00 0.  1.
         11    1    1    2    0    0 -0.46963761321E+02 -0.11920684994E+02  0.46480704410E+02  0.67142784352E+02  0.00000000000E+00 0. -1.
</event>
<event>
 6    1  0.2841804E-009  0.1030874E+03  0.7561462E-02  0.1273934E+00
         -4   -1    0    0    0  501 -0.00000000000E+00  0.00000000000E+00  0.29090154679E+03  0.29090154679E+03  0.00000000000E+00 0. -1.
          4   -1    0    0  501    0  0.00000000000E+00 -0.00000000000E+00 -0.44213266835E+02  0.44213266835E+02  0.00000000000E+00 0.  1.
          5    1    1    2  502    0 -0.45505857302E+02 -0.54562758893E+02  0.30050550697E+02  0.77255327997E+02  0.41800000000E+01 0. -1.
         -5    1    1    2    0  502  0.17844796195E+02  0.39186269491E+02  0.86360291033E+02  0.96589713402E+02  0.41800000000E+01 0. -1.
        -11    1    1    2    0    0 -0.29875084928E+02  0.16632864166E+02  0.70148259911E+02  0.78038139639E+02  0.00000000000E+00 0. -1.
         11    1    1    2    0    0  0.57536146034E+02 -0.12563747636E+01  0.60129178312E+02  0.83231632584E+02  0.00000000000E+00 0.  1.
</event>
<event>
 7    1  0.2841804E-009  0.1246681E+03  0.7561462E-02  0.1235589E+00
          1   -1    0    0  501    0  0.00000000000E+00  0.00000000000E+00  0.55156557681E+03  0.55156557681E+03  0.00000000000E+00 0. -1.
         -1   -1    0    0    0  501 -0.00000000000E+00 -0.00000000000E+00 -0.49525361340E+02  0.49525361340E+02  0.00000000000E+00 0.  1.
         25    2    1    2    0    0 -0.90109891586E+02 -0.14576221896E+02  0.41446310196E+03  0.44244684334E+03  0.12508911818E+03 0.  0.
          5    1    3    3  502    0 -0.99909734694E+02 -0.12338953938E+01  0.16886387220E+03  0.19625482751E+03  0.41800000000E+01 0.  1.
         -5    1    3    3    0  502  0.97998431080E+01 -0.13342326502E+02  0.24559922976E+03  0.24619201583E+03  0.41800000000E+01 0.  1.
        -11    1    1    2    0    0  0.26969647551E+01 -0.32746097462E+02  0.23056238313E+02  0.40139390167E+02  0.00000000000E+00 0.  1.
         11    1    1    2    0    0  0.87412926830E+02  0.47322319358E+02  0.64520875193E+02  0.11850470464E+03  0.00000000000E+00 0. -1.
</event>
<event>
 7    1  0.2841804E-009  0.3434968E+03  0.7561462E-02  0.1065316E+00
          2   -1    0    0  501    0  0.00000000000E+00  0.00000000000E+00  0.10689156613E+04  0.10689156613E+04  0.00000000000E+00 0. -1.
         -2   -1    0    0    0  501 -0.00000000000E+00 -0.00000000000E+00 -0.11777398833E+03  0.11777398833E+03  0.00000000000E+00 0.  1.
         25    2    1    2    0    0  0.33300956984E+03  0.24104653358E+02  0.40233743078E+03  0.53758736537E+03  0.12509340223E+03 0.  0.
          5    1    3    3  502    0  0.22794406888E+03  0.47664223227E+02  0.34291249607E+03  0.41453206037E+03  0.41800000000E+01 0.  1.
         -5    1    3    3    0  502  0.10506550095E+03 -0.23559569869E+02  0.59424934709E+02  0.12305530500E+03  0.41800000000E+01 0.  1.
        -11    1    1    2    0    0 -0.20037080780E+03  0.30891069678E+02  0.33442300264E+03  0.39107731141E+03  0.00000000000E+00 0. -1.
         11    1    1    2    0    0 -0.13263876204E+03 -0.54995723036E+02  0.21438123959E+03  0.25802497290E+03  0.00000000000E+00 0.  1.
</event>
<event>
 7    1  0.2841804E-009  0.1557447E+03  0.7561462E-02  0.1193586E+00
          1   -1    0    0  501    0  0.00000000000E+00  0.00000000000E+00  0.39747630136E+03  0.39747630136E+03  0.00000000000E+00 0. -1.
         -1   -1    0    0    0  501 -0.00000000000E+00 -0.00000000000E+00 -0.11744501328E+03  0.11744501328E+03  0.00000000000E+00 0.  1.
         25    2    1    2    0    0 -0.11298974647E+03  0.45259057892E+02  0.31259770031E+03  0.35802353968E+03  0.12509383515E+03 0.  0.
          5    1    3    3  502    0 -0.12186118317E+02  0.58283532501E+02  0.55395860197E+02  0.81434914916E+02  0.41800000000E+01 0.  1.
         -5    1    3    3    0  502 -0.10080362815E+03 -0.13024474609E+02  0.25720184012E+03  0.27658862476E+03  0.41800000000E+01 0.  1.
        -11    1    1    2    0    0 -0.14986284183E+02 -0.28757721193E+01 -0.14192763731E+02  0.20839705401E+02  0.00000000000E+00 0.  1.
         11    1    1    2    0    0  0.12797603065E+03 -0.42383285773E+02 -0.18373648502E+02  0.13605806957E+03  0.00000000000E+00 0. -1.
</event>
<event>
 7    1  0.2841804E-009  0.2407217E+03  0.7561462E-02  0.1119313E+00
          2   -1    0    0  501    0  0.00000000000E+00  0.00000000000E+00  0.18029242190E+04  0.18029242190E+04  0.00000000000E+00 0. -1.
         -2   -1    0    0    0  501 -0.00000000000E+00 -0.00000000000E+00 -0.38702842887E+02  0.38702842887E+02  0.00000000000E+00 0.  1.
         25    2    1    2    0    0  0.97977406433E+02 -0.21943608149E+03  0.93981145753E+03  0.97808260985E+03  0.12509296523E+03 0.  0.
          5    1    3    3  502    0  0.82481796159E+02 -0.17077496032E+03  0.87570053430E+03  0.89601129008E+03  0.41800000000E+01 0. -1.
         -5    1    3    3    0  502  0.15495610274E+02 -0.48661121173E+02  0.64110923224E+02  0.82071319766E+02  0.41800000000E+01 0. -1.
        -11    1    1    2    0    0 -0.47771897657E+02  0.11873209082E+03  0.28342796289E+03  0.31098371942E+03  0.00000000000E+00 0.  1.
         11    1    1    2    0    0 -0.50205508776E+02  0.10070399068E+03  0.54098195574E+03  0.55256073267E+03  0.00000000000E+00 0. -1.
</event>
<event>
 7    1  0.2841804E-009  0.1505536E+03  0.7561462E-02  0.1199794E+00
         -3   -1    0    0    0  501 -0.00000000000E+00  0.00000000000E+00  0.10724377294E+03  0.10724377294E+03  0.00000000000E+00 0.  1.
          3   -1    0    0  501    0  0.00000000000E+00 -0.00000000000E+00 -0.30374309241E+03  0.30374309241E+03  0.00000000000E+00 0. -1.
         25    2    1    2    0    0  0.13173312638E+02 -0.10658873770E+03  0.44003906966E+01  0.16492857016E+03  0.12508946656E+03 0.  0.
          5    1    3    3  502    0 -0.17488523610E+02 -0.12568006511E+03 -0.60252920648E+01  0.12710272919E+03  0.41800000000E+01 0. -1.
         -5    1    3    3    0  502  0.30661836247E+02  0.19091327401E+02  0.10425682761E+02  0.37825840969E+02  0.41800000000E+01 0. -1.
        -11    1    1    2    0    0  0.10750154795E+02 -0.12403217693E+02 -0.82694262107E+01  0.18379038253E+02  0.00000000000E+00 0.  1.
         11    1    1    2    0    0 -0.23923467432E+02  0.11899195540E+03 -0.19263028395E+03  0.22767925693E+03  0.00000000000E+00 0. -1.
</event>
<event>
 7    1  0.2841804E-009  0.1615476E+03  0.7561462E-02  0.1186961E+00
         -1   -1    0    0    0  501 -0.00000000000E+00  0.00000000000E+00  0.21310786616E+03  0.21310786616E+03  0.00000000000E+00 0.  1.
          1   -1    0    0  501    0  0.00000000000E+00 -0.00000000000E+00 -0.13556156651E+03  0.13556156651E+03  0.00000000000E+00 0. -1.
         25    2    1    2    0    0 -0.12952053077E+03  0.16060190136E+02  0.34058340659E+02  0.18395847603E+03  0.12508897929E+03 0.  0.
          5    1    3    3  502    0 -0.14644172337E+03  0.53092936476E+01  0.53175056496E+02  0.15594366283E+03  0.41800000000E+01 0.  1.
         -5    1    3    3    0  502  0.16921192606E+02  0.10750896489E+02 -0.19116715838E+02  0.28014813205E+02  0.41800000000E+01 0.  1.
        -11    1    1    2    0    0  0.10976955552E+03 -0.46922241540E+02  0.46116547494E+02  0.12797573216E+03  0.00000000000E+00 0.  1.
         11    1    1    2    0    0  0.19750975246E+02  0.30862051403E+02 -0.26285884992E+01  0.36735224478E+02  0.00000000000E+00 0. -1.
</event>
<event>
 7    1  0.2841804E-009  0.1066895E+03  0.7561462E-02  0.1266826E+00
          1   -1    0    0  501    0  0.00000000000E+00  0.00000000000E+00  0.36310855047E+03  0.36310855047E+03  0.00000000000E+00 0. -1.
         -1   -1    0    0    0  501 -0.00000000000E+00 -0.00000000000E+00 -0.45284426346E+02  0.45284426346E+02  0.00000000000E+00 0.  1.
         25    2    1    2    0    0 -0.59730971788E+01 -0.10485949240E+02  0.28616123948E+03  0.31252789111E+03  0.12505916489E+03 0.  0.
          5    1    3    3  502    0  0.49793078836E+02 -0.35976757188E+02  0.11152529217E+03  0.12739325316E+03  0.41800000000E+01 0. -1.
         -5    1    3    3    0  502 -0.55766176015E+02  0.25490807948E+02  0.17463594731E+03  0.18513463796E+03  0.41800000000E+01 0. -1.
        -11    1    1    2    0    0 -0.13744587212E+02 -0.36710264146E+02  0.16355371016E+02  0.42474172533E+02  0.00000000000E+00 0. -1.
         11    1    1    2    0    0  0.19717684391E+02  0.47196213387E+02  0.15307513633E+02  0.53390913173E+02  0.00000000000E+00 0.  1.
</event>
<event>
 7    1  0.2841804E-009  0.8608784E+02  0.7561462E-02  0.1312612E+00
          2   -1    0    0  501    0  0.00000000000E+00  0.00000000000E+00  0.16202253040E+03  0.16202253040E+03  0.00000000000E+00 0. -1.
         -2   -1    0    0    0  501 -0.00000000000E+00 -0.00000000000E+00 -0.94294161524E+02  0.94294161524E+02  0.00000000000E+00 0.  1.
         25    2    1    2    0    0 -0.44756426311E+02  0.32592182309E+02  0.90534877198E+01  0.13709480685E+03  0.12509049677E+03 0.  0.
          5    1    3    3  502    0  0.32090432093E+02  0.91142639279E+01  0.38773220647E+02  0.51319593512E+02  0.41800000000E+01 0.  1.
         -5    1    3    3    0  502 -0.76846858404E+02  0.23477918381E+02 -0.29719732927E+02  0.85775213339E+02  0.41800000000E+01 0.  1.
        -11    1    1    2    0    0  0.28929479545E+02 -0.30651557906E+02 -0.14313603620E+02  0.44511931405E+02  0.00000000000E+00 0.  1.
         11    1    1    2    0    0  0.15826946766E+02 -0.19406244032E+01  0.72988484773E+02  0.74709953663E+02  0.00000000000E+00 0. -1.
</event>
<event>
 7    1  0.2841804E-009  0.5664057E+02  0.7561462E-02  0.1412496E+00
          1   -1    0    0  501    0  0.00000000000E+00  0.00000000000E+00  0.11041524398E+03  0.11041524398E+03  0.00000000000E+00 0. -1.
         -1   -1    0    0    0  501 -0.00000000000E+00 -0.00000000000E+00 -0.12016973850E+03  0.12016973850E+03  0.00000000000E+00 0.  1.
         25    2    1    2    0    0  0.33939015679E+02 -0.19269437884E+02 -0.16956438157E+02  0.13213037321E+03  0.12509095374E+03 0.  0.
          5    1    3    3  502    0  0.18638016608E+02  0.47715691895E+01 -0.69486798351E+02  0.72222095516E+02  0.41800000000E+01 0.  1.
         -5    1    3    3    0  502  0.15300999071E+02 -0.24041007074E+02  0.52530360194E+02  0.59908277690E+02  0.41800000000E+01 0.  1.
        -11    1    1    2    0    0 -0.43533272785E+02  0.30108688735E+00  0.40164827410E+02  0.59232169077E+02  0.00000000000E+00 0. -1.
         11    1    1    2    0    0  0.95942571063E+01  0.18968350997E+02 -0.32962883765E+02  0.39222440198E+02  0.00000000000E+00 0.  1.
</event>
<event>
 7    1  0.2841804E-009  0.7955182E+02  0.7561462E-02  0.1330328E+00
         -3   -1    0    0    0  501 -0.00000000000E+00  0.00000000000E+00  0.33698045043E+03  0.33698045043E+03  0.00000000000E+00 0.  1.
          3   -1    0    0  501    0  0.00000000000E+00 -0.00000000000E+00 -0.85233979697E+02  0.85233979697E+02  0.00000000000E+00 0. -1.
         25    2    1    2    0    0 -0.23738278188E+02  0.45085902148E+02  0.28189159307E+03  0.31258015272E+03  0.12508891720E+03 0.  0.
          5    1    3    3  502    0 -0.54631142638E+02  0.12951864697E+02  0.46650936437E+02  0.73116994027E+02  0.41800000000E+01 0.  1.
         -5    1    3    3    0  502  0.30892864450E+02  0.32134037451E+02  0.23524065663E+03  0.23946315869E+03  0.41800000000E+01 0.  1.
        -11    1    1    2    0    0  0.76773477310E+00 -0.31160458468E+02 -0.61135199536E+02  0.68622709148E+02  0.00000000000E+00 0. -1.
         11    1    1    2    0    0  0.22970543415E+02 -0.13925443680E+02  0.30990077194E+02  0.41011568258E+02  0.00000000000E+00 0.  1.
</event>
<event>
 7    1  0.2841804E-009  0.1348297E+03  0.7561462E-02  0.1220460E+00
          2   -1    0    0  501    0  0.00000000000E+00  0.00000000000E+00  0.71472678544E+03  0.71472678544E+03  0.00000000000E+00 0. -1.
         -2   -1    0    0    0  501 -0.00000000000E+00 -0.00000000000E+00 -0.54353449471E+02  0.54353449471E+02  0.00000000000E+00 0.  1.
         25    2    1    2    0    0 -0.46741230145E+02 -0.10246461940E+03  0.58073007816E+03  0.60463205102E+03  0.12509497442E+03 0.  0.
          5    1    3    3  502    0  0.71980181525E+01 -0.62991601197E+02  0.94894603112E+02  0.11420250166E+03  0.41800000000E+01 0. -1.
         -5    1    3    3    0  502 -0.53939248298E+02 -0.39473018201E+02  0.48583547504E+03  0.49042954936E+03  0.41800000000E+01 0.  1.
        -11    1    1    2    0    0  0.51974521051E+02  0.18721733961E+02  0.11667479146E+02  0.56462237208E+02  0.00000000000E+00 0.  1.
         11    1    1    2    0    0 -0.52332909054E+01  0.83742885437E+02  0.67975778671E+02  0.10798594668E+03  0.00000000000E+00 0. -1.
</event>
<event>
 7    1  0.2841804E-009  0.1098846E+03  0.7561462E-02  0.1260784E+00
          2   -1    0    0  501    0  0.00000000000E+00  0.00000000000E+00  0.11312742563E+04  0.11312742563E+04  0.00000000000E+00 0. -1.
         -2   -1    0    0    0  501 -0.00000000000E+00 -0.00000000000E+00 -0.13787332674E+02  0.13787332674E+02  0.00000000000E+00 0.  1.
         25    2    1    2    0    0  0.12861334548E+02 -0.46789117560E+02  0.80289615931E+03  0.81402967963E+03  0.12508973276E+03 0.  0.
          5    1    3    3  502    0 -0.14131367856E+02  0.38788024739E+02  0.18207398692E+03  0.18674210969E+03  0.41800000000E+01 0.  1.
         -5    1    3    3    0  502  0.26992702404E+02 -0.85577142299E+02  0.62082217239E+03  0.62728756994E+03  0.41800000000E+01 0.  1.
        -11    1    1    2    0    0  0.31080450543E+02  0.20694840356E+02  0.22338179267E+03  0.22648111647E+03  0.00000000000E+00 0. -1.
         11    1    1    2    0    0 -0.43941785091E+02  0.26094277204E+02  0.91208971632E+02  0.10455079285E+03  0.00000000000E+00 0.  1.
</event>
<event>
 7    1  0.2841804E-009  0.1053788E+03  0.7561462E-02  0.1269375E+00
         -1   -1    0    0    0  501 -0.00000000000E+00  0.00000000000E+00  0.58020316849E+03  0.58020316849E+03  0.00000000000E+00 0.  1.
          1   -1    0    0  501    0  0.00000000000E+00 -0.00000000000E+00 -0.40001337450E+02  0.40001337450E+02  0.00000000000E+00 0. -1.
         25    2    1    2    0    0  0.62637502576E+02  0.82818898421E+02  0.32347588401E+03  0.36203157331E+03  0.12509111029E+03 0.  0.
          5    1    3    3  502    0  0.22298796378E+02  0.24254685234E+02  0.27230381225E+03  0.27432164450E+03  0.41800000000E+01 0. -1.
         -5    1    3    3    0  502  0.40338706199E+02  0.58564213187E+02  0.51172071765E+02  0.87709928815E+02  0.41800000000E+01 0. -1.
        -11    1    1    2    0    0 -0.41974613124E+02 -0.36627261622E+02  0.19552888599E+03  0.20331003344E+03  0.00000000000E+00 0.  1.
         11    1    1    2    0    0 -0.20662889452E+02 -0.46191636800E+02  0.21197061041E+02  0.54862899190E+02  0.00000000000E+00 0. -1.
</event>
<event>
 7    1  0.2841804E-009  0.1089591E+03  0.7561462E-02  0.1262510E+00
         -1   -1    0    0    0  501 -0.00000000000E+00  0.00000000000E+00  0.12530022795E+02  0.12530022795E+02  0.00000000000E+00 0.  1.
          1   -1    0    0  501    0  0.00000000000E+00 -0.00000000000E+00 -0.11288789876E+04  0.11288789876E+04  0.00000000000E+00 0. -1.
         25    2    1    2    0    0  0.34692839893E+02 -0.16692038312E+01 -0.79887019752E+03  0.80935041732E+03  0.12509247043E+03 0.  0.
          5    1    3    3  502    0  0.69483390148E+02 -0.30071181424E+02 -0.63049308839E+03  0.63503639610E+03  0.41800000000E+01 0.  1.
         -5    1    3    3    0  502 -0.34790550255E+02  0.28401977593E+02 -0.16837710912E+03  0.17431402122E+03  0.41800000000E+01 0.  1.
        -11    1    1    2    0    0 -0.12499812025E+02  0.45861145670E+02 -0.14198428195E+03  0.14972984440E+03  0.00000000000E+00 0. -1.
         11    1    1    2    0    0 -0.22193027868E+02 -0.44191941839E+02 -0.17549448536E+03  0.18232874869E+03  0.00000000000E+00 0.  1.
</event>
<event>
 7    1  0.2841804E-009  0.1032460E+03  0.7561462E-02  0.1273614E+00
         -2   -1    0    0    0  501 -0.00000000000E+00  0.00000000000E+00  0.26367574444E+02  0.26367574444E+02  0.00000000000E+00 0.  1.
          2   -1    0    0  501    0  0.00000000000E+00 -0.00000000000E+00 -0.63789908813E+03  0.63789908813E+03  0.00000000000E+00 0. -1.
         25    2    1    2    0    0  0.20703810135E+02  0.48259087995E+02 -0.51104109987E+03  0.52874218589E+03  0.12509079125E+03 0.  0.
          5    1    3    3  502    0  0.34721110268E+02  0.76941192830E+02 -0.46464550464E+03  0.47226943585E+03  0.41800000000E+01 0. -1.
         -5    1    3    3    0  502 -0.14017300133E+02 -0.28682104835E+02 -0.46395595227E+02  0.56472750041E+02  0.41800000000E+01 0. -1.
        -11    1    1    2    0    0  0.23752270120E+02 -0.36919011126E+02 -0.38414162528E+02  0.58333794675E+02  0.00000000000E+00 0.  1.
         11    1    1    2    0    0 -0.44456080256E+02 -0.11340076869E+02 -0.62076251290E+02  0.77190682011E+02  0.00000000000E+00 0. -1.
</event>
<event>
 7    1  0.2841804E-009  0.2811332E+03  0.7561462E-02  0.1095072E+00
         -1   -1    0    0    0  501 -0.00000000000E+00  0.00000000000E+00  0.12933556081E+03  0.12933556081E+03  0.00000000000E+00 0.  1.
          1   -1    0    0  501    0  0.00000000000E+00 -0.00000000000E+00 -0.80557835420E+03  0.80557835420E+03  0.00000000000E+00 0. -1.
         25    2    1    2    0    0  0.26824721514E+03 -0.61221187443E+02 -0.15824636525E+03  0.34116541026E+03  0.12508925941E+03 0.  0.
          5    1    3    3  502    0  0.16063059642E+03 -0.75190237731E+02 -0.42456667788E+02  0.18241656010E+03  0.41800000000E+01 0. -1.
         -5    1    3    3    0  502  0.10761661872E+03  0.13969050288E+02 -0.11578969747E+03  0.15874885017E+03  0.41800000000E+01 0. -1.
        -11    1    1    2    0    0 -0.19819491284E+03  0.33927516674E+02 -0.44787155762E+03  0.49093913267E+03  0.00000000000E+00 0. -1.
         11    1    1    2    0    0 -0.70052302304E+02  0.27293670769E+02 -0.70124870523E+02  0.10280937208E+03  0.00000000000E+00 0.  1.
</event>
<event>
 6    1  0.2841804E-009  0.9430620E+02  0.7561462E-02  0.1292746E+00
          1   -1    0    0  501    0  0.00000000000E+00  0.00000000000E+00  0.95256192348E+03  0.95256192348E+03  0.00000000000E+00 0. -1.
         -1   -1    0    0    0  501 -0.00000000000E+00 -0.00000000000E+00 -0.15878809850E+02  0.15878809850E+02  0.00000000000E+00 0.  1.
          5    1    1    2  502    0 -0.30001252261E+02  0.41112844138E+02  0.35695370636E+03  0.36058807797E+03  0.41800000000E+01 0. -1.
         -5    1    1    2    0  502  0.22992984944E+02 -0.71716974888E+02  0.36980431041E+03  0.37741847099E+03  0.41800000000E+01 0. -1.
        -11    1    1    2    0    0  0.25679666155E+02 -0.67548565750E+00  0.10570114020E+02  0.27778208097E+02  0.00000000000E+00 0.  1.
         11    1    1    2    0    0 -0.18671398838E+02  0.31279616407E+02  0.19935498284E+03  0.20265597628E+03  0.00000000000E+00 0. -1.
</event>
<event>
 7    1  0.2841804E-009  0.1088790E+03  0.7561462E-02  0.1262660E+00
          1   -1    0    0  501    0  0.00000000000E+00  0.00000000000E+00  0.69815399026E+02  0.69815399026E+02  0.00000000000E+00 0. -1.
         -1   -1    0    0    0  501 -0.00000000000E+00 -0.00000000000E+00 -0.20962943237E+03  0.20962943237E+03  0.00000000000E+00 0.  1.
         25    2    1    2    0    0  0.34902677981E+01 -0.50260573771E+02 -0.65697244795E+02  0.15001128958E+03  0.12509577045E+03 0.  0.
          5    1    3    3  502    0 -0.21484326358E+02 -0.83578952319E+02 -0.21268494438E+02  0.88976619432E+02  0.41800000000E+01 0. -1.
         -5    1    3    3    0  502  0.24974594156E+02  0.33318378548E+02 -0.44428750358E+02  0.61034670153E+02  0.41800000000E+01 0. -1.
        -11    1    1    2    0    0 -0.26626707060E+02  0.59039444383E+02 -0.16660083156E+02  0.66874478635E+02  0.00000000000E+00 0.  1.
         11    1    1    2    0    0  0.23136439262E+02 -0.87788706120E+01 -0.57456705391E+02  0.62559063175E+02  0.00000000000E+00 0. -1.
</event>
<event>
 7    1  0.2841804E-009  0.8883003E+02  0.7561462E-02  0.1305710E+00
          2   -1    0    0  501    0  0.00000000000E+00  0.00000000000E+00  0.25268937756E+03  0.25268937756E+03  0.00000000000E+00 0. -1.
         -2   -1    0    0    0  501 -0.00000000000E+00 -0.00000000000E+00 -0.58693831245E+02  0.58693831245E+02  0.00000000000E+00 0.  1.
         25    2    1    2    0    0 -0.37687105850E+02  0.40868866454E+02  0.10511015726E+03  0.17259235629E+03  0.12509753834E+03 0.  0.
          5    1    3    3  502    0 -0.50073508792E+01 -0.34869930211E+02 -0.40514140182E+01  0.35705349057E+02  0.41800000000E+01 0. -1.
         -5    1    3    3    0  502 -0.32679754971E+02  0.75738796664E+02  0.10916157128E+03  0.13688700723E+03  0.41800000000E+01 0. -1.
        -11    1    1    2    0    0  0.10064347130E+02 -0.26726123231E+02  0.10138865771E+03  0.10533392928E+03  0.00000000000E+00 0. -1.
         11    1    1    2    0    0  0.27622758721E+02 -0.14142743223E+02 -0.12503268654E+02  0.33456923233E+02  0.00000000000E+00 0.  1.
</event>
<event>
 7    1  0.2841804E-009  0.8591498E+02  0.7561462E-02  0.1313057E+00
         -2   -1    0    0    0  501 -0.00000000000E+00  0.00000000000E+00  0.33113503226E+02  0.33113503226E+02  0.00000000000E+00 0.  1.
          2   -1    0    0  501    0  0.00000000000E+00 -0.00000000000E+00 -0.36691070812E+03  0.36691070812E+03  0.00000000000E+00 0. -1.
         25    2    1    2    0    0  0.50189929008E+01 -0.19206011111E+02 -0.19848620756E+03  0.23545310237E+03  0.12508927880E+03 0.  0.
          5    1    3    3  502    0 -0.29565624326E+02 -0.33270866398E+02 -0.13512210111E+02  0.46702557904E+02  0.41800000000E+01 0.  1.
         -5    1    3    3    0  502  0.34584617227E+02  0.14064855286E+02 -0.18497399745E+03  0.18875054447E+03  0.41800000000E+01 0.  1.
        -11    1    1    2    0    0 -0.45814892507E+02  0.16408756732E+02 -0.48981195986E+02  0.69046428098E+02  0.00000000000E+00 0. -1.
         11    1    1    2    0    0  0.40795899606E+02  0.27972543799E+01 -0.86329801345E+02  0.95524680879E+02  0.00000000000E+00 0.  1.
</event>
<event>
 7    1  0.3322851E-009  0.6424160E+02  0.7561462E-02  0.1380847E+00
          1   -1    0    0  501    0  0.00000000000E+00  0.00000000000E+00  0.18153008601E+03  0.18153008601E+03  0.00000000000E+00 0. -1.
         -1   -1    0    0    0  501 -0.00000000000E+00 -0.00000000000E+00 -0.77951624153E+02  0.77951624153E+02  0.00000000000E+00 0.  1.
         25    2    1    2    0    0  0.11591053289E+01  0.45603219016E+02  0.38452758955E+02  0.13858500004E+03  0.12508473310E+03 0.  0.
          5    1    3    3  502    0 -0.32469682982E+02  0.14444421949E+02  0.72819848581E+02  0.81136455344E+02  0.41800000000E+01 0. -1.
         -5    1    3    3    0  502  0.33628788311E+02  0.31158797068E+02 -0.34367089625E+02  0.57448544693E+02  0.41800000000E+01 0. -1.
        -11    1    1    2    0    0 -0.55204583039E+01 -0.24066340324E+02  0.86672735814E+02  0.90121181361E+02  0.00000000000E+00 0. -1.
         11    1    1    2    0    0  0.43613529750E+01 -0.21536878692E+02 -0.21547032912E+02  0.30775528767E+02  0.00000000000E+00 0.  1.
</event>
<event>
 7    1  0.2841804E-009  0.1128572E+03  0.7561462E-02  0.1255368E+00
         -2   -1    0    0    0  501 -0.00000000000E+00  0.00000000000E+00  0.30378133575E+02  0.30378133575E+02  0.00000000000E+00 0.  1.
          2   -1    0    0  501    0  0.00000000000E+00 -0.00000000000E+00 -0.71622917987E+03  0.71622917987E+03  0.00000000000E+00 0. -1.
         25    2    1    2    0    0  0.68016205519E+02  0.62798116045E+02 -0.25474824849E+03  0.29851956162E+03  0.12508977163E+03 0.  0.
          5    1    3    3  502    0  0.76353071187E+02  0.59789637806E+02 -0.26626012541E+03  0.28340169204E+03  0.41800000000E+01 0.  1.
         -5    1    3    3    0  502 -0.83368656680E+01  0.30084782397E+01  0.11511876915E+02  0.15117869578E+02  0.41800000000E+01 0.  1.
        -11    1    1    2    0    0 -0.18618161184E+02 -0.66744212413E+02 -0.19797205073E+03  0.20974832225E+03  0.00000000000E+00 0.  1.
         11    1    1    2    0    0 -0.49398044335E+02  0.39460963674E+01 -0.23313074707E+03  0.23833942958E+03  0.00000000000E+00 0. -1.
</event>
<event>
 7    1  0.2841804E-009  0.9671757E+02  0.7561462E-02  0.1287354E+00
          2   -1    0    0  501    0  0.00000000000E+00  0.00000000000E+00  0.48070046330E+03  0.48070046330E+03  0.00000000000E+00 0. -1.
         -2   -1    0    0    0  501 -0.00000000000E+00 -0.00000000000E+00 -0.43193092750E+02  0.43193092750E+02  0.00000000000E+00 0.  1.
         25    2    1    2    0    0  0.39427763394E+01  0.62087986140E+02  0.37754339576E+03  0.40256209055E+03  0.12508699996E+03 0.  0.
          5    1    3    3  502    0 -0.46540677461E+02  0.54741662565E+02  0.11957723212E+03  0.13956672641E+03  0.41800000000E+01 0.  1.
         -5    1    3    3    0  502  0.50483453800E+02  0.73463235758E+01  0.25796616364E+03  0.26299536414E+03  0.41800000000E+01 0.  1.
        -11    1    1    2    0    0  0.13719358715E+02 -0.16958382470E+02 -0.18836972494E+02  0.28820809709E+02  0.00000000000E+00 0.  1.
         11    1    1    2    0    0 -0.17662135054E+02 -0.45129603671E+02  0.78800947288E+02  0.92510655795E+02  0.00000000000E+00 0. -1.
</event>
<event>
 7    1  0.2841804E-009  0.9267745E+02  0.7561462E-02  0.1296494E+00
         -1   -1    0    0    0  501 -0.00000000000E+00  0.00000000000E+00  0.37131327201E+03  0.37131327201E+03  0.00000000000E+00 0.  1.
          1   -1    0    0  501    0  0.00000000000E+00 -0.00000000000E+00 -0.40906980084E+02  0.40906980084E+02  0.00000000000E+00 0. -1.
         25    2    1    2    0    0 -0.12177077356E+02 -0.12839942548E+02  0.91254790877E+02  0.15584628692E+03  0.12508989948E+03 0.  0.
          5    1    3    3  502    0  0.94143469434E+01 -0.53031136669E+02  0.32104803124E+00  0.54023206648E+02  0.41800000000E+01 0.  1.
         -5    1    3    3    0  502 -0.21591424300E+02  0.40191194120E+02  0.90933742846E+02  0.10182308027E+03  0.41800000000E+01 0.  1.
        -11    1    1    2    0    0  0.46131803908E+02  0.20859940217E+02  0.18621052675E+03  0.19297056954E+03  0.00000000000E+00 0.  1.
         11    1    1    2    0    0 -0.33954726551E+02 -0.80199976684E+01  0.52940974302E+02  0.63403395633E+02  0.00000000000E+00 0. -1.
</event>
<event>
 7    1  0.2841804E-009  0.7077997E+02  0.7561462E-02  0.1357461E+00
         -2   -1    0    0    0  501 -0.00000000000E+00  0.00000000000E+00  0.41340566705E+02  0.41340566705E+02  0.00000000000E+00 0.  1.
          2   -1    0    0  501    0  0.00000000000E+00 -0.00000000000E+00 -0.31257923135E+03  0.31257923135E+03  0.00000000000E+00 0. -1.
         25    2    1    2    0    0  0.10263515213E+02 -0.60777715310E+02 -0.19367260682E+03  0.23865317190E+03  0.12508791869E+03 0.  0.
          5    1    3    3  502    0  0.16316574320E+01 -0.35221868341E+02  0.69515310051E+01  0.36180637069E+02  0.41800000000E+01 0. -1.
         -5    1    3    3    0  502  0.86318577812E+01 -0.25555846969E+02 -0.20062413782E+03  0.20247253483E+03  0.41800000000E+01 0. -1.
        -11    1    1    2    0    0  0.19511208485E+02  0.17393363539E+02 -0.66675006420E+01  0.26975394651E+02  0.00000000000E+00 0.  1.
         11    1    1    2    0    0 -0.29774723698E+02  0.43384351770E+02 -0.70898557183E+02  0.88291231504E+02  0.00000000000E+00 0. -1.
</event>
<event>
 7    1  0.2841804E-009  0.1008996E+03  0.7561462E-02  0.1278415E+00
         -1   -1    0    0    0  501 -0.00000000000E+00  0.00000000000E+00  0.11668607269E+03  0.11668607269E+03  0.00000000000E+00 0.  1.
          1   -1    0    0  501    0  0.00000000000E+00 -0.00000000000E+00 -0.10537955557E+03  0.10537955557E+03  0.00000000000E+00 0. -1.
         25    2    1    2    0    0  0.21781794337E+02  0.11928982456E+02  0.10983871587E+02  0.12800361371E+03  0.12509009753E+03 0.  0.
          5    1    3    3  502    0  0.64137761994E+02  0.22860345430E+02  0.36315266281E+02  0.77282073418E+02  0.41800000000E+01 0.  1.
         -5    1    3    3    0  502 -0.42355967657E+02 -0.10931362973E+02 -0.25331394694E+02  0.50721540293E+02  0.41800000000E+01 0.  1.
        -11    1    1    2    0    0 -0.39112138913E+01  0.37176555205E+02 -0.13936782259E+02  0.39895209622E+02  0.00000000000E+00 0. -1.
         11    1    1    2    0    0 -0.17870580446E+02 -0.49105537662E+02  0.14259427798E+02  0.54166804924E+02  0.00000000000E+00 0.  1.
</event>
<event>
 7    1  0.2841804E-009  0.3468331E+03  0.7561462E-02  0.1063922E+00
         -2   -1    0    0    0  501 -0.00000000000E+00  0.00000000000E+00  0.28857391119E+03  0.28857391119E+03  0.00000000000E+00 0.  1.
          2   -1    0    0  501    0  0.00000000000E+00 -0.00000000000E+00 -0.60266078939E+03  0.60266078939E+03  0.00000000000E+00 0. -1.
         25    2    1    2    0    0  0.26915752936E+03  0.21267594295E+03 -0.38349958941E+03  0.52952350714E+03  0.12508547964E+03 0.  0.
          5    1    3    3  502    0  0.66055097044E+02  0.92976678547E+02 -0.59206760371E+02  0.12857235890E+03  0.41800000000E+01 0.  1.
         -5    1    3    3    0  502  0.20310243231E+03  0.11969926441E+03 -0.32429282904E+03  0.40095114824E+03  0.41800000000E+01 0.  1.
        -11    1    1    2    0    0 -0.12257311242E+03 -0.11090026315E+03 -0.11656646510E+02  0.16570731325E+03  0.00000000000E+00 0. -1.
         11    1    1    2    0    0 -0.14658441693E+03 -0.10177567980E+03  0.81069357716E+02  0.19600388018E+03  0.00000000000E+00 0.  1.
</event>
<event>
 7    1  0.2841804E-009  0.1650837E+03  0.7561462E-02  0.1183074E+00
         -2   -1    0    0    0  501 -0.00000000000E+00  0.00000000000E+00  0.27335891467E+02  0.27335891467E+02  0.00000000000E+00 0.  1.
          2   -1    0    0  501    0  0.00000000000E+00 -0.00000000000E+00 -0.12491395579E+04  0.12491395579E+04  0.00000000000E+00 0. -1.
         25    2    1    2    0    0 -0.12772004164E+03 -0.34887836634E+02 -0.86965693530E+03  0.88852700139E+03  0.12508987530E+03 0.  0.
          5    1    3    3  502    0 -0.23985593057E+02 -0.67287377320E+02 -0.28538732390E+03  0.29422150986E+03  0.41800000000E+01 0. -1.
         -5    1    3    3    0  502 -0.10373444858E+03  0.32399540686E+02 -0.58426961140E+03  0.59430549153E+03  0.41800000000E+01 0. -1.
        -11    1    1    2    0    0  0.75433900905E+01  0.28528667741E+02 -0.14847579198E+03  0.15137981510E+03  0.00000000000E+00 0.  1.
         11    1    1    2    0    0  0.12017665155E+03  0.63591688930E+01 -0.20367093919E+03  0.23656863291E+03  0.00000000000E+00 0. -1.
</event>
<event>
 7    1  0.2841804E-009  0.1196656E+03  0.7561462E-02  0.1243650E+00
         -2   -1    0    0    0  501 -0.00000000000E+00  0.00000000000E+00  0.49007037089E+02  0.49007037089E+02  0.00000000000E+00 0.  1.
          2   -1    0    0  501    0  0.00000000000E+00 -0.00000000000E+00 -0.33620879941E+03  0.33620879941E+03  0.00000000000E+00 0. -1.
         25    2    1    2    0    0  0.48182124655E+02  0.66920185522E+02 -0.16380245991E+03  0.22198755130E+03  0.12508956269E+03 0.  0.
          5    1    3    3  502    0  0.84400939937E+02  0.70784810988E+02 -0.10231453477E+03  0.15039861886E+03  0.41800000000E+01 0.  1.
         -5    1    3    3    0  502 -0.36218815282E+02 -0.38646254659E+01 -0.61487925140E+02  0.71588932444E+02  0.41800000000E+01 0.  1.
        -11    1    1    2    0    0 -0.42651320177E+02 -0.23566516141E+02 -0.10509983657E+03  0.11584684477E+03  0.00000000000E+00 0. -1.
         11    1    1    2    0    0 -0.55308044778E+01 -0.43353669381E+02 -0.18299465839E+02  0.47381440427E+02  0.00000000000E+00 0.  1.
</event>
<event>
 7    1  0.2841804E-009  0.1378235E+03  0.7561462E-02  0.1216288E+00
         -1   -1    0    0    0  501 -0.00000000000E+00  0.00000000000E+00  0.51568341350E+03  0.51568341350E+03  0.00000000000E+00 0. -1.
          1   -1    0    0  501    0  0.00000000000E+00 -0.00000000000E+00 -0.40726457788E+02  0.40726457788E+02  0.00000000000E+00 0.  1.
         25    2    1    2    0    0 -0.91930512778E+02  0.20536099465E+02  0.29584683017E+03  0.33473287605E+03  0.12509117006E+03 0.  0.
          5    1    3    3  502    0  0.17493582027E+02  0.40549708444E+02  0.68721276666E+02  0.81794807498E+02  0.41800000000E+01 0.  1.
         -5    1    3    3    0  502 -0.10942409481E+03 -0.20013608979E+02  0.22712555350E+03  0.25293806855E+03  0.41800000000E+01 0.  1.
        -11    1    1    2    0    0  0.18208112328E+02 -0.39803973747E+02  0.11158928042E+03  0.11986683939E+03  0.00000000000E+00 0. -1.
         11    1    1    2    0    0  0.73722400450E+02  0.19267874282E+02  0.67520845115E+02  0.10181015584E+03  0.00000000000E+00 0.  1.
</event>
<event>
 7    1  0.2841804E-009  0.1558155E+03  0.7561462E-02  0.1193504E+00
         -1   -1    0    0    0  501 -0.00000000000E+00  0.00000000000E+00  0.27501212032E+03  0.27501212032E+03  0.00000000000E+00 0.  1.
          1   -1    0    0  501    0  0.00000000000E+00 -0.00000000000E+00 -0.15456466694E+03  0.15456466694E+03  0.00000000000E+00 0. -1.
         25    2    1    2    0    0 -0.43368951801E+02  0.13380886742E+03 -0.44933440926E+02  0.19350874798E+03  0.12506375354E+03 0.  0.
          5    1    3    3  502    0 -0.42387305006E+02  0.79370715706E+02  0.35055077358E+02  0.96657772507E+02  0.41800000000E+01 0.  1.
         -5    1    3    3    0  502 -0.98164679503E+00  0.54438151711E+02 -0.79988518285E+02  0.96850975470E+02  0.41800000000E+01 0.  1.
        -11    1    1    2    0    0  0.36328318353E+02 -0.35540530893E+01  0.50073167412E+02  0.61965313704E+02  0.00000000000E+00 0.  1.
         11    1    1    2    0    0  0.70406334475E+01 -0.13025481433E+03  0.11530772689E+03  0.17410272558E+03  0.00000000000E+00 0. -1.
</event>
<event>
 7    1  0.2841804E-009  0.1249735E+03  0.7561462E-02  0.1235111E+00
         -2   -1    0    0    0  501 -0.00000000000E+00  0.00000000000E+00  0.23590474152E+03  0.23590474152E+03  0.00000000000E+00 0.  1.
          2   -1    0    0  501    0  0.00000000000E+00 -0.00000000000E+00 -0.76345353500E+02  0.76345353500E+02  0.00000000000E+00 0. -1.
         25    2    1    2    0    0 -0.76163324539E+02 -0.20844060986E+02  0.85916706013E+02  0.17106644118E+03  0.12508685001E+03 0.  0.
          5    1    3    3  502    0 -0.89257171876E+02  0.30220484476E+02  0.46862990437E+02  0.10532678997E+03  0.41800000000E+01 0.  1.
         -5    1    3    3    0  502  0.13093847337E+02 -0.51064545462E+02  0.39053715576E+02  0.65739651213E+02  0.41800000000E+01 0.  1.
        -11    1    1    2    0    0  0.67382729643E+02 -0.12260168831E+02  0.81081194406E+02  0.10613625243E+03  0.00000000000E+00 0.  1.
         11    1    1    2    0    0  0.87805948959E+01  0.33104229817E+02 -0.74385123981E+01  0.35047401405E+02  0.00000000000E+00 0. -1.
</event>
<event>
 7    1  0.2841804E-009  0.1224103E+03  0.7561462E-02  0.1239173E+00
         -2   -1    0    0    0  501 -0.00000000000E+00  0.00000000000E+00  0.82693633292E+01  0.82693633292E+01  0.00000000000E+00 0.  1.
          2   -1    0    0  501    0  0.00000000000E+00 -0.00000000000E+00 -0.20413937139E+04  0.20413937139E+04  0.00000000000E+00 0. -1.
         25    2    1    2    0    0 -0.28693205257E+02 -0.59109856559E+02 -0.14690464822E+04  0.14758257497E+04  0.12508717501E+03 0.  0.
          5    1    3    3  502    0  0.46507866033E+02 -0.41554104693E+02 -0.76311091414E+03  0.76566668003E+03  0.41800000000E+01 0.  1.
         -5    1    3    3    0  502 -0.75201071290E+02 -0.17555751866E+02 -0.70593556805E+03  0.71015906964E+03  0.41800000000E+01 0.  1.
        -11    1    1    2    0    0  0.56567436345E+02  0.27710222649E+02 -0.31339560908E+03  0.31966316504E+03  0.00000000000E+00 0.  1.
         11    1    1    2    0    0 -0.27874231088E+02  0.31399633911E+02 -0.25068225927E+03  0.25417416250E+03  0.00000000000E+00 0. -1.
</event>
<event>
 7    1  0.2841804E-009  0.4257204E+03  0.7561462E-02  0.1035220E+00
          2   -1    0    0  501    0  0.00000000000E+00  0.00000000000E+00  0.14613375025E+04  0.14613375025E+04  0.00000000000E+00 0. -1.
         -2   -1    0    0    0  501 -0.00000000000E+00 -0.00000000000E+00 -0.15821821635E+03  0.15821821635E+03  0.00000000000E+00 0.  1.
         25    2    1    2    0    0 -0.34748867110E+03 -0.23159098355E+03  0.29993288772E+03  0.52914090682E+03  0.12509037506E+03 0.  0.
          5    1    3    3  502    0 -0.32520972024E+03 -0.24503255672E+03  0.26689851382E+03  0.48688253724E+03  0.41800000000E+01 0.  1.
         -5    1    3    3    0  502 -0.22278950856E+02  0.13441573170E+02  0.33034373899E+02  0.42258369579E+02  0.41800000000E+01 0.  1.
        -11    1    1    2    0    0  0.84785826438E+02  0.64603063408E+02  0.16649007308E+03  0.19768949542E+03  0.00000000000E+00 0. -1.
         11    1    1    2    0    0  0.26270284466E+03  0.16698792015E+03  0.83669632534E+03  0.89272531661E+03  0.00000000000E+00 0.  1.
</event>
<event>
 7    1  0.2841804E-009  0.1084817E+03  0.7561462E-02  0.1263408E+00
         -1   -1    0    0    0  501 -0.00000000000E+00  0.00000000000E+00  0.34097728162E+03  0.34097728162E+03  0.00000000000E+00 0.  1.
          1   -1    0    0  501    0  0.00000000000E+00 -0.00000000000E+00 -0.55057275107E+02  0.55057275107E+02  0.00000000000E+00 0. -1.
         25    2    1    2    0    0 -0.70468501379E+02 -0.34563086513E+02  0.19993099372E+03  0.24855729798E+03  0.12509161241E+03 0.  0.
          5    1    3    3  502    0  0.31304940652E+02 -0.99621975912E+01  0.15789998305E+02  0.36688433280E+02  0.41800000000E+01 0.  1.
         -5    1    3    3    0  502 -0.10177344203E+03 -0.24600888921E+02  0.18414099541E+03  0.21186886470E+03  0.41800000000E+01 0.  1.
        -11    1    1    2    0    0  0.41976764011E+02  0.25704130520E+02  0.10226175821E+03  0.11349104914E+03  0.00000000000E+00 0.  1.
         11    1    1    2    0    0  0.28491737368E+02  0.88589559925E+01 -0.16272745420E+02  0.33986209601E+02  0.00000000000E+00 0. -1.
</event>
<event>
 7    1  0.2841804E-009  0.1208081E+03  0.7561462E-02  0.1241770E+00
          2   -1    0    0  501    0  0.00000000000E+00  0.00000000000E+00  0.36525319123E+03  0.36525319123E+03  0.00000000000E+00 0. -1.
         -2   -1    0    0    0  501 -0.00000000000E+00 -0.00000000000E+00 -0.54605591997E+02  0.54605591997E+02  0.00000000000E+00 0.  1.
         25    2    1    2    0    0 -0.71684032818E+02  0.39611476858E+02  0.22923606190E+03  0.27368390488E+03  0.12508412391E+03 0.  0.
          5    1    3    3  502    0 -0.58116663438E+02  0.69710175904E+02  0.80873813201E+02  0.12163511522E+03  0.41800000000E+01 0. -1.
         -5    1    3    3    0  502 -0.13567369379E+02 -0.30098699046E+02  0.14836224870E+03  0.15204878965E+03  0.41800000000E+01 0. -1.
        -11    1    1    2    0    0  0.45885206801E+02  0.21853260500E+02  0.17297052487E+02  0.53686173475E+02  0.00000000000E+00 0. -1.
         11    1    1    2    0    0  0.25798826017E+02 -0.61464737358E+02  0.64114484843E+02  0.92488704873E+02  0.00000000000E+00 0.  1.
</event>
<event>
 7    1  0.2841804E-009  0.3052866E+03  0.7561462E-02  0.1082627E+00
          1   -1    0    0  501    0  0.00000000000E+00  0.00000000000E+00  0.10506624916E+04  0.10506624916E+04  0.00000000000E+00 0.  1.
         -1   -1    0    0    0  501 -0.00000000000E+00 -0.00000000000E+00 -0.16358537308E+03  0.16358537308E+03  0.00000000000E+00 0. -1.
         25    2    1    2    0    0  0.23735730607E+03 -0.17565123361E+03  0.53445531732E+02  0.32511179171E+03  0.12509758444E+03 0.  0.
          5    1    3    3  502    0  0.20199666888E+03 -0.10786617239E+03 -0.45222540965E+01  0.22907572671E+03  0.41800000000E+01 0.  1.
         -5    1    3    3    0  502  0.35360637188E+02 -0.67785061224E+02  0.57967785829E+02  0.96036065004E+02  0.41800000000E+01 0.  1.
        -11    1    1    2    0    0 -0.98158877145E+02  0.12007533451E+03  0.49720811131E+03  0.52083505745E+03  0.00000000000E+00 0.  1.
         11    1    1    2    0    0 -0.13919842893E+03  0.55575899104E+02  0.33642347549E+03  0.36830101552E+03  0.00000000000E+00 0. -1.
</event>
<event>
 7    1  0.3732026E-009  0.1495394E+03  0.7561462E-02  0.1201040E+00
         -1   -1    0    0    0  501 -0.00000000000E+00  0.00000000000E+00  0.24668323786E+02  0.24668323786E+02  0.00000000000E+00 0.  1.
          1   -1    0    0  501    0  0.00000000000E+00 -0.00000000000E+00 -0.12347806468E+04  0.12347806468E+04  0.00000000000E+00 0. -1.
         25    2    1    2    0    0  0.12219722181E+03 -0.58330828486E+02 -0.58189138439E+03  0.61039741616E+03  0.12511105410E+03 0.  0.
          5    1    3    3  502    0  0.70148416014E+01 -0.69445552762E+01  0.37175495830E+01  0.11345810926E+02  0.41800000000E+01 0. -1.
         -5    1    3    3    0  502  0.11518238021E+03 -0.51386273210E+02 -0.58560893398E+03  0.59905160524E+03  0.41800000000E+01 0. -1.
        -11    1    1    2    0    0 -0.66225027143E+02 -0.16946559122E+02 -0.29993184053E+03  0.30762322579E+03  0.00000000000E+00 0. -1.
         11    1    1    2    0    0 -0.55972194670E+02  0.75277387608E+02 -0.32828909809E+03  0.34142832862E+03  0.00000000000E+00 0.  1.
</event>
<event>
 7    1  0.2841804E-009  0.8756013E+02  0.7561462E-02  0.1308870E+00
          1   -1    0    0  501    0  0.00000000000E+00  0.00000000000E+00  0.90095729696E+02  0.90095729696E+02  0.00000000000E+00 0. -1.
         -1   -1    0    0    0  501 -0.00000000000E+00 -0.00000000000E+00 -0.23125440467E+03  0.23125440467E+03  0.00000000000E+00 0.  1.
         25    2    1    2    0    0  0.54092933722E+02  0.44704048112E+02 -0.74875076804E+01  0.14362222219E+03  0.12508709981E+03 0.  0.
          5    1    3    3  502    0 -0.34195250790E+01 -0.11602641958E+01  0.49915969994E+02  0.50220671294E+02  0.41800000000E+01 0.  1.
         -5    1    3    3    0  502  0.57512458801E+02  0.45864312308E+02 -0.57403477675E+02  0.93401550897E+02  0.41800000000E+01 0.  1.
        -11    1    1    2    0    0  0.78937438739E+01 -0.31585848419E+02 -0.32351826025E+01  0.32717631625E+02  0.00000000000E+00 0. -1.
         11    1    1    2    0    0 -0.61986677596E+02 -0.13118199693E+02 -0.13043598469E+03  0.14501028055E+03  0.00000000000E+00 0.  1.
</event>
<event>
 7    1  0.2841804E-009  0.1427124E+03  0.7561462E-02  0.1209725E+00
         -1   -1    0    0    0  501 -0.00000000000E+00  0.00000000000E+00  0.30289398540E+03  0.30289398540E+03  0.00000000000E+00 0.  1.
          1   -1    0    0  501    0  0.00000000000E+00 -0.00000000000E+00 -0.80986616291E+02  0.80986616291E+02  0.00000000000E+00 0. -1.
         25    2    1    2    0    0 -0.30487778872E+02  0.10588289078E+03  0.14731302130E+03  0.22246196851E+03  0.12509000747E+03 0.  0.
          5    1    3    3  502    0 -0.54580204166E+02  0.12076738848E+03  0.95980986642E+02  0.16368745524E+03  0.41800000000E+01 0. -1.
         -5    1    3    3    0  502  0.24092425294E+02 -0.14884497695E+02  0.51332034654E+02  0.58774513268E+02  0.41800000000E+01 0. -1.
        -11    1    1    2    0    0  0.43295383423E+02 -0.10201989080E+03  0.29934393232E+02  0.11479815435E+03  0.00000000000E+00 0. -1.
         11    1    1    2    0    0 -0.12807604551E+02 -0.38629999790E+01  0.44659954580E+02  0.46620478829E+02  0.00000000000E+00 0.  1.
</event>
<event>
 7    1  0.2841804E-009  0.1442437E+03  0.7561462E-02  0.1207730E+00
          1   -1    0    0  501    0  0.00000000000E+00  0.00000000000E+00  0.34727403450E+03  0.34727403450E+03  0.00000000000E+00 0. -1.
         -1   -1    0    0    0  501 -0.00000000000E+00 -0.00000000000E+00 -0.68280868249E+02  0.68280868249E+02  0.00000000000E+00 0.  1.
         25    2    1    2    0    0  0.90234189838E+02 -0.58268263878E+02  0.17677147036E+03  0.24172845922E+03  0.12508835146E+03 0.  0.
          5    1    3    3  502    0  0.50235341345E+02  0.24568015704E+02  0.12279093838E+03  0.13498986578E+03  0.41800000000E+01 0. -1.
         -5    1    3    3    0  502  0.39998848493E+02 -0.82836279582E+02  0.53980531980E+02  0.10673859343E+03  0.41800000000E+01 0. -1.
        -11    1    1    2    0    0  0.18573486297E+02  0.11853040833E+02  0.20073428632E+02  0.29806232692E+02  0.00000000000E+00 0. -1.
         11    1    1    2    0    0 -0.10880767614E+03  0.46415223045E+02  0.82148267257E+02  0.14402021084E+03  0.00000000000E+00 0.  1.
</event>
<event>
 7    1  0.2841804E-009  0.8805356E+02  0.7561462E-02  0.1307635E+00
          2   -1    0    0  501    0  0.00000000000E+00  0.00000000000E+00  0.22362665753E+04  0.22362665753E+04  0.00000000000E+00 0. -1.
         -2   -1    0    0    0  501 -0.00000000000E+00 -0.00000000000E+00 -0.73731584736E+01  0.73731584736E+01  0.00000000000E+00 0.  1.
         25    2    1    2    0    0 -0.22360076696E+02  0.16490042998E+01  0.18121107924E+04  0.18165612963E+04  0.12508687873E+03 0.  0.
          5    1    3    3  502    0  0.32615839940E+02 -0.41668732139E+01  0.15412310054E+03  0.15764694214E+03  0.41800000000E+01 0.  1.
         -5    1    3    3    0  502 -0.54975916637E+02  0.58158775137E+01  0.16579876918E+04  0.16589143542E+04  0.41800000000E+01 0.  1.
        -11    1    1    2    0    0 -0.32557909390E+02 -0.17147595291E+01  0.90219747904E+02  0.95929978505E+02  0.00000000000E+00 0.  1.
         11    1    1    2    0    0  0.54917986086E+02  0.65755229265E-01  0.32656287653E+03  0.33114845893E+03  0.00000000000E+00 0. -1.
</event>
<event>
 7    1  0.2841804E-009  0.1259705E+03  0.7561462E-02  0.1233560E+00
          1   -1    0    0  501    0  0.00000000000E+00  0.00000000000E+00  0.29370289345E+03  0.29370289345E+03  0.00000000000E+00 0. -1.
         -1   -1    0    0    0  501 -0.00000000000E+00 -0.00000000000E+00 -0.83628934897E+02  0.83628934897E+02  0.00000000000E+00 0.  1.
         25    2    1    2    0    0  0.14797398814E+02 -0.96520898160E+02  0.45343527587E+02  0.16504325716E+03  0.12509194398E+03 0.  0.
          5    1    3    3  502    0  0.28612294658E+02  0.10082846343E+02  0.48570373695E+02  0.57418470868E+02  0.41800000000E+01 0. -1.
         -5    1    3    3    0  502 -0.13814895844E+02 -0.10660374450E+03 -0.32268461079E+01  0.10762478629E+03  0.41800000000E+01 0. -1.
        -11    1    1    2    0    0 -0.36261682342E+02  0.75205257602E+02  0.16157862567E+03  0.18187466193E+03  0.00000000000E+00 0.  1.
         11    1    1    2    0    0  0.21464283528E+02  0.21315640558E+02  0.31518052962E+01  0.30413909258E+02  0.00000000000E+00 0. -1.
</event>
<event>
 7    1  0.2841804E-009  0.1813624E+03  0.7561462E-02  0.1166491E+00
         -2   -1    0    0    0  501 -0.00000000000E+00  0.00000000000E+00  0.44860455375E+02  0.44860455375E+02  0.00000000000E+00 0.  1.
          2   -1    0    0  501    0  0.00000000000E+00 -0.00000000000E+00 -0.13418362003E+04  0.13418362003E+04  0.00000000000E+00 0. -1.
         25    2    1    2    0    0  0.22625196982E+02 -0.15023052919E+03 -0.11175812236E+04  0.11347759377E+04  0.12509007148E+03 0.  0.
          5    1    3    3  502    0  0.27558193690E+02  0.11840013670E+02 -0.28009429230E+03  0.28172668482E+03  0.41800000000E+01 0. -1.
         -5    1    3    3    0  502 -0.49329967076E+01 -0.16207054286E+03 -0.83748693127E+03  0.85304925284E+03  0.41800000000E+01 0. -1.
        -11    1    1    2    0    0 -0.43904361222E+02  0.44957353556E+02 -0.34894144770E+02  0.71877381089E+02  0.00000000000E+00 0.  1.
         11    1    1    2    0    0  0.21279164239E+02  0.10527317564E+03 -0.14450037661E+03  0.18004333695E+03  0.00000000000E+00 0. -1.
</event>
<event>
 7    1  0.2841804E-009  0.1519360E+03  0.7561462E-02  0.1198114E+00
         -2   -1    0    0    0  501 -0.00000000000E+00  0.00000000000E+00  0.10550972106E+02  0.10550972106E+02  0.00000000000E+00 0.  1.
          2   -1    0    0  501    0  0.00000000000E+00 -0.00000000000E+00 -0.28263313816E+04  0.28263313816E+04  0.00000000000E+00 0. -1.
         25    2    1    2    0    0  0.89513077732E+02 -0.77167565685E+02 -0.20263587325E+04  0.20336531635E+04  0.12509217548E+03 0.  0.
          5    1    3    3  502    0  0.26006059392E+02 -0.87415385346E+02 -0.15832124501E+04  0.15858426464E+04  0.41800000000E+01 0. -1.
         -5    1    3    3    0  502  0.63507018339E+02  0.10247819661E+02 -0.44314628241E+03  0.44781051707E+03  0.41800000000E+01 0. -1.
        -11    1    1    2    0    0 -0.68095083101E+02  0.97269668833E+02 -0.61640943212E+03  0.62774112246E+03  0.00000000000E+00 0.  1.
         11    1    1    2    0    0 -0.21417994630E+02 -0.20102103148E+02 -0.17301224489E+03  0.17548806776E+03  0.00000000000E+00 0. -1.
</event>
<event>
 7    1  0.2841804E-009  0.1236009E+03  0.7561462E-02  0.1237272E+00
         -2   -1    0    0    0  501 -0.00000000000E+00  0.00000000000E+00  0.14067631691E+03  0.14067631691E+03  0.00000000000E+00 0.  1.
          2   -1    0    0  501    0  0.00000000000E+00 -0.00000000000E+00 -0.18374632284E+03  0.18374632284E+03  0.00000000000E+00 0. -1.
         25    2    1    2    0    0 -0.56570599041E+02 -0.68870939345E+02  0.55147187073E+02  0.16319244027E+03  0.12508845414E+03 0.  0.
          5    1    3    3  502    0 -0.63114927293E+02 -0.89562183402E+02  0.65923032787E+01  0.10984447918E+03  0.41800000000E+01 0.  1.
         -5    1    3    3    0  502  0.65443282524E+01  0.20691244058E+02  0.48554883794E+02  0.53347961097E+02  0.41800000000E+01 0.  1.
        -11    1    1    2    0    0  0.70430071734E+02  0.34563978707E+02 -0.30715307331E+02  0.84252559207E+02  0.00000000000E+00 0.  1.
         11    1    1    2    0    0 -0.13859472694E+02  0.34306960638E+02 -0.67501885678E+02  0.76977640271E+02  0.00000000000E+00 0. -1.
</event>
<event>
 7    1  0.2841804E-009  0.1101925E+03  0.7561462E-02  0.1260214E+00
          2   -1    0    0  501    0  0.00000000000E+00  0.00000000000E+00  0.23760682569E+03  0.23760682569E+03  0.00000000000E+00 0. -1.
         -2   -1    0    0    0  501 -0.00000000000E+00 -0.00000000000E+00 -0.58021039474E+02  0.58021039474E+02  0.00000000000E+00 0.  1.
         25    2    1    2    0    0 -0.17677578195E+02 -0.30309849829E+02  0.87037900849E+02  0.15637812128E+03  0.12508931555E+03 0.  0.
          5    1    3    3  502    0  0.56905757382E+01 -0.70037977694E+02  0.16976649959E+02  0.72411187088E+02  0.41800000000E+01 0. -1.
         -5    1    3    3    0  502 -0.23368153933E+02  0.39728127865E+02  0.70061250889E+02  0.83966934195E+02  0.41800000000E+01 0. -1.
        -11    1    1    2    0    0  0.56730277567E+02  0.31010612156E+02  0.63017823738E+02  0.90284154578E+02  0.00000000000E+00 0. -1.
         11    1    1    2    0    0 -0.39052699373E+02 -0.70076232695E+00  0.29530061633E+02  0.48965589307E+02  0.00000000000E+00 0.  1.
</event>
<event>
 7    1  0.2841804E-009  0.1294188E+03  0.7561462E-02  0.1228321E+00
         -1   -1    0    0    0  501 -0.00000000000E+00  0.00000000000E+00  0.66897777942E+03  0.66897777942E+03  0.00000000000E+00 0.  1.
          1   -1    0    0  501    0  0.00000000000E+00 -0.00000000000E+00 -0.29359115548E+02  0.29359115548E+02  0.00000000000E+00 0. -1.
         25    2    1    2    0    0  0.52525700152E+02 -0.70613450343E+02  0.41444865670E+03  0.44176834280E+03  0.12508545525E+03 0.  0.
          5    1    3    3  502    0 -0.31743214905E+02  0.77606887126E+01  0.52866707582E+02  0.62291421177E+02  0.41800000000E+01 0. -1.
         -5    1    3    3    0  502  0.84268915057E+02 -0.78374139055E+02  0.36158194912E+03  0.37947692162E+03  0.41800000000E+01 0. -1.
        -11    1    1    2    0    0 -0.29657219141E+02 -0.64502494559E+01  0.20356677438E+02  0.36545186845E+02  0.00000000000E+00 0. -1.
         11    1    1    2    0    0 -0.22868481011E+02  0.77063699798E+02  0.20481332974E+03  0.22002336532E+03  0.00000000000E+00 0.  1.
</event>
<event>
 7    1  0.2841804E-009  0.1792563E+03  0.7561462E-02  0.1168525E+00
          1   -1    0    0  501    0  0.00000000000E+00  0.00000000000E+00  0.26191591872E+03  0.26191591872E+03  0.00000000000E+00 0. -1.
         -1   -1    0    0    0  501 -0.00000000000E+00 -0.00000000000E+00 -0.15984355856E+03  0.15984355856E+03  0.00000000000E+00 0.  1.
         25    2    1    2    0    0 -0.87657109280E+02 -0.14700143118E+03  0.59460344032E+02  0.22017310967E+03  0.12508987222E+03 0.  0.
          5    1    3    3  502    0 -0.92139541753E+02 -0.99647731226E+02  0.90540171233E+02  0.16320036918E+03  0.41800000000E+01 0. -1.
         -5    1    3    3    0  502  0.44824324724E+01 -0.47353699951E+02 -0.31079827202E+02  0.56972740489E+02  0.41800000000E+01 0. -1.
        -11    1    1    2    0    0  0.16421973502E+02  0.61697911262E+02 -0.28212446636E+02  0.69801544488E+02  0.00000000000E+00 0.  1.
         11    1    1    2    0    0  0.71235135778E+02  0.85303519916E+02  0.70824462763E+02  0.13178482312E+03  0.00000000000E+00 0. -1.
</event>
<event>
 7    1  0.2841804E-009  0.1852409E+03  0.7561462E-02  0.1162825E+00
         -1   -1    0    0    0  501 -0.00000000000E+00  0.00000000000E+00  0.15903226603E+03  0.15903226603E+03  0.00000000000E+00 0.  1.
          1   -1    0    0  501    0  0.00000000000E+00 -0.00000000000E+00 -0.25988284430E+03  0.25988284430E+03  0.00000000000E+00 0. -1.
         25    2    1    2    0    0  0.12029925198E+03 -0.12081692987E+03 -0.86319836984E+02  0.22840102505E+03  0.12508906194E+03 0.  0.
          5    1    3    3  502    0 -0.84872713582E+01 -0.17324280827E+02  0.22952700090E+02  0.30273145239E+02  0.41800000000E+01 0. -1.
         -5    1    3    3    0  502  0.12878652334E+03 -0.10349264904E+03 -0.10927253707E+03  0.19812787981E+03  0.41800000000E+01 0. -1.
        -11    1    1    2    0    0 -0.10965529046E+03  0.62548883415E+02  0.94897652402E+01  0.12659660812E+03  0.00000000000E+00 0.  1.
         11    1    1    2    0    0 -0.10643961514E+02  0.58268046450E+02 -0.24020506526E+02  0.63917477168E+02  0.00000000000E+00 0. -1.
</event>
<event>
 7    1  0.2841804E-009  0.9267625E+02  0.7561462E-02  0.1296497E+00
         -2   -1    0    0    0  501 -0.00000000000E+00  0.00000000000E+00  0.16603978649E+02  0.16603978649E+02  0.00000000000E+00 0.  1.
          2   -1    0    0  501    0  0.00000000000E+00 -0.00000000000E+00 -0.75812631702E+03  0.75812631702E+03  0.00000000000E+00 0. -1.
         25    2    1    2    0    0 -0.25654885041E+02 -0.20278563630E+02 -0.39315343058E+03  0.41386722576E+03  0.12508823812E+03 0.  0.
          5    1    3    3  502    0  0.32070903010E+02  0.69097570159E+01 -0.29418505138E+03  0.29603818067E+03  0.41800000000E+01 0. -1.
         -5    1    3    3    0  502 -0.57725788051E+02 -0.27188320646E+02 -0.98968379201E+02  0.11782904509E+03  0.41800000000E+01 0. -1.
        -11    1    1    2    0    0 -0.27544354616E+02  0.21780363108E+02 -0.81562379858E+02  0.88800323741E+02  0.00000000000E+00 0.  1.
         11    1    1    2    0    0  0.53199239657E+02 -0.15017994785E+01 -0.26680652794E+03  0.27206274617E+03  0.00000000000E+00 0. -1.
</event>
<event>
 7    1  0.2841804E-009  0.2565668E+03  0.7561462E-02  0.1109224E+00
          1   -1    0    0  501    0  0.00000000000E+00  0.00000000000E+00  0.19756069467E+04  0.19756069467E+04  0.00000000000E+00 0. -1.
         -1   -1    0    0    0  501 -0.00000000000E+00 -0.00000000000E+00 -0.37519735366E+02  0.37519735366E+02  0.00000000000E+00 0.  1.
         25    2    1    2    0    0 -0.12053517901E+03  0.21626083417E+03  0.87054986401E+03  0.91367429813E+03  0.12508468958E+03 0.  0.
          5    1    3    3  502    0 -0.97541038313E+02  0.13810404811E+03  0.74495061830E+03  0.76390829185E+03  0.41800000000E+01 0.  1.
         -5    1    3    3    0  502 -0.22994140692E+02  0.78156786061E+02  0.12559924571E+03  0.14976600628E+03  0.41800000000E+01 0.  1.
        -11    1    1    2    0    0  0.10425150333E+03 -0.98096649698E+02  0.54661766924E+03  0.56505062158E+03  0.00000000000E+00 0.  1.
         11    1    1    2    0    0  0.16283675676E+02 -0.11816418447E+03  0.52091967810E+03  0.53440176236E+03  0.00000000000E+00 0. -1.
</event>
<event>
 7    1  0.2841804E-009  0.5947422E+02  0.7561462E-02  0.1400052E+00
         -1   -1    0    0    0  501 -0.00000000000E+00  0.00000000000E+00  0.57458268024E+02  0.57458268024E+02  0.00000000000E+00 0.  1.
          1   -1    0    0  501    0  0.00000000000E+00 -0.00000000000E+00 -0.21822453467E+03  0.21822453467E+03  0.00000000000E+00 0. -1.
         25    2    1    2    0    0  0.15677850785E+02 -0.89372983555E+01 -0.12016131403E+03  0.17439068737E+03  0.12509076763E+03 0.  0.
          5    1    3    3  502    0 -0.21162339349E+02  0.22745918441E+02  0.11962746172E+02  0.33552959756E+02  0.41800000000E+01 0.  1.
         -5    1    3    3    0  502  0.36840190134E+02 -0.31683216796E+02 -0.13212406020E+03  0.14083772761E+03  0.41800000000E+01 0.  1.
        -11    1    1    2    0    0 -0.25469224439E+02 -0.15359399917E+00  0.24194558221E+02  0.35129498034E+02  0.00000000000E+00 0.  1.
         11    1    1    2    0    0  0.97913736536E+01  0.90908923547E+01 -0.64799510841E+02  0.66162617293E+02  0.00000000000E+00 0. -1.
</event>
<event>
 7    1  0.2841804E-009  0.9185383E+02  0.7561462E-02  0.1298423E+00
         -1   -1    0    0    0  501 -0.00000000000E+00  0.00000000000E+00  0.12811975960E+03  0.12811975960E+03  0.00000000000E+00 0.  1.
          1   -1    0    0  501    0  0.00000000000E+00 -0.00000000000E+00 -0.16175822887E+03  0.16175822887E+03  0.00000000000E+00 0. -1.
         25    2    1    2    0    0  0.87149172752E+02 -0.16793142235E+02  0.74266553178E+01  0.15355545487E+03  0.12508850696E+03 0.  0.
          5    1    3    3  502    0  0.72572421944E+02 -0.25873602092E+02  0.60222429029E+02  0.97879584543E+02  0.41800000000E+01 0.  1.
         -5    1    3    3    0  502  0.14576750807E+02  0.90804598572E+01 -0.52795773711E+02  0.55675870330E+02  0.41800000000E+01 0.  1.
        -11    1    1    2    0    0 -0.75919181631E+02  0.13032911194E+02 -0.70607999305E+02  0.10449434664E+03  0.00000000000E+00 0. -1.
         11    1    1    2    0    0 -0.11229991121E+02  0.37602310412E+01  0.29542874721E+02  0.31828186955E+02  0.00000000000E+00 0.  1.
</event>
<event>
 7    1  0.2841804E-009  0.1610714E+03  0.7561462E-02  0.1187492E+00
          2   -1    0    0  501    0  0.00000000000E+00  0.00000000000E+00  0.57085646109E+03  0.57085646109E+03  0.00000000000E+00 0. -1.
         -2   -1    0    0    0  501 -0.00000000000E+00 -0.00000000000E+00 -0.50566524208E+02  0.50566524208E+02  0.00000000000E+00 0.  1.
         25    2    1    2    0    0 -0.39905637267E+02 -0.12256144953E+03  0.31841657233E+03  0.36558382639E+03  0.12509457138E+03 0.  0.
          5    1    3    3  502    0 -0.62862309522E+02 -0.28516268009E+02  0.20532909890E+03  0.21666185348E+03  0.41800000000E+01 0.  1.
         -5    1    3    3    0  502  0.22956672255E+02 -0.94045181520E+02  0.11308747343E+03  0.14892197291E+03  0.41800000000E+01 0.  1.
        -11    1    1    2    0    0 -0.18662434060E+02 -0.16796894984E+01  0.35068275358E+02  0.39760429304E+02  0.00000000000E+00 0. -1.
         11    1    1    2    0    0  0.58568071327E+02  0.12424113903E+03  0.16680508920E+03  0.21607872961E+03  0.00000000000E+00 0.  1.
</event>
<event>
 7    1  0.2841804E-009  0.1479393E+03  0.7561462E-02  0.1203028E+00
         -2   -1    0    0    0  501 -0.00000000000E+00  0.00000000000E+00  0.10598274044E+03  0.10598274044E+03  0.00000000000E+00 0.  1.
          2   -1    0    0  501    0  0.00000000000E+00 -0.00000000000E+00 -0.33246910529E+03  0.33246910529E+03  0.00000000000E+00 0. -1.
         25    2    1    2    0    0 -0.46864349576E+02 -0.11061069647E+03 -0.83929012032E+01  0.17363505197E+03  0.12509075524E+03 0.  0.
          5    1    3    3  502    0  0.27147573319E+02 -0.59559008822E+02 -0.41632350224E+02  0.77685206147E+02  0.41800000000E+01 0. -1.
         -5    1    3    3    0  502 -0.74011922895E+02 -0.51051687646E+02  0.33239449020E+02  0.95949845822E+02  0.41800000000E+01 0. -1.
        -11    1    1    2    0    0  0.66135112935E+02  0.93407981484E+02 -0.13090568118E+03  0.17388272351E+03  0.00000000000E+00 0.  1.
         11    1    1    2    0    0 -0.19270763359E+02  0.17202714984E+02 -0.87187782461E+02  0.90934070259E+02  0.00000000000E+00 0. -1.
</event>
<event>
 7    1  0.2841804E-009  0.7549403E+02  0.7561462E-02  0.1342348E+00
         -2   -1    0    0    0  501 -0.00000000000E+00  0.00000000000E+00  0.75824685701E+03  0.75824685701E+03  0.00000000000E+00 0.  1.
          2   -1    0    0  501    0  0.00000000000E+00 -0.00000000000E+00 -0.19373369361E+02  0.19373369361E+02  0.00000000000E+00 0. -1.
         25    2    1    2    0    0  0.49041323633E+02 -0.24637189558E+02  0.40197320184E+03  0.42454921800E+03  0.12509013139E+03 0.  0.
          5    1    3    3  502    0  0.26246772583E+02  0.79536465579E+01  0.84516914593E+01  0.29000983657E+02  0.41800000000E+01 0. -1.
         -5    1    3    3    0  502  0.22794551051E+02 -0.32590836116E+02  0.39352151038E+03  0.39554823434E+03  0.41800000000E+01 0. -1.
        -11    1    1    2    0    0 -0.22550543916E+01 -0.19086208340E+02  0.13735462435E+02  0.23622691366E+02  0.00000000000E+00 0. -1.
         11    1    1    2    0    0 -0.46786269242E+02  0.43723397898E+02  0.32316482337E+03  0.32944831701E+03  0.00000000000E+00 0.  1.
</event>
<event>
 7    1  0.4160309E-009  0.1292799E+03  0.7561462E-02  0.1228528E+00
          2   -1    0    0  501    0  0.00000000000E+00  0.00000000000E+00  0.76390186861E+03  0.76390186861E+03  0.00000000000E+00 0. -1.
         -2   -1    0    0    0  501 -0.00000000000E+00 -0.00000000000E+00 -0.31509267050E+02  0.31509267050E+02  0.00000000000E+00 0.  1.
         25    2    1    2    0    0 -0.50606502730E+02 -0.94043384671E+02  0.46815253978E+03  0.49621072435E+03  0.12511237403E+03 0.  0.
          5    1    3    3  502    0 -0.83576106792E+02 -0.62674448340E+02  0.21625764244E+03  0.24020385596E+03  0.41800000000E+01 0.  1.
         -5    1    3    3    0  502  0.32969604063E+02 -0.31368936331E+02  0.25189489734E+03  0.25600686839E+03  0.41800000000E+01 0.  1.
        -11    1    1    2    0    0  0.27147855481E+02  0.31905853009E+02  0.20626758962E+02  0.46695317738E+02  0.00000000000E+00 0. -1.
         11    1    1    2    0    0  0.23458647249E+02  0.62137531663E+02  0.24361330281E+03  0.25250509357E+03  0.00000000000E+00 0.  1.
</event>
<event>
 7    1  0.2841804E-009  0.1182597E+03  0.7561462E-02  0.1245996E+00
          2   -1    0    0  501    0  0.00000000000E+00  0.00000000000E+00  0.31921102075E+03  0.31921102075E+03  0.00000000000E+00 0. -1.
         -2   -1    0    0    0  501 -0.00000000000E+00 -0.00000000000E+00 -0.81292483435E+02  0.81292483435E+02  0.00000000000E+00 0.  1.
         25    2    1    2    0    0 -0.54959955497E+02  0.85810720001E+02  0.51138259726E+02  0.16924782442E+03  0.12508248514E+03 0.  0.
          5    1    3    3  502    0 -0.51053305291E+02  0.74047233267E+02  0.90565785611E+02  0.12770695619E+03  0.41800000000E+01 0. -1.
         -5    1    3    3    0  502 -0.39066502065E+01  0.11763486734E+02 -0.39427525886E+02  0.41540868232E+02  0.41800000000E+01 0. -1.
        -11    1    1    2    0    0 -0.10013960269E+02  0.12215739377E+02  0.92480293347E+01  0.18303817508E+02  0.00000000000E+00 0. -1.
         11    1    1    2    0    0  0.64973915766E+02 -0.98026459378E+02  0.17753224826E+03  0.21295186226E+03  0.00000000000E+00 0.  1.
</event>
<event>
 6    1  0.2841804E-009  0.1116995E+03  0.7561462E-02  0.1257455E+00
          2   -1    0    0  501    0  0.00000000000E+00  0.00000000000E+00  0.15033078904E+03  0.15033078904E+03  0.00000000000E+00 0.  1.
         -2   -1    0    0    0  501 -0.00000000000E+00 -0.00000000000E+00 -0.10489420933E+03  0.10489420933E+03  0.00000000000E+00 0. -1.
          5    1    1    2  502    0 -0.33654894822E+02 -0.76742064108E+02 -0.41203481166E+01  0.84002654825E+02  0.41800000000E+01 0. -1.
         -5    1    1    2    0  502 -0.28571205418E+02  0.39274741507E+02  0.42933889548E+02  0.64958528087E+02  0.41800000000E+01 0. -1.
        -11    1    1    2    0    0  0.40245512141E+01  0.32044817641E+02  0.29260053307E+02  0.43580019156E+02  0.00000000000E+00 0.  1.
         11    1    1    2    0    0  0.58201549026E+02  0.54225049598E+01 -0.22637015034E+02  0.62683796301E+02  0.00000000000E+00 0. -1.
</event>
<event>
 7    1  0.2841804E-009  0.1609203E+03  0.7561462E-02  0.1187662E+00
          1   -1    0    0  501    0  0.00000000000E+00  0.00000000000E+00  0.83344914348E+03  0.83344914348E+03  0.00000000000E+00 0. -1.
         -1   -1    0    0    0  501 -0.00000000000E+00 -0.00000000000E+00 -0.10261580708E+03  0.10261580708E+03  0.00000000000E+00 0.  1.
         25    2    1    2    0    0  0.35392118793E+02 -0.13273580536E+03 -0.11372113500E+01  0.18580982719E+03  0.12511036141E+03 0.  0.
          5    1    3    3  502    0  0.75602998747E+02 -0.92315516967E+02  0.26515549033E+02  0.12230500739E+03  0.41800000000E+01 0.  1.
         -5    1    3    3    0  502 -0.40210879954E+02 -0.40420288395E+02 -0.27652760383E+02  0.63504819797E+02  0.41800000000E+01 0.  1.
        -11    1    1    2    0    0 -0.15095350496E+02  0.12078091076E+03  0.70021952815E+03  0.71072025834E+03  0.00000000000E+00 0. -1.
         11    1    1    2    0    0 -0.20296768297E+02  0.11954894600E+02  0.31751019597E+02  0.39534865039E+02  0.00000000000E+00 0.  1.
</event>
<event>
 7    1  0.2841804E-009  0.1897118E+03  0.7561462E-02  0.1158721E+00
         -2   -1    0    0    0  501 -0.00000000000E+00  0.00000000000E+00  0.44101853228E+02  0.44101853228E+02  0.00000000000E+00 0.  1.
          2   -1    0    0  501    0  0.00000000000E+00 -0.00000000000E+00 -0.10876912737E+04  0.10876912737E+04  0.00000000000E+00 0. -1.
         25    2    1    2    0    0 -0.11185921089E+03 -0.15112973388E+03 -0.63165465912E+03  0.67081169695E+03  0.12509214548E+03 0.  0.
          5    1    3    3  502    0 -0.79941369560E+02 -0.89746979276E+02 -0.19805752433E+03  0.23170972832E+03  0.41800000000E+01 0. -1.
         -5    1    3    3    0  502 -0.31917841327E+02 -0.61382754603E+02 -0.43359713479E+03  0.43910196863E+03  0.41800000000E+01 0. -1.
        -11    1    1    2    0    0  0.40382696961E+02  0.76564842607E+02 -0.99334077793E+02  0.13175809785E+03  0.00000000000E+00 0.  1.
         11    1    1    2    0    0  0.71476513926E+02  0.74564891272E+02 -0.31260068355E+03  0.32922333212E+03  0.00000000000E+00 0. -1.
</event>
<event>
 7    1  0.2841804E-009  0.1273074E+03  0.7561462E-02  0.1231507E+00
          1   -1    0    0  501    0  0.00000000000E+00  0.00000000000E+00  0.18133692084E+03  0.18133692084E+03  0.00000000000E+00 0. -1.
         -1   -1    0    0    0  501 -0.00000000000E+00 -0.00000000000E+00 -0.11697042334E+03  0.11697042334E+03  0.00000000000E+00 0.  1.
         25    2    1    2    0    0 -0.44108519527E+02 -0.86310990582E+02  0.33776507873E+02  0.16181705688E+03  0.12509499920E+03 0.  0.
          5    1    3    3  502    0 -0.19859808471E+02  0.31316790041E+02  0.14840058628E+02  0.40160342018E+02  0.41800000000E+01 0.  1.
         -5    1    3    3    0  502 -0.24248711056E+02 -0.11762778062E+03  0.18936449245E+02  0.12165671487E+03  0.41800000000E+01 0.  1.
        -11    1    1    2    0    0  0.41092735457E+02  0.76227488595E+02 -0.16570808052E+02  0.88169351843E+02  0.00000000000E+00 0.  1.
         11    1    1    2    0    0  0.30157840695E+01  0.10083501987E+02  0.47160797677E+02  0.48320935456E+02  0.00000000000E+00 0. -1.
</event>
<event>
 7    1  0.2841804E-009  0.1637260E+03  0.7561462E-02  0.1184553E+00
         -2   -1    0    0    0  501 -0.00000000000E+00  0.00000000000E+00  0.27821606691E+03  0.27821606691E+03  0.00000000000E+00 0.  1.
          2   -1    0    0  501    0  0.00000000000E+00 -0.00000000000E+00 -0.18027853427E+03  0.18027853427E+03  0.00000000000E+00 0. -1.
         25    2    1    2    0    0 -0.13467732539E+03  0.60798045655E+02 -0.79635148664E+02  0.20934442908E+03  0.12509575835E+03 0.  0.
          5    1    3    3  502    0 -0.14892446051E+03  0.41592827236E+02 -0.35084234771E+02  0.15860906073E+03  0.41800000000E+01 0.  1.
         -5    1    3    3    0  502  0.14247135121E+02  0.19205218419E+02 -0.44550913894E+02  0.50735368358E+02  0.41800000000E+01 0.  1.
        -11    1    1    2    0    0  0.57363570084E+02 -0.33931671375E+02  0.16785400208E+02  0.68729085220E+02  0.00000000000E+00 0. -1.
         11    1    1    2    0    0  0.77313755304E+02 -0.26866374280E+02  0.16078728109E+03  0.18042108687E+03  0.00000000000E+00 0.  1.
</event>
<event>
 7    1  0.2841804E-009  0.1130285E+03  0.7561462E-02  0.1255062E+00
         -2   -1    0    0    0  501 -0.00000000000E+00  0.00000000000E+00  0.39586538660E+02  0.39586538660E+02  0.00000000000E+00 0.  1.
          2   -1    0    0  501    0  0.00000000000E+00 -0.00000000000E+00 -0.47016269273E+03  0.47016269273E+03  0.00000000000E+00 0. -1.
         25    2    1    2    0    0 -0.53949718383E+02 -0.30981114771E+00 -0.12061584748E+03  0.18192294990E+03  0.12504842638E+03 0.  0.
          5    1    3    3  502    0 -0.14737921881E+02  0.51842285734E+02 -0.12357754180E+02  0.55452821569E+02  0.41800000000E+01 0. -1.
         -5    1    3    3    0  502 -0.39211796501E+02 -0.52152096882E+02 -0.10825809330E+03  0.12647012833E+03  0.41800000000E+01 0. -1.
        -11    1    1    2    0    0 -0.62816598579E+01 -0.35828548779E+02 -0.98207840169E+02  0.10472785699E+03  0.00000000000E+00 0.  1.
         11    1    1    2    0    0  0.60231378240E+02  0.36138359927E+02 -0.21175246642E+03  0.22309842450E+03  0.00000000000E+00 0. -1.
</event>
<event>
 7    1  0.2841804E-009  0.9135920E+02  0.7561462E-02  0.1299593E+00
          1   -1    0    0  501    0  0.00000000000E+00  0.00000000000E+00  0.80340346221E+02  0.80340346221E+02  0.00000000000E+00 0.  1.
         -1   -1    0    0    0  501 -0.00000000000E+00 -0.00000000000E+00 -0.16608858165E+03  0.16608858165E+03  0.00000000000E+00 0. -1.
         25    2    1    2    0    0 -0.77080120677E+01  0.41354080047E+02 -0.48879419799E+02  0.14073809367E+03  0.12509372463E+03 0.  0.
          5    1    3    3  502    0 -0.46899064310E+02  0.22403527373E+02 -0.73831380667E+02  0.90387971783E+02  0.41800000000E+01 0. -1.
         -5    1    3    3    0  502  0.39191052242E+02  0.18950552674E+02  0.24951960869E+02  0.50350121884E+02  0.41800000000E+01 0. -1.
        -11    1    1    2    0    0  0.38434822307E+02 -0.40882113319E+02 -0.47144013686E+02  0.73288067116E+02  0.00000000000E+00 0.  1.
         11    1    1    2    0    0 -0.30726810239E+02 -0.47196672761E+00  0.10275198053E+02  0.32402767090E+02  0.00000000000E+00 0. -1.
</event>
<event>
 7    1  0.2841804E-009  0.1479135E+03  0.7561462E-02  0.1203061E+00
          2   -1    0    0  501    0  0.00000000000E+00  0.00000000000E+00  0.54140479090E+03  0.54140479090E+03  0.00000000000E+00 0.  1.
         -2   -1    0    0    0  501 -0.00000000000E+00 -0.00000000000E+00 -0.45067616854E+02  0.45067616854E+02  0.00000000000E+00 0. -1.
         25    2    1    2    0    0  0.99749284904E+02 -0.48312652660E+02  0.23735238456E+03  0.29028997260E+03  0.12509229189E+03 0.  0.
          5    1    3    3  502    0  0.11027601874E+03 -0.68286542232E+01  0.21514217365E+03  0.24189059120E+03  0.41800000000E+01 0. -1.
         -5    1    3    3    0  502 -0.10526733839E+02 -0.41483998437E+02  0.22210210915E+02  0.48399381406E+02  0.41800000000E+01 0. -1.
        -11    1    1    2    0    0 -0.10943108169E+03  0.18590394862E+02  0.21805597486E+03  0.24468177822E+03  0.00000000000E+00 0.  1.
         11    1    1    2    0    0  0.96817967873E+01  0.29722257798E+02  0.40928814622E+02  0.51500656928E+02  0.00000000000E+00 0. -1.
</event>
<event>
 7    1  0.3398590E-009  0.9355034E+02  0.7561462E-02  0.1294475E+00
          2   -1    0    0  501    0  0.00000000000E+00  0.00000000000E+00  0.39511467039E+03  0.39511467039E+03  0.00000000000E+00 0. -1.
         -2   -1    0    0    0  501 -0.00000000000E+00 -0.00000000000E+00 -0.37533306058E+02  0.37533306058E+02  0.00000000000E+00 0.  1.
         25    2    1    2    0    0  0.27991525942E+02  0.28463738561E+02  0.27138016307E+03  0.30147623570E+03  0.12508804038E+03 0.  0.
          5    1    3    3  502    0 -0.42790540662E+02  0.36259065910E+02  0.15597048257E+03  0.16580112806E+03  0.41800000000E+01 0.  1.
         -5    1    3    3    0  502  0.70782066604E+02 -0.77953273495E+01  0.11540968050E+03  0.13567510765E+03  0.41800000000E+01 0.  1.
        -11    1    1    2    0    0  0.61016840842E+01 -0.24446495598E+02 -0.11439725768E+02  0.27671809145E+02  0.00000000000E+00 0.  1.
         11    1    1    2    0    0 -0.34093210026E+02 -0.40172429627E+01  0.97640927024E+02  0.10349993160E+03  0.00000000000E+00 0. -1.
</event>
<event>
 7    1  0.2841804E-009  0.2221743E+03  0.7561462E-02  0.1132272E+00
          2   -1    0    0  501    0  0.00000000000E+00  0.00000000000E+00  0.13577485909E+03  0.13577485909E+03  0.00000000000E+00 0. -1.
         -2   -1    0    0    0  501 -0.00000000000E+00 -0.00000000000E+00 -0.44770036862E+03  0.44770036862E+03  0.00000000000E+00 0.  1.
         25    2    1    2    0    0 -0.15002245308E+03  0.16135295143E+03 -0.18016076185E+03  0.31088146010E+03  0.12509144960E+03 0.  0.
          5    1    3    3  502    0 -0.10942802747E+03  0.13208604187E+03 -0.61902899826E+02  0.18240245903E+03  0.41800000000E+01 0. -1.
         -5    1    3    3    0  502 -0.40594425608E+02  0.29266909552E+02 -0.11825786202E+03  0.12847900107E+03  0.41800000000E+01 0. -1.
        -11    1    1    2    0    0  0.12902791022E+03 -0.12013991371E+03 -0.14060647433E+03  0.22550383834E+03  0.00000000000E+00 0.  1.
         11    1    1    2    0    0  0.20994542862E+02 -0.41213037715E+02  0.88417266491E+01  0.47089929262E+02  0.00000000000E+00 0. -1.
</event>
<event>
 7    1  0.2841804E-009  0.1440405E+03  0.7561462E-02  0.1207993E+00
          1   -1    0    0  501    0  0.00000000000E+00  0.00000000000E+00  0.28328310852E+03  0.28328310852E+03  0.00000000000E+00 0. -1.
         -1   -1    0    0    0  501 -0.00000000000E+00 -0.00000000000E+00 -0.98631820512E+02  0.98631820512E+02  0.00000000000E+00 0.  1.
         25    2    1    2    0    0  0.19007430049E+01  0.10412397427E+03  0.17999025278E+03  0.24267318604E+03  0.12509344220E+03 0.  0.
          5    1    3    3  502    0  0.59584395930E+02  0.58043060128E+02  0.12630088913E+03  0.15129006597E+03  0.41800000000E+01 0. -1.
         -5    1    3    3    0  502 -0.57683652925E+02  0.46080914143E+02  0.53689363653E+02  0.91383120063E+02  0.41800000000E+01 0. -1.
        -11    1    1    2    0    0  0.32568021516E+02 -0.16134119565E+02 -0.20124735374E+02  0.41545045595E+02  0.00000000000E+00 0.  1.
         11    1    1    2    0    0 -0.34468764521E+02 -0.87989854706E+02  0.24785770599E+02  0.97696697400E+02  0.00000000000E+00 0. -1.
</event>
<event>
 7    1  0.2841804E-009  0.1069363E+03  0.7561462E-02  0.1266351E+00
         -1   -1    0    0    0  501 -0.00000000000E+00  0.00000000000E+00  0.17481209731E+02  0.17481209731E+02  0.00000000000E+00 0.  1.
          1   -1    0    0  501    0  0.00000000000E+00 -0.00000000000E+00 -0.12334306730E+04  0.12334306730E+04  0.00000000000E+00 0. -1.
         25    2    1    2    0    0  0.28029748675E+02  0.31364133493E+02 -0.10410258773E+04  0.10493586806E+04  0.12509751240E+03 0.  0.
          5    1    3    3  502    0 -0.34118666871E+02  0.37839853711E+02 -0.74650670634E+03  0.74825508549E+03  0.41800000000E+01 0. -1.
         -5    1    3    3    0  502  0.62148415546E+02 -0.64757202176E+01 -0.29451917099E+03  0.30110359511E+03  0.41800000000E+01 0. -1.
        -11    1    1    2    0    0 -0.41887660603E+02 -0.57147562240E+02 -0.12408962234E+03  0.14289385695E+03  0.00000000000E+00 0. -1.
         11    1    1    2    0    0  0.13857911928E+02  0.25783428747E+02 -0.50833963550E+02  0.58659345131E+02  0.00000000000E+00 0.  1.
</event>
<event>
 7    1  0.2841804E-009  0.1995239E+03  0.7561462E-02  0.1150141E+00
         -1   -1    0    0    0  501 -0.00000000000E+00  0.00000000000E+00  0.23618478879E+02  0.23618478879E+02  0.00000000000E+00 0.  1.
          1   -1    0    0  501    0  0.00000000000E+00 -0.00000000000E+00 -0.29172819868E+04  0.29172819868E+04  0.00000000000E+00 0. -1.
         25    2    1    2    0    0  0.12049525530E+03  0.13467529961E+03 -0.23691280596E+04  0.23793006728E+04  0.12508951176E+03 0.  0.
          5    1    3    3  502    0  0.61497275039E+02  0.12860173741E+03 -0.20297484702E+04  0.20347522322E+04  0.41800000000E+01 0.  1.
         -5    1    3    3    0  502  0.58997980260E+02  0.60735621983E+01 -0.33937958942E+03  0.34454844064E+03  0.41800000000E+01 0.  1.
        -11    1    1    2    0    0 -0.84920651389E+02 -0.13715800856E+03 -0.38189643054E+03  0.41457052477E+03  0.00000000000E+00 0.  1.
         11    1    1    2    0    0 -0.35574603910E+02  0.24827089539E+01 -0.14263901778E+03  0.14702926811E+03  0.00000000000E+00 0. -1.
</event>
<event>
 7    1  0.2841804E-009  0.1481200E+03  0.7561462E-02  0.1202802E+00
         -1   -1    0    0    0  501 -0.00000000000E+00  0.00000000000E+00  0.14615430523E+03  0.14615430523E+03  0.00000000000E+00 0.  1.
          1   -1    0    0  501    0  0.00000000000E+00 -0.00000000000E+00 -0.22084016352E+03  0.22084016352E+03  0.00000000000E+00 0. -1.
         25    2    1    2    0    0 -0.12054311108E+03 -0.52194217689E+01  0.36997091321E+02  0.17769152489E+03  0.12509040434E+03 0.  0.
          5    1    3    3  502    0 -0.12047072182E+03  0.25058739608E+02 -0.79047084862E+01  0.12337379001E+03  0.41800000000E+01 0.  1.
         -5    1    3    3    0  502 -0.72389267384E-01 -0.30278161377E+02  0.44901799807E+02  0.54317734880E+02  0.41800000000E+01 0.  1.
        -11    1    1    2    0    0  0.70363467364E+02 -0.34679700284E+02 -0.94723624442E+02  0.12298887827E+03  0.00000000000E+00 0.  1.
         11    1    1    2    0    0  0.50179643719E+02  0.39899122053E+02 -0.16959325168E+02  0.66314065586E+02  0.00000000000E+00 0. -1.
</event>
<event>
 7    1  0.2841804E-009  0.1682531E+03  0.7561462E-02  0.1179682E+00
         -2   -1    0    0    0  501 -0.00000000000E+00  0.00000000000E+00  0.23120192821E+02  0.23120192821E+02  0.00000000000E+00 0. -1.
          2   -1    0    0  501    0  0.00000000000E+00 -0.00000000000E+00 -0.13038473611E+04  0.13038473611E+04  0.00000000000E+00 0.  1.
         25    2    1    2    0    0  0.11030487060E+03  0.76755956971E+02 -0.73848461755E+03  0.76096394944E+03  0.12509180862E+03 0.  0.
          5    1    3    3  502    0  0.11208698051E+03  0.15291790125E+02 -0.35656693571E+03  0.37410530882E+03  0.41800000000E+01 0. -1.
         -5    1    3    3    0  502 -0.17821099092E+01  0.61464166847E+02 -0.38191768184E+03  0.38685864062E+03  0.41800000000E+01 0. -1.
        -11    1    1    2    0    0 -0.10898974998E+03 -0.27509739465E+02 -0.39868130405E+03  0.41422497941E+03  0.00000000000E+00 0. -1.
         11    1    1    2    0    0 -0.13151206202E+01 -0.49246217506E+02 -0.14356124672E+03  0.15177862511E+03  0.00000000000E+00 0.  1.
</event>
<event>
 7    1  0.2841804E-009  0.1423207E+03  0.7561462E-02  0.1210240E+00
          3   -1    0    0  501    0  0.00000000000E+00  0.00000000000E+00  0.20083444213E+03  0.20083444213E+03  0.00000000000E+00 0. -1.
         -3   -1    0    0    0  501 -0.00000000000E+00 -0.00000000000E+00 -0.15924284371E+03  0.15924284371E+03  0.00000000000E+00 0.  1.
         25    2    1    2    0    0 -0.12678193358E+03 -0.55923677042E+02 -0.76915151067E+01  0.18683648286E+03  0.12509034970E+03 0.  0.
          5    1    3    3  502    0 -0.24940852498E+02  0.39381727338E+01 -0.54099045131E+02  0.59847593201E+02  0.41800000000E+01 0.  1.
         -5    1    3    3    0  502 -0.10184108108E+03 -0.59861849776E+02  0.46407530024E+02  0.12698888966E+03  0.41800000000E+01 0.  1.
        -11    1    1    2    0    0  0.14830005302E+02 -0.17066970101E+01  0.44827114707E+02  0.47247350030E+02  0.00000000000E+00 0. -1.
         11    1    1    2    0    0  0.11195192828E+03  0.57630374053E+02  0.44559988264E+01  0.12599345294E+03  0.00000000000E+00 0.  1.
</event>
<event>
 7    1  0.3177289E-009  0.1323389E+03  0.7561462E-02  0.1224026E+00
          1   -1    0    0  501    0  0.00000000000E+00  0.00000000000E+00  0.22075044605E+03  0.22075044605E+03  0.00000000000E+00 0. -1.
         -1   -1    0    0    0  501 -0.00000000000E+00 -0.00000000000E+00 -0.13902547508E+03  0.13902547508E+03  0.00000000000E+00 0.  1.
         25    2    1    2    0    0 -0.78970628184E+02 -0.92598802260E+02  0.10779235796E+03  0.20512772814E+03  0.12508914470E+03 0.  0.
          5    1    3    3  502    0 -0.24553381148E+01  0.10440199164E+02 -0.20564087318E+02  0.23566512917E+02  0.41800000000E+01 0. -1.
         -5    1    3    3    0  502 -0.76515290069E+02 -0.10303900142E+03  0.12835644527E+03  0.18156121522E+03  0.41800000000E+01 0. -1.
        -11    1    1    2    0    0  0.40174028849E+02  0.26543110882E+02  0.32607962048E+02  0.58152975144E+02  0.00000000000E+00 0. -1.
         11    1    1    2    0    0  0.38796599335E+02  0.66055691379E+02 -0.58675349038E+02  0.96495217851E+02  0.00000000000E+00 0.  1.
</event>
<event>
 7    1  0.2841804E-009  0.1007584E+03  0.7561462E-02  0.1278709E+00
         -1   -1    0    0    0  501 -0.00000000000E+00  0.00000000000E+00  0.41708256500E+02  0.41708256500E+02  0.00000000000E+00 0.  1.
          1   -1    0    0  501    0  0.00000000000E+00 -0.00000000000E+00 -0.35958609127E+03  0.35958609127E+03  0.00000000000E+00 0. -1.
         25    2    1    2    0    0  0.30221592031E+02 -0.22604115665E+00 -0.98005598275E+02  0.16175487152E+03  0.12508455319E+03 0.  0.
          5    1    3    3  502    0  0.10116744709E+02  0.55524977211E+02 -0.83031759463E+02  0.10048441221E+03  0.41800000000E+01 0.  1.
         -5    1    3    3    0  502  0.20104847322E+02 -0.55751018368E+02 -0.14973838813E+02  0.61270459307E+02  0.41800000000E+01 0.  1.
        -11    1    1    2    0    0 -0.48523595374E+02 -0.24809851117E+02 -0.18505652348E+03  0.19291444970E+03  0.00000000000E+00 0. -1.
         11    1    1    2    0    0  0.18302003344E+02  0.25035892274E+02 -0.34815713015E+02  0.46625026553E+02  0.00000000000E+00 0.  1.
</event>
<event>
 7    1  0.2841804E-009  0.1637023E+03  0.7561462E-02  0.1184579E+00
          1   -1    0    0  501    0  0.00000000000E+00  0.00000000000E+00  0.59448140124E+03  0.59448140124E+03  0.00000000000E+00 0.  1.
         -1   -1    0    0    0  501 -0.00000000000E+00 -0.00000000000E+00 -0.63768484360E+02  0.63768484360E+02  0.00000000000E+00 0. -1.
         25    2    1    2    0    0  0.10798865932E+03 -0.11120291132E+03  0.33813033218E+03  0.39243865182E+03  0.12509330866E+03 0.  0.
          5    1    3    3  502    0  0.89503254925E+01  0.11169677029E+02 -0.43100070058E+01  0.15521551847E+02  0.41800000000E+01 0. -1.
         -5    1    3    3    0  502  0.99038333830E+02 -0.12237258835E+03  0.34244033919E+03  0.37691709997E+03  0.41800000000E+01 0. -1.
        -11    1    1    2    0    0 -0.53295483952E+02  0.55322226837E+02  0.16652939791E+03  0.18339301448E+03  0.00000000000E+00 0.  1.
         11    1    1    2    0    0 -0.54693175370E+02  0.55880684482E+02  0.26053186779E+02  0.82418219294E+02  0.00000000000E+00 0. -1.
</event>
<event>
 7    1  0.2841804E-009  0.1392800E+03  0.7561462E-02  0.1214301E+00
         -1   -1    0    0    0  501 -0.00000000000E+00  0.00000000000E+00  0.40324138915E+03  0.40324138915E+03  0.00000000000E+00 0.  1.
          1   -1    0    0  501    0  0.00000000000E+00 -0.00000000000E+00 -0.73452125780E+02  0.73452125780E+02  0.00000000000E+00 0. -1.
         25    2    1    2    0    0  0.11728226829E+03 -0.26700859023E+01  0.25932045362E+03  0.31089777122E+03  0.12509223264E+03 0.  0.
          5    1    3    3  502    0  0.71008375002E+02 -0.36283769730E+02  0.50811757451E+02  0.94646755684E+02  0.41800000000E+01 0. -1.
         -5    1    3    3    0  502  0.46273893289E+02  0.33613683828E+02  0.20850869617E+03  0.21625101554E+03  0.41800000000E+01 0. -1.
        -11    1    1    2    0    0 -0.19882975460E+02  0.33709849799E+02 -0.39724878615E+01  0.39337861488E+02  0.00000000000E+00 0.  1.
         11    1    1    2    0    0 -0.97399292832E+02 -0.31039763897E+02  0.74441297609E+02  0.12645788222E+03  0.00000000000E+00 0. -1.
</event>
<event>
 7    1  0.2841804E-009  0.8500778E+02  0.7561462E-02  0.1315412E+00
         -1   -1    0    0    0  501 -0.00000000000E+00  0.00000000000E+00  0.29644354490E+02  0.29644354490E+02  0.00000000000E+00 0.  1.
          1   -1    0    0  501    0  0.00000000000E+00 -0.00000000000E+00 -0.41148935637E+03  0.41148935637E+03  0.00000000000E+00 0. -1.
         25    2    1    2    0    0 -0.74676684855E+01 -0.26158174186E+02 -0.20922228509E+03  0.24527907767E+03  0.12509134748E+03 0.  0.
          5    1    3    3  502    0 -0.73819120339E+01  0.47239324281E+02 -0.12263305793E+03  0.13169049200E+03  0.41800000000E+01 0.  1.
         -5    1    3    3    0  502 -0.85756451613E-01 -0.73397498467E+02 -0.86589227153E+02  0.11358858567E+03  0.41800000000E+01 0.  1.
        -11    1    1    2    0    0 -0.16363053481E+02  0.64821124732E+01  0.27201882701E+01  0.17809175320E+02  0.00000000000E+00 0.  1.
         11    1    1    2    0    0  0.23830721967E+02  0.19676061712E+02 -0.17534290506E+03  0.17804545787E+03  0.00000000000E+00 0. -1.
</event>
<event>
 7    1  0.2841804E-009  0.1086784E+03  0.7561462E-02  0.1263037E+00
          2   -1    0    0  501    0  0.00000000000E+00  0.00000000000E+00  0.95906038779E+02  0.95906038779E+02  0.00000000000E+00 0. -1.
         -2   -1    0    0    0  501 -0.00000000000E+00 -0.00000000000E+00 -0.15146747516E+03  0.15146747516E+03  0.00000000000E+00 0.  1.
         25    2    1    2    0    0 -0.73310324711E+01  0.48984074240E+02 -0.49009925929E+02  0.14318749710E+03  0.12508997930E+03 0.  0.
          5    1    3    3  502    0 -0.27358836284E+02  0.87037777975E+02 -0.33608351136E+02  0.97319445045E+02  0.41800000000E+01 0. -1.
         -5    1    3    3    0  502  0.20027803813E+02 -0.38053703735E+02 -0.15401574794E+02  0.45868052059E+02  0.41800000000E+01 0. -1.
        -11    1    1    2    0    0  0.20119429226E+02 -0.61632292679E+02 -0.32570983360E+02  0.72554806114E+02  0.00000000000E+00 0.  1.
         11    1    1    2    0    0 -0.12788396755E+02  0.12648218439E+02  0.26019472909E+02  0.31631210721E+02  0.00000000000E+00 0. -1.
</event>
<event>
 7    1  0.2841804E-009  0.1250400E+03  0.7561462E-02  0.1235007E+00
          1   -1    0    0  501    0  0.00000000000E+00  0.00000000000E+00  0.47271859139E+03  0.47271859139E+03  0.00000000000E+00 0. -1.
         -1   -1    0    0    0  501 -0.00000000000E+00 -0.00000000000E+00 -0.53735372202E+02  0.53735372202E+02  0.00000000000E+00 0.  1.
         25    2    1    2    0    0 -0.32948308808E+02  0.93265400983E+02  0.31899985653E+03  0.35663867089E+03  0.12508479938E+03 0.  0.
          5    1    3    3  502    0  0.85715784000E+01 -0.24270071627E+02  0.20632286000E+02  0.33251645953E+02  0.41800000000E+01 0. -1.
         -5    1    3    3    0  502 -0.41519887208E+02  0.11753547261E+03  0.29836757053E+03  0.32338702494E+03  0.41800000000E+01 0. -1.
        -11    1    1    2    0    0  0.17789460656E+02 -0.37741001251E+02  0.10406158246E+03  0.11211449964E+03  0.00000000000E+00 0. -1.
         11    1    1    2    0    0  0.15158848151E+02 -0.55524399732E+02 -0.40782197995E+01  0.57700793059E+02  0.00000000000E+00 0.  1.
</event>
<event>
 7    1  0.2841804E-009  0.7735681E+02  0.7561462E-02  0.1336724E+00
         -2   -1    0    0    0  501 -0.00000000000E+00  0.00000000000E+00  0.17368031670E+03  0.17368031670E+03  0.00000000000E+00 0.  1.
          2   -1    0    0  501    0  0.00000000000E+00 -0.00000000000E+00 -0.93836624743E+02  0.93836624743E+02  0.00000000000E+00 0. -1.
         25    2    1    2    0    0  0.11657457614E+02  0.59563245885E+02  0.50932148588E+02  0.14807089577E+03  0.12508888774E+03 0.  0.
          5    1    3    3  502    0 -0.59385813504E+01 -0.78281728720E+01  0.73857360759E+02  0.74625258306E+02  0.41800000000E+01 0. -1.
         -5    1    3    3    0  502  0.17596038964E+02  0.67391418757E+02 -0.22925212171E+02  0.73445637463E+02  0.41800000000E+01 0. -1.
        -11    1    1    2    0    0 -0.26364969782E+02 -0.50543291839E+02  0.60703310984E+02  0.83274413513E+02  0.00000000000E+00 0.  1.
         11    1    1    2    0    0  0.14707512168E+02 -0.90199540457E+01 -0.31791767615E+02  0.36171632162E+02  0.00000000000E+00 0. -1.
</event>
<event>
 7    1  0.2841804E-009  0.1185636E+03  0.7561462E-02  0.1245486E+00
          1   -1    0    0  501    0  0.00000000000E+00  0.00000000000E+00  0.18982335333E+03  0.18982335333E+03  0.00000000000E+00 0. -1.
         -1   -1    0    0    0  501 -0.00000000000E+00 -0.00000000000E+00 -0.83218641174E+02  0.83218641174E+02  0.00000000000E+00 0.  1.
         25    2    1    2    0    0  0.26095224386E+02 -0.52139584271E+02  0.27860833645E+02  0.14079851187E+03  0.12509395632E+03 0.  0.
          5    1    3    3  502    0  0.17895457882E+02 -0.91420695466E+02  0.35423036012E+02  0.99750964169E+02  0.41800000000E+01 0. -1.
         -5    1    3    3    0  502  0.81997665036E+01  0.39281111195E+02 -0.75622023663E+01  0.41047547699E+02  0.41800000000E+01 0. -1.
        -11    1    1    2    0    0 -0.56263652410E+02  0.20675401448E+02  0.30611872564E+02  0.67306445081E+02  0.00000000000E+00 0.  1.
         11    1    1    2    0    0  0.30168428024E+02  0.31464182823E+02  0.48132005949E+02  0.64937037559E+02  0.00000000000E+00 0. -1.
</event>
<event>
 7    1  0.2841804E-009  0.1229437E+03  0.7561462E-02  0.1238318E+00
          2   -1    0    0  501    0  0.00000000000E+00  0.00000000000E+00  0.60821093074E+03  0.60821093074E+03  0.00000000000E+00 0. -1.
         -2   -1    0    0    0  501 -0.00000000000E+00 -0.00000000000E+00 -0.33452211497E+02  0.33452211497E+02  0.00000000000E+00 0.  1.
         25    2    1    2    0    0  0.70476778177E+01 -0.89401416220E+02  0.36446039001E+03  0.39563012106E+03  0.12509809676E+03 0.  0.
          5    1    3    3  502    0 -0.37849091549E+02 -0.15450151457E+02  0.24300041229E+03  0.24645067190E+03  0.41800000000E+01 0.  1.
         -5    1    3    3    0  502  0.44896769367E+02 -0.73951264763E+02  0.12145997773E+03  0.14917944915E+03  0.41800000000E+01 0.  1.
        -11    1    1    2    0    0  0.30583173381E+02  0.68770040944E+02  0.17488491983E+03  0.19039271050E+03  0.00000000000E+00 0.  1.
         11    1    1    2    0    0 -0.37630851199E+02  0.20631375277E+02  0.35413409397E+02  0.55640310683E+02  0.00000000000E+00 0. -1.
</event>
<event>
 7    1  0.2841804E-009  0.1147069E+03  0.7561462E-02  0.1252094E+00
         -2   -1    0    0    0  501 -0.00000000000E+00  0.00000000000E+00  0.57993931183E+03  0.57993931183E+03  0.00000000000E+00 0.  1.
          2   -1    0    0  501    0  0.00000000000E+00 -0.00000000000E+00 -0.31063767786E+02  0.31063767786E+02  0.00000000000E+00 0. -1.
         25    2    1    2    0    0 -0.29301910756E+02  0.74408090570E+02  0.28403173475E+03  0.32049602369E+03  0.12509400042E+03 0.  0.
          5    1    3    3  502    0  0.24421682451E+02  0.39159532819E+02  0.23509852378E+03  0.23962194363E+03  0.41800000000E+01 0. -1.
         -5    1    3    3    0  502 -0.53723593207E+02  0.35248557751E+02  0.48933210968E+02  0.80874080065E+02  0.41800000000E+01 0. -1.
        -11    1    1    2    0    0 -0.28489522340E+02 -0.46435026114E+02  0.10605631873E+03  0.11923006029E+03  0.00000000000E+00 0. -1.
         11    1    1    2    0    0  0.57791433096E+02 -0.27973064456E+02  0.15878749056E+03  0.17127699564E+03  0.00000000000E+00 0.  1.
</event>
<event>
 7    1  0.2841804E-009  0.1568638E+03  0.7561462E-02  0.1192284E+00
         -2   -1    0    0    0  501 -0.00000000000E+00  0.00000000000E+00  0.27448610827E+03  0.27448610827E+03  0.00000000000E+00 0.  1.
          2   -1    0    0  501    0  0.00000000000E+00 -0.00000000000E+00 -0.13968889660E+03  0.13968889660E+03  0.00000000000E+00 0. -1.
         25    2    1    2    0    0 -0.59571375790E+02  0.14412440997E+03  0.23248920952E+02  0.20126810965E+03  0.12509094802E+03 0.  0.
          5    1    3    3  502    0 -0.37936433405E+02  0.11369266378E+03  0.71875982677E+02  0.13981710934E+03  0.41800000000E+01 0.  1.
         -5    1    3    3    0  502 -0.21634942385E+02  0.30431746185E+02 -0.48627061725E+02  0.61451000316E+02  0.41800000000E+01 0.  1.
        -11    1    1    2    0    0  0.30193386516E+02 -0.85082778501E+02  0.11578676840E+03  0.14682402911E+03  0.00000000000E+00 0. -1.
         11    1    1    2    0    0  0.29377989274E+02 -0.59041631467E+02 -0.42384776864E+01  0.66082866109E+02  0.00000000000E+00 0.  1.
</event>
<event>
 7    1  0.2841804E-009  0.2268484E+03  0.7561462E-02  0.1128878E+00
          1   -1    0    0  501    0  0.00000000000E+00  0.00000000000E+00  0.23784301959E+03  0.23784301959E+03  0.00000000000E+00 0. -1.
         -1   -1    0    0    0  501 -0.00000000000E+00 -0.00000000000E+00 -0.24679543764E+03  0.24679543764E+03  0.00000000000E+00 0.  1.
         25    2    1    2    0    0 -0.16226367720E+03 -0.13143786916E+03 -0.61506259974E+02  0.25106987448E+03  0.12509055707E+03 0.  0.
          5    1    3    3  502    0 -0.18220616718E+03 -0.11711397879E+03 -0.45210381313E+02  0.22130572149E+03  0.41800000000E+01 0.  1.
         -5    1    3    3    0  502  0.19942489978E+02 -0.14323890372E+02 -0.16295878662E+02  0.29764152991E+02  0.41800000000E+01 0.  1.
        -11    1    1    2    0    0  0.57975003973E+02  0.24993458228E+02  0.56173796328E+02  0.84506031937E+02  0.00000000000E+00 0. -1.
         11    1    1    2    0    0  0.10428867323E+03  0.10644441093E+03 -0.36199544037E+01  0.14906255080E+03  0.00000000000E+00 0.  1.
</event>
<event>
 7    1  0.2841804E-009  0.1619623E+03  0.7561462E-02  0.1186499E+00
         -2   -1    0    0    0  501 -0.00000000000E+00  0.00000000000E+00  0.24663172850E+02  0.24663172850E+02  0.00000000000E+00 0.  1.
          2   -1    0    0  501    0  0.00000000000E+00 -0.00000000000E+00 -0.14275297768E+04  0.14275297768E+04  0.00000000000E+00 0. -1.
         25    2    1    2    0    0  0.14862334181E+03  0.18757886056E+02 -0.84819098421E+03  0.87035404117E+03  0.12508978881E+03 0.  0.
          5    1    3    3  502    0  0.12926151334E+03  0.22742746143E+02 -0.83703781963E+03  0.84727537154E+03  0.41800000000E+01 0. -1.
         -5    1    3    3    0  502  0.19361828468E+02 -0.39848600864E+01 -0.11153164580E+02  0.23078669626E+02  0.41800000000E+01 0. -1.
        -11    1    1    2    0    0 -0.14482598858E+03  0.83187387441E+01 -0.41803374757E+03  0.44248839814E+03  0.00000000000E+00 0.  1.
         11    1    1    2    0    0 -0.37973532324E+01 -0.27076624800E+02 -0.13664187214E+03  0.13935051032E+03  0.00000000000E+00 0. -1.
</event>
<event>
 7    1  0.2841804E-009  0.1050902E+03  0.7561462E-02  0.1269942E+00
          2   -1    0    0  501    0  0.00000000000E+00  0.00000000000E+00  0.11501403682E+04  0.11501403682E+04  0.00000000000E+00 0. -1.
         -2   -1    0    0    0  501 -0.00000000000E+00 -0.00000000000E+00 -0.13287130139E+02  0.13287130139E+02  0.00000000000E+00 0.  1.
         25    2    1    2    0    0 -0.14666215785E+02  0.32824193622E+02  0.86399048333E+03  0.87373901700E+03  0.12509112268E+03 0.  0.
          5    1    3    3  502    0  0.25333816209E+02 -0.38973006113E+02  0.25814910952E+03  0.26233400961E+03  0.41800000000E+01 0.  1.
         -5    1    3    3    0  502 -0.40000031994E+02  0.71797199735E+02  0.60584137381E+03  0.61140500740E+03  0.41800000000E+01 0.  1.
        -11    1    1    2    0    0 -0.21047264624E+02  0.11745192796E+02  0.22770318363E+02  0.33157567768E+02  0.00000000000E+00 0.  1.
         11    1    1    2    0    0  0.35713480409E+02 -0.44569386418E+02  0.25009243637E+03  0.25653091357E+03  0.00000000000E+00 0. -1.
</event>
<event>
 7    1  0.2841804E-009  0.1029884E+03  0.7561462E-02  0.1274134E+00
          2   -1    0    0  501    0  0.00000000000E+00  0.00000000000E+00  0.46681566885E+03  0.46681566885E+03  0.00000000000E+00 0. -1.
         -2   -1    0    0    0  501 -0.00000000000E+00 -0.00000000000E+00 -0.27308770914E+02  0.27308770914E+02  0.00000000000E+00 0.  1.
         25    2    1    2    0    0  0.29963464188E+02 -0.10075305084E+02  0.23956047158E+03  0.27208910990E+03  0.12507574995E+03 0.  0.
          5    1    3    3  502    0  0.21022310123E+02  0.46945482841E+02  0.42957415584E+02  0.67146316621E+02  0.41800000000E+01 0. -1.
         -5    1    3    3    0  502  0.89411540650E+01 -0.57020787925E+02  0.19660305600E+03  0.20494279328E+03  0.41800000000E+01 0. -1.
        -11    1    1    2    0    0 -0.45180088562E+02  0.41651299276E+02  0.13055392540E+03  0.14429275301E+03  0.00000000000E+00 0. -1.
         11    1    1    2    0    0  0.15216624373E+02 -0.31575994192E+02  0.69392500953E+02  0.77742576849E+02  0.00000000000E+00 0.  1.
</event>
<event>
 7    1  0.2841804E-009  0.2270836E+03  0.7561462E-02  0.1128709E+00
         -2   -1    0    0    0  501 -0.00000000000E+00  0.00000000000E+00  0.37472823147E+03  0.37472823147E+03  0.00000000000E+00 0.  1.
          2   -1    0    0  501    0  0.00000000000E+00 -0.00000000000E+00 -0.14604047176E+03  0.14604047176E+03  0.00000000000E+00 0. -1.
         25    2    1    2    0    0 -0.17439159802E+03  0.10638923760E+03  0.15484632033E+03  0.28523042880E+03  0.12509162744E+03 0.  0.
          5    1    3    3  502    0 -0.14630477080E+03  0.25189907460E+02  0.12518788380E+03  0.19423979007E+03  0.41800000000E+01 0. -1.
         -5    1    3    3    0  502 -0.28086827224E+02  0.81199330137E+02  0.29658436528E+02  0.90990638725E+02  0.41800000000E+01 0. -1.
        -11    1    1    2    0    0  0.16946651794E+02 -0.49337340375E+02 -0.84975668823E+00  0.52173597238E+02  0.00000000000E+00 0.  1.
         11    1    1    2    0    0  0.15744494623E+03 -0.57051897222E+02  0.74691196066E+02  0.18336467719E+03  0.00000000000E+00 0. -1.
</event>
<event>
 7    1  0.2841804E-009  0.1341250E+03  0.7561462E-02  0.1221460E+00
         -2   -1    0    0    0  501 -0.00000000000E+00  0.00000000000E+00  0.25634310477E+03  0.25634310477E+03  0.00000000000E+00 0.  1.
          2   -1    0    0  501    0  0.00000000000E+00 -0.00000000000E+00 -0.79925296596E+02  0.79925296596E+02  0.00000000000E+00 0. -1.
         25    2    1    2    0    0  0.68515128159E+02  0.61898295459E+02  0.10257700735E+03  0.18627051521E+03  0.12509572587E+03 0.  0.
          5    1    3    3  502    0 -0.22866587129E+02  0.53710281116E+02  0.17518901316E+02  0.61090583626E+02  0.41800000000E+01 0.  1.
         -5    1    3    3    0  502  0.91381715288E+02  0.81880143431E+01  0.85058106038E+02  0.12517993158E+03  0.41800000000E+01 0.  1.
        -11    1    1    2    0    0 -0.10973687449E+02 -0.59273741740E+02  0.69840681736E+02  0.92257894521E+02  0.00000000000E+00 0.  1.
         11    1    1    2    0    0 -0.57541440710E+02 -0.26245537189E+01  0.40001190813E+01  0.57739991634E+02  0.00000000000E+00 0. -1.
</event>
<event>
 7    1  0.2841804E-009  0.9865875E+02  0.7561462E-02  0.1283142E+00
          1   -1    0    0  501    0  0.00000000000E+00  0.00000000000E+00  0.44788766111E+02  0.44788766111E+02  0.00000000000E+00 0. -1.
         -1   -1    0    0    0  501 -0.00000000000E+00 -0.00000000000E+00 -0.34174471025E+03  0.34174471025E+03  0.00000000000E+00 0.  1.
         25    2    1    2    0    0 -0.40450826195E+02  0.22879057205E+02 -0.11141109065E+03  0.17384047145E+03  0.12509339629E+03 0.  0.
          5    1    3    3  502    0 -0.16396343471E+02 -0.45298829876E+02 -0.10250009456E+02  0.49430346562E+02  0.41800000000E+01 0. -1.
         -5    1    3    3    0  502 -0.24054482724E+02  0.68177887081E+02 -0.10116108119E+03  0.12441012488E+03  0.41800000000E+01 0. -1.
        -11    1    1    2    0    0 -0.14147026943E+02 -0.16249653151E+02 -0.26497132896E+01  0.21707385364E+02  0.00000000000E+00 0. -1.
         11    1    1    2    0    0  0.54597853138E+02 -0.66294040538E+01 -0.18289514021E+03  0.19098561956E+03  0.00000000000E+00 0.  1.
</event>
<event>
 7    1  0.2841804E-009  0.3208220E+03  0.7561462E-02  0.1075272E+00
         -1   -1    0    0    0  501 -0.00000000000E+00  0.00000000000E+00  0.10868613937E+03  0.10868613937E+03  0.00000000000E+00 0.  1.
          1   -1    0    0  501    0  0.00000000000E+00 -0.00000000000E+00 -0.10470905519E+04  0.10470905519E+04  0.00000000000E+00 0. -1.
         25    2    1    2    0    0 -0.31365254264E+03 -0.33014437069E+02 -0.39216752005E+03  0.51856628818E+03  0.12509101047E+03 0.  0.
          5    1    3    3  502    0 -0.45002506999E+02  0.22582923305E+02 -0.16060892124E+02  0.53015457340E+02  0.41800000000E+01 0.  1.
         -5    1    3    3    0  502 -0.26865003564E+03 -0.55597360375E+02 -0.37610662792E+03  0.46555083084E+03  0.41800000000E+01 0.  1.
        -11    1    1    2    0    0  0.33978902750E+02 -0.55369498336E+01 -0.19449581266E+02  0.39541242481E+02  0.00000000000E+00 0.  1.
         11    1    1    2    0    0  0.27967363989E+03  0.38551386903E+02 -0.52678731127E+03  0.59766916065E+03  0.00000000000E+00 0. -1.
</event>
<event>
 7    1  0.2841804E-009  0.1039318E+03  0.7561462E-02  0.1272239E+00
          1   -1    0    0  501    0  0.00000000000E+00  0.00000000000E+00  0.55755766628E+02  0.55755766628E+02  0.00000000000E+00 0. -1.
         -1   -1    0    0    0  501 -0.00000000000E+00 -0.00000000000E+00 -0.36406973507E+03  0.36406973507E+03  0.00000000000E+00 0.  1.
         25    2    1    2    0    0  0.42374593592E+02  0.92102522365E+01 -0.48698292196E+02  0.14106557286E+03  0.12509011654E+03 0.  0.
          5    1    3    3  502    0 -0.26502155653E+01 -0.52996597045E+02 -0.72986741517E+01  0.53725282552E+02  0.41800000000E+01 0. -1.
         -5    1    3    3    0  502  0.45024809158E+02  0.62206849281E+02 -0.41399618045E+02  0.87340290310E+02  0.41800000000E+01 0. -1.
        -11    1    1    2    0    0 -0.40433790996E+02  0.22290417989E+02 -0.23283397673E+03  0.23736767874E+03  0.00000000000E+00 0.  1.
         11    1    1    2    0    0 -0.19408025964E+01 -0.31500670226E+02 -0.26781699512E+02  0.41392250098E+02  0.00000000000E+00 0. -1.
</event>
<event>
 7    1  0.2841804E-009  0.1030315E+03  0.7561462E-02  0.1274047E+00
          2   -1    0    0  501    0  0.00000000000E+00  0.00000000000E+00  0.25147882716E+03  0.25147882716E+03  0.00000000000E+00 0. -1.
         -2   -1    0    0    0  501 -0.00000000000E+00 -0.00000000000E+00 -0.80189664189E+02  0.80189664189E+02  0.00000000000E+00 0.  1.
         25    2    1    2    0    0 -0.16429911060E+02  0.24295705497E+02 -0.71717182679E+01  0.12867577567E+03  0.12508316601E+03 0.  0.
          5    1    3    3  502    0 -0.39074532418E+02 -0.31883822736E+02 -0.35360822685E+02  0.61735382213E+02  0.41800000000E+01 0.  1.
         -5    1    3    3    0  502  0.22644621359E+02  0.56179528233E+02  0.28189104417E+02  0.66940393462E+02  0.41800000000E+01 0.  1.
        -11    1    1    2    0    0  0.37536786528E+02 -0.49336384280E+02  0.96110260370E+02  0.11436901375E+03  0.00000000000E+00 0.  1.
         11    1    1    2    0    0 -0.21106875469E+02  0.25040678783E+02  0.82350620870E+02  0.88623701929E+02  0.00000000000E+00 0. -1.
</event>
<event>
 7    1  0.2841804E-009  0.9595266E+02  0.7561462E-02  0.1289045E+00
         -2   -1    0    0    0  501 -0.00000000000E+00  0.00000000000E+00  0.40016737550E+02  0.40016737550E+02  0.00000000000E+00 0.  1.
          2   -1    0    0  501    0  0.00000000000E+00 -0.00000000000E+00 -0.29381565557E+03  0.29381565557E+03  0.00000000000E+00 0. -1.
         25    2    1    2    0    0  0.81332551375E+01 -0.42854243115E+01 -0.11122532052E+03  0.16763854223E+03  0.12508834564E+03 0.  0.
          5    1    3    3  502    0  0.47488446541E+01  0.59339664825E+02 -0.39271442734E+02  0.71438546748E+02  0.41800000000E+01 0.  1.
         -5    1    3    3    0  502  0.33844104833E+01 -0.63625089136E+02 -0.71953877784E+02  0.96199995478E+02  0.41800000000E+01 0.  1.
        -11    1    1    2    0    0  0.15707695731E+02  0.29658294448E+02 -0.12022618510E+03  0.12482260099E+03  0.00000000000E+00 0. -1.
         11    1    1    2    0    0 -0.23840950869E+02 -0.25372870136E+02 -0.22347412398E+02  0.41371249898E+02  0.00000000000E+00 0.  1.
</event>
<event>
 7    1  0.2841804E-009  0.1248822E+03  0.7561462E-02  0.1235254E+00
         -2   -1    0    0    0  501 -0.00000000000E+00  0.00000000000E+00  0.90020484218E+02  0.90020484218E+02  0.00000000000E+00 0.  1.
          2   -1    0    0  501    0  0.00000000000E+00 -0.00000000000E+00 -0.18239445688E+03  0.18239445688E+03  0.00000000000E+00 0. -1.
         25    2    1    2    0    0  0.47768958767E+02  0.41383951899E+02 -0.23367491090E+02  0.14208698613E+03  0.12509263404E+03 0.  0.
          5    1    3    3  502    0  0.49825599517E+02  0.83301723699E+02 -0.23302067922E+02  0.99911092016E+02  0.41800000000E+01 0.  1.
         -5    1    3    3    0  502 -0.20566407497E+01 -0.41917771800E+02 -0.65423167928E-01  0.42175894111E+02  0.41800000000E+01 0.  1.
        -11    1    1    2    0    0  0.20748805448E+02 -0.36192971749E+02 -0.29117454699E+02  0.50875045944E+02  0.00000000000E+00 0.  1.
         11    1    1    2    0    0 -0.68517764215E+02 -0.51909801499E+01 -0.39889026871E+02  0.79452909026E+02  0.00000000000E+00 0. -1.
</event>
<event>
 7    1  0.2841804E-009  0.8933745E+02  0.7561462E-02  0.1304464E+00
         -1   -1    0    0    0  501 -0.00000000000E+00  0.00000000000E+00  0.14249707387E+03  0.14249707387E+03  0.00000000000E+00 0.  1.
          1   -1    0    0  501    0  0.00000000000E+00 -0.00000000000E+00 -0.11401073493E+03  0.11401073493E+03  0.00000000000E+00 0. -1.
         25    2    1    2    0    0 -0.55118939714E+02  0.40156829038E+01  0.50717693890E+02  0.14585722055E+03  0.12509125105E+03 0.  0.
          5    1    3    3  502    0 -0.67308715308E+02  0.26612253379E+02 -0.16003394566E+02  0.74244570333E+02  0.41800000000E+01 0. -1.
         -5    1    3    3    0  502  0.12189775594E+02 -0.22596570475E+02  0.66721088455E+02  0.71612650216E+02  0.41800000000E+01 0. -1.
        -11    1    1    2    0    0  0.28603318694E+02  0.27016524713E+02  0.26232224915E+02  0.47288181101E+02  0.00000000000E+00 0.  1.
         11    1    1    2    0    0  0.26515621020E+02 -0.31032207617E+02 -0.48463579862E+02  0.63362407157E+02  0.00000000000E+00 0. -1.
</event>
<event>
 7    1  0.2841804E-009  0.9928528E+02  0.7561462E-02  0.1281806E+00
          1   -1    0    0  501    0  0.00000000000E+00  0.00000000000E+00  0.64394484247E+02  0.64394484247E+02  0.00000000000E+00 0. -1.
         -1   -1    0    0    0  501 -0.00000000000E+00 -0.00000000000E+00 -0.26887403077E+03  0.26887403077E+03  0.00000000000E+00 0.  1.
         25    2    1    2    0    0  0.17182821309E+02  0.49402262999E+02 -0.45244821341E+02  0.14291794125E+03  0.12507042470E+03 0.  0.
          5    1    3    3  502    0 -0.39365979295E+02  0.18701086122E+02  0.22640622538E+02  0.49289767060E+02  0.41800000000E+01 0.  1.
         -5    1    3    3    0  502  0.56548800604E+02  0.30701176877E+02 -0.67885443879E+02  0.93628174189E+02  0.41800000000E+01 0.  1.
        -11    1    1    2    0    0  0.19941138215E+02  0.83772976789E+01 -0.60260505948E+01  0.22453093227E+02  0.00000000000E+00 0.  1.
         11    1    1    2    0    0 -0.37123959524E+02 -0.57779560678E+02 -0.15320867459E+03  0.16789748054E+03  0.00000000000E+00 0. -1.
</event>
<event>
 7    1  0.2841804E-009  0.7846350E+02  0.7561462E-02  0.1333469E+00
          1   -1    0    0  501    0  0.00000000000E+00  0.00000000000E+00  0.74515043288E+03  0.74515043288E+03  0.00000000000E+00 0. -1.
         -1   -1    0    0    0  501 -0.00000000000E+00 -0.00000000000E+00 -0.18515358243E+02  0.18515358243E+02  0.00000000000E+00 0.  1.
         25    2    1    2    0    0  0.11103088979E+02 -0.14308592873E+02  0.26604187703E+03  0.29454169397E+03  0.12509402360E+03 0.  0.
          5    1    3    3  502    0  0.25062129886E+01 -0.40158686643E+02  0.26380661740E+03  0.26689024898E+03  0.41800000000E+01 0. -1.
         -5    1    3    3    0  502  0.85968759907E+01  0.25850093770E+02  0.22352596327E+01  0.27651444995E+02  0.41800000000E+01 0. -1.
        -11    1    1    2    0    0 -0.26323729064E+02 -0.31261265200E+02  0.19842038422E+03  0.20258542467E+03  0.00000000000E+00 0. -1.
         11    1    1    2    0    0  0.15220640084E+02  0.45569858073E+02  0.26217281339E+03  0.26653867248E+03  0.00000000000E+00 0.  1.
</event>
<event>
 7    1  0.2841804E-009  0.8692738E+02  0.7561462E-02  0.1310468E+00
          3   -1    0    0  501    0  0.00000000000E+00  0.00000000000E+00  0.22217269451E+03  0.22217269451E+03  0.00000000000E+00 0. -1.
         -3   -1    0    0    0  501 -0.00000000000E+00 -0.00000000000E+00 -0.65665377716E+02  0.65665377716E+02  0.00000000000E+00 0.  1.
         25    2    1    2    0    0 -0.17894479216E+02  0.18431092733E+02  0.41318192381E+02  0.13421377679E+03  0.12508488036E+03 0.  0.
          5    1    3    3  502    0 -0.46947832448E+02 -0.31499778865E+02 -0.91097079841E+01  0.57417716949E+02  0.41800000000E+01 0. -1.
         -5    1    3    3    0  502  0.29053353232E+02  0.49930871598E+02  0.50427900366E+02  0.76796059846E+02  0.41800000000E+01 0. -1.
        -11    1    1    2    0    0 -0.12169647610E+02 -0.25593349759E+02 -0.56487250695E+01  0.28896850516E+02  0.00000000000E+00 0.  1.
         11    1    1    2    0    0  0.30064126826E+02  0.71622570256E+01  0.12083784948E+03  0.12472744491E+03  0.00000000000E+00 0. -1.
</event>
<event>
 7    1  0.2841804E-009  0.8145400E+02  0.7561462E-02  0.1324975E+00
         -4   -1    0    0    0  501 -0.00000000000E+00  0.00000000000E+00  0.34057356397E+03  0.34057356397E+03  0.00000000000E+00 0.  1.
          4   -1    0    0  501    0  0.00000000000E+00 -0.00000000000E+00 -0.42867541948E+02  0.42867541948E+02  0.00000000000E+00 0. -1.
         25    2    1    2    0    0  0.89323773529E+00  0.27682928654E+02  0.23798518556E+03  0.27028039772E+03  0.12508957763E+03 0.  0.
          5    1    3    3  502    0  0.33232317811E+02  0.60737848799E+01  0.22715379460E+03  0.22969021879E+03  0.41800000000E+01 0.  1.
         -5    1    3    3    0  502 -0.32339080075E+02  0.21609143774E+02  0.10831390961E+02  0.40590178922E+02  0.41800000000E+01 0.  1.
        -11    1    1    2    0    0 -0.36016790028E+02 -0.38769320045E+02  0.54494661798E+02  0.75960104694E+02  0.00000000000E+00 0.  1.
         11    1    1    2    0    0  0.35123552293E+02  0.11086391391E+02  0.52261746665E+01  0.37200603509E+02  0.00000000000E+00 0. -1.
</event>
<event>
 7    1  0.2841804E-009  0.7309835E+02  0.7561462E-02  0.1349863E+00
          2   -1    0    0  501    0  0.00000000000E+00  0.00000000000E+00  0.83759274462E+02  0.83759274462E+02  0.00000000000E+00 0.  1.
         -2   -1    0    0    0  501 -0.00000000000E+00 -0.00000000000E+00 -0.15383525193E+03  0.15383525193E+03  0.00000000000E+00 0. -1.
         25    2    1    2    0    0  0.29005655850E+02 -0.32676951021E+01 -0.20124234350E+02  0.13001861772E+03  0.12509136758E+03 0.  0.
          5    1    3    3  502    0 -0.14064526162E+02 -0.85212660010E+01  0.47007634489E+02  0.49976124006E+02  0.41800000000E+01 0. -1.
         -5    1    3    3    0  502  0.43070182012E+02  0.52535708989E+01 -0.67131868839E+02  0.80042493712E+02  0.41800000000E+01 0. -1.
        -11    1    1    2    0    0  0.33396805445E+01  0.38018162066E+02  0.67715055149E+00  0.38170573036E+02  0.00000000000E+00 0.  1.
         11    1    1    2    0    0 -0.32345336394E+02 -0.34750466964E+02 -0.50628893665E+02  0.69405335634E+02  0.00000000000E+00 0. -1.
</event>
<event>
 7    1  0.2841804E-009  0.1338182E+03  0.7561462E-02  0.1221898E+00
         -4   -1    0    0    0  501 -0.00000000000E+00  0.00000000000E+00  0.35450116492E+02  0.35450116492E+02  0.00000000000E+00 0.  1.
          4   -1    0    0  501    0  0.00000000000E+00 -0.00000000000E+00 -0.76449059025E+03  0.76449059025E+03  0.00000000000E+00 0. -1.
         25    2    1    2    0    0 -0.89734042283E+02 -0.82991008485E+02 -0.35334157704E+03  0.39425593611E+03  0.12509103589E+03 0.  0.
          5    1    3    3  502    0 -0.38737269230E+02 -0.41587524986E+02 -0.31057840122E+03  0.31576338287E+03  0.41800000000E+01 0. -1.
         -5    1    3    3    0  502 -0.50996773053E+02 -0.41403483498E+02 -0.42763175828E+02  0.78492553242E+02  0.41800000000E+01 0. -1.
        -11    1    1    2    0    0 -0.10144053221E+02 -0.53666095234E+01 -0.66079437277E+01  0.13242629416E+02  0.00000000000E+00 0.  1.
         11    1    1    2    0    0  0.99878095504E+02  0.88357618008E+02 -0.36909095298E+03  0.39244214121E+03  0.00000000000E+00 0. -1.
</event>
<event>
 7    1  0.2841804E-009  0.1022534E+03  0.7561462E-02  0.1275627E+00
         -1   -1    0    0    0  501 -0.00000000000E+00  0.00000000000E+00  0.41806954325E+02  0.41806954325E+02  0.00000000000E+00 0.  1.
          1   -1    0    0  501    0  0.00000000000E+00 -0.00000000000E+00 -0.33172381011E+03  0.33172381011E+03  0.00000000000E+00 0. -1.
         25    2    1    2    0    0 -0.13108604951E+02  0.27627076566E+02 -0.10852787267E+03  0.16840657508E+03  0.12508950595E+03 0.  0.
          5    1    3    3  502    0 -0.22385263696E+02  0.71242735762E+02 -0.96389127249E+02  0.12200394945E+03  0.41800000000E+01 0.  1.
         -5    1    3    3    0  502  0.92766587445E+01 -0.43615659197E+02 -0.12138745425E+02  0.46402625627E+02  0.41800000000E+01 0.  1.
        -11    1    1    2    0    0 -0.78373316954E+01  0.26104985829E+02 -0.20189338408E+02  0.33919071901E+02  0.00000000000E+00 0.  1.
         11    1    1    2    0    0  0.20945936647E+02 -0.53732062395E+02 -0.16119964470E+03  0.17120511745E+03  0.00000000000E+00 0. -1.
</event>
<event>
 7    1  0.2841804E-009  0.9594579E+02  0.7561462E-02  0.1289060E+00
          3   -1    0    0  501    0  0.00000000000E+00  0.00000000000E+00  0.10318787131E+03  0.10318787131E+03  0.00000000000E+00 0. -1.
         -3   -1    0    0    0  501 -0.00000000000E+00 -0.00000000000E+00 -0.22042242291E+03  0.22042242291E+03  0.00000000000E+00 0.  1.
         25    2    1    2    0    0 -0.53778758468E+02  0.19429476143E+02  0.29050037123E+02  0.14057171874E+03  0.12508734567E+03 0.  0.
          5    1    3    3  502    0 -0.71357385150E+02 -0.28601114099E+02  0.41924774706E+02  0.87664469868E+02  0.41800000000E+01 0. -1.
         -5    1    3    3    0  502  0.17578626682E+02  0.48030590241E+02 -0.12874737583E+02  0.52907248868E+02  0.41800000000E+01 0. -1.
        -11    1    1    2    0    0  0.36895940999E+02  0.12157273392E+01 -0.15144086185E+03  0.15587534473E+03  0.00000000000E+00 0.  1.
         11    1    1    2    0    0  0.16882817469E+02 -0.20645203482E+02  0.51562731229E+01  0.27163230754E+02  0.00000000000E+00 0. -1.
</event>
<event>
 6    1  0.2841804E-009  0.1861580E+03  0.7561462E-02  0.1161973E+00
         -1   -1    0    0    0  501 -0.00000000000E+00  0.00000000000E+00  0.35605897724E+03  0.35605897724E+03  0.00000000000E+00 0.  1.
          1   -1    0    0  501    0  0.00000000000E+00 -0.00000000000E+00 -0.13885136185E+03  0.13885136185E+03  0.00000000000E+00 0. -1.
          5    1    1    2  502    0 -0.35646839100E+01 -0.17861176106E+02  0.30087492785E+01  0.18927587154E+02  0.41800000000E+01 0.  1.
         -5    1    1    2    0  502 -0.30297244968E+02  0.17217524274E+03  0.23450798747E+03  0.29252983754E+03  0.41800000000E+01 0.  1.
        -11    1    1    2    0    0  0.40952419029E+02 -0.16270108768E+03 -0.95019504837E+01  0.16804473101E+03  0.00000000000E+00 0.  1.
         11    1    1    2    0    0 -0.70904901513E+01  0.83870210491E+01 -0.10807170874E+02  0.15408183376E+02  0.00000000000E+00 0. -1.
</event>
<event>
 7    1  0.2841804E-009  0.2231575E+03  0.7561462E-02  0.1131551E+00
          1   -1    0    0  501    0  0.00000000000E+00  0.00000000000E+00  0.23012110738E+03  0.23012110738E+03  0.00000000000E+00 0. -1.
         -1   -1    0    0    0  501 -0.00000000000E+00 -0.00000000000E+00 -0.24489889683E+03  0.24489889683E+03  0.00000000000E+00 0.  1.
         25    2    1    2    0    0  0.18824442658E+03 -0.67360002737E+02  0.59437579387E+02  0.24321516279E+03  0.12508978960E+03 0.  0.
          5    1    3    3  502    0  0.16249606370E+02  0.28657550776E+02 -0.93959368476E+01  0.34511750939E+02  0.41800000000E+01 0.  1.
         -5    1    3    3    0  502  0.17199482021E+03 -0.96017553513E+02  0.68833516234E+02  0.20870341185E+03  0.41800000000E+01 0.  1.
        -11    1    1    2    0    0 -0.15001255247E+03  0.86669947190E+02 -0.42158332252E+02  0.17830527368E+03  0.00000000000E+00 0. -1.
         11    1    1    2    0    0 -0.38231874113E+02 -0.19309944453E+02 -0.32057036588E+02  0.53499567734E+02  0.00000000000E+00 0.  1.
</event>
<event>
 6    1  0.2841804E-009  0.1576352E+03  0.7561462E-02  0.1191393E+00
         -3   -1    0    0    0  501 -0.00000000000E+00  0.00000000000E+00  0.88092343871E+03  0.88092343871E+03  0.00000000000E+00 0.  1.
          3   -1    0    0  501    0  0.00000000000E+00 -0.00000000000E+00 -0.43807158400E+02  0.43807158400E+02  0.00000000000E+00 0. -1.
          5    1    1    2  502    0  0.96240528615E+02 -0.94955956016E+02  0.41631186884E+03  0.43773498542E+03  0.41800000000E+01 0. -1.
         -5    1    1    2    0  502 -0.35706081005E+02 -0.26126744391E+02  0.23524117196E+03  0.23940219794E+03  0.41800000000E+01 0. -1.
        -11    1    1    2    0    0 -0.28347541421E+02  0.48714737147E+02  0.13176098120E+02  0.57881933983E+02  0.00000000000E+00 0. -1.
         11    1    1    2    0    0 -0.32186906189E+02  0.72367963260E+02  0.17238714140E+03  0.18971147977E+03  0.00000000000E+00 0.  1.
</event>
<event>
 7    1  0.2841804E-009  0.1257122E+03  0.7561462E-02  0.1233960E+00
          4   -1    0    0  501    0  0.00000000000E+00  0.00000000000E+00  0.11408781941E+03  0.11408781941E+03  0.00000000000E+00 0.  1.
         -4   -1    0    0    0  501 -0.00000000000E+00 -0.00000000000E+00 -0.24560195709E+03  0.24560195709E+03  0.00000000000E+00 0. -1.
         25    2    1    2    0    0  0.10788298957E+03  0.15655318348E+02 -0.14149599244E+03  0.21806421020E+03  0.12508819074E+03 0.  0.
          5    1    3    3  502    0  0.10907415849E+03  0.33883921822E+02 -0.50141680262E+02  0.12480766286E+03  0.41800000000E+01 0. -1.
         -5    1    3    3    0  502 -0.11911689268E+01 -0.18228603474E+02 -0.91354312182E+02  0.93256547343E+02  0.41800000000E+01 0. -1.
        -11    1    1    2    0    0 -0.43757729452E+01 -0.14216896681E+02 -0.27717919198E+02  0.31457122957E+02  0.00000000000E+00 0. -1.
         11    1    1    2    0    0 -0.10350721662E+03 -0.14384216669E+01  0.37699773963E+02  0.11016844333E+03  0.00000000000E+00 0.  1.
</event>
<event>
 7    1  0.2841804E-009  0.8378573E+02  0.7561462E-02  0.1318639E+00
          2   -1    0    0  501    0  0.00000000000E+00  0.00000000000E+00  0.79219565355E+03  0.79219565355E+03  0.00000000000E+00 0. -1.
         -2   -1    0    0    0  501 -0.00000000000E+00 -0.00000000000E+00 -0.31843587347E+02  0.31843587347E+02  0.00000000000E+00 0.  1.
         25    2    1    2    0    0 -0.14167162566E+02 -0.63091964225E+02  0.65511214353E+03  0.67007545548E+03  0.12509153044E+03 0.  0.
          5    1    3    3  502    0 -0.17511339799E+02  0.13151400158E+01  0.80010801044E+01  0.19745032227E+02  0.41800000000E+01 0. -1.
         -5    1    3    3    0  502  0.33441772327E+01 -0.64407104241E+02  0.64711106342E+03  0.65033042325E+03  0.41800000000E+01 0. -1.
        -11    1    1    2    0    0  0.34424082437E+02  0.28006903691E+02  0.35722975980E+01  0.44521516328E+02  0.00000000000E+00 0. -1.
         11    1    1    2    0    0 -0.20256919871E+02  0.35085060533E+02  0.10166762508E+03  0.10944226909E+03  0.00000000000E+00 0.  1.
</event>
<event>
 7    1  0.2841804E-009  0.7666821E+02  0.7561462E-02  0.1338782E+00
          2   -1    0    0  501    0  0.00000000000E+00  0.00000000000E+00  0.12749914072E+03  0.12749914072E+03  0.00000000000E+00 0. -1.
         -2   -1    0    0    0  501 -0.00000000000E+00 -0.00000000000E+00 -0.11456632112E+03  0.11456632112E+03  0.00000000000E+00 0.  1.
         25    2    1    2    0    0  0.50474538968E+02  0.41162681826E+00 -0.88753053462E+01  0.13518331965E+03  0.12509160781E+03 0.  0.
          5    1    3    3  502    0  0.43927463264E+02 -0.12229867943E+02  0.53873769538E+02  0.70703940081E+02  0.41800000000E+01 0. -1.
         -5    1    3    3    0  502  0.65470757039E+01  0.12641494761E+02 -0.62749074885E+02  0.64479379564E+02  0.41800000000E+01 0. -1.
        -11    1    1    2    0    0 -0.71343186328E+02  0.37038032072E+01  0.37278396435E+02  0.80580687726E+02  0.00000000000E+00 0.  1.
         11    1    1    2    0    0  0.20868647360E+02 -0.41154300255E+01 -0.15470271489E+02  0.26301454463E+02  0.00000000000E+00 0. -1.
</event>
<event>
 7    1  0.2841804E-009  0.1404318E+03  0.7561462E-02  0.1212749E+00
          2   -1    0    0  501    0  0.00000000000E+00  0.00000000000E+00  0.67870489210E+03  0.67870489210E+03  0.00000000000E+00 0. -1.
         -2   -1    0    0    0  501 -0.00000000000E+00 -0.00000000000E+00 -0.36399259040E+02  0.36399259040E+02  0.00000000000E+00 0.  1.
         25    2    1    2    0    0 -0.94012216559E+01 -0.10811844547E+03  0.42714878103E+03  0.45812842209E+03  0.12509032246E+03 0.  0.
          5    1    3    3  502    0 -0.10987489424E+02 -0.12370434247E+03  0.42370730123E+03  0.44155275878E+03  0.41800000000E+01 0.  1.
         -5    1    3    3    0  502  0.15862677682E+01  0.15585897004E+02  0.34414797924E+01  0.16575663305E+02  0.41800000000E+01 0.  1.
        -11    1    1    2    0    0 -0.37713423751E+02  0.71049056315E+02  0.11786536189E+03  0.14269728192E+03  0.00000000000E+00 0.  1.
         11    1    1    2    0    0  0.47114645407E+02  0.37069389154E+02  0.97291490140E+02  0.11427844713E+03  0.00000000000E+00 0. -1.
</event>
<event>
 6    1  0.2841804E-009  0.4824788E+02  0.7561462E-02  0.1455028E+00
          1   -1    0    0  501    0  0.00000000000E+00  0.00000000000E+00  0.20123546891E+03  0.20123546891E+03  0.00000000000E+00 0. -1.
         -1   -1    0    0    0  501 -0.00000000000E+00 -0.00000000000E+00 -0.94318026492E+02  0.94318026492E+02  0.00000000000E+00 0.  1.
          5    1    1    2  502    0 -0.51224239890E+01 -0.65219645913E+01 -0.76851977242E+02  0.77411071919E+02  0.41800000000E+01 0. -1.
         -5    1    1    2    0  502 -0.16947893823E+01  0.28388909955E+02  0.45213054022E+02  0.53577002281E+02  0.41800000000E+01 0. -1.
        -11    1    1    2    0    0  0.24398891713E+02 -0.30351022064E+02  0.13968449140E+03  0.14501119817E+03  0.00000000000E+00 0. -1.
         11    1    1    2    0    0 -0.17581678341E+02  0.84840767007E+01 -0.11281257582E+01  0.19554223035E+02  0.00000000000E+00 0.  1.
</event>
<event>
 7    1  0.2841804E-009  0.1990346E+03  0.7561462E-02  0.1150556E+00
         -1   -1    0    0    0  501 -0.00000000000E+00  0.00000000000E+00  0.54730255712E+03  0.54730255712E+03  0.00000000000E+00 0.  1.
          1   -1    0    0  501    0  0.00000000000E+00 -0.00000000000E+00 -0.74723597741E+02  0.74723597741E+02  0.00000000000E+00 0. -1.
         25    2    1    2    0    0  0.11144357241E+03 -0.12610063364E+03  0.20906327467E+03  0.29610082489E+03  0.12508879265E+03 0.  0.
          5    1    3    3  502    0  0.13721074369E+03 -0.10327763165E+03  0.15226137177E+03  0.22955185714E+03  0.41800000000E+01 0.  1.
         -5    1    3    3    0  502 -0.25767171276E+02 -0.22823001989E+02  0.56801902903E+02  0.66548967751E+02  0.41800000000E+01 0.  1.
        -11    1    1    2    0    0 -0.67183759013E+02  0.10724423150E+02  0.10058790602E+03  0.12143556960E+03  0.00000000000E+00 0. -1.
         11    1    1    2    0    0 -0.44259813398E+02  0.11537621049E+03  0.16292777869E+03  0.20448976037E+03  0.00000000000E+00 0.  1.
</event>
<event>
 7    1  0.2841804E-009  0.8096452E+02  0.7561462E-02  0.1326336E+00
          1   -1    0    0  501    0  0.00000000000E+00  0.00000000000E+00  0.47033196182E+03  0.47033196182E+03  0.00000000000E+00 0. -1.
         -1   -1    0    0    0  501 -0.00000000000E+00 -0.00000000000E+00 -0.33130900243E+02  0.33130900243E+02  0.00000000000E+00 0.  1.
         25    2    1    2    0    0  0.59181113930E+02  0.15924759660E+02  0.26188085076E+03  0.29661802764E+03  0.12507866368E+03 0.  0.
          5    1    3    3  502    0  0.54830785846E+02  0.11844748898E+01  0.27133904614E+02  0.61331388675E+02  0.41800000000E+01 0.  1.
         -5    1    3    3    0  502  0.43503280840E+01  0.14740284770E+02  0.23474694614E+03  0.23528663896E+03  0.41800000000E+01 0.  1.
        -11    1    1    2    0    0 -0.41816375091E+01 -0.33113422898E+02  0.12800658934E+03  0.13228632500E+03  0.00000000000E+00 0. -1.
         11    1    1    2    0    0 -0.54999476421E+02  0.17188663238E+02  0.47313621483E+02  0.74558509429E+02  0.00000000000E+00 0.  1.
</event>
<event>
 7    1  0.2841804E-009  0.1419234E+03  0.7561462E-02  0.1210764E+00
         -1   -1    0    0    0  501 -0.00000000000E+00  0.00000000000E+00  0.13132372631E+04  0.13132372631E+04  0.00000000000E+00 0.  1.
          1   -1    0    0  501    0  0.00000000000E+00 -0.00000000000E+00 -0.18881844530E+02  0.18881844530E+02  0.00000000000E+00 0. -1.
         25    2    1    2    0    0  0.10539248428E+03 -0.33131982723E+02  0.60097418793E+03  0.62371740207E+03  0.12509244207E+03 0.  0.
          5    1    3    3  502    0  0.11812607488E+03 -0.19508539881E+02  0.58923320199E+03  0.60128827647E+03  0.41800000000E+01 0.  1.
         -5    1    3    3    0  502 -0.12733590597E+02 -0.13623442842E+02  0.11740985945E+02  0.22429125603E+02  0.41800000000E+01 0.  1.
        -11    1    1    2    0    0 -0.73596509559E+02  0.66252589515E+02  0.45758726500E+03  0.46817940678E+03  0.00000000000E+00 0.  1.
         11    1    1    2    0    0 -0.31795974721E+02 -0.33120606791E+02  0.23579396564E+03  0.24022229878E+03  0.00000000000E+00 0. -1.
</event>
<event>
 7    1  0.2841804E-009  0.2243626E+03  0.7561462E-02  0.1130672E+00
          2   -1    0    0  501    0  0.00000000000E+00  0.00000000000E+00  0.64215332439E+03  0.64215332439E+03  0.00000000000E+00 0. -1.
         -2   -1    0    0    0  501 -0.00000000000E+00 -0.00000000000E+00 -0.89897105727E+02  0.89897105727E+02  0.00000000000E+00 0.  1.
         25    2    1    2    0    0 -0.63125294717E+02  0.20298442155E+03  0.23462333802E+03  0.34041100370E+03  0.12507622665E+03 0.  0.
          5    1    3    3  502    0  0.84487688378E+01  0.47551161162E+02  0.13250065025E+03  0.14109000439E+03  0.41800000000E+01 0. -1.
         -5    1    3    3    0  502 -0.71574063555E+02  0.15543326038E+03  0.10212268777E+03  0.19932099931E+03  0.41800000000E+01 0. -1.
        -11    1    1    2    0    0  0.84581360953E+02 -0.15703713879E+03  0.24458093751E+03  0.30271191680E+03  0.00000000000E+00 0.  1.
         11    1    1    2    0    0 -0.21456066236E+02 -0.45947282751E+02  0.73051943129E+02  0.88927509610E+02  0.00000000000E+00 0. -1.
</event>
<event>
 7    1  0.2841804E-009  0.1453730E+03  0.7561462E-02  0.1206277E+00
         -1   -1    0    0    0  501 -0.00000000000E+00  0.00000000000E+00  0.30310469451E+02  0.30310469451E+02  0.00000000000E+00 0.  1.
          1   -1    0    0  501    0  0.00000000000E+00 -0.00000000000E+00 -0.10986356097E+04  0.10986356097E+04  0.00000000000E+00 0. -1.
         25    2    1    2    0    0  0.12564297459E+03 -0.18853559090E+00 -0.79624949353E+03  0.81574927795E+03  0.12508971146E+03 0.  0.
          5    1    3    3  502    0 -0.11936882426E+02  0.16858118965E+02 -0.29241467781E+03  0.29317315965E+03  0.41800000000E+01 0.  1.
         -5    1    3    3    0  502  0.13757985702E+03 -0.17046654556E+02 -0.50383481572E+03  0.52257611831E+03  0.41800000000E+01 0.  1.
        -11    1    1    2    0    0 -0.10034740302E+03 -0.15012866095E+02 -0.11495477798E+03  0.15332836796E+03  0.00000000000E+00 0.  1.
         11    1    1    2    0    0 -0.25295571571E+02  0.15201401686E+02 -0.15712086876E+03  0.15986843327E+03  0.00000000000E+00 0. -1.
</event>
<event>
 7    1  0.2841804E-009  0.1093963E+03  0.7561462E-02  0.1261692E+00
          2   -1    0    0  501    0  0.00000000000E+00  0.00000000000E+00  0.13035582558E+03  0.13035582558E+03  0.00000000000E+00 0. -1.
         -2   -1    0    0    0  501 -0.00000000000E+00 -0.00000000000E+00 -0.11814417746E+03  0.11814417746E+03  0.00000000000E+00 0.  1.
         25    2    1    2    0    0  0.21807787211E+02 -0.48079818838E+02 -0.34942340956E+02  0.14018877061E+03  0.12507867784E+03 0.  0.
          5    1    3    3  502    0 -0.44743501178E+02  0.24060643681E+01 -0.34239976489E+02  0.56547488304E+02  0.41800000000E+01 0.  1.
         -5    1    3    3    0  502  0.66551288389E+02 -0.50485883206E+02 -0.70236446655E+00  0.83641282303E+02  0.41800000000E+01 0.  1.
        -11    1    1    2    0    0  0.25102901114E+02  0.33355260206E+01 -0.41209226193E+01  0.25656644001E+02  0.00000000000E+00 0.  1.
         11    1    1    2    0    0 -0.46910688325E+02  0.44744292818E+02  0.51274911695E+02  0.82654588428E+02  0.00000000000E+00 0. -1.
</event>
<event>
 7    1  0.2841804E-009  0.1123369E+03  0.7561462E-02  0.1256303E+00
          1   -1    0    0  501    0  0.00000000000E+00  0.00000000000E+00  0.11820835978E+03  0.11820835978E+03  0.00000000000E+00 0. -1.
         -1   -1    0    0    0  501 -0.00000000000E+00 -0.00000000000E+00 -0.14571195205E+03  0.14571195205E+03  0.00000000000E+00 0.  1.
         25    2    1    2    0    0  0.74023414923E+02  0.15949213960E+02 -0.17872500623E+02  0.14730621378E+03  0.12508337603E+03 0.  0.
          5    1    3    3  502    0  0.34622076611E+02 -0.53022686067E+02  0.72849294999E+01  0.63879856172E+02  0.41800000000E+01 0. -1.
         -5    1    3    3    0  502  0.39401338312E+02  0.68971900027E+02 -0.25157430123E+02  0.83426357612E+02  0.41800000000E+01 0. -1.
        -11    1    1    2    0    0 -0.46262702874E+02  0.54967736249E+01  0.36128597354E+02  0.58955302936E+02  0.00000000000E+00 0. -1.
         11    1    1    2    0    0 -0.27760712049E+02 -0.21445987584E+02 -0.45759688998E+02  0.57658795115E+02  0.00000000000E+00 0.  1.
</event>
<event>
 7    1  0.2841804E-009  0.1071427E+03  0.7561462E-02  0.1265954E+00
          3   -1    0    0  501    0  0.00000000000E+00  0.00000000000E+00  0.50077082898E+02  0.50077082898E+02  0.00000000000E+00 0. -1.
         -3   -1    0    0    0  501 -0.00000000000E+00 -0.00000000000E+00 -0.27952698119E+03  0.27952698119E+03  0.00000000000E+00 0.  1.
         25    2    1    2    0    0 -0.23503068069E+02  0.32839646415E+02 -0.17214497746E+03  0.21659246139E+03  0.12509022536E+03 0.  0.
          5    1    3    3  502    0 -0.68302753696E+02  0.44580057033E+02 -0.13167839398E+03  0.15494940945E+03  0.41800000000E+01 0. -1.
         -5    1    3    3    0  502  0.44799685627E+02 -0.11740410618E+02 -0.40466583478E+02  0.61643051937E+02  0.41800000000E+01 0. -1.
        -11    1    1    2    0    0 -0.21860139064E+02 -0.34360958100E+02 -0.10627086335E+01  0.40739053390E+02  0.00000000000E+00 0. -1.
         11    1    1    2    0    0  0.45363207133E+02  0.15213116855E+01 -0.56242212197E+02  0.72272549308E+02  0.00000000000E+00 0.  1.
</event>
<event>
 7    1  0.2841804E-009  0.7151320E+02  0.7561462E-02  0.1355022E+00
         -1   -1    0    0    0  501 -0.00000000000E+00  0.00000000000E+00  0.29114839894E+03  0.29114839894E+03  0.00000000000E+00 0.  1.
          1   -1    0    0  501    0  0.00000000000E+00 -0.00000000000E+00 -0.49070699310E+02  0.49070699310E+02  0.00000000000E+00 0. -1.
         25    2    1    2    0    0  0.27633806314E+02 -0.21420457157E+02  0.84402310820E+02  0.15490103077E+03  0.12509242993E+03 0.  0.
          5    1    3    3  502    0 -0.61736836429E+01 -0.41231945327E+02  0.10309560586E+03  0.11128505755E+03  0.41800000000E+01 0. -1.
         -5    1    3    3    0  502  0.33807489957E+02  0.19811488170E+02 -0.18693295041E+02  0.43615973223E+02  0.41800000000E+01 0. -1.
        -11    1    1    2    0    0 -0.22108801717E+02 -0.13803544574E+02  0.14523527496E+03  0.14755548804E+03  0.00000000000E+00 0.  1.
         11    1    1    2    0    0 -0.55250045970E+01  0.35224001731E+02  0.12440113845E+02  0.37762579443E+02  0.00000000000E+00 0. -1.
</event>
<event>
 7    1  0.2841804E-009  0.2321554E+03  0.7561462E-02  0.1125132E+00
          1   -1    0    0  501    0  0.00000000000E+00  0.00000000000E+00  0.86405101998E+03  0.86405101998E+03  0.00000000000E+00 0. -1.
         -1   -1    0    0    0  501 -0.00000000000E+00 -0.00000000000E+00 -0.14081873984E+03  0.14081873984E+03  0.00000000000E+00 0.  1.
         25    2    1    2    0    0  0.70448217529E+02  0.20435705228E+03  0.51737395466E+01  0.24979757110E+03  0.12508917929E+03 0.  0.
          5    1    3    3  502    0  0.75269054545E+02  0.62127109683E+02  0.36029767648E+02  0.10411928201E+03  0.41800000000E+01 0.  1.
         -5    1    3    3    0  502 -0.48208370157E+01  0.14222994260E+03 -0.30856028101E+02  0.14567828909E+03  0.41800000000E+01 0.  1.
        -11    1    1    2    0    0 -0.97153784901E+01 -0.11952981235E+03  0.48707081114E+03  0.50161712459E+03  0.00000000000E+00 0. -1.
         11    1    1    2    0    0 -0.60732839039E+02 -0.84827239937E+02  0.23098772945E+03  0.25345506412E+03  0.00000000000E+00 0.  1.
</event>
<event>
 7    1  0.2841804E-009  0.4180992E+03  0.7561462E-02  0.1037687E+00
         -1   -1    0    0    0  501 -0.00000000000E+00  0.00000000000E+00  0.14034300413E+03  0.14034300413E+03  0.00000000000E+00 0.  1.
          1   -1    0    0  501    0  0.00000000000E+00 -0.00000000000E+00 -0.13056433405E+04  0.13056433405E+04  0.00000000000E+00 0. -1.
         25    2    1    2    0    0  0.32779786490E+03  0.24991099389E+03 -0.52635566493E+03  0.68015102203E+03  0.12509269226E+03 0.  0.
          5    1    3    3  502    0  0.10623264459E+03  0.35421449504E+02 -0.21186498851E+03  0.23967540470E+03  0.41800000000E+01 0.  1.
         -5    1    3    3    0  502  0.22156522031E+03  0.21448954439E+03 -0.31449067642E+03  0.44047561733E+03  0.41800000000E+01 0.  1.
        -11    1    1    2    0    0 -0.18443305981E+03 -0.17377977832E+03 -0.45253795863E+03  0.51865746781E+03  0.00000000000E+00 0. -1.
         11    1    1    2    0    0 -0.14336480509E+03 -0.76131215571E+02 -0.18640671276E+03  0.24717785477E+03  0.00000000000E+00 0.  1.
</event>
<event>
 7    1  0.2841804E-009  0.1793353E+03  0.7561462E-02  0.1168448E+00
          2   -1    0    0  501    0  0.00000000000E+00  0.00000000000E+00  0.54167367259E+03  0.54167367259E+03  0.00000000000E+00 0.  1.
         -2   -1    0    0    0  501 -0.00000000000E+00 -0.00000000000E+00 -0.62832515577E+02  0.62832515577E+02  0.00000000000E+00 0. -1.
         25    2    1    2    0    0 -0.14653670008E+03  0.18481804739E+02  0.29537979980E+03  0.35314571745E+03  0.12509232610E+03 0.  0.
          5    1    3    3  502    0 -0.16351527135E+03 -0.37471430738E+01  0.23357377376E+03  0.28517620034E+03  0.41800000000E+01 0.  1.
         -5    1    3    3    0  502  0.16978571273E+02  0.22228947813E+02  0.61806026031E+02  0.67969517117E+02  0.41800000000E+01 0.  1.
        -11    1    1    2    0    0  0.14204238884E+03 -0.37765008307E+02  0.13729468238E+03  0.20112698946E+03  0.00000000000E+00 0. -1.
         11    1    1    2    0    0  0.44943112374E+01  0.19283203568E+02  0.46166674838E+02  0.50233481254E+02  0.00000000000E+00 0.  1.
</event>
<event>
 7    1  0.2841804E-009  0.8352284E+02  0.7561462E-02  0.1319341E+00
          1   -1    0    0  501    0  0.00000000000E+00  0.00000000000E+00  0.45564323357E+02  0.45564323357E+02  0.00000000000E+00 0. -1.
         -1   -1    0    0    0  501 -0.00000000000E+00 -0.00000000000E+00 -0.34953599215E+03  0.34953599215E+03  0.00000000000E+00 0.  1.
         25    2    1    2    0    0 -0.14657611201E+02 -0.33212500512E+02 -0.25784668858E+03  0.28887899199E+03  0.12509293123E+03 0.  0.
          5    1    3    3  502    0 -0.15085486673E+01 -0.63150300096E+02 -0.24573752905E+03  0.25376099327E+03  0.41800000000E+01 0.  1.
         -5    1    3    3    0  502 -0.13149062534E+02  0.29937799584E+02 -0.12109159531E+02  0.35117998719E+02  0.41800000000E+01 0.  1.
        -11    1    1    2    0    0  0.14798844312E+02 -0.15865889897E+02 -0.52427664650E+02  0.56739688718E+02  0.00000000000E+00 0.  1.
         11    1    1    2    0    0 -0.14123311102E+00  0.49078390408E+02  0.63026844341E+01  0.49481634805E+02  0.00000000000E+00 0. -1.
</event>
<event>
 7    1  0.2841804E-009  0.1619586E+03  0.7561462E-02  0.1186503E+00
         -2   -1    0    0    0  501 -0.00000000000E+00  0.00000000000E+00  0.14766972007E+03  0.14766972007E+03  0.00000000000E+00 0.  1.
          2   -1    0    0  501    0  0.00000000000E+00 -0.00000000000E+00 -0.33597974722E+03  0.33597974722E+03  0.00000000000E+00 0. -1.
         25    2    1    2    0    0  0.12133418522E+03  0.28273248159E+02  0.64477182149E+02  0.18795128706E+03  0.12508804190E+03 0.  0.
          5    1    3    3  502    0  0.69870642147E+02  0.76046842318E+02  0.54677605075E+02  0.11692793403E+03  0.41800000000E+01 0.  1.
         -5    1    3    3    0  502  0.51463543071E+02 -0.47773594160E+02  0.97995770740E+01  0.71023353027E+02  0.41800000000E+01 0.  1.
        -11    1    1    2    0    0 -0.14111515138E+02 -0.39941687186E+02 -0.46404260582E+02  0.62831748622E+02  0.00000000000E+00 0. -1.
         11    1    1    2    0    0 -0.10722267008E+03  0.11668439027E+02 -0.20638294872E+03  0.23286643161E+03  0.00000000000E+00 0.  1.
</event>
<event>
 7    1  0.2841804E-009  0.1143067E+03  0.7561462E-02  0.1252796E+00
         -2   -1    0    0    0  501 -0.00000000000E+00  0.00000000000E+00  0.27946757195E+02  0.27946757195E+02  0.00000000000E+00 0.  1.
          2   -1    0    0  501    0  0.00000000000E+00 -0.00000000000E+00 -0.77368352227E+03  0.77368352227E+03  0.00000000000E+00 0. -1.
         25    2    1    2    0    0  0.21342057774E+02 -0.67732741204E+02 -0.60455267450E+03  0.62143578636E+03  0.12512111201E+03 0.  0.
          5    1    3    3  502    0  0.45748599938E+02 -0.90301050379E+02 -0.53145396257E+03  0.54102495398E+03  0.41800000000E+01 0.  1.
         -5    1    3    3    0  502 -0.24406542164E+02  0.22568309175E+02 -0.73098711924E+02  0.80410832382E+02  0.41800000000E+01 0.  1.
        -11    1    1    2    0    0 -0.41283839570E+02  0.59037332713E+02 -0.53183457544E+02  0.89544638141E+02  0.00000000000E+00 0.  1.
         11    1    1    2    0    0  0.19941781796E+02  0.86954084911E+01 -0.88000633037E+02  0.90649854963E+02  0.00000000000E+00 0. -1.
</event>
<event>
 7    1  0.2841804E-009  0.2078884E+03  0.7561462E-02  0.1143249E+00
         -1   -1    0    0    0  501 -0.00000000000E+00  0.00000000000E+00  0.40792619550E+03  0.40792619550E+03  0.00000000000E+00 0.  1.
          1   -1    0    0  501    0  0.00000000000E+00 -0.00000000000E+00 -0.12854104643E+03  0.12854104643E+03  0.00000000000E+00 0. -1.
         25    2    1    2    0    0  0.68114554258E+02 -0.18861703086E+03  0.16962565683E+03  0.29092398136E+03  0.12509165698E+03 0.  0.
          5    1    3    3  502    0  0.20228651069E+02 -0.37059665765E+02 -0.17040082807E+02  0.45721482618E+02  0.41800000000E+01 0.  1.
         -5    1    3    3    0  502  0.47885903189E+02 -0.15155736509E+03  0.18666573963E+03  0.24520249874E+03  0.41800000000E+01 0.  1.
        -11    1    1    2    0    0 -0.31617559796E+02  0.17086689376E+03  0.10865925927E+03  0.20494389500E+03  0.00000000000E+00 0.  1.
         11    1    1    2    0    0 -0.36496994463E+02  0.17750137093E+02  0.11002329733E+01  0.40599365564E+02  0.00000000000E+00 0. -1.
</event>
<event>
 7    1  0.2841804E-009  0.1777167E+03  0.7561462E-02  0.1170031E+00
          1   -1    0    0  501    0  0.00000000000E+00  0.00000000000E+00  0.16618056602E+03  0.16618056602E+03  0.00000000000E+00 0. -1.
         -1   -1    0    0    0  501 -0.00000000000E+00 -0.00000000000E+00 -0.34034889441E+03  0.34034889441E+03  0.00000000000E+00 0.  1.
         25    2    1    2    0    0 -0.11808547009E+03 -0.10844326523E+03  0.56412107605E+02  0.21102966111E+03  0.12508825670E+03 0.  0.
          5    1    3    3  502    0  0.16191420429E+02 -0.41871345691E+02  0.39871954431E+02  0.60188178537E+02  0.41800000000E+01 0.  1.
         -5    1    3    3    0  502 -0.13427689052E+03 -0.66571919535E+02  0.16540153175E+02  0.15084148257E+03  0.41800000000E+01 0.  1.
        -11    1    1    2    0    0  0.46990800475E+02  0.46734161181E+02 -0.17272285959E+03  0.18500109020E+03  0.00000000000E+00 0.  1.
         11    1    1    2    0    0  0.71094669615E+02  0.61709104044E+02 -0.57857576408E+02  0.11049870912E+03  0.00000000000E+00 0. -1.
</event>
<event>
 7    1  0.2841804E-009  0.1427823E+03  0.7561462E-02  0.1209634E+00
          2   -1    0    0  501    0  0.00000000000E+00  0.00000000000E+00  0.43015389320E+03  0.43015389320E+03  0.00000000000E+00 0. -1.
         -2   -1    0    0    0  501 -0.00000000000E+00 -0.00000000000E+00 -0.57903408549E+02  0.57903408549E+02  0.00000000000E+00 0.  1.
         25    2    1    2    0    0  0.83158921600E+02 -0.62457656018E+02  0.24845793368E+03  0.29697693475E+03  0.12509032708E+03 0.  0.
          5    1    3    3  502    0  0.30149381226E+02 -0.79031537990E+02  0.69515078892E+02  0.10956636244E+03  0.41800000000E+01 0. -1.
         -5    1    3    3    0  502  0.53009540374E+02  0.16573881972E+02  0.17894285479E+03  0.18741057231E+03  0.41800000000E+01 0. -1.
        -11    1    1    2    0    0 -0.24274449791E+02 -0.28115807463E+02  0.37864132017E+02  0.53041870587E+02  0.00000000000E+00 0.  1.
         11    1    1    2    0    0 -0.58884471809E+02  0.90573463481E+02  0.85928418957E+02  0.13803849641E+03  0.00000000000E+00 0. -1.
</event>
<event>
 7    1  0.2841804E-009  0.7154748E+02  0.7561462E-02  0.1354908E+00
         -3   -1    0    0    0  501 -0.00000000000E+00  0.00000000000E+00  0.52400936364E+02  0.52400936364E+02  0.00000000000E+00 0.  1.
          3   -1    0    0  501    0  0.00000000000E+00 -0.00000000000E+00 -0.23113319204E+03  0.23113319204E+03  0.00000000000E+00 0. -1.
         25    2    1    2    0    0  0.61836206784E+00  0.20996025410E+02 -0.90750562465E+02  0.15599273529E+03  0.12512734881E+03 0.  0.
          5    1    3    3  502    0 -0.36394000872E+02  0.13226520705E+02  0.16420384583E+02  0.42267784178E+02  0.41800000000E+01 0.  1.
         -5    1    3    3    0  502  0.37012362940E+02  0.77695047051E+01 -0.10717094705E+03  0.11372495111E+03  0.41800000000E+01 0.  1.
        -11    1    1    2    0    0 -0.13805860233E+02  0.19282498061E+02 -0.81234314015E+02  0.84625234308E+02  0.00000000000E+00 0. -1.
         11    1    1    2    0    0  0.13187498165E+02 -0.40278523472E+02 -0.67473791986E+01  0.42916158810E+02  0.00000000000E+00 0.  1.
</event>
<event>
 7    1  0.2841804E-009  0.9420159E+02  0.7561462E-02  0.1292984E+00
         -2   -1    0    0    0  501 -0.00000000000E+00  0.00000000000E+00  0.23332909750E+03  0.23332909750E+03  0.00000000000E+00 0.  1.
          2   -1    0    0  501    0  0.00000000000E+00 -0.00000000000E+00 -0.58354197555E+02  0.58354197555E+02  0.00000000000E+00 0. -1.
         25    2    1    2    0    0 -0.27369906003E+02  0.20047886537E+02  0.71275651172E+02  0.14791816115E+03  0.12509410233E+03 0.  0.
          5    1    3    3  502    0 -0.54869755005E+01  0.64749842490E+02  0.73154026332E+02  0.97936882589E+02  0.41800000000E+01 0.  1.
         -5    1    3    3    0  502 -0.21882930503E+02 -0.44701955953E+02 -0.18783751598E+01  0.49981278562E+02  0.41800000000E+01 0.  1.
        -11    1    1    2    0    0  0.14714885109E+02  0.23646378564E+02  0.92935565521E+02  0.97019062053E+02  0.00000000000E+00 0.  1.
         11    1    1    2    0    0  0.12655020894E+02 -0.43694265101E+02  0.10763683256E+02  0.46746071854E+02  0.00000000000E+00 0. -1.
</event>
<event>
 7    1  0.2841804E-009  0.1168795E+03  0.7561462E-02  0.1248336E+00
         -3   -1    0    0    0  501 -0.00000000000E+00  0.00000000000E+00  0.10862672734E+03  0.10862672734E+03  0.00000000000E+00 0.  1.
          3   -1    0    0  501    0  0.00000000000E+00 -0.00000000000E+00 -0.13321266713E+03  0.13321266713E+03  0.00000000000E+00 0. -1.
         25    2    1    2    0    0 -0.47000004107E+02 -0.11475868662E+02 -0.28953730257E+02  0.13720752221E+03  0.12508752819E+03 0.  0.
          5    1    3    3  502    0  0.32818115287E+02  0.27649087742E+02  0.15258497641E+01  0.43142801965E+02  0.41800000000E+01 0.  1.
         -5    1    3    3    0  502 -0.79818119394E+02 -0.39124956404E+02 -0.30479580021E+02  0.94064720248E+02  0.41800000000E+01 0.  1.
        -11    1    1    2    0    0  0.30894362213E+02 -0.38374916246E+02 -0.10084352973E+02  0.50287075758E+02  0.00000000000E+00 0. -1.
         11    1    1    2    0    0  0.16105641894E+02  0.49850784909E+02  0.14452143434E+02  0.54344796500E+02  0.00000000000E+00 0.  1.
</event>
<event>
 7    1  0.2841804E-009  0.1736401E+03  0.7561462E-02  0.1174104E+00
          2   -1    0    0  501    0  0.00000000000E+00  0.00000000000E+00  0.58485635585E+03  0.58485635585E+03  0.00000000000E+00 0. -1.
         -2   -1    0    0    0  501 -0.00000000000E+00 -0.00000000000E+00 -0.72076004188E+02  0.72076004188E+02  0.00000000000E+00 0.  1.
         25    2    1    2    0    0 -0.14223337017E+03  0.37381060034E+02  0.41529414561E+03  0.45797868430E+03  0.12509025803E+03 0.  0.
          5    1    3    3  502    0 -0.39763425190E+02  0.69968725727E+02  0.22993878068E+03  0.24365152949E+03  0.41800000000E+01 0. -1.
         -5    1    3    3    0  502 -0.10246994498E+03 -0.32587665693E+02  0.18535536494E+03  0.21432715481E+03  0.41800000000E+01 0. -1.
        -11    1    1    2    0    0  0.11780256521E+03 -0.53947078630E+02  0.42174722344E+02  0.13625872034E+03  0.00000000000E+00 0.  1.
         11    1    1    2    0    0  0.24430804960E+02  0.16566018596E+02  0.55311483709E+02  0.62694955405E+02  0.00000000000E+00 0. -1.
</event>
<event>
 7    1  0.2841804E-009  0.1038136E+03  0.7561462E-02  0.1272475E+00
         -2   -1    0    0    0  501 -0.00000000000E+00  0.00000000000E+00  0.24880779459E+02  0.24880779459E+02  0.00000000000E+00 0. -1.
          2   -1    0    0  501    0  0.00000000000E+00 -0.00000000000E+00 -0.83539772447E+03  0.83539772447E+03  0.00000000000E+00 0.  1.
         25    2    1    2    0    0 -0.37707625640E+02  0.56921610015E+02 -0.24572241428E+03  0.28405739534E+03  0.12508862557E+03 0.  0.
          5    1    3    3  502    0  0.17535486072E+02  0.64325858938E+01  0.70563710316E+01  0.20399416786E+02  0.41800000000E+01 0. -1.
         -5    1    3    3    0  502 -0.55243111712E+02  0.50489024121E+02 -0.25277878531E+03  0.26365797855E+03  0.41800000000E+01 0. -1.
        -11    1    1    2    0    0 -0.30206162031E+02 -0.20032922271E+02 -0.15277246452E+03  0.15701323548E+03  0.00000000000E+00 0. -1.
         11    1    1    2    0    0  0.67913787671E+02 -0.36888687744E+02 -0.41202206620E+03  0.41920787311E+03  0.00000000000E+00 0.  1.
</event>
<event>
 7    1  0.2841804E-009  0.1370500E+03  0.7561462E-02  0.1217354E+00
         -1   -1    0    0    0  501 -0.00000000000E+00  0.00000000000E+00  0.26303681582E+03  0.26303681582E+03  0.00000000000E+00 0.  1.
          1   -1    0    0  501    0  0.00000000000E+00 -0.00000000000E+00 -0.16131986195E+03  0.16131986195E+03  0.00000000000E+00 0. -1.
         25    2    1    2    0    0 -0.98077756039E+01 -0.12221143319E+03  0.18126212436E+03  0.25206031886E+03  0.12508644911E+03 0.  0.
          5    1    3    3  502    0  0.35983531091E+02 -0.42216592716E+02  0.14064648722E+03  0.15124801479E+03  0.41800000000E+01 0. -1.
         -5    1    3    3    0  502 -0.45791306695E+02 -0.79994840474E+02  0.40615637143E+02  0.10081230407E+03  0.41800000000E+01 0. -1.
        -11    1    1    2    0    0  0.18894558537E+02  0.50517244768E+02  0.12407364621E+02  0.55343825836E+02  0.00000000000E+00 0.  1.
         11    1    1    2    0    0 -0.90867829332E+01  0.71694188422E+02 -0.91952535115E+02  0.11695253307E+03  0.00000000000E+00 0. -1.
</event>
<event>
 7    1  0.2841804E-009  0.1504065E+03  0.7561462E-02  0.1199974E+00
          2   -1    0    0  501    0  0.00000000000E+00  0.00000000000E+00  0.21639592913E+04  0.21639592913E+04  0.00000000000E+00 0.  1.
         -2   -1    0    0    0  501 -0.00000000000E+00 -0.00000000000E+00 -0.12261282884E+02  0.12261282884E+02  0.00000000000E+00 0. -1.
         25    2    1    2    0    0  0.11171616783E+03  0.15764536652E+02  0.14329495181E+04  0.14428195748E+04  0.12511986659E+03 0.  0.
          5    1    3    3  502    0  0.27982774405E+02 -0.52909829119E+02  0.48684884375E+03  0.49053211387E+03  0.41800000000E+01 0. -1.
         -5    1    3    3    0  502  0.83733393424E+02  0.68674365771E+02  0.94610067439E+03  0.95228746089E+03  0.41800000000E+01 0. -1.
        -11    1    1    2    0    0  0.90653962491E+01  0.42476307088E+01  0.99779810749E+01  0.14134492638E+02  0.00000000000E+00 0. -1.
         11    1    1    2    0    0 -0.12078156408E+03 -0.20012167361E+02  0.70877050918E+03  0.71926650676E+03  0.00000000000E+00 0.  1.
</event>
<event>
 7    1  0.2841804E-009  0.1314565E+03  0.7561462E-02  0.1225310E+00
         -1   -1    0    0    0  501 -0.00000000000E+00  0.00000000000E+00  0.11276152501E+03  0.11276152501E+03  0.00000000000E+00 0.  1.
          1   -1    0    0  501    0  0.00000000000E+00 -0.00000000000E+00 -0.24822359690E+03  0.24822359690E+03  0.00000000000E+00 0. -1.
         25    2    1    2    0    0  0.23502174897E+02 -0.98566537399E+02 -0.15425611636E+03  0.22295748927E+03  0.12508948024E+03 0.  0.
          5    1    3    3  502    0 -0.42209986469E+02 -0.51922783723E+02 -0.27007440112E+02  0.72280928665E+02  0.41800000000E+01 0. -1.
         -5    1    3    3    0  502  0.65712161366E+02 -0.46643753676E+02 -0.12724867625E+03  0.15067656061E+03  0.41800000000E+01 0. -1.
        -11    1    1    2    0    0  0.12125984051E+02  0.65348112076E+02 -0.26461732596E+02  0.71537672125E+02  0.00000000000E+00 0. -1.
         11    1    1    2    0    0 -0.35628158948E+02  0.33218425323E+02  0.45255777073E+02  0.66489960516E+02  0.00000000000E+00 0.  1.
</event>
<event>
 7    1  0.2841804E-009  0.1281679E+03  0.7561462E-02  0.1230200E+00
         -1   -1    0    0    0  501 -0.00000000000E+00  0.00000000000E+00  0.27639973060E+03  0.27639973060E+03  0.00000000000E+00 0.  1.
          1   -1    0    0  501    0  0.00000000000E+00 -0.00000000000E+00 -0.84656263872E+02  0.84656263872E+02  0.00000000000E+00 0. -1.
         25    2    1    2    0    0 -0.37111413410E+01  0.92036393324E+02  0.41819003401E+02  0.16087400733E+03  0.12508855632E+03 0.  0.
          5    1    3    3  502    0  0.47419788819E+02 -0.76881141793E+00  0.24103315316E+02  0.53363561086E+02  0.41800000000E+01 0. -1.
         -5    1    3    3    0  502 -0.51130930160E+02  0.92805204742E+02  0.17715688085E+02  0.10751044624E+03  0.41800000000E+01 0. -1.
        -11    1    1    2    0    0  0.24479479046E+02 -0.55493115205E+02  0.14584239615E+03  0.15795168642E+03  0.00000000000E+00 0.  1.
         11    1    1    2    0    0 -0.20768337705E+02 -0.36543278119E+02  0.40820671790E+01  0.42230300723E+02  0.00000000000E+00 0. -1.
</event>
<event>
 7    1  0.2841804E-009  0.1306059E+03  0.7561462E-02  0.1226559E+00
          1   -1    0    0  501    0  0.00000000000E+00  0.00000000000E+00  0.16100742880E+04  0.16100742880E+04  0.00000000000E+00 0. -1.
         -1   -1    0    0    0  501 -0.00000000000E+00 -0.00000000000E+00 -0.11808599474E+02  0.11808599474E+02  0.00000000000E+00 0.  1.
         25    2    1    2    0    0  0.77709732383E+02 -0.16244133849E+02  0.10474292412E+04  0.10578555442E+04  0.12509061775E+03 0.  0.
          5    1    3    3  502    0  0.98011350499E+02  0.18454707580E+02  0.56619948381E+03  0.57493141236E+03  0.41800000000E+01 0.  1.
         -5    1    3    3    0  502 -0.20301618116E+02 -0.34698841429E+02  0.48122975742E+03  0.48292413185E+03  0.41800000000E+01 0.  1.
        -11    1    1    2    0    0 -0.81883922983E+02 -0.20160451511E+02  0.36534514461E+03  0.37495132396E+03  0.00000000000E+00 0. -1.
         11    1    1    2    0    0  0.41741905999E+01  0.36404585360E+02  0.18549130269E+03  0.18907601931E+03  0.00000000000E+00 0.  1.
</event>
<event>
 7    1  0.2841804E-009  0.1053337E+03  0.7561462E-02  0.1269464E+00
         -2   -1    0    0    0  501 -0.00000000000E+00  0.00000000000E+00  0.62455410511E+02  0.62455410511E+02  0.00000000000E+00 0.  1.
          2   -1    0    0  501    0  0.00000000000E+00 -0.00000000000E+00 -0.21026864481E+03  0.21026864481E+03  0.00000000000E+00 0. -1.
         25    2    1    2    0    0  0.17512205841E+02 -0.31223360719E+02 -0.96674508710E+02  0.16209821438E+03  0.12509314474E+03 0.  0.
          5    1    3    3  502    0 -0.49549461973E+02 -0.17240298358E+02 -0.13633173414E+02  0.54366468403E+02  0.41800000000E+01 0.  1.
         -5    1    3    3    0  502  0.67061667814E+02 -0.13983062361E+02 -0.83041335296E+02  0.10773174597E+03  0.41800000000E+01 0.  1.
        -11    1    1    2    0    0 -0.42483734614E+02  0.44164407419E+02 -0.12024824236E+02  0.62449651619E+02  0.00000000000E+00 0.  1.
         11    1    1    2    0    0  0.24971528773E+02 -0.12941046700E+02 -0.39113901357E+02  0.48176189329E+02  0.00000000000E+00 0. -1.
</event>
<event>
 7    1  0.2841804E-009  0.1102351E+03  0.7561462E-02  0.1260135E+00
          2   -1    0    0  501    0  0.00000000000E+00  0.00000000000E+00  0.72901163436E+02  0.72901163436E+02  0.00000000000E+00 0. -1.
         -2   -1    0    0    0  501 -0.00000000000E+00 -0.00000000000E+00 -0.23575924745E+03  0.23575924745E+03  0.00000000000E+00 0.  1.
         25    2    1    2    0    0 -0.48457965723E+02  0.51946490180E+02 -0.10869225692E+03  0.18030082781E+03  0.12509104489E+03 0.  0.
          5    1    3    3  502    0  0.33016460487E+02 -0.96595239662E+01 -0.55779945282E+01  0.35099565372E+02  0.41800000000E+01 0. -1.
         -5    1    3    3    0  502 -0.81474426211E+02  0.61606014146E+02 -0.10311426239E+03  0.14520126244E+03  0.41800000000E+01 0. -1.
        -11    1    1    2    0    0 -0.85030876551E+00 -0.29325179539E+02 -0.66536568599E+02  0.72717289147E+02  0.00000000000E+00 0.  1.
         11    1    1    2    0    0  0.49308274489E+02 -0.22621310641E+02  0.12370741503E+02  0.55642293927E+02  0.00000000000E+00 0. -1.
</event>
<event>
 7    1  0.2841804E-009  0.8190476E+02  0.7561462E-02  0.1323731E+00
          3   -1    0    0  501    0  0.00000000000E+00  0.00000000000E+00  0.45822749037E+03  0.45822749037E+03  0.00000000000E+00 0. -1.
         -3   -1    0    0    0  501 -0.00000000000E+00 -0.00000000000E+00 -0.27506949752E+02  0.27506949752E+02  0.00000000000E+00 0.  1.
         25    2    1    2    0    0  0.12151803526E+02  0.25062718154E+02  0.26705262391E+03  0.29620927744E+03  0.12508807270E+03 0.  0.
          5    1    3    3  502    0  0.52687914577E+02  0.48213630165E+02  0.10169480471E+03  0.12433775043E+03  0.41800000000E+01 0. -1.
         -5    1    3    3    0  502 -0.40536111051E+02 -0.23150912011E+02  0.16535781920E+03  0.17187152701E+03  0.41800000000E+01 0. -1.
        -11    1    1    2    0    0 -0.33982774801E+00 -0.31800573133E+02  0.17109842065E+03  0.17402890991E+03  0.00000000000E+00 0. -1.
         11    1    1    2    0    0 -0.11811975778E+02  0.67378549783E+01 -0.74305039385E+01  0.15496252781E+02  0.00000000000E+00 0.  1.
</event>
<event>
 7    1  0.2841804E-009  0.1933208E+03  0.7561462E-02  0.1155500E+00
         -1   -1    0    0    0  501 -0.00000000000E+00  0.00000000000E+00  0.55309889993E+02  0.55309889993E+02  0.00000000000E+00 0.  1.
          1   -1    0    0  501    0  0.00000000000E+00 -0.00000000000E+00 -0.75230406401E+03  0.75230406401E+03  0.00000000000E+00 0. -1.
         25    2    1    2    0    0 -0.16643637405E+03 -0.38683349751E+02 -0.40918827693E+03  0.46073801113E+03  0.12508797211E+03 0.  0.
          5    1    3    3  502    0 -0.11728133974E+03 -0.68312891054E+02 -0.18626876196E+03  0.23051049394E+03  0.41800000000E+01 0. -1.
         -5    1    3    3    0  502 -0.49155034311E+02  0.29629541303E+02 -0.22291951497E+03  0.23022751719E+03  0.41800000000E+01 0. -1.
        -11    1    1    2    0    0  0.12934273622E+03 -0.12663256101E+02 -0.18396748755E+03  0.22524195422E+03  0.00000000000E+00 0.  1.
         11    1    1    2    0    0  0.37093637828E+02  0.51346605852E+02 -0.10383840953E+03  0.12163398865E+03  0.00000000000E+00 0. -1.
</event>
<event>
 7    1  0.2841804E-009  0.1286020E+03  0.7561462E-02  0.1229545E+00
         -1   -1    0    0    0  501 -0.00000000000E+00  0.00000000000E+00  0.27983799655E+02  0.27983799655E+02  0.00000000000E+00 0.  1.
          1   -1    0    0  501    0  0.00000000000E+00 -0.00000000000E+00 -0.96155555773E+03  0.96155555773E+03  0.00000000000E+00 0. -1.
         25    2    1    2    0    0  0.37666450521E+02  0.11419995028E+03 -0.43923233411E+03  0.47226325044E+03  0.12508854566E+03 0.  0.
          5    1    3    3  502    0 -0.14716707580E+02  0.43748751594E+02 -0.32420481450E+03  0.32750079220E+03  0.41800000000E+01 0. -1.
         -5    1    3    3    0  502  0.52383158101E+02  0.70451198688E+02 -0.11502751960E+03  0.14476245824E+03  0.41800000000E+01 0. -1.
        -11    1    1    2    0    0 -0.41241983674E+02 -0.97081966071E+02 -0.48703225328E+03  0.49832341414E+03  0.00000000000E+00 0. -1.
         11    1    1    2    0    0  0.35755331523E+01 -0.17117984210E+02 -0.73071706941E+01  0.18952692798E+02  0.00000000000E+00 0.  1.
</event>
<event>
 7    1  0.2841804E-009  0.2939189E+03  0.7561462E-02  0.1088321E+00
         -1   -1    0    0    0  501 -0.00000000000E+00  0.00000000000E+00  0.10629331664E+03  0.10629331664E+03  0.00000000000E+00 0. -1.
          1   -1    0    0  501    0  0.00000000000E+00 -0.00000000000E+00 -0.12977766289E+04  0.12977766289E+04  0.00000000000E+00 0.  1.
         25    2    1    2    0    0  0.27454313478E+03 -0.57181595583E+02 -0.10142580910E+04  0.10597217721E+04  0.12508833401E+03 0.  0.
          5    1    3    3  502    0  0.19748242653E+03 -0.90992545071E+02 -0.63472178264E+03  0.67094572494E+03  0.41800000000E+01 0.  1.
         -5    1    3    3    0  502  0.77060708244E+02  0.33810949488E+02 -0.37953630839E+03  0.38877604716E+03  0.41800000000E+01 0.  1.
        -11    1    1    2    0    0 -0.49495932429E+02  0.33605122613E+02 -0.50991630186E+01  0.60042926781E+02  0.00000000000E+00 0.  1.
         11    1    1    2    0    0 -0.22504720235E+03  0.23576472969E+02 -0.17212605821E+03  0.28430524666E+03  0.00000000000E+00 0. -1.
</event>
<event>
 7    1  0.2841804E-009  0.1058448E+03  0.7561462E-02  0.1268464E+00
         -1   -1    0    0    0  501 -0.00000000000E+00  0.00000000000E+00  0.71557133417E+02  0.71557133417E+02  0.00000000000E+00 0.  1.
          1   -1    0    0  501    0  0.00000000000E+00 -0.00000000000E+00 -0.22697750710E+03  0.22697750710E+03  0.00000000000E+00 0. -1.
         25    2    1    2    0    0  0.47530628085E+02  0.46685510147E+01 -0.31899111626E+02  0.13764795559E+03  0.12509376635E+03 0.  0.
          5    1    3    3  502    0  0.76349080072E+02  0.35071698566E+02 -0.42479085132E+02  0.94239859623E+02  0.41800000000E+01 0.  1.
         -5    1    3    3    0  502 -0.28818451987E+02 -0.30403147552E+02  0.10579973506E+02  0.43408095965E+02  0.41800000000E+01 0.  1.
        -11    1    1    2    0    0  0.14652461649E+02  0.14281474790E+02  0.92795824774E+00  0.20482096110E+02  0.00000000000E+00 0.  1.
         11    1    1    2    0    0 -0.62183089734E+02 -0.18950025805E+02 -0.12444922030E+03  0.14040458882E+03  0.00000000000E+00 0. -1.
</event>
<event>
 6    1  0.2841804E-009  0.1917358E+03  0.7561462E-02  0.1156905E+00
         -1   -1    0    0    0  501 -0.00000000000E+00  0.00000000000E+00  0.26239959831E+03  0.26239959831E+03  0.00000000000E+00 0.  1.
          1   -1    0    0  501    0  0.00000000000E+00 -0.00000000000E+00 -0.15772886736E+03  0.15772886736E+03  0.00000000000E+00 0. -1.
          5    1    1    2  502    0  0.58513623081E+02  0.52642167722E+02 -0.12271715761E+02  0.79769100009E+02  0.41800000000E+01 0. -1.
         -5    1    1    2    0  502  0.11427255607E+03 -0.51936789878E+02  0.57918900033E+02  0.13830299561E+03  0.41800000000E+01 0. -1.
        -11    1    1    2    0    0 -0.60518632695E+02  0.22234477948E+02 -0.14269316598E+02  0.66034008730E+02  0.00000000000E+00 0. -1.
         11    1    1    2    0    0 -0.11226754646E+03 -0.22939855792E+02  0.73292863273E+02  0.13602236132E+03  0.00000000000E+00 0.  1.
</event>
<event>
 7    1  0.2841804E-009  0.9950584E+02  0.7561462E-02  0.1281339E+00
          1   -1    0    0  501    0  0.00000000000E+00  0.00000000000E+00  0.63654425097E+03  0.63654425097E+03  0.00000000000E+00 0. -1.
         -1   -1    0    0    0  501 -0.00000000000E+00 -0.00000000000E+00 -0.22485404927E+02  0.22485404927E+02  0.00000000000E+00 0.  1.
         25    2    1    2    0    0 -0.47911352933E+02 -0.16594071764E+02  0.35774928789E+03  0.38236048988E+03  0.12507649770E+03 0.  0.
          5    1    3    3  502    0 -0.50712535136E+02 -0.49443797450E+02  0.33415359919E+03  0.34160291359E+03  0.41800000000E+01 0.  1.
         -5    1    3    3    0  502  0.28011822029E+01  0.32849725685E+02  0.23595688703E+02  0.40757576286E+02  0.41800000000E+01 0.  1.
        -11    1    1    2    0    0  0.70570894569E+02  0.14736648046E+02  0.23385111060E+03  0.24471158920E+03  0.00000000000E+00 0. -1.
         11    1    1    2    0    0 -0.22659541636E+02  0.18574237180E+01  0.22458447551E+02  0.31957576824E+02  0.00000000000E+00 0.  1.
</event>
<event>
 7    1  0.2841804E-009  0.7486153E+02  0.7561462E-02  0.1344300E+00
         -1   -1    0    0    0  501 -0.00000000000E+00  0.00000000000E+00  0.41979568651E+02  0.41979568651E+02  0.00000000000E+00 0.  1.
          1   -1    0    0  501    0  0.00000000000E+00 -0.00000000000E+00 -0.28017891137E+03  0.28017891137E+03  0.00000000000E+00 0. -1.
         25    2    1    2    0    0 -0.16886127512E+02 -0.74704102725E+01 -0.14302373778E+03  0.19089739351E+03  0.12508028202E+03 0.  0.
          5    1    3    3  502    0 -0.24835527052E+02  0.19169524337E+02  0.11622258046E+02  0.33716811079E+02  0.41800000000E+01 0.  1.
         -5    1    3    3    0  502  0.79493995403E+01 -0.26639934610E+02 -0.15464599583E+03  0.15718058244E+03  0.41800000000E+01 0.  1.
        -11    1    1    2    0    0  0.33780299037E+02 -0.32307443371E+02 -0.43012544160E+02  0.63521322840E+02  0.00000000000E+00 0.  1.
         11    1    1    2    0    0 -0.16894171525E+02  0.39777853643E+02 -0.52163060772E+02  0.67739763663E+02  0.00000000000E+00 0. -1.
</event>
<event>
 7    1  0.2841804E-009  0.9751544E+02  0.7561462E-02  0.1285609E+00
          2   -1    0    0  501    0  0.00000000000E+00  0.00000000000E+00  0.26536308598E+03  0.26536308598E+03  0.00000000000E+00 0.  1.
         -2   -1    0    0    0  501 -0.00000000000E+00 -0.00000000000E+00 -0.49716024809E+02  0.49716024809E+02  0.00000000000E+00 0. -1.
         25    2    1    2    0    0  0.22947048323E+02  0.13088793404E+02  0.87152504448E+02  0.15473060101E+03  0.12509243110E+03 0.  0.
          5    1    3    3  502    0  0.39660144758E+02 -0.41305926981E+02  0.92321587689E+01  0.58153347638E+02  0.41800000000E+01 0.  1.
         -5    1    3    3    0  502 -0.16713096435E+02  0.54394720385E+02  0.77920345679E+02  0.96577253373E+02  0.41800000000E+01 0.  1.
        -11    1    1    2    0    0 -0.62171289429E-01  0.30937957005E+02  0.96427751304E+02  0.10126930567E+03  0.00000000000E+00 0.  1.
         11    1    1    2    0    0 -0.22884877034E+02 -0.44026750410E+02  0.32066805418E+02  0.59079204109E+02  0.00000000000E+00 0. -1.
</event>
<event>
 7    1  0.2841804E-009  0.9822240E+02  0.7561462E-02  0.1284079E+00
         -1   -1    0    0    0  501 -0.00000000000E+00  0.00000000000E+00  0.33329966955E+02  0.33329966955E+02  0.00000000000E+00 0.  1.
          1   -1    0    0  501    0  0.00000000000E+00 -0.00000000000E+00 -0.51232863574E+03  0.51232863574E+03  0.00000000000E+00 0. -1.
         25    2    1    2    0    0 -0.37447354299E+02 -0.60586216467E+02 -0.28876192887E+03  0.32265080764E+03  0.12508836132E+03 0.  0.
          5    1    3    3  502    0 -0.44375357901E+02 -0.60726041072E+02 -0.67215196737E+02  0.10095632484E+03  0.41800000000E+01 0. -1.
         -5    1    3    3    0  502  0.69280036025E+01  0.13982460500E+00 -0.22154673213E+03  0.22169448280E+03  0.41800000000E+01 0. -1.
        -11    1    1    2    0    0 -0.26149663989E+02  0.14632897725E+01 -0.69639222017E+02  0.74401393716E+02  0.00000000000E+00 0. -1.
         11    1    1    2    0    0  0.63597018288E+02  0.59122926694E+02 -0.12059751790E+03  0.14860640134E+03  0.00000000000E+00 0.  1.
</event>
<event>
 7    1  0.2841804E-009  0.1958417E+03  0.7561462E-02  0.1153296E+00
         -2   -1    0    0    0  501 -0.00000000000E+00  0.00000000000E+00  0.36549042352E+03  0.36549042352E+03  0.00000000000E+00 0.  1.
          2   -1    0    0  501    0  0.00000000000E+00 -0.00000000000E+00 -0.13452265555E+03  0.13452265555E+03  0.00000000000E+00 0. -1.
         25    2    1    2    0    0 -0.17972392636E+03  0.57976880075E+02  0.73448031164E+02  0.23812514956E+03  0.12508783012E+03 0.  0.
          5    1    3    3  502    0 -0.17733608659E+03  0.61017771459E+02  0.98888129509E+02  0.21205563091E+03  0.41800000000E+01 0. -1.
         -5    1    3    3    0  502 -0.23878397667E+01 -0.30408913839E+01 -0.25440098345E+02  0.26069518656E+02  0.41800000000E+01 0. -1.
        -11    1    1    2    0    0  0.17663314250E+02 -0.28728394184E+02  0.64421990994E+02  0.72715240674E+02  0.00000000000E+00 0.  1.
         11    1    1    2    0    0  0.16206061211E+03 -0.29248485891E+02  0.93097745814E+02  0.18917268883E+03  0.00000000000E+00 0. -1.
</event>
<event>
 7    1  0.2841804E-009  0.1287172E+03  0.7561462E-02  0.1229372E+00
          2   -1    0    0  501    0  0.00000000000E+00  0.00000000000E+00  0.18223642902E+04  0.18223642902E+04  0.00000000000E+00 0. -1.
         -2   -1    0    0    0  501 -0.00000000000E+00 -0.00000000000E+00 -0.15575551543E+02  0.15575551543E+02  0.00000000000E+00 0.  1.
         25    2    1    2    0    0 -0.65559028256E+02  0.78488685084E+02  0.14371816100E+04  0.14462378830E+04  0.12511824109E+03 0.  0.
          5    1    3    3  502    0  0.26229539498E+02  0.26908278241E+02  0.14785482586E+03  0.15261247036E+03  0.41800000000E+01 0.  1.
         -5    1    3    3    0  502 -0.91788567754E+02  0.51580406842E+02  0.12893267841E+04  0.12936254126E+04  0.41800000000E+01 0.  1.
        -11    1    1    2    0    0  0.49562263928E+02 -0.19710504154E+02  0.82766304423E+02  0.98464121016E+02  0.00000000000E+00 0.  1.
         11    1    1    2    0    0  0.15996764328E+02 -0.58778180930E+02  0.28684082425E+03  0.29323783774E+03  0.00000000000E+00 0. -1.
</event>
<event>
 7    1  0.2841804E-009  0.1415668E+03  0.7561462E-02  0.1211236E+00
         -1   -1    0    0    0  501 -0.00000000000E+00  0.00000000000E+00  0.37978483730E+02  0.37978483730E+02  0.00000000000E+00 0.  1.
          1   -1    0    0  501    0  0.00000000000E+00 -0.00000000000E+00 -0.84349659667E+03  0.84349659667E+03  0.00000000000E+00 0. -1.
         25    2    1    2    0    0  0.28413996801E+02  0.91605797771E+02 -0.68400174273E+03  0.70192783749E+03  0.12508128395E+03 0.  0.
          5    1    3    3  502    0 -0.43712970235E+02  0.12598169162E+02 -0.13316154199E+03  0.14077999253E+03  0.41800000000E+01 0. -1.
         -5    1    3    3    0  502  0.72126967036E+02  0.79007628609E+02 -0.55084020074E+03  0.56114784496E+03  0.41800000000E+01 0. -1.
        -11    1    1    2    0    0 -0.60274687479E+02 -0.67081223253E+02 -0.69793740334E+02  0.11403549734E+03  0.00000000000E+00 0.  1.
         11    1    1    2    0    0  0.31860690678E+02 -0.24524574518E+02 -0.51722629877E+02  0.65511745566E+02  0.00000000000E+00 0. -1.
</event>
<event>
 7    1  0.3262776E-009  0.1155376E+03  0.7561462E-02  0.1250646E+00
         -2   -1    0    0    0  501 -0.00000000000E+00  0.00000000000E+00  0.37879180128E+02  0.37879180128E+02  0.00000000000E+00 0.  1.
          2   -1    0    0  501    0  0.00000000000E+00 -0.00000000000E+00 -0.51217880030E+03  0.51217880030E+03  0.00000000000E+00 0. -1.
         25    2    1    2    0    0  0.41924146442E+02 -0.76473662402E+02 -0.26719851997E+03  0.30764651946E+03  0.12508188024E+03 0.  0.
          5    1    3    3  502    0  0.24712141894E+02 -0.10297414124E+03 -0.24975587069E+03  0.27131131761E+03  0.41800000000E+01 0. -1.
         -5    1    3    3    0  502  0.17212004548E+02  0.26500478840E+02 -0.17442649283E+02  0.36335201848E+02  0.41800000000E+01 0. -1.
        -11    1    1    2    0    0 -0.45212660526E+01  0.42348289576E+02 -0.17292082789E+02  0.45965591521E+02  0.00000000000E+00 0.  1.
         11    1    1    2    0    0 -0.37402880389E+02  0.34125372826E+02 -0.18980901742E+03  0.19644586945E+03  0.00000000000E+00 0. -1.
</event>
<event>
 7    1  0.2841804E-009  0.1160469E+03  0.7561462E-02  0.1249765E+00
         -2   -1    0    0    0  501 -0.00000000000E+00  0.00000000000E+00  0.16929334108E+03  0.16929334108E+03  0.00000000000E+00 0.  1.
          2   -1    0    0  501    0  0.00000000000E+00 -0.00000000000E+00 -0.12595729643E+03  0.12595729643E+03  0.00000000000E+00 0. -1.
         25    2    1    2    0    0  0.29893944709E+02 -0.91057123317E+02  0.26195544642E+01  0.15760771624E+03  0.12509309540E+03 0.  0.
          5    1    3    3  502    0 -0.56086637680E+01 -0.13180441088E+02  0.55126731798E+02  0.57110507748E+02  0.41800000000E+01 0.  1.
         -5    1    3    3    0  502  0.35502608477E+02 -0.77876682230E+02 -0.52507177334E+02  0.10049720850E+03  0.41800000000E+01 0.  1.
        -11    1    1    2    0    0  0.25965836613E+02  0.15966991328E+01  0.81039340971E+01  0.27247896561E+02  0.00000000000E+00 0.  1.
         11    1    1    2    0    0 -0.55859781322E+02  0.89460424184E+02  0.32612556086E+02  0.11039502470E+03  0.00000000000E+00 0. -1.
</event>
<event>
 7    1  0.2841804E-009  0.1678357E+03  0.7561462E-02  0.1180124E+00
         -2   -1    0    0    0  501 -0.00000000000E+00  0.00000000000E+00  0.42904962912E+02  0.42904962912E+02  0.00000000000E+00 0.  1.
          2   -1    0    0  501    0  0.00000000000E+00 -0.00000000000E+00 -0.89981886351E+03  0.89981886351E+03  0.00000000000E+00 0. -1.
         25    2    1    2    0    0  0.12571733401E+03 -0.54826478383E+02 -0.24297338144E+03  0.30576805384E+03  0.12508895978E+03 0.  0.
          5    1    3    3  502    0  0.42262315895E+02 -0.81323857528E+02 -0.84824365082E+02  0.12494926354E+03  0.41800000000E+01 0.  1.
         -5    1    3    3    0  502  0.83455018118E+02  0.26497379145E+02 -0.15814901636E+03  0.18081879030E+03  0.41800000000E+01 0.  1.
        -11    1    1    2    0    0 -0.88404159087E+01 -0.16944376233E+02 -0.21152275243E+02  0.28507605780E+02  0.00000000000E+00 0.  1.
         11    1    1    2    0    0 -0.11687691810E+03  0.71770854616E+02 -0.59278824391E+03  0.60844816680E+03  0.00000000000E+00 0. -1.
</event>
<event>
 7    1  0.2841804E-009  0.1192118E+03  0.7561462E-02  0.1244403E+00
         -4   -1    0    0    0  501 -0.00000000000E+00  0.00000000000E+00  0.39536027522E+02  0.39536027522E+02  0.00000000000E+00 0.  1.
          4   -1    0    0  501    0  0.00000000000E+00 -0.00000000000E+00 -0.45347271472E+03  0.45347271472E+03  0.00000000000E+00 0. -1.
         25    2    1    2    0    0  0.41608843694E+02  0.58158577419E+02 -0.28615742981E+03  0.32038458607E+03  0.12508593989E+03 0.  0.
          5    1    3    3  502    0  0.23023731575E+02  0.86573687463E+02 -0.26592508306E+03  0.28063983640E+03  0.41800000000E+01 0. -1.
         -5    1    3    3    0  502  0.18585112119E+02 -0.28415110044E+02 -0.20232346747E+02  0.39744749668E+02  0.41800000000E+01 0. -1.
        -11    1    1    2    0    0 -0.20896919303E+02 -0.81027979647E+02 -0.10503468557E+03  0.13429259062E+03  0.00000000000E+00 0.  1.
         11    1    1    2    0    0 -0.20711924391E+02  0.22869402228E+02 -0.22744571823E+02  0.38331565552E+02  0.00000000000E+00 0. -1.
</event>
<event>
 7    1  0.2841804E-009  0.1776673E+03  0.7561462E-02  0.1170080E+00
          2   -1    0    0  501    0  0.00000000000E+00  0.00000000000E+00  0.85817224295E+03  0.85817224295E+03  0.00000000000E+00 0.  1.
         -2   -1    0    0    0  501 -0.00000000000E+00 -0.00000000000E+00 -0.49027378214E+02  0.49027378214E+02  0.00000000000E+00 0. -1.
         25    2    1    2    0    0 -0.12340429752E+03 -0.12060672802E+03  0.37418719774E+03  0.43062257551E+03  0.12508053443E+03 0.  0.
          5    1    3    3  502    0 -0.29328857268E+02 -0.40206639988E+02  0.25114477647E+03  0.25606234967E+03  0.41800000000E+01 0. -1.
         -5    1    3    3    0  502 -0.94075440254E+02 -0.80400088029E+02  0.12304242127E+03  0.17456022584E+03  0.41800000000E+01 0. -1.
        -11    1    1    2    0    0  0.49497659671E+02  0.87624783686E+02  0.32379227525E+03  0.33907161270E+03  0.00000000000E+00 0.  1.
         11    1    1    2    0    0  0.73906637851E+02  0.32981944331E+02  0.11116539175E+03  0.13750543296E+03  0.00000000000E+00 0. -1.
</event>
<event>
 7    1  0.2841804E-009  0.6794548E+02  0.7561462E-02  0.1367222E+00
         -2   -1    0    0    0  501 -0.00000000000E+00  0.00000000000E+00  0.29241838800E+02  0.29241838800E+02  0.00000000000E+00 0.  1.
          2   -1    0    0  501    0  0.00000000000E+00 -0.00000000000E+00 -0.48294091559E+03  0.48294091559E+03  0.00000000000E+00 0. -1.
         25    2    1    2    0    0 -0.26867209204E+02 -0.37768208017E+02 -0.26235905507E+03  0.29432622239E+03  0.12508943579E+03 0.  0.
          5    1    3    3  502    0 -0.13342446123E+02  0.11422026866E+02  0.75771002534E+01  0.19579796079E+02  0.41800000000E+01 0.  1.
         -5    1    3    3    0  502 -0.13524763081E+02 -0.49190234883E+02 -0.26993615532E+03  0.27474642631E+03  0.41800000000E+01 0.  1.
        -11    1    1    2    0    0  0.39870566570E+02  0.19926774144E+02 -0.19062601406E+03  0.19576775946E+03  0.00000000000E+00 0. -1.
         11    1    1    2    0    0 -0.13003357366E+02  0.17841433874E+02 -0.71400766743E+00  0.22088772542E+02  0.00000000000E+00 0.  1.
</event>
<event>
 7    1  0.3129970E-009  0.1027326E+03  0.7561462E-02  0.1274652E+00
          2   -1    0    0  501    0  0.00000000000E+00  0.00000000000E+00  0.44832653070E+03  0.44832653070E+03  0.00000000000E+00 0. -1.
         -2   -1    0    0    0  501 -0.00000000000E+00 -0.00000000000E+00 -0.49712862295E+02  0.49712862295E+02  0.00000000000E+00 0.  1.
         25    2    1    2    0    0  0.11459725020E+01 -0.82000905676E+02  0.31662030929E+03  0.35017468024E+03  0.12509366349E+03 0.  0.
          5    1    3    3  502    0 -0.36987317199E+00 -0.28517842201E+02  0.28783504454E+03  0.28927476454E+03  0.41800000000E+01 0. -1.
         -5    1    3    3    0  502  0.15158456740E+01 -0.53483063475E+02  0.28785264743E+02  0.60899915707E+02  0.41800000000E+01 0. -1.
        -11    1    1    2    0    0 -0.45207680264E+02  0.27602206837E+02  0.32746011278E+02  0.62272926956E+02  0.00000000000E+00 0. -1.
         11    1    1    2    0    0  0.44061707762E+02  0.54398698839E+02  0.49247347838E+02  0.85591785793E+02  0.00000000000E+00 0.  1.
</event>
<event>
 7    1  0.2841804E-009  0.1018966E+03  0.7561462E-02  0.1276358E+00
          1   -1    0    0  501    0  0.00000000000E+00  0.00000000000E+00  0.78358011200E+03  0.78358011200E+03  0.00000000000E+00 0. -1.
         -1   -1    0    0    0  501 -0.00000000000E+00 -0.00000000000E+00 -0.16809622434E+02  0.16809622434E+02  0.00000000000E+00 0.  1.
         25    2    1    2    0    0  0.21452304383E+01 -0.33998386969E+02  0.50392436043E+03  0.52033482532E+03  0.12509227422E+03 0.  0.
          5    1    3    3  502    0  0.61613579390E+02 -0.32927737019E+02  0.26582239449E+03  0.27488085936E+03  0.41800000000E+01 0. -1.
         -5    1    3    3    0  502 -0.59468348951E+02 -0.10706499503E+01  0.23810196594E+03  0.24545396596E+03  0.41800000000E+01 0. -1.
        -11    1    1    2    0    0 -0.24218643859E+02 -0.90106179518E+01  0.20640907486E+02  0.33072360183E+02  0.00000000000E+00 0.  1.
         11    1    1    2    0    0  0.22073413420E+02  0.43009004921E+02  0.24220522165E+03  0.24698254894E+03  0.00000000000E+00 0. -1.
</event>
<event>
 7    1  0.2841804E-009  0.1057770E+03  0.7561462E-02  0.1268596E+00
         -1   -1    0    0    0  501 -0.00000000000E+00  0.00000000000E+00  0.29460338897E+02  0.29460338897E+02  0.00000000000E+00 0.  1.
          1   -1    0    0  501    0  0.00000000000E+00 -0.00000000000E+00 -0.73107858998E+03  0.73107858998E+03  0.00000000000E+00 0. -1.
         25    2    1    2    0    0 -0.18430289697E+02  0.70118620876E+02 -0.55084245160E+03  0.56950041291E+03  0.12508803799E+03 0.  0.
          5    1    3    3  502    0 -0.26921252392E+02 -0.23078326459E+02 -0.29302051092E+03  0.29518783037E+03  0.41800000000E+01 0.  1.
         -5    1    3    3    0  502  0.84909626954E+01  0.93196947335E+02 -0.25782194068E+03  0.27431258253E+03  0.41800000000E+01 0.  1.
        -11    1    1    2    0    0  0.25031547580E+02 -0.21176456525E+02 -0.13540252491E+03  0.13931570061E+03  0.00000000000E+00 0. -1.
         11    1    1    2    0    0 -0.66012578829E+01 -0.48942164351E+02 -0.15373274572E+02  0.51722815353E+02  0.00000000000E+00 0.  1.
</event>
<event>
 7    1  0.2841804E-009  0.1135532E+03  0.7561462E-02  0.1254128E+00
          1   -1    0    0  501    0  0.00000000000E+00  0.00000000000E+00  0.33591238334E+03  0.33591238334E+03  0.00000000000E+00 0. -1.
         -1   -1    0    0    0  501 -0.00000000000E+00 -0.00000000000E+00 -0.40415479331E+02  0.40415479331E+02  0.00000000000E+00 0.  1.
         25    2    1    2    0    0  0.26860054287E+02  0.49181775590E+02  0.18416849948E+03  0.22957841668E+03  0.12509158100E+03 0.  0.
          5    1    3    3  502    0  0.64929332540E+02 -0.10085797104E+02  0.77643473795E+02  0.10180138973E+03  0.41800000000E+01 0.  1.
         -5    1    3    3    0  502 -0.38069278254E+02  0.59267572694E+02  0.10652502568E+03  0.12777702695E+03  0.41800000000E+01 0.  1.
        -11    1    1    2    0    0  0.20264464840E+01  0.17716670194E+02  0.62877891342E+01  0.18908283379E+02  0.00000000000E+00 0.  1.
         11    1    1    2    0    0 -0.28886500771E+02 -0.66898445785E+02  0.10504061539E+03  0.12784116261E+03  0.00000000000E+00 0. -1.
</event>
<event>
 7    1  0.2841804E-009  0.8723809E+02  0.7561462E-02  0.1309681E+00
         -2   -1    0    0    0  501 -0.00000000000E+00  0.00000000000E+00  0.68440388545E+03  0.68440388545E+03  0.00000000000E+00 0.  1.
          2   -1    0    0  501    0  0.00000000000E+00 -0.00000000000E+00 -0.27954374085E+02  0.27954374085E+02  0.00000000000E+00 0. -1.
         25    2    1    2    0    0 -0.50525364609E+02 -0.34608252602E+02  0.51825328655E+03  0.53664150665E+03  0.12508834488E+03 0.  0.
          5    1    3    3  502    0 -0.57822103382E+02 -0.30987429796E+02  0.10901119537E+03  0.12729701317E+03  0.41800000000E+01 0.  1.
         -5    1    3    3    0  502  0.72967387725E+01 -0.36208228062E+01  0.40924209118E+03  0.40934449348E+03  0.41800000000E+01 0.  1.
        -11    1    1    2    0    0 -0.10969918707E+01  0.46580248325E+02  0.10022115997E+03  0.11052241325E+03  0.00000000000E+00 0.  1.
         11    1    1    2    0    0  0.51622356480E+02 -0.11971995723E+02  0.37975064844E+02  0.65194339632E+02  0.00000000000E+00 0. -1.
</event>
<event>
 7    1  0.2841804E-009  0.1117755E+03  0.7561462E-02  0.1257317E+00
          1   -1    0    0  501    0  0.00000000000E+00  0.00000000000E+00  0.45314528114E+03  0.45314528114E+03  0.00000000000E+00 0. -1.
         -1   -1    0    0    0  501 -0.00000000000E+00 -0.00000000000E+00 -0.37359068364E+02  0.37359068364E+02  0.00000000000E+00 0.  1.
         25    2    1    2    0    0  0.55625196798E+02  0.32181190895E+02  0.29506508822E+03  0.32686505754E+03  0.12509023937E+03 0.  0.
          5    1    3    3  502    0  0.67304076489E+02 -0.10853408546E+02  0.26315216003E+03  0.27187160006E+03  0.41800000000E+01 0. -1.
         -5    1    3    3    0  502 -0.11678879691E+02  0.43034599441E+02  0.31912928195E+02  0.54993457482E+02  0.41800000000E+01 0. -1.
        -11    1    1    2    0    0 -0.36609410968E+02  0.28803547409E+02  0.51995764138E+02  0.69810119633E+02  0.00000000000E+00 0. -1.
         11    1    1    2    0    0 -0.19015785830E+02 -0.60984738305E+02  0.68725360417E+02  0.93829172336E+02  0.00000000000E+00 0.  1.
</event>
<event>
 7    1  0.2841804E-009  0.9134920E+02  0.7561462E-02  0.1299617E+00
          1   -1    0    0  501    0  0.00000000000E+00  0.00000000000E+00  0.11231188511E+03  0.11231188511E+03  0.00000000000E+00 0. -1.
         -1   -1    0    0    0  501 -0.00000000000E+00 -0.00000000000E+00 -0.11124386943E+03  0.11124386943E+03  0.00000000000E+00 0.  1.
         25    2    1    2    0    0  0.13700575339E+02 -0.19895113719E+02  0.15630594172E+02  0.12836107627E+03  0.12509488044E+03 0.  0.
          5    1    3    3  502    0 -0.53484684505E+02 -0.90900642103E+00  0.22294355971E+02  0.58102912813E+02  0.41800000000E+01 0.  1.
         -5    1    3    3    0  502  0.67185259843E+02 -0.18986107298E+02 -0.66637617993E+01  0.70258163453E+02  0.41800000000E+01 0.  1.
        -11    1    1    2    0    0 -0.53002069816E+01 -0.18785672960E+02 -0.42485240905E+02  0.46754565524E+02  0.00000000000E+00 0.  1.
         11    1    1    2    0    0 -0.84003683571E+01  0.38680786678E+02  0.27922662415E+02  0.48440112747E+02  0.00000000000E+00 0. -1.
</event>
<event>
 7    1  0.2841804E-009  0.1149594E+03  0.7561462E-02  0.1251652E+00
          2   -1    0    0  501    0  0.00000000000E+00  0.00000000000E+00  0.29398685805E+03  0.29398685805E+03  0.00000000000E+00 0. -1.
         -2   -1    0    0    0  501 -0.00000000000E+00 -0.00000000000E+00 -0.66981839499E+02  0.66981839499E+02  0.00000000000E+00 0.  1.
         25    2    1    2    0    0 -0.46633480505E+01 -0.65960336418E+02  0.19949418934E+03  0.24457695562E+03  0.12508973916E+03 0.  0.
          5    1    3    3  502    0 -0.62359163130E+02 -0.43665818804E+02  0.83611747571E+02  0.11315372592E+03  0.41800000000E+01 0.  1.
         -5    1    3    3    0  502  0.57695815080E+02 -0.22294517614E+02  0.11588244177E+03  0.13142322970E+03  0.41800000000E+01 0.  1.
        -11    1    1    2    0    0  0.38624551920E+01 -0.12568918421E+02  0.35110149270E+02  0.37491583751E+02  0.00000000000E+00 0. -1.
         11    1    1    2    0    0  0.80089285853E+00  0.78529254840E+02 -0.75993200623E+01  0.78900158178E+02  0.00000000000E+00 0.  1.
</event>
<event>
 7    1  0.2841804E-009  0.1338237E+03  0.7561462E-02  0.1221890E+00
         -1   -1    0    0    0  501 -0.00000000000E+00  0.00000000000E+00  0.28131961367E+03  0.28131961367E+03  0.00000000000E+00 0.  1.
          1   -1    0    0  501    0  0.00000000000E+00 -0.00000000000E+00 -0.65022792848E+02  0.65022792848E+02  0.00000000000E+00 0. -1.
         25    2    1    2    0    0 -0.20918170762E+02 -0.69643346893E+02  0.94219969521E+02  0.17266079964E+03  0.12508630397E+03 0.  0.
          5    1    3    3  502    0  0.51067913888E+02 -0.45228449069E+02  0.39895948493E+02  0.79137244962E+02  0.41800000000E+01 0.  1.
         -5    1    3    3    0  502 -0.71986084650E+02 -0.24414897824E+02  0.54324021028E+02  0.93523554678E+02  0.41800000000E+01 0.  1.
        -11    1    1    2    0    0  0.61232118428E+02  0.40110594571E+02  0.65903446166E+02  0.98496174244E+02  0.00000000000E+00 0.  1.
         11    1    1    2    0    0 -0.40313947666E+02  0.29532752322E+02  0.56173405140E+02  0.75185432639E+02  0.00000000000E+00 0. -1.
</event>
<event>
 7    1  0.2841804E-009  0.1473926E+03  0.7561462E-02  0.1203714E+00
          3   -1    0    0  501    0  0.00000000000E+00  0.00000000000E+00  0.41920794446E+02  0.41920794446E+02  0.00000000000E+00 0. -1.
         -3   -1    0    0    0  501 -0.00000000000E+00 -0.00000000000E+00 -0.67243048971E+03  0.67243048971E+03  0.00000000000E+00 0.  1.
         25    2    1    2    0    0 -0.12416479334E+03  0.21947272711E+02 -0.30026665812E+03  0.34886676490E+03  0.12509746196E+03 0.  0.
          5    1    3    3  502    0 -0.10553952738E+02  0.40461816312E+02 -0.21423812546E+02  0.47169870062E+02  0.41800000000E+01 0. -1.
         -5    1    3    3    0  502 -0.11361084060E+03 -0.18514543601E+02 -0.27884284557E+03  0.30169689483E+03  0.41800000000E+01 0. -1.
        -11    1    1    2    0    0  0.68434299303E+00 -0.13810637398E+02 -0.11280594227E+01  0.13873519695E+02  0.00000000000E+00 0. -1.
         11    1    1    2    0    0  0.12348045035E+03 -0.81366353134E+01 -0.32911497773E+03  0.35161099957E+03  0.00000000000E+00 0.  1.
</event>
<event>
 7    1  0.2841804E-009  0.4332589E+02  0.7561462E-02  0.1485072E+00
          2   -1    0    0  501    0  0.00000000000E+00  0.00000000000E+00  0.11051305621E+03  0.11051305621E+03  0.00000000000E+00 0. -1.
         -2   -1    0    0    0  501 -0.00000000000E+00 -0.00000000000E+00 -0.86945544629E+02  0.86945544629E+02  0.00000000000E+00 0.  1.
         25    2    1    2    0    0  0.35041783528E+02 -0.93927738152E+01  0.14723658887E+02  0.13107758954E+03  0.12509355521E+03 0.  0.
          5    1    3    3  502    0  0.21416459804E+02 -0.48802750968E+01 -0.55208966094E+02  0.59564957590E+02  0.41800000000E+01 0.  1.
         -5    1    3    3    0  502  0.13625323724E+02 -0.45124987184E+01  0.69932624981E+02  0.71512631947E+02  0.41800000000E+01 0.  1.
        -11    1    1    2    0    0 -0.18865212554E+01 -0.10506308522E+02 -0.16855716620E+02  0.19951357447E+02  0.00000000000E+00 0. -1.
         11    1    1    2    0    0 -0.33155262273E+02  0.19899082338E+02  0.25699569314E+02  0.46429653856E+02  0.00000000000E+00 0.  1.
</event>
<event>
 7    1  0.2841804E-009  0.1539946E+03  0.7561462E-02  0.1195649E+00
         -1   -1    0    0    0  501 -0.00000000000E+00  0.00000000000E+00  0.30967846936E+02  0.30967846936E+02  0.00000000000E+00 0.  1.
          1   -1    0    0  501    0  0.00000000000E+00 -0.00000000000E+00 -0.10424299518E+04  0.10424299518E+04  0.00000000000E+00 0. -1.
         25    2    1    2    0    0  0.94401428476E+02  0.69397246716E+02 -0.78136130346E+03  0.79993925230E+03  0.12509881405E+03 0.  0.
          5    1    3    3  502    0  0.20684293278E+02 -0.31326917542E+02 -0.93652456932E+02  0.10098252740E+03  0.41800000000E+01 0. -1.
         -5    1    3    3    0  502  0.73717135198E+02  0.10072416426E+03 -0.68770884653E+03  0.69895672490E+03  0.41800000000E+01 0. -1.
        -11    1    1    2    0    0 -0.76762343043E+02 -0.89945879635E+02 -0.20430607213E+03  0.23605865729E+03  0.00000000000E+00 0. -1.
         11    1    1    2    0    0 -0.17639085432E+02  0.20548632919E+02 -0.25794729268E+02  0.37399889141E+02  0.00000000000E+00 0.  1.
</event>
<event>
 7    1  0.2841804E-009  0.1800899E+03  0.7561462E-02  0.1167716E+00
          2   -1    0    0  501    0  0.00000000000E+00  0.00000000000E+00  0.33452066734E+03  0.33452066734E+03  0.00000000000E+00 0. -1.
         -2   -1    0    0    0  501 -0.00000000000E+00 -0.00000000000E+00 -0.10819623811E+03  0.10819623811E+03  0.00000000000E+00 0.  1.
         25    2    1    2    0    0 -0.13794548417E+03 -0.70868757825E+02  0.96738711632E+02  0.22149174027E+03  0.12509546450E+03 0.  0.
          5    1    3    3  502    0  0.75229176567E+01 -0.51590215197E+02  0.21712482139E+02  0.56630812062E+02  0.41800000000E+01 0.  1.
         -5    1    3    3    0  502 -0.14546840183E+03 -0.19278542627E+02  0.75026229493E+02  0.16486092820E+03  0.41800000000E+01 0.  1.
        -11    1    1    2    0    0  0.11311214300E+03  0.36860255175E+02  0.45848076265E+02  0.12749541718E+03  0.00000000000E+00 0.  1.
         11    1    1    2    0    0  0.24833341173E+02  0.34008502649E+02  0.83737641329E+02  0.93729748008E+02  0.00000000000E+00 0. -1.
</event>
<event>
 7    1  0.2841804E-009  0.2489145E+03  0.7561462E-02  0.1113993E+00
         -2   -1    0    0    0  501 -0.00000000000E+00  0.00000000000E+00  0.99119804374E+02  0.99119804374E+02  0.00000000000E+00 0. -1.
          2   -1    0    0  501    0  0.00000000000E+00 -0.00000000000E+00 -0.93694070113E+03  0.93694070113E+03  0.00000000000E+00 0.  1.
         25    2    1    2    0    0 -0.22757461874E+02  0.23799611962E+03 -0.16495042312E+03  0.31625331392E+03  0.12508981354E+03 0.  0.
          5    1    3    3  502    0  0.31115974159E+02  0.15983296766E+03 -0.14728577772E+03  0.21960271883E+03  0.41800000000E+01 0. -1.
         -5    1    3    3    0  502 -0.53873436034E+02  0.78163151954E+02 -0.17664645405E+02  0.96650595087E+02  0.41800000000E+01 0. -1.
        -11    1    1    2    0    0  0.24387862339E+02 -0.15498207684E+03 -0.30856588980E+03  0.34616054125E+03  0.00000000000E+00 0. -1.
         11    1    1    2    0    0 -0.16304004643E+01 -0.83014042782E+02 -0.36430458384E+03  0.37364665034E+03  0.00000000000E+00 0.  1.
</event>
<event>
 7    1  0.2841804E-009  0.8954526E+02  0.7561462E-02  0.1303957E+00
         -2   -1    0    0    0  501 -0.00000000000E+00  0.00000000000E+00  0.18053481987E+02  0.18053481987E+02  0.00000000000E+00 0.  1.
          2   -1    0    0  501    0  0.00000000000E+00 -0.00000000000E+00 -0.84804372393E+03  0.84804372393E+03  0.00000000000E+00 0. -1.
         25    2    1    2    0    0  0.70524800237E+01 -0.37872056194E+01 -0.70406263500E+03  0.71513308168E+03  0.12508816938E+03 0.  0.
          5    1    3    3  502    0 -0.14351375796E+02 -0.59923531639E+02 -0.43846763318E+03  0.44279581003E+03  0.41800000000E+01 0. -1.
         -5    1    3    3    0  502  0.21403855820E+02  0.56136326020E+02 -0.26559500182E+03  0.27233727166E+03  0.41800000000E+01 0. -1.
        -11    1    1    2    0    0  0.22290826388E+02 -0.10302424006E+02 -0.11349295382E+03  0.11611921223E+03  0.00000000000E+00 0. -1.
         11    1    1    2    0    0 -0.29343306412E+02  0.14089629625E+02 -0.12434653122E+02  0.34844912002E+02  0.00000000000E+00 0.  1.
</event>
<event>
 7    1  0.2841804E-009  0.7955322E+02  0.7561462E-02  0.1330324E+00
          1   -1    0    0  501    0  0.00000000000E+00  0.00000000000E+00  0.20992690951E+03  0.20992690951E+03  0.00000000000E+00 0. -1.
         -1   -1    0    0    0  501 -0.00000000000E+00 -0.00000000000E+00 -0.58532354807E+02  0.58532354807E+02  0.00000000000E+00 0.  1.
         25    2    1    2    0    0  0.16348709954E+02 -0.40103960946E+01  0.97094961689E+02  0.15924287343E+03  0.12508995787E+03 0.  0.
          5    1    3    3  502    0  0.36812795973E+02 -0.30806575067E+02 -0.79543368354E+01  0.48836163744E+02  0.41800000000E+01 0. -1.
         -5    1    3    3    0  502 -0.20464086019E+02  0.26796178972E+02  0.10504929852E+03  0.11040670969E+03  0.41800000000E+01 0. -1.
        -11    1    1    2    0    0  0.10191441926E+01 -0.34597809435E+02 -0.64122605646E+01  0.35201763566E+02  0.00000000000E+00 0.  1.
         11    1    1    2    0    0 -0.17367854147E+02  0.38608205530E+02  0.60711853576E+02  0.74014627314E+02  0.00000000000E+00 0. -1.
</event>
<event>
 7    1  0.2841804E-009  0.1075505E+03  0.7561462E-02  0.1265174E+00
         -3   -1    0    0    0  501 -0.00000000000E+00  0.00000000000E+00  0.89442081539E+02  0.89442081539E+02  0.00000000000E+00 0.  1.
          3   -1    0    0  501    0  0.00000000000E+00 -0.00000000000E+00 -0.15128048659E+03  0.15128048659E+03  0.00000000000E+00 0. -1.
         25    2    1    2    0    0 -0.27355047104E+02  0.34376896605E+01 -0.67581687645E+02  0.14482771778E+03  0.12509063523E+03 0.  0.
          5    1    3    3  502    0 -0.61188326898E+02 -0.32863849208E+02 -0.12718885834E+02  0.70733912590E+02  0.41800000000E+01 0.  1.
         -5    1    3    3    0  502  0.33833279794E+02  0.36301538868E+02 -0.54862801810E+02  0.74093805195E+02  0.41800000000E+01 0.  1.
        -11    1    1    2    0    0  0.60596113614E+02  0.67071431224E+01  0.33692801984E+01  0.61059207357E+02  0.00000000000E+00 0.  1.
         11    1    1    2    0    0 -0.33241066510E+02 -0.10144832783E+02  0.23740023953E+01  0.34835642987E+02  0.00000000000E+00 0. -1.
</event>
