<event>
 8    1  0.6648599E-009  0.1112299E+03  0.7561462E-02  0.1258309E+00
          3   -1    0    0  501    0  0.00000000000E+00  0.00000000000E+00  0.45374419508E+02  0.45374419508E+02  0.00000000000E+00 0. -1.
         -3   -1    0    0    0  501 -0.00000000000E+00 -0.00000000000E+00 -0.37901296880E+03  0.37901296880E+03  0.00000000000E+00 0.  1.
         25    2    1    2    0    0  0.58530000269E+02  0.24414522805E+02 -0.24063377440E+03  0.27851556895E+03  0.12507789138E+03 0.  0.
         23    2    1    2    0    0 -0.58530000269E+02 -0.24414522805E+02 -0.93004774899E+02  0.14587181936E+03  0.92773216364E+02 0.  0.
          5    1    3    3  502    0  0.13705349763E+02  0.59921223044E+02 -0.49697112786E+02  0.79155953677E+02  0.41800000000E+01 0. -1.
         -5    1    3    3    0  502  0.44824650506E+02 -0.35506700239E+02 -0.19093666161E+03  0.19935961527E+03  0.41800000000E+01 0. -1.
        -11    1    4    4    0    0  0.17253869929E+02  0.10366830655E+02 -0.45859146394E+02  0.50082217536E+02  0.00000000000E+00 0.  1.
         11    1    4    4    0    0 -0.75783870198E+02 -0.34781353460E+02 -0.47145628506E+02  0.95789601826E+02  0.00000000000E+00 0. -1.
</event>
<event>
 8    1  0.6648599E-009  0.1295575E+03  0.7561462E-02  0.1228114E+00
         -1   -1    0    0    0  501 -0.00000000000E+00  0.00000000000E+00  0.10834046660E+02  0.10834046660E+02  0.00000000000E+00 0.  1.
          1   -1    0    0  501    0  0.00000000000E+00 -0.00000000000E+00 -0.20443958361E+04  0.20443958361E+04  0.00000000000E+00 0. -1.
         25    2    1    2    0    0  0.82193497781E+02  0.15917415046E+02 -0.14859297868E+04  0.14935341933E+04  0.12509164649E+03 0.  0.
         23    2    1    2    0    0 -0.82193497781E+02 -0.15917415046E+02 -0.54763200268E+03  0.56169568952E+03  0.92693592465E+02 0.  0.
          5    1    3    3  502    0 -0.31537946005E+01 -0.35410436297E+02 -0.16447173141E+03  0.16832191852E+03  0.41800000000E+01 0. -1.
         -5    1    3    3    0  502  0.85347292382E+02  0.51327851342E+02 -0.13214580554E+04  0.13252122748E+04  0.41800000000E+01 0. -1.
        -11    1    4    4    0    0 -0.81911454473E+02 -0.45738766694E+02 -0.37843114784E+03  0.38988672049E+03  0.00000000000E+00 0.  1.
         11    1    4    4    0    0 -0.28204330827E+00  0.29821351648E+02 -0.16920085484E+03  0.17180896904E+03  0.00000000000E+00 0. -1.
</event>
<event>
 8    1  0.6648599E-009  0.1298287E+03  0.7561462E-02  0.1227710E+00
         -4   -1    0    0    0  501 -0.00000000000E+00  0.00000000000E+00  0.32541673313E+02  0.32541673313E+02  0.00000000000E+00 0.  1.
          4   -1    0    0  501    0  0.00000000000E+00 -0.00000000000E+00 -0.54232565837E+03  0.54232565837E+03  0.00000000000E+00 0. -1.
         25    2    1    2    0    0  0.72877901525E+02 -0.22375664911E+02 -0.27288918166E+03  0.30972196835E+03  0.12508930131E+03 0.  0.
         23    2    1    2    0    0 -0.72877901525E+02  0.22375664911E+02 -0.23689480340E+03  0.26514536333E+03  0.91493480135E+02 0.  0.
          5    1    3    3  502    0  0.10522393434E+03 -0.34932809452E+02 -0.21882828694E+03  0.24534805705E+03  0.41800000000E+01 0.  1.
         -5    1    3    3    0  502 -0.32346032820E+02  0.12557144541E+02 -0.54060894722E+02  0.64373911302E+02  0.41800000000E+01 0.  1.
        -11    1    4    4    0    0 -0.64624765150E+02  0.52036686607E+02 -0.13276123773E+03  0.15655581518E+03  0.00000000000E+00 0.  1.
         11    1    4    4    0    0 -0.82531363750E+01 -0.29661021696E+02 -0.10413356567E+03  0.10858954815E+03  0.00000000000E+00 0. -1.
</event>
<event>
 8    1  0.6648599E-009  0.8976777E+02  0.7561462E-02  0.1303415E+00
          2   -1    0    0  501    0  0.00000000000E+00  0.00000000000E+00  0.17891504718E+03  0.17891504718E+03  0.00000000000E+00 0. -1.
         -2   -1    0    0    0  501 -0.00000000000E+00 -0.00000000000E+00 -0.68392056759E+02  0.68392056759E+02  0.00000000000E+00 0.  1.
         25    2    1    2    0    0  0.94032962474E+01  0.51697597608E+01  0.50593203844E+02  0.13535389762E+03  0.12508339990E+03 0.  0.
         23    2    1    2    0    0 -0.94032962474E+01 -0.51697597608E+01  0.59929786581E+02  0.11195320632E+03  0.93951012176E+02 0.  0.
          5    1    3    3  502    0  0.45481994021E+02  0.49848054235E+02  0.32386647303E+02  0.74965376106E+02  0.41800000000E+01 0.  1.
         -5    1    3    3    0  502 -0.36078697773E+02 -0.44678294474E+02  0.18206556541E+02  0.60388521519E+02  0.41800000000E+01 0.  1.
        -11    1    4    4    0    0  0.22347807547E+02 -0.24205241662E+01 -0.17326733359E+02  0.28381316536E+02  0.00000000000E+00 0.  1.
         11    1    4    4    0    0 -0.31751103795E+02 -0.27492355945E+01  0.77256519940E+02  0.83571889782E+02  0.00000000000E+00 0. -1.
</event>
<event>
 8    1  0.6648599E-009  0.1086536E+03  0.7561462E-02  0.1263084E+00
         -2   -1    0    0    0  501 -0.00000000000E+00  0.00000000000E+00  0.41388966950E+03  0.41388966950E+03  0.00000000000E+00 0.  1.
          2   -1    0    0  501    0  0.00000000000E+00 -0.00000000000E+00 -0.50208301106E+02  0.50208301106E+02  0.00000000000E+00 0. -1.
         25    2    1    2    0    0  0.65205836333E+02 -0.60772613258E+02  0.24081363447E+03  0.28562778696E+03  0.12508762737E+03 0.  0.
         23    2    1    2    0    0 -0.65205836333E+02  0.60772613258E+02  0.12286773392E+03  0.17847018365E+03  0.93861679065E+02 0.  0.
          5    1    3    3  502    0  0.63068241584E+02 -0.67194848740E+02  0.73038420644E+02  0.11766407304E+03  0.41800000000E+01 0.  1.
         -5    1    3    3    0  502  0.21375947489E+01  0.64222354814E+01  0.16777521382E+03  0.16796371392E+03  0.41800000000E+01 0.  1.
        -11    1    4    4    0    0 -0.39681979373E+02 -0.10790108185E+02  0.83089358702E+02  0.92708831571E+02  0.00000000000E+00 0.  1.
         11    1    4    4    0    0 -0.25523856960E+02  0.71562721443E+02  0.39778375220E+02  0.85761352074E+02  0.00000000000E+00 0. -1.
</event>
<event>
 8    1  0.6648599E-009  0.7090134E+02  0.7561462E-02  0.1357055E+00
          2   -1    0    0  501    0  0.00000000000E+00  0.00000000000E+00  0.16093350415E+03  0.16093350415E+03  0.00000000000E+00 0. -1.
         -2   -1    0    0    0  501 -0.00000000000E+00 -0.00000000000E+00 -0.82537529634E+02  0.82537529634E+02  0.00000000000E+00 0.  1.
         25    2    1    2    0    0  0.34222477556E+02  0.17558714434E+02  0.53245866215E+02  0.14128506830E+03  0.12508741677E+03 0.  0.
         23    2    1    2    0    0 -0.34222477556E+02 -0.17558714434E+02  0.25150108306E+02  0.10218596549E+03  0.91268599047E+02 0.  0.
          5    1    3    3  502    0  0.29475134374E+02 -0.14217280027E+02 -0.34508179112E+02  0.47740982639E+02  0.41800000000E+01 0.  1.
         -5    1    3    3    0  502  0.47473431822E+01  0.31775994461E+02  0.87754045326E+02  0.93544085662E+02  0.41800000000E+01 0.  1.
        -11    1    4    4    0    0 -0.51861862229E+02 -0.48606968504E+00 -0.15994626404E+02  0.54274460765E+02  0.00000000000E+00 0.  1.
         11    1    4    4    0    0  0.17639384672E+02 -0.17072644749E+02  0.41144734710E+02  0.47911504722E+02  0.00000000000E+00 0. -1.
</event>
<event>
 8    1  0.6648599E-009  0.1352788E+03  0.7561462E-02  0.1219827E+00
         -1   -1    0    0    0  501 -0.00000000000E+00  0.00000000000E+00  0.16368463145E+03  0.16368463145E+03  0.00000000000E+00 0.  1.
          1   -1    0    0  501    0  0.00000000000E+00 -0.00000000000E+00 -0.12715149998E+03  0.12715149998E+03  0.00000000000E+00 0. -1.
         25    2    1    2    0    0 -0.44032051648E+02  0.78090366316E+02 -0.80196462162E+01  0.15410611820E+03  0.12508978398E+03 0.  0.
         23    2    1    2    0    0  0.44032051648E+02 -0.78090366316E+02  0.44552777692E+02  0.13673001323E+03  0.93130122055E+02 0.  0.
          5    1    3    3  502    0 -0.14352783688E+02  0.10447077735E+03  0.17132056443E+02  0.10691644157E+03  0.41800000000E+01 0. -1.
         -5    1    3    3    0  502 -0.29679267961E+02 -0.26380411038E+02 -0.25151702659E+02  0.47189676624E+02  0.41800000000E+01 0. -1.
        -11    1    4    4    0    0  0.23449600339E+02  0.16253379216E+02  0.25582799414E+02  0.38321478545E+02  0.00000000000E+00 0.  1.
         11    1    4    4    0    0  0.20582451310E+02 -0.94343745533E+02  0.18969978277E+02  0.98408534685E+02  0.00000000000E+00 0. -1.
</event>
<event>
 8    1  0.6648599E-009  0.1652125E+03  0.7561462E-02  0.1182934E+00
          1   -1    0    0  501    0  0.00000000000E+00  0.00000000000E+00  0.45343698536E+02  0.45343698536E+02  0.00000000000E+00 0. -1.
         -1   -1    0    0    0  501 -0.00000000000E+00 -0.00000000000E+00 -0.76135362637E+03  0.76135362637E+03  0.00000000000E+00 0.  1.
         25    2    1    2    0    0  0.13502183199E+03  0.50515279039E+02 -0.47072865672E+03  0.50795248418E+03  0.12509024503E+03 0.  0.
         23    2    1    2    0    0 -0.13502183199E+03 -0.50515279039E+02 -0.24528127112E+03  0.29874484073E+03  0.91120191878E+02 0.  0.
          5    1    3    3  502    0  0.85571394312E+02  0.88096029148E+02 -0.24932022135E+03  0.27795938381E+03  0.41800000000E+01 0. -1.
         -5    1    3    3    0  502  0.49450437678E+02 -0.37580750109E+02 -0.22140843537E+03  0.22999310037E+03  0.41800000000E+01 0. -1.
        -11    1    4    4    0    0 -0.33209911823E+02 -0.43296734808E+01 -0.51771901621E+01  0.33888753499E+02  0.00000000000E+00 0. -1.
         11    1    4    4    0    0 -0.10181192017E+03 -0.46185605558E+02 -0.24010408096E+03  0.26485608723E+03  0.00000000000E+00 0.  1.
</event>
<event>
 8    1  0.6648599E-009  0.1037622E+03  0.7561462E-02  0.1272578E+00
         -2   -1    0    0    0  501 -0.00000000000E+00  0.00000000000E+00  0.71184026810E+02  0.71184026810E+02  0.00000000000E+00 0. -1.
          2   -1    0    0  501    0  0.00000000000E+00 -0.00000000000E+00 -0.22449086758E+03  0.22449086758E+03  0.00000000000E+00 0.  1.
         25    2    1    2    0    0  0.45797411676E+02 -0.46489847345E+02 -0.75360306548E+02  0.15995335632E+03  0.12508873479E+03 0.  0.
         23    2    1    2    0    0 -0.45797411676E+02  0.46489847345E+02 -0.77946534224E+02  0.13572153808E+03  0.89921993295E+02 0.  0.
          5    1    3    3  502    0 -0.27391120660E+02  0.88268003584E+01 -0.60224423178E+02  0.66877794840E+02  0.41800000000E+01 0.  1.
         -5    1    3    3    0  502  0.73188532336E+02 -0.55316647703E+02 -0.15135883370E+02  0.93075561476E+02  0.41800000000E+01 0.  1.
        -11    1    4    4    0    0 -0.57534325961E+02  0.47797092471E+02 -0.91213138807E+02  0.11796015176E+03  0.00000000000E+00 0.  1.
         11    1    4    4    0    0  0.11736914285E+02 -0.13072451261E+01  0.13266604582E+02  0.17761386317E+02  0.00000000000E+00 0. -1.
</event>
<event>
 8    1  0.6648599E-009  0.1628904E+03  0.7561462E-02  0.1185472E+00
          2   -1    0    0  501    0  0.00000000000E+00  0.00000000000E+00  0.81368832214E+02  0.81368832214E+02  0.00000000000E+00 0. -1.
         -2   -1    0    0    0  501 -0.00000000000E+00 -0.00000000000E+00 -0.34216893131E+03  0.34216893131E+03  0.00000000000E+00 0.  1.
         25    2    1    2    0    0 -0.71906621553E+02 -0.98530493724E+02 -0.18232394200E+03  0.25252462278E+03  0.12509134609E+03 0.  0.
         23    2    1    2    0    0  0.71906621553E+02  0.98530493724E+02 -0.78476157090E+02  0.17101314074E+03  0.90598932985E+02 0.  0.
          5    1    3    3  502    0 -0.96806224223E+02 -0.11016086541E+03 -0.14860825685E+03  0.20882707612E+03  0.41800000000E+01 0. -1.
         -5    1    3    3    0  502  0.24899602671E+02  0.11630371689E+02 -0.33715685148E+02  0.43697546656E+02  0.41800000000E+01 0. -1.
        -11    1    4    4    0    0  0.39214325487E+02 -0.78397390982E+01 -0.28008358573E+02  0.48823078380E+02  0.00000000000E+00 0.  1.
         11    1    4    4    0    0  0.32692296065E+02  0.10637023282E+03 -0.50467798517E+02  0.12219006236E+03  0.00000000000E+00 0. -1.
</event>
<event>
 8    1  0.6648599E-009  0.1019232E+03  0.7561462E-02  0.1276303E+00
         -2   -1    0    0    0  501 -0.00000000000E+00  0.00000000000E+00  0.99213802236E+02  0.99213802236E+02  0.00000000000E+00 0.  1.
          2   -1    0    0  501    0  0.00000000000E+00 -0.00000000000E+00 -0.11027695714E+03  0.11027695714E+03  0.00000000000E+00 0. -1.
         25    2    1    2    0    0 -0.19428815333E+02 -0.13989570468E+02 -0.19052403745E+02  0.12878149764E+03  0.12509393710E+03 0.  0.
         23    2    1    2    0    0  0.19428815333E+02  0.13989570468E+02  0.79892488386E+01  0.80709261737E+02  0.76661397627E+02 0.  0.
          5    1    3    3  502    0 -0.94030421453E+01  0.54999164146E+02  0.15255124068E+01  0.55974323100E+02  0.41800000000E+01 0. -1.
         -5    1    3    3    0  502 -0.10025773188E+02 -0.68988734614E+02 -0.20577916152E+02  0.72807174542E+02  0.41800000000E+01 0. -1.
        -11    1    4    4    0    0  0.30306366209E+02  0.39811761016E+02 -0.40802084089E+01  0.50200600082E+02  0.00000000000E+00 0.  1.
         11    1    4    4    0    0 -0.10877550875E+02 -0.25822190548E+02  0.12069457247E+02  0.30508661655E+02  0.00000000000E+00 0. -1.
</event>
<event>
 8    1  0.6648599E-009  0.8978400E+02  0.7561462E-02  0.1303376E+00
         -1   -1    0    0    0  501 -0.00000000000E+00  0.00000000000E+00  0.83799521286E+02  0.83799521286E+02  0.00000000000E+00 0.  1.
          1   -1    0    0  501    0  0.00000000000E+00 -0.00000000000E+00 -0.14197453251E+03  0.14197453251E+03  0.00000000000E+00 0. -1.
         25    2    1    2    0    0 -0.94381492547E+01 -0.15593398149E+02 -0.22500929233E+02  0.12840579868E+03  0.12509805990E+03 0.  0.
         23    2    1    2    0    0  0.94381492547E+01  0.15593398149E+02 -0.35674081994E+02  0.97368255123E+02  0.88745164671E+02 0.  0.
          5    1    3    3  502    0  0.41614356382E+02 -0.25677803788E+02  0.27381762780E+02  0.56199088937E+02  0.41800000000E+01 0. -1.
         -5    1    3    3    0  502 -0.51052505636E+02  0.10084405639E+02 -0.49882692013E+02  0.72206709739E+02  0.41800000000E+01 0. -1.
        -11    1    4    4    0    0 -0.30045720748E+02 -0.94872026280E+01 -0.39393949417E+02  0.50444381249E+02  0.00000000000E+00 0. -1.
         11    1    4    4    0    0  0.39483870002E+02  0.25080600777E+02  0.37198674231E+01  0.46923873874E+02  0.00000000000E+00 0.  1.
</event>
<event>
 8    1  0.6648599E-009  0.7117442E+02  0.7561462E-02  0.1356144E+00
         -2   -1    0    0    0  501 -0.00000000000E+00  0.00000000000E+00  0.41519431653E+02  0.41519431653E+02  0.00000000000E+00 0. -1.
          2   -1    0    0  501    0  0.00000000000E+00 -0.00000000000E+00 -0.30229046679E+03  0.30229046679E+03  0.00000000000E+00 0.  1.
         25    2    1    2    0    0 -0.17241673296E+02  0.13270864658E+02 -0.18308766521E+03  0.22280465418E+03  0.12508968632E+03 0.  0.
         23    2    1    2    0    0  0.17241673296E+02 -0.13270864658E+02 -0.77683369924E+02  0.12100524426E+03  0.90189644802E+02 0.  0.
          5    1    3    3  502    0 -0.46027838242E+02 -0.10388670379E+02 -0.17891288607E+03  0.18507776627E+03  0.41800000000E+01 0.  1.
         -5    1    3    3    0  502  0.28786164946E+02  0.23659535037E+02 -0.41747791435E+01  0.37726887910E+02  0.41800000000E+01 0.  1.
        -11    1    4    4    0    0 -0.18948582267E+02 -0.92024226627E+01  0.11976359124E+02  0.24231519363E+02  0.00000000000E+00 0. -1.
         11    1    4    4    0    0  0.36190255563E+02 -0.40684419957E+01 -0.89659729048E+02  0.96773724899E+02  0.00000000000E+00 0.  1.
</event>
<event>
 8    1  0.6648599E-009  0.1045599E+03  0.7561462E-02  0.1270989E+00
          1   -1    0    0  501    0  0.00000000000E+00  0.00000000000E+00  0.33730555283E+03  0.33730555283E+03  0.00000000000E+00 0. -1.
         -1   -1    0    0    0  501 -0.00000000000E+00 -0.00000000000E+00 -0.62933824437E+02  0.62933824437E+02  0.00000000000E+00 0.  1.
         25    2    1    2    0    0  0.20881618270E+02 -0.49229650777E+02  0.26415510122E+03  0.29712646755E+03  0.12508644900E+03 0.  0.
         23    2    1    2    0    0 -0.20881618270E+02  0.49229650777E+02  0.10216627171E+02  0.10311290971E+03  0.87568785428E+02 0.  0.
          5    1    3    3  502    0 -0.44368795571E+02  0.10450554048E+02  0.68630817774E+02  0.82495246218E+02  0.41800000000E+01 0. -1.
         -5    1    3    3    0  502  0.65250413841E+02 -0.59680204825E+02  0.19552428345E+03  0.21463122133E+03  0.41800000000E+01 0. -1.
        -11    1    4    4    0    0 -0.34902169245E+02  0.15301936123E+02 -0.30117846830E+02  0.48573607698E+02  0.00000000000E+00 0.  1.
         11    1    4    4    0    0  0.14020550975E+02  0.33927714654E+02  0.40334474001E+02  0.54539302015E+02  0.00000000000E+00 0. -1.
</event>
<event>
 8    1  0.6648599E-009  0.1156908E+03  0.7561462E-02  0.1250380E+00
         -1   -1    0    0    0  501 -0.00000000000E+00  0.00000000000E+00  0.37309785230E+02  0.37309785230E+02  0.00000000000E+00 0.  1.
          1   -1    0    0  501    0  0.00000000000E+00 -0.00000000000E+00 -0.41392182110E+03  0.41392182110E+03  0.00000000000E+00 0. -1.
         25    2    1    2    0    0  0.38476094588E+02 -0.45324215362E+02 -0.20456107996E+03  0.24703569675E+03  0.12508679260E+03 0.  0.
         23    2    1    2    0    0 -0.38476094588E+02  0.45324215362E+02 -0.17205095592E+03  0.20419590959E+03  0.92518882970E+02 0.  0.
          5    1    3    3  502    0  0.13459993740E+02 -0.87786869300E+02 -0.13642230296E+03  0.16283802688E+03  0.41800000000E+01 0. -1.
         -5    1    3    3    0  502  0.25016100847E+02  0.42462653939E+02 -0.68138776999E+02  0.84197669873E+02  0.41800000000E+01 0. -1.
        -11    1    4    4    0    0 -0.16132456739E+02 -0.18994479119E+02 -0.10757346220E+03  0.11042235357E+03  0.00000000000E+00 0. -1.
         11    1    4    4    0    0 -0.22343637849E+02  0.64318694481E+02 -0.64477493715E+02  0.93773556015E+02  0.00000000000E+00 0.  1.
</event>
<event>
 8    1  0.6648599E-009  0.2220222E+03  0.7561462E-02  0.1132384E+00
         -2   -1    0    0    0  501 -0.00000000000E+00  0.00000000000E+00  0.15206439257E+03  0.15206439257E+03  0.00000000000E+00 0. -1.
          2   -1    0    0  501    0  0.00000000000E+00 -0.00000000000E+00 -0.35780652055E+03  0.35780652055E+03  0.00000000000E+00 0.  1.
         25    2    1    2    0    0  0.13519854946E+03 -0.15290755330E+03 -0.64948139315E+02  0.24804279025E+03  0.12509035680E+03 0.  0.
         23    2    1    2    0    0 -0.13519854946E+03  0.15290755330E+03 -0.14079398867E+03  0.26182812286E+03  0.84093109374E+02 0.  0.
          5    1    3    3  502    0  0.24058927256E+02 -0.11797391720E+03 -0.15707160811E+02  0.12149429789E+03  0.41800000000E+01 0.  1.
         -5    1    3    3    0  502  0.11113962220E+03 -0.34933636102E+02 -0.49240978504E+02  0.12654849236E+03  0.41800000000E+01 0.  1.
        -11    1    4    4    0    0 -0.75470532438E+02  0.59416715701E+02 -0.11133352754E+03  0.14704183665E+03  0.00000000000E+00 0.  1.
         11    1    4    4    0    0 -0.59728017019E+02  0.93490837599E+02 -0.29460461128E+02  0.11478628621E+03  0.00000000000E+00 0. -1.
</event>
<event>
 8    1  0.6648599E-009  0.1085703E+03  0.7561462E-02  0.1263241E+00
          1   -1    0    0  501    0  0.00000000000E+00  0.00000000000E+00  0.57589275418E+03  0.57589275418E+03  0.00000000000E+00 0. -1.
         -1   -1    0    0    0  501 -0.00000000000E+00 -0.00000000000E+00 -0.28356788139E+02  0.28356788139E+02  0.00000000000E+00 0.  1.
         25    2    1    2    0    0  0.32918691928E+02 -0.25982272909E+02  0.42582077350E+03  0.44579121198E+03  0.12509098590E+03 0.  0.
         23    2    1    2    0    0 -0.32918691928E+02  0.25982272909E+02  0.12171519255E+03  0.15845833034E+03  0.92389044665E+02 0.  0.
          5    1    3    3  502    0 -0.16818783118E+02  0.36710732903E+02  0.68769990093E+02  0.79858207550E+02  0.41800000000E+01 0. -1.
         -5    1    3    3    0  502  0.49737475045E+02 -0.62693005812E+02  0.35705078340E+03  0.36593300443E+03  0.41800000000E+01 0. -1.
        -11    1    4    4    0    0  0.25884007275E+02 -0.96830332512E+01  0.59981257807E+02  0.66041610017E+02  0.00000000000E+00 0.  1.
         11    1    4    4    0    0 -0.58802699203E+02  0.35665306160E+02  0.61733934741E+02  0.92416720325E+02  0.00000000000E+00 0. -1.
</event>
<event>
 8    1  0.6648599E-009  0.9819308E+02  0.7561462E-02  0.1284142E+00
         -4   -1    0    0    0  501 -0.00000000000E+00  0.00000000000E+00  0.77859985575E+02  0.77859985575E+02  0.00000000000E+00 0. -1.
          4   -1    0    0  501    0  0.00000000000E+00 -0.00000000000E+00 -0.19516123470E+03  0.19516123470E+03  0.00000000000E+00 0.  1.
         25    2    1    2    0    0  0.10739461222E+02 -0.54756020831E+02 -0.84684051405E+02  0.16103649430E+03  0.12509119110E+03 0.  0.
         23    2    1    2    0    0 -0.10739461222E+02  0.54756020831E+02 -0.32617197717E+02  0.11198472597E+03  0.91450201855E+02 0.  0.
          5    1    3    3  502    0  0.28107383130E+02  0.38896785517E+01 -0.94672783069E+02  0.98922003820E+02  0.41800000000E+01 0.  1.
         -5    1    3    3    0  502 -0.17367921908E+02 -0.58645699383E+02  0.99887316637E+01  0.62114490481E+02  0.41800000000E+01 0.  1.
        -11    1    4    4    0    0 -0.48035009956E+02  0.49078144820E+02 -0.27238162628E+02  0.73877899157E+02  0.00000000000E+00 0. -1.
         11    1    4    4    0    0  0.37295548734E+02  0.56778760111E+01 -0.53790350886E+01  0.38106826814E+02  0.00000000000E+00 0.  1.
</event>
<event>
 8    1  0.6648599E-009  0.2193224E+03  0.7561462E-02  0.1134389E+00
          1   -1    0    0  501    0  0.00000000000E+00  0.00000000000E+00  0.20891571544E+03  0.20891571544E+03  0.00000000000E+00 0. -1.
         -1   -1    0    0    0  501 -0.00000000000E+00 -0.00000000000E+00 -0.40498193219E+03  0.40498193219E+03  0.00000000000E+00 0.  1.
         25    2    1    2    0    0  0.10232165471E+03  0.17363394608E+03 -0.28721215547E+03  0.37249718930E+03  0.12507943689E+03 0.  0.
         23    2    1    2    0    0 -0.10232165471E+03 -0.17363394608E+03  0.91145938709E+02  0.24140045833E+03  0.96685732592E+02 0.  0.
          5    1    3    3  502    0  0.12577896750E+03  0.10333966460E+03 -0.20307894218E+03  0.26030359987E+03  0.41800000000E+01 0. -1.
         -5    1    3    3    0  502 -0.23457312791E+02  0.70294281480E+02 -0.84133213282E+02  0.11219358943E+03  0.41800000000E+01 0. -1.
        -11    1    4    4    0    0 -0.16669565479E+02 -0.25397508129E+02  0.60189460600E+02  0.67421650824E+02  0.00000000000E+00 0. -1.
         11    1    4    4    0    0 -0.85652089228E+02 -0.14823643795E+03  0.30956478108E+02  0.17397880751E+03  0.00000000000E+00 0.  1.
</event>
<event>
 8    1  0.6648599E-009  0.9631751E+02  0.7561462E-02  0.1288236E+00
          2   -1    0    0  501    0  0.00000000000E+00  0.00000000000E+00  0.10840313693E+03  0.10840313693E+03  0.00000000000E+00 0.  1.
         -2   -1    0    0    0  501 -0.00000000000E+00 -0.00000000000E+00 -0.15745360187E+03  0.15745360187E+03  0.00000000000E+00 0. -1.
         25    2    1    2    0    0 -0.71317561782E+02  0.83368798778E+01 -0.34715259336E+02  0.14835237417E+03  0.12509028542E+03 0.  0.
         23    2    1    2    0    0  0.71317561782E+02 -0.83368798778E+01 -0.14335205604E+02  0.11750436463E+03  0.91902553840E+02 0.  0.
          5    1    3    3  502    0  0.54277524567E+01  0.35471675081E+02  0.27837199999E+02  0.45607919637E+02  0.41800000000E+01 0. -1.
         -5    1    3    3    0  502 -0.76745314239E+02 -0.27134795203E+02 -0.62552459335E+02  0.10274445453E+03  0.41800000000E+01 0. -1.
        -11    1    4    4    0    0  0.54935217991E+02 -0.15558667904E+02  0.33659539465E+02  0.66279068488E+02  0.00000000000E+00 0.  1.
         11    1    4    4    0    0  0.16382343792E+02  0.72217880266E+01 -0.47994745069E+02  0.51225296140E+02  0.00000000000E+00 0. -1.
</event>
<event>
 8    1  0.6648599E-009  0.1611702E+03  0.7561462E-02  0.1187382E+00
         -2   -1    0    0    0  501 -0.00000000000E+00  0.00000000000E+00  0.21590762749E+02  0.21590762749E+02  0.00000000000E+00 0.  1.
          2   -1    0    0  501    0  0.00000000000E+00 -0.00000000000E+00 -0.18637325051E+04  0.18637325051E+04  0.00000000000E+00 0. -1.
         25    2    1    2    0    0  0.13712150138E+03  0.91357903366E+01 -0.14240920119E+04  0.14361653490E+04  0.12508829835E+03 0.  0.
         23    2    1    2    0    0 -0.13712150138E+03 -0.91357903366E+01 -0.41804973047E+03  0.44915791891E+03  0.89952710736E+02 0.  0.
          5    1    3    3  502    0  0.14332430068E+03 -0.59265471823E+01 -0.13964855048E+04  0.14038398116E+04  0.41800000000E+01 0. -1.
         -5    1    3    3    0  502 -0.62027993040E+01  0.15062337519E+02 -0.27606507080E+02  0.32325537333E+02  0.41800000000E+01 0. -1.
        -11    1    4    4    0    0 -0.14939827062E+03 -0.70655284487E+01 -0.40146369248E+03  0.42841902541E+03  0.00000000000E+00 0.  1.
         11    1    4    4    0    0  0.12276769242E+02 -0.20702618878E+01 -0.16586037993E+02  0.20738893500E+02  0.00000000000E+00 0. -1.
</event>
<event>
 7    1  0.6648599E-009  0.2511684E+03  0.7561462E-02  0.1112569E+00
         -2   -1    0    0    0  501 -0.00000000000E+00  0.00000000000E+00  0.25456711212E+02  0.25456711212E+02  0.00000000000E+00 0.  1.
          2   -1    0    0  501    0  0.00000000000E+00 -0.00000000000E+00 -0.27488719209E+04  0.27488719209E+04  0.00000000000E+00 0. -1.
         23    2    1    2    0    0  0.58075189242E+02 -0.23317080308E+03 -0.12056083545E+04  0.12324379529E+04  0.87581118361E+02 0.  0.
          5    1    1    2  502    0 -0.17329238095E+02  0.45041667490E+01 -0.24549904624E+02  0.30671814881E+02  0.41800000000E+01 0. -1.
         -5    1    1    2    0  502 -0.40745951147E+02  0.22866663633E+03 -0.14932569505E+04  0.15112188643E+04  0.41800000000E+01 0. -1.
        -11    1    3    3    0    0  0.64246302761E+01 -0.16966254920E+03 -0.91006335319E+03  0.92576560927E+03  0.00000000000E+00 0. -1.
         11    1    3    3    0    0  0.51650558966E+02 -0.63508253880E+02 -0.29554500133E+03  0.30667234366E+03  0.00000000000E+00 0.  1.
</event>
<event>
 8    1  0.6648599E-009  0.1439739E+03  0.7561462E-02  0.1208080E+00
          2   -1    0    0  501    0  0.00000000000E+00  0.00000000000E+00  0.87340775082E+03  0.87340775082E+03  0.00000000000E+00 0. -1.
         -2   -1    0    0    0  501 -0.00000000000E+00 -0.00000000000E+00 -0.25112734320E+02  0.25112734320E+02  0.00000000000E+00 0.  1.
         25    2    1    2    0    0 -0.33229602686E+02 -0.90759581143E+02  0.36997901787E+03  0.40233592885E+03  0.12509283718E+03 0.  0.
         23    2    1    2    0    0  0.33229602686E+02  0.90759581143E+02  0.47831599863E+03  0.49618455629E+03  0.89841033473E+02 0.  0.
          5    1    3    3  502    0  0.30102522593E+02  0.14239941296E+02  0.56704848727E+02  0.65892716318E+02  0.41800000000E+01 0.  1.
         -5    1    3    3    0  502 -0.63332125278E+02 -0.10499952244E+03  0.31327416914E+03  0.33644321253E+03  0.41800000000E+01 0.  1.
        -11    1    4    4    0    0 -0.30628050741E+02  0.21093538292E+02  0.12135105487E+03  0.12692160323E+03  0.00000000000E+00 0.  1.
         11    1    4    4    0    0  0.63857653427E+02  0.69666042852E+02  0.35696494376E+03  0.36926295306E+03  0.00000000000E+00 0. -1.
</event>
<event>
 8    1  0.6648599E-009  0.1480603E+03  0.7561462E-02  0.1202877E+00
         -1   -1    0    0    0  501 -0.00000000000E+00  0.00000000000E+00  0.40700909277E+02  0.40700909277E+02  0.00000000000E+00 0.  1.
          1   -1    0    0  501    0  0.00000000000E+00 -0.00000000000E+00 -0.72438296263E+03  0.72438296263E+03  0.00000000000E+00 0. -1.
         25    2    1    2    0    0  0.99453116767E+02  0.39680227115E+02 -0.18842582167E+03  0.25023761908E+03  0.12509649425E+03 0.  0.
         23    2    1    2    0    0 -0.99453116767E+02 -0.39680227115E+02 -0.49525623168E+03  0.51484625282E+03  0.91227661192E+02 0.  0.
          5    1    3    3  502    0  0.12636516992E+03  0.47444430972E+02 -0.14283209952E+03  0.19656452186E+03  0.41800000000E+01 0. -1.
         -5    1    3    3    0  502 -0.26912053154E+02 -0.77642038575E+01 -0.45593722149E+02  0.53673097227E+02  0.41800000000E+01 0. -1.
        -11    1    4    4    0    0 -0.60076227215E+02  0.18182478288E+02 -0.32063173083E+03  0.32671771059E+03  0.00000000000E+00 0.  1.
         11    1    4    4    0    0 -0.39376889552E+02 -0.57862705403E+02 -0.17462450084E+03  0.18812854223E+03  0.00000000000E+00 0. -1.
</event>
<event>
 8    1  0.6648599E-009  0.1214410E+03  0.7561462E-02  0.1240739E+00
         -1   -1    0    0    0  501 -0.00000000000E+00  0.00000000000E+00  0.47831188253E+03  0.47831188253E+03  0.00000000000E+00 0.  1.
          1   -1    0    0  501    0  0.00000000000E+00 -0.00000000000E+00 -0.40545137505E+02  0.40545137505E+02  0.00000000000E+00 0. -1.
         25    2    1    2    0    0  0.28661832449E+02  0.69515435674E+02  0.15589108788E+03  0.21356238162E+03  0.12511180252E+03 0.  0.
         23    2    1    2    0    0 -0.28661832449E+02 -0.69515435674E+02  0.28187565715E+03  0.30529463842E+03  0.89983519122E+02 0.  0.
          5    1    3    3  502    0 -0.35272763036E+02 -0.27087799487E+01  0.73050106353E+01  0.36364005299E+02  0.41800000000E+01 0. -1.
         -5    1    3    3    0  502  0.63934595486E+02  0.72224215622E+02  0.14858607724E+03  0.17719837632E+03  0.41800000000E+01 0. -1.
        -11    1    4    4    0    0  0.28044642932E+02 -0.13962467754E+02  0.13230191136E+03  0.13596046577E+03  0.00000000000E+00 0.  1.
         11    1    4    4    0    0 -0.56706475381E+02 -0.55552967919E+02  0.14957374579E+03  0.16933417264E+03  0.00000000000E+00 0. -1.
</event>
<event>
 8    1  0.6648599E-009  0.1282032E+03  0.7561462E-02  0.1230147E+00
          2   -1    0    0  501    0  0.00000000000E+00  0.00000000000E+00  0.84080885084E+02  0.84080885084E+02  0.00000000000E+00 0. -1.
         -2   -1    0    0    0  501 -0.00000000000E+00 -0.00000000000E+00 -0.24308834956E+03  0.24308834956E+03  0.00000000000E+00 0.  1.
         25    2    1    2    0    0 -0.80178216077E+02 -0.31325337262E+02 -0.12358350242E+03  0.19578090646E+03  0.12508980045E+03 0.  0.
         23    2    1    2    0    0  0.80178216077E+02  0.31325337262E+02 -0.35423962059E+02  0.13138832818E+03  0.92726547477E+02 0.  0.
          5    1    3    3  502    0  0.62315809729E+01 -0.44731550230E+02 -0.92253031750E+02  0.10279999248E+03  0.41800000000E+01 0.  1.
         -5    1    3    3    0  502 -0.86409797050E+02  0.13406212967E+02 -0.31330470668E+02  0.92980913980E+02  0.41800000000E+01 0.  1.
        -11    1    4    4    0    0 -0.19639352366E+02  0.45354533883E+01 -0.17086720805E+02  0.26424052048E+02  0.00000000000E+00 0.  1.
         11    1    4    4    0    0  0.99817568443E+02  0.26789883874E+02 -0.18337241254E+02  0.10496427614E+03  0.00000000000E+00 0. -1.
</event>
<event>
 8    1  0.6648599E-009  0.1247277E+03  0.7561462E-02  0.1235495E+00
          2   -1    0    0  501    0  0.00000000000E+00  0.00000000000E+00  0.35879819161E+03  0.35879819161E+03  0.00000000000E+00 0.  1.
         -2   -1    0    0    0  501 -0.00000000000E+00 -0.00000000000E+00 -0.66368336156E+02  0.66368336156E+02  0.00000000000E+00 0. -1.
         25    2    1    2    0    0 -0.54151587640E+02 -0.93565590499E+02  0.13222069960E+03  0.21169972427E+03  0.12509015022E+03 0.  0.
         23    2    1    2    0    0  0.54151587640E+02  0.93565590499E+02  0.16020915586E+03  0.21346680350E+03  0.90632159896E+02 0.  0.
          5    1    3    3  502    0 -0.49451883131E+02 -0.29863561992E+01  0.10617727661E+03  0.11724117680E+03  0.41800000000E+01 0.  1.
         -5    1    3    3    0  502 -0.46997045097E+01 -0.90579234300E+02  0.26043422988E+02  0.94458547468E+02  0.41800000000E+01 0.  1.
        -11    1    4    4    0    0  0.24617483645E+02  0.55865483316E+02  0.15339040799E+03  0.16509267092E+03  0.00000000000E+00 0.  1.
         11    1    4    4    0    0  0.29534103996E+02  0.37700107183E+02  0.68187478614E+01  0.48374132580E+02  0.00000000000E+00 0. -1.
</event>
<event>
 8    1  0.6648599E-009  0.8452813E+02  0.7561462E-02  0.1316671E+00
          1   -1    0    0  501    0  0.00000000000E+00  0.00000000000E+00  0.11429682075E+03  0.11429682075E+03  0.00000000000E+00 0. -1.
         -1   -1    0    0    0  501 -0.00000000000E+00 -0.00000000000E+00 -0.11738068774E+03  0.11738068774E+03  0.00000000000E+00 0.  1.
         25    2    1    2    0    0  0.25024330222E+02 -0.16070866204E+02  0.27006338251E+02  0.13138522763E+03  0.12509294900E+03 0.  0.
         23    2    1    2    0    0 -0.25024330222E+02  0.16070866204E+02 -0.30090205241E+02  0.10029228087E+03  0.90932014751E+02 0.  0.
          5    1    3    3  502    0 -0.17666610483E+02  0.26634187348E+02  0.55735367394E+02  0.64384723656E+02  0.41800000000E+01 0. -1.
         -5    1    3    3    0  502  0.42690940705E+02 -0.42705053552E+02 -0.28729029143E+02  0.67000503973E+02  0.41800000000E+01 0. -1.
        -11    1    4    4    0    0  0.18948584009E+02  0.25055038159E+02  0.16599197141E+02  0.35529383879E+02  0.00000000000E+00 0. -1.
         11    1    4    4    0    0 -0.43972914231E+02 -0.89841719555E+01 -0.46689402382E+02  0.64762896989E+02  0.00000000000E+00 0.  1.
</event>
<event>
 8    1  0.6648599E-009  0.1065380E+03  0.7561462E-02  0.1267119E+00
         -1   -1    0    0    0  501 -0.00000000000E+00  0.00000000000E+00  0.83091855548E+02  0.83091855548E+02  0.00000000000E+00 0.  1.
          1   -1    0    0  501    0  0.00000000000E+00 -0.00000000000E+00 -0.16593002329E+03  0.16593002329E+03  0.00000000000E+00 0. -1.
         25    2    1    2    0    0 -0.39113310864E+02 -0.14417317694E+02 -0.66536336552E+02  0.14768865895E+03  0.12508855169E+03 0.  0.
         23    2    1    2    0    0  0.39113310864E+02  0.14417317694E+02 -0.16301831186E+02  0.10133321989E+03  0.90911834303E+02 0.  0.
          5    1    3    3  502    0  0.13252340145E+02 -0.60338142804E+02 -0.34923751617E+02  0.71087669981E+02  0.41800000000E+01 0.  1.
         -5    1    3    3    0  502 -0.52365651009E+02  0.45920825110E+02 -0.31612584935E+02  0.76600988966E+02  0.41800000000E+01 0.  1.
        -11    1    4    4    0    0 -0.18657231884E+02 -0.67757893562E+01 -0.32155456819E+02  0.37788583279E+02  0.00000000000E+00 0. -1.
         11    1    4    4    0    0  0.57770542749E+02  0.21193107050E+02  0.15853625633E+02  0.63544636608E+02  0.00000000000E+00 0.  1.
</event>
<event>
 8    1  0.6648599E-009  0.1156759E+03  0.7561462E-02  0.1250406E+00
         -1   -1    0    0    0  501 -0.00000000000E+00  0.00000000000E+00  0.31104607195E+03  0.31104607195E+03  0.00000000000E+00 0.  1.
          1   -1    0    0  501    0  0.00000000000E+00 -0.00000000000E+00 -0.57031100862E+02  0.57031100862E+02  0.00000000000E+00 0. -1.
         25    2    1    2    0    0  0.26292251535E+02  0.53115954022E+02  0.20985751577E+03  0.25139746249E+03  0.12509164704E+03 0.  0.
         23    2    1    2    0    0 -0.26292251535E+02 -0.53115954022E+02  0.44157455321E+02  0.11667971032E+03  0.90286692696E+02 0.  0.
          5    1    3    3  502    0 -0.48833014535E+02  0.35647320584E+02  0.81009927634E+02  0.10117052708E+03  0.41800000000E+01 0.  1.
         -5    1    3    3    0  502  0.75125266070E+02  0.17468633437E+02  0.12884758813E+03  0.15022693541E+03  0.41800000000E+01 0.  1.
        -11    1    4    4    0    0 -0.48057669708E+02 -0.16319132002E+02 -0.56200670568E+01  0.51063086871E+02  0.00000000000E+00 0. -1.
         11    1    4    4    0    0  0.21765418173E+02 -0.36796822020E+02  0.49777522378E+02  0.65616623451E+02  0.00000000000E+00 0.  1.
</event>
<event>
 8    1  0.6648599E-009  0.2765957E+03  0.7561462E-02  0.1097563E+00
          1   -1    0    0  501    0  0.00000000000E+00  0.00000000000E+00  0.64430082186E+03  0.64430082186E+03  0.00000000000E+00 0. -1.
         -1   -1    0    0    0  501 -0.00000000000E+00 -0.00000000000E+00 -0.14303555055E+03  0.14303555055E+03  0.00000000000E+00 0.  1.
         25    2    1    2    0    0 -0.19944989171E+03 -0.16555251223E+03  0.10825283209E+03  0.30749394121E+03  0.12508379038E+03 0.  0.
         23    2    1    2    0    0  0.19944989171E+03  0.16555251223E+03  0.39301243922E+03  0.47984243120E+03  0.92747440869E+02 0.  0.
          5    1    3    3  502    0 -0.17829247920E+03 -0.84490363197E+02  0.44927443496E+02  0.20239263127E+03  0.41800000000E+01 0.  1.
         -5    1    3    3    0  502 -0.21157412506E+02 -0.81062149034E+02  0.63325388594E+02  0.10510130994E+03  0.41800000000E+01 0.  1.
        -11    1    4    4    0    0  0.91507272422E+02  0.25215230360E+02  0.10306385807E+03  0.14011262466E+03  0.00000000000E+00 0. -1.
         11    1    4    4    0    0  0.10794261929E+03  0.14033728187E+03  0.28994858115E+03  0.33972980654E+03  0.00000000000E+00 0.  1.
</event>
<event>
 8    1  0.6648599E-009  0.8949628E+02  0.7561462E-02  0.1304076E+00
          1   -1    0    0  501    0  0.00000000000E+00  0.00000000000E+00  0.18894717662E+04  0.18894717662E+04  0.00000000000E+00 0. -1.
         -1   -1    0    0    0  501 -0.00000000000E+00 -0.00000000000E+00 -0.79783180890E+01  0.79783180890E+01  0.00000000000E+00 0.  1.
         25    2    1    2    0    0  0.99888314933E+01  0.45417981830E+02  0.13142773071E+04  0.13210350855E+04  0.12508512009E+03 0.  0.
         23    2    1    2    0    0 -0.99888314933E+01 -0.45417981830E+02  0.56721614100E+03  0.57641499880E+03  0.91419529678E+02 0.  0.
          5    1    3    3  502    0  0.23482678253E+02  0.54824060822E+02  0.12901613636E+04  0.12915459459E+04  0.41800000000E+01 0. -1.
         -5    1    3    3    0  502 -0.13493846760E+02 -0.94060789922E+01  0.24115943494E+02  0.29489139577E+02  0.41800000000E+01 0. -1.
        -11    1    4    4    0    0  0.22455250420E+02  0.19447769729E+02  0.14446354540E+03  0.14748616874E+03  0.00000000000E+00 0. -1.
         11    1    4    4    0    0 -0.32444081913E+02 -0.64865751559E+02  0.42275259559E+03  0.42892883006E+03  0.00000000000E+00 0.  1.
</event>
<event>
 8    1  0.6648599E-009  0.1282200E+03  0.7561462E-02  0.1230121E+00
          2   -1    0    0  501    0  0.00000000000E+00  0.00000000000E+00  0.20656146865E+03  0.20656146865E+03  0.00000000000E+00 0.  1.
         -2   -1    0    0    0  501 -0.00000000000E+00 -0.00000000000E+00 -0.11264704413E+03  0.11264704413E+03  0.00000000000E+00 0. -1.
         25    2    1    2    0    0  0.22525699032E+02  0.10040419087E+03  0.19020603062E+02  0.16308713264E+03  0.12508885174E+03 0.  0.
         23    2    1    2    0    0 -0.22525699032E+02 -0.10040419087E+03  0.74893821456E+02  0.15612138015E+03  0.90423405073E+02 0.  0.
          5    1    3    3  502    0 -0.25427837303E+02  0.64010302461E+02  0.58927288082E+02  0.90740241413E+02  0.41800000000E+01 0.  1.
         -5    1    3    3    0  502  0.47953536335E+02  0.36393888412E+02 -0.39906685020E+02  0.72346891226E+02  0.41800000000E+01 0.  1.
        -11    1    4    4    0    0 -0.44387424821E+02 -0.30518078979E+02  0.61370462881E+02  0.81657396119E+02  0.00000000000E+00 0.  1.
         11    1    4    4    0    0  0.21861725789E+02 -0.69886111894E+02  0.13523358576E+02  0.74463984028E+02  0.00000000000E+00 0. -1.
</event>
<event>
 8    1  0.6648599E-009  0.1571713E+03  0.7561462E-02  0.1191928E+00
          1   -1    0    0  501    0  0.00000000000E+00  0.00000000000E+00  0.12964149521E+03  0.12964149521E+03  0.00000000000E+00 0. -1.
         -1   -1    0    0    0  501 -0.00000000000E+00 -0.00000000000E+00 -0.27090147578E+03  0.27090147578E+03  0.00000000000E+00 0.  1.
         25    2    1    2    0    0 -0.13285344512E+03  0.25459212433E+02  0.99977800774E+00  0.18424594417E+03  0.12508940407E+03 0.  0.
         23    2    1    2    0    0  0.13285344512E+03 -0.25459212433E+02 -0.14225975857E+03  0.21629702682E+03  0.90820457631E+02 0.  0.
          5    1    3    3  502    0 -0.77908694018E+02  0.49226683217E+02  0.51641396770E+02  0.10572292658E+03  0.41800000000E+01 0. -1.
         -5    1    3    3    0  502 -0.54944751102E+02 -0.23767470784E+02 -0.50641618762E+02  0.78523017593E+02  0.41800000000E+01 0. -1.
        -11    1    4    4    0    0  0.87003301415E+01 -0.36418700282E+02 -0.42593202095E+02  0.56711536212E+02  0.00000000000E+00 0.  1.
         11    1    4    4    0    0  0.12415311498E+03  0.10959487849E+02 -0.99666556478E+02  0.15958549061E+03  0.00000000000E+00 0. -1.
</event>
<event>
 8    1  0.6648599E-009  0.1770979E+03  0.7561462E-02  0.1170642E+00
         -1   -1    0    0    0  501 -0.00000000000E+00  0.00000000000E+00  0.64814569272E+03  0.64814569272E+03  0.00000000000E+00 0.  1.
          1   -1    0    0  501    0  0.00000000000E+00 -0.00000000000E+00 -0.59969304896E+02  0.59969304896E+02  0.00000000000E+00 0. -1.
         25    2    1    2    0    0  0.15069461105E+03  0.56979084383E+02  0.24875524495E+03  0.32168798941E+03  0.12509399979E+03 0.  0.
         23    2    1    2    0    0 -0.15069461105E+03 -0.56979084383E+02  0.33942114288E+03  0.38642700821E+03  0.90352855996E+02 0.  0.
          5    1    3    3  502    0  0.11274754507E+03  0.13921130417E+02  0.23714283932E+03  0.26298289951E+03  0.41800000000E+01 0. -1.
         -5    1    3    3    0  502  0.37947065972E+02  0.43057953966E+02  0.11612405627E+02  0.58705089899E+02  0.41800000000E+01 0. -1.
        -11    1    4    4    0    0  0.11540751238E+02 -0.53262905055E+01  0.12499440838E+02  0.17826786894E+02  0.00000000000E+00 0. -1.
         11    1    4    4    0    0 -0.16223536228E+03 -0.51652793877E+02  0.32692170204E+03  0.36860022132E+03  0.00000000000E+00 0.  1.
</event>
<event>
 8    1  0.6648599E-009  0.9169175E+02  0.7561462E-02  0.1298806E+00
          1   -1    0    0  501    0  0.00000000000E+00  0.00000000000E+00  0.35161224516E+02  0.35161224516E+02  0.00000000000E+00 0. -1.
         -1   -1    0    0    0  501 -0.00000000000E+00 -0.00000000000E+00 -0.46412677202E+03  0.46412677202E+03  0.00000000000E+00 0.  1.
         25    2    1    2    0    0 -0.47733902030E+02 -0.48443169194E+01 -0.36447695212E+03  0.38832137272E+03  0.12509215432E+03 0.  0.
         23    2    1    2    0    0  0.47733902030E+02  0.48443169194E+01 -0.64488595385E+02  0.11096662382E+03  0.76503724470E+02 0.  0.
          5    1    3    3  502    0  0.18695817726E+02 -0.33705042402E+02 -0.24861615394E+03  0.25162080177E+03  0.41800000000E+01 0.  1.
         -5    1    3    3    0  502 -0.66429719756E+02  0.28860725482E+02 -0.11586079818E+03  0.13670057095E+03  0.41800000000E+01 0.  1.
        -11    1    4    4    0    0 -0.59377922394E+01 -0.13979907453E+02  0.92936882482E+01  0.17806398578E+02  0.00000000000E+00 0. -1.
         11    1    4    4    0    0  0.53671694269E+02  0.18824224372E+02 -0.73782283633E+02  0.93160225242E+02  0.00000000000E+00 0.  1.
</event>
<event>
 8    1  0.6648599E-009  0.9231245E+02  0.7561462E-02  0.1297346E+00
         -2   -1    0    0    0  501 -0.00000000000E+00  0.00000000000E+00  0.33904483470E+03  0.33904483470E+03  0.00000000000E+00 0. -1.
          2   -1    0    0  501    0  0.00000000000E+00 -0.00000000000E+00 -0.46707423457E+02  0.46707423457E+02  0.00000000000E+00 0.  1.
         25    2    1    2    0    0 -0.62153042471E+02  0.12297920961E+02  0.17028146608E+03  0.22059113435E+03  0.12510168390E+03 0.  0.
         23    2    1    2    0    0  0.62153042471E+02 -0.12297920961E+02  0.12205594516E+03  0.16516112381E+03  0.91467499795E+02 0.  0.
          5    1    3    3  502    0 -0.20160136472E+02 -0.28132891191E+02  0.15678010691E+03  0.16060935524E+03  0.41800000000E+01 0. -1.
         -5    1    3    3    0  502 -0.41992905999E+02  0.40430812152E+02  0.13501359170E+02  0.59981779107E+02  0.41800000000E+01 0. -1.
        -11    1    4    4    0    0  0.46011920783E+02 -0.38868200711E+02  0.11967973286E+03  0.13398161194E+03  0.00000000000E+00 0. -1.
         11    1    4    4    0    0  0.16141121687E+02  0.26570279750E+02  0.23762123044E+01  0.31179511866E+02  0.00000000000E+00 0.  1.
</event>
<event>
 8    1  0.6648599E-009  0.1121848E+03  0.7561462E-02  0.1256577E+00
          1   -1    0    0  501    0  0.00000000000E+00  0.00000000000E+00  0.94254647451E+01  0.94254647451E+01  0.00000000000E+00 0. -1.
         -1   -1    0    0    0  501 -0.00000000000E+00 -0.00000000000E+00 -0.16543276246E+04  0.16543276246E+04  0.00000000000E+00 0.  1.
         25    2    1    2    0    0 -0.42650312480E+02  0.19767079660E+02 -0.12523721306E+04  0.12594812647E+04  0.12508923167E+03 0.  0.
         23    2    1    2    0    0  0.42650312480E+02 -0.19767079660E+02 -0.39253002925E+03  0.40427182471E+03  0.84534595237E+02 0.  0.
          5    1    3    3  502    0 -0.46515169320E+02 -0.45493016254E+02 -0.49373176144E+03  0.49801787132E+03  0.41800000000E+01 0. -1.
         -5    1    3    3    0  502  0.38648568407E+01  0.65260095914E+02 -0.75864036921E+03  0.76146339336E+03  0.41800000000E+01 0. -1.
        -11    1    4    4    0    0  0.65334447077E+02 -0.29047132798E+01 -0.31581776248E+03  0.32251804047E+03  0.00000000000E+00 0.  1.
         11    1    4    4    0    0 -0.22684134598E+02 -0.16862366381E+02 -0.76712266775E+02  0.81753784231E+02  0.00000000000E+00 0. -1.
</event>
<event>
 8    1  0.6648599E-009  0.1102828E+03  0.7561462E-02  0.1260047E+00
          1   -1    0    0  501    0  0.00000000000E+00  0.00000000000E+00  0.49549954240E+03  0.49549954240E+03  0.00000000000E+00 0. -1.
         -1   -1    0    0    0  501 -0.00000000000E+00 -0.00000000000E+00 -0.42085223818E+02  0.42085223818E+02  0.00000000000E+00 0.  1.
         25    2    1    2    0    0  0.90987802461E+02 -0.72510725416E+01  0.29342238473E+03  0.33177791024E+03  0.12509407505E+03 0.  0.
         23    2    1    2    0    0 -0.90987802461E+02  0.72510725416E+01  0.15999193385E+03  0.20580685597E+03  0.91802422734E+02 0.  0.
          5    1    3    3  502    0 -0.39141983864E+01 -0.12826128592E+02  0.19271031244E+03  0.19322155016E+03  0.41800000000E+01 0. -1.
         -5    1    3    3    0  502  0.94902000847E+02  0.55750560501E+01  0.10071207229E+03  0.13855636008E+03  0.41800000000E+01 0. -1.
        -11    1    4    4    0    0 -0.21525840842E+02 -0.26494229072E+02  0.76112211211E+01  0.34974800714E+02  0.00000000000E+00 0.  1.
         11    1    4    4    0    0 -0.69461961619E+02  0.33745301613E+02  0.15238071273E+03  0.17083205526E+03  0.00000000000E+00 0. -1.
</event>
<event>
 8    1  0.6648599E-009  0.1163038E+03  0.7561462E-02  0.1249322E+00
         -1   -1    0    0    0  501 -0.00000000000E+00  0.00000000000E+00  0.24992108027E+02  0.24992108027E+02  0.00000000000E+00 0.  1.
          1   -1    0    0  501    0  0.00000000000E+00 -0.00000000000E+00 -0.83508514752E+03  0.83508514752E+03  0.00000000000E+00 0. -1.
         25    2    1    2    0    0 -0.83069137245E+02  0.39576115365E+02 -0.54864068884E+03  0.57019367166E+03  0.12508983685E+03 0.  0.
         23    2    1    2    0    0  0.83069137245E+02 -0.39576115365E+02 -0.26145235065E+03  0.28988358388E+03  0.84902356111E+02 0.  0.
          5    1    3    3  502    0 -0.82052813134E+02 -0.14279177617E+02 -0.45060774639E+03  0.45825906708E+03  0.41800000000E+01 0. -1.
         -5    1    3    3    0  502 -0.10163241116E+01  0.53855292983E+02 -0.98032942447E+02  0.11193460458E+03  0.41800000000E+01 0. -1.
        -11    1    4    4    0    0  0.44261041168E+02 -0.76074303911E+01 -0.32399800539E+02  0.55377430758E+02  0.00000000000E+00 0.  1.
         11    1    4    4    0    0  0.38808096078E+02 -0.31968684974E+02 -0.22905255011E+03  0.23450615312E+03  0.00000000000E+00 0. -1.
</event>
<event>
 8    1  0.6648599E-009  0.1243526E+03  0.7561462E-02  0.1236085E+00
          2   -1    0    0  501    0  0.00000000000E+00  0.00000000000E+00  0.52252976630E+03  0.52252976630E+03  0.00000000000E+00 0. -1.
         -2   -1    0    0    0  501 -0.00000000000E+00 -0.00000000000E+00 -0.36117188603E+02  0.36117188603E+02  0.00000000000E+00 0.  1.
         25    2    1    2    0    0  0.33129561882E+01 -0.81782121711E+02  0.23798670826E+03  0.28104475253E+03  0.12509671660E+03 0.  0.
         23    2    1    2    0    0 -0.33129561882E+01  0.81782121711E+02  0.24842586944E+03  0.27760220238E+03  0.92996123828E+02 0.  0.
          5    1    3    3  502    0 -0.56286284405E+02 -0.12231449451E+02  0.88316942072E+02  0.10552302509E+03  0.41800000000E+01 0.  1.
         -5    1    3    3    0  502  0.59599240594E+02 -0.69550672261E+02  0.14966976619E+03  0.17552172744E+03  0.41800000000E+01 0.  1.
        -11    1    4    4    0    0 -0.21389193086E+02  0.72690599191E+01  0.60485966695E+01  0.23386370703E+02  0.00000000000E+00 0.  1.
         11    1    4    4    0    0  0.18076236898E+02  0.74513061792E+02  0.24237727277E+03  0.25421583167E+03  0.00000000000E+00 0. -1.
</event>
<event>
 8    1  0.6648599E-009  0.1501363E+03  0.7561462E-02  0.1200306E+00
         -2   -1    0    0    0  501 -0.00000000000E+00  0.00000000000E+00  0.44431940549E+02  0.44431940549E+02  0.00000000000E+00 0.  1.
          2   -1    0    0  501    0  0.00000000000E+00 -0.00000000000E+00 -0.55984640421E+03  0.55984640421E+03  0.00000000000E+00 0. -1.
         25    2    1    2    0    0 -0.10860941728E+03  0.14251291852E+02 -0.21524030923E+03  0.27198586289E+03  0.12509521995E+03 0.  0.
         23    2    1    2    0    0  0.10860941728E+03 -0.14251291852E+02 -0.30017415443E+03  0.33229248186E+03  0.91184788606E+02 0.  0.
          5    1    3    3  502    0 -0.13146138063E+03 -0.41019840901E+01 -0.19795614198E+03  0.23770365462E+03  0.41800000000E+01 0. -1.
         -5    1    3    3    0  502  0.22851963346E+02  0.18353275942E+02 -0.17284167241E+02  0.34282208268E+02  0.41800000000E+01 0. -1.
        -11    1    4    4    0    0  0.11660116675E+03 -0.30883671770E+02 -0.28041069026E+03  0.30525364614E+03  0.00000000000E+00 0. -1.
         11    1    4    4    0    0 -0.79917494676E+01  0.16632379919E+02 -0.19763464173E+02  0.27038835726E+02  0.00000000000E+00 0.  1.
</event>
<event>
 8    1  0.6648599E-009  0.1124896E+03  0.7561462E-02  0.1256028E+00
          1   -1    0    0  501    0  0.00000000000E+00  0.00000000000E+00  0.14457126274E+03  0.14457126274E+03  0.00000000000E+00 0. -1.
         -1   -1    0    0    0  501 -0.00000000000E+00 -0.00000000000E+00 -0.11773638438E+03  0.11773638438E+03  0.00000000000E+00 0.  1.
         25    2    1    2    0    0 -0.98236791661E+01 -0.58457526283E+02  0.53374978271E+02  0.14836381755E+03  0.12509655071E+03 0.  0.
         23    2    1    2    0    0  0.98236791661E+01  0.58457526283E+02 -0.26540099910E+02  0.11394382957E+03  0.93621751441E+02 0.  0.
          5    1    3    3  502    0  0.45667549042E+02 -0.46105321017E+02 -0.69121450348E+01  0.65394768985E+02  0.41800000000E+01 0.  1.
         -5    1    3    3    0  502 -0.55491228208E+02 -0.12352205266E+02  0.60287123305E+02  0.82969048563E+02  0.41800000000E+01 0.  1.
        -11    1    4    4    0    0  0.37024503088E+02  0.65150207283E+02  0.60332854064E+00  0.74938156792E+02  0.00000000000E+00 0. -1.
         11    1    4    4    0    0 -0.27200823922E+02 -0.66926810004E+01 -0.27143428450E+02  0.39005672781E+02  0.00000000000E+00 0.  1.
</event>
<event>
 8    1  0.6648599E-009  0.1113762E+03  0.7561462E-02  0.1258042E+00
          2   -1    0    0  501    0  0.00000000000E+00  0.00000000000E+00  0.19260274577E+03  0.19260274577E+03  0.00000000000E+00 0. -1.
         -2   -1    0    0    0  501 -0.00000000000E+00 -0.00000000000E+00 -0.84482941786E+02  0.84482941786E+02  0.00000000000E+00 0.  1.
         25    2    1    2    0    0 -0.64328906688E+02  0.63681847515E+01  0.40152980954E+02  0.14641869385E+03  0.12508960795E+03 0.  0.
         23    2    1    2    0    0  0.64328906688E+02 -0.63681847515E+01  0.67966823028E+02  0.13066699370E+03  0.90970391875E+02 0.  0.
          5    1    3    3  502    0 -0.35283655664E+02 -0.46084501010E+02  0.59552074746E+02  0.83262474122E+02  0.41800000000E+01 0.  1.
         -5    1    3    3    0  502 -0.29045251024E+02  0.52452685761E+02 -0.19399093792E+02  0.63156219730E+02  0.41800000000E+01 0.  1.
        -11    1    4    4    0    0  0.23186733500E+02 -0.43334860730E+02  0.92669600067E+01  0.50014111136E+02  0.00000000000E+00 0.  1.
         11    1    4    4    0    0  0.41142173187E+02  0.36966675979E+02  0.58699863022E+02  0.80652882566E+02  0.00000000000E+00 0. -1.
</event>
<event>
 8    1  0.6648599E-009  0.1466360E+03  0.7561462E-02  0.1204669E+00
         -1   -1    0    0    0  501 -0.00000000000E+00  0.00000000000E+00  0.36016748406E+03  0.36016748406E+03  0.00000000000E+00 0.  1.
          1   -1    0    0  501    0  0.00000000000E+00 -0.00000000000E+00 -0.61623637970E+02  0.61623637970E+02  0.00000000000E+00 0. -1.
         25    2    1    2    0    0 -0.10631740991E+03 -0.47887627727E+00  0.17248546843E+03  0.23812347606E+03  0.12509169460E+03 0.  0.
         23    2    1    2    0    0  0.10631740991E+03  0.47887627727E+00  0.12605837766E+03  0.18366764597E+03  0.80866981064E+02 0.  0.
          5    1    3    3  502    0 -0.80547610183E+02  0.57401059959E+02  0.88125374677E+02  0.13253812000E+03  0.41800000000E+01 0.  1.
         -5    1    3    3    0  502 -0.25769799723E+02 -0.57879936236E+02  0.84360093750E+02  0.10558535606E+03  0.41800000000E+01 0.  1.
        -11    1    4    4    0    0  0.23220059029E+02 -0.33702826207E+02  0.23029728669E+02  0.46961899857E+02  0.00000000000E+00 0. -1.
         11    1    4    4    0    0  0.83097350877E+02  0.34181702484E+02  0.10302864899E+03  0.13670574611E+03  0.00000000000E+00 0.  1.
</event>
<event>
 8    1  0.6648599E-009  0.1203146E+03  0.7561462E-02  0.1242579E+00
         -2   -1    0    0    0  501 -0.00000000000E+00  0.00000000000E+00  0.39997512391E+03  0.39997512391E+03  0.00000000000E+00 0.  1.
          2   -1    0    0  501    0  0.00000000000E+00 -0.00000000000E+00 -0.63346168136E+02  0.63346168136E+02  0.00000000000E+00 0. -1.
         25    2    1    2    0    0 -0.46706032439E+02  0.10623232173E+03  0.17512106063E+03  0.24450384070E+03  0.12509189660E+03 0.  0.
         23    2    1    2    0    0  0.46706032439E+02 -0.10623232173E+03  0.16150789514E+03  0.21881745134E+03  0.91266188550E+02 0.  0.
          5    1    3    3  502    0  0.45778085563E+01  0.16980313788E+02 -0.18070634326E+02  0.25559882873E+02  0.41800000000E+01 0.  1.
         -5    1    3    3    0  502 -0.51283840995E+02  0.89252007945E+02  0.19319169495E+03  0.21894395783E+03  0.41800000000E+01 0.  1.
        -11    1    4    4    0    0  0.10871068072E+02 -0.60308716671E+02  0.14629778784E+03  0.15861388386E+03  0.00000000000E+00 0.  1.
         11    1    4    4    0    0  0.35834964368E+02 -0.45923605063E+02  0.15210107301E+02  0.60203567480E+02  0.00000000000E+00 0. -1.
</event>
<event>
 8    1  0.6648599E-009  0.9072506E+02  0.7561462E-02  0.1301105E+00
         -3   -1    0    0    0  501 -0.00000000000E+00  0.00000000000E+00  0.65983796077E+02  0.65983796077E+02  0.00000000000E+00 0.  1.
          3   -1    0    0  501    0  0.00000000000E+00 -0.00000000000E+00 -0.23585065271E+03  0.23585065271E+03  0.00000000000E+00 0. -1.
         25    2    1    2    0    0 -0.37460852956E+01 -0.56868016837E+02 -0.12054250213E+03  0.18282830180E+03  0.12509072158E+03 0.  0.
         23    2    1    2    0    0  0.37460852956E+01  0.56868016837E+02 -0.49324354503E+02  0.11900614699E+03  0.92095421056E+02 0.  0.
          5    1    3    3  502    0  0.19738009023E+02 -0.11311089016E+02  0.21613746413E+02  0.31656850268E+02  0.41800000000E+01 0.  1.
         -5    1    3    3    0  502 -0.23484094318E+02 -0.45556927821E+02 -0.14215624854E+03  0.15117145153E+03  0.41800000000E+01 0.  1.
        -11    1    4    4    0    0  0.43019184182E+02  0.72651694713E+01 -0.10846538447E+02  0.44956426586E+02  0.00000000000E+00 0.  1.
         11    1    4    4    0    0 -0.39273098886E+02  0.49602847366E+02 -0.38477816056E+02  0.74049720400E+02  0.00000000000E+00 0. -1.
</event>
<event>
 8    1  0.6648599E-009  0.7592875E+02  0.7561462E-02  0.1341019E+00
          1   -1    0    0  501    0  0.00000000000E+00  0.00000000000E+00  0.17303688056E+03  0.17303688056E+03  0.00000000000E+00 0. -1.
         -1   -1    0    0    0  501 -0.00000000000E+00 -0.00000000000E+00 -0.77026871026E+02  0.77026871026E+02  0.00000000000E+00 0.  1.
         25    2    1    2    0    0  0.38583011096E+02  0.12701780780E+01  0.48123285427E+02  0.13947716099E+03  0.12509102981E+03 0.  0.
         23    2    1    2    0    0 -0.38583011096E+02 -0.12701780780E+01  0.47886724112E+02  0.11058659060E+03  0.91902086901E+02 0.  0.
          5    1    3    3  502    0  0.74314289108E+02 -0.10101433668E+02 -0.38969275076E+01  0.75215098030E+02  0.41800000000E+01 0. -1.
         -5    1    3    3    0  502 -0.35731278012E+02  0.11371611746E+02  0.52020212935E+02  0.64262062960E+02  0.41800000000E+01 0. -1.
        -11    1    4    4    0    0 -0.13717340040E+02 -0.31599681831E+01 -0.27657042098E+02  0.31033253041E+02  0.00000000000E+00 0.  1.
         11    1    4    4    0    0 -0.24865671056E+02  0.18897901050E+01  0.75543766210E+02  0.79553337559E+02  0.00000000000E+00 0. -1.
</event>
<event>
 8    1  0.6648599E-009  0.6220980E+02  0.7561462E-02  0.1388785E+00
         -1   -1    0    0    0  501 -0.00000000000E+00  0.00000000000E+00  0.33409316796E+03  0.33409316796E+03  0.00000000000E+00 0.  1.
          1   -1    0    0  501    0  0.00000000000E+00 -0.00000000000E+00 -0.37127980095E+02  0.37127980095E+02  0.00000000000E+00 0. -1.
         25    2    1    2    0    0 -0.22892935181E+02 -0.17277439965E+02  0.16406224477E+03  0.20829524896E+03  0.12509154314E+03 0.  0.
         23    2    1    2    0    0  0.22892935181E+02  0.17277439965E+02  0.13290294309E+03  0.16292589910E+03  0.89772266882E+02 0.  0.
          5    1    3    3  502    0 -0.14836848232E+02  0.52590664110E+01 -0.18198536683E+02  0.24422305018E+02  0.41800000000E+01 0.  1.
         -5    1    3    3    0  502 -0.80560869490E+01 -0.22536506376E+02  0.18226078146E+03  0.18387294394E+03  0.41800000000E+01 0.  1.
        -11    1    4    4    0    0 -0.29569934041E+02  0.57879490181E+01  0.87689520914E+02  0.92721806665E+02  0.00000000000E+00 0.  1.
         11    1    4    4    0    0  0.52462869222E+02  0.11489490947E+02  0.45213422178E+02  0.70204092433E+02  0.00000000000E+00 0. -1.
</event>
<event>
 8    1  0.6648599E-009  0.1162880E+03  0.7561462E-02  0.1249349E+00
         -1   -1    0    0    0  501 -0.00000000000E+00  0.00000000000E+00  0.21322090183E+03  0.21322090183E+03  0.00000000000E+00 0.  1.
          1   -1    0    0  501    0  0.00000000000E+00 -0.00000000000E+00 -0.67180621371E+02  0.67180621371E+02  0.00000000000E+00 0. -1.
         25    2    1    2    0    0 -0.33521613401E+02 -0.32752112940E+02  0.57714689741E+02  0.14551533247E+03  0.12508927654E+03 0.  0.
         23    2    1    2    0    0  0.33521613401E+02  0.32752112940E+02  0.88325590719E+02  0.13488619073E+03  0.90534385770E+02 0.  0.
          5    1    3    3  502    0  0.23363570500E+02  0.34886345967E+02  0.49133815676E+01  0.42479727869E+02  0.41800000000E+01 0.  1.
         -5    1    3    3    0  502 -0.56885183901E+02 -0.67638458907E+02  0.52801308173E+02  0.10303560460E+03  0.41800000000E+01 0.  1.
        -11    1    4    4    0    0  0.52772072781E+02 -0.11175857572E+02  0.48687150531E+02  0.72665191701E+02  0.00000000000E+00 0.  1.
         11    1    4    4    0    0 -0.19250459380E+02  0.43927970513E+02  0.39638440188E+02  0.62220999029E+02  0.00000000000E+00 0. -1.
</event>
<event>
 8    1  0.6648599E-009  0.1079088E+03  0.7561462E-02  0.1264492E+00
         -2   -1    0    0    0  501 -0.00000000000E+00  0.00000000000E+00  0.39431250035E+02  0.39431250035E+02  0.00000000000E+00 0.  1.
          2   -1    0    0  501    0  0.00000000000E+00 -0.00000000000E+00 -0.41835645821E+03  0.41835645821E+03  0.00000000000E+00 0. -1.
         25    2    1    2    0    0  0.30664647635E+02  0.53398455669E+02 -0.15642491454E+03  0.20956067514E+03  0.12512076963E+03 0.  0.
         23    2    1    2    0    0 -0.30664647635E+02 -0.53398455669E+02 -0.22250029364E+03  0.24822703311E+03  0.91206159963E+02 0.  0.
          5    1    3    3  502    0 -0.27628471457E+02 -0.21942358396E+02 -0.79397413648E+02  0.86984028540E+02  0.41800000000E+01 0.  1.
         -5    1    3    3    0  502  0.58293119092E+02  0.75340814065E+02 -0.77027500890E+02  0.12257664660E+03  0.41800000000E+01 0.  1.
        -11    1    4    4    0    0  0.17548728733E+02 -0.17889806032E+02 -0.92224076630E+01  0.26703105495E+02  0.00000000000E+00 0.  1.
         11    1    4    4    0    0 -0.48213376368E+02 -0.35508649637E+02 -0.21327788598E+03  0.22152392762E+03  0.00000000000E+00 0. -1.
</event>
<event>
 8    1  0.6648599E-009  0.1046184E+03  0.7561462E-02  0.1270873E+00
          1   -1    0    0  501    0  0.00000000000E+00  0.00000000000E+00  0.53562235072E+03  0.53562235072E+03  0.00000000000E+00 0. -1.
         -1   -1    0    0    0  501 -0.00000000000E+00 -0.00000000000E+00 -0.40394208034E+02  0.40394208034E+02  0.00000000000E+00 0.  1.
         25    2    1    2    0    0  0.78584396739E+02 -0.24005060129E+02  0.37754449222E+03  0.40612611107E+03  0.12508726621E+03 0.  0.
         23    2    1    2    0    0 -0.78584396739E+02  0.24005060129E+02  0.11768365047E+03  0.16989044769E+03  0.90893191737E+02 0.  0.
          5    1    3    3  502    0 -0.86466160343E+01 -0.78664323896E+01 -0.50182437352E+01  0.13390291168E+02  0.41800000000E+01 0. -1.
         -5    1    3    3    0  502  0.87231012774E+02 -0.16138627740E+02  0.38256273595E+03  0.39273581990E+03  0.41800000000E+01 0. -1.
        -11    1    4    4    0    0 -0.45898586597E+02 -0.22542268890E+02  0.16349895630E+02  0.53685689205E+02  0.00000000000E+00 0.  1.
         11    1    4    4    0    0 -0.32685810143E+02  0.46547329019E+02  0.10133375484E+03  0.11620475848E+03  0.00000000000E+00 0. -1.
</event>
<event>
 8    1  0.6648599E-009  0.1927777E+03  0.7561462E-02  0.1155980E+00
         -3   -1    0    0    0  501 -0.00000000000E+00  0.00000000000E+00  0.57092262747E+03  0.57092262747E+03  0.00000000000E+00 0.  1.
          3   -1    0    0  501    0  0.00000000000E+00 -0.00000000000E+00 -0.68605400757E+02  0.68605400757E+02  0.00000000000E+00 0. -1.
         25    2    1    2    0    0 -0.15452491116E+02 -0.16226437400E+03  0.26974415434E+03  0.33908518547E+03  0.12509335574E+03 0.  0.
         23    2    1    2    0    0  0.15452491116E+02  0.16226437400E+03  0.23257307237E+03  0.30044284276E+03  0.98016127348E+02 0.  0.
          5    1    3    3  502    0  0.30452524416E+02 -0.38377366364E+00  0.16171015821E+02  0.34734387547E+02  0.41800000000E+01 0. -1.
         -5    1    3    3    0  502 -0.45905015532E+02 -0.16188060034E+03  0.25357313852E+03  0.30435079793E+03  0.41800000000E+01 0. -1.
        -11    1    4    4    0    0  0.51415032163E+02  0.65504593057E+02  0.13364576211E+03  0.15746601847E+03  0.00000000000E+00 0.  1.
         11    1    4    4    0    0 -0.35962541047E+02  0.96759780946E+02  0.98927310265E+02  0.14297682429E+03  0.00000000000E+00 0. -1.
</event>
<event>
 8    1  0.6648599E-009  0.6740583E+02  0.7561462E-02  0.1369144E+00
          2   -1    0    0  501    0  0.00000000000E+00  0.00000000000E+00  0.39940383264E+03  0.39940383264E+03  0.00000000000E+00 0. -1.
         -2   -1    0    0    0  501 -0.00000000000E+00 -0.00000000000E+00 -0.70740905932E+02  0.70740905932E+02  0.00000000000E+00 0.  1.
         25    2    1    2    0    0  0.18056631127E+01 -0.19281700741E+02  0.35215526995E+03  0.37421461228E+03  0.12509275552E+03 0.  0.
         23    2    1    2    0    0 -0.18056631127E+01  0.19281700741E+02 -0.23492343241E+02  0.95930126297E+02  0.90970624587E+02 0.  0.
          5    1    3    3  502    0  0.37015171812E+02 -0.71093090532E+01  0.26158752144E+02  0.46069707327E+02  0.41800000000E+01 0.  1.
         -5    1    3    3    0  502 -0.35209508699E+02 -0.12172391688E+02  0.32599651781E+03  0.32814490495E+03  0.41800000000E+01 0.  1.
        -11    1    4    4    0    0 -0.28811258473E+02  0.13338379397E+02  0.24796267126E+02  0.40284684970E+02  0.00000000000E+00 0. -1.
         11    1    4    4    0    0  0.27005595360E+02  0.59433213436E+01 -0.48288610367E+02  0.55645441328E+02  0.00000000000E+00 0.  1.
</event>
<event>
 8    1  0.6648599E-009  0.8440693E+02  0.7561462E-02  0.1316991E+00
          1   -1    0    0  501    0  0.00000000000E+00  0.00000000000E+00  0.55021805782E+02  0.55021805782E+02  0.00000000000E+00 0. -1.
         -1   -1    0    0    0  501 -0.00000000000E+00 -0.00000000000E+00 -0.23400629477E+03  0.23400629477E+03  0.00000000000E+00 0.  1.
         25    2    1    2    0    0 -0.52899320078E+01  0.28207073546E+02 -0.13105517088E+03  0.18342709080E+03  0.12508564044E+03 0.  0.
         23    2    1    2    0    0  0.52899320078E+01 -0.28207073546E+02 -0.47929318107E+02  0.10560100976E+03  0.89614347898E+02 0.  0.
          5    1    3    3  502    0  0.66274545841E+01 -0.25043466731E+02 -0.12573210914E+03  0.12844116961E+03  0.41800000000E+01 0. -1.
         -5    1    3    3    0  502 -0.11917386592E+02  0.53250540277E+02 -0.53230617417E+01  0.54985921192E+02  0.41800000000E+01 0. -1.
        -11    1    4    4    0    0 -0.37107679128E+02 -0.26153834550E+02 -0.57505262360E+01  0.45761025600E+02  0.00000000000E+00 0. -1.
         11    1    4    4    0    0  0.42397611136E+02 -0.20532389968E+01 -0.42178791871E+02  0.59839984159E+02  0.00000000000E+00 0.  1.
</event>
<event>
 8    1  0.6648599E-009  0.1086901E+03  0.7561462E-02  0.1263015E+00
          1   -1    0    0  501    0  0.00000000000E+00  0.00000000000E+00  0.12586464148E+04  0.12586464148E+04  0.00000000000E+00 0. -1.
         -1   -1    0    0    0  501 -0.00000000000E+00 -0.00000000000E+00 -0.14048147594E+02  0.14048147594E+02  0.00000000000E+00 0.  1.
         25    2    1    2    0    0 -0.18279200972E+02 -0.51749024507E+02  0.94713953535E+03  0.95693943472E+03  0.12509073338E+03 0.  0.
         23    2    1    2    0    0  0.18279200972E+02  0.51749024507E+02  0.29745873188E+03  0.31575512770E+03  0.90595324211E+02 0.  0.
          5    1    3    3  502    0  0.32868095751E+02 -0.58188283872E+02  0.28404069347E+03  0.29182661984E+03  0.41800000000E+01 0. -1.
         -5    1    3    3    0  502 -0.51147296723E+02  0.64392593642E+01  0.66309884188E+03  0.66511281489E+03  0.41800000000E+01 0. -1.
        -11    1    4    4    0    0  0.42513149385E+02  0.10722543069E+01  0.18769803756E+03  0.19245537380E+03  0.00000000000E+00 0.  1.
         11    1    4    4    0    0 -0.24233948412E+02  0.50676770200E+02  0.10976069432E+03  0.12329975390E+03  0.00000000000E+00 0. -1.
</event>
<event>
 8    1  0.6648599E-009  0.9914961E+02  0.7561462E-02  0.1282094E+00
         -3   -1    0    0    0  501 -0.00000000000E+00  0.00000000000E+00  0.73688796635E+02  0.73688796635E+02  0.00000000000E+00 0.  1.
          3   -1    0    0  501    0  0.00000000000E+00 -0.00000000000E+00 -0.17290389829E+03  0.17290389829E+03  0.00000000000E+00 0. -1.
         25    2    1    2    0    0  0.20901745715E+02 -0.21807932837E+02 -0.43328568860E+02  0.13578276350E+03  0.12508846900E+03 0.  0.
         23    2    1    2    0    0 -0.20901745715E+02  0.21807932837E+02 -0.55886532791E+02  0.11080993142E+03  0.90791340141E+02 0.  0.
          5    1    3    3  502    0  0.96198713073E+01 -0.74103618818E+02 -0.28765944809E+02  0.80180048807E+02  0.41800000000E+01 0. -1.
         -5    1    3    3    0  502  0.11281874408E+02  0.52295685981E+02 -0.14562624051E+02  0.55602714697E+02  0.41800000000E+01 0. -1.
        -11    1    4    4    0    0 -0.12193100805E+02 -0.21987619070E+02 -0.60890898828E+02  0.65877375932E+02  0.00000000000E+00 0. -1.
         11    1    4    4    0    0 -0.87086449094E+01  0.43795551906E+02  0.50043660368E+01  0.44932555485E+02  0.00000000000E+00 0.  1.
</event>
<event>
 8    1  0.6648599E-009  0.1101421E+03  0.7561462E-02  0.1260307E+00
         -3   -1    0    0    0  501 -0.00000000000E+00  0.00000000000E+00  0.18531112053E+03  0.18531112053E+03  0.00000000000E+00 0.  1.
          3   -1    0    0  501    0  0.00000000000E+00 -0.00000000000E+00 -0.81376542667E+02  0.81376542667E+02  0.00000000000E+00 0. -1.
         25    2    1    2    0    0 -0.56958569466E+01  0.50420198718E+02  0.85592310950E+02  0.15983633405E+03  0.12508785218E+03 0.  0.
         23    2    1    2    0    0  0.56958569466E+01 -0.50420198718E+02  0.18342266915E+02  0.10685132915E+03  0.92228675367E+02 0.  0.
          5    1    3    3  502    0  0.42079203574E+02  0.54559959269E+02  0.87756490985E+02  0.11165179192E+03  0.41800000000E+01 0. -1.
         -5    1    3    3    0  502 -0.47775060520E+02 -0.41397605510E+01 -0.21641800345E+01  0.48184542131E+02  0.41800000000E+01 0. -1.
        -11    1    4    4    0    0 -0.79939518344E+01  0.25113755267E+02  0.14289564919E+02  0.29979920532E+02  0.00000000000E+00 0.  1.
         11    1    4    4    0    0  0.13689808781E+02 -0.75533953985E+02  0.40527019959E+01  0.76871408616E+02  0.00000000000E+00 0. -1.
</event>
<event>
 8    1  0.6648599E-009  0.1450576E+03  0.7561462E-02  0.1206681E+00
          1   -1    0    0  501    0  0.00000000000E+00  0.00000000000E+00  0.64161168827E+02  0.64161168827E+02  0.00000000000E+00 0. -1.
         -1   -1    0    0    0  501 -0.00000000000E+00 -0.00000000000E+00 -0.50078601565E+03  0.50078601565E+03  0.00000000000E+00 0.  1.
         25    2    1    2    0    0 -0.12741853888E+03  0.57872774112E+02 -0.27156784845E+03  0.33012266857E+03  0.12508852051E+03 0.  0.
         23    2    1    2    0    0  0.12741853888E+03 -0.57872774112E+02 -0.16505699838E+03  0.23482451591E+03  0.91181130307E+02 0.  0.
          5    1    3    3  502    0 -0.11655052961E+03  0.30784640042E+02 -0.10186850549E+03  0.15788091977E+03  0.41800000000E+01 0.  1.
         -5    1    3    3    0  502 -0.10868009266E+02  0.27088134069E+02 -0.16969934296E+03  0.17224174881E+03  0.41800000000E+01 0.  1.
        -11    1    4    4    0    0  0.61489758938E+02 -0.30268736595E+02 -0.14532681635E+03  0.16067691315E+03  0.00000000000E+00 0.  1.
         11    1    4    4    0    0  0.65928779938E+02 -0.27604037517E+02 -0.19730182028E+02  0.74147602755E+02  0.00000000000E+00 0. -1.
</event>
<event>
 8    1  0.6648599E-009  0.1275825E+03  0.7561462E-02  0.1231088E+00
         -2   -1    0    0    0  501 -0.00000000000E+00  0.00000000000E+00  0.61616215930E+02  0.61616215930E+02  0.00000000000E+00 0. -1.
          2   -1    0    0  501    0  0.00000000000E+00 -0.00000000000E+00 -0.31154355311E+03  0.31154355311E+03  0.00000000000E+00 0.  1.
         25    2    1    2    0    0  0.93943664853E+02 -0.22323775357E+02 -0.13092542656E+03  0.20521305855E+03  0.12508864445E+03 0.  0.
         23    2    1    2    0    0 -0.93943664853E+02  0.22323775357E+02 -0.11900191063E+03  0.16794671049E+03  0.68708658260E+02 0.  0.
          5    1    3    3  502    0  0.12856464255E+02  0.39773702890E+02 -0.81461431874E+02  0.91655187511E+02  0.41800000000E+01 0.  1.
         -5    1    3    3    0  502  0.81087200599E+02 -0.62097478247E+02 -0.49463994683E+02  0.11355787104E+03  0.41800000000E+01 0.  1.
        -11    1    4    4    0    0 -0.72130858790E+02 -0.90815061883E+01 -0.10395764122E+03  0.12685631917E+03  0.00000000000E+00 0. -1.
         11    1    4    4    0    0 -0.21812806063E+02  0.31405281545E+02 -0.15044269408E+02  0.41090391326E+02  0.00000000000E+00 0.  1.
</event>
<event>
 8    1  0.6648599E-009  0.1425523E+03  0.7561462E-02  0.1209935E+00
          3   -1    0    0  501    0  0.00000000000E+00  0.00000000000E+00  0.30066772820E+03  0.30066772820E+03  0.00000000000E+00 0. -1.
         -3   -1    0    0    0  501 -0.00000000000E+00 -0.00000000000E+00 -0.84110447688E+02  0.84110447688E+02  0.00000000000E+00 0.  1.
         25    2    1    2    0    0  0.18154028673E+02  0.11253741845E+03  0.90775057742E+02  0.19204366161E+03  0.12508564086E+03 0.  0.
         23    2    1    2    0    0 -0.18154028673E+02 -0.11253741845E+03  0.12578222277E+03  0.19273451427E+03  0.91275331379E+02 0.  0.
          5    1    3    3  502    0  0.69959552737E+02  0.43479485914E+02  0.50309866806E+02  0.96609315350E+02  0.41800000000E+01 0. -1.
         -5    1    3    3    0  502 -0.51805524063E+02  0.69057932534E+02  0.40465190936E+02  0.95434346264E+02  0.41800000000E+01 0. -1.
        -11    1    4    4    0    0 -0.12086048209E+02 -0.19358429966E+02  0.89817530087E+02  0.92671517107E+02  0.00000000000E+00 0. -1.
         11    1    4    4    0    0 -0.60679804648E+01 -0.93178988482E+02  0.35964692681E+02  0.10006299716E+03  0.00000000000E+00 0.  1.
</event>
<event>
 8    1  0.6648599E-009  0.1389506E+03  0.7561462E-02  0.1214748E+00
         -2   -1    0    0    0  501 -0.00000000000E+00  0.00000000000E+00  0.30715382552E+03  0.30715382552E+03  0.00000000000E+00 0.  1.
          2   -1    0    0  501    0  0.00000000000E+00 -0.00000000000E+00 -0.97570742803E+02  0.97570742803E+02  0.00000000000E+00 0. -1.
         25    2    1    2    0    0  0.31538443801E+02 -0.99798935340E+02  0.20973826042E+03  0.26569268842E+03  0.12509182971E+03 0.  0.
         23    2    1    2    0    0 -0.31538443801E+02  0.99798935340E+02 -0.15517770837E+00  0.13903187991E+03  0.91516876137E+02 0.  0.
          5    1    3    3  502    0 -0.16677522155E+02 -0.10982551848E+03  0.12244318848E+03  0.16537711770E+03  0.41800000000E+01 0. -1.
         -5    1    3    3    0  502  0.48215965956E+02  0.10026583135E+02  0.87295071939E+02  0.10031557071E+03  0.41800000000E+01 0. -1.
        -11    1    4    4    0    0 -0.42200519855E+02  0.45823897844E+02 -0.37337412855E+02  0.72627790055E+02  0.00000000000E+00 0. -1.
         11    1    4    4    0    0  0.10662076053E+02  0.53975037496E+02  0.37182235147E+02  0.66404089851E+02  0.00000000000E+00 0.  1.
</event>
<event>
 8    1  0.6648599E-009  0.1376941E+03  0.7561462E-02  0.1216466E+00
          1   -1    0    0  501    0  0.00000000000E+00  0.00000000000E+00  0.33985580329E+02  0.33985580329E+02  0.00000000000E+00 0. -1.
         -1   -1    0    0    0  501 -0.00000000000E+00 -0.00000000000E+00 -0.63992931029E+03  0.63992931029E+03  0.00000000000E+00 0.  1.
         25    2    1    2    0    0  0.76895742517E+02 -0.41194739759E+02 -0.23759083754E+03  0.28232484524E+03  0.12509176774E+03 0.  0.
         23    2    1    2    0    0 -0.76895742517E+02  0.41194739759E+02 -0.36835289242E+03  0.39159004537E+03  0.10024444365E+03 0.  0.
          5    1    3    3  502    0  0.33483329584E+02 -0.84330394091E+02 -0.15086487724E+03  0.17609779190E+03  0.41800000000E+01 0.  1.
         -5    1    3    3    0  502  0.43412412933E+02  0.43135654332E+02 -0.86725960306E+02  0.10622705334E+03  0.41800000000E+01 0.  1.
        -11    1    4    4    0    0 -0.96510511385E+02  0.34349406600E+02 -0.34697089889E+03  0.36177750790E+03  0.00000000000E+00 0.  1.
         11    1    4    4    0    0  0.19614768868E+02  0.68453331587E+01 -0.21381993526E+02  0.29812537479E+02  0.00000000000E+00 0. -1.
</event>
<event>
 8    1  0.6648599E-009  0.1344599E+03  0.7561462E-02  0.1220984E+00
          1   -1    0    0  501    0  0.00000000000E+00  0.00000000000E+00  0.11579313325E+03  0.11579313325E+03  0.00000000000E+00 0. -1.
         -1   -1    0    0    0  501 -0.00000000000E+00 -0.00000000000E+00 -0.19923089518E+03  0.19923089518E+03  0.00000000000E+00 0.  1.
         25    2    1    2    0    0 -0.84104137006E+02  0.62321614070E+02 -0.30970141078E+02  0.16602447728E+03  0.12508991956E+03 0.  0.
         23    2    1    2    0    0  0.84104137006E+02 -0.62321614070E+02 -0.52467620851E+02  0.14899955115E+03  0.92144047901E+02 0.  0.
          5    1    3    3  502    0 -0.97415477102E+02  0.80322708194E+01 -0.45825552058E+02  0.10803585597E+03  0.41800000000E+01 0. -1.
         -5    1    3    3    0  502  0.13311340096E+02  0.54289343251E+02  0.14855410981E+02  0.57988621308E+02  0.41800000000E+01 0. -1.
        -11    1    4    4    0    0  0.57599169642E+02 -0.13014211605E+02  0.15397600074E+02  0.61025569519E+02  0.00000000000E+00 0. -1.
         11    1    4    4    0    0  0.26504967365E+02 -0.49307402466E+02 -0.67865220925E+02  0.87973981632E+02  0.00000000000E+00 0.  1.
</event>
<event>
 8    1  0.6648599E-009  0.1788396E+03  0.7561462E-02  0.1168931E+00
         -2   -1    0    0    0  501 -0.00000000000E+00  0.00000000000E+00  0.11877418578E+03  0.11877418578E+03  0.00000000000E+00 0.  1.
          2   -1    0    0  501    0  0.00000000000E+00 -0.00000000000E+00 -0.30330665074E+03  0.30330665074E+03  0.00000000000E+00 0. -1.
         25    2    1    2    0    0 -0.70377566984E+02  0.12955642958E+03 -0.42160870049E+02  0.19789480737E+03  0.12508775096E+03 0.  0.
         23    2    1    2    0    0  0.70377566984E+02 -0.12955642958E+03 -0.14237159491E+03  0.22418602916E+03  0.90839607285E+02 0.  0.
          5    1    3    3  502    0 -0.17862301777E+02 -0.20339351836E+02  0.12178528710E+02  0.29975657114E+02  0.41800000000E+01 0.  1.
         -5    1    3    3    0  502 -0.52515265207E+02  0.14989578141E+03 -0.54339398760E+02  0.16791915026E+03  0.41800000000E+01 0.  1.
        -11    1    4    4    0    0  0.91210481423E+02 -0.10151974320E+03 -0.99551225336E+02  0.16892618698E+03  0.00000000000E+00 0.  1.
         11    1    4    4    0    0 -0.20832914438E+02 -0.28036686375E+02 -0.42820369576E+02  0.55259842178E+02  0.00000000000E+00 0. -1.
</event>
<event>
 8    1  0.6648599E-009  0.1290443E+03  0.7561462E-02  0.1228881E+00
          2   -1    0    0  501    0  0.00000000000E+00  0.00000000000E+00  0.85691127509E+03  0.85691127509E+03  0.00000000000E+00 0. -1.
         -2   -1    0    0    0  501 -0.00000000000E+00 -0.00000000000E+00 -0.26091164074E+02  0.26091164074E+02  0.00000000000E+00 0.  1.
         25    2    1    2    0    0  0.70764340260E+01  0.88176802889E+02  0.59126690982E+03  0.61079465059E+03  0.12509325340E+03 0.  0.
         23    2    1    2    0    0 -0.70764340260E+01 -0.88176802889E+02  0.23955320119E+03  0.27220778858E+03  0.94266215974E+02 0.  0.
          5    1    3    3  502    0  0.50399464495E+02 -0.42108693483E+01  0.17764715235E+03  0.18475340478E+03  0.41800000000E+01 0.  1.
         -5    1    3    3    0  502 -0.43323030469E+02  0.92387672237E+02  0.41361975748E+03  0.42604124580E+03  0.41800000000E+01 0.  1.
        -11    1    4    4    0    0 -0.22861650024E+02 -0.91470219342E+01  0.62887783074E+01  0.25414007647E+02  0.00000000000E+00 0.  1.
         11    1    4    4    0    0  0.15785215998E+02 -0.79029780954E+02  0.23326442289E+03  0.24679378093E+03  0.00000000000E+00 0. -1.
</event>
<event>
 8    1  0.6648599E-009  0.1028785E+03  0.7561462E-02  0.1274357E+00
          2   -1    0    0  501    0  0.00000000000E+00  0.00000000000E+00  0.30390124685E+03  0.30390124685E+03  0.00000000000E+00 0. -1.
         -2   -1    0    0    0  501 -0.00000000000E+00 -0.00000000000E+00 -0.78907098074E+02  0.78907098074E+02  0.00000000000E+00 0.  1.
         25    2    1    2    0    0  0.51794262010E+01  0.73297604699E+02  0.19794512134E+02  0.14642324513E+03  0.12509427922E+03 0.  0.
         23    2    1    2    0    0 -0.51794262010E+01 -0.73297604699E+02  0.20519963664E+03  0.23638509979E+03  0.91496771615E+02 0.  0.
          5    1    3    3  502    0  0.19724368140E+02  0.70127578021E+02  0.65573572987E+02  0.98103485014E+02  0.41800000000E+01 0. -1.
         -5    1    3    3    0  502 -0.14544941939E+02  0.31700266776E+01 -0.45779060853E+02  0.48319760117E+02  0.41800000000E+01 0. -1.
        -11    1    4    4    0    0 -0.42022334923E+02 -0.86290170038E+01  0.72759701344E+02  0.84464848940E+02  0.00000000000E+00 0. -1.
         11    1    4    4    0    0  0.36842908722E+02 -0.64668587695E+02  0.13243993530E+03  0.15192025085E+03  0.00000000000E+00 0.  1.
</event>
<event>
 8    1  0.6648599E-009  0.1262105E+03  0.7561462E-02  0.1233190E+00
         -3   -1    0    0    0  501 -0.00000000000E+00  0.00000000000E+00  0.98507005395E+02  0.98507005395E+02  0.00000000000E+00 0.  1.
          3   -1    0    0  501    0  0.00000000000E+00 -0.00000000000E+00 -0.17485667074E+03  0.17485667074E+03  0.00000000000E+00 0. -1.
         25    2    1    2    0    0  0.18863047289E+02 -0.70216570907E+02 -0.34397285651E+02  0.14871907193E+03  0.12509199700E+03 0.  0.
         23    2    1    2    0    0 -0.18863047289E+02  0.70216570907E+02 -0.41952379689E+02  0.12464460420E+03  0.92141705058E+02 0.  0.
          5    1    3    3  502    0  0.46183373661E+02  0.12829877843E+02  0.12096785498E+02  0.49611635606E+02  0.41800000000E+01 0. -1.
         -5    1    3    3    0  502 -0.27320326372E+02 -0.83046448750E+02 -0.46494071149E+02  0.99107436326E+02  0.41800000000E+01 0. -1.
        -11    1    4    4    0    0 -0.50396593076E+02  0.68712181713E+02 -0.36067768086E+02  0.92531423874E+02  0.00000000000E+00 0.  1.
         11    1    4    4    0    0  0.31533545788E+02  0.15043891941E+01 -0.58846116029E+01  0.32113180324E+02  0.00000000000E+00 0. -1.
</event>
<event>
 8    1  0.6648599E-009  0.3165015E+03  0.7561462E-02  0.1077271E+00
          2   -1    0    0  501    0  0.00000000000E+00  0.00000000000E+00  0.19025090669E+04  0.19025090669E+04  0.00000000000E+00 0. -1.
         -2   -1    0    0    0  501 -0.00000000000E+00 -0.00000000000E+00 -0.92800477471E+02  0.92800477471E+02  0.00000000000E+00 0.  1.
         25    2    1    2    0    0  0.30521024105E+03 -0.43203253771E+02  0.28796764389E+03  0.43999391279E+03  0.12509782967E+03 0.  0.
         23    2    1    2    0    0 -0.30521024105E+03  0.43203253771E+02  0.15217409455E+04  0.15553156316E+04  0.91057103728E+02 0.  0.
          5    1    3    3  502    0  0.28637151327E+03 -0.27767893738E+02  0.29714587780E+03  0.41363370828E+03  0.41800000000E+01 0. -1.
         -5    1    3    3    0  502  0.18838727775E+02 -0.15435360033E+02 -0.91782339144E+01  0.26360204501E+02  0.41800000000E+01 0. -1.
        -11    1    4    4    0    0 -0.96068238896E+02  0.55672269825E+02  0.58291734727E+03  0.59339796250E+03  0.00000000000E+00 0. -1.
         11    1    4    4    0    0 -0.20914200215E+03 -0.12469016054E+02  0.93882359828E+03  0.96191766910E+03  0.00000000000E+00 0.  1.
</event>
<event>
 7    1  0.6648599E-009  0.7878545E+02  0.7561462E-02  0.1332534E+00
         -2   -1    0    0    0  501 -0.00000000000E+00  0.00000000000E+00  0.24597941875E+02  0.24597941875E+02  0.00000000000E+00 0.  1.
          2   -1    0    0  501    0  0.00000000000E+00 -0.00000000000E+00 -0.39872392203E+03  0.39872392203E+03  0.00000000000E+00 0. -1.
         25    2    1    2    0    0 -0.25985036672E+02 -0.23914490102E+02 -0.35246265554E+03  0.37566583013E+03  0.12509103649E+03 0.  0.
          5    1    3    3  502    0 -0.64487107633E+02  0.15671943329E+02 -0.12531338913E+03  0.14186301404E+03  0.41800000000E+01 0. -1.
         -5    1    3    3    0  502  0.38502070961E+02 -0.39586433431E+02 -0.22714926641E+03  0.23380281609E+03  0.41800000000E+01 0. -1.
        -11    1    1    2    0    0  0.12206126463E+02  0.77671110858E+01  0.33489893434E+01  0.14850362536E+02  0.00000000000E+00 0.  1.
         11    1    1    2    0    0  0.13778910210E+02  0.16147379017E+02 -0.25012313956E+02  0.32805671234E+02  0.00000000000E+00 0. -1.
</event>
<event>
 8    1  0.6648599E-009  0.1636624E+03  0.7561462E-02  0.1184623E+00
         -2   -1    0    0    0  501 -0.00000000000E+00  0.00000000000E+00  0.85176005121E+02  0.85176005121E+02  0.00000000000E+00 0.  1.
          2   -1    0    0  501    0  0.00000000000E+00 -0.00000000000E+00 -0.39085886326E+03  0.39085886326E+03  0.00000000000E+00 0. -1.
         25    2    1    2    0    0 -0.11513223340E+03  0.86677510798E+02 -0.12762667329E+03  0.22957531754E+03  0.12509131322E+03 0.  0.
         23    2    1    2    0    0  0.11513223340E+03 -0.86677510798E+02 -0.17805618485E+03  0.24645955084E+03  0.90938898106E+02 0.  0.
          5    1    3    3  502    0 -0.12359608512E+03  0.43847200729E+02 -0.49996435565E+02  0.14041255370E+03  0.41800000000E+01 0. -1.
         -5    1    3    3    0  502  0.84638517142E+01  0.42830310070E+02 -0.77630237724E+02  0.89162763840E+02  0.41800000000E+01 0. -1.
        -11    1    4    4    0    0  0.59559174012E+02 -0.74471817373E+02 -0.53070057725E+02  0.10913192850E+03  0.00000000000E+00 0.  1.
         11    1    4    4    0    0  0.55573059393E+02 -0.12205693426E+02 -0.12498612713E+03  0.13732762234E+03  0.00000000000E+00 0. -1.
</event>
<event>
 8    1  0.6648599E-009  0.2529879E+03  0.7561462E-02  0.1111431E+00
         -2   -1    0    0    0  501 -0.00000000000E+00  0.00000000000E+00  0.10287000125E+03  0.10287000125E+03  0.00000000000E+00 0.  1.
          2   -1    0    0  501    0  0.00000000000E+00 -0.00000000000E+00 -0.63292112918E+03  0.63292112918E+03  0.00000000000E+00 0. -1.
         25    2    1    2    0    0  0.12720632792E+03  0.19192395627E+03 -0.29054110195E+03  0.39125388045E+03  0.12509681129E+03 0.  0.
         23    2    1    2    0    0 -0.12720632792E+03 -0.19192395627E+03 -0.23951002598E+03  0.34453724998E+03  0.91239296504E+02 0.  0.
          5    1    3    3  502    0 -0.14196241186E+02  0.76331539389E+02 -0.67655421820E+02  0.10306680198E+03  0.41800000000E+01 0. -1.
         -5    1    3    3    0  502  0.14140256911E+03  0.11559241688E+03 -0.22288568013E+03  0.28818707847E+03  0.41800000000E+01 0. -1.
        -11    1    4    4    0    0 -0.13423808370E+02 -0.95368723711E+02 -0.11642498687E+03  0.15109655741E+03  0.00000000000E+00 0.  1.
         11    1    4    4    0    0 -0.11378251955E+03 -0.96555232556E+02 -0.12308503910E+03  0.19344069257E+03  0.00000000000E+00 0. -1.
</event>
<event>
 7    1  0.6648599E-009  0.8296012E+02  0.7561462E-02  0.1320855E+00
         -1   -1    0    0    0  501 -0.00000000000E+00  0.00000000000E+00  0.23546399099E+02  0.23546399099E+02  0.00000000000E+00 0.  1.
          1   -1    0    0  501    0  0.00000000000E+00 -0.00000000000E+00 -0.78542270738E+03  0.78542270738E+03  0.00000000000E+00 0. -1.
         23    2    1    2    0    0  0.71624316084E+02  0.28061534483E+02 -0.24934027484E+03  0.27577150209E+03  0.89229234759E+02 0.  0.
          5    1    1    2  502    0 -0.44441108680E+02  0.39760471679E-01 -0.42873607836E+02  0.61892102651E+02  0.41800000000E+01 0.  1.
         -5    1    1    2    0  502 -0.27183207404E+02 -0.28101294955E+02 -0.46966242560E+03  0.47130550174E+03  0.41800000000E+01 0.  1.
        -11    1    3    3    0    0  0.17258863728E+02  0.20935338436E+02 -0.80086264868E+01  0.28289483396E+02  0.00000000000E+00 0.  1.
         11    1    3    3    0    0  0.54365452357E+02  0.71261960470E+01 -0.24133164835E+03  0.24748201869E+03  0.00000000000E+00 0. -1.
</event>
<event>
 8    1  0.6648599E-009  0.1142591E+03  0.7561462E-02  0.1252880E+00
         -1   -1    0    0    0  501 -0.00000000000E+00  0.00000000000E+00  0.39222663188E+02  0.39222663188E+02  0.00000000000E+00 0.  1.
          1   -1    0    0  501    0  0.00000000000E+00 -0.00000000000E+00 -0.48446445722E+03  0.48446445722E+03  0.00000000000E+00 0. -1.
         25    2    1    2    0    0 -0.70742145706E+02 -0.36441673879E+02 -0.30842591863E+03  0.34220714947E+03  0.12508692615E+03 0.  0.
         23    2    1    2    0    0  0.70742145706E+02  0.36441673879E+02 -0.13681587541E+03  0.18147997094E+03  0.88791606105E+02 0.  0.
          5    1    3    3  502    0 -0.38665913114E+02  0.21153844656E+02 -0.25039886451E+03  0.25428252344E+03  0.41800000000E+01 0. -1.
         -5    1    3    3    0  502 -0.32076232592E+02 -0.57595518535E+02 -0.58027054117E+02  0.87924626028E+02  0.41800000000E+01 0. -1.
        -11    1    4    4    0    0  0.84394531064E+02  0.57414087338E+01 -0.86576729731E+02  0.12104102932E+03  0.00000000000E+00 0.  1.
         11    1    4    4    0    0 -0.13652385358E+02  0.30700265145E+02 -0.50239145675E+02  0.60438941620E+02  0.00000000000E+00 0. -1.
</event>
<event>
 8    1  0.6648599E-009  0.1042106E+03  0.7561462E-02  0.1271683E+00
          1   -1    0    0  501    0  0.00000000000E+00  0.00000000000E+00  0.51547068770E+02  0.51547068770E+02  0.00000000000E+00 0. -1.
         -1   -1    0    0    0  501 -0.00000000000E+00 -0.00000000000E+00 -0.40006725062E+03  0.40006725062E+03  0.00000000000E+00 0.  1.
         25    2    1    2    0    0 -0.77264544040E+02  0.32151750497E+01 -0.28065591099E+03  0.31685228406E+03  0.12508989737E+03 0.  0.
         23    2    1    2    0    0  0.77264544040E+02 -0.32151750497E+01 -0.67864270862E+02  0.13476203533E+03  0.87035049210E+02 0.  0.
          5    1    3    3  502    0 -0.97401084072E+02  0.75511499631E+01 -0.27914981415E+03  0.29578046282E+03  0.41800000000E+01 0. -1.
         -5    1    3    3    0  502  0.20136540032E+02 -0.43359749135E+01 -0.15060968439E+01  0.21071821245E+02  0.41800000000E+01 0. -1.
        -11    1    4    4    0    0  0.77471488486E+02  0.84704112510E+01 -0.84164346756E+02  0.11470491123E+03  0.00000000000E+00 0.  1.
         11    1    4    4    0    0 -0.20694444558E+00 -0.11685586301E+02  0.16300075894E+02  0.20057124105E+02  0.00000000000E+00 0. -1.
</event>
<event>
 8    1  0.6648599E-009  0.9932446E+02  0.7561462E-02  0.1281723E+00
         -2   -1    0    0    0  501 -0.00000000000E+00  0.00000000000E+00  0.19062351867E+02  0.19062351867E+02  0.00000000000E+00 0.  1.
          2   -1    0    0  501    0  0.00000000000E+00 -0.00000000000E+00 -0.72619416768E+03  0.72619416768E+03  0.00000000000E+00 0. -1.
         25    2    1    2    0    0 -0.40178570334E+02 -0.23819781948E+02 -0.32850861957E+03  0.35460059659E+03  0.12506786337E+03 0.  0.
         23    2    1    2    0    0  0.40178570334E+02  0.23819781948E+02 -0.37862319625E+03  0.39065592296E+03  0.84111984147E+02 0.  0.
          5    1    3    3  502    0  0.15365158291E+02 -0.42860733441E+02 -0.26124660455E+03  0.26521763017E+03  0.41800000000E+01 0.  1.
         -5    1    3    3    0  502 -0.55543728626E+02  0.19040951493E+02 -0.67262015012E+02  0.89382966425E+02  0.41800000000E+01 0.  1.
        -11    1    4    4    0    0 -0.13678726337E+02  0.36286465036E+02 -0.11710803834E+03  0.12336169480E+03  0.00000000000E+00 0.  1.
         11    1    4    4    0    0  0.53857296672E+02 -0.12466683088E+02 -0.26151515791E+03  0.26729422816E+03  0.00000000000E+00 0. -1.
</event>
<event>
 8    1  0.6648599E-009  0.8920759E+02  0.7561462E-02  0.1304782E+00
         -2   -1    0    0    0  501 -0.00000000000E+00  0.00000000000E+00  0.13630199235E+03  0.13630199235E+03  0.00000000000E+00 0.  1.
          2   -1    0    0  501    0  0.00000000000E+00 -0.00000000000E+00 -0.12162230398E+03  0.12162230398E+03  0.00000000000E+00 0. -1.
         25    2    1    2    0    0  0.50522196507E+02 -0.50628771084E+02 -0.96935353584E+01  0.14441740903E+03  0.12508660440E+03 0.  0.
         23    2    1    2    0    0 -0.50522196507E+02  0.50628771084E+02  0.24373223734E+02  0.11350688730E+03  0.84699437000E+02 0.  0.
          5    1    3    3  502    0  0.41954513591E+02 -0.47843205075E+02  0.51781119452E+02  0.82145664610E+02  0.41800000000E+01 0. -1.
         -5    1    3    3    0  502  0.85676829160E+01 -0.27855660093E+01 -0.61474654810E+02  0.62271744416E+02  0.41800000000E+01 0. -1.
        -11    1    4    4    0    0 -0.36997350045E+02 -0.13341285152E+02  0.27593156561E+02  0.48043481232E+02  0.00000000000E+00 0. -1.
         11    1    4    4    0    0 -0.13524846462E+02  0.63970056237E+02 -0.32199328273E+01  0.65463406069E+02  0.00000000000E+00 0.  1.
</event>
<event>
 8    1  0.6648599E-009  0.1193563E+03  0.7561462E-02  0.1244163E+00
          2   -1    0    0  501    0  0.00000000000E+00  0.00000000000E+00  0.63439263801E+03  0.63439263801E+03  0.00000000000E+00 0.  1.
         -2   -1    0    0    0  501 -0.00000000000E+00 -0.00000000000E+00 -0.34662883985E+02  0.34662883985E+02  0.00000000000E+00 0. -1.
         25    2    1    2    0    0  0.42093885916E+02 -0.71151008814E+02  0.19328664013E+03  0.24463161514E+03  0.12510212063E+03 0.  0.
         23    2    1    2    0    0 -0.42093885916E+02  0.71151008814E+02  0.40644311389E+03  0.42442390686E+03  0.90029365161E+02 0.  0.
          5    1    3    3  502    0  0.66998024210E+02 -0.51657318734E+02  0.51129400039E+02  0.98938878987E+02  0.41800000000E+01 0.  1.
         -5    1    3    3    0  502 -0.24904138295E+02 -0.19493690080E+02  0.14215724010E+03  0.14569273616E+03  0.41800000000E+01 0.  1.
        -11    1    4    4    0    0 -0.89690801339E+01  0.85528358262E+02  0.27749821468E+03  0.29051816400E+03  0.00000000000E+00 0.  1.
         11    1    4    4    0    0 -0.33124805782E+02 -0.14377349448E+02  0.12894489921E+03  0.13390574285E+03  0.00000000000E+00 0. -1.
</event>
<event>
 8    1  0.6648599E-009  0.1542809E+03  0.7561462E-02  0.1195309E+00
          2   -1    0    0  501    0  0.00000000000E+00  0.00000000000E+00  0.78551976095E+03  0.78551976095E+03  0.00000000000E+00 0. -1.
         -2   -1    0    0    0  501 -0.00000000000E+00 -0.00000000000E+00 -0.42537590227E+02  0.42537590227E+02  0.00000000000E+00 0.  1.
         25    2    1    2    0    0  0.10803692642E+03 -0.47725588159E+02  0.58715746184E+03  0.61184168848E+03  0.12508660010E+03 0.  0.
         23    2    1    2    0    0 -0.10803692642E+03  0.47725588159E+02  0.15582470888E+03  0.21621566270E+03  0.92293898300E+02 0.  0.
          5    1    3    3  502    0  0.13610944562E+03 -0.45202361611E+02  0.49583999253E+03  0.51618194977E+03  0.41800000000E+01 0.  1.
         -5    1    3    3    0  502 -0.28072519199E+02 -0.25232265478E+01  0.91317469319E+02  0.95659738705E+02  0.41800000000E+01 0.  1.
        -11    1    4    4    0    0 -0.92533048186E+01 -0.16389529323E+02 -0.24010679347E+01  0.18973809547E+02  0.00000000000E+00 0.  1.
         11    1    4    4    0    0 -0.98783621605E+02  0.64115117482E+02  0.15822577681E+03  0.19724185315E+03  0.00000000000E+00 0. -1.
</event>
<event>
 8    1  0.6648599E-009  0.1206956E+03  0.7561462E-02  0.1241954E+00
          1   -1    0    0  501    0  0.00000000000E+00  0.00000000000E+00  0.74958187319E+03  0.74958187319E+03  0.00000000000E+00 0. -1.
         -1   -1    0    0    0  501 -0.00000000000E+00 -0.00000000000E+00 -0.22580362178E+02  0.22580362178E+02  0.00000000000E+00 0.  1.
         25    2    1    2    0    0  0.30744317090E+02 -0.64650922983E+02  0.37422012391E+03  0.40101605317E+03  0.12509284106E+03 0.  0.
         23    2    1    2    0    0 -0.30744317090E+02  0.64650922983E+02  0.35278138711E+03  0.37114618220E+03  0.90387093099E+02 0.  0.
          5    1    3    3  502    0  0.58250899483E+02 -0.86567361150E+02  0.23142007799E+03  0.25388934638E+03  0.41800000000E+01 0.  1.
         -5    1    3    3    0  502 -0.27506582393E+02  0.21916438166E+02  0.14280004591E+03  0.14712670678E+03  0.41800000000E+01 0.  1.
        -11    1    4    4    0    0 -0.44040163014E+02  0.98107358874E+01  0.73680011634E+02  0.86397515076E+02  0.00000000000E+00 0.  1.
         11    1    4    4    0    0  0.13295845924E+02  0.54840187096E+02  0.27910137547E+03  0.28474866713E+03  0.00000000000E+00 0. -1.
</event>
<event>
 8    1  0.6648599E-009  0.8133400E+02  0.7561462E-02  0.1325308E+00
          1   -1    0    0  501    0  0.00000000000E+00  0.00000000000E+00  0.34220538408E+03  0.34220538408E+03  0.00000000000E+00 0. -1.
         -1   -1    0    0    0  501 -0.00000000000E+00 -0.00000000000E+00 -0.39458094173E+02  0.39458094173E+02  0.00000000000E+00 0.  1.
         25    2    1    2    0    0  0.11670352886E+02 -0.15756208729E+02  0.23242427929E+03  0.26467567655E+03  0.12509081861E+03 0.  0.
         23    2    1    2    0    0 -0.11670352886E+02  0.15756208729E+02  0.70323010611E+02  0.11698780170E+03  0.91413153733E+02 0.  0.
          5    1    3    3  502    0  0.13710974421E+02 -0.68855830613E+02  0.15977155507E+03  0.17456671630E+03  0.41800000000E+01 0. -1.
         -5    1    3    3    0  502 -0.20406215346E+01  0.53099621885E+02  0.72652724217E+02  0.90108960246E+02  0.41800000000E+01 0. -1.
        -11    1    4    4    0    0  0.96839661298E+01  0.14762869047E+02 -0.18532806849E+02  0.25596609780E+02  0.00000000000E+00 0.  1.
         11    1    4    4    0    0 -0.21354319016E+02  0.99333968108E+00  0.88855817460E+02  0.91391191921E+02  0.00000000000E+00 0. -1.
</event>
<event>
 8    1  0.6648599E-009  0.2039391E+03  0.7561462E-02  0.1146457E+00
         -1   -1    0    0    0  501 -0.00000000000E+00  0.00000000000E+00  0.17494728448E+04  0.17494728448E+04  0.00000000000E+00 0.  1.
          1   -1    0    0  501    0  0.00000000000E+00 -0.00000000000E+00 -0.38554667368E+02  0.38554667368E+02  0.00000000000E+00 0. -1.
         25    2    1    2    0    0 -0.16941913964E+03 -0.89602614170E+02  0.13343811891E+04  0.13538656028E+04  0.12508972414E+03 0.  0.
         23    2    1    2    0    0  0.16941913964E+03  0.89602614170E+02  0.37653698831E+03  0.43416190942E+03  0.99924905204E+02 0.  0.
          5    1    3    3  502    0 -0.14408852225E+03 -0.49506540224E+02  0.64177507033E+03  0.65962497911E+03  0.41800000000E+01 0. -1.
         -5    1    3    3    0  502 -0.25330617390E+02 -0.40096073946E+02  0.69260611880E+03  0.69424062365E+03  0.41800000000E+01 0. -1.
        -11    1    4    4    0    0  0.15390992023E+03  0.10475043763E+03  0.28744199294E+03  0.34246724958E+03  0.00000000000E+00 0.  1.
         11    1    4    4    0    0  0.15509219410E+02 -0.15147823463E+02  0.89094995373E+02  0.91694659839E+02  0.00000000000E+00 0. -1.
</event>
<event>
 8    1  0.6648599E-009  0.1121490E+03  0.7561462E-02  0.1256641E+00
          1   -1    0    0  501    0  0.00000000000E+00  0.00000000000E+00  0.32123895810E+03  0.32123895810E+03  0.00000000000E+00 0. -1.
         -1   -1    0    0    0  501 -0.00000000000E+00 -0.00000000000E+00 -0.49483501622E+02  0.49483501622E+02  0.00000000000E+00 0.  1.
         25    2    1    2    0    0  0.68927492637E+02 -0.31042982132E+02  0.15305110795E+03  0.21162907640E+03  0.12509020086E+03 0.  0.
         23    2    1    2    0    0 -0.68927492637E+02  0.31042982132E+02  0.11870434853E+03  0.15909338333E+03  0.74197818552E+02 0.  0.
          5    1    3    3  502    0  0.23300500084E+02 -0.77357198059E+02  0.80653668951E+02  0.11423456618E+03  0.41800000000E+01 0.  1.
         -5    1    3    3    0  502  0.45626992553E+02  0.46314215927E+02  0.72397439000E+02  0.97394510216E+02  0.41800000000E+01 0.  1.
        -11    1    4    4    0    0 -0.32799642544E+02  0.38324715046E+01  0.10755554083E+03  0.11251088281E+03  0.00000000000E+00 0. -1.
         11    1    4    4    0    0 -0.36127850093E+02  0.27210510628E+02  0.11148807703E+02  0.46582500514E+02  0.00000000000E+00 0.  1.
</event>
<event>
 8    1  0.6648599E-009  0.1220235E+03  0.7561462E-02  0.1239796E+00
          3   -1    0    0  501    0  0.00000000000E+00  0.00000000000E+00  0.40500669390E+03  0.40500669390E+03  0.00000000000E+00 0. -1.
         -3   -1    0    0    0  501 -0.00000000000E+00 -0.00000000000E+00 -0.45856015568E+02  0.45856015568E+02  0.00000000000E+00 0.  1.
         25    2    1    2    0    0  0.65202782568E+02  0.54060956343E+01  0.11525312685E+03  0.18223519457E+03  0.12508298912E+03 0.  0.
         23    2    1    2    0    0 -0.65202782568E+02 -0.54060956343E+01  0.24389755148E+03  0.26862751490E+03  0.91619307003E+02 0.  0.
          5    1    3    3  502    0  0.95757902066E+02 -0.17048578368E+02  0.10401276042E+03  0.14246528195E+03  0.41800000000E+01 0.  1.
         -5    1    3    3    0  502 -0.30555119498E+02  0.22454674002E+02  0.11240366431E+02  0.39769912617E+02  0.41800000000E+01 0.  1.
        -11    1    4    4    0    0  0.17517539141E+02  0.15315728059E+02  0.86942304699E+02  0.90002222472E+02  0.00000000000E+00 0. -1.
         11    1    4    4    0    0 -0.82720321709E+02 -0.20721823693E+02  0.15695524678E+03  0.17862529242E+03  0.00000000000E+00 0.  1.
</event>
<event>
 8    1  0.6648599E-009  0.1052562E+03  0.7561462E-02  0.1269616E+00
          1   -1    0    0  501    0  0.00000000000E+00  0.00000000000E+00  0.14331910395E+03  0.14331910395E+03  0.00000000000E+00 0. -1.
         -1   -1    0    0    0  501 -0.00000000000E+00 -0.00000000000E+00 -0.15113773582E+03  0.15113773582E+03  0.00000000000E+00 0.  1.
         25    2    1    2    0    0  0.50912964553E+02 -0.53345563856E+02 -0.68320312919E+02  0.16043365236E+03  0.12503364551E+03 0.  0.
         23    2    1    2    0    0 -0.50912964553E+02  0.53345563856E+02  0.60501681047E+02  0.13402318741E+03  0.94148192827E+02 0.  0.
          5    1    3    3  502    0 -0.23664241016E+02  0.12637700035E+02 -0.53065878671E+02  0.59608452791E+02  0.41800000000E+01 0.  1.
         -5    1    3    3    0  502  0.74577205569E+02 -0.65983263891E+02 -0.15254434248E+02  0.10082519957E+03  0.41800000000E+01 0.  1.
        -11    1    4    4    0    0 -0.56489665210E+02  0.39955706366E+02 -0.26345911855E+01  0.69242196798E+02  0.00000000000E+00 0.  1.
         11    1    4    4    0    0  0.55767006572E+01  0.13389857490E+02  0.63136272232E+02  0.64780990616E+02  0.00000000000E+00 0. -1.
</event>
<event>
 8    1  0.6648599E-009  0.1606559E+03  0.7561462E-02  0.1187958E+00
          2   -1    0    0  501    0  0.00000000000E+00  0.00000000000E+00  0.55807688222E+03  0.55807688222E+03  0.00000000000E+00 0.  1.
         -2   -1    0    0    0  501 -0.00000000000E+00 -0.00000000000E+00 -0.85980293281E+02  0.85980293281E+02  0.00000000000E+00 0. -1.
         25    2    1    2    0    0 -0.14283764498E+03 -0.52569103363E+01  0.61052608158E+02  0.19951384312E+03  0.12509246463E+03 0.  0.
         23    2    1    2    0    0  0.14283764498E+03  0.52569103363E+01  0.41104398078E+03  0.44454333238E+03  0.90727020762E+02 0.  0.
          5    1    3    3  502    0 -0.15888997860E+03  0.15060948718E+01  0.75996827843E+02  0.17618536790E+03  0.41800000000E+01 0. -1.
         -5    1    3    3    0  502  0.16052333622E+02 -0.67630052081E+01 -0.14944219684E+02  0.23328475221E+02  0.41800000000E+01 0. -1.
        -11    1    4    4    0    0  0.82740392472E+02 -0.72641014141E+01  0.11299241344E+03  0.14023560607E+03  0.00000000000E+00 0. -1.
         11    1    4    4    0    0  0.60097252504E+02  0.12521011750E+02  0.29805156734E+03  0.30430772631E+03  0.00000000000E+00 0.  1.
</event>
<event>
 8    1  0.6648599E-009  0.2703799E+03  0.7561462E-02  0.1101062E+00
          1   -1    0    0  501    0  0.00000000000E+00  0.00000000000E+00  0.78846183854E+03  0.78846183854E+03  0.00000000000E+00 0. -1.
         -1   -1    0    0    0  501 -0.00000000000E+00 -0.00000000000E+00 -0.13738872844E+03  0.13738872844E+03  0.00000000000E+00 0.  1.
         25    2    1    2    0    0  0.25552676855E+03 -0.68147020221E+02  0.10358736583E+03  0.31035415268E+03  0.12510560306E+03 0.  0.
         23    2    1    2    0    0 -0.25552676855E+03  0.68147020221E+02  0.54748574427E+03  0.61549641430E+03  0.95693521336E+02 0.  0.
          5    1    3    3  502    0  0.21645583107E+03 -0.45291104408E+02  0.13119924737E+03  0.25716750543E+03  0.41800000000E+01 0. -1.
         -5    1    3    3    0  502  0.39070937486E+02 -0.22855915813E+02 -0.27611881538E+02  0.53186647251E+02  0.41800000000E+01 0. -1.
        -11    1    4    4    0    0 -0.10306865382E+03 -0.86127533139E+01  0.27673919231E+03  0.29543511552E+03  0.00000000000E+00 0. -1.
         11    1    4    4    0    0 -0.15245811473E+03  0.76759773535E+02  0.27074655196E+03  0.32006129878E+03  0.00000000000E+00 0.  1.
</event>
<event>
 8    1  0.6648599E-009  0.1431703E+03  0.7561462E-02  0.1209126E+00
          2   -1    0    0  501    0  0.00000000000E+00  0.00000000000E+00  0.91845209765E+02  0.91845209765E+02  0.00000000000E+00 0. -1.
         -2   -1    0    0    0  501 -0.00000000000E+00 -0.00000000000E+00 -0.32076339715E+03  0.32076339715E+03  0.00000000000E+00 0.  1.
         25    2    1    2    0    0 -0.10961735101E+03 -0.41023760805E+02 -0.49652440479E+02  0.17835734007E+03  0.12508822214E+03 0.  0.
         23    2    1    2    0    0  0.10961735101E+03  0.41023760805E+02 -0.17926574690E+03  0.23425126684E+03  0.95071212311E+02 0.  0.
          5    1    3    3  502    0  0.25479334030E+01  0.15932993362E+02 -0.49773145924E+02  0.52489910433E+02  0.41800000000E+01 0.  1.
         -5    1    3    3    0  502 -0.11216528442E+03 -0.56956754166E+02  0.12070544552E+00  0.12586742964E+03  0.41800000000E+01 0.  1.
        -11    1    4    4    0    0  0.14163184753E+02  0.46089525121E+02 -0.96227787211E+02  0.10763190586E+03  0.00000000000E+00 0.  1.
         11    1    4    4    0    0  0.95454166262E+02 -0.50657643168E+01 -0.83037959694E+02  0.12661936098E+03  0.00000000000E+00 0. -1.
</event>
<event>
 8    1  0.6648599E-009  0.8970815E+02  0.7561462E-02  0.1303560E+00
          1   -1    0    0  501    0  0.00000000000E+00  0.00000000000E+00  0.49794653399E+03  0.49794653399E+03  0.00000000000E+00 0. -1.
         -1   -1    0    0    0  501 -0.00000000000E+00 -0.00000000000E+00 -0.50186933378E+02  0.50186933378E+02  0.00000000000E+00 0.  1.
         25    2    1    2    0    0 -0.57013602634E+01  0.30070525294E+01  0.43552454498E+03  0.45317868798E+03  0.12509095125E+03 0.  0.
         23    2    1    2    0    0  0.57013602634E+01 -0.30070525294E+01  0.12235055630E+02  0.94954779387E+02  0.93942352900E+02 0.  0.
          5    1    3    3  502    0 -0.24184424654E+01 -0.43273428820E+02  0.56646245351E+02  0.71447239401E+02  0.41800000000E+01 0. -1.
         -5    1    3    3    0  502 -0.32829177980E+01  0.46280481349E+02  0.37887829963E+03  0.38173144858E+03  0.41800000000E+01 0. -1.
        -11    1    4    4    0    0 -0.39944735724E+02  0.11197234412E+02  0.20770477132E+02  0.46393670806E+02  0.00000000000E+00 0. -1.
         11    1    4    4    0    0  0.45646095987E+02 -0.14204286941E+02 -0.85354215023E+01  0.48561108581E+02  0.00000000000E+00 0.  1.
</event>
<event>
 8    1  0.6648599E-009  0.9273716E+02  0.7561462E-02  0.1296355E+00
         -4   -1    0    0    0  501 -0.00000000000E+00  0.00000000000E+00  0.74225841853E+03  0.74225841853E+03  0.00000000000E+00 0.  1.
          4   -1    0    0  501    0  0.00000000000E+00 -0.00000000000E+00 -0.33610747017E+02  0.33610747017E+02  0.00000000000E+00 0. -1.
         25    2    1    2    0    0 -0.19747809149E+02  0.59138356520E+02  0.61717898733E+03  0.63280658199E+03  0.12508775574E+03 0.  0.
         23    2    1    2    0    0  0.19747809149E+02 -0.59138356520E+02  0.91468684190E+02  0.14306258356E+03  0.90625942474E+02 0.  0.
          5    1    3    3  502    0 -0.54463939687E+02  0.55540647882E+02  0.20781386099E+03  0.22193502994E+03  0.41800000000E+01 0. -1.
         -5    1    3    3    0  502  0.34716130538E+02  0.35977086385E+01  0.40936512634E+03  0.41087155206E+03  0.41800000000E+01 0. -1.
        -11    1    4    4    0    0  0.30765525560E+02 -0.42520877966E+02  0.10607355705E+03  0.11834754806E+03  0.00000000000E+00 0.  1.
         11    1    4    4    0    0 -0.11017716412E+02 -0.16617478555E+02 -0.14604872862E+02  0.24715035500E+02  0.00000000000E+00 0. -1.
</event>
<event>
 8    1  0.6648599E-009  0.1249400E+03  0.7561462E-02  0.1235163E+00
          2   -1    0    0  501    0  0.00000000000E+00  0.00000000000E+00  0.53116160872E+03  0.53116160872E+03  0.00000000000E+00 0. -1.
         -2   -1    0    0    0  501 -0.00000000000E+00 -0.00000000000E+00 -0.30413152897E+02  0.30413152897E+02  0.00000000000E+00 0.  1.
         25    2    1    2    0    0 -0.24630780113E+02  0.71621891733E+02  0.34034768427E+03  0.37043296163E+03  0.12509061584E+03 0.  0.
         23    2    1    2    0    0  0.24630780113E+02 -0.71621891733E+02  0.16040077155E+03  0.19114179998E+03  0.71206807840E+02 0.  0.
          5    1    3    3  502    0  0.51090390283E+02  0.23289829248E+02  0.13146464932E+03  0.14301423197E+03  0.41800000000E+01 0.  1.
         -5    1    3    3    0  502 -0.75721170396E+02  0.48332062484E+02  0.20888303496E+03  0.22741872967E+03  0.41800000000E+01 0.  1.
        -11    1    4    4    0    0  0.49090608523E+02 -0.56686538657E+02  0.12241937500E+03  0.14356097967E+03  0.00000000000E+00 0.  1.
         11    1    4    4    0    0 -0.24459828410E+02 -0.14935353076E+02  0.37981396554E+02  0.47580820312E+02  0.00000000000E+00 0. -1.
</event>
<event>
 8    1  0.6648599E-009  0.1485798E+03  0.7561462E-02  0.1202229E+00
         -2   -1    0    0    0  501 -0.00000000000E+00  0.00000000000E+00  0.15979848273E+03  0.15979848273E+03  0.00000000000E+00 0.  1.
          2   -1    0    0  501    0  0.00000000000E+00 -0.00000000000E+00 -0.18237229578E+03  0.18237229578E+03  0.00000000000E+00 0. -1.
         25    2    1    2    0    0 -0.36556981357E+02 -0.10550455642E+03 -0.80587730136E+02  0.18603555412E+03  0.12508885177E+03 0.  0.
         23    2    1    2    0    0  0.36556981357E+02  0.10550455642E+03  0.58013917088E+02  0.15613522439E+03  0.92439003723E+02 0.  0.
          5    1    3    3  502    0 -0.61027977555E+02 -0.48054139980E+01 -0.46065342206E+02  0.76726750229E+02  0.41800000000E+01 0. -1.
         -5    1    3    3    0  502  0.24470996198E+02 -0.10069914242E+03 -0.34522387931E+02  0.10930880389E+03  0.41800000000E+01 0. -1.
        -11    1    4    4    0    0 -0.21260762701E+02  0.22789828570E+02  0.44480335167E+02  0.54312949961E+02  0.00000000000E+00 0.  1.
         11    1    4    4    0    0  0.57817744057E+02  0.82714727850E+02  0.13533581922E+02  0.10182227443E+03  0.00000000000E+00 0. -1.
</event>
<event>
 8    1  0.6648599E-009  0.1232037E+03  0.7561462E-02  0.1237904E+00
          2   -1    0    0  501    0  0.00000000000E+00  0.00000000000E+00  0.69997946734E+03  0.69997946734E+03  0.00000000000E+00 0. -1.
         -2   -1    0    0    0  501 -0.00000000000E+00 -0.00000000000E+00 -0.30952368469E+02  0.30952368469E+02  0.00000000000E+00 0.  1.
         25    2    1    2    0    0  0.20359299788E+02 -0.93388136641E+02  0.42633193529E+03  0.45446813275E+03  0.12508604831E+03 0.  0.
         23    2    1    2    0    0 -0.20359299788E+02  0.93388136641E+02  0.24269516358E+03  0.27646370306E+03  0.91626369191E+02 0.  0.
          5    1    3    3  502    0 -0.70368124724E+01 -0.97866624512E+02  0.16787691345E+03  0.19449299060E+03  0.41800000000E+01 0. -1.
         -5    1    3    3    0  502  0.27396112260E+02  0.44784878713E+01  0.25845502184E+03  0.25997514215E+03  0.41800000000E+01 0. -1.
        -11    1    4    4    0    0 -0.38685586817E+02  0.18229150370E+02  0.14869808854E+03  0.15472555732E+03  0.00000000000E+00 0. -1.
         11    1    4    4    0    0  0.18326287029E+02  0.75158986271E+02  0.93997075040E+02  0.12173814575E+03  0.00000000000E+00 0.  1.
</event>
<event>
 8    1  0.6648599E-009  0.1559019E+03  0.7561462E-02  0.1193403E+00
         -2   -1    0    0    0  501 -0.00000000000E+00  0.00000000000E+00  0.87546725126E+02  0.87546725126E+02  0.00000000000E+00 0.  1.
          2   -1    0    0  501    0  0.00000000000E+00 -0.00000000000E+00 -0.33310552406E+03  0.33310552406E+03  0.00000000000E+00 0. -1.
         25    2    1    2    0    0 -0.12929672193E+03 -0.48710238342E+00 -0.96598448075E+02  0.20419459064E+03  0.12508513542E+03 0.  0.
         23    2    1    2    0    0  0.12929672193E+03  0.48710238342E+00 -0.14896035086E+03  0.21645765855E+03  0.89145119021E+02 0.  0.
          5    1    3    3  502    0 -0.14423687693E+02 -0.49130493306E+02 -0.10161401498E+02  0.52369596328E+02  0.41800000000E+01 0.  1.
         -5    1    3    3    0  502 -0.11487303424E+03  0.48643390923E+02 -0.86437046577E+02  0.15182499431E+03  0.41800000000E+01 0.  1.
        -11    1    4    4    0    0  0.65728372489E+02  0.20694001898E+02 -0.12996451283E+03  0.14710280507E+03  0.00000000000E+00 0.  1.
         11    1    4    4    0    0  0.63568349445E+02 -0.20206899514E+02 -0.18995838036E+02  0.69354853484E+02  0.00000000000E+00 0. -1.
</event>
<event>
 8    1  0.6648599E-009  0.1020662E+03  0.7561462E-02  0.1276010E+00
         -2   -1    0    0    0  501 -0.00000000000E+00  0.00000000000E+00  0.10486455903E+03  0.10486455903E+03  0.00000000000E+00 0. -1.
          2   -1    0    0  501    0  0.00000000000E+00 -0.00000000000E+00 -0.21716653755E+03  0.21716653755E+03  0.00000000000E+00 0.  1.
         25    2    1    2    0    0  0.48123058011E+02  0.32246494740E+02 -0.15443919478E+03  0.20701193852E+03  0.12508722024E+03 0.  0.
         23    2    1    2    0    0 -0.48123058011E+02 -0.32246494740E+02  0.42137216254E+02  0.11501915806E+03  0.89989980513E+02 0.  0.
          5    1    3    3  502    0 -0.42333673208E+02  0.11616335280E+02 -0.39156173744E+02  0.58972514572E+02  0.41800000000E+01 0. -1.
         -5    1    3    3    0  502  0.90456731219E+02  0.20630159459E+02 -0.11528302104E+03  0.14803942394E+03  0.41800000000E+01 0. -1.
        -11    1    4    4    0    0 -0.28353940398E+02  0.11228431659E+01  0.64346010862E+02  0.70325072533E+02  0.00000000000E+00 0. -1.
         11    1    4    4    0    0 -0.19769117613E+02 -0.33369337906E+02 -0.22208794609E+02  0.44694085531E+02  0.00000000000E+00 0.  1.
</event>
<event>
 8    1  0.6648599E-009  0.1136785E+03  0.7561462E-02  0.1253906E+00
          1   -1    0    0  501    0  0.00000000000E+00  0.00000000000E+00  0.85287711761E+03  0.85287711761E+03  0.00000000000E+00 0. -1.
         -1   -1    0    0    0  501 -0.00000000000E+00 -0.00000000000E+00 -0.21513037320E+02  0.21513037320E+02  0.00000000000E+00 0.  1.
         25    2    1    2    0    0  0.63684782434E+02 -0.43406578678E+02  0.51171337075E+03  0.53238864310E+03  0.12508881211E+03 0.  0.
         23    2    1    2    0    0 -0.63684782434E+02  0.43406578678E+02  0.31965070954E+03  0.34200151183E+03  0.94066866621E+02 0.  0.
          5    1    3    3  502    0  0.37930215773E+01  0.32792240641E+02  0.46563892598E+02  0.57230992939E+02  0.41800000000E+01 0. -1.
         -5    1    3    3    0  502  0.59891760857E+02 -0.76198819318E+02  0.46514947815E+03  0.47515765017E+03  0.41800000000E+01 0. -1.
        -11    1    4    4    0    0 -0.60349989711E+02  0.72733912052E+01  0.28641489463E+03  0.29279432259E+03  0.00000000000E+00 0. -1.
         11    1    4    4    0    0 -0.33347927229E+01  0.36133187473E+02  0.33235814913E+02  0.49207189234E+02  0.00000000000E+00 0.  1.
</event>
<event>
 8    1  0.6648599E-009  0.1189107E+03  0.7561462E-02  0.1244905E+00
          2   -1    0    0  501    0  0.00000000000E+00  0.00000000000E+00  0.34019345619E+02  0.34019345619E+02  0.00000000000E+00 0. -1.
         -2   -1    0    0    0  501 -0.00000000000E+00 -0.00000000000E+00 -0.52112307701E+03  0.52112307701E+03  0.00000000000E+00 0.  1.
         25    2    1    2    0    0 -0.46076227137E+02  0.15933394938E+02 -0.39225644000E+03  0.41459501918E+03  0.12508806266E+03 0.  0.
         23    2    1    2    0    0  0.46076227137E+02 -0.15933394938E+02 -0.94847291392E+02  0.14054740346E+03  0.91546011122E+02 0.  0.
          5    1    3    3  502    0 -0.89331755174E+02  0.67069909945E+01 -0.25304187643E+03  0.26846379614E+03  0.41800000000E+01 0.  1.
         -5    1    3    3    0  502  0.43255528037E+02  0.92264039431E+01 -0.13921456357E+03  0.14613122303E+03  0.41800000000E+01 0.  1.
        -11    1    4    4    0    0  0.65783766903E+02  0.14590122456E+02 -0.62176254019E+02  0.91685670773E+02  0.00000000000E+00 0.  1.
         11    1    4    4    0    0 -0.19707539766E+02 -0.30523517394E+02 -0.32671037374E+02  0.48861732683E+02  0.00000000000E+00 0. -1.
</event>
<event>
 8    1  0.6648599E-009  0.1585629E+03  0.7561462E-02  0.1190329E+00
          1   -1    0    0  501    0  0.00000000000E+00  0.00000000000E+00  0.79903719894E+02  0.79903719894E+02  0.00000000000E+00 0. -1.
         -1   -1    0    0    0  501 -0.00000000000E+00 -0.00000000000E+00 -0.36850613833E+03  0.36850613833E+03  0.00000000000E+00 0.  1.
         25    2    1    2    0    0  0.53170506009E+02  0.11884319120E+03 -0.17656046195E+03  0.25253140904E+03  0.12509080312E+03 0.  0.
         23    2    1    2    0    0 -0.53170506009E+02 -0.11884319120E+03 -0.11204195649E+03  0.19587844919E+03  0.94149668275E+02 0.  0.
          5    1    3    3  502    0  0.13286866372E+02  0.13477106289E+03 -0.14870116913E+03  0.20116980467E+03  0.41800000000E+01 0.  1.
         -5    1    3    3    0  502  0.39883639637E+02 -0.15927871689E+02 -0.27859292812E+02  0.51361604367E+02  0.41800000000E+01 0.  1.
        -11    1    4    4    0    0 -0.45457568911E+02 -0.44055305206E+02 -0.10197116960E+03  0.12002241423E+03  0.00000000000E+00 0.  1.
         11    1    4    4    0    0 -0.77129370975E+01 -0.74787885996E+02 -0.10070786893E+02  0.75856034955E+02  0.00000000000E+00 0. -1.
</event>
<event>
 8    1  0.6648599E-009  0.1023289E+03  0.7561462E-02  0.1275473E+00
         -1   -1    0    0    0  501 -0.00000000000E+00  0.00000000000E+00  0.20442899112E+02  0.20442899112E+02  0.00000000000E+00 0.  1.
          1   -1    0    0  501    0  0.00000000000E+00 -0.00000000000E+00 -0.76310163612E+03  0.76310163612E+03  0.00000000000E+00 0. -1.
         25    2    1    2    0    0 -0.42398461079E+02  0.46389927944E+02 -0.44753528360E+03  0.46891837597E+03  0.12508780252E+03 0.  0.
         23    2    1    2    0    0  0.42398461079E+02 -0.46389927944E+02 -0.29512345342E+03  0.31462615927E+03  0.89118530193E+02 0.  0.
          5    1    3    3  502    0 -0.66988346333E+02 -0.14471512729E+02 -0.29356402327E+03  0.30148660233E+03  0.41800000000E+01 0.  1.
         -5    1    3    3    0  502  0.24589885254E+02  0.60861440673E+02 -0.15397126033E+03  0.16743177364E+03  0.41800000000E+01 0.  1.
        -11    1    4    4    0    0  0.27314267205E+02 -0.47819591098E+02 -0.29434708829E+03  0.29945448881E+03  0.00000000000E+00 0. -1.
         11    1    4    4    0    0  0.15084193873E+02  0.14296631540E+01 -0.77636512392E+00  0.15171670454E+02  0.00000000000E+00 0.  1.
</event>
<event>
 8    1  0.6648599E-009  0.1614909E+03  0.7561462E-02  0.1187024E+00
          1   -1    0    0  501    0  0.00000000000E+00  0.00000000000E+00  0.14137675133E+03  0.14137675133E+03  0.00000000000E+00 0. -1.
         -1   -1    0    0    0  501 -0.00000000000E+00 -0.00000000000E+00 -0.27000029574E+03  0.27000029574E+03  0.00000000000E+00 0.  1.
         25    2    1    2    0    0 -0.20541839742E+02 -0.13815603889E+03 -0.15230157859E+03  0.24156344749E+03  0.12509224620E+03 0.  0.
         23    2    1    2    0    0  0.20541839742E+02  0.13815603889E+03  0.23678034183E+02  0.16981359957E+03  0.93631997915E+02 0.  0.
          5    1    3    3  502    0  0.20667540529E+02 -0.89598069153E+02 -0.19309800998E+02  0.94049465932E+02  0.41800000000E+01 0. -1.
         -5    1    3    3    0  502 -0.41209380270E+02 -0.48557969741E+02 -0.13299177759E+03  0.14751398156E+03  0.41800000000E+01 0. -1.
        -11    1    4    4    0    0  0.54150621848E+02  0.11241576728E+03  0.25837724904E+02  0.12742520397E+03  0.00000000000E+00 0.  1.
         11    1    4    4    0    0 -0.33608782106E+02  0.25740271620E+02 -0.21596907208E+01  0.42388395602E+02  0.00000000000E+00 0. -1.
</event>
<event>
 8    1  0.6648599E-009  0.1005219E+03  0.7561462E-02  0.1279202E+00
          2   -1    0    0  501    0  0.00000000000E+00  0.00000000000E+00  0.45724924538E+03  0.45724924538E+03  0.00000000000E+00 0. -1.
         -2   -1    0    0    0  501 -0.00000000000E+00 -0.00000000000E+00 -0.42376425078E+02  0.42376425078E+02  0.00000000000E+00 0.  1.
         25    2    1    2    0    0 -0.41780977582E+02  0.63414335856E+02  0.16937171369E+03  0.22383273889E+03  0.12508912632E+03 0.  0.
         23    2    1    2    0    0  0.41780977582E+02 -0.63414335856E+02  0.24550110661E+03  0.27579293157E+03  0.10011952693E+03 0.  0.
          5    1    3    3  502    0 -0.10238924318E+02  0.17661006114E+02 -0.18502762158E+02  0.27867029185E+02  0.41800000000E+01 0.  1.
         -5    1    3    3    0  502 -0.31542053264E+02  0.45753329743E+02  0.18787447585E+03  0.19596570971E+03  0.41800000000E+01 0.  1.
        -11    1    4    4    0    0  0.62661947457E+02 -0.54880434999E+01  0.10514018153E+03  0.12251977821E+03  0.00000000000E+00 0. -1.
         11    1    4    4    0    0 -0.20880969875E+02 -0.57926292356E+02  0.14036092508E+03  0.15327315335E+03  0.00000000000E+00 0.  1.
</event>
<event>
 8    1  0.6648599E-009  0.1202639E+03  0.7561462E-02  0.1242662E+00
         -1   -1    0    0    0  501 -0.00000000000E+00  0.00000000000E+00  0.78796117682E+02  0.78796117682E+02  0.00000000000E+00 0.  1.
          1   -1    0    0  501    0  0.00000000000E+00 -0.00000000000E+00 -0.27799272243E+03  0.27799272243E+03  0.00000000000E+00 0. -1.
         25    2    1    2    0    0  0.27452110706E+02 -0.45786341359E+02 -0.21079088789E+03  0.25082913178E+03  0.12502978644E+03 0.  0.
         23    2    1    2    0    0 -0.27452110706E+02  0.45786341359E+02  0.11594283140E+02  0.10595970833E+03  0.90791106120E+02 0.  0.
          5    1    3    3  502    0  0.77522866812E+02 -0.25409545829E+02 -0.12360601101E+03  0.14815990772E+03  0.41800000000E+01 0. -1.
         -5    1    3    3    0  502 -0.50070756105E+02 -0.20376795531E+02 -0.87184876878E+02  0.10266922406E+03  0.41800000000E+01 0. -1.
        -11    1    4    4    0    0 -0.35517940282E+02  0.70327486601E+02  0.13975832004E+02  0.80017518917E+02  0.00000000000E+00 0.  1.
         11    1    4    4    0    0  0.80658295751E+01 -0.24541145242E+02 -0.23815488637E+01  0.25942189412E+02  0.00000000000E+00 0. -1.
</event>
<event>
 8    1  0.6648599E-009  0.1367459E+03  0.7561462E-02  0.1217776E+00
         -1   -1    0    0    0  501 -0.00000000000E+00  0.00000000000E+00  0.77906328135E+03  0.77906328135E+03  0.00000000000E+00 0.  1.
          1   -1    0    0  501    0  0.00000000000E+00 -0.00000000000E+00 -0.27279599841E+02  0.27279599841E+02  0.00000000000E+00 0. -1.
         25    2    1    2    0    0  0.93077741774E+02  0.11167517168E+02  0.34131785455E+03  0.37541221638E+03  0.12509306504E+03 0.  0.
         23    2    1    2    0    0 -0.93077741774E+02 -0.11167517168E+02  0.41046582696E+03  0.43093066481E+03  0.91819732731E+02 0.  0.
          5    1    3    3  502    0  0.89467163360E+02 -0.38427802807E+02  0.15993931206E+03  0.18729422119E+03  0.41800000000E+01 0. -1.
         -5    1    3    3    0  502  0.36105784145E+01  0.49595319975E+02  0.18137854248E+03  0.18811799519E+03  0.41800000000E+01 0. -1.
        -11    1    4    4    0    0 -0.81056667610E+01 -0.36557327176E+02  0.73482646407E+02  0.82473264316E+02  0.00000000000E+00 0. -1.
         11    1    4    4    0    0 -0.84972075013E+02  0.25389810008E+02  0.33698318055E+03  0.34845740049E+03  0.00000000000E+00 0.  1.
</event>
<event>
 8    1  0.6648599E-009  0.1358733E+03  0.7561462E-02  0.1218992E+00
         -1   -1    0    0    0  501 -0.00000000000E+00  0.00000000000E+00  0.30497320621E+03  0.30497320621E+03  0.00000000000E+00 0.  1.
          1   -1    0    0  501    0  0.00000000000E+00 -0.00000000000E+00 -0.89257951104E+02  0.89257951104E+02  0.00000000000E+00 0. -1.
         25    2    1    2    0    0 -0.11561644549E+03 -0.44508081613E+02  0.10815214370E+03  0.20662139294E+03  0.12508949612E+03 0.  0.
         23    2    1    2    0    0  0.11561644549E+03  0.44508081613E+02  0.10756311141E+03  0.18760976437E+03  0.90991587264E+02 0.  0.
          5    1    3    3  502    0 -0.23444119499E+02 -0.45847730615E+02 -0.14005601274E+02  0.53528220676E+02  0.41800000000E+01 0.  1.
         -5    1    3    3    0  502 -0.92172325995E+02  0.13396490025E+01  0.12215774497E+03  0.15309317227E+03  0.41800000000E+01 0.  1.
        -11    1    4    4    0    0  0.99213984934E+02  0.24992995816E+02  0.30988917053E+02  0.10690359033E+03  0.00000000000E+00 0. -1.
         11    1    4    4    0    0  0.16402460560E+02  0.19515085797E+02  0.76574194353E+02  0.80706174032E+02  0.00000000000E+00 0.  1.
</event>
<event>
 8    1  0.6648599E-009  0.1347904E+03  0.7561462E-02  0.1220516E+00
          2   -1    0    0  501    0  0.00000000000E+00  0.00000000000E+00  0.13516806898E+04  0.13516806898E+04  0.00000000000E+00 0. -1.
         -2   -1    0    0    0  501 -0.00000000000E+00 -0.00000000000E+00 -0.18525837730E+02  0.18525837730E+02  0.00000000000E+00 0.  1.
         25    2    1    2    0    0 -0.83211503962E+02  0.40004710420E+02  0.10159498953E+04  0.10277777974E+04  0.12509388351E+03 0.  0.
         23    2    1    2    0    0  0.83211503962E+02 -0.40004710420E+02  0.31720495670E+03  0.34242873012E+03  0.90077296870E+02 0.  0.
          5    1    3    3  502    0 -0.85094705172E+02 -0.14165240338E+02  0.38885180694E+03  0.39832770810E+03  0.41800000000E+01 0.  1.
         -5    1    3    3    0  502  0.18832012102E+01  0.54169950758E+02  0.62709808840E+03  0.62945008928E+03  0.41800000000E+01 0.  1.
        -11    1    4    4    0    0  0.27896862135E+02  0.29114684557E+02  0.10678387856E+03  0.11414331559E+03  0.00000000000E+00 0. -1.
         11    1    4    4    0    0  0.55314641827E+02 -0.69119394977E+02  0.21042107814E+03  0.22828541454E+03  0.00000000000E+00 0.  1.
</event>
<event>
 8    1  0.6648599E-009  0.1743104E+03  0.7561462E-02  0.1173426E+00
          1   -1    0    0  501    0  0.00000000000E+00  0.00000000000E+00  0.14610193042E+03  0.14610193042E+03  0.00000000000E+00 0. -1.
         -1   -1    0    0    0  501 -0.00000000000E+00 -0.00000000000E+00 -0.21709643529E+03  0.21709643529E+03  0.00000000000E+00 0.  1.
         25    2    1    2    0    0 -0.99923632652E+02 -0.96778993139E+02 -0.15617046770E+02  0.18773062544E+03  0.12509192501E+03 0.  0.
         23    2    1    2    0    0  0.99923632652E+02  0.96778993139E+02 -0.55377458100E+02  0.17546774028E+03  0.91495131765E+02 0.  0.
          5    1    3    3  502    0 -0.90297766060E+02 -0.12555768203E+03 -0.22485285578E+02  0.15633770671E+03  0.41800000000E+01 0.  1.
         -5    1    3    3    0  502 -0.96258665921E+01  0.28778688892E+02  0.68682388082E+01  0.31392918729E+02  0.41800000000E+01 0.  1.
        -11    1    4    4    0    0  0.87957628735E+02  0.26324246649E+02 -0.13954483916E+02  0.92866775737E+02  0.00000000000E+00 0. -1.
         11    1    4    4    0    0  0.11966003917E+02  0.70454746490E+02 -0.41422974184E+02  0.82600964540E+02  0.00000000000E+00 0.  1.
</event>
<event>
 8    1  0.6648599E-009  0.2156937E+03  0.7561462E-02  0.1137135E+00
          1   -1    0    0  501    0  0.00000000000E+00  0.00000000000E+00  0.33917071856E+03  0.33917071856E+03  0.00000000000E+00 0. -1.
         -1   -1    0    0    0  501 -0.00000000000E+00 -0.00000000000E+00 -0.14228830511E+03  0.14228830511E+03  0.00000000000E+00 0.  1.
         25    2    1    2    0    0  0.66739986426E+02  0.17646124667E+03  0.13159327975E+03  0.26183379266E+03  0.12508935342E+03 0.  0.
         23    2    1    2    0    0 -0.66739986426E+02 -0.17646124667E+03  0.65289133703E+02  0.21962523101E+03  0.91541104151E+02 0.  0.
          5    1    3    3  502    0 -0.31703752584E+02  0.13084237022E+02  0.29579102035E+02  0.45483193199E+02  0.41800000000E+01 0.  1.
         -5    1    3    3    0  502  0.98443739010E+02  0.16337700965E+03  0.10201417772E+03  0.21635059946E+03  0.41800000000E+01 0.  1.
        -11    1    4    4    0    0 -0.68093105474E+02 -0.63594454462E+02  0.93213714894E+01  0.93636604049E+02  0.00000000000E+00 0. -1.
         11    1    4    4    0    0  0.13531190483E+01 -0.11286679221E+03  0.55967762214E+02  0.12598862696E+03  0.00000000000E+00 0.  1.
</event>
<event>
 8    1  0.6648599E-009  0.1200730E+03  0.7561462E-02  0.1242977E+00
         -1   -1    0    0    0  501 -0.00000000000E+00  0.00000000000E+00  0.13911347710E+02  0.13911347710E+02  0.00000000000E+00 0.  1.
          1   -1    0    0  501    0  0.00000000000E+00 -0.00000000000E+00 -0.11376475445E+04  0.11376475445E+04  0.00000000000E+00 0. -1.
         25    2    1    2    0    0 -0.25017777839E+02  0.58575465992E+02 -0.67890564793E+03  0.69326654634E+03  0.12509456843E+03 0.  0.
         23    2    1    2    0    0  0.25017777839E+02 -0.58575465992E+02 -0.44483054884E+03  0.45829234585E+03  0.90003792494E+02 0.  0.
          5    1    3    3  502    0  0.72584034947E+01  0.90932144562E+02 -0.37754700242E+03  0.38843345733E+03  0.41800000000E+01 0. -1.
         -5    1    3    3    0  502 -0.32276181334E+02 -0.32356678569E+02 -0.30135864551E+03  0.30483308901E+03  0.41800000000E+01 0. -1.
        -11    1    4    4    0    0 -0.24767991317E+02 -0.44945137040E+02 -0.13971831729E+03  0.14884464023E+03  0.00000000000E+00 0. -1.
         11    1    4    4    0    0  0.49785769156E+02 -0.13630328952E+02 -0.30511223155E+03  0.30944770563E+03  0.00000000000E+00 0.  1.
</event>
<event>
 8    1  0.6648599E-009  0.1166173E+03  0.7561462E-02  0.1248784E+00
         -2   -1    0    0    0  501 -0.00000000000E+00  0.00000000000E+00  0.63349872622E+03  0.63349872622E+03  0.00000000000E+00 0.  1.
          2   -1    0    0  501    0  0.00000000000E+00 -0.00000000000E+00 -0.26636036419E+02  0.26636036419E+02  0.00000000000E+00 0. -1.
         25    2    1    2    0    0 -0.51883732192E+02 -0.49763240950E+01  0.20219999758E+03  0.24341972078E+03  0.12510649853E+03 0.  0.
         23    2    1    2    0    0  0.51883732192E+02  0.49763240950E+01  0.40466269222E+03  0.41671504186E+03  0.84751673549E+02 0.  0.
          5    1    3    3  502    0  0.30400745872E+02  0.32665977327E+02  0.62007535575E+02  0.76509334675E+02  0.41800000000E+01 0. -1.
         -5    1    3    3    0  502 -0.82284478065E+02 -0.37642301422E+02  0.14019246201E+03  0.16691038611E+03  0.41800000000E+01 0. -1.
        -11    1    4    4    0    0  0.14378576679E+02  0.42447665049E+02  0.14812753748E+03  0.15475889343E+03  0.00000000000E+00 0. -1.
         11    1    4    4    0    0  0.37505155513E+02 -0.37471340954E+02  0.25653515474E+03  0.26195614843E+03  0.00000000000E+00 0.  1.
</event>
<event>
 8    1  0.6648599E-009  0.1094635E+03  0.7561462E-02  0.1261567E+00
          1   -1    0    0  501    0  0.00000000000E+00  0.00000000000E+00  0.29930759819E+02  0.29930759819E+02  0.00000000000E+00 0. -1.
         -1   -1    0    0    0  501 -0.00000000000E+00 -0.00000000000E+00 -0.58115793296E+03  0.58115793296E+03  0.00000000000E+00 0.  1.
         25    2    1    2    0    0  0.33260450365E+02 -0.41096767521E+01 -0.44372865160E+03  0.46223709247E+03  0.12507944037E+03 0.  0.
         23    2    1    2    0    0 -0.33260450365E+02  0.41096767521E+01 -0.10749852154E+03  0.14885160031E+03  0.97353581238E+02 0.  0.
          5    1    3    3  502    0  0.37568747144E+02  0.50783970175E+02 -0.14166249060E+03  0.15516493171E+03  0.41800000000E+01 0. -1.
         -5    1    3    3    0  502 -0.43082967784E+01 -0.54893646927E+02 -0.30206616100E+03  0.30707216076E+03  0.41800000000E+01 0. -1.
        -11    1    4    4    0    0  0.27841373841E+02  0.23351861568E+02 -0.23745916617E+02  0.43408755937E+02  0.00000000000E+00 0. -1.
         11    1    4    4    0    0 -0.61101824206E+02 -0.19242184816E+02 -0.83752604927E+02  0.10544284437E+03  0.00000000000E+00 0.  1.
</event>
<event>
 8    1  0.6648599E-009  0.8573934E+02  0.7561462E-02  0.1313510E+00
          2   -1    0    0  501    0  0.00000000000E+00  0.00000000000E+00  0.50424163940E+03  0.50424163940E+03  0.00000000000E+00 0. -1.
         -2   -1    0    0    0  501 -0.00000000000E+00 -0.00000000000E+00 -0.26547207823E+02  0.26547207823E+02  0.00000000000E+00 0.  1.
         25    2    1    2    0    0  0.10824616664E+01  0.38774735211E+02  0.27906020794E+03  0.30826373102E+03  0.12508907384E+03 0.  0.
         23    2    1    2    0    0 -0.10824616664E+01 -0.38774735211E+02  0.19863422364E+03  0.22252511620E+03  0.92505247021E+02 0.  0.
          5    1    3    3  502    0  0.19228692318E+01  0.55728746710E+02  0.40452424091E+02  0.69016386828E+02  0.41800000000E+01 0. -1.
         -5    1    3    3    0  502 -0.84040756538E+00 -0.16954011500E+02  0.23860778385E+03  0.23924734419E+03  0.41800000000E+01 0. -1.
        -11    1    4    4    0    0 -0.37392406652E+02  0.86203991345E+01  0.10146467613E+03  0.10847849492E+03  0.00000000000E+00 0.  1.
         11    1    4    4    0    0  0.36309944985E+02 -0.47395134345E+02  0.97169547508E+02  0.11404662129E+03  0.00000000000E+00 0. -1.
</event>
<event>
 8    1  0.6648599E-009  0.9331040E+02  0.7561462E-02  0.1295027E+00
          3   -1    0    0  501    0  0.00000000000E+00  0.00000000000E+00  0.46514460978E+03  0.46514460978E+03  0.00000000000E+00 0. -1.
         -3   -1    0    0    0  501 -0.00000000000E+00 -0.00000000000E+00 -0.27880203187E+02  0.27880203187E+02  0.00000000000E+00 0.  1.
         25    2    1    2    0    0 -0.66470207377E+01  0.14796399103E+02  0.32194225614E+03  0.34577022560E+03  0.12508843398E+03 0.  0.
         23    2    1    2    0    0  0.66470207377E+01 -0.14796399103E+02  0.11532215045E+03  0.14725458736E+03  0.90119913463E+02 0.  0.
          5    1    3    3  502    0 -0.53725329182E+02 -0.27026941348E+00  0.26422482280E+03  0.26966407515E+03  0.41800000000E+01 0. -1.
         -5    1    3    3    0  502  0.47078308444E+02  0.15066668516E+02  0.57717433335E+02  0.76106150454E+02  0.41800000000E+01 0. -1.
        -11    1    4    4    0    0 -0.34904235974E+02  0.78893730067E+01  0.20422489986E+02  0.41202257130E+02  0.00000000000E+00 0.  1.
         11    1    4    4    0    0  0.41551256712E+02 -0.22685772110E+02  0.94899660468E+02  0.10605233023E+03  0.00000000000E+00 0. -1.
</event>
<event>
 8    1  0.6648599E-009  0.9361999E+02  0.7561462E-02  0.1294315E+00
          2   -1    0    0  501    0  0.00000000000E+00  0.00000000000E+00  0.72904272310E+02  0.72904272310E+02  0.00000000000E+00 0. -1.
         -2   -1    0    0    0  501 -0.00000000000E+00 -0.00000000000E+00 -0.25292913439E+03  0.25292913439E+03  0.00000000000E+00 0.  1.
         25    2    1    2    0    0  0.11135427962E+01 -0.74085436651E+02 -0.58852853096E+02  0.15684533887E+03  0.12508760972E+03 0.  0.
         23    2    1    2    0    0 -0.11135427962E+01  0.74085436651E+02 -0.12117200899E+03  0.16898806784E+03  0.91566475350E+02 0.  0.
          5    1    3    3  502    0  0.10620939887E+01  0.18879921308E+02 -0.60754660123E+02  0.63766610376E+02  0.41800000000E+01 0.  1.
         -5    1    3    3    0  502  0.51448807536E-01 -0.92965357959E+02  0.19018070266E+01  0.93078728490E+02  0.41800000000E+01 0.  1.
        -11    1    4    4    0    0 -0.57475132058E+01  0.37849731196E+02 -0.12641332229E+03  0.13208317119E+03  0.00000000000E+00 0.  1.
         11    1    4    4    0    0  0.46339704096E+01  0.36235705455E+02  0.52413132989E+01  0.36904896649E+02  0.00000000000E+00 0. -1.
</event>
<event>
 8    1  0.6648599E-009  0.1426451E+03  0.7561462E-02  0.1209813E+00
          2   -1    0    0  501    0  0.00000000000E+00  0.00000000000E+00  0.50233208151E+03  0.50233208151E+03  0.00000000000E+00 0.  1.
         -2   -1    0    0    0  501 -0.00000000000E+00 -0.00000000000E+00 -0.49196161988E+02  0.49196161988E+02  0.00000000000E+00 0. -1.
         25    2    1    2    0    0 -0.87514133547E+02 -0.68290053076E+02  0.29653029521E+03  0.34044021557E+03  0.12508824678E+03 0.  0.
         23    2    1    2    0    0  0.87514133547E+02  0.68290053076E+02  0.15660562431E+03  0.21108802792E+03  0.87809902901E+02 0.  0.
          5    1    3    3  502    0 -0.20569393738E+02  0.31264823800E+02  0.30076458292E+02  0.48193930213E+02  0.41800000000E+01 0.  1.
         -5    1    3    3    0  502 -0.66944739809E+02 -0.99554876876E+02  0.26645383692E+03  0.29224628536E+03  0.41800000000E+01 0.  1.
        -11    1    4    4    0    0  0.81355554920E+01  0.43757398434E+02  0.10302068400E+03  0.11222369853E+03  0.00000000000E+00 0.  1.
         11    1    4    4    0    0  0.79378578055E+02  0.24532654642E+02  0.53584940314E+02  0.98864329393E+02  0.00000000000E+00 0. -1.
</event>
<event>
 8    1  0.6648599E-009  0.6722412E+02  0.7561462E-02  0.1369795E+00
         -1   -1    0    0    0  501 -0.00000000000E+00  0.00000000000E+00  0.96184518560E+02  0.96184518560E+02  0.00000000000E+00 0.  1.
          1   -1    0    0  501    0  0.00000000000E+00 -0.00000000000E+00 -0.17128919047E+03  0.17128919047E+03  0.00000000000E+00 0. -1.
         25    2    1    2    0    0  0.28935422959E+02 -0.30481068631E+02 -0.95160409299E+02  0.16269640667E+03  0.12509301738E+03 0.  0.
         23    2    1    2    0    0 -0.28935422959E+02  0.30481068631E+02  0.20055737386E+02  0.10477730236E+03  0.93859982111E+02 0.  0.
          5    1    3    3  502    0 -0.26633152376E+02 -0.16552537834E+02  0.17561897559E+02  0.36182923599E+02  0.41800000000E+01 0.  1.
         -5    1    3    3    0  502  0.55568575335E+02 -0.13928530797E+02 -0.11272230686E+03  0.12651348307E+03  0.41800000000E+01 0.  1.
        -11    1    4    4    0    0 -0.13191856938E+02  0.27360484484E+01  0.55488109363E+02  0.57100274354E+02  0.00000000000E+00 0.  1.
         11    1    4    4    0    0 -0.15743566021E+02  0.27745020182E+02 -0.35432371977E+02  0.47677028010E+02  0.00000000000E+00 0. -1.
</event>
<event>
 8    1  0.6648599E-009  0.1095379E+03  0.7561462E-02  0.1261428E+00
         -4   -1    0    0    0  501 -0.00000000000E+00  0.00000000000E+00  0.13308567948E+03  0.13308567948E+03  0.00000000000E+00 0. -1.
          4   -1    0    0  501    0  0.00000000000E+00 -0.00000000000E+00 -0.14504795153E+03  0.14504795153E+03  0.00000000000E+00 0.  1.
         25    2    1    2    0    0 -0.58384850200E+02  0.51781395342E+02 -0.53910775624E+02  0.15698418103E+03  0.12509019837E+03 0.  0.
         23    2    1    2    0    0  0.58384850200E+02 -0.51781395342E+02  0.41948503576E+02  0.12114944998E+03  0.82628134692E+02 0.  0.
          5    1    3    3  502    0 -0.80824764296E+02  0.41317265851E+02 -0.79787641055E+02  0.12092683344E+03  0.41800000000E+01 0.  1.
         -5    1    3    3    0  502  0.22439914096E+02  0.10464129491E+02  0.25876865431E+02  0.36057347590E+02  0.41800000000E+01 0.  1.
        -11    1    4    4    0    0 -0.13598908587E+02 -0.20520843071E+02 -0.10494282951E+02  0.26761264727E+02  0.00000000000E+00 0.  1.
         11    1    4    4    0    0  0.71983758787E+02 -0.31260552270E+02  0.52442786527E+02  0.94388185257E+02  0.00000000000E+00 0. -1.
</event>
<event>
 8    1  0.6648599E-009  0.9730684E+02  0.7561462E-02  0.1286063E+00
         -2   -1    0    0    0  501 -0.00000000000E+00  0.00000000000E+00  0.72135529585E+01  0.72135529585E+01  0.00000000000E+00 0.  1.
          2   -1    0    0  501    0  0.00000000000E+00 -0.00000000000E+00 -0.25269423098E+04  0.25269423098E+04  0.00000000000E+00 0. -1.
         25    2    1    2    0    0 -0.37280438217E+02 -0.22760223082E+02 -0.19949880735E+04  0.19993830883E+04  0.12508981372E+03 0.  0.
         23    2    1    2    0    0  0.37280438217E+02  0.22760223082E+02 -0.52474068337E+03  0.53477277450E+03  0.93387776144E+02 0.  0.
          5    1    3    3  502    0 -0.98823825864E+01 -0.51157889423E+02 -0.34677292669E+03  0.35069035662E+03  0.41800000000E+01 0. -1.
         -5    1    3    3    0  502 -0.27398055631E+02  0.28397666342E+02 -0.16482151468E+04  0.16486927316E+04  0.41800000000E+01 0. -1.
        -11    1    4    4    0    0 -0.19033086006E+02  0.39556193812E+02 -0.24899351009E+03  0.25283338170E+03  0.00000000000E+00 0.  1.
         11    1    4    4    0    0  0.56313524224E+02 -0.16795970731E+02 -0.27574717327E+03  0.28193939280E+03  0.00000000000E+00 0. -1.
</event>
<event>
 8    1  0.6648599E-009  0.1131171E+03  0.7561462E-02  0.1254904E+00
         -2   -1    0    0    0  501 -0.00000000000E+00  0.00000000000E+00  0.61482703435E+02  0.61482703435E+02  0.00000000000E+00 0.  1.
          2   -1    0    0  501    0  0.00000000000E+00 -0.00000000000E+00 -0.35267871688E+03  0.35267871688E+03  0.00000000000E+00 0. -1.
         25    2    1    2    0    0  0.18712588662E+02 -0.91931583716E+02 -0.20168377089E+03  0.25519561202E+03  0.12508748896E+03 0.  0.
         23    2    1    2    0    0 -0.18712588662E+02  0.91931583716E+02 -0.89512242547E+02  0.15896580829E+03  0.91957107287E+02 0.  0.
          5    1    3    3  502    0  0.18102698447E+02 -0.46929268358E+02 -0.20378906541E+03  0.20994646818E+03  0.41800000000E+01 0.  1.
         -5    1    3    3    0  502  0.60989021487E+00 -0.45002315358E+02  0.21052945138E+01  0.45249143844E+02  0.41800000000E+01 0.  1.
        -11    1    4    4    0    0 -0.55290453012E+02  0.63745005065E+02 -0.49273032316E+02  0.97715359994E+02  0.00000000000E+00 0.  1.
         11    1    4    4    0    0  0.36577864351E+02  0.28186578651E+02 -0.40239210231E+02  0.61250448297E+02  0.00000000000E+00 0. -1.
</event>
<event>
 8    1  0.6648599E-009  0.9708563E+02  0.7561462E-02  0.1286547E+00
         -1   -1    0    0    0  501 -0.00000000000E+00  0.00000000000E+00  0.28073375477E+02  0.28073375477E+02  0.00000000000E+00 0.  1.
          1   -1    0    0  501    0  0.00000000000E+00 -0.00000000000E+00 -0.10199189522E+04  0.10199189522E+04  0.00000000000E+00 0. -1.
         25    2    1    2    0    0  0.27524698471E+02  0.33058204605E+01 -0.91834521594E+03  0.92723975593E+03  0.12508833622E+03 0.  0.
         23    2    1    2    0    0 -0.27524698471E+02 -0.33058204605E+01 -0.73500360751E+02  0.12075257172E+03  0.91707922618E+02 0.  0.
          5    1    3    3  502    0 -0.35558580253E+02  0.83457028749E+01 -0.66713642642E+03  0.66814859667E+03  0.41800000000E+01 0.  1.
         -5    1    3    3    0  502  0.63083278724E+02 -0.50398824144E+01 -0.25120878953E+03  0.25909115926E+03  0.41800000000E+01 0.  1.
        -11    1    4    4    0    0 -0.47854796045E+02 -0.32905936198E+02 -0.33695092053E+02  0.67143438772E+02  0.00000000000E+00 0. -1.
         11    1    4    4    0    0  0.20330097574E+02  0.29600115738E+02 -0.39805268698E+02  0.53609132946E+02  0.00000000000E+00 0.  1.
</event>
<event>
 8    1  0.6648599E-009  0.1198590E+03  0.7561462E-02  0.1243330E+00
         -1   -1    0    0    0  501 -0.00000000000E+00  0.00000000000E+00  0.11485521940E+03  0.11485521940E+03  0.00000000000E+00 0.  1.
          1   -1    0    0  501    0  0.00000000000E+00 -0.00000000000E+00 -0.17005491588E+03  0.17005491588E+03  0.00000000000E+00 0. -1.
         25    2    1    2    0    0  0.43425884945E+02  0.74908106126E+02 -0.43946096668E+02  0.15835489289E+03  0.12509188959E+03 0.  0.
         23    2    1    2    0    0 -0.43425884945E+02 -0.74908106126E+02 -0.11253599810E+02  0.12655524239E+03  0.91610883744E+02 0.  0.
          5    1    3    3  502    0  0.88382304225E+01 -0.14782140897E+02  0.31459893897E+02  0.36108493883E+02  0.41800000000E+01 0.  1.
         -5    1    3    3    0  502  0.34587654522E+02  0.89690247023E+02 -0.75405990565E+02  0.12224639900E+03  0.41800000000E+01 0.  1.
        -11    1    4    4    0    0 -0.68413466578E+02 -0.30680770907E+02 -0.10824689066E+02  0.75755435489E+02  0.00000000000E+00 0. -1.
         11    1    4    4    0    0  0.24987581634E+02 -0.44227335219E+02 -0.42891074377E+00  0.50799806898E+02  0.00000000000E+00 0.  1.
</event>
<event>
 8    1  0.6648599E-009  0.7757698E+02  0.7561462E-02  0.1336072E+00
         -4   -1    0    0    0  501 -0.00000000000E+00  0.00000000000E+00  0.14505962866E+03  0.14505962866E+03  0.00000000000E+00 0. -1.
          4   -1    0    0  501    0  0.00000000000E+00 -0.00000000000E+00 -0.27781009727E+03  0.27781009727E+03  0.00000000000E+00 0.  1.
         25    2    1    2    0    0 -0.53841190547E+02 -0.31676462060E+02  0.95669391209E+02  0.16943792097E+03  0.12511716349E+03 0.  0.
         23    2    1    2    0    0  0.53841190547E+02  0.31676462060E+02 -0.22841985982E+03  0.25343180496E+03  0.90276106240E+02 0.  0.
          5    1    3    3  502    0 -0.39870874847E+02 -0.29865259476E+02 -0.19260154817E+02  0.53572813518E+02  0.41800000000E+01 0.  1.
         -5    1    3    3    0  502 -0.13970315700E+02 -0.18112025841E+01  0.11492954603E+03  0.11586510745E+03  0.41800000000E+01 0.  1.
        -11    1    4    4    0    0  0.45161230732E+02 -0.11358033893E+02 -0.18825639749E+03  0.19393043312E+03  0.00000000000E+00 0.  1.
         11    1    4    4    0    0  0.86799598145E+01  0.43034495953E+02 -0.40163462327E+02  0.59501371836E+02  0.00000000000E+00 0. -1.
</event>
<event>
 8    1  0.6648599E-009  0.1898739E+03  0.7561462E-02  0.1158575E+00
          4   -1    0    0  501    0  0.00000000000E+00  0.00000000000E+00  0.30097701314E+03  0.30097701314E+03  0.00000000000E+00 0. -1.
         -4   -1    0    0    0  501 -0.00000000000E+00 -0.00000000000E+00 -0.16665710341E+03  0.16665710341E+03  0.00000000000E+00 0.  1.
         25    2    1    2    0    0  0.11940921541E+03 -0.11328920616E+03  0.17948240887E+03  0.27377770709E+03  0.12508913961E+03 0.  0.
         23    2    1    2    0    0 -0.11940921541E+03  0.11328920616E+03 -0.45162499145E+02  0.19385640946E+03  0.91911104896E+02 0.  0.
          5    1    3    3  502    0 -0.88014204366E+01 -0.68353525797E+02  0.77879014270E+02  0.10407825303E+03  0.41800000000E+01 0. -1.
         -5    1    3    3    0  502  0.12821063584E+03 -0.44935680365E+02  0.10160339460E+03  0.16969945406E+03  0.41800000000E+01 0. -1.
        -11    1    4    4    0    0 -0.61231773017E+02  0.96399150888E+02 -0.63362163957E+02  0.13060202962E+03  0.00000000000E+00 0.  1.
         11    1    4    4    0    0 -0.58177442389E+02  0.16890055274E+02  0.18199664812E+02  0.63254379843E+02  0.00000000000E+00 0. -1.
</event>
<event>
 8    1  0.6648599E-009  0.1363949E+03  0.7561462E-02  0.1218264E+00
          1   -1    0    0  501    0  0.00000000000E+00  0.00000000000E+00  0.63357864722E+02  0.63357864722E+02  0.00000000000E+00 0. -1.
         -1   -1    0    0    0  501 -0.00000000000E+00 -0.00000000000E+00 -0.41652629564E+03  0.41652629564E+03  0.00000000000E+00 0.  1.
         25    2    1    2    0    0 -0.10885529100E+03 -0.33212330391E+01 -0.11253489875E+03  0.20042907305E+03  0.12508878814E+03 0.  0.
         23    2    1    2    0    0  0.10885529100E+03  0.33212330391E+01 -0.24063353217E+03  0.27945508732E+03  0.91269622838E+02 0.  0.
          5    1    3    3  502    0 -0.69106431575E+02  0.36428296630E+02 -0.12032829480E+03  0.14352383289E+03  0.41800000000E+01 0. -1.
         -5    1    3    3    0  502 -0.39748859427E+02 -0.39749529669E+02  0.77933960503E+01  0.56905240151E+02  0.41800000000E+01 0. -1.
        -11    1    4    4    0    0  0.12209344549E+03 -0.56061010089E+01 -0.18621614099E+03  0.22274354978E+03  0.00000000000E+00 0.  1.
         11    1    4    4    0    0 -0.13238154488E+02  0.89273340480E+01 -0.54417391180E+02  0.56711537541E+02  0.00000000000E+00 0. -1.
</event>
<event>
 8    1  0.6648599E-009  0.8910772E+02  0.7561462E-02  0.1305027E+00
         -2   -1    0    0    0  501 -0.00000000000E+00  0.00000000000E+00  0.15531960808E+03  0.15531960808E+03  0.00000000000E+00 0.  1.
          2   -1    0    0  501    0  0.00000000000E+00 -0.00000000000E+00 -0.96645669996E+02  0.96645669996E+02  0.00000000000E+00 0. -1.
         25    2    1    2    0    0 -0.53692810293E+02  0.21218921829E+02  0.46620930375E+02  0.14544537520E+03  0.12509070908E+03 0.  0.
         23    2    1    2    0    0  0.53692810293E+02 -0.21218921829E+02  0.12053007714E+02  0.10651990288E+03  0.88702052931E+02 0.  0.
          5    1    3    3  502    0 -0.83790869684E+02  0.12584910118E+02 -0.49393604772E+01  0.84977405744E+02  0.41800000000E+01 0. -1.
         -5    1    3    3    0  502  0.30098059391E+02  0.86340117110E+01  0.51560290852E+02  0.60467969455E+02  0.41800000000E+01 0. -1.
        -11    1    4    4    0    0  0.34379079154E+02 -0.18341830437E+01  0.49404727936E+02  0.60217210607E+02  0.00000000000E+00 0.  1.
         11    1    4    4    0    0  0.19313731139E+02 -0.19384738785E+02 -0.37351720222E+02  0.46302692274E+02  0.00000000000E+00 0. -1.
</event>
<event>
 8    1  0.6648599E-009  0.1509846E+03  0.7561462E-02  0.1199268E+00
          2   -1    0    0  501    0  0.00000000000E+00  0.00000000000E+00  0.13045030413E+04  0.13045030413E+04  0.00000000000E+00 0.  1.
         -2   -1    0    0    0  501 -0.00000000000E+00 -0.00000000000E+00 -0.24727606590E+02  0.24727606590E+02  0.00000000000E+00 0. -1.
         25    2    1    2    0    0  0.11756215580E+03  0.81758238993E+02  0.70702723748E+03  0.73214889773E+03  0.12509685764E+03 0.  0.
         23    2    1    2    0    0 -0.11756215580E+03 -0.81758238993E+02  0.57274819726E+03  0.59708175019E+03  0.89223588945E+02 0.  0.
          5    1    3    3  502    0  0.47626250386E+02  0.49455942009E+02  0.57602473472E+03  0.58011733066E+03  0.41800000000E+01 0.  1.
         -5    1    3    3    0  502  0.69935905413E+02  0.32302296984E+02  0.13100250277E+03  0.15203156708E+03  0.41800000000E+01 0.  1.
        -11    1    4    4    0    0 -0.95696013673E+01  0.10349894185E+02  0.11583438881E+02  0.18244824917E+02  0.00000000000E+00 0. -1.
         11    1    4    4    0    0 -0.10799255443E+03 -0.92108133178E+02  0.56116475838E+03  0.57883692527E+03  0.00000000000E+00 0.  1.
</event>
<event>
 8    1  0.6648599E-009  0.1186710E+03  0.7561462E-02  0.1245306E+00
         -1   -1    0    0    0  501 -0.00000000000E+00  0.00000000000E+00  0.18704710231E+02  0.18704710231E+02  0.00000000000E+00 0.  1.
          1   -1    0    0  501    0  0.00000000000E+00 -0.00000000000E+00 -0.85399210676E+03  0.85399210676E+03  0.00000000000E+00 0. -1.
         25    2    1    2    0    0  0.30384237665E+02  0.41465173881E+02 -0.32947714078E+03  0.35615435864E+03  0.12509267901E+03 0.  0.
         23    2    1    2    0    0 -0.30384237665E+02 -0.41465173881E+02 -0.50581025576E+03  0.51654245835E+03  0.91266280235E+02 0.  0.
          5    1    3    3  502    0  0.45078449320E+02 -0.35017631578E+02 -0.14209519692E+03  0.15318883282E+03  0.41800000000E+01 0. -1.
         -5    1    3    3    0  502 -0.14694211655E+02  0.76482805460E+02 -0.18738194386E+03  0.20296552582E+03  0.41800000000E+01 0. -1.
        -11    1    4    4    0    0 -0.12931208016E+02 -0.68623421461E+02 -0.39501097358E+03  0.40113596119E+03  0.00000000000E+00 0. -1.
         11    1    4    4    0    0 -0.17453029648E+02  0.27158247580E+02 -0.11079928218E+03  0.11540649716E+03  0.00000000000E+00 0.  1.
</event>
<event>
 8    1  0.6648599E-009  0.9630576E+02  0.7561462E-02  0.1288262E+00
         -2   -1    0    0    0  501 -0.00000000000E+00  0.00000000000E+00  0.25044035971E+02  0.25044035971E+02  0.00000000000E+00 0.  1.
          2   -1    0    0  501    0  0.00000000000E+00 -0.00000000000E+00 -0.48776022034E+03  0.48776022034E+03  0.00000000000E+00 0. -1.
         25    2    1    2    0    0  0.37334035408E+01 -0.19802874194E+01 -0.23906009655E+03  0.26985072993E+03  0.12510726133E+03 0.  0.
         23    2    1    2    0    0 -0.37334035408E+01  0.19802874194E+01 -0.22365608782E+03  0.24295352638E+03  0.94797207365E+02 0.  0.
          5    1    3    3  502    0  0.39293270262E+02 -0.32330899437E+02 -0.20651848186E+03  0.21273599577E+03  0.41800000000E+01 0. -1.
         -5    1    3    3    0  502 -0.35559866721E+02  0.30350612017E+02 -0.32541614691E+02  0.57114734157E+02  0.41800000000E+01 0. -1.
        -11    1    4    4    0    0 -0.22538856138E+02  0.43525346141E+02 -0.12504717079E+03  0.13431027778E+03  0.00000000000E+00 0.  1.
         11    1    4    4    0    0  0.18805452597E+02 -0.41545058721E+02 -0.98608917023E+02  0.10864324861E+03  0.00000000000E+00 0. -1.
</event>
<event>
 8    1  0.6648599E-009  0.1156457E+03  0.7561462E-02  0.1250458E+00
          4   -1    0    0  501    0  0.00000000000E+00  0.00000000000E+00  0.23131022771E+03  0.23131022771E+03  0.00000000000E+00 0.  1.
         -4   -1    0    0    0  501 -0.00000000000E+00 -0.00000000000E+00 -0.85179608638E+02  0.85179608638E+02  0.00000000000E+00 0. -1.
         25    2    1    2    0    0  0.35088861585E+02 -0.73586521541E+02  0.41653957004E+02  0.15501387143E+03  0.12509214141E+03 0.  0.
         23    2    1    2    0    0 -0.35088861585E+02  0.73586521541E+02  0.10447666207E+03  0.16147596492E+03  0.92265432142E+02 0.  0.
          5    1    3    3  502    0  0.77548966321E+01  0.35568689450E+02  0.82533724926E+01  0.37561425005E+02  0.41800000000E+01 0. -1.
         -5    1    3    3    0  502  0.27333964953E+02 -0.10915521099E+03  0.33400584511E+02  0.11745244643E+03  0.41800000000E+01 0. -1.
        -11    1    4    4    0    0 -0.24235680348E+02  0.40220735829E+02  0.11551436400E+03  0.12469420228E+03  0.00000000000E+00 0.  1.
         11    1    4    4    0    0 -0.10853181237E+02  0.33365785712E+02 -0.11037701923E+02  0.36781762640E+02  0.00000000000E+00 0. -1.
</event>
<event>
 8    1  0.6648599E-009  0.9167162E+02  0.7561462E-02  0.1298853E+00
         -2   -1    0    0    0  501 -0.00000000000E+00  0.00000000000E+00  0.41928942698E+03  0.41928942698E+03  0.00000000000E+00 0.  1.
          2   -1    0    0  501    0  0.00000000000E+00 -0.00000000000E+00 -0.35049466802E+02  0.35049466802E+02  0.00000000000E+00 0. -1.
         25    2    1    2    0    0 -0.41585654344E+02 -0.31283173821E+02  0.22559406822E+03  0.26315277116E+03  0.12509473907E+03 0.  0.
         23    2    1    2    0    0  0.41585654344E+02  0.31283173821E+02  0.15864589197E+03  0.19118612262E+03  0.93142959128E+02 0.  0.
          5    1    3    3  502    0 -0.15323069716E+02 -0.62901039917E+02  0.47699160052E+02  0.80523409998E+02  0.41800000000E+01 0. -1.
         -5    1    3    3    0  502 -0.26262584629E+02  0.31617866096E+02  0.17789490816E+03  0.18262936116E+03  0.41800000000E+01 0. -1.
        -11    1    4    4    0    0  0.36260290513E+02  0.47686865317E+02  0.16277779978E+03  0.17345160101E+03  0.00000000000E+00 0.  1.
         11    1    4    4    0    0  0.53253638316E+01 -0.16403691497E+02 -0.41319078151E+01  0.17734521613E+02  0.00000000000E+00 0. -1.
</event>
<event>
 8    1  0.6648599E-009  0.1109530E+03  0.7561462E-02  0.1258815E+00
          2   -1    0    0  501    0  0.00000000000E+00  0.00000000000E+00  0.15672305913E+03  0.15672305913E+03  0.00000000000E+00 0.  1.
         -2   -1    0    0    0  501 -0.00000000000E+00 -0.00000000000E+00 -0.83929560113E+02  0.83929560113E+02  0.00000000000E+00 0. -1.
         25    2    1    2    0    0  0.65650622563E+01  0.34062686412E+02  0.58261412760E+02  0.14228509478E+03  0.12508912555E+03 0.  0.
         23    2    1    2    0    0 -0.65650622563E+01 -0.34062686412E+02  0.14532086262E+02  0.98367524471E+02  0.90893463415E+02 0.  0.
          5    1    3    3  502    0 -0.58597150570E+02  0.18031411409E+02  0.37175260012E+02  0.71820820166E+02  0.41800000000E+01 0. -1.
         -5    1    3    3    0  502  0.65162212827E+02  0.16031275002E+02  0.21086152747E+02  0.70464274610E+02  0.41800000000E+01 0. -1.
        -11    1    4    4    0    0  0.38899769172E+02 -0.49036088294E+01  0.20117251243E+02  0.44067462132E+02  0.00000000000E+00 0.  1.
         11    1    4    4    0    0 -0.45464831428E+02 -0.29159077582E+02 -0.55851649816E+01  0.54300062340E+02  0.00000000000E+00 0. -1.
</event>
<event>
 8    1  0.6648599E-009  0.6700483E+02  0.7561462E-02  0.1370585E+00
          2   -1    0    0  501    0  0.00000000000E+00  0.00000000000E+00  0.85108410704E+02  0.85108410704E+02  0.00000000000E+00 0. -1.
         -2   -1    0    0    0  501 -0.00000000000E+00 -0.00000000000E+00 -0.17335496162E+03  0.17335496162E+03  0.00000000000E+00 0.  1.
         25    2    1    2    0    0  0.22609718746E+02 -0.42191344168E+02 -0.80470574010E+02  0.15625414083E+03  0.12509410194E+03 0.  0.
         23    2    1    2    0    0 -0.22609718746E+02  0.42191344168E+02 -0.77759769034E+01  0.10220923150E+03  0.89971952749E+02 0.  0.
          5    1    3    3  502    0 -0.87568503330E+01  0.16505029433E+01  0.30912278338E+02  0.32441454033E+02  0.41800000000E+01 0.  1.
         -5    1    3    3    0  502  0.31366569079E+02 -0.43841847112E+02 -0.11138285235E+03  0.12381268679E+03  0.41800000000E+01 0.  1.
        -11    1    4    4    0    0  0.13228113320E+02 -0.18073023769E+01 -0.36313872548E+02  0.38690394975E+02  0.00000000000E+00 0.  1.
         11    1    4    4    0    0 -0.35837832067E+02  0.43998646545E+02  0.28537895644E+02  0.63518836520E+02  0.00000000000E+00 0. -1.
</event>
<event>
 8    1  0.6648599E-009  0.1676311E+03  0.7561462E-02  0.1180341E+00
         -1   -1    0    0    0  501 -0.00000000000E+00  0.00000000000E+00  0.39403489524E+03  0.39403489524E+03  0.00000000000E+00 0.  1.
          1   -1    0    0  501    0  0.00000000000E+00 -0.00000000000E+00 -0.10038334142E+03  0.10038334142E+03  0.00000000000E+00 0. -1.
         25    2    1    2    0    0  0.82675002133E+02  0.12427280249E+03  0.60390992060E+02  0.20389601133E+03  0.12509047165E+03 0.  0.
         23    2    1    2    0    0 -0.82675002133E+02 -0.12427280249E+03  0.23326056176E+03  0.29052222532E+03  0.87828174960E+02 0.  0.
          5    1    3    3  502    0  0.49713135278E+01 -0.20316071549E+02 -0.11971527459E+02  0.24459079931E+02  0.41800000000E+01 0.  1.
         -5    1    3    3    0  502  0.77703688605E+02  0.14458887404E+03  0.72362519519E+02  0.17943693140E+03  0.41800000000E+01 0.  1.
        -11    1    4    4    0    0 -0.32145334161E+02 -0.38200741583E+02  0.15748182359E+03  0.16520636769E+03  0.00000000000E+00 0.  1.
         11    1    4    4    0    0 -0.50529667972E+02 -0.86072060909E+02  0.75778738175E+02  0.12531585763E+03  0.00000000000E+00 0. -1.
</event>
<event>
 8    1  0.6648599E-009  0.1163181E+03  0.7561462E-02  0.1249298E+00
         -1   -1    0    0    0  501 -0.00000000000E+00  0.00000000000E+00  0.23595155684E+02  0.23595155684E+02  0.00000000000E+00 0.  1.
          1   -1    0    0  501    0  0.00000000000E+00 -0.00000000000E+00 -0.66135934312E+03  0.66135934312E+03  0.00000000000E+00 0. -1.
         25    2    1    2    0    0 -0.59138761340E+02 -0.43883227976E+00 -0.30353438051E+03  0.33358416392E+03  0.12509072146E+03 0.  0.
         23    2    1    2    0    0  0.59138761340E+02  0.43883227976E+00 -0.33422980692E+03  0.35137033489E+03  0.90851322154E+02 0.  0.
          5    1    3    3  502    0 -0.92411965951E+02  0.25487865490E+02 -0.21340912332E+03  0.23398830966E+03  0.41800000000E+01 0. -1.
         -5    1    3    3    0  502  0.33273204610E+02 -0.25926697769E+02 -0.90125257190E+02  0.99595854260E+02  0.41800000000E+01 0. -1.
        -11    1    4    4    0    0  0.32982528515E+02  0.36854743596E+02 -0.86719352107E+02  0.99831685063E+02  0.00000000000E+00 0.  1.
         11    1    4    4    0    0  0.26156232826E+02 -0.36415911316E+02 -0.24751045481E+03  0.25153864982E+03  0.00000000000E+00 0. -1.
</event>
<event>
 8    1  0.6648599E-009  0.8745463E+02  0.7561462E-02  0.1309135E+00
         -1   -1    0    0    0  501 -0.00000000000E+00  0.00000000000E+00  0.12076454454E+02  0.12076454454E+02  0.00000000000E+00 0. -1.
          1   -1    0    0  501    0  0.00000000000E+00 -0.00000000000E+00 -0.10996697918E+04  0.10996697918E+04  0.00000000000E+00 0.  1.
         25    2    1    2    0    0 -0.17653236673E+02 -0.28024912284E+02 -0.63868141010E+03  0.65165809428E+03  0.12508915126E+03 0.  0.
         23    2    1    2    0    0  0.17653236673E+02  0.28024912284E+02 -0.44891192728E+03  0.46008815200E+03  0.95195360638E+02 0.  0.
          5    1    3    3  502    0 -0.24356570269E+01 -0.48454637326E+02 -0.89661245083E+02  0.10203134603E+03  0.41800000000E+01 0. -1.
         -5    1    3    3    0  502 -0.15217579646E+02  0.20429725042E+02 -0.54902016501E+03  0.54962674824E+03  0.41800000000E+01 0. -1.
        -11    1    4    4    0    0  0.55785127054E+02  0.27657527807E+02 -0.25824846307E+03  0.26564861740E+03  0.00000000000E+00 0. -1.
         11    1    4    4    0    0 -0.38131890381E+02  0.36738447713E+00 -0.19066346420E+03  0.19443953460E+03  0.00000000000E+00 0.  1.
</event>
<event>
 8    1  0.6648599E-009  0.1284628E+03  0.7561462E-02  0.1229755E+00
         -1   -1    0    0    0  501 -0.00000000000E+00  0.00000000000E+00  0.10443726286E+04  0.10443726286E+04  0.00000000000E+00 0.  1.
          1   -1    0    0  501    0  0.00000000000E+00 -0.00000000000E+00 -0.20458284015E+02  0.20458284015E+02  0.00000000000E+00 0. -1.
         25    2    1    2    0    0 -0.87791600773E+02 -0.27702560516E+02  0.70019590345E+03  0.71721266524E+03  0.12507960246E+03 0.  0.
         23    2    1    2    0    0  0.87791600773E+02  0.27702560516E+02  0.32371844110E+03  0.34761824733E+03  0.87005860427E+02 0.  0.
          5    1    3    3  502    0  0.76630921983E+01 -0.49830128616E+02  0.14885166218E+03  0.15721340411E+03  0.41800000000E+01 0.  1.
         -5    1    3    3    0  502 -0.95454692972E+02  0.22127568100E+02  0.55134424128E+03  0.55999926113E+03  0.41800000000E+01 0.  1.
        -11    1    4    4    0    0  0.56024227318E+02  0.45208953958E+02  0.28743841224E+03  0.29631639238E+03  0.00000000000E+00 0.  1.
         11    1    4    4    0    0  0.31767373455E+02 -0.17506393442E+02  0.36280028859E+02  0.51301854952E+02  0.00000000000E+00 0. -1.
</event>
<event>
 8    1  0.6648599E-009  0.2150554E+03  0.7561462E-02  0.1137624E+00
         -2   -1    0    0    0  501 -0.00000000000E+00  0.00000000000E+00  0.71233725768E+02  0.71233725768E+02  0.00000000000E+00 0.  1.
          2   -1    0    0  501    0  0.00000000000E+00 -0.00000000000E+00 -0.74355303807E+03  0.74355303807E+03  0.00000000000E+00 0. -1.
         25    2    1    2    0    0 -0.10417238682E+03  0.17090533016E+03 -0.38992799468E+03  0.45579979483E+03  0.12509633839E+03 0.  0.
         23    2    1    2    0    0  0.10417238682E+03 -0.17090533016E+03 -0.28239131762E+03  0.35898696901E+03  0.95216960652E+02 0.  0.
          5    1    3    3  502    0  0.16440887522E+02  0.78197197017E+01 -0.10124940855E+03  0.10295807851E+03  0.41800000000E+01 0.  1.
         -5    1    3    3    0  502 -0.12061327434E+03  0.16308561046E+03 -0.28867858613E+03  0.35284171632E+03  0.41800000000E+01 0.  1.
        -11    1    4    4    0    0  0.66105356990E+02 -0.53244209355E+02 -0.58097125371E+02  0.10285980765E+03  0.00000000000E+00 0.  1.
         11    1    4    4    0    0  0.38067029826E+02 -0.11766112081E+03 -0.22429419225E+03  0.25612716136E+03  0.00000000000E+00 0. -1.
</event>
<event>
 8    1  0.6648599E-009  0.8211703E+02  0.7561462E-02  0.1323149E+00
         -1   -1    0    0    0  501 -0.00000000000E+00  0.00000000000E+00  0.23809832234E+03  0.23809832234E+03  0.00000000000E+00 0.  1.
          1   -1    0    0  501    0  0.00000000000E+00 -0.00000000000E+00 -0.54194828367E+02  0.54194828367E+02  0.00000000000E+00 0. -1.
         25    2    1    2    0    0  0.30672083898E+00  0.27017740987E+01  0.14742623907E+03  0.19336575296E+03  0.12509366407E+03 0.  0.
         23    2    1    2    0    0 -0.30672083898E+00 -0.27017740987E+01  0.36477254909E+02  0.98927397754E+02  0.91916517774E+02 0.  0.
          5    1    3    3  502    0  0.18404702580E+01 -0.47343686941E+02  0.12194089269E+02  0.49101733544E+02  0.41800000000E+01 0. -1.
         -5    1    3    3    0  502 -0.15337494190E+01  0.50045461040E+02  0.13523214980E+03  0.14426401941E+03  0.41800000000E+01 0. -1.
        -11    1    4    4    0    0  0.25945185506E+02 -0.21861320899E+02  0.52643134110E+02  0.62628823806E+02  0.00000000000E+00 0.  1.
         11    1    4    4    0    0 -0.26251906345E+02  0.19159546800E+02 -0.16165879201E+02  0.36298573948E+02  0.00000000000E+00 0. -1.
</event>
<event>
 8    1  0.6648599E-009  0.1131251E+03  0.7561462E-02  0.1254890E+00
          2   -1    0    0  501    0  0.00000000000E+00  0.00000000000E+00  0.10718167573E+04  0.10718167573E+04  0.00000000000E+00 0. -1.
         -2   -1    0    0    0  501 -0.00000000000E+00 -0.00000000000E+00 -0.12929872562E+02  0.12929872562E+02  0.00000000000E+00 0.  1.
         25    2    1    2    0    0 -0.36747665914E+02 -0.31591965899E+02  0.64217690455E+03  0.65603995649E+03  0.12509518180E+03 0.  0.
         23    2    1    2    0    0  0.36747665914E+02  0.31591965899E+02  0.41670998019E+03  0.42870667338E+03  0.88282279930E+02 0.  0.
          5    1    3    3  502    0  0.53006101371E+01 -0.70430268703E+02  0.44821437958E+03  0.45376439005E+03  0.41800000000E+01 0.  1.
         -5    1    3    3    0  502 -0.42048276051E+02  0.38838302804E+02  0.19396252497E+03  0.20227556644E+03  0.41800000000E+01 0.  1.
        -11    1    4    4    0    0 -0.86075985109E+01 -0.24500846491E+02  0.72268129225E+02  0.76792348139E+02  0.00000000000E+00 0.  1.
         11    1    4    4    0    0  0.45355264425E+02  0.56092812390E+02  0.34444185097E+03  0.35191432524E+03  0.00000000000E+00 0. -1.
</event>
<event>
 8    1  0.6648599E-009  0.1219531E+03  0.7561462E-02  0.1239909E+00
          1   -1    0    0  501    0  0.00000000000E+00  0.00000000000E+00  0.14841621524E+03  0.14841621524E+03  0.00000000000E+00 0. -1.
         -1   -1    0    0    0  501 -0.00000000000E+00 -0.00000000000E+00 -0.16015501704E+03  0.16015501704E+03  0.00000000000E+00 0.  1.
         25    2    1    2    0    0 -0.86949410768E+02  0.18052664819E+02  0.57399282327E+02  0.16379012594E+03  0.12508568664E+03 0.  0.
         23    2    1    2    0    0  0.86949410768E+02 -0.18052664819E+02 -0.69138084128E+02  0.14478110634E+03  0.91079060903E+02 0.  0.
          5    1    3    3  502    0 -0.11069199293E+03  0.20965197746E+02  0.73566843019E+02  0.13461727084E+03  0.41800000000E+01 0. -1.
         -5    1    3    3    0  502  0.23742582165E+02 -0.29125329276E+01 -0.16167560691E+02  0.29172855099E+02  0.41800000000E+01 0. -1.
        -11    1    4    4    0    0  0.54371016071E+02 -0.40090629925E+02 -0.27415136780E+01  0.67609037071E+02  0.00000000000E+00 0. -1.
         11    1    4    4    0    0  0.32578394697E+02  0.22037965107E+02 -0.66396570450E+02  0.77172069264E+02  0.00000000000E+00 0.  1.
</event>
<event>
 8    1  0.6648599E-009  0.1811787E+03  0.7561462E-02  0.1166667E+00
          2   -1    0    0  501    0  0.00000000000E+00  0.00000000000E+00  0.40010012313E+03  0.40010012313E+03  0.00000000000E+00 0. -1.
         -2   -1    0    0    0  501 -0.00000000000E+00 -0.00000000000E+00 -0.95446411700E+02  0.95446411700E+02  0.00000000000E+00 0.  1.
         25    2    1    2    0    0 -0.10371103025E+03  0.12338196890E+03  0.17743659154E+03  0.27038782939E+03  0.12508695464E+03 0.  0.
         23    2    1    2    0    0  0.10371103025E+03 -0.12338196890E+03  0.12721711989E+03  0.22515870544E+03  0.92375099436E+02 0.  0.
          5    1    3    3  502    0 -0.98469570259E+02  0.41483638908E+02  0.48325592867E+02  0.11734557465E+03  0.41800000000E+01 0. -1.
         -5    1    3    3    0  502 -0.52414599897E+01  0.81898329994E+02  0.12911099867E+03  0.15304225474E+03  0.41800000000E+01 0. -1.
        -11    1    4    4    0    0  0.74818026771E+02 -0.12345783843E+03  0.13231010043E+03  0.19582016667E+03  0.00000000000E+00 0.  1.
         11    1    4    4    0    0  0.28893003477E+02  0.75869531669E-01 -0.50929805362E+01  0.29338538765E+02  0.00000000000E+00 0. -1.
</event>
<event>
 8    1  0.6648599E-009  0.1123934E+03  0.7561462E-02  0.1256201E+00
          2   -1    0    0  501    0  0.00000000000E+00  0.00000000000E+00  0.11239092369E+03  0.11239092369E+03  0.00000000000E+00 0. -1.
         -2   -1    0    0    0  501 -0.00000000000E+00 -0.00000000000E+00 -0.12135274203E+03  0.12135274203E+03  0.00000000000E+00 0.  1.
         25    2    1    2    0    0 -0.11597161128E+02  0.36017029316E+02 -0.28677141612E+02  0.13379502920E+03  0.12508801238E+03 0.  0.
         23    2    1    2    0    0  0.11597161128E+02 -0.36017029316E+02  0.19715323272E+02  0.99948636510E+02  0.90384265342E+02 0.  0.
          5    1    3    3  502    0 -0.57815054222E+02 -0.14445690122E+02 -0.26094791886E+02  0.65189485513E+02  0.41800000000E+01 0. -1.
         -5    1    3    3    0  502  0.46217893094E+02  0.50462719438E+02 -0.25823497257E+01  0.68605543692E+02  0.41800000000E+01 0. -1.
        -11    1    4    4    0    0  0.50173804510E+02 -0.26568773530E+02  0.20107856965E+02  0.60229862175E+02  0.00000000000E+00 0.  1.
         11    1    4    4    0    0 -0.38576643382E+02 -0.94482557862E+01 -0.39253369298E+00  0.39718774335E+02  0.00000000000E+00 0. -1.
</event>
<event>
 8    1  0.6648599E-009  0.1800720E+03  0.7561462E-02  0.1167733E+00
         -1   -1    0    0    0  501 -0.00000000000E+00  0.00000000000E+00  0.73872115119E+02  0.73872115119E+02  0.00000000000E+00 0.  1.
          1   -1    0    0  501    0  0.00000000000E+00 -0.00000000000E+00 -0.47586074785E+03  0.47586074785E+03  0.00000000000E+00 0. -1.
         25    2    1    2    0    0 -0.19498937936E+02 -0.14740365134E+03 -0.26022120552E+03  0.32476292988E+03  0.12509132590E+03 0.  0.
         23    2    1    2    0    0  0.19498937936E+02  0.14740365134E+03 -0.14176742722E+03  0.22496993309E+03  0.91681090551E+02 0.  0.
          5    1    3    3  502    0 -0.64267101308E+02 -0.11623698670E+03 -0.14190994752E+03  0.19441502769E+03  0.41800000000E+01 0. -1.
         -5    1    3    3    0  502  0.44768163373E+02 -0.31166664647E+02 -0.11831125800E+03  0.13034790219E+03  0.41800000000E+01 0. -1.
        -11    1    4    4    0    0  0.54556553785E+02  0.86113316813E+02 -0.66206748198E+02  0.12155350427E+03  0.00000000000E+00 0.  1.
         11    1    4    4    0    0 -0.35057615849E+02  0.61290334531E+02 -0.75560679022E+02  0.10341642882E+03  0.00000000000E+00 0. -1.
</event>
<event>
 8    1  0.6648599E-009  0.1877375E+03  0.7561462E-02  0.1160518E+00
          2   -1    0    0  501    0  0.00000000000E+00  0.00000000000E+00  0.19067987244E+04  0.19067987244E+04  0.00000000000E+00 0. -1.
         -2   -1    0    0    0  501 -0.00000000000E+00 -0.00000000000E+00 -0.21261114596E+02  0.21261114596E+02  0.00000000000E+00 0.  1.
         25    2    1    2    0    0 -0.16008998062E+03 -0.17848832377E+02  0.12273925787E+04  0.12442215136E+04  0.12508896856E+03 0.  0.
         23    2    1    2    0    0  0.16008998062E+03  0.17848832377E+02  0.65814503113E+03  0.68383832538E+03  0.92372022500E+02 0.  0.
          5    1    3    3  502    0 -0.15413615628E+03 -0.46026132143E+02  0.81080746121E+03  0.82662117749E+03  0.41800000000E+01 0. -1.
         -5    1    3    3    0  502 -0.59538243393E+01  0.28177299766E+02  0.41658511746E+03  0.41760033613E+03  0.41800000000E+01 0. -1.
        -11    1    4    4    0    0  0.89184878594E+02  0.55632912133E+02  0.38976540851E+03  0.40369052151E+03  0.00000000000E+00 0.  1.
         11    1    4    4    0    0  0.70905102027E+02 -0.37784079756E+02  0.26837962261E+03  0.28014780387E+03  0.00000000000E+00 0. -1.
</event>
<event>
 8    1  0.6648599E-009  0.1027227E+03  0.7561462E-02  0.1274672E+00
         -1   -1    0    0    0  501 -0.00000000000E+00  0.00000000000E+00  0.62195531504E+02  0.62195531504E+02  0.00000000000E+00 0.  1.
          1   -1    0    0  501    0  0.00000000000E+00 -0.00000000000E+00 -0.25750314920E+03  0.25750314920E+03  0.00000000000E+00 0. -1.
         25    2    1    2    0    0 -0.55738291199E+02 -0.30048306664E+02 -0.12390114132E+03  0.18710625273E+03  0.12509036395E+03 0.  0.
         23    2    1    2    0    0  0.55738291199E+02  0.30048306664E+02 -0.71406476383E+02  0.13259242797E+03  0.92044604663E+02 0.  0.
          5    1    3    3  502    0  0.41698456629E+01  0.42404273082E+02 -0.21079181715E+02  0.47721214258E+02  0.41800000000E+01 0. -1.
         -5    1    3    3    0  502 -0.59908136862E+02 -0.72452579747E+02 -0.10282195960E+03  0.13938503848E+03  0.41800000000E+01 0. -1.
        -11    1    4    4    0    0  0.51945728034E+02  0.16569310714E+02  0.51490331712E+01  0.54766899320E+02  0.00000000000E+00 0.  1.
         11    1    4    4    0    0  0.37925631641E+01  0.13478995950E+02 -0.76555509554E+02  0.77825528654E+02  0.00000000000E+00 0. -1.
</event>
<event>
 8    1  0.6648599E-009  0.8050873E+02  0.7561462E-02  0.1327614E+00
         -1   -1    0    0    0  501 -0.00000000000E+00  0.00000000000E+00  0.46523673662E+02  0.46523673662E+02  0.00000000000E+00 0.  1.
          1   -1    0    0  501    0  0.00000000000E+00 -0.00000000000E+00 -0.31711170396E+03  0.31711170396E+03  0.00000000000E+00 0. -1.
         25    2    1    2    0    0  0.25067464494E+02  0.47738807155E+02 -0.16592089928E+03  0.21467181321E+03  0.12508745375E+03 0.  0.
         23    2    1    2    0    0 -0.25067464494E+02 -0.47738807155E+02 -0.10466713102E+03  0.14896356441E+03  0.91255485976E+02 0.  0.
          5    1    3    3  502    0  0.27403218811E+02  0.12810099682E+02 -0.17550106954E+03  0.17813796020E+03  0.41800000000E+01 0.  1.
         -5    1    3    3    0  502 -0.23357543170E+01  0.34928707472E+02  0.95801702594E+01  0.36533853015E+02  0.41800000000E+01 0.  1.
        -11    1    4    4    0    0  0.14170667450E+02 -0.53698623645E+02 -0.27019407867E+02  0.61760816047E+02  0.00000000000E+00 0. -1.
         11    1    4    4    0    0 -0.39238131944E+02  0.59598164903E+01 -0.77647723151E+02  0.87202748360E+02  0.00000000000E+00 0.  1.
</event>
<event>
 8    1  0.6648599E-009  0.1391706E+03  0.7561462E-02  0.1214449E+00
          2   -1    0    0  501    0  0.00000000000E+00  0.00000000000E+00  0.40061717850E+02  0.40061717850E+02  0.00000000000E+00 0. -1.
         -2   -1    0    0    0  501 -0.00000000000E+00 -0.00000000000E+00 -0.80650766924E+03  0.80650766924E+03  0.00000000000E+00 0.  1.
         25    2    1    2    0    0 -0.13243583993E+03 -0.26603040612E+02 -0.29296135210E+03  0.34600614422E+03  0.12508766744E+03 0.  0.
         23    2    1    2    0    0  0.13243583993E+03  0.26603040612E+02 -0.47348459928E+03  0.50056324287E+03  0.90160528403E+02 0.  0.
          5    1    3    3  502    0  0.21212235716E+01  0.80093215032E+00  0.11248981654E+02  0.12212823998E+02  0.41800000000E+01 0.  1.
         -5    1    3    3    0  502 -0.13455706350E+03 -0.27403972763E+02 -0.30421033376E+03  0.33379332022E+03  0.41800000000E+01 0.  1.
        -11    1    4    4    0    0  0.95521950599E+02  0.11096084239E+02 -0.43327703766E+03  0.44382041130E+03  0.00000000000E+00 0.  1.
         11    1    4    4    0    0  0.36913889329E+02  0.15506956374E+02 -0.40207561628E+02  0.56742831560E+02  0.00000000000E+00 0. -1.
</event>
<event>
 8    1  0.6648599E-009  0.3174013E+03  0.7561462E-02  0.1076852E+00
          1   -1    0    0  501    0  0.00000000000E+00  0.00000000000E+00  0.14548486751E+03  0.14548486751E+03  0.00000000000E+00 0. -1.
         -1   -1    0    0    0  501 -0.00000000000E+00 -0.00000000000E+00 -0.78081358633E+03  0.78081358633E+03  0.00000000000E+00 0.  1.
         25    2    1    2    0    0 -0.28618425733E+03  0.84022789209E+02 -0.47842415687E+03  0.57749320959E+03  0.12508986769E+03 0.  0.
         23    2    1    2    0    0  0.28618425733E+03 -0.84022789209E+02 -0.15690456195E+03  0.34880524426E+03  0.89915508175E+02 0.  0.
          5    1    3    3  502    0 -0.12058116223E+03 -0.27289806189E+02 -0.17454320477E+03  0.21393305714E+03  0.41800000000E+01 0.  1.
         -5    1    3    3    0  502 -0.16560309510E+03  0.11131259540E+03 -0.30388095210E+03  0.36356015245E+03  0.41800000000E+01 0.  1.
        -11    1    4    4    0    0  0.20786515499E+03 -0.10142798126E+03 -0.11693239254E+03  0.25916933165E+03  0.00000000000E+00 0.  1.
         11    1    4    4    0    0  0.78319102334E+02  0.17405192054E+02 -0.39972169414E+02  0.89635912605E+02  0.00000000000E+00 0. -1.
</event>
<event>
 8    1  0.6648599E-009  0.2047436E+03  0.7561462E-02  0.1145797E+00
         -2   -1    0    0    0  501 -0.00000000000E+00  0.00000000000E+00  0.26392631443E+02  0.26392631443E+02  0.00000000000E+00 0. -1.
          2   -1    0    0  501    0  0.00000000000E+00 -0.00000000000E+00 -0.20319456534E+04  0.20319456534E+04  0.00000000000E+00 0.  1.
         25    2    1    2    0    0 -0.83365903621E+02 -0.16459652921E+03 -0.14301935869E+04  0.14474609617E+04  0.12509056059E+03 0.  0.
         23    2    1    2    0    0  0.83365903621E+02  0.16459652921E+03 -0.57535943514E+03  0.61087732322E+03  0.89948502483E+02 0.  0.
          5    1    3    3  502    0  0.17796662715E+02 -0.75737980289E+02 -0.75144470110E+03  0.75547307965E+03  0.41800000000E+01 0. -1.
         -5    1    3    3    0  502 -0.10116256634E+03 -0.88858548924E+02 -0.67874888576E+03  0.69198788202E+03  0.41800000000E+01 0. -1.
        -11    1    4    4    0    0  0.73564644145E+02  0.69306332242E+02 -0.38122553663E+03  0.39439578387E+03  0.00000000000E+00 0.  1.
         11    1    4    4    0    0  0.98012594766E+01  0.95290196971E+02 -0.19413389851E+03  0.21648153935E+03  0.00000000000E+00 0. -1.
</event>
<event>
 8    1  0.6648599E-009  0.1299144E+03  0.7561462E-02  0.1227583E+00
          1   -1    0    0  501    0  0.00000000000E+00  0.00000000000E+00  0.83381634428E+02  0.83381634428E+02  0.00000000000E+00 0. -1.
         -1   -1    0    0    0  501 -0.00000000000E+00 -0.00000000000E+00 -0.22878655664E+03  0.22878655664E+03  0.00000000000E+00 0.  1.
         25    2    1    2    0    0 -0.65327449778E+02  0.64999987894E+02 -0.57481937002E+02  0.16565376403E+03  0.12507726546E+03 0.  0.
         23    2    1    2    0    0  0.65327449778E+02 -0.64999987894E+02 -0.87922985214E+02  0.14651442704E+03  0.72410992818E+02 0.  0.
          5    1    3    3  502    0 -0.59488348828E+02 -0.17539081074E+02  0.42913706271E+01  0.62308677350E+02  0.41800000000E+01 0.  1.
         -5    1    3    3    0  502 -0.58391009497E+01  0.82539068968E+02 -0.61773307629E+02  0.10334508668E+03  0.41800000000E+01 0.  1.
        -11    1    4    4    0    0  0.66052955747E+02 -0.18889147441E+02 -0.66683973994E+02  0.95742076652E+02  0.00000000000E+00 0.  1.
         11    1    4    4    0    0 -0.72550596939E+00 -0.46110840453E+02 -0.21239011220E+02  0.50772350387E+02  0.00000000000E+00 0. -1.
</event>
<event>
 8    1  0.6648599E-009  0.7940683E+02  0.7561462E-02  0.1330743E+00
         -1   -1    0    0    0  501 -0.00000000000E+00  0.00000000000E+00  0.42572590126E+02  0.42572590126E+02  0.00000000000E+00 0.  1.
          1   -1    0    0  501    0  0.00000000000E+00 -0.00000000000E+00 -0.32811848908E+03  0.32811848908E+03  0.00000000000E+00 0. -1.
         25    2    1    2    0    0  0.21218147169E+02 -0.13318288861E+02 -0.99810769670E+02  0.16197888859E+03  0.12508950404E+03 0.  0.
         23    2    1    2    0    0 -0.21218147169E+02  0.13318288861E+02 -0.18573512928E+03  0.20871219061E+03  0.91845814670E+02 0.  0.
          5    1    3    3  502    0  0.15537358967E+02  0.26155514970E+02  0.19320233409E+02  0.36280357027E+02  0.41800000000E+01 0.  1.
         -5    1    3    3    0  502  0.56807882021E+01 -0.39473803831E+02 -0.11913100308E+03  0.12569853157E+03  0.41800000000E+01 0.  1.
        -11    1    4    4    0    0 -0.51165557199E+02  0.23596323940E+02 -0.15356145700E+03  0.16357206920E+03  0.00000000000E+00 0. -1.
         11    1    4    4    0    0  0.29947410031E+02 -0.10278035079E+02 -0.32173672282E+02  0.45140121408E+02  0.00000000000E+00 0.  1.
</event>
<event>
 7    1  0.6648599E-009  0.9953627E+02  0.7561462E-02  0.1281274E+00
          1   -1    0    0  501    0  0.00000000000E+00  0.00000000000E+00  0.88453389708E+02  0.88453389708E+02  0.00000000000E+00 0. -1.
         -1   -1    0    0    0  501 -0.00000000000E+00 -0.00000000000E+00 -0.17214641647E+03  0.17214641647E+03  0.00000000000E+00 0.  1.
         23    2    1    2    0    0 -0.53317086759E+02  0.20259330897E+02 -0.27975596453E+02  0.11212937598E+03  0.92397027719E+02 0.  0.
          5    1    1    2  502    0  0.69591171727E+02 -0.79361818681E+01  0.17524503413E+02  0.72322159708E+02  0.41800000000E+01 0. -1.
         -5    1    1    2    0  502 -0.16274084968E+02 -0.12323149029E+02 -0.73241933725E+02  0.76148270494E+02  0.41800000000E+01 0. -1.
        -11    1    3    3    0    0 -0.66912828453E+02  0.44441523531E+02 -0.15959407270E+02  0.81896753939E+02  0.00000000000E+00 0. -1.
         11    1    3    3    0    0  0.13595741694E+02 -0.24182192634E+02 -0.12016189183E+02  0.30232622038E+02  0.00000000000E+00 0.  1.
</event>
<event>
 8    1  0.6648599E-009  0.6852344E+02  0.7561462E-02  0.1365187E+00
          1   -1    0    0  501    0  0.00000000000E+00  0.00000000000E+00  0.58774313654E+03  0.58774313654E+03  0.00000000000E+00 0. -1.
         -1   -1    0    0    0  501 -0.00000000000E+00 -0.00000000000E+00 -0.73315888797E+02  0.73315888797E+02  0.00000000000E+00 0.  1.
         25    2    1    2    0    0 -0.28297848311E+02  0.35647853472E+02  0.54021232486E+03  0.55637034588E+03  0.12508824151E+03 0.  0.
         23    2    1    2    0    0  0.28297848311E+02 -0.35647853472E+02 -0.25785077113E+02  0.10468867946E+03  0.90682477524E+02 0.  0.
          5    1    3    3  502    0 -0.50757649989E+02  0.23835441346E+02  0.94845465067E+02  0.11026151614E+03  0.41800000000E+01 0. -1.
         -5    1    3    3    0  502  0.22459801678E+02  0.11812412126E+02  0.44536685979E+03  0.44610882974E+03  0.41800000000E+01 0. -1.
        -11    1    4    4    0    0 -0.61568113299E+01 -0.11429731264E+02  0.31221311979E+02  0.33812947287E+02  0.00000000000E+00 0. -1.
         11    1    4    4    0    0  0.34454659641E+02 -0.24218122208E+02 -0.57006389093E+02  0.70875732177E+02  0.00000000000E+00 0.  1.
</event>
<event>
 8    1  0.6648599E-009  0.2150420E+03  0.7561462E-02  0.1137634E+00
         -2   -1    0    0    0  501 -0.00000000000E+00  0.00000000000E+00  0.35724917911E+03  0.35724917911E+03  0.00000000000E+00 0.  1.
          2   -1    0    0  501    0  0.00000000000E+00 -0.00000000000E+00 -0.15166151315E+03  0.15166151315E+03  0.00000000000E+00 0. -1.
         25    2    1    2    0    0  0.19596171029E+03 -0.37400694688E+02  0.51371344473E+02  0.24101034724E+03  0.12508864289E+03 0.  0.
         23    2    1    2    0    0 -0.19596171029E+03  0.37400694688E+02  0.15421632149E+03  0.26790034502E+03  0.90488215728E+02 0.  0.
          5    1    3    3  502    0  0.13480636204E+00  0.11519393826E+02  0.36583205330E+02  0.38581315673E+02  0.41800000000E+01 0. -1.
         -5    1    3    3    0  502  0.19582690393E+03 -0.48920088514E+02  0.14788139143E+02  0.20242903157E+03  0.41800000000E+01 0. -1.
        -11    1    4    4    0    0 -0.86913279167E+02 -0.24823028874E+02  0.87144209243E+02  0.12555562139E+03  0.00000000000E+00 0.  1.
         11    1    4    4    0    0 -0.10904843112E+03  0.62223723562E+02  0.67072112244E+02  0.14234472363E+03  0.00000000000E+00 0. -1.
</event>
<event>
 8    1  0.6648599E-009  0.1013740E+03  0.7561462E-02  0.1277433E+00
          1   -1    0    0  501    0  0.00000000000E+00  0.00000000000E+00  0.94392530521E+03  0.94392530521E+03  0.00000000000E+00 0. -1.
         -1   -1    0    0    0  501 -0.00000000000E+00 -0.00000000000E+00 -0.17773373499E+02  0.17773373499E+02  0.00000000000E+00 0.  1.
         25    2    1    2    0    0  0.49679695732E+02 -0.40508001653E+02  0.41091193877E+03  0.43428539713E+03  0.12508482868E+03 0.  0.
         23    2    1    2    0    0 -0.49679695732E+02  0.40508001653E+02  0.51523999293E+03  0.52741328158E+03  0.92647444112E+02 0.  0.
          5    1    3    3  502    0  0.42876789587E+02 -0.60480185500E+02  0.11066179005E+03  0.13326580995E+03  0.41800000000E+01 0.  1.
         -5    1    3    3    0  502  0.68029061450E+01  0.19972183847E+02  0.30025014872E+03  0.30101958718E+03  0.41800000000E+01 0.  1.
        -11    1    4    4    0    0  0.16331076984E+02  0.37503879455E+02  0.12239354895E+03  0.12904815332E+03  0.00000000000E+00 0. -1.
         11    1    4    4    0    0 -0.66010772715E+02  0.30041221977E+01  0.39284644398E+03  0.39836512826E+03  0.00000000000E+00 0.  1.
</event>
<event>
 8    1  0.6648599E-009  0.1169112E+03  0.7561462E-02  0.1248281E+00
          2   -1    0    0  501    0  0.00000000000E+00  0.00000000000E+00  0.26824809791E+04  0.26824809791E+04  0.00000000000E+00 0. -1.
         -2   -1    0    0    0  501 -0.00000000000E+00 -0.00000000000E+00 -0.92273171350E+01  0.92273171350E+01  0.00000000000E+00 0.  1.
         25    2    1    2    0    0 -0.75829208598E+02  0.54800376145E+02  0.20142624981E+04  0.20203103280E+04  0.12508900798E+03 0.  0.
         23    2    1    2    0    0  0.75829208598E+02 -0.54800376145E+02  0.65899116383E+03  0.67139796823E+03  0.88049574929E+02 0.  0.
          5    1    3    3  502    0 -0.84694894249E+01 -0.10876706454E+02  0.25252504341E+02  0.29072261177E+02  0.41800000000E+01 0.  1.
         -5    1    3    3    0  502 -0.67359719173E+02  0.65677082599E+02  0.19890099938E+04  0.19912380668E+04  0.41800000000E+01 0.  1.
        -11    1    4    4    0    0  0.56689941161E+02 -0.77202654555E+02  0.55935938310E+03  0.56750058922E+03  0.00000000000E+00 0. -1.
         11    1    4    4    0    0  0.19139267436E+02  0.22402278410E+02  0.99631780726E+02  0.10389737902E+03  0.00000000000E+00 0.  1.
</event>
<event>
 8    1  0.6648599E-009  0.8321549E+02  0.7561462E-02  0.1320166E+00
          3   -1    0    0  501    0  0.00000000000E+00  0.00000000000E+00  0.28543558395E+03  0.28543558395E+03  0.00000000000E+00 0. -1.
         -3   -1    0    0    0  501 -0.00000000000E+00 -0.00000000000E+00 -0.48793092046E+02  0.48793092046E+02  0.00000000000E+00 0.  1.
         25    2    1    2    0    0  0.41418170317E+02  0.86896129309E+01  0.16617529792E+03  0.21225600055E+03  0.12508959159E+03 0.  0.
         23    2    1    2    0    0 -0.41418170317E+02 -0.86896129309E+01  0.70467193982E+02  0.12197267545E+03  0.90115114845E+02 0.  0.
          5    1    3    3  502    0  0.48894142487E+02 -0.26969074120E+02  0.16823592095E+02  0.58467715702E+02  0.41800000000E+01 0. -1.
         -5    1    3    3    0  502 -0.74759721696E+01  0.35658687051E+02  0.14935170583E+03  0.15378828485E+03  0.41800000000E+01 0. -1.
        -11    1    4    4    0    0 -0.35941213398E+02  0.22297260940E+02  0.78788767660E+02  0.89423758450E+02  0.00000000000E+00 0. -1.
         11    1    4    4    0    0 -0.54769569187E+01 -0.30986873871E+02 -0.83215736786E+01  0.32548917000E+02  0.00000000000E+00 0.  1.
</event>
<event>
 8    1  0.6648599E-009  0.2060394E+03  0.7561462E-02  0.1144741E+00
          1   -1    0    0  501    0  0.00000000000E+00  0.00000000000E+00  0.10409025993E+04  0.10409025993E+04  0.00000000000E+00 0. -1.
         -1   -1    0    0    0  501 -0.00000000000E+00 -0.00000000000E+00 -0.49824987808E+02  0.49824987808E+02  0.00000000000E+00 0.  1.
         25    2    1    2    0    0  0.40439990559E+02 -0.19561532033E+03  0.51912501546E+03  0.57012167061E+03  0.12508873346E+03 0.  0.
         23    2    1    2    0    0 -0.40439990559E+02  0.19561532033E+03  0.47195259603E+03  0.52060591650E+03  0.91599787158E+02 0.  0.
          5    1    3    3  502    0 -0.59858456874E+01 -0.25287490287E+02  0.22879670582E+03  0.23030565019E+03  0.41800000000E+01 0. -1.
         -5    1    3    3    0  502  0.46425836247E+02 -0.17032783004E+03  0.29032830963E+03  0.33981602042E+03  0.41800000000E+01 0. -1.
        -11    1    4    4    0    0 -0.53419900545E+02  0.10686677430E+03  0.18733752883E+03  0.22219258073E+03  0.00000000000E+00 0.  1.
         11    1    4    4    0    0  0.12979909986E+02  0.88748546031E+02  0.28461506720E+03  0.29841333577E+03  0.00000000000E+00 0. -1.
</event>
<event>
 8    1  0.6648599E-009  0.8591079E+02  0.7561462E-02  0.1313068E+00
         -1   -1    0    0    0  501 -0.00000000000E+00  0.00000000000E+00  0.73438804015E+02  0.73438804015E+02  0.00000000000E+00 0. -1.
          1   -1    0    0  501    0  0.00000000000E+00 -0.00000000000E+00 -0.19990483505E+03  0.19990483505E+03  0.00000000000E+00 0.  1.
         25    2    1    2    0    0 -0.45729195086E+02 -0.13863841617E+02 -0.39764931326E+02  0.13968687082E+03  0.12509119365E+03 0.  0.
         23    2    1    2    0    0  0.45729195086E+02  0.13863841617E+02 -0.86701099709E+02  0.13365676824E+03  0.89798026809E+02 0.  0.
          5    1    3    3  502    0 -0.38794140970E+01 -0.42610639598E+02  0.30634223405E+02  0.52788677804E+02  0.41800000000E+01 0. -1.
         -5    1    3    3    0  502 -0.41849780989E+02  0.28746797981E+02 -0.70399154731E+02  0.86898193018E+02  0.41800000000E+01 0. -1.
        -11    1    4    4    0    0  0.15445235687E+02 -0.24529934831E+02  0.52995343524E+01  0.29467915987E+02  0.00000000000E+00 0. -1.
         11    1    4    4    0    0  0.30283959399E+02  0.38393776448E+02 -0.92000634062E+02  0.10418885226E+03  0.00000000000E+00 0.  1.
</event>
<event>
 8    1  0.6648599E-009  0.1298057E+03  0.7561462E-02  0.1227744E+00
          1   -1    0    0  501    0  0.00000000000E+00  0.00000000000E+00  0.67076871305E+02  0.67076871305E+02  0.00000000000E+00 0. -1.
         -1   -1    0    0    0  501 -0.00000000000E+00 -0.00000000000E+00 -0.34997696613E+03  0.34997696613E+03  0.00000000000E+00 0.  1.
         25    2    1    2    0    0 -0.62530054134E+02  0.82689559204E+02 -0.20299120765E+03  0.25999849497E+03  0.12508483575E+03 0.  0.
         23    2    1    2    0    0  0.62530054134E+02 -0.82689559204E+02 -0.79908887175E+02  0.15705534246E+03  0.86795042916E+02 0.  0.
          5    1    3    3  502    0 -0.61297137753E+02 -0.81570235704E+01 -0.12762807883E+03  0.14188120043E+03  0.41800000000E+01 0. -1.
         -5    1    3    3    0  502 -0.12329163812E+01  0.90846582774E+02 -0.75363128823E+02  0.11811729454E+03  0.41800000000E+01 0. -1.
        -11    1    4    4    0    0  0.50791614107E+02 -0.47333331245E+02 -0.94314654325E+02  0.11711313475E+03  0.00000000000E+00 0.  1.
         11    1    4    4    0    0  0.11738440028E+02 -0.35356227959E+02  0.14405767150E+02  0.39942207713E+02  0.00000000000E+00 0. -1.
</event>
<event>
 8    1  0.6648599E-009  0.1740475E+03  0.7561462E-02  0.1173692E+00
          3   -1    0    0  501    0  0.00000000000E+00  0.00000000000E+00  0.11598198085E+04  0.11598198085E+04  0.00000000000E+00 0. -1.
         -3   -1    0    0    0  501 -0.00000000000E+00 -0.00000000000E+00 -0.29471122860E+02  0.29471122860E+02  0.00000000000E+00 0.  1.
         25    2    1    2    0    0  0.12301477317E+03 -0.75120072741E+02  0.47343329958E+03  0.51045344250E+03  0.12509183851E+03 0.  0.
         23    2    1    2    0    0 -0.12301477317E+03  0.75120072741E+02  0.65691538601E+03  0.67883748882E+03  0.92232597783E+02 0.  0.
          5    1    3    3  502    0  0.24888428770E+02  0.32976214080E+02  0.69914083214E+02  0.81316148540E+02  0.41800000000E+01 0.  1.
         -5    1    3    3    0  502  0.98126344396E+02 -0.10809628682E+03  0.40351921637E+03  0.42913729396E+03  0.41800000000E+01 0.  1.
        -11    1    4    4    0    0 -0.11116779987E+03  0.31827804911E+02  0.56294033728E+03  0.57469392918E+03  0.00000000000E+00 0.  1.
         11    1    4    4    0    0 -0.11846973300E+02  0.43292267830E+02  0.93975048733E+02  0.10414355964E+03  0.00000000000E+00 0. -1.
</event>
<event>
 8    1  0.6648599E-009  0.9355722E+02  0.7561462E-02  0.1294459E+00
         -3   -1    0    0    0  501 -0.00000000000E+00  0.00000000000E+00  0.12607648197E+03  0.12607648197E+03  0.00000000000E+00 0. -1.
          3   -1    0    0  501    0  0.00000000000E+00 -0.00000000000E+00 -0.14072531825E+03  0.14072531825E+03  0.00000000000E+00 0.  1.
         25    2    1    2    0    0 -0.63551158800E+02  0.30590809666E+02 -0.38324118767E+02  0.14862959013E+03  0.12508984596E+03 0.  0.
         23    2    1    2    0    0  0.63551158800E+02 -0.30590809666E+02  0.23675282490E+02  0.11817221009E+03  0.91812879362E+02 0.  0.
          5    1    3    3  502    0 -0.49834571259E+02  0.25381490657E+02  0.39966850888E+02  0.68866001267E+02  0.41800000000E+01 0. -1.
         -5    1    3    3    0  502 -0.13716587540E+02  0.52093190094E+01 -0.78290969655E+02  0.79763588860E+02  0.41800000000E+01 0. -1.
        -11    1    4    4    0    0  0.57447174737E+02 -0.61565986624E+02  0.17258016124E+02  0.85955731134E+02  0.00000000000E+00 0.  1.
         11    1    4    4    0    0  0.61039840627E+01  0.30975176957E+02  0.64172663657E+01  0.32216478960E+02  0.00000000000E+00 0. -1.
</event>
<event>
 8    1  0.6648599E-009  0.2310328E+03  0.7561462E-02  0.1125915E+00
         -2   -1    0    0    0  501 -0.00000000000E+00  0.00000000000E+00  0.21905707845E+03  0.21905707845E+03  0.00000000000E+00 0.  1.
          2   -1    0    0  501    0  0.00000000000E+00 -0.00000000000E+00 -0.26145516919E+03  0.26145516919E+03  0.00000000000E+00 0. -1.
         25    2    1    2    0    0  0.16120527453E+01  0.20975265185E+03 -0.60574075998E+02  0.25162597548E+03  0.12509052395E+03 0.  0.
         23    2    1    2    0    0 -0.16120527453E+01 -0.20975265185E+03  0.18175985257E+02  0.22888627216E+03  0.89776307950E+02 0.  0.
          5    1    3    3  502    0 -0.98053615707E+01 -0.15322797173E+02 -0.22648015381E+01  0.18802525222E+02  0.41800000000E+01 0.  1.
         -5    1    3    3    0  502  0.11417414316E+02  0.22507544902E+03 -0.58309274460E+02  0.23282345026E+03  0.41800000000E+01 0.  1.
        -11    1    4    4    0    0 -0.28658999136E+02 -0.69805860532E+02 -0.25754003974E+02  0.79733713803E+02  0.00000000000E+00 0. -1.
         11    1    4    4    0    0  0.27046946391E+02 -0.13994679132E+03  0.43929989232E+02  0.14915255835E+03  0.00000000000E+00 0.  1.
</event>
<event>
 8    1  0.6648599E-009  0.8823385E+02  0.7561462E-02  0.1307186E+00
          1   -1    0    0  501    0  0.00000000000E+00  0.00000000000E+00  0.73637711829E+02  0.73637711829E+02  0.00000000000E+00 0. -1.
         -1   -1    0    0    0  501 -0.00000000000E+00 -0.00000000000E+00 -0.19819718999E+03  0.19819718999E+03  0.00000000000E+00 0.  1.
         25    2    1    2    0    0 -0.10579961408E+02 -0.45133898760E+00 -0.12880955845E+02  0.12619547351E+03  0.12508892525E+03 0.  0.
         23    2    1    2    0    0  0.10579961408E+02  0.45133898760E+00 -0.11167852232E+03  0.14563942831E+03  0.92879553411E+02 0.  0.
          5    1    3    3  502    0 -0.47016307777E+02 -0.19157933326E+00 -0.53581802195E+02  0.71407645431E+02  0.41800000000E+01 0.  1.
         -5    1    3    3    0  502  0.36436346369E+02 -0.25975965434E+00  0.40700846350E+02  0.54787828077E+02  0.41800000000E+01 0.  1.
        -11    1    4    4    0    0 -0.10308330140E+02 -0.43085144087E+02 -0.43453982376E+02  0.62055135933E+02  0.00000000000E+00 0. -1.
         11    1    4    4    0    0  0.20888291548E+02  0.43536483075E+02 -0.68224539940E+02  0.83584292378E+02  0.00000000000E+00 0.  1.
</event>
<event>
 8    1  0.6648599E-009  0.1116716E+03  0.7561462E-02  0.1257505E+00
         -2   -1    0    0    0  501 -0.00000000000E+00  0.00000000000E+00  0.21369667388E+03  0.21369667388E+03  0.00000000000E+00 0.  1.
          2   -1    0    0  501    0  0.00000000000E+00 -0.00000000000E+00 -0.85711492320E+02  0.85711492320E+02  0.00000000000E+00 0. -1.
         25    2    1    2    0    0  0.49246582371E+02 -0.14258305889E+02  0.14146678756E+03  0.19567831464E+03  0.12509446701E+03 0.  0.
         23    2    1    2    0    0 -0.49246582371E+02  0.14258305889E+02 -0.13481606004E+02  0.10372985156E+03  0.89160547563E+02 0.  0.
          5    1    3    3  502    0  0.89915241120E+02 -0.23278258085E+02  0.90859546508E+02  0.12999829798E+03  0.41800000000E+01 0. -1.
         -5    1    3    3    0  502 -0.40668658749E+02  0.90199521958E+01  0.50607241057E+02  0.65680016667E+02  0.41800000000E+01 0. -1.
        -11    1    4    4    0    0  0.11545843802E+02  0.24284773015E+02  0.20087937846E+02  0.33564593792E+02  0.00000000000E+00 0.  1.
         11    1    4    4    0    0 -0.60792426174E+02 -0.10026467126E+02 -0.33569543850E+02  0.70165257766E+02  0.00000000000E+00 0. -1.
</event>
<event>
 7    1  0.6648599E-009  0.1684030E+03  0.7561462E-02  0.1179524E+00
         -4   -1    0    0    0  501 -0.00000000000E+00  0.00000000000E+00  0.22879407146E+03  0.22879407146E+03  0.00000000000E+00 0.  1.
          4   -1    0    0  501    0  0.00000000000E+00 -0.00000000000E+00 -0.20961399664E+03  0.20961399664E+03  0.00000000000E+00 0. -1.
         23    2    1    2    0    0  0.68675756243E+02  0.14310006925E+03 -0.95836002329E+02  0.20623942994E+03  0.90311537513E+02 0.  0.
          5    1    1    2  502    0 -0.45475148484E+02 -0.23887970743E+02 -0.15520172340E+02  0.53823530406E+02  0.41800000000E+01 0. -1.
         -5    1    1    2    0  502 -0.23200607758E+02 -0.11921209850E+03  0.13053624948E+03  0.17834510775E+03  0.41800000000E+01 0. -1.
        -11    1    3    3    0    0  0.26813231457E+02  0.10052505816E+03 -0.14060184035E+02  0.10498535838E+03  0.00000000000E+00 0. -1.
         11    1    3    3    0    0  0.41862524785E+02  0.42575011082E+02 -0.81775818293E+02  0.10125407156E+03  0.00000000000E+00 0.  1.
</event>
<event>
 8    1  0.6648599E-009  0.1032275E+03  0.7561462E-02  0.1273652E+00
          1   -1    0    0  501    0  0.00000000000E+00  0.00000000000E+00  0.54321523962E+03  0.54321523962E+03  0.00000000000E+00 0. -1.
         -1   -1    0    0    0  501 -0.00000000000E+00 -0.00000000000E+00 -0.38848230043E+02  0.38848230043E+02  0.00000000000E+00 0.  1.
         25    2    1    2    0    0  0.20975710733E+02  0.85245670981E+02  0.35665470047E+03  0.38801573928E+03  0.12508730432E+03 0.  0.
         23    2    1    2    0    0 -0.20975710733E+02 -0.85245670981E+02  0.14771230911E+03  0.19404773038E+03  0.90159805580E+02 0.  0.
          5    1    3    3  502    0  0.12793500711E+02  0.67099795254E+02  0.36082116398E+03  0.36725391892E+03  0.41800000000E+01 0.  1.
         -5    1    3    3    0  502  0.81822100223E+01  0.18145875727E+02 -0.41664635107E+01  0.20761820367E+02  0.41800000000E+01 0.  1.
        -11    1    4    4    0    0  0.11690443050E+02  0.10993344982E+02  0.52080502837E+02  0.54496778514E+02  0.00000000000E+00 0. -1.
         11    1    4    4    0    0 -0.32666153783E+02 -0.96239015963E+02  0.95631806271E+02  0.13955095187E+03  0.00000000000E+00 0.  1.
</event>
<event>
 8    1  0.6648599E-009  0.1066107E+03  0.7561462E-02  0.1266978E+00
         -1   -1    0    0    0  501 -0.00000000000E+00  0.00000000000E+00  0.26829787401E+02  0.26829787401E+02  0.00000000000E+00 0.  1.
          1   -1    0    0  501    0  0.00000000000E+00 -0.00000000000E+00 -0.62607924145E+03  0.62607924145E+03  0.00000000000E+00 0. -1.
         25    2    1    2    0    0  0.25521271377E+02 -0.49556006978E+02 -0.44125989406E+03  0.46202116760E+03  0.12508449978E+03 0.  0.
         23    2    1    2    0    0 -0.25521271377E+02  0.49556006978E+02 -0.15798955999E+03  0.19088786125E+03  0.91489569822E+02 0.  0.
          5    1    3    3  502    0 -0.19070621047E+02  0.32067723668E+02 -0.19851273025E+03  0.20203169048E+03  0.41800000000E+01 0. -1.
         -5    1    3    3    0  502  0.44591892424E+02 -0.81623730646E+02 -0.24274716381E+03  0.25998947712E+03  0.41800000000E+01 0. -1.
        -11    1    4    4    0    0 -0.45237964382E+02  0.27284483576E+02 -0.32733050495E+02  0.62147961030E+02  0.00000000000E+00 0.  1.
         11    1    4    4    0    0  0.19716693005E+02  0.22271523402E+02 -0.12525650949E+03  0.12873990022E+03  0.00000000000E+00 0. -1.
</event>
<event>
 8    1  0.6648599E-009  0.1206486E+03  0.7561462E-02  0.1242031E+00
         -2   -1    0    0    0  501 -0.00000000000E+00  0.00000000000E+00  0.30532362349E+02  0.30532362349E+02  0.00000000000E+00 0.  1.
          2   -1    0    0  501    0  0.00000000000E+00 -0.00000000000E+00 -0.69660345224E+03  0.69660345224E+03  0.00000000000E+00 0. -1.
         25    2    1    2    0    0  0.51912874712E+02  0.56950687024E+02 -0.51252485811E+03  0.53316493369E+03  0.12507913103E+03 0.  0.
         23    2    1    2    0    0 -0.51912874712E+02 -0.56950687024E+02 -0.15354623178E+03  0.19397088090E+03  0.90055149938E+02 0.  0.
          5    1    3    3  502    0  0.17048534021E+02 -0.33098203127E+02 -0.26159569357E+03  0.26426487254E+03  0.41800000000E+01 0.  1.
         -5    1    3    3    0  502  0.34864340691E+02  0.90048890151E+02 -0.25092916454E+03  0.26890006115E+03  0.41800000000E+01 0.  1.
        -11    1    4    4    0    0 -0.70503918522E+02 -0.35978917510E+02 -0.69362557562E+02  0.10524471209E+03  0.00000000000E+00 0.  1.
         11    1    4    4    0    0  0.18591043810E+02 -0.20971769514E+02 -0.84183674218E+02  0.88726168808E+02  0.00000000000E+00 0. -1.
</event>
<event>
 8    1  0.6648599E-009  0.1302717E+03  0.7561462E-02  0.1227053E+00
          2   -1    0    0  501    0  0.00000000000E+00  0.00000000000E+00  0.34075949811E+03  0.34075949811E+03  0.00000000000E+00 0. -1.
         -2   -1    0    0    0  501 -0.00000000000E+00 -0.00000000000E+00 -0.90559436432E+02  0.90559436432E+02  0.00000000000E+00 0.  1.
         25    2    1    2    0    0  0.69031891066E+02 -0.62158708299E+02  0.25538680879E+03  0.29916368115E+03  0.12508948402E+03 0.  0.
         23    2    1    2    0    0 -0.69031891066E+02  0.62158708299E+02 -0.51867471081E+01  0.13215525340E+03  0.93856281905E+02 0.  0.
          5    1    3    3  502    0  0.59787440418E+02  0.16649468226E+02  0.52938774473E+02  0.81680652952E+02  0.41800000000E+01 0. -1.
         -5    1    3    3    0  502  0.92444506480E+01 -0.78808176525E+02  0.20244803431E+03  0.21748302819E+03  0.41800000000E+01 0. -1.
        -11    1    4    4    0    0 -0.91457728851E+01  0.58146525310E+02 -0.31339527338E+02  0.66684552492E+02  0.00000000000E+00 0.  1.
         11    1    4    4    0    0 -0.59886118181E+02  0.40121829894E+01  0.26152780230E+02  0.65470700904E+02  0.00000000000E+00 0. -1.
</event>
<event>
 8    1  0.6648599E-009  0.1259706E+03  0.7561462E-02  0.1233560E+00
         -1   -1    0    0    0  501 -0.00000000000E+00  0.00000000000E+00  0.20540306626E+02  0.20540306626E+02  0.00000000000E+00 0.  1.
          1   -1    0    0  501    0  0.00000000000E+00 -0.00000000000E+00 -0.92110525905E+03  0.92110525905E+03  0.00000000000E+00 0. -1.
         25    2    1    2    0    0 -0.32599441797E+02  0.60220374771E+02 -0.64657873822E+03  0.66211797187E+03  0.12508767653E+03 0.  0.
         23    2    1    2    0    0  0.32599441797E+02 -0.60220374771E+02 -0.25398621421E+03  0.27952759381E+03  0.94538148641E+02 0.  0.
          5    1    3    3  502    0  0.46057857374E+02  0.88437230522E+01 -0.17306191779E+03  0.17935282951E+03  0.41800000000E+01 0. -1.
         -5    1    3    3    0  502 -0.78657299170E+02  0.51376651718E+02 -0.47351682043E+03  0.48276514236E+03  0.41800000000E+01 0. -1.
        -11    1    4    4    0    0  0.35477627506E+02  0.12815252556E+02 -0.48587601415E+02  0.61511362875E+02  0.00000000000E+00 0.  1.
         11    1    4    4    0    0 -0.28781857093E+01 -0.73035627327E+02 -0.20539861279E+03  0.21801623093E+03  0.00000000000E+00 0. -1.
</event>
<event>
 8    1  0.6648599E-009  0.2324097E+03  0.7561462E-02  0.1124955E+00
         -2   -1    0    0    0  501 -0.00000000000E+00  0.00000000000E+00  0.84392632653E+02  0.84392632653E+02  0.00000000000E+00 0. -1.
          2   -1    0    0  501    0  0.00000000000E+00 -0.00000000000E+00 -0.11379410278E+04  0.11379410278E+04  0.00000000000E+00 0.  1.
         25    2    1    2    0    0  0.20291168466E+03 -0.32457422657E+02 -0.94007733063E+03  0.97037105128E+03  0.12509178045E+03 0.  0.
         23    2    1    2    0    0 -0.20291168466E+03  0.32457422657E+02 -0.11347106454E+03  0.25196260919E+03  0.91557839023E+02 0.  0.
          5    1    3    3  502    0  0.12252946360E+01  0.29041349477E+02 -0.13196100601E+03  0.13518905589E+03  0.41800000000E+01 0. -1.
         -5    1    3    3    0  502  0.20168639003E+03 -0.61498772135E+02 -0.80811632462E+03  0.83518199538E+03  0.41800000000E+01 0. -1.
        -11    1    4    4    0    0 -0.10716574700E+03  0.62685792586E+02 -0.70255275231E+02  0.14265275890E+03  0.00000000000E+00 0.  1.
         11    1    4    4    0    0 -0.95745937660E+02 -0.30228369929E+02 -0.43215789306E+02  0.10930985030E+03  0.00000000000E+00 0. -1.
</event>
<event>
 8    1  0.6648599E-009  0.9033329E+02  0.7561462E-02  0.1302047E+00
          2   -1    0    0  501    0  0.00000000000E+00  0.00000000000E+00  0.55693163350E+03  0.55693163350E+03  0.00000000000E+00 0. -1.
         -2   -1    0    0    0  501 -0.00000000000E+00 -0.00000000000E+00 -0.28843616562E+02  0.28843616562E+02  0.00000000000E+00 0.  1.
         25    2    1    2    0    0  0.27640939298E+02  0.86890038062E+01  0.40798411259E+03  0.42771187975E+03  0.12508755188E+03 0.  0.
         23    2    1    2    0    0 -0.27640939298E+02 -0.86890038062E+01  0.12010390435E+03  0.15806337032E+03  0.98587833346E+02 0.  0.
          5    1    3    3  502    0  0.33259445235E+02 -0.27925575608E+02  0.44494915691E+02  0.62316116637E+02  0.41800000000E+01 0. -1.
         -5    1    3    3    0  502 -0.56185059368E+01  0.36614579414E+02  0.36348919690E+03  0.36539576311E+03  0.41800000000E+01 0. -1.
        -11    1    4    4    0    0  0.87590982752E+00 -0.49755131190E+02  0.40967857661E+02  0.64457006284E+02  0.00000000000E+00 0.  1.
         11    1    4    4    0    0 -0.28516849126E+02  0.41066127384E+02  0.79136046685E+02  0.93606364032E+02  0.00000000000E+00 0. -1.
</event>
<event>
 8    1  0.6648599E-009  0.1352693E+03  0.7561462E-02  0.1219840E+00
          1   -1    0    0  501    0  0.00000000000E+00  0.00000000000E+00  0.14016992125E+03  0.14016992125E+03  0.00000000000E+00 0. -1.
         -1   -1    0    0    0  501 -0.00000000000E+00 -0.00000000000E+00 -0.19854131649E+03  0.19854131649E+03  0.00000000000E+00 0.  1.
         25    2    1    2    0    0 -0.72627063043E+02 -0.97782923018E+02 -0.84357666433E+02  0.19390595970E+03  0.12508842873E+03 0.  0.
         23    2    1    2    0    0  0.72627063043E+02  0.97782923018E+02  0.25986271186E+02  0.14480527804E+03  0.73872132346E+02 0.  0.
          5    1    3    3  502    0  0.16257427843E+02 -0.11895315774E+02  0.22482909950E+02  0.30475500607E+02  0.41800000000E+01 0. -1.
         -5    1    3    3    0  502 -0.88884490886E+02 -0.85887607244E+02 -0.10684057638E+03  0.16343045909E+03  0.41800000000E+01 0. -1.
        -11    1    4    4    0    0  0.45952486189E+00  0.20682710600E+02 -0.20766975557E+02  0.29313016812E+02  0.00000000000E+00 0.  1.
         11    1    4    4    0    0  0.72167538181E+02  0.77100212418E+02  0.46753246742E+02  0.11549226123E+03  0.00000000000E+00 0. -1.
</event>
<event>
 8    1  0.6648599E-009  0.1114736E+03  0.7561462E-02  0.1257865E+00
         -1   -1    0    0    0  501 -0.00000000000E+00  0.00000000000E+00  0.87650948322E+02  0.87650948322E+02  0.00000000000E+00 0.  1.
          1   -1    0    0  501    0  0.00000000000E+00 -0.00000000000E+00 -0.16260168597E+03  0.16260168597E+03  0.00000000000E+00 0. -1.
         25    2    1    2    0    0  0.35166987854E+02 -0.34332783205E+02 -0.41161090123E+02  0.14055848345E+03  0.12508794863E+03 0.  0.
         23    2    1    2    0    0 -0.35166987854E+02  0.34332783205E+02 -0.33789647523E+02  0.10969415084E+03  0.92063073007E+02 0.  0.
          5    1    3    3  502    0  0.37289185780E+02  0.36169410026E+02  0.10327936130E+02  0.53130483364E+02  0.41800000000E+01 0.  1.
         -5    1    3    3    0  502 -0.21221979260E+01 -0.70502193231E+02 -0.51489026253E+02  0.87428000085E+02  0.41800000000E+01 0.  1.
        -11    1    4    4    0    0 -0.61514203221E+02  0.39795935450E+02 -0.37879101469E+02  0.82477512113E+02  0.00000000000E+00 0. -1.
         11    1    4    4    0    0  0.26347215367E+02 -0.54631522452E+01  0.40894539462E+01  0.27216638727E+02  0.00000000000E+00 0.  1.
</event>
<event>
 8    1  0.6648599E-009  0.1318882E+03  0.7561462E-02  0.1224681E+00
         -2   -1    0    0    0  501 -0.00000000000E+00  0.00000000000E+00  0.27916383673E+02  0.27916383673E+02  0.00000000000E+00 0.  1.
          2   -1    0    0  501    0  0.00000000000E+00 -0.00000000000E+00 -0.10971875514E+04  0.10971875514E+04  0.00000000000E+00 0. -1.
         25    2    1    2    0    0  0.74526424560E+02  0.83410731972E+02 -0.82146957799E+03  0.83843478928E+03  0.12509632346E+03 0.  0.
         23    2    1    2    0    0 -0.74526424560E+02 -0.83410731972E+02 -0.24780158974E+03  0.28666914580E+03  0.90895726573E+02 0.  0.
          5    1    3    3  502    0 -0.39037886182E+01  0.62980029088E+02 -0.58538208254E+03  0.58878805914E+03  0.41800000000E+01 0.  1.
         -5    1    3    3    0  502  0.78430213178E+02  0.20430702884E+02 -0.23608749545E+03  0.24964673014E+03  0.41800000000E+01 0.  1.
        -11    1    4    4    0    0 -0.65645359101E+02 -0.44106083748E+02 -0.74174499878E+02  0.10842746989E+03  0.00000000000E+00 0.  1.
         11    1    4    4    0    0 -0.88810654585E+01 -0.39304648224E+02 -0.17362708986E+03  0.17824167591E+03  0.00000000000E+00 0. -1.
</event>
<event>
 8    1  0.6648599E-009  0.1200221E+03  0.7561462E-02  0.1243061E+00
         -1   -1    0    0    0  501 -0.00000000000E+00  0.00000000000E+00  0.12312005841E+03  0.12312005841E+03  0.00000000000E+00 0.  1.
          1   -1    0    0  501    0  0.00000000000E+00 -0.00000000000E+00 -0.19782856219E+03  0.19782856219E+03  0.00000000000E+00 0. -1.
         25    2    1    2    0    0 -0.10566653109E+03  0.25155706336E+02 -0.15585166936E+02  0.16643690613E+03  0.12514040491E+03 0.  0.
         23    2    1    2    0    0  0.10566653109E+03 -0.25155706336E+02 -0.59123336840E+02  0.15451171447E+03  0.92628697473E+02 0.  0.
          5    1    3    3  502    0 -0.10139160302E+03  0.38546594585E+02  0.34773940174E+02  0.11398594840E+03  0.41800000000E+01 0.  1.
         -5    1    3    3    0  502 -0.42749280687E+01 -0.13390888249E+02 -0.50359107110E+02  0.52450957732E+02  0.41800000000E+01 0.  1.
        -11    1    4    4    0    0  0.19045026262E+02  0.12067446512E+02  0.20979303935E+02  0.30797199292E+02  0.00000000000E+00 0.  1.
         11    1    4    4    0    0  0.86621504827E+02 -0.37223152848E+02 -0.80102640775E+02  0.12371451518E+03  0.00000000000E+00 0. -1.
</event>
<event>
 8    1  0.6648599E-009  0.1106895E+03  0.7561462E-02  0.1259298E+00
          2   -1    0    0  501    0  0.00000000000E+00  0.00000000000E+00  0.84867183539E+02  0.84867183539E+02  0.00000000000E+00 0. -1.
         -2   -1    0    0    0  501 -0.00000000000E+00 -0.00000000000E+00 -0.17007870744E+03  0.17007870744E+03  0.00000000000E+00 0.  1.
         25    2    1    2    0    0 -0.25179508860E+02 -0.16971265730E+02 -0.68030634588E+02  0.14559228022E+03  0.12508762245E+03 0.  0.
         23    2    1    2    0    0  0.25179508860E+02  0.16971265730E+02 -0.17180889317E+02  0.10935361076E+03  0.10363878474E+03 0.  0.
          5    1    3    3  502    0  0.49988044648E+02 -0.51650569504E+01 -0.40111130202E+02  0.64434909693E+02  0.41800000000E+01 0. -1.
         -5    1    3    3    0  502 -0.75167553508E+02 -0.11806208780E+02 -0.27919504386E+02  0.81157370530E+02  0.41800000000E+01 0. -1.
        -11    1    4    4    0    0  0.48180830033E+02 -0.19213853459E+02 -0.35365850120E+02  0.62779836748E+02  0.00000000000E+00 0.  1.
         11    1    4    4    0    0 -0.23001321173E+02  0.36185119189E+02  0.18184960804E+02  0.46573774013E+02  0.00000000000E+00 0. -1.
</event>
<event>
 8    1  0.6648599E-009  0.1044918E+03  0.7561462E-02  0.1271124E+00
          1   -1    0    0  501    0  0.00000000000E+00  0.00000000000E+00  0.73283576337E+02  0.73283576337E+02  0.00000000000E+00 0. -1.
         -1   -1    0    0    0  501 -0.00000000000E+00 -0.00000000000E+00 -0.22910373530E+03  0.22910373530E+03  0.00000000000E+00 0.  1.
         25    2    1    2    0    0  0.81044623631E+01 -0.28812267465E+02 -0.16040875810E+03  0.20561203814E+03  0.12509800752E+03 0.  0.
         23    2    1    2    0    0 -0.81044623631E+01  0.28812267465E+02  0.45885991316E+01  0.96775273500E+02  0.91916098984E+02 0.  0.
          5    1    3    3  502    0  0.59707171375E+02 -0.39036522545E+02 -0.65084647247E+02  0.96655471202E+02  0.41800000000E+01 0. -1.
         -5    1    3    3    0  502 -0.51602709012E+02  0.10224255080E+02 -0.95324110850E+02  0.10895656694E+03  0.41800000000E+01 0. -1.
        -11    1    4    4    0    0  0.29499830036E+01 -0.27352692932E+02  0.23818102238E+02  0.36389204506E+02  0.00000000000E+00 0. -1.
         11    1    4    4    0    0 -0.11054445367E+02  0.56164960397E+02 -0.19229503107E+02  0.60386068994E+02  0.00000000000E+00 0.  1.
</event>
<event>
 8    1  0.6648599E-009  0.2205498E+03  0.7561462E-02  0.1133474E+00
          1   -1    0    0  501    0  0.00000000000E+00  0.00000000000E+00  0.35750400437E+03  0.35750400437E+03  0.00000000000E+00 0. -1.
         -1   -1    0    0    0  501 -0.00000000000E+00 -0.00000000000E+00 -0.16589875361E+03  0.16589875361E+03  0.00000000000E+00 0.  1.
         25    2    1    2    0    0  0.47148441888E+02  0.21023765803E+03  0.67202117088E+02  0.25804409696E+03  0.12509109884E+03 0.  0.
         23    2    1    2    0    0 -0.47148441888E+02 -0.21023765803E+03  0.12440313368E+03  0.26535866102E+03  0.92283426901E+02 0.  0.
          5    1    3    3  502    0  0.61149850617E+02  0.12726416143E+03  0.93955122754E+02  0.16964819040E+03  0.41800000000E+01 0.  1.
         -5    1    3    3    0  502 -0.14001408728E+02  0.82973496603E+02 -0.26753005666E+02  0.88395906563E+02  0.41800000000E+01 0.  1.
        -11    1    4    4    0    0 -0.18419707173E+02 -0.99518539238E+02  0.70080524117E+01  0.10145116097E+03  0.00000000000E+00 0.  1.
         11    1    4    4    0    0 -0.28728734715E+02 -0.11071911879E+03  0.11739508126E+03  0.16390750004E+03  0.00000000000E+00 0. -1.
</event>
<event>
 8    1  0.6648599E-009  0.1418096E+03  0.7561462E-02  0.1210915E+00
          2   -1    0    0  501    0  0.00000000000E+00  0.00000000000E+00  0.28527174914E+03  0.28527174914E+03  0.00000000000E+00 0. -1.
         -2   -1    0    0    0  501 -0.00000000000E+00 -0.00000000000E+00 -0.76233707811E+02  0.76233707811E+02  0.00000000000E+00 0.  1.
         25    2    1    2    0    0  0.89333240826E+02 -0.46018302523E+02  0.10428102650E+03  0.19135774667E+03  0.12508054460E+03 0.  0.
         23    2    1    2    0    0 -0.89333240826E+02  0.46018302523E+02  0.10475701482E+03  0.17014771028E+03  0.88758656344E+02 0.  0.
          5    1    3    3  502    0  0.50814888221E+02  0.38617690233E+02  0.23599629609E+02  0.68175463193E+02  0.41800000000E+01 0. -1.
         -5    1    3    3    0  502  0.38518352605E+02 -0.84635992756E+02  0.80681396896E+02  0.12318228348E+03  0.41800000000E+01 0. -1.
        -11    1    4    4    0    0 -0.88940407795E+02  0.88211232450E+01  0.97464378981E+02  0.13224036269E+03  0.00000000000E+00 0. -1.
         11    1    4    4    0    0 -0.39283303130E+00  0.37197179278E+02  0.72926358427E+01  0.37907347593E+02  0.00000000000E+00 0.  1.
</event>
<event>
 8    1  0.6648599E-009  0.1123239E+03  0.7561462E-02  0.1256326E+00
          2   -1    0    0  501    0  0.00000000000E+00  0.00000000000E+00  0.11329242338E+04  0.11329242338E+04  0.00000000000E+00 0.  1.
         -2   -1    0    0    0  501 -0.00000000000E+00 -0.00000000000E+00 -0.13721165572E+02  0.13721165572E+02  0.00000000000E+00 0. -1.
         25    2    1    2    0    0 -0.55102877456E+02 -0.26197847324E+02  0.57076294793E+03  0.58748538290E+03  0.12508428392E+03 0.  0.
         23    2    1    2    0    0  0.55102877456E+02  0.26197847324E+02  0.54844012031E+03  0.55916001649E+03  0.90281250330E+02 0.  0.
          5    1    3    3  502    0 -0.84267699383E+02 -0.67008783181E+01  0.51177668165E+03  0.51872805130E+03  0.41800000000E+01 0. -1.
         -5    1    3    3    0  502  0.29164821927E+02 -0.19496969006E+02  0.58986266279E+02  0.68757331594E+02  0.41800000000E+01 0. -1.
        -11    1    4    4    0    0 -0.93106366708E+01 -0.22225054189E+02  0.71274367984E+02  0.75237467530E+02  0.00000000000E+00 0. -1.
         11    1    4    4    0    0  0.64413514127E+02  0.48422901513E+02  0.47716575233E+03  0.48392254896E+03  0.00000000000E+00 0.  1.
</event>
<event>
 8    1  0.6648599E-009  0.9522649E+02  0.7561462E-02  0.1290667E+00
         -2   -1    0    0    0  501 -0.00000000000E+00  0.00000000000E+00  0.49322171653E+03  0.49322171653E+03  0.00000000000E+00 0.  1.
          2   -1    0    0  501    0  0.00000000000E+00 -0.00000000000E+00 -0.28397652892E+02  0.28397652892E+02  0.00000000000E+00 0. -1.
         25    2    1    2    0    0  0.35239452596E+02 -0.29182823051E+02  0.29183248248E+03  0.32079373679E+03  0.12509583348E+03 0.  0.
         23    2    1    2    0    0 -0.35239452596E+02  0.29182823051E+02  0.17299158115E+03  0.20082563263E+03  0.91166832725E+02 0.  0.
          5    1    3    3  502    0  0.44314398521E+02 -0.66189254797E+02  0.25666683794E+03  0.26877522480E+03  0.41800000000E+01 0.  1.
         -5    1    3    3    0  502 -0.90749459249E+01  0.37006431746E+02  0.35165644539E+02  0.52018511993E+02  0.41800000000E+01 0.  1.
        -11    1    4    4    0    0 -0.24938851364E+00  0.36591149978E+02  0.15776601563E+03  0.16195397537E+03  0.00000000000E+00 0.  1.
         11    1    4    4    0    0 -0.34990064083E+02 -0.74083269263E+01  0.15225565529E+02  0.38871657259E+02  0.00000000000E+00 0. -1.
</event>
<event>
 8    1  0.6648599E-009  0.1068735E+03  0.7561462E-02  0.1266472E+00
          2   -1    0    0  501    0  0.00000000000E+00  0.00000000000E+00  0.18759920302E+03  0.18759920302E+03  0.00000000000E+00 0. -1.
         -2   -1    0    0    0  501 -0.00000000000E+00 -0.00000000000E+00 -0.80121042892E+02  0.80121042892E+02  0.00000000000E+00 0.  1.
         25    2    1    2    0    0 -0.38714976335E+02 -0.42322539455E+02  0.58760481970E+02  0.14963483642E+03  0.12509094008E+03 0.  0.
         23    2    1    2    0    0  0.38714976335E+02  0.42322539455E+02  0.48717678163E+02  0.11808540949E+03  0.90998379279E+02 0.  0.
          5    1    3    3  502    0  0.36321585926E+02 -0.28453875547E+00  0.51580603234E+02  0.63224754618E+02  0.41800000000E+01 0. -1.
         -5    1    3    3    0  502 -0.75036562260E+02 -0.42038000699E+02  0.71798787356E+01  0.86410081804E+02  0.41800000000E+01 0. -1.
        -11    1    4    4    0    0  0.48503005302E+02  0.56108018117E+02  0.87399019557E+01  0.74679562844E+02  0.00000000000E+00 0.  1.
         11    1    4    4    0    0 -0.97880289673E+01 -0.13785478662E+02  0.39977776207E+02  0.43405846651E+02  0.00000000000E+00 0. -1.
</event>
<event>
 8    1  0.6648599E-009  0.1871081E+03  0.7561462E-02  0.1161096E+00
          1   -1    0    0  501    0  0.00000000000E+00  0.00000000000E+00  0.24029206980E+04  0.24029206980E+04  0.00000000000E+00 0. -1.
         -1   -1    0    0    0  501 -0.00000000000E+00 -0.00000000000E+00 -0.27041243984E+02  0.27041243984E+02  0.00000000000E+00 0.  1.
         25    2    1    2    0    0 -0.12816881480E+03  0.10564318326E+03  0.19831466079E+04  0.19940150973E+04  0.12505203994E+03 0.  0.
         23    2    1    2    0    0  0.12816881480E+03 -0.10564318326E+03  0.39273284620E+03  0.43594684474E+03  0.90679852772E+02 0.  0.
          5    1    3    3  502    0 -0.15316809947E+03  0.95301990937E+02  0.17409537529E+04  0.17502800856E+04  0.41800000000E+01 0.  1.
         -5    1    3    3    0  502  0.24999284673E+02  0.10341192319E+02  0.24219285499E+03  0.24373501164E+03  0.41800000000E+01 0.  1.
        -11    1    4    4    0    0  0.53968120560E+02 -0.50925022911E+02  0.76606781183E+02  0.10665137092E+03  0.00000000000E+00 0.  1.
         11    1    4    4    0    0  0.74200694238E+02 -0.54718160345E+02  0.31612606501E+03  0.32929547382E+03  0.00000000000E+00 0. -1.
</event>
<event>
 8    1  0.6648599E-009  0.1767351E+03  0.7561462E-02  0.1171001E+00
          2   -1    0    0  501    0  0.00000000000E+00  0.00000000000E+00  0.13365830109E+03  0.13365830109E+03  0.00000000000E+00 0. -1.
         -2   -1    0    0    0  501 -0.00000000000E+00 -0.00000000000E+00 -0.43501975736E+03  0.43501975736E+03  0.00000000000E+00 0.  1.
         25    2    1    2    0    0 -0.64097377635E+02 -0.12805243232E+03 -0.34567730113E+03  0.39452014425E+03  0.12508976163E+03 0.  0.
         23    2    1    2    0    0  0.64097377635E+02  0.12805243232E+03  0.44315844852E+02  0.17415791419E+03  0.88663327985E+02 0.  0.
          5    1    3    3  502    0  0.34963661033E+02 -0.12626599716E+02 -0.80995897279E+02  0.89217130582E+02  0.41800000000E+01 0. -1.
         -5    1    3    3    0  502 -0.99061038668E+02 -0.11542583260E+03 -0.26468140385E+03  0.30530301367E+03  0.41800000000E+01 0. -1.
        -11    1    4    4    0    0  0.73205795946E+02  0.13422887163E+03  0.51127076160E+02  0.16121555897E+03  0.00000000000E+00 0.  1.
         11    1    4    4    0    0 -0.91084183105E+01 -0.61764393113E+01 -0.68112313087E+01  0.12942355219E+02  0.00000000000E+00 0. -1.
</event>
<event>
 8    1  0.6648599E-009  0.2296929E+03  0.7561462E-02  0.1126856E+00
         -1   -1    0    0    0  501 -0.00000000000E+00  0.00000000000E+00  0.84769056587E+02  0.84769056587E+02  0.00000000000E+00 0.  1.
          1   -1    0    0  501    0  0.00000000000E+00 -0.00000000000E+00 -0.96620999052E+03  0.96620999052E+03  0.00000000000E+00 0. -1.
         25    2    1    2    0    0 -0.16190029479E+03 -0.14291907896E+03 -0.17584155933E+03  0.30529491201E+03  0.12508861150E+03 0.  0.
         23    2    1    2    0    0  0.16190029479E+03  0.14291907896E+03 -0.70559937460E+03  0.74568413510E+03  0.10740941913E+03 0.  0.
          5    1    3    3  502    0 -0.10070488897E+03 -0.66962367808E+02 -0.16841762754E+03  0.20738226305E+03  0.41800000000E+01 0. -1.
         -5    1    3    3    0  502 -0.61195405822E+02 -0.75956711147E+02 -0.74239317953E+01  0.97912648954E+02  0.41800000000E+01 0. -1.
        -11    1    4    4    0    0  0.12097160763E+03  0.35927040338E+02 -0.39244445757E+03  0.41223480488E+03  0.00000000000E+00 0.  1.
         11    1    4    4    0    0  0.40928687162E+02  0.10699203862E+03 -0.31315491703E+03  0.33344933022E+03  0.00000000000E+00 0. -1.
</event>
<event>
 8    1  0.6648599E-009  0.1214356E+03  0.7561462E-02  0.1240747E+00
         -1   -1    0    0    0  501 -0.00000000000E+00  0.00000000000E+00  0.46036080644E+03  0.46036080644E+03  0.00000000000E+00 0.  1.
          1   -1    0    0  501    0  0.00000000000E+00 -0.00000000000E+00 -0.33286221784E+02  0.33286221784E+02  0.00000000000E+00 0. -1.
         25    2    1    2    0    0  0.49996178877E+02 -0.32770876805E+02  0.22826281160E+03  0.26706811031E+03  0.12509163087E+03 0.  0.
         23    2    1    2    0    0 -0.49996178877E+02  0.32770876805E+02  0.19881177305E+03  0.22657891791E+03  0.90765283396E+02 0.  0.
          5    1    3    3  502    0 -0.22993510348E+02  0.32332768250E+02  0.53254311329E+02  0.66540239674E+02  0.41800000000E+01 0.  1.
         -5    1    3    3    0  502  0.72989689226E+02 -0.65103645055E+02  0.17500850027E+03  0.20052787063E+03  0.41800000000E+01 0.  1.
        -11    1    4    4    0    0 -0.73896351683E+02  0.33578448486E+02  0.17462018264E+03  0.19256269416E+03  0.00000000000E+00 0. -1.
         11    1    4    4    0    0  0.23900172805E+02 -0.80757168096E+00  0.24191590408E+02  0.34016223756E+02  0.00000000000E+00 0.  1.
</event>
<event>
 8    1  0.6648599E-009  0.7936044E+02  0.7561462E-02  0.1330876E+00
         -1   -1    0    0    0  501 -0.00000000000E+00  0.00000000000E+00  0.24267770684E+02  0.24267770684E+02  0.00000000000E+00 0.  1.
          1   -1    0    0  501    0  0.00000000000E+00 -0.00000000000E+00 -0.50467730657E+03  0.50467730657E+03  0.00000000000E+00 0. -1.
         25    2    1    2    0    0  0.20324549585E+01 -0.12232391911E+02 -0.32242043208E+03  0.34605647028E+03  0.12508550400E+03 0.  0.
         23    2    1    2    0    0 -0.20324549585E+01  0.12232391911E+02 -0.15798910380E+03  0.18288860697E+03  0.91290324550E+02 0.  0.
          5    1    3    3  502    0  0.12974825010E+02  0.34599546119E+02 -0.25155070015E+02  0.44896821971E+02  0.41800000000E+01 0.  1.
         -5    1    3    3    0  502 -0.10942370051E+02 -0.46831938030E+02 -0.29726536207E+03  0.30115964831E+03  0.41800000000E+01 0.  1.
        -11    1    4    4    0    0  0.14563683357E+02  0.39074264275E+02 -0.30796315422E+02  0.51839290554E+02  0.00000000000E+00 0.  1.
         11    1    4    4    0    0 -0.16596138315E+02 -0.26841872364E+02 -0.12719278838E+03  0.13104931642E+03  0.00000000000E+00 0. -1.
</event>
<event>
 8    1  0.6648599E-009  0.9454422E+02  0.7561462E-02  0.1292206E+00
          3   -1    0    0  501    0  0.00000000000E+00  0.00000000000E+00  0.23446323685E+02  0.23446323685E+02  0.00000000000E+00 0. -1.
         -3   -1    0    0    0  501 -0.00000000000E+00 -0.00000000000E+00 -0.65565740472E+03  0.65565740472E+03  0.00000000000E+00 0.  1.
         25    2    1    2    0    0 -0.49858802384E+01 -0.67563280618E+01 -0.52129560982E+03  0.53615952406E+03  0.12508962969E+03 0.  0.
         23    2    1    2    0    0  0.49858802384E+01  0.67563280618E+01 -0.11091547122E+03  0.14294420435E+03  0.89779155876E+02 0.  0.
          5    1    3    3  502    0 -0.19183926015E+02 -0.58183828004E+02 -0.16875560692E+03  0.17958092361E+03  0.41800000000E+01 0. -1.
         -5    1    3    3    0  502  0.14198045777E+02  0.51427499942E+02 -0.35254000290E+03  0.35657860045E+03  0.41800000000E+01 0. -1.
        -11    1    4    4    0    0 -0.30468690771E+02  0.19857651031E+02 -0.95379712914E+02  0.10207819090E+03  0.00000000000E+00 0.  1.
         11    1    4    4    0    0  0.35454571009E+02 -0.13101322969E+02 -0.15535758307E+02  0.40866013448E+02  0.00000000000E+00 0. -1.
</event>
<event>
 8    1  0.6648599E-009  0.6379604E+02  0.7561462E-02  0.1382558E+00
          1   -1    0    0  501    0  0.00000000000E+00  0.00000000000E+00  0.91344031694E+02  0.91344031694E+02  0.00000000000E+00 0. -1.
         -1   -1    0    0    0  501 -0.00000000000E+00 -0.00000000000E+00 -0.15268220190E+03  0.15268220190E+03  0.00000000000E+00 0.  1.
         25    2    1    2    0    0 -0.66468187420E+00  0.20056043792E+02  0.97168670597E+01  0.12706140240E+03  0.12508995076E+03 0.  0.
         23    2    1    2    0    0  0.66468187420E+00 -0.20056043792E+02 -0.71055037264E+02  0.11696483119E+03  0.90715305879E+02 0.  0.
          5    1    3    3  502    0 -0.10173810417E+02 -0.21527786213E+02 -0.48839104778E+02  0.54494793817E+02  0.41800000000E+01 0.  1.
         -5    1    3    3    0  502  0.95091285423E+01  0.41583830005E+02  0.58555971838E+02  0.72566608584E+02  0.41800000000E+01 0.  1.
        -11    1    4    4    0    0  0.27080543885E+02  0.49827430512E+00 -0.78184754191E+02  0.82743337631E+02  0.00000000000E+00 0.  1.
         11    1    4    4    0    0 -0.26415862010E+02 -0.20554318097E+02  0.71297169266E+01  0.34221493562E+02  0.00000000000E+00 0. -1.
</event>
<event>
 8    1  0.6648599E-009  0.1364393E+03  0.7561462E-02  0.1218202E+00
         -2   -1    0    0    0  501 -0.00000000000E+00  0.00000000000E+00  0.35120501957E+02  0.35120501957E+02  0.00000000000E+00 0.  1.
          2   -1    0    0  501    0  0.00000000000E+00 -0.00000000000E+00 -0.66647293281E+03  0.66647293281E+03  0.00000000000E+00 0. -1.
         25    2    1    2    0    0 -0.36326077979E+01 -0.91179232073E+02 -0.21052439238E+03  0.26133279141E+03  0.12508980725E+03 0.  0.
         23    2    1    2    0    0  0.36326077979E+01  0.91179232073E+02 -0.42082803847E+03  0.44026064336E+03  0.91686138124E+02 0.  0.
          5    1    3    3  502    0  0.17050885002E+02  0.28187720227E+02 -0.53416095271E+02  0.62896994244E+02  0.41800000000E+01 0. -1.
         -5    1    3    3    0  502 -0.20683492800E+02 -0.11936695230E+03 -0.15710829711E+03  0.19843579716E+03  0.41800000000E+01 0. -1.
        -11    1    4    4    0    0 -0.35990228713E+02  0.43722748484E+02 -0.11429271972E+03  0.12755313042E+03  0.00000000000E+00 0.  1.
         11    1    4    4    0    0  0.39622836510E+02  0.47456483589E+02 -0.30653531875E+03  0.31270751294E+03  0.00000000000E+00 0. -1.
</event>
<event>
 8    1  0.6648599E-009  0.8872362E+02  0.7561462E-02  0.1305972E+00
         -3   -1    0    0    0  501 -0.00000000000E+00  0.00000000000E+00  0.29846711908E+02  0.29846711908E+02  0.00000000000E+00 0.  1.
          3   -1    0    0  501    0  0.00000000000E+00 -0.00000000000E+00 -0.40519499098E+03  0.40519499098E+03  0.00000000000E+00 0. -1.
         25    2    1    2    0    0  0.21330390238E+02 -0.29014736972E+02 -0.21761048967E+03  0.25356872291E+03  0.12508369803E+03 0.  0.
         23    2    1    2    0    0 -0.21330390238E+02  0.29014736972E+02 -0.15773778940E+03  0.18147297998E+03  0.82185106609E+02 0.  0.
          5    1    3    3  502    0  0.37895022649E+02  0.24173754408E+02 -0.22155050846E+02  0.50286397979E+02  0.41800000000E+01 0. -1.
         -5    1    3    3    0  502 -0.16564632411E+02 -0.53188491381E+02 -0.19545543882E+03  0.20328232493E+03  0.41800000000E+01 0. -1.
        -11    1    4    4    0    0  0.11291636180E+02  0.40353232559E+02 -0.37026141124E+02  0.55917971639E+02  0.00000000000E+00 0.  1.
         11    1    4    4    0    0 -0.32622026418E+02 -0.11338495587E+02 -0.12071164828E+03  0.12555500834E+03  0.00000000000E+00 0. -1.
</event>
<event>
 8    1  0.6648599E-009  0.1360473E+03  0.7561462E-02  0.1218749E+00
          1   -1    0    0  501    0  0.00000000000E+00  0.00000000000E+00  0.39142762028E+03  0.39142762028E+03  0.00000000000E+00 0. -1.
         -1   -1    0    0    0  501 -0.00000000000E+00 -0.00000000000E+00 -0.77085392108E+02  0.77085392108E+02  0.00000000000E+00 0.  1.
         25    2    1    2    0    0 -0.64157994580E+02 -0.79578640877E+02  0.47369427504E+02  0.16834781733E+03  0.12509243216E+03 0.  0.
         23    2    1    2    0    0  0.64157994580E+02  0.79578640877E+02  0.26697280067E+03  0.30016519506E+03  0.91518630217E+02 0.  0.
          5    1    3    3  502    0 -0.28050112363E+02  0.20177465790E+02  0.51427278510E+02  0.62098118363E+02  0.41800000000E+01 0. -1.
         -5    1    3    3    0  502 -0.36107882216E+02 -0.99756106667E+02 -0.40578510058E+01  0.10624969897E+03  0.41800000000E+01 0. -1.
        -11    1    4    4    0    0 -0.10458072286E+02  0.49622020716E+02  0.14903538774E+03  0.15742700853E+03  0.00000000000E+00 0. -1.
         11    1    4    4    0    0  0.74616066866E+02  0.29956620160E+02  0.11793741293E+03  0.14273818653E+03  0.00000000000E+00 0.  1.
</event>
<event>
 8    1  0.6648599E-009  0.9584074E+02  0.7561462E-02  0.1289294E+00
          1   -1    0    0  501    0  0.00000000000E+00  0.00000000000E+00  0.39377085810E+03  0.39377085810E+03  0.00000000000E+00 0. -1.
         -1   -1    0    0    0  501 -0.00000000000E+00 -0.00000000000E+00 -0.30895301601E+02  0.30895301601E+02  0.00000000000E+00 0.  1.
         25    2    1    2    0    0 -0.18013829140E+02 -0.76653376634E+01  0.24646479884E+03  0.27708516358E+03  0.12509210753E+03 0.  0.
         23    2    1    2    0    0  0.18013829140E+02  0.76653376634E+01  0.11641075766E+03  0.14758099612E+03  0.88574434661E+02 0.  0.
          5    1    3    3  502    0 -0.53666479596E+02  0.33725676186E+02  0.18040533540E+03  0.19126178319E+03  0.41800000000E+01 0.  1.
         -5    1    3    3    0  502  0.35652650456E+02 -0.41391013850E+02  0.66059463435E+02  0.85823380389E+02  0.41800000000E+01 0.  1.
        -11    1    4    4    0    0  0.26799417132E+02 -0.26742278021E+02  0.10280078960E+03  0.10955072128E+03  0.00000000000E+00 0.  1.
         11    1    4    4    0    0 -0.87855879918E+01  0.34407615684E+02  0.13609968061E+02  0.38030274835E+02  0.00000000000E+00 0. -1.
</event>
<event>
 8    1  0.6648599E-009  0.7997478E+02  0.7561462E-02  0.1329123E+00
          1   -1    0    0  501    0  0.00000000000E+00  0.00000000000E+00  0.19801021904E+03  0.19801021904E+03  0.00000000000E+00 0. -1.
         -1   -1    0    0    0  501 -0.00000000000E+00 -0.00000000000E+00 -0.84514243007E+02  0.84514243007E+02  0.00000000000E+00 0.  1.
         25    2    1    2    0    0 -0.45421004836E+02 -0.37464337038E+02  0.20403349375E+02  0.13975086980E+03  0.12508942687E+03 0.  0.
         23    2    1    2    0    0  0.45421004836E+02  0.37464337038E+02  0.93092626660E+02  0.14277359225E+03  0.90837312132E+02 0.  0.
          5    1    3    3  502    0 -0.38786388528E+02 -0.32834864480E+02  0.71516569564E+02  0.87832820646E+02  0.41800000000E+01 0. -1.
         -5    1    3    3    0  502 -0.66346163084E+01 -0.46294725580E+01 -0.51113220189E+02  0.51918049153E+02  0.41800000000E+01 0. -1.
        -11    1    4    4    0    0  0.97037325989E+01  0.57897032772E+02  0.26307950418E+02  0.64329908172E+02  0.00000000000E+00 0.  1.
         11    1    4    4    0    0  0.35717272237E+02 -0.20432695734E+02  0.66784676241E+02  0.78443684078E+02  0.00000000000E+00 0. -1.
</event>
<event>
 8    1  0.6648599E-009  0.8756055E+02  0.7561462E-02  0.1308869E+00
         -1   -1    0    0    0  501 -0.00000000000E+00  0.00000000000E+00  0.80393549839E+02  0.80393549839E+02  0.00000000000E+00 0.  1.
          1   -1    0    0  501    0  0.00000000000E+00 -0.00000000000E+00 -0.22667613586E+03  0.22667613586E+03  0.00000000000E+00 0. -1.
         25    2    1    2    0    0  0.24492495635E+02 -0.25976972471E+02 -0.16051568774E+03  0.20660902588E+03  0.12508924064E+03 0.  0.
         23    2    1    2    0    0 -0.24492495635E+02  0.25976972471E+02  0.14233101716E+02  0.10046065982E+03  0.92817442033E+02 0.  0.
          5    1    3    3  502    0  0.22564126159E+01 -0.52116942777E+02 -0.16372791779E+03  0.17188825029E+03  0.41800000000E+01 0. -1.
         -5    1    3    3    0  502  0.22236083020E+02  0.26139970305E+02  0.32122300582E+01  0.34720775590E+02  0.41800000000E+01 0. -1.
        -11    1    4    4    0    0 -0.54000649502E+02  0.22512584721E+02 -0.13250783758E+02  0.59987247709E+02  0.00000000000E+00 0. -1.
         11    1    4    4    0    0  0.29508153867E+02  0.34643877507E+01  0.27483885474E+02  0.40473412110E+02  0.00000000000E+00 0.  1.
</event>
<event>
 7    1  0.6648599E-009  0.1821349E+03  0.7561462E-02  0.1165753E+00
         -3   -1    0    0    0  501 -0.00000000000E+00  0.00000000000E+00  0.88244096965E+02  0.88244096965E+02  0.00000000000E+00 0.  1.
          3   -1    0    0  501    0  0.00000000000E+00 -0.00000000000E+00 -0.47840681313E+03  0.47840681313E+03  0.00000000000E+00 0. -1.
         25    2    1    2    0    0  0.10504011130E+03 -0.11706090527E+03 -0.15748063747E+03  0.25531482853E+03  0.12509528355E+03 0.  0.
          5    1    3    3  502    0  0.74153557590E+02 -0.11670400716E+03 -0.17216843317E+03  0.22085745894E+03  0.41800000000E+01 0. -1.
         -5    1    3    3    0  502  0.30886553708E+02 -0.35689811703E+00  0.14687795707E+02  0.34457369588E+02  0.41800000000E+01 0. -1.
        -11    1    1    2    0    0 -0.19685060465E+01  0.87524204122E+02 -0.15812165577E+03  0.18073964520E+03  0.00000000000E+00 0. -1.
         11    1    1    2    0    0 -0.10307160525E+03  0.29536701152E+02 -0.74560422933E+02  0.13059643637E+03  0.00000000000E+00 0.  1.
</event>
<event>
 8    1  0.6648599E-009  0.2123574E+03  0.7561462E-02  0.1139713E+00
          1   -1    0    0  501    0  0.00000000000E+00  0.00000000000E+00  0.14568612899E+03  0.14568612899E+03  0.00000000000E+00 0. -1.
         -1   -1    0    0    0  501 -0.00000000000E+00 -0.00000000000E+00 -0.50364844736E+03  0.50364844736E+03  0.00000000000E+00 0.  1.
         25    2    1    2    0    0 -0.20074798593E+03 -0.59452237786E+02 -0.25645603809E+02  0.24523359605E+03  0.12508995646E+03 0.  0.
         23    2    1    2    0    0  0.20074798593E+03  0.59452237786E+02 -0.33231671456E+03  0.40410098029E+03  0.95020424480E+02 0.  0.
          5    1    3    3  502    0 -0.58805029605E+02 -0.60831157528E+01 -0.65550617525E+02  0.88370762484E+02  0.41800000000E+01 0.  1.
         -5    1    3    3    0  502 -0.14194295632E+03 -0.53369122033E+02  0.39905013717E+02  0.15686283357E+03  0.41800000000E+01 0.  1.
        -11    1    4    4    0    0  0.24318093938E+02  0.23242182288E+02 -0.10372617648E+02  0.35201703470E+02  0.00000000000E+00 0. -1.
         11    1    4    4    0    0  0.17642989199E+03  0.36210055498E+02 -0.32194409691E+03  0.36889927682E+03  0.00000000000E+00 0.  1.
</event>
<event>
 8    1  0.6648599E-009  0.2611325E+03  0.7561462E-02  0.1106465E+00
         -2   -1    0    0    0  501 -0.00000000000E+00  0.00000000000E+00  0.26630031442E+04  0.26630031442E+04  0.00000000000E+00 0.  1.
          2   -1    0    0  501    0  0.00000000000E+00 -0.00000000000E+00 -0.28848172007E+02  0.28848172007E+02  0.00000000000E+00 0. -1.
         25    2    1    2    0    0  0.24421026318E+03 -0.45142075099E+02  0.16325567271E+04  0.16560698865E+04  0.12509812960E+03 0.  0.
         23    2    1    2    0    0 -0.24421026318E+03  0.45142075099E+02  0.10015982451E+04  0.10357814298E+04  0.89261783890E+02 0.  0.
          5    1    3    3  502    0  0.17959767770E+03 -0.84092013947E+02  0.10432927706E+04  0.10619812005E+04  0.41800000000E+01 0.  1.
         -5    1    3    3    0  502  0.64612585486E+02  0.38949938848E+02  0.58926395654E+03  0.59408868599E+03  0.41800000000E+01 0.  1.
        -11    1    4    4    0    0 -0.10551162871E+03  0.20160091502E+02  0.61468926557E+03  0.62400482874E+03  0.00000000000E+00 0.  1.
         11    1    4    4    0    0 -0.13869863447E+03  0.24981983597E+02  0.38690897954E+03  0.41177660104E+03  0.00000000000E+00 0. -1.
</event>
<event>
 8    1  0.6648599E-009  0.9717893E+02  0.7561462E-02  0.1286343E+00
          2   -1    0    0  501    0  0.00000000000E+00  0.00000000000E+00  0.42470899387E+03  0.42470899387E+03  0.00000000000E+00 0. -1.
         -2   -1    0    0    0  501 -0.00000000000E+00 -0.00000000000E+00 -0.30449263283E+02  0.30449263283E+02  0.00000000000E+00 0.  1.
         25    2    1    2    0    0  0.23307851531E+02  0.85185413173E+01  0.17147181297E+03  0.21369352176E+03  0.12508603882E+03 0.  0.
         23    2    1    2    0    0 -0.23307851531E+02 -0.85185413173E+01  0.22278791761E+03  0.24146473539E+03  0.89749321525E+02 0.  0.
          5    1    3    3  502    0 -0.30467037769E+02 -0.30032932499E+02  0.12644317980E+03  0.13354986912E+03  0.41800000000E+01 0. -1.
         -5    1    3    3    0  502  0.53774889300E+02  0.38551473816E+02  0.45028633176E+02  0.80143652639E+02  0.41800000000E+01 0. -1.
        -11    1    4    4    0    0 -0.49363686489E+02 -0.23871197103E+02  0.90930870528E+02  0.10618394799E+03  0.00000000000E+00 0.  1.
         11    1    4    4    0    0  0.26055834959E+02  0.15352655786E+02  0.13185704708E+03  0.13528078740E+03  0.00000000000E+00 0. -1.
</event>
<event>
 8    1  0.6648599E-009  0.1025796E+03  0.7561462E-02  0.1274963E+00
          2   -1    0    0  501    0  0.00000000000E+00  0.00000000000E+00  0.94975031853E+02  0.94975031853E+02  0.00000000000E+00 0.  1.
         -2   -1    0    0    0  501 -0.00000000000E+00 -0.00000000000E+00 -0.13798243443E+03  0.13798243443E+03  0.00000000000E+00 0. -1.
         25    2    1    2    0    0  0.35225662338E+02 -0.16475253690E+01 -0.57825859444E+02  0.14224976286E+03  0.12509038087E+03 0.  0.
         23    2    1    2    0    0 -0.35225662338E+02  0.16475253690E+01  0.14818456867E+02  0.90707703427E+02  0.82248034445E+02 0.  0.
          5    1    3    3  502    0  0.76348158412E+02 -0.95226217488E+00 -0.64914601174E+02  0.10030616104E+03  0.41800000000E+01 0. -1.
         -5    1    3    3    0  502 -0.41122496074E+02 -0.69526319414E+00  0.70887417301E+01  0.41943601820E+02  0.41800000000E+01 0. -1.
        -11    1    4    4    0    0  0.76264984227E+01  0.33245023501E+02  0.15490850565E+02  0.37461467096E+02  0.00000000000E+00 0.  1.
         11    1    4    4    0    0 -0.42852160761E+02 -0.31597498132E+02 -0.67239369763E+00  0.53246236330E+02  0.00000000000E+00 0. -1.
</event>
<event>
 8    1  0.6648599E-009  0.1301842E+03  0.7561462E-02  0.1227183E+00
          1   -1    0    0  501    0  0.00000000000E+00  0.00000000000E+00  0.86188725642E+03  0.86188725642E+03  0.00000000000E+00 0. -1.
         -1   -1    0    0    0  501 -0.00000000000E+00 -0.00000000000E+00 -0.32104120550E+02  0.32104120550E+02  0.00000000000E+00 0.  1.
         25    2    1    2    0    0 -0.74217089479E+02  0.48348315993E+02  0.67973074227E+03  0.69679737772E+03  0.12508783947E+03 0.  0.
         23    2    1    2    0    0  0.74217089479E+02 -0.48348315993E+02  0.15005239359E+03  0.19719399924E+03  0.92325600372E+02 0.  0.
          5    1    3    3  502    0 -0.76371757628E+02 -0.11491154411E+02  0.22073139762E+03  0.23388996192E+03  0.41800000000E+01 0.  1.
         -5    1    3    3    0  502  0.21546681493E+01  0.59839470403E+02  0.45899934465E+03  0.46290741580E+03  0.41800000000E+01 0.  1.
        -11    1    4    4    0    0  0.87426449633E+02 -0.17111995589E+02  0.81636378526E+02  0.12083336786E+03  0.00000000000E+00 0.  1.
         11    1    4    4    0    0 -0.13209360155E+02 -0.31236320404E+02  0.68416015068E+02  0.76360631387E+02  0.00000000000E+00 0. -1.
</event>
<event>
 8    1  0.6648599E-009  0.1634103E+03  0.7561462E-02  0.1184899E+00
         -1   -1    0    0    0  501 -0.00000000000E+00  0.00000000000E+00  0.11818753595E+03  0.11818753595E+03  0.00000000000E+00 0.  1.
          1   -1    0    0  501    0  0.00000000000E+00 -0.00000000000E+00 -0.31448924167E+03  0.31448924167E+03  0.00000000000E+00 0. -1.
         25    2    1    2    0    0  0.13037137942E+03  0.75887176787E+02 -0.46756033015E+02  0.20146968311E+03  0.12509335082E+03 0.  0.
         23    2    1    2    0    0 -0.13037137942E+03 -0.75887176787E+02 -0.14954567270E+03  0.23120709451E+03  0.91308554671E+02 0.  0.
          5    1    3    3  502    0  0.22597860169E+02  0.14105448903E+02 -0.70004153784E+02  0.75017870670E+02  0.41800000000E+01 0.  1.
         -5    1    3    3    0  502  0.10777351925E+03  0.61781727884E+02  0.23248120769E+02  0.12645181244E+03  0.41800000000E+01 0.  1.
        -11    1    4    4    0    0 -0.29240846727E+02 -0.68120501108E+02 -0.52572462314E+02  0.90880655710E+02  0.00000000000E+00 0.  1.
         11    1    4    4    0    0 -0.10113053269E+03 -0.77666756784E+01 -0.96973210391E+02  0.14032643880E+03  0.00000000000E+00 0. -1.
</event>
<event>
 8    1  0.6648599E-009  0.8050839E+02  0.7561462E-02  0.1327615E+00
          2   -1    0    0  501    0  0.00000000000E+00  0.00000000000E+00  0.24974825582E+03  0.24974825582E+03  0.00000000000E+00 0. -1.
         -2   -1    0    0    0  501 -0.00000000000E+00 -0.00000000000E+00 -0.82928868832E+02  0.82928868832E+02  0.00000000000E+00 0.  1.
         25    2    1    2    0    0 -0.17092261699E+02 -0.68223843143E+01  0.20007503200E+03  0.23667722407E+03  0.12508956641E+03 0.  0.
         23    2    1    2    0    0  0.17092261699E+02  0.68223843143E+01 -0.33255645009E+02  0.95999900589E+02  0.88155275795E+02 0.  0.
          5    1    3    3  502    0  0.26008040588E+02 -0.11756462863E+02 -0.29780711619E+01  0.28999550033E+02  0.41800000000E+01 0.  1.
         -5    1    3    3    0  502 -0.43100302287E+02  0.49340785482E+01  0.20305310316E+03  0.20767767403E+03  0.41800000000E+01 0.  1.
        -11    1    4    4    0    0  0.63776446924E+01 -0.40025436972E+02 -0.66595637261E+01  0.41073832858E+02  0.00000000000E+00 0. -1.
         11    1    4    4    0    0  0.10714617007E+02  0.46847821286E+02 -0.26596081283E+02  0.54926067731E+02  0.00000000000E+00 0.  1.
</event>
<event>
 8    1  0.6648599E-009  0.1077190E+03  0.7561462E-02  0.1264853E+00
         -3   -1    0    0    0  501 -0.00000000000E+00  0.00000000000E+00  0.25466225674E+03  0.25466225674E+03  0.00000000000E+00 0.  1.
          3   -1    0    0  501    0  0.00000000000E+00 -0.00000000000E+00 -0.60264443795E+02  0.60264443795E+02  0.00000000000E+00 0. -1.
         25    2    1    2    0    0 -0.34430035179E+01  0.50132961525E+01  0.35421974692E+02  0.13014983576E+03  0.12508907244E+03 0.  0.
         23    2    1    2    0    0  0.34430035179E+01 -0.50132961525E+01  0.15897583825E+03  0.18477686477E+03  0.93979706305E+02 0.  0.
          5    1    3    3  502    0 -0.64119413523E+02  0.21081834229E+01  0.16226260188E+02  0.66306165230E+02  0.41800000000E+01 0.  1.
         -5    1    3    3    0  502  0.60676410005E+02  0.29051127296E+01  0.19195714504E+02  0.63843670527E+02  0.41800000000E+01 0.  1.
        -11    1    4    4    0    0 -0.84049462018E+00 -0.47524441512E+02  0.10971198627E+03  0.11956587684E+03  0.00000000000E+00 0.  1.
         11    1    4    4    0    0  0.42834981380E+01  0.42511145359E+02  0.49263851978E+02  0.65210987937E+02  0.00000000000E+00 0. -1.
</event>
<event>
 8    1  0.6648599E-009  0.1809372E+03  0.7561462E-02  0.1166899E+00
         -1   -1    0    0    0  501 -0.00000000000E+00  0.00000000000E+00  0.12442928804E+03  0.12442928804E+03  0.00000000000E+00 0.  1.
          1   -1    0    0  501    0  0.00000000000E+00 -0.00000000000E+00 -0.34205776221E+03  0.34205776221E+03  0.00000000000E+00 0. -1.
         25    2    1    2    0    0 -0.14504980665E+03  0.14819891673E+02 -0.22301821439E+03  0.29435201381E+03  0.12508760324E+03 0.  0.
         23    2    1    2    0    0  0.14504980665E+03 -0.14819891673E+02  0.53897402112E+01  0.17213503644E+03  0.91336443284E+02 0.  0.
          5    1    3    3  502    0 -0.12700419850E+03 -0.38986549570E+02 -0.13432296540E+03  0.18897129125E+03  0.41800000000E+01 0.  1.
         -5    1    3    3    0  502 -0.18045608154E+02  0.53806441243E+02 -0.88695248984E+02  0.10538072255E+03  0.41800000000E+01 0.  1.
        -11    1    4    4    0    0  0.77973163928E+02  0.37936448064E+02  0.29990031304E+01  0.86763946455E+02  0.00000000000E+00 0.  1.
         11    1    4    4    0    0  0.67076642725E+02 -0.52756339737E+02  0.23907370808E+01  0.85371089986E+02  0.00000000000E+00 0. -1.
</event>
<event>
 8    1  0.6648599E-009  0.1396553E+03  0.7561462E-02  0.1213794E+00
         -2   -1    0    0    0  501 -0.00000000000E+00  0.00000000000E+00  0.54552711368E+03  0.54552711368E+03  0.00000000000E+00 0. -1.
          2   -1    0    0  501    0  0.00000000000E+00 -0.00000000000E+00 -0.40542248802E+02  0.40542248802E+02  0.00000000000E+00 0.  1.
         25    2    1    2    0    0  0.94957446891E+02 -0.36228935024E+02  0.24894046256E+03  0.29656017419E+03  0.12508849094E+03 0.  0.
         23    2    1    2    0    0 -0.94957446891E+02  0.36228935024E+02  0.25604440232E+03  0.28950918829E+03  0.89035844978E+02 0.  0.
          5    1    3    3  502    0  0.29804543078E+01 -0.60362396921E+02  0.61437632849E+02  0.86281847453E+02  0.41800000000E+01 0. -1.
         -5    1    3    3    0  502  0.91976992583E+02  0.24133461897E+02  0.18750282971E+03  0.21027832674E+03  0.41800000000E+01 0. -1.
        -11    1    4    4    0    0 -0.56149457039E+02  0.56592961140E+02  0.21562178059E+03  0.22988753129E+03  0.00000000000E+00 0.  1.
         11    1    4    4    0    0 -0.38807989852E+02 -0.20364026115E+02  0.40422621726E+02  0.59621656998E+02  0.00000000000E+00 0. -1.
</event>
<event>
 8    1  0.6648599E-009  0.9379605E+02  0.7561462E-02  0.1293911E+00
         -2   -1    0    0    0  501 -0.00000000000E+00  0.00000000000E+00  0.37510297059E+02  0.37510297059E+02  0.00000000000E+00 0.  1.
          2   -1    0    0  501    0  0.00000000000E+00 -0.00000000000E+00 -0.42907506968E+03  0.42907506968E+03  0.00000000000E+00 0. -1.
         25    2    1    2    0    0  0.65261105194E+02  0.87120959216E+01 -0.24072668317E+03  0.27916369997E+03  0.12509245750E+03 0.  0.
         23    2    1    2    0    0 -0.65261105194E+02 -0.87120959216E+01 -0.15083808945E+03  0.18742166677E+03  0.89665151985E+02 0.  0.
          5    1    3    3  502    0  0.19439964614E+02  0.36568633851E+02 -0.10763722710E+02  0.42994270926E+02  0.41800000000E+01 0.  1.
         -5    1    3    3    0  502  0.45821140580E+02 -0.27856537929E+02 -0.22996296046E+03  0.23616942904E+03  0.41800000000E+01 0.  1.
        -11    1    4    4    0    0 -0.41311514711E+02 -0.36759713971E+02 -0.13749863792E+03  0.14820186655E+03  0.00000000000E+00 0. -1.
         11    1    4    4    0    0 -0.23949590483E+02  0.28047618049E+02 -0.13339451532E+02  0.39219800226E+02  0.00000000000E+00 0.  1.
</event>
<event>
 8    1  0.6648599E-009  0.9246604E+02  0.7561462E-02  0.1296987E+00
         -1   -1    0    0    0  501 -0.00000000000E+00  0.00000000000E+00  0.26629321886E+02  0.26629321886E+02  0.00000000000E+00 0.  1.
          1   -1    0    0  501    0  0.00000000000E+00 -0.00000000000E+00 -0.55442756845E+03  0.55442756845E+03  0.00000000000E+00 0. -1.
         25    2    1    2    0    0 -0.49492145819E+02  0.26677783234E+01 -0.34997158018E+03  0.37494518361E+03  0.12508874545E+03 0.  0.
         23    2    1    2    0    0  0.49492145819E+02 -0.26677783234E+01 -0.17782666639E+03  0.20611170673E+03  0.91668548772E+02 0.  0.
          5    1    3    3  502    0 -0.68028736820E+02 -0.36685051925E+01 -0.34821067139E+03  0.35483730220E+03  0.41800000000E+01 0. -1.
         -5    1    3    3    0  502  0.18536591001E+02  0.63362835160E+01 -0.17609087853E+01  0.20107881402E+02  0.41800000000E+01 0. -1.
        -11    1    4    4    0    0  0.42712055539E+02 -0.40111005974E+02 -0.14295782174E+03  0.15449968054E+03  0.00000000000E+00 0.  1.
         11    1    4    4    0    0  0.67800902805E+01  0.37443227650E+02 -0.34868844649E+02  0.51612026197E+02  0.00000000000E+00 0. -1.
</event>
<event>
 8    1  0.6648599E-009  0.1918089E+03  0.7561462E-02  0.1156840E+00
         -1   -1    0    0    0  501 -0.00000000000E+00  0.00000000000E+00  0.38080228000E+03  0.38080228000E+03  0.00000000000E+00 0.  1.
          1   -1    0    0  501    0  0.00000000000E+00 -0.00000000000E+00 -0.10826975436E+03  0.10826975436E+03  0.00000000000E+00 0. -1.
         25    2    1    2    0    0 -0.12170655356E+03 -0.11381882345E+03  0.10417986124E+03  0.23298285563E+03  0.12514135119E+03 0.  0.
         23    2    1    2    0    0  0.12170655356E+03  0.11381882345E+03  0.16835266440E+03  0.25608917874E+03  0.97323368741E+02 0.  0.
          5    1    3    3  502    0 -0.14744589472E+03 -0.98350192332E+02  0.95857496971E+02  0.20154201628E+03  0.41800000000E+01 0.  1.
         -5    1    3    3    0  502  0.25739341157E+02 -0.15468631119E+02  0.83223642711E+01  0.31440839349E+02  0.41800000000E+01 0.  1.
        -11    1    4    4    0    0  0.96440784054E+02  0.11576281713E+03  0.94124930347E+02  0.17765516365E+03  0.00000000000E+00 0. -1.
         11    1    4    4    0    0  0.25265769509E+02 -0.19439936750E+01  0.74227734051E+02  0.78434015087E+02  0.00000000000E+00 0.  1.
</event>
<event>
 8    1  0.6648599E-009  0.1304700E+03  0.7561462E-02  0.1226760E+00
         -1   -1    0    0    0  501 -0.00000000000E+00  0.00000000000E+00  0.38400843542E+02  0.38400843542E+02  0.00000000000E+00 0.  1.
          1   -1    0    0  501    0  0.00000000000E+00 -0.00000000000E+00 -0.59698689714E+03  0.59698689714E+03  0.00000000000E+00 0. -1.
         25    2    1    2    0    0 -0.68655567634E+02 -0.26753185969E+02 -0.14676988787E+03  0.20644418522E+03  0.12509389153E+03 0.  0.
         23    2    1    2    0    0  0.68655567634E+02  0.26753185969E+02 -0.41181616573E+03  0.42894355546E+03  0.94713776687E+02 0.  0.
          5    1    3    3  502    0 -0.81883299066E+01  0.47970030406E+02 -0.53491200186E+02  0.72435857565E+02  0.41800000000E+01 0. -1.
         -5    1    3    3    0  502 -0.60467237727E+02 -0.74723216375E+02 -0.93278687683E+02  0.13400832765E+03  0.41800000000E+01 0. -1.
        -11    1    4    4    0    0  0.52066688725E+01 -0.30185175992E+02 -0.16500078880E+03  0.16781988725E+03  0.00000000000E+00 0.  1.
         11    1    4    4    0    0  0.63448898761E+02  0.56938361961E+02 -0.24681537692E+03  0.26112366822E+03  0.00000000000E+00 0. -1.
</event>
<event>
 8    1  0.6648599E-009  0.1042118E+03  0.7561462E-02  0.1271680E+00
         -1   -1    0    0    0  501 -0.00000000000E+00  0.00000000000E+00  0.45649082935E+02  0.45649082935E+02  0.00000000000E+00 0.  1.
          1   -1    0    0  501    0  0.00000000000E+00 -0.00000000000E+00 -0.42904098287E+03  0.42904098287E+03  0.00000000000E+00 0. -1.
         25    2    1    2    0    0 -0.10758250958E+02 -0.75932298687E+02 -0.13643697882E+03  0.20035796649E+03  0.12508721597E+03 0.  0.
         23    2    1    2    0    0  0.10758250958E+02  0.75932298687E+02 -0.24695492111E+03  0.27433209932E+03  0.91596472125E+02 0.  0.
          5    1    3    3  502    0  0.41876714572E+02 -0.60449939283E+02 -0.12355837454E+03  0.14384713658E+03  0.41800000000E+01 0. -1.
         -5    1    3    3    0  502 -0.52634965530E+02 -0.15482359404E+02 -0.12878604282E+02  0.56510829912E+02  0.41800000000E+01 0. -1.
        -11    1    4    4    0    0  0.17058747753E+02  0.43919347558E+02 -0.23485361255E+03  0.23953314863E+03  0.00000000000E+00 0. -1.
         11    1    4    4    0    0 -0.63004967948E+01  0.32012951129E+02 -0.12101308562E+02  0.34798950685E+02  0.00000000000E+00 0.  1.
</event>
<event>
 8    1  0.6648599E-009  0.1295822E+03  0.7561462E-02  0.1228077E+00
          1   -1    0    0  501    0  0.00000000000E+00  0.00000000000E+00  0.21942008795E+03  0.21942008795E+03  0.00000000000E+00 0. -1.
         -1   -1    0    0    0  501 -0.00000000000E+00 -0.00000000000E+00 -0.11017526698E+03  0.11017526698E+03  0.00000000000E+00 0.  1.
         25    2    1    2    0    0 -0.44684513656E+01 -0.10145603223E+03  0.22556373766E+02  0.16269802133E+03  0.12509421494E+03 0.  0.
         23    2    1    2    0    0  0.44684513656E+01  0.10145603223E+03  0.86688447207E+02  0.16689733360E+03  0.10013260982E+03 0.  0.
          5    1    3    3  502    0  0.35186043157E+02  0.10561149422E+02  0.23466491884E+02  0.43792055804E+02  0.41800000000E+01 0.  1.
         -5    1    3    3    0  502 -0.39654494523E+02 -0.11201718165E+03 -0.91011811771E+00  0.11890596552E+03  0.41800000000E+01 0.  1.
        -11    1    4    4    0    0  0.10931630115E+02  0.83335816020E+02  0.10886739019E+03  0.13753714922E+03  0.00000000000E+00 0. -1.
         11    1    4    4    0    0 -0.64631787494E+01  0.18120216212E+02 -0.22178942982E+02  0.29360184381E+02  0.00000000000E+00 0.  1.
</event>
<event>
 8    1  0.6648599E-009  0.1126640E+03  0.7561462E-02  0.1255715E+00
         -2   -1    0    0    0  501 -0.00000000000E+00  0.00000000000E+00  0.15312288594E+03  0.15312288594E+03  0.00000000000E+00 0.  1.
          2   -1    0    0  501    0  0.00000000000E+00 -0.00000000000E+00 -0.99408300844E+02  0.99408300844E+02  0.00000000000E+00 0. -1.
         25    2    1    2    0    0 -0.40585539499E+02 -0.33669794163E+02  0.30971888122E+02  0.13924599294E+03  0.12509735266E+03 0.  0.
         23    2    1    2    0    0  0.40585539499E+02  0.33669794163E+02  0.22742696978E+02  0.11328519385E+03  0.97649699557E+02 0.  0.
          5    1    3    3  502    0 -0.27574683927E+02  0.39776912139E+02  0.41382916760E+02  0.63816801335E+02  0.41800000000E+01 0. -1.
         -5    1    3    3    0  502 -0.13010855571E+02 -0.73446706302E+02 -0.10411028638E+02  0.75429191608E+02  0.41800000000E+01 0. -1.
        -11    1    4    4    0    0  0.50763628332E+02 -0.14510555418E+02  0.33965776441E+02  0.62778787414E+02  0.00000000000E+00 0.  1.
         11    1    4    4    0    0 -0.10178088833E+02  0.48180349581E+02 -0.11223079463E+02  0.50506406432E+02  0.00000000000E+00 0. -1.
</event>
<event>
 8    1  0.6648599E-009  0.2422190E+03  0.7561462E-02  0.1118323E+00
         -2   -1    0    0    0  501 -0.00000000000E+00  0.00000000000E+00  0.63091023152E+03  0.63091023152E+03  0.00000000000E+00 0.  1.
          2   -1    0    0  501    0  0.00000000000E+00 -0.00000000000E+00 -0.12845227440E+03  0.12845227440E+03  0.00000000000E+00 0. -1.
         25    2    1    2    0    0  0.81377682279E+02 -0.21187409683E+03  0.43028961950E+03  0.50230415105E+03  0.12508934179E+03 0.  0.
         23    2    1    2    0    0 -0.81377682279E+02  0.21187409683E+03  0.72168337616E+02  0.25705835487E+03  0.96735561059E+02 0.  0.
          5    1    3    3  502    0 -0.20790710321E+02 -0.11349442539E+03  0.16396545982E+03  0.20053773372E+03  0.41800000000E+01 0.  1.
         -5    1    3    3    0  502  0.10216839260E+03 -0.98379671442E+02  0.26632415969E+03  0.30176641734E+03  0.41800000000E+01 0.  1.
        -11    1    4    4    0    0 -0.27540677072E+02  0.62318931589E+02 -0.22862155604E+02  0.71866656294E+02  0.00000000000E+00 0. -1.
         11    1    4    4    0    0 -0.53837005207E+02  0.14955516524E+03  0.95030493219E+02  0.18519169858E+03  0.00000000000E+00 0.  1.
</event>
<event>
 8    1  0.6648599E-009  0.1147302E+03  0.7561462E-02  0.1252053E+00
          2   -1    0    0  501    0  0.00000000000E+00  0.00000000000E+00  0.51611386441E+02  0.51611386441E+02  0.00000000000E+00 0. -1.
         -2   -1    0    0    0  501 -0.00000000000E+00 -0.00000000000E+00 -0.27953062780E+03  0.27953062780E+03  0.00000000000E+00 0.  1.
         25    2    1    2    0    0 -0.61721146827E+02 -0.13870030213E+02 -0.14843233506E+03  0.20416073742E+03  0.12509025106E+03 0.  0.
         23    2    1    2    0    0  0.61721146827E+02  0.13870030213E+02 -0.79486906301E+02  0.12698127682E+03  0.76185291794E+02 0.  0.
          5    1    3    3  502    0 -0.46335831362E+02 -0.68479693762E+02 -0.79425820740E+02  0.11472755173E+03  0.41800000000E+01 0.  1.
         -5    1    3    3    0  502 -0.15385315465E+02  0.54609663548E+02 -0.69006514320E+02  0.89433185694E+02  0.41800000000E+01 0.  1.
        -11    1    4    4    0    0 -0.61877749995E+01 -0.14821479235E+02  0.30135463902E+01  0.16341550355E+02  0.00000000000E+00 0.  1.
         11    1    4    4    0    0  0.67908921826E+02  0.28691509448E+02 -0.82500452691E+02  0.11063972647E+03  0.00000000000E+00 0. -1.
</event>
<event>
 8    1  0.6648599E-009  0.1189037E+03  0.7561462E-02  0.1244917E+00
          2   -1    0    0  501    0  0.00000000000E+00  0.00000000000E+00  0.49799546045E+02  0.49799546045E+02  0.00000000000E+00 0. -1.
         -2   -1    0    0    0  501 -0.00000000000E+00 -0.00000000000E+00 -0.32107501030E+03  0.32107501030E+03  0.00000000000E+00 0.  1.
         25    2    1    2    0    0 -0.50497655406E+02  0.14992480445E+02 -0.20743478573E+03  0.24789469369E+03  0.12509117137E+03 0.  0.
         23    2    1    2    0    0  0.50497655406E+02 -0.14992480445E+02 -0.63840678522E+02  0.12297986266E+03  0.90959478415E+02 0.  0.
          5    1    3    3  502    0 -0.33879538193E+02 -0.53927903495E+02 -0.84127935185E+02  0.10559840795E+03  0.41800000000E+01 0.  1.
         -5    1    3    3    0  502 -0.16618117213E+02  0.68920383939E+02 -0.12330685055E+03  0.14229628573E+03  0.41800000000E+01 0.  1.
        -11    1    4    4    0    0  0.23454340941E+02  0.37318431860E+02 -0.15273820615E+02  0.46648269654E+02  0.00000000000E+00 0. -1.
         11    1    4    4    0    0  0.27043314464E+02 -0.52310912305E+02 -0.48566857907E+02  0.76331593003E+02  0.00000000000E+00 0.  1.
</event>
<event>
 8    1  0.6648599E-009  0.1094150E+03  0.7561462E-02  0.1261657E+00
          1   -1    0    0  501    0  0.00000000000E+00  0.00000000000E+00  0.10061690971E+04  0.10061690971E+04  0.00000000000E+00 0. -1.
         -1   -1    0    0    0  501 -0.00000000000E+00 -0.00000000000E+00 -0.18576230963E+02  0.18576230963E+02  0.00000000000E+00 0.  1.
         25    2    1    2    0    0  0.75635877594E+02 -0.36908413873E+02  0.57434729084E+03  0.59380576396E+03  0.12508979900E+03 0.  0.
         23    2    1    2    0    0 -0.75635877594E+02  0.36908413873E+02  0.41324557528E+03  0.43093956409E+03  0.88622713896E+02 0.  0.
          5    1    3    3  502    0  0.79713980432E+02 -0.40935001467E+02  0.57861479560E+03  0.58552758014E+03  0.41800000000E+01 0.  1.
         -5    1    3    3    0  502 -0.40781028386E+01  0.40265875933E+01 -0.42675047560E+01  0.82781838136E+01  0.41800000000E+01 0.  1.
        -11    1    4    4    0    0 -0.90000952102E+02  0.87592701234E+01  0.31639418343E+03  0.32906257080E+03  0.00000000000E+00 0.  1.
         11    1    4    4    0    0  0.14365074508E+02  0.28149143750E+02  0.96851391850E+02  0.10187699329E+03  0.00000000000E+00 0. -1.
</event>
<event>
 8    1  0.6648599E-009  0.1583444E+03  0.7561462E-02  0.1190579E+00
          1   -1    0    0  501    0  0.00000000000E+00  0.00000000000E+00  0.29475908151E+03  0.29475908151E+03  0.00000000000E+00 0. -1.
         -1   -1    0    0    0  501 -0.00000000000E+00 -0.00000000000E+00 -0.12395395756E+03  0.12395395756E+03  0.00000000000E+00 0.  1.
         25    2    1    2    0    0 -0.12472839185E+03  0.33490601126E+02 -0.72965715833E+01  0.17994858932E+03  0.12509781271E+03 0.  0.
         23    2    1    2    0    0  0.12472839185E+03 -0.33490601126E+02  0.17810169553E+03  0.23876444975E+03  0.92787156527E+02 0.  0.
          5    1    3    3  502    0  0.24058854817E+02 -0.54258339869E+01  0.53495388733E+01  0.25580424854E+02  0.41800000000E+01 0.  1.
         -5    1    3    3    0  502 -0.14878724667E+03  0.38916435113E+02 -0.12646110457E+02  0.15436816447E+03  0.41800000000E+01 0.  1.
        -11    1    4    4    0    0  0.95649176723E+02 -0.46040157815E+02  0.17781574835E+03  0.20709152928E+03  0.00000000000E+00 0. -1.
         11    1    4    4    0    0  0.29079215126E+02  0.12549556689E+02  0.28594718717E+00  0.31672920472E+02  0.00000000000E+00 0.  1.
</event>
<event>
 8    1  0.6648599E-009  0.7863855E+02  0.7561462E-02  0.1332960E+00
          2   -1    0    0  501    0  0.00000000000E+00  0.00000000000E+00  0.21513469762E+03  0.21513469762E+03  0.00000000000E+00 0. -1.
         -2   -1    0    0    0  501 -0.00000000000E+00 -0.00000000000E+00 -0.86061334860E+02  0.86061334860E+02  0.00000000000E+00 0.  1.
         25    2    1    2    0    0 -0.17031411080E+02  0.33970536139E+02  0.15313690321E+03  0.20134436288E+03  0.12507827569E+03 0.  0.
         23    2    1    2    0    0  0.17031411080E+02 -0.33970536139E+02 -0.24063540454E+02  0.99851669598E+02  0.89147269467E+02 0.  0.
          5    1    3    3  502    0  0.20788569946E+02  0.36875952974E+00 -0.14827115038E+02  0.25876946581E+02  0.41800000000E+01 0. -1.
         -5    1    3    3    0  502 -0.37819981025E+02  0.33601776609E+02  0.16796401825E+03  0.17546741630E+03  0.41800000000E+01 0. -1.
        -11    1    4    4    0    0 -0.12587145823E+02 -0.50047079591E+02 -0.37269091806E+02  0.63656355689E+02  0.00000000000E+00 0.  1.
         11    1    4    4    0    0  0.29618556903E+02  0.16076543453E+02  0.13205551353E+02  0.36195313908E+02  0.00000000000E+00 0. -1.
</event>
<event>
 8    1  0.6648599E-009  0.9888015E+02  0.7561462E-02  0.1282669E+00
         -3   -1    0    0    0  501 -0.00000000000E+00  0.00000000000E+00  0.14226068590E+03  0.14226068590E+03  0.00000000000E+00 0.  1.
          3   -1    0    0  501    0  0.00000000000E+00 -0.00000000000E+00 -0.11865469066E+03  0.11865469066E+03  0.00000000000E+00 0. -1.
         25    2    1    2    0    0 -0.47963091967E+02  0.36400747916E+02  0.51850104506E+02  0.14819550252E+03  0.12509197013E+03 0.  0.
         23    2    1    2    0    0  0.47963091967E+02 -0.36400747916E+02 -0.28244109267E+02  0.11271987403E+03  0.91008613075E+02 0.  0.
          5    1    3    3  502    0 -0.14644940193E+02  0.62632482881E+02 -0.17508801812E+02  0.66793208682E+02  0.41800000000E+01 0.  1.
         -5    1    3    3    0  502 -0.33318151774E+02 -0.26231734965E+02  0.69358906318E+02  0.81402293841E+02  0.41800000000E+01 0.  1.
        -11    1    4    4    0    0  0.48768884185E+02  0.52344846003E+01  0.16352892043E+02  0.51703200789E+02  0.00000000000E+00 0.  1.
         11    1    4    4    0    0 -0.80579221845E+00 -0.41635232516E+02 -0.44597001310E+02  0.61016673243E+02  0.00000000000E+00 0. -1.
</event>
<event>
 8    1  0.6648599E-009  0.1389263E+03  0.7561462E-02  0.1214781E+00
         -2   -1    0    0    0  501 -0.00000000000E+00  0.00000000000E+00  0.62776855574E+02  0.62776855574E+02  0.00000000000E+00 0.  1.
          2   -1    0    0  501    0  0.00000000000E+00 -0.00000000000E+00 -0.55388929698E+03  0.55388929698E+03  0.00000000000E+00 0. -1.
         25    2    1    2    0    0 -0.60997242110E+02 -0.10822075992E+03 -0.40597454679E+03  0.44260057973E+03  0.12509014395E+03 0.  0.
         23    2    1    2    0    0  0.60997242110E+02  0.10822075992E+03 -0.85137894612E+02  0.17406557282E+03  0.87280960809E+02 0.  0.
          5    1    3    3  502    0  0.88626113725E+01 -0.41966242736E+02 -0.28349607588E+03  0.28675287069E+03  0.41800000000E+01 0. -1.
         -5    1    3    3    0  502 -0.69859853482E+02 -0.66254517186E+02 -0.12247847091E+03  0.15584770904E+03  0.41800000000E+01 0. -1.
        -11    1    4    4    0    0  0.72824746692E+02  0.82300960946E+02 -0.33155641795E+02  0.11478757984E+03  0.00000000000E+00 0.  1.
         11    1    4    4    0    0 -0.11827504582E+02  0.25919798976E+02 -0.51982252817E+02  0.59277992979E+02  0.00000000000E+00 0. -1.
</event>
<event>
 8    1  0.6648599E-009  0.1244609E+03  0.7561462E-02  0.1235914E+00
          4   -1    0    0  501    0  0.00000000000E+00  0.00000000000E+00  0.14444915065E+03  0.14444915065E+03  0.00000000000E+00 0. -1.
         -4   -1    0    0    0  501 -0.00000000000E+00 -0.00000000000E+00 -0.17315015308E+03  0.17315015308E+03  0.00000000000E+00 0.  1.
         25    2    1    2    0    0  0.62409185204E+02  0.46135006532E+02 -0.99625569870E+02  0.17775200180E+03  0.12508866753E+03 0.  0.
         23    2    1    2    0    0 -0.62409185204E+02 -0.46135006532E+02  0.70924567443E+02  0.13984730193E+03  0.92215120038E+02 0.  0.
          5    1    3    3  502    0  0.25880116791E+02 -0.39164557215E+02 -0.61170596711E+02  0.77220187056E+02  0.41800000000E+01 0. -1.
         -5    1    3    3    0  502  0.36529068413E+02  0.85299563747E+02 -0.38454973159E+02  0.10053181474E+03  0.41800000000E+01 0. -1.
        -11    1    4    4    0    0  0.26491296802E+01 -0.43723659663E+02  0.59284687808E+02  0.73711942797E+02  0.00000000000E+00 0. -1.
         11    1    4    4    0    0 -0.65058314884E+02 -0.24113468692E+01  0.11639879634E+02  0.66135359129E+02  0.00000000000E+00 0.  1.
</event>
<event>
 8    1  0.6648599E-009  0.1619093E+03  0.7561462E-02  0.1186558E+00
         -1   -1    0    0    0  501 -0.00000000000E+00  0.00000000000E+00  0.50960780380E+02  0.50960780380E+02  0.00000000000E+00 0.  1.
          1   -1    0    0  501    0  0.00000000000E+00 -0.00000000000E+00 -0.56340474921E+03  0.56340474921E+03  0.00000000000E+00 0. -1.
         25    2    1    2    0    0 -0.70701810206E+02  0.10188222722E+03 -0.34161021459E+03  0.38434911607E+03  0.12509184675E+03 0.  0.
         23    2    1    2    0    0  0.70701810206E+02 -0.10188222722E+03 -0.17083375424E+03  0.23001641351E+03  0.91349026858E+02 0.  0.
          5    1    3    3  502    0  0.33454917368E+02  0.40906363591E+02 -0.76990132013E+02  0.93474675210E+02  0.41800000000E+01 0. -1.
         -5    1    3    3    0  502 -0.10415672757E+03  0.60975863632E+02 -0.26462008258E+03  0.29087444086E+03  0.41800000000E+01 0. -1.
        -11    1    4    4    0    0  0.88518209083E+02 -0.67494113895E+02 -0.10171971415E+03  0.15079067941E+03  0.00000000000E+00 0.  1.
         11    1    4    4    0    0 -0.17816398877E+02 -0.34388113328E+02 -0.69114040084E+02  0.79225734102E+02  0.00000000000E+00 0. -1.
</event>
<event>
 8    1  0.6648599E-009  0.1120716E+03  0.7561462E-02  0.1256781E+00
          1   -1    0    0  501    0  0.00000000000E+00  0.00000000000E+00  0.30166645320E+02  0.30166645320E+02  0.00000000000E+00 0. -1.
         -1   -1    0    0    0  501 -0.00000000000E+00 -0.00000000000E+00 -0.47129277593E+03  0.47129277593E+03  0.00000000000E+00 0.  1.
         25    2    1    2    0    0  0.26660300239E+02  0.42737248025E+02 -0.22779823815E+03  0.26472172624E+03  0.12509320948E+03 0.  0.
         23    2    1    2    0    0 -0.26660300239E+02 -0.42737248025E+02 -0.21332789245E+03  0.23673769501E+03  0.89435465914E+02 0.  0.
          5    1    3    3  502    0 -0.37831334136E+02  0.56119606833E+02 -0.13187428521E+03  0.14828661306E+03  0.41800000000E+01 0. -1.
         -5    1    3    3    0  502  0.64491634375E+02 -0.13382358808E+02 -0.95923952942E+02  0.11643511317E+03  0.41800000000E+01 0. -1.
        -11    1    4    4    0    0 -0.14062020292E+02  0.21050925031E+02 -0.12218078209E+03  0.12477590061E+03  0.00000000000E+00 0.  1.
         11    1    4    4    0    0 -0.12598279947E+02 -0.63788173056E+02 -0.91147110361E+02  0.11196179441E+03  0.00000000000E+00 0. -1.
</event>
<event>
 8    1  0.6648599E-009  0.2115140E+03  0.7561462E-02  0.1140373E+00
         -2   -1    0    0    0  501 -0.00000000000E+00  0.00000000000E+00  0.20927560526E+03  0.20927560526E+03  0.00000000000E+00 0.  1.
          2   -1    0    0  501    0  0.00000000000E+00 -0.00000000000E+00 -0.64239682120E+03  0.64239682120E+03  0.00000000000E+00 0. -1.
         25    2    1    2    0    0 -0.14247083077E+03 -0.13193067513E+03 -0.55802711087E+03  0.60394170713E+03  0.12509072099E+03 0.  0.
         23    2    1    2    0    0  0.14247083077E+03  0.13193067513E+03  0.12490589493E+03  0.24773071933E+03  0.89807494406E+02 0.  0.
          5    1    3    3  502    0 -0.13757865357E+03 -0.61782086830E+02 -0.29108010411E+03  0.32785669367E+03  0.41800000000E+01 0.  1.
         -5    1    3    3    0  502 -0.48921771921E+01 -0.70148588302E+02 -0.26694700676E+03  0.27608501346E+03  0.41800000000E+01 0.  1.
        -11    1    4    4    0    0  0.69584019422E+02  0.10073321761E+03  0.33906793314E+02  0.12703852771E+03  0.00000000000E+00 0. -1.
         11    1    4    4    0    0  0.72886811345E+02  0.31197457522E+02  0.90999101619E+02  0.12069219163E+03  0.00000000000E+00 0.  1.
</event>
<event>
 8    1  0.6648599E-009  0.1284111E+03  0.7561462E-02  0.1229833E+00
          1   -1    0    0  501    0  0.00000000000E+00  0.00000000000E+00  0.21918394732E+03  0.21918394732E+03  0.00000000000E+00 0. -1.
         -1   -1    0    0    0  501 -0.00000000000E+00 -0.00000000000E+00 -0.11233740908E+03  0.11233740908E+03  0.00000000000E+00 0.  1.
         25    2    1    2    0    0 -0.89397865818E+02  0.17263212077E+02 -0.16163444618E+02  0.15555993065E+03  0.12509051994E+03 0.  0.
         23    2    1    2    0    0  0.89397865818E+02 -0.17263212077E+02  0.12300998285E+03  0.17596142575E+03  0.86838761890E+02 0.  0.
          5    1    3    3  502    0 -0.19854711554E+02 -0.37391427370E+02 -0.45488631733E+02  0.62281750366E+02  0.41800000000E+01 0.  1.
         -5    1    3    3    0  502 -0.69543154263E+02  0.54654639447E+02  0.29325187115E+02  0.93278180285E+02  0.41800000000E+01 0.  1.
        -11    1    4    4    0    0 -0.16855157235E+02 -0.91274821166E+01  0.21197197982E+02  0.28578461426E+02  0.00000000000E+00 0. -1.
         11    1    4    4    0    0  0.10625302305E+03 -0.81357299607E+01  0.10181278487E+03  0.14738296432E+03  0.00000000000E+00 0.  1.
</event>
<event>
 8    1  0.6648599E-009  0.8804337E+02  0.7561462E-02  0.1307660E+00
          1   -1    0    0  501    0  0.00000000000E+00  0.00000000000E+00  0.26412276535E+03  0.26412276535E+03  0.00000000000E+00 0. -1.
         -1   -1    0    0    0  501 -0.00000000000E+00 -0.00000000000E+00 -0.10202687006E+03  0.10202687006E+03  0.00000000000E+00 0.  1.
         25    2    1    2    0    0  0.55934837692E+01 -0.42296325333E+02 -0.41978472098E+02  0.13867156832E+03  0.12508935024E+03 0.  0.
         23    2    1    2    0    0 -0.55934837692E+01  0.42296325333E+02  0.20407436739E+03  0.22747806709E+03  0.90992622691E+02 0.  0.
          5    1    3    3  502    0  0.24424472416E+02  0.66488914644E+01 -0.73151628856E+02  0.77520292922E+02  0.41800000000E+01 0.  1.
         -5    1    3    3    0  502 -0.18830988646E+02 -0.48945216797E+02  0.31173156758E+02  0.61151275399E+02  0.41800000000E+01 0.  1.
        -11    1    4    4    0    0  0.25207305122E+02 -0.17412432814E+02  0.90207976594E+02  0.95268463246E+02  0.00000000000E+00 0. -1.
         11    1    4    4    0    0 -0.30800788892E+02  0.59708758147E+02  0.11386639080E+03  0.13220960385E+03  0.00000000000E+00 0.  1.
</event>
<event>
 8    1  0.6648599E-009  0.8965494E+02  0.7561462E-02  0.1303689E+00
          1   -1    0    0  501    0  0.00000000000E+00  0.00000000000E+00  0.29583347688E+03  0.29583347688E+03  0.00000000000E+00 0. -1.
         -1   -1    0    0    0  501 -0.00000000000E+00 -0.00000000000E+00 -0.48645399619E+02  0.48645399619E+02  0.00000000000E+00 0.  1.
         25    2    1    2    0    0 -0.35876871445E+01 -0.72256583855E+01  0.22013509420E+03  0.25332022460E+03  0.12508634959E+03 0.  0.
         23    2    1    2    0    0  0.35876871445E+01  0.72256583855E+01  0.27052983061E+02  0.91158651899E+02  0.86677299712E+02 0.  0.
          5    1    3    3  502    0  0.17804531354E+02 -0.46239023525E+02  0.19664295839E+03  0.20283237936E+03  0.41800000000E+01 0.  1.
         -5    1    3    3    0  502 -0.21392218498E+02  0.39013365140E+02  0.23492135808E+02  0.50487845236E+02  0.41800000000E+01 0.  1.
        -11    1    4    4    0    0 -0.28265937753E+02 -0.26329724284E+02  0.22411171546E+02  0.44659581593E+02  0.00000000000E+00 0.  1.
         11    1    4    4    0    0  0.31853624897E+02  0.33555382670E+02  0.46418115144E+01  0.46499070307E+02  0.00000000000E+00 0. -1.
</event>
<event>
 8    1  0.6648599E-009  0.9196167E+02  0.7561462E-02  0.1298170E+00
          4   -1    0    0  501    0  0.00000000000E+00  0.00000000000E+00  0.93703888491E+02  0.93703888491E+02  0.00000000000E+00 0. -1.
         -4   -1    0    0    0  501 -0.00000000000E+00 -0.00000000000E+00 -0.12831816508E+03  0.12831816508E+03  0.00000000000E+00 0.  1.
         25    2    1    2    0    0  0.57274118299E+01 -0.13511316490E+02 -0.31076019708E+02  0.12972415390E+03  0.12508908100E+03 0.  0.
         23    2    1    2    0    0 -0.57274118299E+01  0.13511316490E+02 -0.35382568830E+01  0.92297899670E+02  0.91055060826E+02 0.  0.
          5    1    3    3  502    0 -0.55392477424E+02  0.15984689045E+02 -0.17429538101E+02  0.60374647307E+02  0.41800000000E+01 0. -1.
         -5    1    3    3    0  502  0.61119889254E+02 -0.29496005534E+02 -0.13646481607E+02  0.69349506596E+02  0.41800000000E+01 0. -1.
        -11    1    4    4    0    0 -0.13097343386E+01  0.35587626473E+02 -0.37394938750E+02  0.51638900125E+02  0.00000000000E+00 0.  1.
         11    1    4    4    0    0 -0.44176774914E+01 -0.22076309983E+02  0.33856681867E+02  0.40658999544E+02  0.00000000000E+00 0. -1.
</event>
<event>
 7    1  0.6648599E-009  0.1168019E+03  0.7561462E-02  0.1248468E+00
          3   -1    0    0  501    0  0.00000000000E+00  0.00000000000E+00  0.19701089263E+03  0.19701089263E+03  0.00000000000E+00 0. -1.
         -3   -1    0    0    0  501 -0.00000000000E+00 -0.00000000000E+00 -0.10242774214E+03  0.10242774214E+03  0.00000000000E+00 0.  1.
         23    2    1    2    0    0 -0.68177081552E+01  0.47828663892E+02  0.12615981991E+03  0.16173549927E+03  0.88926988755E+02 0.  0.
          5    1    1    2  502    0 -0.43736758688E+02 -0.65345185984E+02 -0.82054718333E+01  0.79168804209E+02  0.41800000000E+01 0. -1.
         -5    1    1    2    0  502  0.50554466844E+02  0.17516522092E+02 -0.23371197577E+02  0.58534331295E+02  0.41800000000E+01 0. -1.
        -11    1    3    3    0    0  0.34741279922E+02  0.48465771216E+02  0.73340839500E+02  0.94523892476E+02  0.00000000000E+00 0.  1.
         11    1    3    3    0    0 -0.41558988078E+02 -0.63710732460E+00  0.52818980410E+02  0.67211606790E+02  0.00000000000E+00 0. -1.
</event>
<event>
 8    1  0.6648599E-009  0.1243404E+03  0.7561462E-02  0.1236104E+00
         -2   -1    0    0    0  501 -0.00000000000E+00  0.00000000000E+00  0.73597338208E+02  0.73597338208E+02  0.00000000000E+00 0.  1.
          2   -1    0    0  501    0  0.00000000000E+00 -0.00000000000E+00 -0.24235101506E+03  0.24235101506E+03  0.00000000000E+00 0. -1.
         25    2    1    2    0    0  0.72326012622E+02  0.30823495631E+02 -0.87187538028E+02  0.17155044233E+03  0.12508695972E+03 0.  0.
         23    2    1    2    0    0 -0.72326012622E+02 -0.30823495631E+02 -0.81566138824E+02  0.14439791094E+03  0.89535365616E+02 0.  0.
          5    1    3    3  502    0  0.17649445297E+02 -0.40247803496E+02  0.30710485016E+01  0.44252597036E+02  0.41800000000E+01 0. -1.
         -5    1    3    3    0  502  0.54676567326E+02  0.71071299127E+02 -0.90258586530E+02  0.12729784529E+03  0.41800000000E+01 0. -1.
        -11    1    4    4    0    0 -0.81382409435E+02  0.12992997466E+01 -0.74376671807E+02  0.11025730839E+03  0.00000000000E+00 0. -1.
         11    1    4    4    0    0  0.90563968128E+01 -0.32122795378E+02 -0.71894670175E+01  0.34140602545E+02  0.00000000000E+00 0.  1.
</event>
<event>
 8    1  0.6648599E-009  0.1598860E+03  0.7561462E-02  0.1188825E+00
         -3   -1    0    0    0  501 -0.00000000000E+00  0.00000000000E+00  0.81700134258E+02  0.81700134258E+02  0.00000000000E+00 0.  1.
          3   -1    0    0  501    0  0.00000000000E+00 -0.00000000000E+00 -0.47321437936E+03  0.47321437936E+03  0.00000000000E+00 0. -1.
         25    2    1    2    0    0  0.46678486024E+02 -0.14274989155E+03 -0.11353986610E+03  0.22604311208E+03  0.12509106574E+03 0.  0.
         23    2    1    2    0    0 -0.46678486024E+02  0.14274989155E+03 -0.27797437900E+03  0.32887140154E+03  0.91270097938E+02 0.  0.
          5    1    3    3  502    0 -0.21024344485E+02 -0.32098630201E+02  0.16808049850E+02  0.42099026848E+02  0.41800000000E+01 0.  1.
         -5    1    3    3    0  502  0.67702830509E+02 -0.11065126135E+03 -0.13034791595E+03  0.18394408523E+03  0.41800000000E+01 0.  1.
        -11    1    4    4    0    0 -0.14344503697E+02  0.74449470258E+02 -0.55634974310E+02  0.94041154685E+02  0.00000000000E+00 0.  1.
         11    1    4    4    0    0 -0.32333982326E+02  0.68300421292E+02 -0.22233940469E+03  0.23483024686E+03  0.00000000000E+00 0. -1.
</event>
<event>
 8    1  0.6648599E-009  0.1095515E+03  0.7561462E-02  0.1261403E+00
          2   -1    0    0  501    0  0.00000000000E+00  0.00000000000E+00  0.13285445673E+04  0.13285445673E+04  0.00000000000E+00 0. -1.
         -2   -1    0    0    0  501 -0.00000000000E+00 -0.00000000000E+00 -0.10321036768E+02  0.10321036768E+02  0.00000000000E+00 0.  1.
         25    2    1    2    0    0 -0.27205677552E+02  0.21307281551E+01  0.91094612192E+03  0.91989898970E+03  0.12508647133E+03 0.  0.
         23    2    1    2    0    0  0.27205677552E+02 -0.21307281551E+01  0.40727740866E+03  0.41896661442E+03  0.94411056026E+02 0.  0.
          5    1    3    3  502    0  0.44270390605E+02  0.19472658569E+02  0.23576046925E+03  0.24070630066E+03  0.41800000000E+01 0. -1.
         -5    1    3    3    0  502 -0.71476068157E+02 -0.17341930414E+02  0.67518565267E+03  0.67919268904E+03  0.41800000000E+01 0. -1.
        -11    1    4    4    0    0  0.44291353400E+02  0.34715805755E+02  0.20102860729E+03  0.20875682529E+03  0.00000000000E+00 0.  1.
         11    1    4    4    0    0 -0.17085675848E+02 -0.36846533910E+02  0.20624880137E+03  0.21020978913E+03  0.00000000000E+00 0. -1.
</event>
<event>
 8    1  0.6648599E-009  0.9630013E+02  0.7561462E-02  0.1288274E+00
         -1   -1    0    0    0  501 -0.00000000000E+00  0.00000000000E+00  0.10688210375E+03  0.10688210375E+03  0.00000000000E+00 0.  1.
          1   -1    0    0  501    0  0.00000000000E+00 -0.00000000000E+00 -0.18114698849E+03  0.18114698849E+03  0.00000000000E+00 0. -1.
         25    2    1    2    0    0  0.10124273885E+02  0.19228886852E+02  0.45786901209E+02  0.13496751481E+03  0.12509012240E+03 0.  0.
         23    2    1    2    0    0 -0.10124273885E+02 -0.19228886852E+02 -0.12005178596E+03  0.15306157743E+03  0.92429238677E+02 0.  0.
          5    1    3    3  502    0  0.38639070724E+02  0.47442360400E+02  0.65795786357E+02  0.89946168618E+02  0.41800000000E+01 0.  1.
         -5    1    3    3    0  502 -0.28514796839E+02 -0.28213473548E+02 -0.20008885148E+02  0.45021346195E+02  0.41800000000E+01 0.  1.
        -11    1    4    4    0    0  0.39193553972E+02 -0.43888543955E+01 -0.74546034325E+02  0.84335686097E+02  0.00000000000E+00 0. -1.
         11    1    4    4    0    0 -0.49317827857E+02 -0.14840032457E+02 -0.45505751632E+02  0.68725891332E+02  0.00000000000E+00 0.  1.
</event>
<event>
 8    1  0.6648599E-009  0.1084634E+03  0.7561462E-02  0.1263442E+00
          1   -1    0    0  501    0  0.00000000000E+00  0.00000000000E+00  0.44485469887E+02  0.44485469887E+02  0.00000000000E+00 0. -1.
         -1   -1    0    0    0  501 -0.00000000000E+00 -0.00000000000E+00 -0.38426260333E+03  0.38426260333E+03  0.00000000000E+00 0.  1.
         25    2    1    2    0    0 -0.46055320273E+02 -0.35107627145E+02 -0.26164668549E+03  0.29573243068E+03  0.12508015236E+03 0.  0.
         23    2    1    2    0    0  0.46055320273E+02  0.35107627145E+02 -0.78130447952E+02  0.13301564254E+03  0.90747761707E+02 0.  0.
          5    1    3    3  502    0 -0.70683662989E+02 -0.58734050280E+02 -0.12734375274E+03  0.15709797146E+03  0.41800000000E+01 0.  1.
         -5    1    3    3    0  502  0.24628342716E+02  0.23626423135E+02 -0.13430293276E+03  0.13863445922E+03  0.41800000000E+01 0.  1.
        -11    1    4    4    0    0  0.57875223076E+02  0.48685629015E+01 -0.81821492856E+02  0.10033942916E+03  0.00000000000E+00 0.  1.
         11    1    4    4    0    0 -0.11819902803E+02  0.30239064243E+02  0.36910449044E+01  0.32676213383E+02  0.00000000000E+00 0. -1.
</event>
<event>
 8    1  0.6648599E-009  0.2033059E+03  0.7561462E-02  0.1146979E+00
         -1   -1    0    0    0  501 -0.00000000000E+00  0.00000000000E+00  0.10954336661E+03  0.10954336661E+03  0.00000000000E+00 0.  1.
          1   -1    0    0  501    0  0.00000000000E+00 -0.00000000000E+00 -0.45210322327E+03  0.45210322327E+03  0.00000000000E+00 0. -1.
         25    2    1    2    0    0  0.54437464363E+02  0.18595049480E+03 -0.18448514350E+03  0.29533599258E+03  0.12509019265E+03 0.  0.
         23    2    1    2    0    0 -0.54437464363E+02 -0.18595049480E+03 -0.15807471316E+03  0.26631059730E+03  0.91611654561E+02 0.  0.
          5    1    3    3  502    0  0.13545119047E+01  0.74398596339E+02 -0.15371542962E+01  0.74544088183E+02  0.41800000000E+01 0.  1.
         -5    1    3    3    0  502  0.53082952459E+02  0.11155189846E+03 -0.18294798921E+03  0.22079190440E+03  0.41800000000E+01 0.  1.
        -11    1    4    4    0    0 -0.73187220618E+02 -0.16411182255E+03 -0.15510504854E+03  0.23737446292E+03  0.00000000000E+00 0.  1.
         11    1    4    4    0    0  0.18749756254E+02 -0.21838672244E+02 -0.29696646224E+01  0.28936134382E+02  0.00000000000E+00 0. -1.
</event>
<event>
 8    1  0.6648599E-009  0.9393328E+02  0.7561462E-02  0.1293597E+00
         -2   -1    0    0    0  501 -0.00000000000E+00  0.00000000000E+00  0.25994770074E+02  0.25994770074E+02  0.00000000000E+00 0.  1.
          2   -1    0    0  501    0  0.00000000000E+00 -0.00000000000E+00 -0.53970948799E+03  0.53970948799E+03  0.00000000000E+00 0. -1.
         25    2    1    2    0    0 -0.19174338278E+02 -0.98278478056E+01 -0.18699949281E+03  0.22600963357E+03  0.12508917745E+03 0.  0.
         23    2    1    2    0    0  0.19174338278E+02  0.98278478056E+01 -0.32671522510E+03  0.33969462449E+03  0.90472966979E+02 0.  0.
          5    1    3    3  502    0 -0.53747302992E+02 -0.23108987052E+02 -0.32454963326E+02  0.67034281572E+02  0.41800000000E+01 0.  1.
         -5    1    3    3    0  502  0.34572964714E+02  0.13281139246E+02 -0.15454452949E+03  0.15897535200E+03  0.41800000000E+01 0.  1.
        -11    1    4    4    0    0  0.47733496868E+02 -0.18987327703E+02 -0.15669417630E+03  0.16490018260E+03  0.00000000000E+00 0.  1.
         11    1    4    4    0    0 -0.28559158590E+02  0.28815175509E+02 -0.17002104880E+03  0.17479444189E+03  0.00000000000E+00 0. -1.
</event>
<event>
 8    1  0.6648599E-009  0.7185780E+02  0.7561462E-02  0.1353887E+00
          2   -1    0    0  501    0  0.00000000000E+00  0.00000000000E+00  0.48662463028E+02  0.48662463028E+02  0.00000000000E+00 0. -1.
         -2   -1    0    0    0  501 -0.00000000000E+00 -0.00000000000E+00 -0.30083544066E+03  0.30083544066E+03  0.00000000000E+00 0.  1.
         25    2    1    2    0    0  0.32727571643E+02  0.34600372339E+02 -0.11575999161E+03  0.17696265535E+03  0.12508847277E+03 0.  0.
         23    2    1    2    0    0 -0.32727571643E+02 -0.34600372339E+02 -0.13641298602E+03  0.17253524834E+03  0.94295437066E+02 0.  0.
          5    1    3    3  502    0  0.76208561027E+01 -0.14015270714E+01  0.26553897039E+02  0.27975410163E+02  0.41800000000E+01 0. -1.
         -5    1    3    3    0  502  0.25106715541E+02  0.36001899410E+02 -0.14231388865E+03  0.14898724519E+03  0.41800000000E+01 0. -1.
        -11    1    4    4    0    0 -0.57216291288E+02 -0.33512254943E+02 -0.50938480193E+02  0.83615213833E+02  0.00000000000E+00 0. -1.
         11    1    4    4    0    0  0.24488719644E+02 -0.10881173958E+01 -0.85474505829E+02  0.88920034503E+02  0.00000000000E+00 0.  1.
</event>
<event>
 8    1  0.6648599E-009  0.1146798E+03  0.7561462E-02  0.1252141E+00
          2   -1    0    0  501    0  0.00000000000E+00  0.00000000000E+00  0.39504255280E+03  0.39504255280E+03  0.00000000000E+00 0. -1.
         -2   -1    0    0    0  501 -0.00000000000E+00 -0.00000000000E+00 -0.47789474442E+02  0.47789474442E+02  0.00000000000E+00 0.  1.
         25    2    1    2    0    0 -0.61492216220E+02  0.40704181256E+02  0.25661387716E+03  0.29486432654E+03  0.12512460225E+03 0.  0.
         23    2    1    2    0    0  0.61492216220E+02 -0.40704181256E+02  0.90639201204E+02  0.14796770071E+03  0.90779142042E+02 0.  0.
          5    1    3    3  502    0 -0.14930641088E+02  0.68811792847E+02  0.66001729514E+02  0.96600660334E+02  0.41800000000E+01 0.  1.
         -5    1    3    3    0  502 -0.46561575132E+02 -0.28107611590E+02  0.19061214764E+03  0.19826366620E+03  0.41800000000E+01 0.  1.
        -11    1    4    4    0    0  0.66421424671E+02 -0.32536407033E+01  0.22763479548E+02  0.70289172952E+02  0.00000000000E+00 0.  1.
         11    1    4    4    0    0 -0.49292084509E+01 -0.37450540553E+02  0.67875721656E+02  0.77678527754E+02  0.00000000000E+00 0. -1.
</event>
<event>
 8    1  0.6648599E-009  0.8818006E+02  0.7561462E-02  0.1307320E+00
         -4   -1    0    0    0  501 -0.00000000000E+00  0.00000000000E+00  0.11783774600E+03  0.11783774600E+03  0.00000000000E+00 0.  1.
          4   -1    0    0  501    0  0.00000000000E+00 -0.00000000000E+00 -0.13105960755E+03  0.13105960755E+03  0.00000000000E+00 0. -1.
         25    2    1    2    0    0  0.39571772680E+02  0.33256563758E+01  0.32854999508E+02  0.13530126922E+03  0.12509994915E+03 0.  0.
         23    2    1    2    0    0 -0.39571772680E+02 -0.33256563758E+01 -0.46076861065E+02  0.11359608433E+03  0.95937521674E+02 0.  0.
          5    1    3    3  502    0 -0.41600403978E+01 -0.29698196335E+02 -0.36104506314E+02  0.47120023109E+02  0.41800000000E+01 0.  1.
         -5    1    3    3    0  502  0.43731813078E+02  0.33023852710E+02  0.68959505822E+02  0.88181246113E+02  0.41800000000E+01 0.  1.
        -11    1    4    4    0    0 -0.57233712098E+02  0.21083815107E+02 -0.30509000211E+01  0.61069902988E+02  0.00000000000E+00 0.  1.
         11    1    4    4    0    0  0.17661939419E+02 -0.24409471483E+02 -0.43025961044E+02  0.52526181337E+02  0.00000000000E+00 0. -1.
</event>
<event>
 8    1  0.6648599E-009  0.1002932E+03  0.7561462E-02  0.1279681E+00
          1   -1    0    0  501    0  0.00000000000E+00  0.00000000000E+00  0.10414659941E+04  0.10414659941E+04  0.00000000000E+00 0. -1.
         -1   -1    0    0    0  501 -0.00000000000E+00 -0.00000000000E+00 -0.22579878210E+02  0.22579878210E+02  0.00000000000E+00 0.  1.
         25    2    1    2    0    0 -0.78988151662E+02 -0.46315532519E+01  0.80203616465E+03  0.81558294788E+03  0.12511177435E+03 0.  0.
         23    2    1    2    0    0  0.78988151662E+02  0.46315532519E+01  0.21684995121E+03  0.24846292440E+03  0.91920313706E+02 0.  0.
          5    1    3    3  502    0 -0.12744349950E-01 -0.20620298398E+02  0.56112175449E+03  0.56151606622E+03  0.41800000000E+01 0. -1.
         -5    1    3    3    0  502 -0.78975407313E+02  0.15988745147E+02  0.24091441016E+03  0.25406688166E+03  0.41800000000E+01 0. -1.
        -11    1    4    4    0    0  0.26736846536E+02 -0.26822741022E+02  0.20932541033E+02  0.43272273718E+02  0.00000000000E+00 0.  1.
         11    1    4    4    0    0  0.52251305127E+02  0.31454294274E+02  0.19591741018E+03  0.20519065068E+03  0.00000000000E+00 0. -1.
</event>
<event>
 8    1  0.6648599E-009  0.1166960E+03  0.7561462E-02  0.1248649E+00
         -2   -1    0    0    0  501 -0.00000000000E+00  0.00000000000E+00  0.79605504441E+02  0.79605504441E+02  0.00000000000E+00 0.  1.
          2   -1    0    0  501    0  0.00000000000E+00 -0.00000000000E+00 -0.21605397712E+03  0.21605397712E+03  0.00000000000E+00 0. -1.
         25    2    1    2    0    0 -0.65516677935E+02  0.30144878355E+02 -0.75792866646E+02  0.16307513148E+03  0.12509113116E+03 0.  0.
         23    2    1    2    0    0  0.65516677935E+02 -0.30144878355E+02 -0.60655606030E+02  0.13258435008E+03  0.93264991093E+02 0.  0.
          5    1    3    3  502    0 -0.12164904488E+02 -0.46219188973E+02 -0.42402082525E+02  0.64028176086E+02  0.41800000000E+01 0. -1.
         -5    1    3    3    0  502 -0.53351773447E+02  0.76364067328E+02 -0.33390784121E+02  0.99046955395E+02  0.41800000000E+01 0. -1.
        -11    1    4    4    0    0  0.29249453866E+02 -0.44425621113E+02  0.78503383398E+01  0.53766106190E+02  0.00000000000E+00 0.  1.
         11    1    4    4    0    0  0.36267224069E+02  0.14280742758E+02 -0.68505944369E+02  0.78818243886E+02  0.00000000000E+00 0. -1.
</event>
<event>
 8    1  0.6648599E-009  0.1211515E+03  0.7561462E-02  0.1241209E+00
         -2   -1    0    0    0  501 -0.00000000000E+00  0.00000000000E+00  0.10851102830E+04  0.10851102830E+04  0.00000000000E+00 0.  1.
          2   -1    0    0  501    0  0.00000000000E+00 -0.00000000000E+00 -0.24535494054E+02  0.24535494054E+02  0.00000000000E+00 0. -1.
         25    2    1    2    0    0 -0.52836831092E+02 -0.56545068347E+02  0.88899741177E+03  0.90108406169E+03  0.12508801945E+03 0.  0.
         23    2    1    2    0    0  0.52836831092E+02  0.56545068347E+02  0.17157737721E+03  0.20856171540E+03  0.89833831536E+02 0.  0.
          5    1    3    3  502    0 -0.48875035894E+02  0.18599446881E+02  0.16415327502E+03  0.17233246548E+03  0.41800000000E+01 0.  1.
         -5    1    3    3    0  502 -0.39617951978E+01 -0.75144515228E+02  0.72484413675E+03  0.72875159620E+03  0.41800000000E+01 0.  1.
        -11    1    4    4    0    0  0.74272083207E+01 -0.22292223131E+02  0.16311098946E+02  0.28603471544E+02  0.00000000000E+00 0. -1.
         11    1    4    4    0    0  0.45409622771E+02  0.78837291477E+02  0.15526627826E+03  0.17995824386E+03  0.00000000000E+00 0.  1.
</event>
<event>
 8    1  0.6648599E-009  0.9756407E+02  0.7561462E-02  0.1285503E+00
          1   -1    0    0  501    0  0.00000000000E+00  0.00000000000E+00  0.14265683360E+03  0.14265683360E+03  0.00000000000E+00 0. -1.
         -1   -1    0    0    0  501 -0.00000000000E+00 -0.00000000000E+00 -0.10389827459E+03  0.10389827459E+03  0.00000000000E+00 0.  1.
         25    2    1    2    0    0  0.14292879946E+02  0.52827759730E+02  0.10475407008E+02  0.13693504836E+03  0.12508562948E+03 0.  0.
         23    2    1    2    0    0 -0.14292879946E+02 -0.52827759730E+02  0.28283152006E+02  0.10962005983E+03  0.90672830626E+02 0.  0.
          5    1    3    3  502    0  0.50383722916E+02 -0.95970277062E+01 -0.24140335591E+02  0.56840572465E+02  0.41800000000E+01 0.  1.
         -5    1    3    3    0  502 -0.36090842970E+02  0.62424787437E+02  0.34615742599E+02  0.80094475892E+02  0.41800000000E+01 0.  1.
        -11    1    4    4    0    0 -0.29953426583E+02 -0.23049317682E+02  0.54946672984E+02  0.66690446705E+02  0.00000000000E+00 0. -1.
         11    1    4    4    0    0  0.15660546637E+02 -0.29778442048E+02 -0.26663520978E+02  0.42929613121E+02  0.00000000000E+00 0.  1.
</event>
<event>
 8    1  0.6648599E-009  0.2003632E+03  0.7561462E-02  0.1149433E+00
          2   -1    0    0  501    0  0.00000000000E+00  0.00000000000E+00  0.29299427330E+03  0.29299427330E+03  0.00000000000E+00 0. -1.
         -2   -1    0    0    0  501 -0.00000000000E+00 -0.00000000000E+00 -0.21447806434E+03  0.21447806434E+03  0.00000000000E+00 0.  1.
         25    2    1    2    0    0 -0.89964510681E+02 -0.16779355671E+03 -0.82224971397E+02  0.24219124196E+03  0.12508941165E+03 0.  0.
         23    2    1    2    0    0  0.89964510681E+02  0.16779355671E+03  0.16074118036E+03  0.26528109568E+03  0.91038683025E+02 0.  0.
          5    1    3    3  502    0 -0.58860575879E+02 -0.32041857251E+02 -0.77826716042E+02  0.10278967915E+03  0.41800000000E+01 0. -1.
         -5    1    3    3    0  502 -0.31103934802E+02 -0.13575169946E+03 -0.43982553551E+01  0.13940156282E+03  0.41800000000E+01 0. -1.
        -11    1    4    4    0    0  0.40126526022E+02  0.38204743645E+02  0.35011930207E+01  0.55515753441E+02  0.00000000000E+00 0.  1.
         11    1    4    4    0    0  0.49837984659E+02  0.12958881306E+03  0.15723998734E+03  0.20976534224E+03  0.00000000000E+00 0. -1.
</event>
<event>
 8    1  0.6648599E-009  0.1692921E+03  0.7561462E-02  0.1178588E+00
         -1   -1    0    0    0  501 -0.00000000000E+00  0.00000000000E+00  0.59493674470E+02  0.59493674470E+02  0.00000000000E+00 0.  1.
          1   -1    0    0  501    0  0.00000000000E+00 -0.00000000000E+00 -0.62509611707E+03  0.62509611707E+03  0.00000000000E+00 0. -1.
         25    2    1    2    0    0 -0.98146816291E+02  0.89223264667E+02 -0.45267163670E+03  0.48801052744E+03  0.12509626579E+03 0.  0.
         23    2    1    2    0    0  0.98146816291E+02 -0.89223264667E+02 -0.11293080590E+03  0.19657926410E+03  0.91084859588E+02 0.  0.
          5    1    3    3  502    0 -0.11437894851E+03  0.10573069277E+03 -0.41812238066E+03  0.44621219265E+03  0.41800000000E+01 0. -1.
         -5    1    3    3    0  502  0.16232132215E+02 -0.16507428104E+02 -0.34549256035E+02  0.41798334793E+02  0.41800000000E+01 0. -1.
        -11    1    4    4    0    0  0.10690956219E+03 -0.48164700713E+02 -0.70153526071E+02  0.13664190464E+03  0.00000000000E+00 0. -1.
         11    1    4    4    0    0 -0.87627458990E+01 -0.41058563954E+02 -0.42777279829E+02  0.59937359462E+02  0.00000000000E+00 0.  1.
</event>
<event>
 8    1  0.6648599E-009  0.9051807E+02  0.7561462E-02  0.1301602E+00
         -3   -1    0    0    0  501 -0.00000000000E+00  0.00000000000E+00  0.85442446361E+02  0.85442446361E+02  0.00000000000E+00 0.  1.
          3   -1    0    0  501    0  0.00000000000E+00 -0.00000000000E+00 -0.15985490447E+03  0.15985490447E+03  0.00000000000E+00 0. -1.
         25    2    1    2    0    0  0.49281566640E+02  0.16518553053E+01 -0.26312784082E+02  0.13701075190E+03  0.12509269400E+03 0.  0.
         23    2    1    2    0    0 -0.49281566640E+02 -0.16518553053E+01 -0.48099674032E+02  0.10828659894E+03  0.83552423254E+02 0.  0.
          5    1    3    3  502    0 -0.75534830791E+01  0.40304981760E+02  0.27557078567E+02  0.49582372275E+02  0.41800000000E+01 0. -1.
         -5    1    3    3    0  502  0.56835049720E+02 -0.38653126454E+02 -0.53869862649E+02  0.87428379621E+02  0.41800000000E+01 0. -1.
        -11    1    4    4    0    0 -0.59404037490E+02 -0.64524047440E+01 -0.88396094010E+00  0.59759974766E+02  0.00000000000E+00 0.  1.
         11    1    4    4    0    0  0.10122470850E+02  0.48005494387E+01 -0.47215713092E+02  0.48526624174E+02  0.00000000000E+00 0. -1.
</event>
<event>
 8    1  0.6648599E-009  0.7902256E+02  0.7561462E-02  0.1331848E+00
          1   -1    0    0  501    0  0.00000000000E+00  0.00000000000E+00  0.60230619862E+02  0.60230619862E+02  0.00000000000E+00 0. -1.
         -1   -1    0    0    0  501 -0.00000000000E+00 -0.00000000000E+00 -0.22693233568E+03  0.22693233568E+03  0.00000000000E+00 0.  1.
         25    2    1    2    0    0 -0.24769744260E+02  0.26233388508E+02 -0.61585959923E+02  0.14401968808E+03  0.12508840550E+03 0.  0.
         23    2    1    2    0    0  0.24769744260E+02 -0.26233388508E+02 -0.10511575589E+03  0.14314326746E+03  0.90216084924E+02 0.  0.
          5    1    3    3  502    0 -0.56205693014E+02  0.62371766315E+01 -0.83244327749E+02  0.10072275216E+03  0.41800000000E+01 0. -1.
         -5    1    3    3    0  502  0.31435948754E+02  0.19996211877E+02  0.21658367826E+02  0.43296935924E+02  0.41800000000E+01 0. -1.
        -11    1    4    4    0    0 -0.11199360999E+01 -0.36119313804E+02 -0.18067732407E+01  0.36181811951E+02  0.00000000000E+00 0. -1.
         11    1    4    4    0    0  0.25889680360E+02  0.98859252954E+01 -0.10330898265E+03  0.10696145551E+03  0.00000000000E+00 0.  1.
</event>
<event>
 8    1  0.6648599E-009  0.1471471E+03  0.7561462E-02  0.1204023E+00
          2   -1    0    0  501    0  0.00000000000E+00  0.00000000000E+00  0.69035666027E+02  0.69035666027E+02  0.00000000000E+00 0. -1.
         -2   -1    0    0    0  501 -0.00000000000E+00 -0.00000000000E+00 -0.37014846475E+03  0.37014846475E+03  0.00000000000E+00 0.  1.
         25    2    1    2    0    0  0.11467927278E+03 -0.69946254981E+00 -0.13238181203E+03  0.21522988187E+03  0.12508850084E+03 0.  0.
         23    2    1    2    0    0 -0.11467927278E+03  0.69946254981E+00 -0.16873098670E+03  0.22395424890E+03  0.92377133950E+02 0.  0.
          5    1    3    3  502    0  0.13891704863E+03  0.60683032438E+01 -0.12858924625E+03  0.18943979876E+03  0.41800000000E+01 0. -1.
         -5    1    3    3    0  502 -0.24237775846E+02 -0.67677657937E+01 -0.37925657780E+01  0.25790083113E+02  0.41800000000E+01 0. -1.
        -11    1    4    4    0    0 -0.25742887742E+02 -0.26226086067E+02 -0.10508223029E+03  0.11132285921E+03  0.00000000000E+00 0.  1.
         11    1    4    4    0    0 -0.88936385040E+02  0.26925548617E+02 -0.63648756405E+02  0.11263138969E+03  0.00000000000E+00 0. -1.
</event>
<event>
 8    1  0.6648599E-009  0.1195250E+03  0.7561462E-02  0.1243883E+00
          1   -1    0    0  501    0  0.00000000000E+00  0.00000000000E+00  0.78208939590E+03  0.78208939590E+03  0.00000000000E+00 0. -1.
         -1   -1    0    0    0  501 -0.00000000000E+00 -0.00000000000E+00 -0.35524348925E+02  0.35524348925E+02  0.00000000000E+00 0.  1.
         25    2    1    2    0    0 -0.66512938859E+01  0.87703515220E+02  0.61839925481E+03  0.63702650688E+03  0.12509590648E+03 0.  0.
         23    2    1    2    0    0  0.66512938859E+01 -0.87703515220E+02  0.12816579216E+03  0.18058723794E+03  0.91919170668E+02 0.  0.
          5    1    3    3  502    0 -0.54374359418E+02  0.20780041901E+02  0.14125267400E+03  0.15283380325E+03  0.41800000000E+01 0.  1.
         -5    1    3    3    0  502  0.47723065532E+02  0.66923473319E+02  0.47714658081E+03  0.48419270363E+03  0.41800000000E+01 0.  1.
        -11    1    4    4    0    0  0.25583117672E+02 -0.47569436472E+02  0.10758160297E+02  0.55073452852E+02  0.00000000000E+00 0.  1.
         11    1    4    4    0    0 -0.18931823786E+02 -0.40134078748E+02  0.11740763186E+03  0.12551378509E+03  0.00000000000E+00 0. -1.
</event>
<event>
 8    1  0.6648599E-009  0.1197089E+03  0.7561462E-02  0.1243578E+00
         -2   -1    0    0    0  501 -0.00000000000E+00  0.00000000000E+00  0.22998647526E+03  0.22998647526E+03  0.00000000000E+00 0. -1.
          2   -1    0    0  501    0  0.00000000000E+00 -0.00000000000E+00 -0.28973109495E+03  0.28973109495E+03  0.00000000000E+00 0.  1.
         25    2    1    2    0    0  0.10839574408E+03  0.14364372487E+02 -0.23844149494E+03  0.29061788551E+03  0.12509371024E+03 0.  0.
         23    2    1    2    0    0 -0.10839574408E+03 -0.14364372487E+02  0.17869687525E+03  0.22909968470E+03  0.92726046914E+02 0.  0.
          5    1    3    3  502    0  0.11364699640E+03  0.32003856709E+01 -0.99719385591E+02  0.15128552648E+03  0.41800000000E+01 0.  1.
         -5    1    3    3    0  502 -0.52512523208E+01  0.11163986816E+02 -0.13872210934E+03  0.13933235903E+03  0.41800000000E+01 0.  1.
        -11    1    4    4    0    0 -0.63422838925E+02 -0.21747437550E+02  0.29778019024E+02  0.73363055786E+02  0.00000000000E+00 0.  1.
         11    1    4    4    0    0 -0.44972905156E+02  0.73830650629E+01  0.14891885622E+03  0.15573662892E+03  0.00000000000E+00 0. -1.
</event>
<event>
 8    1  0.6648599E-009  0.1023176E+03  0.7561462E-02  0.1275497E+00
         -1   -1    0    0    0  501 -0.00000000000E+00  0.00000000000E+00  0.31904871508E+03  0.31904871508E+03  0.00000000000E+00 0.  1.
          1   -1    0    0  501    0  0.00000000000E+00 -0.00000000000E+00 -0.75756390673E+02  0.75756390673E+02  0.00000000000E+00 0. -1.
         25    2    1    2    0    0  0.54223718161E+01 -0.77491815132E+02  0.23320365858E+03  0.27579431903E+03  0.12507668249E+03 0.  0.
         23    2    1    2    0    0 -0.54223718161E+01  0.77491815132E+02  0.10088665827E+02  0.11901078673E+03  0.89595773625E+02 0.  0.
          5    1    3    3  502    0 -0.14126810593E+02 -0.15125390217E+02  0.20226166455E+03  0.20336075716E+03  0.41800000000E+01 0.  1.
         -5    1    3    3    0  502  0.19549182409E+02 -0.62366424914E+02  0.30941994029E+02  0.72433561862E+02  0.41800000000E+01 0.  1.
        -11    1    4    4    0    0 -0.45519204448E+02  0.24866655630E+02  0.10141040967E+02  0.52850631479E+02  0.00000000000E+00 0.  1.
         11    1    4    4    0    0  0.40096832632E+02  0.52625159502E+02 -0.52375139373E-01  0.66160155251E+02  0.00000000000E+00 0. -1.
</event>
<event>
 8    1  0.6648599E-009  0.1388364E+03  0.7561462E-02  0.1214903E+00
          1   -1    0    0  501    0  0.00000000000E+00  0.00000000000E+00  0.51622770653E+02  0.51622770653E+02  0.00000000000E+00 0. -1.
         -1   -1    0    0    0  501 -0.00000000000E+00 -0.00000000000E+00 -0.51360826691E+03  0.51360826691E+03  0.00000000000E+00 0.  1.
         25    2    1    2    0    0 -0.53758557365E+02 -0.88282969651E+02 -0.35261309353E+03  0.38815934413E+03  0.12509123665E+03 0.  0.
         23    2    1    2    0    0  0.53758557365E+02  0.88282969651E+02 -0.10937240273E+03  0.17707169343E+03  0.93317720267E+02 0.  0.
          5    1    3    3  502    0 -0.65582819748E+02 -0.42040388403E+01 -0.22794752018E+03  0.23726846513E+03  0.41800000000E+01 0.  1.
         -5    1    3    3    0  502  0.11824262383E+02 -0.84078930810E+02 -0.12466557335E+03  0.15089087900E+03  0.41800000000E+01 0.  1.
        -11    1    4    4    0    0 -0.14437018601E+01  0.67980783619E+02 -0.21467772853E+02  0.71304533431E+02  0.00000000000E+00 0. -1.
         11    1    4    4    0    0  0.55202259225E+02  0.20302186031E+02 -0.87904629873E+02  0.10576716000E+03  0.00000000000E+00 0.  1.
</event>
<event>
 8    1  0.6648599E-009  0.9794314E+02  0.7561462E-02  0.1284682E+00
          1   -1    0    0  501    0  0.00000000000E+00  0.00000000000E+00  0.85090446971E+02  0.85090446971E+02  0.00000000000E+00 0. -1.
         -1   -1    0    0    0  501 -0.00000000000E+00 -0.00000000000E+00 -0.16390525154E+03  0.16390525154E+03  0.00000000000E+00 0.  1.
         25    2    1    2    0    0  0.49566016934E+01  0.41384494547E+02 -0.22428625360E+02  0.13374806721E+03  0.12509299724E+03 0.  0.
         23    2    1    2    0    0 -0.49566016934E+01 -0.41384494547E+02 -0.56386179212E+02  0.11524763130E+03  0.91462402250E+02 0.  0.
          5    1    3    3  502    0  0.64362259311E+02  0.20030845643E+02 -0.31475909453E+01  0.67610020925E+02  0.41800000000E+01 0. -1.
         -5    1    3    3    0  502 -0.59405657617E+02  0.21353648904E+02 -0.19281034415E+02  0.66138046286E+02  0.41800000000E+01 0. -1.
        -11    1    4    4    0    0  0.18578202256E+02 -0.13278739593E+01  0.19056689963E+02  0.26647143949E+02  0.00000000000E+00 0. -1.
         11    1    4    4    0    0 -0.23534803949E+02 -0.40056620587E+02 -0.75442869175E+02  0.88600487353E+02  0.00000000000E+00 0.  1.
</event>
<event>
 8    1  0.6648599E-009  0.1871287E+03  0.7561462E-02  0.1161077E+00
         -4   -1    0    0    0  501 -0.00000000000E+00  0.00000000000E+00  0.78251615208E+02  0.78251615208E+02  0.00000000000E+00 0. -1.
          4   -1    0    0  501    0  0.00000000000E+00 -0.00000000000E+00 -0.61024798732E+03  0.61024798732E+03  0.00000000000E+00 0.  1.
         25    2    1    2    0    0 -0.35292818228E+02  0.16396442186E+03 -0.13545897156E+03  0.24925003681E+03  0.12508610323E+03 0.  0.
         23    2    1    2    0    0  0.35292818228E+02 -0.16396442186E+03 -0.39653740056E+03  0.43924956572E+03  0.86996300455E+02 0.  0.
          5    1    3    3  502    0 -0.76627491381E+02  0.78569576421E+02 -0.46981798484E+02  0.11945590217E+03  0.41800000000E+01 0. -1.
         -5    1    3    3    0  502  0.41334673153E+02  0.85394845436E+02 -0.88477173073E+02  0.12979413464E+03  0.41800000000E+01 0. -1.
        -11    1    4    4    0    0  0.15966193308E+02 -0.28844258844E+02 -0.19588257373E+02  0.38348538746E+02  0.00000000000E+00 0. -1.
         11    1    4    4    0    0  0.19326624920E+02 -0.13512016301E+03 -0.37694914319E+03  0.40090102698E+03  0.00000000000E+00 0.  1.
</event>
<event>
 8    1  0.6648599E-009  0.1474193E+03  0.7561462E-02  0.1203680E+00
         -3   -1    0    0    0  501 -0.00000000000E+00  0.00000000000E+00  0.38046423341E+03  0.38046423341E+03  0.00000000000E+00 0.  1.
          3   -1    0    0  501    0  0.00000000000E+00 -0.00000000000E+00 -0.61464032107E+02  0.61464032107E+02  0.00000000000E+00 0. -1.
         25    2    1    2    0    0 -0.79879305591E+02  0.72801247908E+02  0.18231797933E+03  0.24611010417E+03  0.12509841178E+03 0.  0.
         23    2    1    2    0    0  0.79879305591E+02 -0.72801247908E+02  0.13668222198E+03  0.19581816135E+03  0.89342024552E+02 0.  0.
          5    1    3    3  502    0 -0.10712348781E+03  0.28505320677E+02  0.10434863850E+03  0.15229611191E+03  0.41800000000E+01 0.  1.
         -5    1    3    3    0  502  0.27244182217E+02  0.44295927231E+02  0.77969340830E+02  0.93813992258E+02  0.41800000000E+01 0.  1.
        -11    1    4    4    0    0  0.34089269080E+01 -0.52510050339E+02  0.23269079884E+02  0.57535869229E+02  0.00000000000E+00 0. -1.
         11    1    4    4    0    0  0.76470378683E+02 -0.20291197569E+02  0.11341314209E+03  0.13828229212E+03  0.00000000000E+00 0.  1.
</event>
<event>
 8    1  0.6648599E-009  0.1612094E+03  0.7561462E-02  0.1187338E+00
          2   -1    0    0  501    0  0.00000000000E+00  0.00000000000E+00  0.67444432661E+02  0.67444432661E+02  0.00000000000E+00 0. -1.
         -2   -1    0    0    0  501 -0.00000000000E+00 -0.00000000000E+00 -0.44011672373E+03  0.44011672373E+03  0.00000000000E+00 0.  1.
         25    2    1    2    0    0 -0.14144269985E+01 -0.13349088812E+03 -0.19652406038E+03  0.26849893364E+03  0.12509257870E+03 0.  0.
         23    2    1    2    0    0  0.14144269985E+01  0.13349088812E+03 -0.17614823070E+03  0.23906222275E+03  0.91108338550E+02 0.  0.
          5    1    3    3  502    0  0.53599507855E+02 -0.45662117115E+02 -0.41077172256E+02  0.81625625035E+02  0.41800000000E+01 0. -1.
         -5    1    3    3    0  502 -0.55013934854E+02 -0.87828771007E+02 -0.15544688812E+03  0.18687330861E+03  0.41800000000E+01 0. -1.
        -11    1    4    4    0    0  0.32823090869E+02  0.71134670211E+02 -0.14002572801E+03  0.16045155376E+03  0.00000000000E+00 0.  1.
         11    1    4    4    0    0 -0.31408663870E+02  0.62356217912E+02 -0.36122502688E+02  0.78610668988E+02  0.00000000000E+00 0. -1.
</event>
<event>
 8    1  0.6648599E-009  0.6572896E+02  0.7561462E-02  0.1375250E+00
         -1   -1    0    0    0  501 -0.00000000000E+00  0.00000000000E+00  0.18421260566E+03  0.18421260566E+03  0.00000000000E+00 0.  1.
          1   -1    0    0  501    0  0.00000000000E+00 -0.00000000000E+00 -0.70688989922E+02  0.70688989922E+02  0.00000000000E+00 0. -1.
         25    2    1    2    0    0  0.95470318243E+01  0.31916799961E+02  0.59747691992E+02  0.14257733017E+03  0.12509468591E+03 0.  0.
         23    2    1    2    0    0 -0.95470318243E+01 -0.31916799961E+02  0.53775923747E+02  0.11232426541E+03  0.92817362006E+02 0.  0.
          5    1    3    3  502    0  0.37804983621E+02  0.31331510464E+02 -0.23476892400E+02  0.54584954074E+02  0.41800000000E+01 0. -1.
         -5    1    3    3    0  502 -0.28257951796E+02  0.58528949672E+00  0.83224584392E+02  0.87992376095E+02  0.41800000000E+01 0. -1.
        -11    1    4    4    0    0 -0.24597393724E+02 -0.90021412933E+01  0.73842126523E+02  0.78350047705E+02  0.00000000000E+00 0.  1.
         11    1    4    4    0    0  0.15050361900E+02 -0.22914658667E+02 -0.20066202776E+02  0.33974217710E+02  0.00000000000E+00 0. -1.
</event>
<event>
 7    1  0.6648599E-009  0.1394446E+03  0.7561462E-02  0.1214078E+00
          2   -1    0    0  501    0  0.00000000000E+00  0.00000000000E+00  0.10976723633E+04  0.10976723633E+04  0.00000000000E+00 0. -1.
         -2   -1    0    0    0  501 -0.00000000000E+00 -0.00000000000E+00 -0.25951387081E+02  0.25951387081E+02  0.00000000000E+00 0.  1.
         25    2    1    2    0    0  0.29888918155E+02 -0.11544381846E+03  0.86208566449E+03  0.87923801525E+03  0.12508865615E+03 0.  0.
          5    1    3    3  502    0 -0.33856564440E+02 -0.72345491466E+02  0.62115138397E+03  0.62628001030E+03  0.41800000000E+01 0. -1.
         -5    1    3    3    0  502  0.63745482595E+02 -0.43098326991E+02  0.24093428052E+03  0.25295800495E+03  0.41800000000E+01 0. -1.
        -11    1    1    2    0    0 -0.50108416108E+01  0.68774173970E+02  0.14727607484E+03  0.16261991809E+03  0.00000000000E+00 0. -1.
         11    1    1    2    0    0 -0.24878076544E+02  0.46669644487E+02  0.62359236845E+02  0.81765816995E+02  0.00000000000E+00 0.  1.
</event>
<event>
 8    1  0.6648599E-009  0.1771439E+03  0.7561462E-02  0.1170596E+00
          2   -1    0    0  501    0  0.00000000000E+00  0.00000000000E+00  0.11432871318E+03  0.11432871318E+03  0.00000000000E+00 0. -1.
         -2   -1    0    0    0  501 -0.00000000000E+00 -0.00000000000E+00 -0.34571666566E+03  0.34571666566E+03  0.00000000000E+00 0.  1.
         25    2    1    2    0    0  0.11163842342E+03  0.11787398093E+03 -0.77031245619E+02  0.21894847319E+03  0.12508880105E+03 0.  0.
         23    2    1    2    0    0 -0.11163842342E+03 -0.11787398093E+03 -0.15435670687E+03  0.24109690565E+03  0.89130870046E+02 0.  0.
          5    1    3    3  502    0  0.20462026492E+01  0.27591802049E+02 -0.71509424596E+02  0.76789092270E+02  0.41800000000E+01 0.  1.
         -5    1    3    3    0  502  0.10959222077E+03  0.90282178881E+02 -0.55218210237E+01  0.14215938092E+03  0.41800000000E+01 0.  1.
        -11    1    4    4    0    0 -0.40309132127E+02 -0.10406697962E+03 -0.81384289482E+02  0.13812373060E+03  0.00000000000E+00 0.  1.
         11    1    4    4    0    0 -0.71329291294E+02 -0.13807001314E+02 -0.72972417384E+02  0.10297317505E+03  0.00000000000E+00 0. -1.
</event>
<event>
 8    1  0.6648599E-009  0.1364490E+03  0.7561462E-02  0.1218189E+00
          1   -1    0    0  501    0  0.00000000000E+00  0.00000000000E+00  0.98424459166E+03  0.98424459166E+03  0.00000000000E+00 0. -1.
         -1   -1    0    0    0  501 -0.00000000000E+00 -0.00000000000E+00 -0.19499277363E+03  0.19499277363E+03  0.00000000000E+00 0.  1.
         25    2    1    2    0    0 -0.35772756878E+02 -0.82266915080E+02  0.95681577672E+03  0.96911909665E+03  0.12509139645E+03 0.  0.
         23    2    1    2    0    0  0.35772756878E+02  0.82266915080E+02 -0.16756395869E+03  0.21011826863E+03  0.89579412304E+02 0.  0.
          5    1    3    3  502    0 -0.29639976264E+02 -0.11376521212E+03  0.82729288332E+03  0.83561476703E+03  0.41800000000E+01 0.  1.
         -5    1    3    3    0  502 -0.61327806137E+01  0.31498297038E+02  0.12952289340E+03  0.13350432962E+03  0.41800000000E+01 0.  1.
        -11    1    4    4    0    0 -0.26247398431E+02  0.11093032190E+02 -0.19535445254E+02  0.34548732377E+02  0.00000000000E+00 0.  1.
         11    1    4    4    0    0  0.62020155309E+02  0.71173882890E+02 -0.14802851343E+03  0.17556953625E+03  0.00000000000E+00 0. -1.
</event>
<event>
 8    1  0.6648599E-009  0.2392762E+03  0.7561462E-02  0.1120276E+00
         -2   -1    0    0    0  501 -0.00000000000E+00  0.00000000000E+00  0.12991241406E+03  0.12991241406E+03  0.00000000000E+00 0.  1.
          2   -1    0    0  501    0  0.00000000000E+00 -0.00000000000E+00 -0.47973251283E+03  0.47973251283E+03  0.00000000000E+00 0. -1.
         25    2    1    2    0    0 -0.22306451978E+03  0.19525021593E+02 -0.16500119398E+03  0.30497701204E+03  0.12508627982E+03 0.  0.
         23    2    1    2    0    0  0.22306451978E+03 -0.19525021593E+02 -0.18481890479E+03  0.30466791485E+03  0.92333657563E+02 0.  0.
          5    1    3    3  502    0 -0.55773276834E+02 -0.45492990507E+02 -0.75429086266E+02  0.10434217771E+03  0.41800000000E+01 0.  1.
         -5    1    3    3    0  502 -0.16729124295E+03  0.65018012100E+02 -0.89572107719E+02  0.20063483433E+03  0.41800000000E+01 0.  1.
        -11    1    4    4    0    0  0.70824553553E+02  0.10951206771E+02 -0.12548518926E+02  0.72756523027E+02  0.00000000000E+00 0.  1.
         11    1    4    4    0    0  0.15223996623E+03 -0.30476228364E+02 -0.17227038586E+03  0.23191139182E+03  0.00000000000E+00 0. -1.
</event>
<event>
 8    1  0.6648599E-009  0.9184937E+02  0.7561462E-02  0.1298434E+00
          2   -1    0    0  501    0  0.00000000000E+00  0.00000000000E+00  0.47795116335E+03  0.47795116335E+03  0.00000000000E+00 0. -1.
         -2   -1    0    0    0  501 -0.00000000000E+00 -0.00000000000E+00 -0.24777510990E+02  0.24777510990E+02  0.00000000000E+00 0.  1.
         25    2    1    2    0    0 -0.71023087950E+01 -0.56004467754E+01  0.28838295502E+03  0.31447395222E+03  0.12508928846E+03 0.  0.
         23    2    1    2    0    0  0.71023087950E+01  0.56004467754E+01  0.16479069734E+03  0.18825472212E+03  0.90565217801E+02 0.  0.
          5    1    3    3  502    0  0.22032140118E+02  0.37610329197E+02  0.23755346106E+03  0.24155552431E+03  0.41800000000E+01 0.  1.
         -5    1    3    3    0  502 -0.29134448913E+02 -0.43210775973E+02  0.50829493954E+02  0.72918427913E+02  0.41800000000E+01 0.  1.
        -11    1    4    4    0    0  0.46951376847E+02  0.83333205010E+01  0.63793428875E+02  0.79645951473E+02  0.00000000000E+00 0.  1.
         11    1    4    4    0    0 -0.39849068052E+02 -0.27328737256E+01  0.10099726847E+03  0.10860877065E+03  0.00000000000E+00 0. -1.
</event>
<event>
 8    1  0.6648599E-009  0.1457473E+03  0.7561462E-02  0.1205798E+00
          2   -1    0    0  501    0  0.00000000000E+00  0.00000000000E+00  0.11261312588E+03  0.11261312588E+03  0.00000000000E+00 0. -1.
         -2   -1    0    0    0  501 -0.00000000000E+00 -0.00000000000E+00 -0.25213782972E+03  0.25213782972E+03  0.00000000000E+00 0.  1.
         25    2    1    2    0    0  0.18454412261E+02  0.11693782884E+03 -0.12537351136E+03  0.21302744342E+03  0.12508858123E+03 0.  0.
         23    2    1    2    0    0 -0.18454412261E+02 -0.11693782884E+03 -0.14151192484E+02  0.15172351219E+03  0.93833612089E+02 0.  0.
          5    1    3    3  502    0  0.38969276879E+02  0.12912254265E+03 -0.68758633180E+02  0.15144787090E+03  0.41800000000E+01 0.  1.
         -5    1    3    3    0  502 -0.20514864617E+02 -0.12184713819E+02 -0.56614878175E+02  0.61579572521E+02  0.41800000000E+01 0.  1.
        -11    1    4    4    0    0  0.21496203981E+02 -0.49175508839E+02 -0.42134182160E+02  0.68232006869E+02  0.00000000000E+00 0.  1.
         11    1    4    4    0    0 -0.39950616242E+02 -0.67762319997E+02  0.27982989676E+02  0.83491505321E+02  0.00000000000E+00 0. -1.
</event>
<event>
 8    1  0.6648599E-009  0.1120974E+03  0.7561462E-02  0.1256734E+00
          2   -1    0    0  501    0  0.00000000000E+00  0.00000000000E+00  0.44015318134E+02  0.44015318134E+02  0.00000000000E+00 0. -1.
         -2   -1    0    0    0  501 -0.00000000000E+00 -0.00000000000E+00 -0.54089011651E+03  0.54089011651E+03  0.00000000000E+00 0.  1.
         25    2    1    2    0    0 -0.63917365049E+02 -0.68941795039E+02 -0.37549363375E+03  0.40679418689E+03  0.12509053058E+03 0.  0.
         23    2    1    2    0    0  0.63917365049E+02  0.68941795039E+02 -0.12138116462E+03  0.17811124775E+03  0.90287478607E+02 0.  0.
          5    1    3    3  502    0 -0.43309884689E+02 -0.57136596417E+02 -0.37587722717E+03  0.38267675532E+03  0.41800000000E+01 0.  1.
         -5    1    3    3    0  502 -0.20607480361E+02 -0.11805198622E+02  0.38359341705E+00  0.24117431563E+02  0.41800000000E+01 0.  1.
        -11    1    4    4    0    0  0.40599936012E+02 -0.13344111362E+02 -0.56068436724E+02  0.70498863175E+02  0.00000000000E+00 0. -1.
         11    1    4    4    0    0  0.23317429037E+02  0.82285906402E+02 -0.65312727898E+02  0.10761238458E+03  0.00000000000E+00 0.  1.
</event>
<event>
 8    1  0.6648599E-009  0.1281856E+03  0.7561462E-02  0.1230173E+00
          2   -1    0    0  501    0  0.00000000000E+00  0.00000000000E+00  0.14772162958E+04  0.14772162958E+04  0.00000000000E+00 0.  1.
         -2   -1    0    0    0  501 -0.00000000000E+00 -0.00000000000E+00 -0.14356527915E+02  0.14356527915E+02  0.00000000000E+00 0. -1.
         25    2    1    2    0    0  0.59721832813E+02  0.42921428964E+02  0.11169041944E+04  0.11262901054E+04  0.12508187579E+03 0.  0.
         23    2    1    2    0    0 -0.59721832813E+02 -0.42921428964E+02  0.34595557352E+03  0.36528271836E+03  0.91308592716E+02 0.  0.
          5    1    3    3  502    0  0.29190950199E+01 -0.41289846359E+02  0.41146737287E+03  0.41356528368E+03  0.41800000000E+01 0. -1.
         -5    1    3    3    0  502  0.56802737793E+02  0.84211275323E+02  0.70543682153E+03  0.71272482171E+03  0.41800000000E+01 0. -1.
        -11    1    4    4    0    0 -0.51566501568E+02 -0.68794670855E+02  0.21512327304E+03  0.23166750620E+03  0.00000000000E+00 0. -1.
         11    1    4    4    0    0 -0.81553312444E+01  0.25873241891E+02  0.13083230047E+03  0.13361521216E+03  0.00000000000E+00 0.  1.
</event>
<event>
 7    1  0.6648599E-009  0.1649433E+03  0.7561462E-02  0.1183226E+00
          2   -1    0    0  501    0  0.00000000000E+00  0.00000000000E+00  0.81369246839E+03  0.81369246839E+03  0.00000000000E+00 0. -1.
         -2   -1    0    0    0  501 -0.00000000000E+00 -0.00000000000E+00 -0.44563875579E+02  0.44563875579E+02  0.00000000000E+00 0.  1.
         25    2    1    2    0    0 -0.90879800532E+02 -0.10440112441E+03  0.40239214544E+03  0.44353701208E+03  0.12508760711E+03 0.  0.
          5    1    3    3  502    0 -0.10419520373E+03 -0.11304620666E+03  0.39779186340E+03  0.42648789468E+03  0.41800000000E+01 0. -1.
         -5    1    3    3    0  502  0.13315403200E+02  0.86450822458E+01  0.46002820399E+01  0.17049117405E+02  0.41800000000E+01 0. -1.
        -11    1    1    2    0    0 -0.53316044331E+01  0.47698130371E+02  0.22856337643E+02  0.53159663441E+02  0.00000000000E+00 0.  1.
         11    1    1    2    0    0  0.96211404965E+02  0.56702994041E+02  0.34388010973E+03  0.36155966845E+03  0.00000000000E+00 0. -1.
</event>
<event>
 8    1  0.6648599E-009  0.9723861E+02  0.7561462E-02  0.1286212E+00
          2   -1    0    0  501    0  0.00000000000E+00  0.00000000000E+00  0.30044739653E+03  0.30044739653E+03  0.00000000000E+00 0. -1.
         -2   -1    0    0    0  501 -0.00000000000E+00 -0.00000000000E+00 -0.60252549621E+02  0.60252549621E+02  0.00000000000E+00 0.  1.
         25    2    1    2    0    0  0.72687680717E+02  0.14296617021E+02  0.95946301463E+02  0.17418716344E+03  0.12509029921E+03 0.  0.
         23    2    1    2    0    0 -0.72687680717E+02 -0.14296617021E+02  0.14424854545E+03  0.18651278272E+03  0.92149243442E+02 0.  0.
          5    1    3    3  502    0  0.44586982772E+02 -0.75671870002E+01 -0.22321050771E+02  0.50605958734E+02  0.41800000000E+01 0. -1.
         -5    1    3    3    0  502  0.28100697945E+02  0.21863804021E+02  0.11826735223E+03  0.12358120470E+03  0.41800000000E+01 0. -1.
        -11    1    4    4    0    0 -0.46568312181E+02 -0.50419130067E+02  0.59844732612E+02  0.91060904880E+02  0.00000000000E+00 0.  1.
         11    1    4    4    0    0 -0.26119368536E+02  0.36122513046E+02  0.84403812836E+02  0.95451877837E+02  0.00000000000E+00 0. -1.
</event>
<event>
 8    1  0.6648599E-009  0.1148396E+03  0.7561462E-02  0.1251861E+00
         -2   -1    0    0    0  501 -0.00000000000E+00  0.00000000000E+00  0.10280232516E+03  0.10280232516E+03  0.00000000000E+00 0.  1.
          2   -1    0    0  501    0  0.00000000000E+00 -0.00000000000E+00 -0.19193303693E+03  0.19193303693E+03  0.00000000000E+00 0. -1.
         25    2    1    2    0    0  0.52290190677E+02 -0.46744838603E+02  0.14399914672E+02  0.14413458099E+03  0.12509226962E+03 0.  0.
         23    2    1    2    0    0 -0.52290190677E+02  0.46744838603E+02 -0.10353062644E+03  0.15060078110E+03  0.83920561723E+02 0.  0.
          5    1    3    3  502    0 -0.26992474868E+02 -0.56958272770E+02  0.25990241741E+01  0.63222352559E+02  0.41800000000E+01 0. -1.
         -5    1    3    3    0  502  0.79282665545E+02  0.10213434167E+02  0.11800890498E+02  0.80912228432E+02  0.41800000000E+01 0. -1.
        -11    1    4    4    0    0 -0.47549664602E+02  0.89651892178E+01 -0.10153179935E+03  0.11247244774E+03  0.00000000000E+00 0. -1.
         11    1    4    4    0    0 -0.47405260749E+01  0.37779649385E+02 -0.19988270917E+01  0.38128333361E+02  0.00000000000E+00 0.  1.
</event>
<event>
 8    1  0.6648599E-009  0.2269936E+03  0.7561462E-02  0.1128774E+00
          1   -1    0    0  501    0  0.00000000000E+00  0.00000000000E+00  0.74122405745E+03  0.74122405745E+03  0.00000000000E+00 0. -1.
         -1   -1    0    0    0  501 -0.00000000000E+00 -0.00000000000E+00 -0.73996573680E+02  0.73996573680E+02  0.00000000000E+00 0.  1.
         25    2    1    2    0    0 -0.64925189837E+02 -0.19582738320E+03  0.31552325925E+03  0.39719788360E+03  0.12509031666E+03 0.  0.
         23    2    1    2    0    0  0.64925189837E+02  0.19582738320E+03  0.35170422452E+03  0.41802274752E+03  0.92105980367E+02 0.  0.
          5    1    3    3  502    0  0.24076403301E+02 -0.12515967314E+03  0.16391956123E+03  0.20768175637E+03  0.41800000000E+01 0. -1.
         -5    1    3    3    0  502 -0.89001593138E+02 -0.70667710064E+02  0.15160369802E+03  0.18951612723E+03  0.41800000000E+01 0. -1.
        -11    1    4    4    0    0  0.44189861902E+02  0.55753576221E+02  0.19108430799E+03  0.20389805766E+03  0.00000000000E+00 0. -1.
         11    1    4    4    0    0  0.20735327935E+02  0.14007380698E+03  0.16061991653E+03  0.21412468987E+03  0.00000000000E+00 0.  1.
</event>
<event>
 8    1  0.6648599E-009  0.1469721E+03  0.7561462E-02  0.1204244E+00
          4   -1    0    0  501    0  0.00000000000E+00  0.00000000000E+00  0.17593199031E+03  0.17593199031E+03  0.00000000000E+00 0. -1.
         -4   -1    0    0    0  501 -0.00000000000E+00 -0.00000000000E+00 -0.15084846714E+03  0.15084846714E+03  0.00000000000E+00 0.  1.
         25    2    1    2    0    0  0.11626000072E+03 -0.33191943901E+02 -0.15865845482E+01  0.17397429042E+03  0.12508574487E+03 0.  0.
         23    2    1    2    0    0 -0.11626000072E+03  0.33191943901E+02  0.26670107723E+02  0.15280616703E+03  0.89556334942E+02 0.  0.
          5    1    3    3  502    0 -0.87292756533E+01 -0.45978022065E+02  0.89202085656E+01  0.47824902377E+02  0.41800000000E+01 0.  1.
         -5    1    3    3    0  502  0.12498927637E+03  0.12786078164E+02 -0.10506793114E+02  0.12614938805E+03  0.41800000000E+01 0.  1.
        -11    1    4    4    0    0 -0.10377793872E+03  0.26604467588E+02  0.55537396293E+02  0.12067336346E+03  0.00000000000E+00 0. -1.
         11    1    4    4    0    0 -0.12482061997E+02  0.65874763131E+01 -0.28867288569E+02  0.32132803569E+02  0.00000000000E+00 0.  1.
</event>
<event>
 8    1  0.6648599E-009  0.4860720E+02  0.7561462E-02  0.1453002E+00
         -1   -1    0    0    0  501 -0.00000000000E+00  0.00000000000E+00  0.64802836074E+02  0.64802836074E+02  0.00000000000E+00 0.  1.
          1   -1    0    0  501    0  0.00000000000E+00 -0.00000000000E+00 -0.20020507596E+03  0.20020507596E+03  0.00000000000E+00 0. -1.
         25    2    1    2    0    0 -0.23478944385E+02 -0.16693964596E+02 -0.52341170982E+02  0.13862504198E+03  0.12508938724E+03 0.  0.
         23    2    1    2    0    0  0.23478944385E+02  0.16693964596E+02 -0.83061068903E+02  0.12638287005E+03  0.90793939184E+02 0.  0.
          5    1    3    3  502    0 -0.29220444223E+02 -0.10348270161E+02 -0.92347319672E+02  0.97500876440E+02  0.41800000000E+01 0. -1.
         -5    1    3    3    0  502  0.57414998376E+01 -0.63456944353E+01  0.40006148690E+02  0.41124165539E+02  0.41800000000E+01 0. -1.
        -11    1    4    4    0    0 -0.69247723462E+01  0.24136158343E+02  0.10878894271E+02  0.27365250815E+02  0.00000000000E+00 0.  1.
         11    1    4    4    0    0  0.30403716732E+02 -0.74421937468E+01 -0.93939963174E+02  0.99017619240E+02  0.00000000000E+00 0. -1.
</event>
<event>
 8    1  0.6648599E-009  0.1102504E+03  0.7561462E-02  0.1260107E+00
          1   -1    0    0  501    0  0.00000000000E+00  0.00000000000E+00  0.24707392375E+02  0.24707392375E+02  0.00000000000E+00 0. -1.
         -1   -1    0    0    0  501 -0.00000000000E+00 -0.00000000000E+00 -0.58902978680E+03  0.58902978680E+03  0.00000000000E+00 0.  1.
         25    2    1    2    0    0 -0.90285656298E+01 -0.39070965532E+02 -0.40298985529E+03  0.42385896408E+03  0.12509013796E+03 0.  0.
         23    2    1    2    0    0  0.90285656298E+01  0.39070965532E+02 -0.16133253913E+03  0.18987821510E+03  0.91746896626E+02 0.  0.
          5    1    3    3  502    0  0.46762580229E+02 -0.44837381513E+02 -0.29545823537E+03  0.30250648082E+03  0.41800000000E+01 0.  1.
         -5    1    3    3    0  502 -0.55791145859E+02  0.57664159802E+01 -0.10753161992E+03  0.12135248326E+03  0.41800000000E+01 0.  1.
        -11    1    4    4    0    0 -0.27944123714E+02  0.52928809524E+02 -0.85287618588E+02  0.10419362174E+03  0.00000000000E+00 0. -1.
         11    1    4    4    0    0  0.36972689344E+02 -0.13857843991E+02 -0.76044920542E+02  0.85684593351E+02  0.00000000000E+00 0.  1.
</event>
<event>
 8    1  0.6648599E-009  0.1202852E+03  0.7561462E-02  0.1242627E+00
          2   -1    0    0  501    0  0.00000000000E+00  0.00000000000E+00  0.54668370469E+03  0.54668370469E+03  0.00000000000E+00 0. -1.
         -2   -1    0    0    0  501 -0.00000000000E+00 -0.00000000000E+00 -0.33940313455E+02  0.33940313455E+02  0.00000000000E+00 0.  1.
         25    2    1    2    0    0 -0.58163054670E+02  0.31073436300E+02  0.39288567243E+03  0.41756145375E+03  0.12509962703E+03 0.  0.
         23    2    1    2    0    0  0.58163054670E+02 -0.31073436300E+02  0.11985771881E+03  0.16306256440E+03  0.88741353262E+02 0.  0.
          5    1    3    3  502    0 -0.51586024864E+02  0.72218749870E+02  0.18165090581E+03  0.20221570111E+03  0.41800000000E+01 0. -1.
         -5    1    3    3    0  502 -0.65770298061E+01 -0.41145313570E+02  0.21123476663E+03  0.21534575264E+03  0.41800000000E+01 0. -1.
        -11    1    4    4    0    0  0.12455705085E+02 -0.56283887130E+02  0.53612852355E+02  0.78723303267E+02  0.00000000000E+00 0.  1.
         11    1    4    4    0    0  0.45707349585E+02  0.25210450829E+02  0.66244866453E+02  0.84339261133E+02  0.00000000000E+00 0. -1.
</event>
<event>
 8    1  0.6648599E-009  0.1107492E+03  0.7561462E-02  0.1259189E+00
          1   -1    0    0  501    0  0.00000000000E+00  0.00000000000E+00  0.13826195834E+03  0.13826195834E+03  0.00000000000E+00 0. -1.
         -1   -1    0    0    0  501 -0.00000000000E+00 -0.00000000000E+00 -0.14650466307E+03  0.14650466307E+03  0.00000000000E+00 0.  1.
         25    2    1    2    0    0  0.84621364309E+02 -0.17571339658E+02 -0.36478876029E+02  0.15635468101E+03  0.12508617270E+03 0.  0.
         23    2    1    2    0    0 -0.84621364309E+02  0.17571339658E+02  0.28236171302E+02  0.12841194040E+03  0.90679754038E+02 0.  0.
          5    1    3    3  502    0  0.44518643427E+02  0.18098885306E+02 -0.75689809360E+02  0.89754659505E+02  0.41800000000E+01 0.  1.
         -5    1    3    3    0  502  0.40102720883E+02 -0.35670224964E+02  0.39210933331E+02  0.66600021501E+02  0.41800000000E+01 0.  1.
        -11    1    4    4    0    0  0.32241117751E+01  0.30468841750E+02  0.25036106638E+02  0.39567055108E+02  0.00000000000E+00 0.  1.
         11    1    4    4    0    0 -0.87845476084E+02 -0.12897502092E+02  0.32000646645E+01  0.88844885292E+02  0.00000000000E+00 0. -1.
</event>
<event>
 8    1  0.6648599E-009  0.1331480E+03  0.7561462E-02  0.1222858E+00
         -1   -1    0    0    0  501 -0.00000000000E+00  0.00000000000E+00  0.75285329965E+02  0.75285329965E+02  0.00000000000E+00 0.  1.
          1   -1    0    0  501    0  0.00000000000E+00 -0.00000000000E+00 -0.47404690350E+03  0.47404690350E+03  0.00000000000E+00 0. -1.
         25    2    1    2    0    0  0.89077556496E+02 -0.55442380591E+02 -0.37486518710E+03  0.40887624855E+03  0.12508880643E+03 0.  0.
         23    2    1    2    0    0 -0.89077556496E+02  0.55442380591E+02 -0.23896386436E+02  0.14045598491E+03  0.90267257502E+02 0.  0.
          5    1    3    3  502    0 -0.27991926186E+02 -0.26615930513E+02 -0.57876493309E+02  0.69707363789E+02  0.41800000000E+01 0.  1.
         -5    1    3    3    0  502  0.11706948268E+03 -0.28826450077E+02 -0.31698869379E+03  0.33916888476E+03  0.41800000000E+01 0.  1.
        -11    1    4    4    0    0 -0.23626799444E+02  0.25712955767E+02 -0.52529417252E+02  0.63077106965E+02  0.00000000000E+00 0. -1.
         11    1    4    4    0    0 -0.65450757052E+02  0.29729424824E+02  0.28633030816E+02  0.77378877950E+02  0.00000000000E+00 0.  1.
</event>
<event>
 8    1  0.6648599E-009  0.1366078E+03  0.7561462E-02  0.1217968E+00
         -2   -1    0    0    0  501 -0.00000000000E+00  0.00000000000E+00  0.68870673187E+02  0.68870673187E+02  0.00000000000E+00 0.  1.
          2   -1    0    0  501    0  0.00000000000E+00 -0.00000000000E+00 -0.33874790166E+03  0.33874790166E+03  0.00000000000E+00 0. -1.
         25    2    1    2    0    0  0.10309699433E+03  0.29488644410E+02 -0.15338589388E+03  0.22510652495E+03  0.12508854760E+03 0.  0.
         23    2    1    2    0    0 -0.10309699433E+03 -0.29488644410E+02 -0.11649133459E+03  0.18251204990E+03  0.90784618378E+02 0.  0.
          5    1    3    3  502    0  0.27693777039E+02 -0.48146260764E+02 -0.42130355317E+02  0.69838721003E+02  0.41800000000E+01 0. -1.
         -5    1    3    3    0  502  0.75403217294E+02  0.77634905174E+02 -0.11125553857E+03  0.15526780394E+03  0.41800000000E+01 0. -1.
        -11    1    4    4    0    0 -0.50437656307E+02 -0.25180882051E+02 -0.19908231837E+01  0.56409195807E+02  0.00000000000E+00 0.  1.
         11    1    4    4    0    0 -0.52659338026E+02 -0.43077623590E+01 -0.11450051140E+03  0.12610285409E+03  0.00000000000E+00 0. -1.
</event>
<event>
 8    1  0.6648599E-009  0.9986368E+02  0.7561462E-02  0.1280583E+00
         -2   -1    0    0    0  501 -0.00000000000E+00  0.00000000000E+00  0.27241954042E+03  0.27241954042E+03  0.00000000000E+00 0.  1.
          2   -1    0    0  501    0  0.00000000000E+00 -0.00000000000E+00 -0.50164410279E+02  0.50164410279E+02  0.00000000000E+00 0. -1.
         25    2    1    2    0    0  0.40764566568E+02  0.11542024956E+02  0.10634077910E+03  0.16955987753E+03  0.12508885858E+03 0.  0.
         23    2    1    2    0    0 -0.40764566568E+02 -0.11542024956E+02  0.11591435104E+03  0.15302407317E+03  0.90472437589E+02 0.  0.
          5    1    3    3  502    0  0.80744493843E+02  0.30917106572E+02  0.79223270951E+02  0.11734283031E+03  0.41800000000E+01 0. -1.
         -5    1    3    3    0  502 -0.39979927275E+02 -0.19375081616E+02  0.27117508146E+02  0.52217047222E+02  0.41800000000E+01 0. -1.
        -11    1    4    4    0    0 -0.37799740416E+02 -0.30983530779E+02  0.12281447562E+03  0.13218243067E+03  0.00000000000E+00 0.  1.
         11    1    4    4    0    0 -0.29648261522E+01  0.19441505822E+02 -0.69001245810E+01  0.20841642497E+02  0.00000000000E+00 0. -1.
</event>
<event>
 8    1  0.6648599E-009  0.1340285E+03  0.7561462E-02  0.1221598E+00
         -3   -1    0    0    0  501 -0.00000000000E+00  0.00000000000E+00  0.10685245330E+03  0.10685245330E+03  0.00000000000E+00 0.  1.
          3   -1    0    0  501    0  0.00000000000E+00 -0.00000000000E+00 -0.18516310236E+03  0.18516310236E+03  0.00000000000E+00 0. -1.
         25    2    1    2    0    0 -0.79837710483E+02 -0.98656265730E+01 -0.29735447530E+01  0.14875473582E+03  0.12509092236E+03 0.  0.
         23    2    1    2    0    0  0.79837710483E+02  0.98656265730E+01 -0.75337104302E+02  0.14326081984E+03  0.91523727056E+02 0.  0.
          5    1    3    3  502    0 -0.10920880747E+03  0.11627363989E+02 -0.13262482356E+02  0.11070286835E+03  0.41800000000E+01 0. -1.
         -5    1    3    3    0  502  0.29371096984E+02 -0.21492990562E+02  0.10288937603E+02  0.38051867475E+02  0.41800000000E+01 0. -1.
        -11    1    4    4    0    0  0.40477232626E+02 -0.40724508985E+02 -0.30307022542E+02  0.64926170444E+02  0.00000000000E+00 0. -1.
         11    1    4    4    0    0  0.39360477857E+02  0.50590135558E+02 -0.45030081761E+02  0.78334649398E+02  0.00000000000E+00 0.  1.
</event>
<event>
 8    1  0.6648599E-009  0.9567028E+02  0.7561462E-02  0.1289674E+00
          1   -1    0    0  501    0  0.00000000000E+00  0.00000000000E+00  0.16499191167E+03  0.16499191167E+03  0.00000000000E+00 0. -1.
         -1   -1    0    0    0  501 -0.00000000000E+00 -0.00000000000E+00 -0.76396363671E+02  0.76396363671E+02  0.00000000000E+00 0.  1.
         25    2    1    2    0    0 -0.92090829558E+01 -0.30574596265E+00  0.19067856214E+02  0.12686464855E+03  0.12508459226E+03 0.  0.
         23    2    1    2    0    0  0.92090829558E+01  0.30574596265E+00  0.69527691782E+02  0.11452362679E+03  0.90535410088E+02 0.  0.
          5    1    3    3  502    0 -0.11843427562E+02  0.57434341115E+02 -0.13594472682E+02  0.60342790814E+02  0.41800000000E+01 0.  1.
         -5    1    3    3    0  502  0.26343446062E+01 -0.57740087077E+02  0.32662328896E+02  0.66521857732E+02  0.41800000000E+01 0.  1.
        -11    1    4    4    0    0  0.37723551749E+02  0.17194333967E+02  0.47086994732E+01  0.41723893968E+02  0.00000000000E+00 0.  1.
         11    1    4    4    0    0 -0.28514468793E+02 -0.16888588005E+02  0.64818992309E+02  0.72799732825E+02  0.00000000000E+00 0. -1.
</event>
<event>
 8    1  0.6648599E-009  0.1152222E+03  0.7561462E-02  0.1251194E+00
         -1   -1    0    0    0  501 -0.00000000000E+00  0.00000000000E+00  0.22041655544E+03  0.22041655544E+03  0.00000000000E+00 0.  1.
          1   -1    0    0  501    0  0.00000000000E+00 -0.00000000000E+00 -0.74803698201E+02  0.74803698201E+02  0.00000000000E+00 0. -1.
         25    2    1    2    0    0 -0.32416641751E+01  0.62638638069E+02  0.10917719307E+03  0.17748737552E+03  0.12509197264E+03 0.  0.
         23    2    1    2    0    0  0.32416641751E+01 -0.62638638069E+02  0.36435664170E+02  0.11773287812E+03  0.92732764440E+02 0.  0.
          5    1    3    3  502    0  0.46423182012E+02  0.58226487576E+01  0.86750479992E+02  0.98651574977E+02  0.41800000000E+01 0.  1.
         -5    1    3    3    0  502 -0.49664846187E+02  0.56815989311E+02  0.22426713076E+02  0.78835800545E+02  0.41800000000E+01 0.  1.
        -11    1    4    4    0    0 -0.34812158292E+02 -0.60472783747E+02  0.81144238673E+01  0.70247333143E+02  0.00000000000E+00 0. -1.
         11    1    4    4    0    0  0.38053822467E+02 -0.21658543214E+01  0.28321240302E+02  0.47485544974E+02  0.00000000000E+00 0.  1.
</event>
<event>
 8    1  0.6648599E-009  0.1058842E+03  0.7561462E-02  0.1268387E+00
         -2   -1    0    0    0  501 -0.00000000000E+00  0.00000000000E+00  0.44720097676E+03  0.44720097676E+03  0.00000000000E+00 0.  1.
          2   -1    0    0  501    0  0.00000000000E+00 -0.00000000000E+00 -0.61877555487E+02  0.61877555487E+02  0.00000000000E+00 0. -1.
         25    2    1    2    0    0 -0.59590952708E+02 -0.62146740461E+02  0.65334818363E+02  0.16531980264E+03  0.12509476272E+03 0.  0.
         23    2    1    2    0    0  0.59590952708E+02  0.62146740461E+02  0.31998860291E+03  0.34375872961E+03  0.91455230543E+02 0.  0.
          5    1    3    3  502    0 -0.48163930142E+02 -0.84983397559E+02  0.29895074570E+01  0.97817951227E+02  0.41800000000E+01 0.  1.
         -5    1    3    3    0  502 -0.11427022566E+02  0.22836657099E+02  0.62345310906E+02  0.67501851413E+02  0.41800000000E+01 0.  1.
        -11    1    4    4    0    0  0.45504386724E+02  0.34544206005E+02  0.30315745456E+03  0.30849374975E+03  0.00000000000E+00 0.  1.
         11    1    4    4    0    0  0.14086565984E+02  0.27602534456E+02  0.16831148353E+02  0.35264979859E+02  0.00000000000E+00 0. -1.
</event>
<event>
 8    1  0.6648599E-009  0.2093802E+03  0.7561462E-02  0.1142058E+00
         -4   -1    0    0    0  501 -0.00000000000E+00  0.00000000000E+00  0.12322365470E+03  0.12322365470E+03  0.00000000000E+00 0.  1.
          4   -1    0    0  501    0  0.00000000000E+00 -0.00000000000E+00 -0.54920887191E+03  0.54920887191E+03  0.00000000000E+00 0. -1.
         25    2    1    2    0    0 -0.17541003213E+03  0.45035771006E+02 -0.41486900433E+03  0.46963820972E+03  0.12508739840E+03 0.  0.
         23    2    1    2    0    0  0.17541003213E+03 -0.45035771006E+02 -0.11116212880E+02  0.20279431689E+03  0.90581812371E+02 0.  0.
          5    1    3    3  502    0 -0.14947518569E+03  0.82418927002E+02 -0.28820568234E+03  0.33498611672E+03  0.41800000000E+01 0. -1.
         -5    1    3    3    0  502 -0.25934846439E+02 -0.37383155996E+02 -0.12666332199E+03  0.13465209300E+03  0.41800000000E+01 0. -1.
        -11    1    4    4    0    0  0.15372261657E+03 -0.70297062937E+02 -0.62706589824E+01  0.16914975929E+03  0.00000000000E+00 0. -1.
         11    1    4    4    0    0  0.21687415554E+02  0.25261291931E+02 -0.48455538979E+01  0.33644557599E+02  0.00000000000E+00 0.  1.
</event>
<event>
 8    1  0.6648599E-009  0.1401294E+03  0.7561462E-02  0.1213155E+00
          1   -1    0    0  501    0  0.00000000000E+00  0.00000000000E+00  0.14289888446E+03  0.14289888446E+03  0.00000000000E+00 0. -1.
         -1   -1    0    0    0  501 -0.00000000000E+00 -0.00000000000E+00 -0.14056208387E+03  0.14056208387E+03  0.00000000000E+00 0.  1.
         25    2    1    2    0    0 -0.91918729005E+02  0.23489330616E+02  0.19621735180E+01  0.15701264657E+03  0.12509324388E+03 0.  0.
         23    2    1    2    0    0  0.91918729005E+02 -0.23489330616E+02  0.37462707729E+00  0.12644832176E+03  0.83595671752E+02 0.  0.
          5    1    3    3  502    0 -0.11940386213E+03 -0.55530979160E+00  0.80764113410E+01  0.11975095607E+03  0.41800000000E+01 0. -1.
         -5    1    3    3    0  502  0.27485133121E+02  0.24044640407E+02 -0.61142378230E+01  0.37261690503E+02  0.41800000000E+01 0. -1.
        -11    1    4    4    0    0  0.48554254045E+01  0.24249878109E+02  0.10029014902E+02  0.26687316914E+02  0.00000000000E+00 0. -1.
         11    1    4    4    0    0  0.87063303600E+02 -0.47739208725E+02 -0.96543878246E+01  0.99761004845E+02  0.00000000000E+00 0.  1.
</event>
<event>
 8    1  0.6648599E-009  0.7466229E+02  0.7561462E-02  0.1344920E+00
         -3   -1    0    0    0  501 -0.00000000000E+00  0.00000000000E+00  0.91683360664E+02  0.91683360664E+02  0.00000000000E+00 0.  1.
          3   -1    0    0  501    0  0.00000000000E+00 -0.00000000000E+00 -0.13338199291E+03  0.13338199291E+03  0.00000000000E+00 0. -1.
         25    2    1    2    0    0 -0.91445054119E+01 -0.12353538748E+02 -0.74473297463E+01  0.12625351972E+03  0.12509299190E+03 0.  0.
         23    2    1    2    0    0  0.91445054119E+01  0.12353538748E+02 -0.34251302499E+02  0.98811833854E+02  0.91402379005E+02 0.  0.
          5    1    3    3  502    0  0.18968656447E+02 -0.57773738941E+02 -0.30223586432E+02  0.68033465409E+02  0.41800000000E+01 0.  1.
         -5    1    3    3    0  502 -0.28113161859E+02  0.45420200193E+02  0.22776256686E+02  0.58220054311E+02  0.41800000000E+01 0.  1.
        -11    1    4    4    0    0  0.52302648468E+01 -0.10434150997E+02  0.29110516882E+02  0.31363184955E+02  0.00000000000E+00 0.  1.
         11    1    4    4    0    0  0.39142405652E+01  0.22787689745E+02 -0.63361819381E+02  0.67448648899E+02  0.00000000000E+00 0. -1.
</event>
<event>
 8    1  0.6648599E-009  0.2139135E+03  0.7561462E-02  0.1138504E+00
          2   -1    0    0  501    0  0.00000000000E+00  0.00000000000E+00  0.11045323050E+04  0.11045323050E+04  0.00000000000E+00 0. -1.
         -2   -1    0    0    0  501 -0.00000000000E+00 -0.00000000000E+00 -0.42719136879E+02  0.42719136879E+02  0.00000000000E+00 0.  1.
         25    2    1    2    0    0 -0.14887711545E+02 -0.18455060066E+03  0.63595530577E+03  0.67406949799E+03  0.12509983619E+03 0.  0.
         23    2    1    2    0    0  0.14887711545E+02  0.18455060066E+03  0.42585786234E+03  0.47318194389E+03  0.90915702414E+02 0.  0.
          5    1    3    3  502    0  0.39255248505E+02 -0.12909322326E+02  0.15689688496E+03  0.16230135566E+03  0.41800000000E+01 0.  1.
         -5    1    3    3    0  502 -0.54142960050E+02 -0.17164127833E+03  0.47905842081E+03  0.51176814233E+03  0.41800000000E+01 0.  1.
        -11    1    4    4    0    0  0.46042817657E+02  0.16031079345E+03  0.34505939998E+03  0.38325641687E+03  0.00000000000E+00 0. -1.
         11    1    4    4    0    0 -0.31155106112E+02  0.24239807211E+02  0.80798462362E+02  0.89925527024E+02  0.00000000000E+00 0.  1.
</event>
<event>
 8    1  0.6648599E-009  0.1430656E+03  0.7561462E-02  0.1209263E+00
         -3   -1    0    0    0  501 -0.00000000000E+00  0.00000000000E+00  0.32145937332E+02  0.32145937332E+02  0.00000000000E+00 0.  1.
          3   -1    0    0  501    0  0.00000000000E+00 -0.00000000000E+00 -0.89442655919E+03  0.89442655919E+03  0.00000000000E+00 0. -1.
         25    2    1    2    0    0 -0.10692656154E+03 -0.66634354607E+02 -0.39990946515E+03  0.43754757595E+03  0.12508746588E+03 0.  0.
         23    2    1    2    0    0  0.10692656154E+03  0.66634354607E+02 -0.46237115671E+03  0.48902492058E+03  0.97390243935E+02 0.  0.
          5    1    3    3  502    0 -0.14642473877E+02 -0.21062293015E+02 -0.14959024987E+01  0.26033293157E+02  0.41800000000E+01 0.  1.
         -5    1    3    3    0  502 -0.92284087666E+02 -0.45572061591E+02 -0.39841356265E+03  0.41151428279E+03  0.41800000000E+01 0.  1.
        -11    1    4    4    0    0  0.11231306642E+03  0.24884254050E+02 -0.37094148658E+03  0.38836971748E+03  0.00000000000E+00 0.  1.
         11    1    4    4    0    0 -0.53865048763E+01  0.41750100557E+02 -0.91429670126E+02  0.10065520310E+03  0.00000000000E+00 0. -1.
</event>
<event>
 8    1  0.6648599E-009  0.1232683E+03  0.7561462E-02  0.1237801E+00
          2   -1    0    0  501    0  0.00000000000E+00  0.00000000000E+00  0.51181813790E+03  0.51181813790E+03  0.00000000000E+00 0. -1.
         -2   -1    0    0    0  501 -0.00000000000E+00 -0.00000000000E+00 -0.45152262370E+02  0.45152262370E+02  0.00000000000E+00 0.  1.
         25    2    1    2    0    0  0.40947833767E+02  0.10101521115E+03  0.24275121089E+03  0.29403717225E+03  0.12509560466E+03 0.  0.
         23    2    1    2    0    0 -0.40947833767E+02 -0.10101521115E+03  0.22391466464E+03  0.26293322802E+03  0.84352281426E+02 0.  0.
          5    1    3    3  502    0  0.11682080395E+02  0.13992162679E+02  0.18401805832E+03  0.18496586120E+03  0.41800000000E+01 0.  1.
         -5    1    3    3    0  502  0.29265753372E+02  0.87023048467E+02  0.58733152564E+02  0.10907131105E+03  0.41800000000E+01 0.  1.
        -11    1    4    4    0    0  0.23021918619E+02 -0.46473419934E+02  0.10730129418E+03  0.11917783028E+03  0.00000000000E+00 0.  1.
         11    1    4    4    0    0 -0.63969752387E+02 -0.54541791212E+02  0.11661337046E+03  0.14375539774E+03  0.00000000000E+00 0. -1.
</event>
<event>
 8    1  0.6648599E-009  0.8918316E+02  0.7561462E-02  0.1304842E+00
          1   -1    0    0  501    0  0.00000000000E+00  0.00000000000E+00  0.40167290880E+03  0.40167290880E+03  0.00000000000E+00 0. -1.
         -1   -1    0    0    0  501 -0.00000000000E+00 -0.00000000000E+00 -0.61499776998E+02  0.61499776998E+02  0.00000000000E+00 0.  1.
         25    2    1    2    0    0  0.29282628350E+02  0.32908405246E+02  0.33719482703E+03  0.36233711694E+03  0.12508956582E+03 0.  0.
         23    2    1    2    0    0 -0.29282628350E+02 -0.32908405246E+02  0.29783047711E+01  0.10083556886E+03  0.90655977126E+02 0.  0.
          5    1    3    3  502    0 -0.41510516833E+02 -0.11899195384E+01  0.53064056882E+02  0.67511520861E+02  0.41800000000E+01 0. -1.
         -5    1    3    3    0  502  0.70793145182E+02  0.34098324784E+02  0.28413077014E+03  0.29482559607E+03  0.41800000000E+01 0. -1.
        -11    1    4    4    0    0 -0.55061306876E+00 -0.28929194846E+02  0.42743098981E+02  0.51615637163E+02  0.00000000000E+00 0. -1.
         11    1    4    4    0    0 -0.28732015281E+02 -0.39792103993E+01 -0.39764794210E+02  0.49219931695E+02  0.00000000000E+00 0.  1.
</event>
<event>
 8    1  0.6648599E-009  0.9545183E+02  0.7561462E-02  0.1290162E+00
         -2   -1    0    0    0  501 -0.00000000000E+00  0.00000000000E+00  0.36213801741E+02  0.36213801741E+02  0.00000000000E+00 0.  1.
          2   -1    0    0  501    0  0.00000000000E+00 -0.00000000000E+00 -0.57252680416E+03  0.57252680416E+03  0.00000000000E+00 0. -1.
         25    2    1    2    0    0 -0.30661391909E+02  0.36963217478E+02 -0.46893996433E+03  0.48770681334E+03  0.12508735044E+03 0.  0.
         23    2    1    2    0    0  0.30661391909E+02 -0.36963217478E+02 -0.67373038096E+02  0.12103379256E+03  0.88338283201E+02 0.  0.
          5    1    3    3  502    0  0.43777933063E+02  0.36935099092E+02 -0.24661331569E+03  0.25321198401E+03  0.41800000000E+01 0. -1.
         -5    1    3    3    0  502 -0.74439324971E+02  0.28118385741E-01 -0.22232664863E+03  0.23449482933E+03  0.41800000000E+01 0. -1.
        -11    1    4    4    0    0  0.73363985891E+01 -0.34717751372E+02 -0.84738246566E+02  0.91867923867E+02  0.00000000000E+00 0. -1.
         11    1    4    4    0    0  0.23324993320E+02 -0.22454661058E+01  0.17365208470E+02  0.29165868693E+02  0.00000000000E+00 0.  1.
</event>
<event>
 8    1  0.6648599E-009  0.9525652E+02  0.7561462E-02  0.1290599E+00
         -1   -1    0    0    0  501 -0.00000000000E+00  0.00000000000E+00  0.99141212885E+02  0.99141212885E+02  0.00000000000E+00 0.  1.
          1   -1    0    0  501    0  0.00000000000E+00 -0.00000000000E+00 -0.15555127369E+03  0.15555127369E+03  0.00000000000E+00 0. -1.
         25    2    1    2    0    0  0.24278971145E+02  0.27297094847E+02 -0.81481897291E+02  0.15369497931E+03  0.12509295445E+03 0.  0.
         23    2    1    2    0    0 -0.24278971145E+02 -0.27297094847E+02  0.25071836487E+02  0.10099750726E+03  0.90759570631E+02 0.  0.
          5    1    3    3  502    0 -0.45574093854E+02  0.30500511998E+02 -0.57711446827E+02  0.79720529085E+02  0.41800000000E+01 0.  1.
         -5    1    3    3    0  502  0.69853065000E+02 -0.32034171507E+01 -0.23770450463E+02  0.73974450228E+02  0.41800000000E+01 0.  1.
        -11    1    4    4    0    0 -0.41886299774E+02 -0.18737753877E+02  0.50937610823E+02  0.68558046395E+02  0.00000000000E+00 0.  1.
         11    1    4    4    0    0  0.17607328629E+02 -0.85593409701E+01 -0.25865774336E+02  0.32439460866E+02  0.00000000000E+00 0. -1.
</event>
<event>
 8    1  0.6648599E-009  0.1957859E+03  0.7561462E-02  0.1153344E+00
          1   -1    0    0  501    0  0.00000000000E+00  0.00000000000E+00  0.11993858209E+03  0.11993858209E+03  0.00000000000E+00 0. -1.
         -1   -1    0    0    0  501 -0.00000000000E+00 -0.00000000000E+00 -0.42646945792E+03  0.42646945792E+03  0.00000000000E+00 0.  1.
         25    2    1    2    0    0 -0.17836959588E+03 -0.43985653436E+02 -0.25010841448E+03  0.33459205711E+03  0.12508866955E+03 0.  0.
         23    2    1    2    0    0  0.17836959588E+03  0.43985653436E+02 -0.56422461355E+02  0.21181598289E+03  0.89062146950E+02 0.  0.
          5    1    3    3  502    0 -0.12983878124E+03 -0.15103638608E+02 -0.24501541985E+03  0.27773414874E+03  0.41800000000E+01 0. -1.
         -5    1    3    3    0  502 -0.48530814643E+02 -0.28882014828E+02 -0.50929946271E+01  0.56857908374E+02  0.41800000000E+01 0. -1.
        -11    1    4    4    0    0  0.17184885554E+03  0.12826153934E+02 -0.47316183594E+02  0.17870467427E+03  0.00000000000E+00 0.  1.
         11    1    4    4    0    0  0.65207403359E+01  0.31159499502E+02 -0.91062777602E+01  0.33111308618E+02  0.00000000000E+00 0. -1.
</event>
<event>
 8    1  0.6648599E-009  0.1150892E+03  0.7561462E-02  0.1251426E+00
          2   -1    0    0  501    0  0.00000000000E+00  0.00000000000E+00  0.56249393101E+03  0.56249393101E+03  0.00000000000E+00 0. -1.
         -2   -1    0    0    0  501 -0.00000000000E+00 -0.00000000000E+00 -0.28688418061E+02  0.28688418061E+02  0.00000000000E+00 0.  1.
         25    2    1    2    0    0  0.17615335530E+02  0.55124583277E+02  0.37637524838E+03  0.40081729119E+03  0.12508858297E+03 0.  0.
         23    2    1    2    0    0 -0.17615335530E+02 -0.55124583277E+02  0.15743026456E+03  0.19036505788E+03  0.90030813256E+02 0.  0.
          5    1    3    3  502    0 -0.40705284386E+02 -0.46262392161E+01  0.21673058893E+03  0.22060812053E+03  0.41800000000E+01 0.  1.
         -5    1    3    3    0  502  0.58320619916E+02  0.59750822493E+02  0.15964465945E+03  0.18020917065E+03  0.41800000000E+01 0.  1.
        -11    1    4    4    0    0  0.31124486200E+02  0.90322034799E+00  0.32346923335E+02  0.44898473220E+02  0.00000000000E+00 0.  1.
         11    1    4    4    0    0 -0.48739821729E+02 -0.56027803625E+02  0.12508334123E+03  0.14546658467E+03  0.00000000000E+00 0. -1.
</event>
<event>
 8    1  0.6648599E-009  0.9982501E+02  0.7561462E-02  0.1280664E+00
         -3   -1    0    0    0  501 -0.00000000000E+00  0.00000000000E+00  0.53463217255E+03  0.53463217255E+03  0.00000000000E+00 0.  1.
          3   -1    0    0  501    0  0.00000000000E+00 -0.00000000000E+00 -0.28575109992E+02  0.28575109992E+02  0.00000000000E+00 0. -1.
         25    2    1    2    0    0 -0.60308747432E+01  0.39302222938E+02  0.38448822173E+03  0.40627534979E+03  0.12508969190E+03 0.  0.
         23    2    1    2    0    0  0.60308747432E+01 -0.39302222938E+02  0.12156884082E+03  0.15693193275E+03  0.90926411337E+02 0.  0.
          5    1    3    3  502    0  0.11487524225E+02  0.79446914905E+02  0.18039732474E+03  0.19749542444E+03  0.41800000000E+01 0.  1.
         -5    1    3    3    0  502 -0.17518398968E+02 -0.40144691967E+02  0.20409089700E+03  0.20877992536E+03  0.41800000000E+01 0.  1.
        -11    1    4    4    0    0  0.87650155065E+01  0.16879921192E+02  0.90894234728E+02  0.92862905097E+02  0.00000000000E+00 0.  1.
         11    1    4    4    0    0 -0.27341407633E+01 -0.56182144130E+02  0.30674606093E+02  0.64069027648E+02  0.00000000000E+00 0. -1.
</event>
<event>
 8    1  0.6648599E-009  0.1247690E+03  0.7561462E-02  0.1235431E+00
          2   -1    0    0  501    0  0.00000000000E+00  0.00000000000E+00  0.42778225135E+03  0.42778225135E+03  0.00000000000E+00 0. -1.
         -2   -1    0    0    0  501 -0.00000000000E+00 -0.00000000000E+00 -0.55937007493E+02  0.55937007493E+02  0.00000000000E+00 0.  1.
         25    2    1    2    0    0  0.10124184607E+03  0.36011445129E+02  0.17036056995E+03  0.23709993739E+03  0.12508765303E+03 0.  0.
         23    2    1    2    0    0 -0.10124184607E+03 -0.36011445129E+02  0.20148467391E+03  0.24661932146E+03  0.93157288070E+02 0.  0.
          5    1    3    3  502    0 -0.71096360158E+01  0.32264018237E+02 -0.20801878441E+01  0.33366350992E+02  0.41800000000E+01 0.  1.
         -5    1    3    3    0  502  0.10835148208E+03  0.37474268923E+01  0.17244075779E+03  0.20373358640E+03  0.41800000000E+01 0.  1.
        -11    1    4    4    0    0 -0.72514249414E+02 -0.29489025526E+02  0.20254034466E+03  0.21714168234E+03  0.00000000000E+00 0. -1.
         11    1    4    4    0    0 -0.28727596651E+02 -0.65224196035E+01 -0.10556707563E+01  0.29477639112E+02  0.00000000000E+00 0.  1.
</event>
<event>
 7    1  0.6648599E-009  0.1104439E+03  0.7561462E-02  0.1259750E+00
          3   -1    0    0  501    0  0.00000000000E+00  0.00000000000E+00  0.54789436214E+02  0.54789436214E+02  0.00000000000E+00 0. -1.
         -3   -1    0    0    0  501 -0.00000000000E+00 -0.00000000000E+00 -0.26229825716E+03  0.26229825716E+03  0.00000000000E+00 0.  1.
         23    2    1    2    0    0  0.18297078925E+01  0.33221164322E+02 -0.53117609499E+02  0.11555667003E+03  0.97081769445E+02 0.  0.
          5    1    1    2  502    0 -0.46626433050E+02  0.21337539093E+02 -0.33240020031E+02  0.61251009503E+02  0.41800000000E+01 0.  1.
         -5    1    1    2    0  502  0.44796725157E+02 -0.54558703415E+02 -0.12115119142E+03  0.14028001385E+03  0.41800000000E+01 0.  1.
        -11    1    3    3    0    0 -0.28517882375E+01  0.65774297101E+02 -0.49704529819E+02  0.82492006521E+02  0.00000000000E+00 0.  1.
         11    1    3    3    0    0  0.46814961300E+01 -0.32553132779E+02 -0.34130796797E+01  0.33064663504E+02  0.00000000000E+00 0. -1.
</event>
<event>
 8    1  0.6648599E-009  0.1369476E+03  0.7561462E-02  0.1217496E+00
          2   -1    0    0  501    0  0.00000000000E+00  0.00000000000E+00  0.13349437585E+04  0.13349437585E+04  0.00000000000E+00 0. -1.
         -2   -1    0    0    0  501 -0.00000000000E+00 -0.00000000000E+00 -0.22152713044E+02  0.22152713044E+02  0.00000000000E+00 0.  1.
         25    2    1    2    0    0  0.11054594668E+03 -0.64461522091E+02  0.83882587160E+03  0.85770183182E+03  0.12509154762E+03 0.  0.
         23    2    1    2    0    0 -0.11054594668E+03  0.64461522091E+02  0.47396517389E+03  0.49939463975E+03  0.91522270520E+02 0.  0.
          5    1    3    3  502    0 -0.20463987651E+01  0.20919975242E+01 -0.28970857574E+01  0.58676833106E+01  0.41800000000E+01 0.  1.
         -5    1    3    3    0  502  0.11259234544E+03 -0.66553519615E+02  0.84172295736E+03  0.85183414851E+03  0.41800000000E+01 0.  1.
        -11    1    4    4    0    0 -0.64896771139E+00  0.18990817845E+02  0.12251500664E+02  0.22609104140E+02  0.00000000000E+00 0.  1.
         11    1    4    4    0    0 -0.10989697897E+03  0.45470704246E+02  0.46171367322E+03  0.47678553561E+03  0.00000000000E+00 0. -1.
</event>
<event>
 8    1  0.6648599E-009  0.1410850E+03  0.7561462E-02  0.1211876E+00
          4   -1    0    0  501    0  0.00000000000E+00  0.00000000000E+00  0.14806599693E+04  0.14806599693E+04  0.00000000000E+00 0.  1.
         -4   -1    0    0    0  501 -0.00000000000E+00 -0.00000000000E+00 -0.46456741814E+02  0.46456741814E+02  0.00000000000E+00 0. -1.
         25    2    1    2    0    0  0.24267741102E+02  0.11503287422E+03  0.13397163213E+04  0.13506698418E+04  0.12509082525E+03 0.  0.
         23    2    1    2    0    0 -0.24267741102E+02 -0.11503287422E+03  0.94486906139E+02  0.17644686927E+03  0.91565478405E+02 0.  0.
          5    1    3    3  502    0 -0.17300936990E+02 -0.97733917935E+01  0.52489543396E+03  0.52528804536E+03  0.41800000000E+01 0. -1.
         -5    1    3    3    0  502  0.41568678092E+02  0.12480626601E+03  0.81482088738E+03  0.82538179647E+03  0.41800000000E+01 0. -1.
        -11    1    4    4    0    0  0.13591587811E+02 -0.70510268381E+02  0.93632233264E+02  0.11799756062E+03  0.00000000000E+00 0.  1.
         11    1    4    4    0    0 -0.37859328913E+02 -0.44522605838E+02  0.85467287543E+00  0.58449308654E+02  0.00000000000E+00 0. -1.
</event>
<event>
 8    1  0.6648599E-009  0.1165260E+03  0.7561462E-02  0.1248941E+00
         -1   -1    0    0    0  501 -0.00000000000E+00  0.00000000000E+00  0.74419498922E+02  0.74419498922E+02  0.00000000000E+00 0.  1.
          1   -1    0    0  501    0  0.00000000000E+00 -0.00000000000E+00 -0.22755393833E+03  0.22755393833E+03  0.00000000000E+00 0. -1.
         25    2    1    2    0    0  0.46375733259E+02  0.44541736642E+02 -0.12269592694E+03  0.18664615725E+03  0.12509125706E+03 0.  0.
         23    2    1    2    0    0 -0.46375733259E+02 -0.44541736642E+02 -0.30438512470E+02  0.11532728000E+03  0.90770058567E+02 0.  0.
          5    1    3    3  502    0  0.64767904716E+02  0.76662723194E+02 -0.10533247498E+03  0.14554881413E+03  0.41800000000E+01 0. -1.
         -5    1    3    3    0  502 -0.18392171457E+02 -0.32120986552E+02 -0.17363451959E+02  0.41097343125E+02  0.41800000000E+01 0. -1.
        -11    1    4    4    0    0  0.18919841773E+02 -0.81122469982E+01 -0.34796694927E+02  0.40429926316E+02  0.00000000000E+00 0. -1.
         11    1    4    4    0    0 -0.65295575032E+02 -0.36429489644E+02  0.43581824574E+01  0.74897353684E+02  0.00000000000E+00 0.  1.
</event>
<event>
 8    1  0.6648599E-009  0.1524834E+03  0.7561462E-02  0.1197454E+00
          1   -1    0    0  501    0  0.00000000000E+00  0.00000000000E+00  0.28861196141E+02  0.28861196141E+02  0.00000000000E+00 0. -1.
         -1   -1    0    0    0  501 -0.00000000000E+00 -0.00000000000E+00 -0.99667978692E+03  0.99667978692E+03  0.00000000000E+00 0.  1.
         25    2    1    2    0    0 -0.44698857261E+02 -0.10782617400E+03 -0.68458898413E+03  0.70564352529E+03  0.12508491501E+03 0.  0.
         23    2    1    2    0    0  0.44698857261E+02  0.10782617400E+03 -0.28322960665E+03  0.31989745777E+03  0.92146089227E+02 0.  0.
          5    1    3    3  502    0 -0.32646566568E+02  0.21973757301E+02 -0.19533668661E+03  0.19930513755E+03  0.41800000000E+01 0.  1.
         -5    1    3    3    0  502 -0.12052290692E+02 -0.12979993130E+03 -0.48925229752E+03  0.50633838774E+03  0.41800000000E+01 0.  1.
        -11    1    4    4    0    0  0.51859696938E+02  0.36821082207E+02 -0.67835313258E+02  0.92988440068E+02  0.00000000000E+00 0. -1.
         11    1    4    4    0    0 -0.71608396768E+01  0.71005091796E+02 -0.21539429340E+03  0.22690901770E+03  0.00000000000E+00 0.  1.
</event>
<event>
 8    1  0.6648599E-009  0.7925098E+02  0.7561462E-02  0.1331191E+00
          2   -1    0    0  501    0  0.00000000000E+00  0.00000000000E+00  0.30698980007E+03  0.30698980007E+03  0.00000000000E+00 0. -1.
         -2   -1    0    0    0  501 -0.00000000000E+00 -0.00000000000E+00 -0.43608782063E+02  0.43608782063E+02  0.00000000000E+00 0.  1.
         25    2    1    2    0    0  0.12289610427E+02  0.35587700411E+02  0.17641013126E+03  0.21951216811E+03  0.12509012188E+03 0.  0.
         23    2    1    2    0    0 -0.12289610427E+02 -0.35587700411E+02  0.86970886749E+02  0.13108641402E+03  0.90565964105E+02 0.  0.
          5    1    3    3  502    0 -0.32527602635E+02  0.15803469888E+01 -0.15045754691E+01  0.32867591593E+02  0.41800000000E+01 0.  1.
         -5    1    3    3    0  502  0.44817213062E+02  0.34007353423E+02  0.17791470673E+03  0.18664457652E+03  0.41800000000E+01 0.  1.
        -11    1    4    4    0    0  0.20336637568E+02 -0.29863008517E+02  0.90816243046E+02  0.97739286401E+02  0.00000000000E+00 0. -1.
         11    1    4    4    0    0 -0.32626247995E+02 -0.57246918949E+01 -0.38453562967E+01  0.33347127621E+02  0.00000000000E+00 0.  1.
</event>
<event>
 8    1  0.6648599E-009  0.1663982E+03  0.7561462E-02  0.1181657E+00
          1   -1    0    0  501    0  0.00000000000E+00  0.00000000000E+00  0.12069448344E+04  0.12069448344E+04  0.00000000000E+00 0. -1.
         -1   -1    0    0    0  501 -0.00000000000E+00 -0.00000000000E+00 -0.30951988914E+02  0.30951988914E+02  0.00000000000E+00 0.  1.
         25    2    1    2    0    0 -0.68306545139E+02 -0.14383524914E+03  0.67379184616E+03  0.70356095172E+03  0.12509275687E+03 0.  0.
         23    2    1    2    0    0  0.68306545139E+02  0.14383524914E+03  0.50220099933E+03  0.53433587160E+03  0.89188659314E+02 0.  0.
          5    1    3    3  502    0 -0.19451012372E+01 -0.59196620112E+02  0.77488977045E+02  0.97621909502E+02  0.41800000000E+01 0. -1.
         -5    1    3    3    0  502 -0.66361443902E+02 -0.84638629030E+02  0.59630286912E+03  0.60593904221E+03  0.41800000000E+01 0. -1.
        -11    1    4    4    0    0  0.46186144220E+02  0.44918369776E+02  0.95540480339E+02  0.11523368971E+03  0.00000000000E+00 0.  1.
         11    1    4    4    0    0  0.22120400919E+02  0.98916879365E+02  0.40666051899E+03  0.41910218189E+03  0.00000000000E+00 0. -1.
</event>
<event>
 8    1  0.6648599E-009  0.1223194E+03  0.7561462E-02  0.1239319E+00
          1   -1    0    0  501    0  0.00000000000E+00  0.00000000000E+00  0.10050885076E+03  0.10050885076E+03  0.00000000000E+00 0. -1.
         -1   -1    0    0    0  501 -0.00000000000E+00 -0.00000000000E+00 -0.24333598421E+03  0.24333598421E+03  0.00000000000E+00 0.  1.
         25    2    1    2    0    0 -0.51604615603E+02 -0.89473806797E+02 -0.22398587391E+02  0.16375847981E+03  0.12508614847E+03 0.  0.
         23    2    1    2    0    0  0.51604615603E+02  0.89473806797E+02 -0.12042854606E+03  0.18008635516E+03  0.85202477391E+02 0.  0.
          5    1    3    3  502    0 -0.57945070641E+02 -0.66151109920E+02  0.40008359949E+02  0.96704404352E+02  0.41800000000E+01 0. -1.
         -5    1    3    3    0  502  0.63404550375E+01 -0.23322696877E+02 -0.62406947340E+02  0.67054075461E+02  0.41800000000E+01 0. -1.
        -11    1    4    4    0    0  0.20099341955E+02  0.97507288597E+02 -0.77128665267E+02  0.12593842099E+03  0.00000000000E+00 0.  1.
         11    1    4    4    0    0  0.31505273649E+02 -0.80334818003E+01 -0.43299880791E+02  0.54147934162E+02  0.00000000000E+00 0. -1.
</event>
<event>
 8    1  0.6648599E-009  0.1074766E+03  0.7561462E-02  0.1265315E+00
          2   -1    0    0  501    0  0.00000000000E+00  0.00000000000E+00  0.47138095620E+03  0.47138095620E+03  0.00000000000E+00 0. -1.
         -2   -1    0    0    0  501 -0.00000000000E+00 -0.00000000000E+00 -0.38456951852E+02  0.38456951852E+02  0.00000000000E+00 0.  1.
         25    2    1    2    0    0 -0.42156189158E+02 -0.67174542662E+02  0.23221163742E+03  0.27542655986E+03  0.12509189365E+03 0.  0.
         23    2    1    2    0    0  0.42156189158E+02  0.67174542662E+02  0.20071236693E+03  0.23441134819E+03  0.91507718024E+02 0.  0.
          5    1    3    3  502    0 -0.38245734158E+01 -0.85692789552E+02  0.80177257250E+02  0.11748934642E+03  0.41800000000E+01 0.  1.
         -5    1    3    3    0  502 -0.38331615742E+02  0.18518246891E+02  0.15203438018E+03  0.15793721344E+03  0.41800000000E+01 0.  1.
        -11    1    4    4    0    0  0.16273473231E+02  0.22798326751E+01 -0.49856273741E+01  0.17172071755E+02  0.00000000000E+00 0.  1.
         11    1    4    4    0    0  0.25882715927E+02  0.64894709987E+02  0.20569799430E+03  0.21723927644E+03  0.00000000000E+00 0. -1.
</event>
<event>
 8    1  0.6648599E-009  0.1155541E+03  0.7561462E-02  0.1250617E+00
         -2   -1    0    0    0  501 -0.00000000000E+00  0.00000000000E+00  0.26687667360E+03  0.26687667360E+03  0.00000000000E+00 0. -1.
          2   -1    0    0  501    0  0.00000000000E+00 -0.00000000000E+00 -0.83283128679E+02  0.83283128679E+02  0.00000000000E+00 0.  1.
         25    2    1    2    0    0  0.30067822213E+02  0.77759505548E+02  0.16847584409E+03  0.22579371268E+03  0.12509226997E+03 0.  0.
         23    2    1    2    0    0 -0.30067822213E+02 -0.77759505548E+02  0.15117700831E+02  0.12436608960E+03  0.91037161250E+02 0.  0.
          5    1    3    3  502    0 -0.17285826019E+02 -0.22880120151E+02  0.75146039686E+02  0.80540048174E+02  0.41800000000E+01 0.  1.
         -5    1    3    3    0  502  0.47353648232E+02  0.10063962570E+03  0.93329804405E+02  0.14525366451E+03  0.41800000000E+01 0.  1.
        -11    1    4    4    0    0 -0.19855250701E+02 -0.98687472128E+01 -0.33547695593E+02  0.40212821730E+02  0.00000000000E+00 0.  1.
         11    1    4    4    0    0 -0.10212571512E+02 -0.67890758335E+02  0.48665396423E+02  0.84153267870E+02  0.00000000000E+00 0. -1.
</event>
<event>
 8    1  0.6648599E-009  0.1717175E+03  0.7561462E-02  0.1176069E+00
         -1   -1    0    0    0  501 -0.00000000000E+00  0.00000000000E+00  0.81389661765E+02  0.81389661765E+02  0.00000000000E+00 0.  1.
          1   -1    0    0  501    0  0.00000000000E+00 -0.00000000000E+00 -0.43288967335E+03  0.43288967335E+03  0.00000000000E+00 0. -1.
         25    2    1    2    0    0 -0.13731916511E+03 -0.31824035019E+02 -0.26425259695E+03  0.32457084756E+03  0.12508987881E+03 0.  0.
         23    2    1    2    0    0  0.13731916511E+03  0.31824035019E+02 -0.87247414634E+02  0.18970848755E+03  0.92238151415E+02 0.  0.
          5    1    3    3  502    0 -0.14734855287E+03  0.23160530962E+01 -0.23872915358E+03  0.28058161256E+03  0.41800000000E+01 0. -1.
         -5    1    3    3    0  502  0.10029387755E+02 -0.34140088116E+02 -0.25523443366E+02  0.43989235008E+02  0.41800000000E+01 0. -1.
        -11    1    4    4    0    0  0.11566627959E+03 -0.68387484346E+01 -0.87825069279E+02  0.14539153864E+03  0.00000000000E+00 0. -1.
         11    1    4    4    0    0  0.21652885521E+02  0.38662783454E+02  0.57765464478E+00  0.44316948910E+02  0.00000000000E+00 0.  1.
</event>
<event>
 8    1  0.6648599E-009  0.8298678E+02  0.7561462E-02  0.1320783E+00
          1   -1    0    0  501    0  0.00000000000E+00  0.00000000000E+00  0.24994980347E+02  0.24994980347E+02  0.00000000000E+00 0. -1.
         -1   -1    0    0    0  501 -0.00000000000E+00 -0.00000000000E+00 -0.54114217030E+03  0.54114217030E+03  0.00000000000E+00 0.  1.
         25    2    1    2    0    0 -0.40529229045E+02  0.12625071155E+02 -0.29980847479E+03  0.32763513493E+03  0.12513052888E+03 0.  0.
         23    2    1    2    0    0  0.40529229045E+02 -0.12625071155E+02 -0.21633871516E+03  0.23850201571E+03  0.90987696934E+02 0.  0.
          5    1    3    3  502    0 -0.74376815189E+01 -0.18368799994E+02 -0.27507426469E+03  0.27581888154E+03  0.41800000000E+01 0.  1.
         -5    1    3    3    0  502 -0.33091547526E+02  0.30993871149E+02 -0.24734210106E+02  0.51816253396E+02  0.41800000000E+01 0.  1.
        -11    1    4    4    0    0  0.60163990707E+02 -0.35646223461E+02 -0.15798180925E+03  0.17276750585E+03  0.00000000000E+00 0.  1.
         11    1    4    4    0    0 -0.19634761663E+02  0.23021152307E+02 -0.58356905907E+02  0.65734509857E+02  0.00000000000E+00 0. -1.
</event>
<event>
 8    1  0.6648599E-009  0.4429083E+03  0.7561462E-02  0.1029858E+00
          2   -1    0    0  501    0  0.00000000000E+00  0.00000000000E+00  0.11969779066E+04  0.11969779066E+04  0.00000000000E+00 0. -1.
         -2   -1    0    0    0  501 -0.00000000000E+00 -0.00000000000E+00 -0.17111579868E+03  0.17111579868E+03  0.00000000000E+00 0.  1.
         25    2    1    2    0    0 -0.36660769972E+02  0.43750990222E+03  0.53511771644E+03  0.70339020027E+03  0.12509147368E+03 0.  0.
         23    2    1    2    0    0  0.36660769972E+02 -0.43750990222E+03  0.49074439144E+03  0.66470350497E+03  0.90784168168E+02 0.  0.
          5    1    3    3  502    0  0.14953695219E+02  0.17132985529E+02  0.72804598979E+02  0.76388050285E+02  0.41800000000E+01 0.  1.
         -5    1    3    3    0  502 -0.51614465190E+02  0.42037691669E+03  0.46231311746E+03  0.62700214998E+03  0.41800000000E+01 0.  1.
        -11    1    4    4    0    0  0.25019147764E+02 -0.24364995082E+03  0.33908345501E+03  0.41829277516E+03  0.00000000000E+00 0.  1.
         11    1    4    4    0    0  0.11641622207E+02 -0.19385995141E+03  0.15166093643E+03  0.24641072981E+03  0.00000000000E+00 0. -1.
</event>
<event>
 8    1  0.6648599E-009  0.9017831E+02  0.7561462E-02  0.1302420E+00
          2   -1    0    0  501    0  0.00000000000E+00  0.00000000000E+00  0.15373939599E+03  0.15373939599E+03  0.00000000000E+00 0. -1.
         -2   -1    0    0    0  501 -0.00000000000E+00 -0.00000000000E+00 -0.94904826810E+02  0.94904826810E+02  0.00000000000E+00 0.  1.
         25    2    1    2    0    0  0.49510555103E+02  0.20477665545E+01  0.56158912906E+02  0.14579502085E+03  0.12508747416E+03 0.  0.
         23    2    1    2    0    0 -0.49510555103E+02 -0.20477665545E+01  0.26756562765E+01  0.10284920195E+03  0.90085019793E+02 0.  0.
          5    1    3    3  502    0  0.32665969219E+02 -0.30250231722E+02  0.87041653366E+02  0.97856343100E+02  0.41800000000E+01 0. -1.
         -5    1    3    3    0  502  0.16844585884E+02  0.32297998276E+02 -0.30882740460E+02  0.47938677751E+02  0.41800000000E+01 0. -1.
        -11    1    4    4    0    0 -0.47951947437E+02 -0.39110078415E+02 -0.11864993504E+02  0.63006075639E+02  0.00000000000E+00 0. -1.
         11    1    4    4    0    0 -0.15586076656E+01  0.37062311860E+02  0.14540649781E+02  0.39843126312E+02  0.00000000000E+00 0.  1.
</event>
<event>
 8    1  0.6648599E-009  0.1312026E+03  0.7561462E-02  0.1225682E+00
          1   -1    0    0  501    0  0.00000000000E+00  0.00000000000E+00  0.97328381659E+03  0.97328381659E+03  0.00000000000E+00 0. -1.
         -1   -1    0    0    0  501 -0.00000000000E+00 -0.00000000000E+00 -0.20028273450E+02  0.20028273450E+02  0.00000000000E+00 0.  1.
         25    2    1    2    0    0 -0.32297745602E+02  0.70379177224E+02  0.66900544645E+03  0.68498030680E+03  0.12503343700E+03 0.  0.
         23    2    1    2    0    0  0.32297745602E+02 -0.70379177224E+02  0.28425009668E+03  0.30833178323E+03  0.90961520049E+02 0.  0.
          5    1    3    3  502    0  0.39957248770E+02 -0.51890958238E+01  0.24026067455E+03  0.24365174446E+03  0.41800000000E+01 0. -1.
         -5    1    3    3    0  502 -0.72254994372E+02  0.75568273048E+02  0.42874477191E+03  0.44132856234E+03  0.41800000000E+01 0. -1.
        -11    1    4    4    0    0  0.60997049405E+02 -0.30693795256E+02  0.13561770991E+03  0.15183844159E+03  0.00000000000E+00 0.  1.
         11    1    4    4    0    0 -0.28699303803E+02 -0.39685381968E+02  0.14863238678E+03  0.15649334165E+03  0.00000000000E+00 0. -1.
</event>
<event>
 8    1  0.6648599E-009  0.1122799E+03  0.7561462E-02  0.1256405E+00
          1   -1    0    0  501    0  0.00000000000E+00  0.00000000000E+00  0.11047028443E+03  0.11047028443E+03  0.00000000000E+00 0. -1.
         -1   -1    0    0    0  501 -0.00000000000E+00 -0.00000000000E+00 -0.16710361052E+03  0.16710361052E+03  0.00000000000E+00 0.  1.
         25    2    1    2    0    0  0.69624591336E+02  0.34557690659E+02 -0.31847706542E+02  0.15067878936E+03  0.12509197996E+03 0.  0.
         23    2    1    2    0    0 -0.69624591336E+02 -0.34557690659E+02 -0.24785619549E+02  0.12689510558E+03  0.97191682682E+02 0.  0.
          5    1    3    3  502    0 -0.26363160246E+02  0.34323121378E+02  0.11942819835E+02  0.45090977201E+02  0.41800000000E+01 0.  1.
         -5    1    3    3    0  502  0.95987751582E+02  0.23456928070E+00 -0.43790526377E+02  0.10558781216E+03  0.41800000000E+01 0.  1.
        -11    1    4    4    0    0 -0.15913525166E+02 -0.26183750012E+02  0.34714063406E+02  0.46302216427E+02  0.00000000000E+00 0. -1.
         11    1    4    4    0    0 -0.53711066170E+02 -0.83739406464E+01 -0.59499682954E+02  0.80592889157E+02  0.00000000000E+00 0.  1.
</event>
<event>
 8    1  0.6648599E-009  0.5589868E+02  0.7561462E-02  0.1415896E+00
         -1   -1    0    0    0  501 -0.00000000000E+00  0.00000000000E+00  0.19912976160E+02  0.19912976160E+02  0.00000000000E+00 0.  1.
          1   -1    0    0  501    0  0.00000000000E+00 -0.00000000000E+00 -0.67443892808E+03  0.67443892808E+03  0.00000000000E+00 0. -1.
         25    2    1    2    0    0 -0.27269103985E+02  0.62672379438E+01 -0.48354226320E+03  0.50024187616E+03  0.12508370022E+03 0.  0.
         23    2    1    2    0    0  0.27269103985E+02 -0.62672379438E+01 -0.17098368872E+03  0.19411002807E+03  0.87523704722E+02 0.  0.
          5    1    3    3  502    0  0.26323242932E+01  0.13955444463E+02  0.86931507321E+00  0.14829419072E+02  0.41800000000E+01 0.  1.
         -5    1    3    3    0  502 -0.29901428279E+02 -0.76882065188E+01 -0.48441157827E+03  0.48541245709E+03  0.41800000000E+01 0.  1.
        -11    1    4    4    0    0  0.14068885508E+02  0.26780599181E+02 -0.14345517790E+02  0.33480261538E+02  0.00000000000E+00 0.  1.
         11    1    4    4    0    0  0.13200218477E+02 -0.33047837125E+02 -0.15663817093E+03  0.16062976654E+03  0.00000000000E+00 0. -1.
</event>
<event>
 8    1  0.6648599E-009  0.1132063E+03  0.7561462E-02  0.1254745E+00
         -1   -1    0    0    0  501 -0.00000000000E+00  0.00000000000E+00  0.20553712283E+03  0.20553712283E+03  0.00000000000E+00 0.  1.
          1   -1    0    0  501    0  0.00000000000E+00 -0.00000000000E+00 -0.87697719467E+02  0.87697719467E+02  0.00000000000E+00 0. -1.
         25    2    1    2    0    0 -0.28293994496E+02 -0.11215721890E+02 -0.13336145023E+02  0.12942808757E+03  0.12508970599E+03 0.  0.
         23    2    1    2    0    0  0.28293994496E+02  0.11215721890E+02  0.13117554839E+03  0.16380675473E+03  0.93269962250E+02 0.  0.
          5    1    3    3  502    0  0.10784407690E+02 -0.62788591026E+02 -0.84765934466E+01  0.64405245506E+02  0.41800000000E+01 0.  1.
         -5    1    3    3    0  502 -0.39078402186E+02  0.51572869136E+02 -0.48595515767E+01  0.65022842063E+02  0.41800000000E+01 0.  1.
        -11    1    4    4    0    0 -0.32634129885E+02  0.16502721902E+02  0.42209087805E+02  0.55847411371E+02  0.00000000000E+00 0.  1.
         11    1    4    4    0    0  0.60928124381E+02 -0.52870000124E+01  0.88966460581E+02  0.10795934336E+03  0.00000000000E+00 0. -1.
</event>
<event>
 8    1  0.6648599E-009  0.8818863E+02  0.7561462E-02  0.1307298E+00
         -3   -1    0    0    0  501 -0.00000000000E+00  0.00000000000E+00  0.31733922684E+02  0.31733922684E+02  0.00000000000E+00 0.  1.
          3   -1    0    0  501    0  0.00000000000E+00 -0.00000000000E+00 -0.78845870187E+03  0.78845870187E+03  0.00000000000E+00 0. -1.
         25    2    1    2    0    0 -0.44781859867E+01 -0.26674268211E+02 -0.69676012719E+03  0.70840886487E+03  0.12504748797E+03 0.  0.
         23    2    1    2    0    0  0.44781859867E+01  0.26674268211E+02 -0.59964651995E+02  0.11178375969E+03  0.90378530118E+02 0.  0.
          5    1    3    3  502    0  0.18556598808E+02 -0.72306022033E+02 -0.35180232473E+03  0.35965936143E+03  0.41800000000E+01 0.  1.
         -5    1    3    3    0  502 -0.23034784795E+02  0.45631753822E+02 -0.34495780246E+03  0.34874950343E+03  0.41800000000E+01 0.  1.
        -11    1    4    4    0    0 -0.16183586088E+02  0.24752284401E+02  0.15590204173E+02  0.33431100908E+02  0.00000000000E+00 0.  1.
         11    1    4    4    0    0  0.20661772075E+02  0.19219838106E+01 -0.75554856168E+02  0.78352658778E+02  0.00000000000E+00 0. -1.
</event>
<event>
 8    1  0.6648599E-009  0.1341704E+03  0.7561462E-02  0.1221396E+00
          1   -1    0    0  501    0  0.00000000000E+00  0.00000000000E+00  0.17943319188E+03  0.17943319188E+03  0.00000000000E+00 0. -1.
         -1   -1    0    0    0  501 -0.00000000000E+00 -0.00000000000E+00 -0.11795165627E+03  0.11795165627E+03  0.00000000000E+00 0.  1.
         25    2    1    2    0    0 -0.87132655316E+02 -0.38692266532E+02  0.47015854950E+02  0.16415843406E+03  0.12509320423E+03 0.  0.
         23    2    1    2    0    0  0.87132655316E+02  0.38692266532E+02  0.14465680658E+02  0.13322641408E+03  0.91928398115E+02 0.  0.
          5    1    3    3  502    0 -0.88724480008E+02  0.19326098690E+02  0.53711835559E+02  0.10558392455E+03  0.41800000000E+01 0. -1.
         -5    1    3    3    0  502  0.15918246917E+01 -0.58018365222E+02 -0.66959806090E+01  0.58574509517E+02  0.41800000000E+01 0. -1.
        -11    1    4    4    0    0  0.58146261387E+02  0.59787026232E+02 -0.17476295881E+02  0.85210897993E+02  0.00000000000E+00 0.  1.
         11    1    4    4    0    0  0.28986393929E+02 -0.21094759701E+02  0.31941976540E+02  0.48015516087E+02  0.00000000000E+00 0. -1.
</event>
<event>
 8    1  0.6648599E-009  0.9252637E+02  0.7561462E-02  0.1296847E+00
          2   -1    0    0  501    0  0.00000000000E+00  0.00000000000E+00  0.15618002506E+03  0.15618002506E+03  0.00000000000E+00 0.  1.
         -2   -1    0    0    0  501 -0.00000000000E+00 -0.00000000000E+00 -0.85863271888E+02  0.85863271888E+02  0.00000000000E+00 0. -1.
         25    2    1    2    0    0 -0.13345807754E+02  0.28109444274E+02  0.64499483238E+02  0.14412325495E+03  0.12507229045E+03 0.  0.
         23    2    1    2    0    0  0.13345807754E+02 -0.28109444274E+02  0.58172699357E+01  0.97920041996E+02  0.92661980083E+02 0.  0.
          5    1    3    3  502    0  0.54461811513E+02  0.25916282469E+02  0.24337903437E+02  0.65173219607E+02  0.41800000000E+01 0. -1.
         -5    1    3    3    0  502 -0.67807619266E+02  0.21931618051E+01  0.40161579801E+02  0.78950035347E+02  0.41800000000E+01 0. -1.
        -11    1    4    4    0    0 -0.68956396345E+01 -0.34666475100E+02 -0.36342147159E+02  0.50695818388E+02  0.00000000000E+00 0. -1.
         11    1    4    4    0    0  0.20241447388E+02  0.65570308258E+01  0.42159417095E+02  0.47224223608E+02  0.00000000000E+00 0.  1.
</event>
<event>
 8    1  0.6648599E-009  0.1560960E+03  0.7561462E-02  0.1193176E+00
          1   -1    0    0  501    0  0.00000000000E+00  0.00000000000E+00  0.11736297760E+03  0.11736297760E+03  0.00000000000E+00 0. -1.
         -1   -1    0    0    0  501 -0.00000000000E+00 -0.00000000000E+00 -0.30379927740E+03  0.30379927740E+03  0.00000000000E+00 0.  1.
         25    2    1    2    0    0  0.10226403971E+03  0.10221441042E+03 -0.37929052596E+02  0.19491609663E+03  0.12509177503E+03 0.  0.
         23    2    1    2    0    0 -0.10226403971E+03 -0.10221441042E+03 -0.14850724720E+03  0.22624615836E+03  0.90703925957E+02 0.  0.
          5    1    3    3  502    0  0.48694024653E+02 -0.33566694702E+01 -0.56752332535E+02  0.74971160555E+02  0.41800000000E+01 0.  1.
         -5    1    3    3    0  502  0.53570015058E+02  0.10557107989E+03  0.18823279939E+02  0.11994493608E+03  0.41800000000E+01 0.  1.
        -11    1    4    4    0    0 -0.15307228789E+02 -0.12052132722E+02  0.11819642872E+02  0.22787477131E+02  0.00000000000E+00 0. -1.
         11    1    4    4    0    0 -0.86956810923E+02 -0.90162277701E+02 -0.16032689008E+03  0.20345868123E+03  0.00000000000E+00 0.  1.
</event>
<event>
 8    1  0.6648599E-009  0.1407348E+03  0.7561462E-02  0.1212344E+00
          2   -1    0    0  501    0  0.00000000000E+00  0.00000000000E+00  0.39233754036E+03  0.39233754036E+03  0.00000000000E+00 0. -1.
         -2   -1    0    0    0  501 -0.00000000000E+00 -0.00000000000E+00 -0.54270136289E+02  0.54270136289E+02  0.00000000000E+00 0.  1.
         25    2    1    2    0    0 -0.64408466041E+02  0.70708448763E+02  0.21043061774E+03  0.26282508533E+03  0.12509134810E+03 0.  0.
         23    2    1    2    0    0  0.64408466041E+02 -0.70708448763E+02  0.12763678633E+03  0.18378259132E+03  0.91305840037E+02 0.  0.
          5    1    3    3  502    0 -0.80222381898E+01 -0.32626290512E+02  0.81149726010E+02  0.87929412427E+02  0.41800000000E+01 0. -1.
         -5    1    3    3    0  502 -0.56386227851E+02  0.10333473927E+03  0.12928089173E+03  0.17489567290E+03  0.41800000000E+01 0. -1.
        -11    1    4    4    0    0  0.81151890369E+02 -0.31257467758E+02  0.68254056526E+02  0.11054987487E+03  0.00000000000E+00 0.  1.
         11    1    4    4    0    0 -0.16743424328E+02 -0.39450981006E+02  0.59382729806E+02  0.73232716457E+02  0.00000000000E+00 0. -1.
</event>
<event>
 8    1  0.6648599E-009  0.1120738E+03  0.7561462E-02  0.1256777E+00
         -2   -1    0    0    0  501 -0.00000000000E+00  0.00000000000E+00  0.14449525465E+02  0.14449525465E+02  0.00000000000E+00 0.  1.
          2   -1    0    0  501    0  0.00000000000E+00 -0.00000000000E+00 -0.10737683027E+04  0.10737683027E+04  0.00000000000E+00 0. -1.
         25    2    1    2    0    0  0.60194651769E+02 -0.11159337654E+02 -0.61817315957E+03  0.63366498605E+03  0.12508130323E+03 0.  0.
         23    2    1    2    0    0 -0.60194651769E+02  0.11159337654E+02 -0.44114561771E+03  0.45455284216E+03  0.90889511886E+02 0.  0.
          5    1    3    3  502    0  0.66141958909E+02  0.39462162325E+02 -0.48340000139E+03  0.48951512206E+03  0.41800000000E+01 0. -1.
         -5    1    3    3    0  502 -0.59473071407E+01 -0.50621499979E+02 -0.13477315818E+03  0.14414986399E+03  0.41800000000E+01 0. -1.
        -11    1    4    4    0    0 -0.55290042525E+02  0.38963952221E+02 -0.39268020077E+03  0.39846319586E+03  0.00000000000E+00 0. -1.
         11    1    4    4    0    0 -0.49046092435E+01 -0.27804614567E+02 -0.48465416937E+02  0.56089646299E+02  0.00000000000E+00 0.  1.
</event>
<event>
 8    1  0.6648599E-009  0.1019859E+03  0.7561462E-02  0.1276174E+00
          1   -1    0    0  501    0  0.00000000000E+00  0.00000000000E+00  0.10385496993E+03  0.10385496993E+03  0.00000000000E+00 0. -1.
         -1   -1    0    0    0  501 -0.00000000000E+00 -0.00000000000E+00 -0.21562195075E+03  0.21562195075E+03  0.00000000000E+00 0.  1.
         25    2    1    2    0    0  0.29888485548E+02  0.59307970214E+02 -0.13772129902E+03  0.19754885908E+03  0.12509052172E+03 0.  0.
         23    2    1    2    0    0 -0.29888485548E+02 -0.59307970214E+02  0.25954318204E+02  0.12192806160E+03  0.98904341016E+02 0.  0.
          5    1    3    3  502    0 -0.15083534087E+02  0.39353151192E+01  0.19224915863E+02  0.25101185143E+02  0.41800000000E+01 0. -1.
         -5    1    3    3    0  502  0.44972019634E+02  0.55372655095E+02 -0.15694621488E+03  0.17244767394E+03  0.41800000000E+01 0. -1.
        -11    1    4    4    0    0 -0.63973998426E+02 -0.49556179896E+02  0.29869781123E+02  0.86259441598E+02  0.00000000000E+00 0.  1.
         11    1    4    4    0    0  0.34085512879E+02 -0.97517903179E+01 -0.39154629188E+01  0.35668619997E+02  0.00000000000E+00 0. -1.
</event>
<event>
 8    1  0.6648599E-009  0.8177087E+02  0.7561462E-02  0.1324100E+00
         -1   -1    0    0    0  501 -0.00000000000E+00  0.00000000000E+00  0.38681658747E+02  0.38681658747E+02  0.00000000000E+00 0.  1.
          1   -1    0    0  501    0  0.00000000000E+00 -0.00000000000E+00 -0.44277819246E+03  0.44277819246E+03  0.00000000000E+00 0. -1.
         25    2    1    2    0    0  0.44278799113E+02  0.85617575380E+01 -0.33649592026E+03  0.36181627651E+03  0.12509035876E+03 0.  0.
         23    2    1    2    0    0 -0.44278799113E+02 -0.85617575380E+01 -0.67600613456E+02  0.11964357470E+03  0.87811310680E+02 0.  0.
          5    1    3    3  502    0 -0.63570308860E+01  0.11740713032E+02  0.62410460026E+01  0.15319244087E+02  0.41800000000E+01 0. -1.
         -5    1    3    3    0  502  0.50635829999E+02 -0.31789554942E+01 -0.34273696626E+03  0.34649703243E+03  0.41800000000E+01 0. -1.
        -11    1    4    4    0    0 -0.60363006066E+01 -0.45248661951E+02 -0.33556335454E+02  0.56656032180E+02  0.00000000000E+00 0.  1.
         11    1    4    4    0    0 -0.38242498506E+02  0.36686904413E+02 -0.34044278003E+02  0.62987542515E+02  0.00000000000E+00 0. -1.
</event>
<event>
 8    1  0.6648599E-009  0.1033262E+03  0.7561462E-02  0.1273453E+00
          1   -1    0    0  501    0  0.00000000000E+00  0.00000000000E+00  0.11590791037E+03  0.11590791037E+03  0.00000000000E+00 0. -1.
         -1   -1    0    0    0  501 -0.00000000000E+00 -0.00000000000E+00 -0.16756840710E+03  0.16756840710E+03  0.00000000000E+00 0.  1.
         25    2    1    2    0    0  0.39530819220E+02 -0.70930209558E+02  0.14539578769E+01  0.14913815487E+03  0.12508515079E+03 0.  0.
         23    2    1    2    0    0 -0.39530819220E+02  0.70930209558E+02 -0.53114454602E+02  0.13433816260E+03  0.92907568833E+02 0.  0.
          5    1    3    3  502    0 -0.87352209957E+01  0.37245754630E+01  0.47719225614E+02  0.48834142169E+02  0.41800000000E+01 0. -1.
         -5    1    3    3    0  502  0.48266040215E+02 -0.74654785021E+02 -0.46265267737E+02  0.10030401270E+03  0.41800000000E+01 0. -1.
        -11    1    4    4    0    0  0.20191648524E+02  0.12610998931E+02 -0.44439836455E+02  0.50414670765E+02  0.00000000000E+00 0.  1.
         11    1    4    4    0    0 -0.59722467744E+02  0.58319210627E+02 -0.86746181470E+01  0.83923491833E+02  0.00000000000E+00 0. -1.
</event>
<event>
 7    1  0.6648599E-009  0.1397836E+03  0.7561462E-02  0.1213620E+00
         -1   -1    0    0    0  501 -0.00000000000E+00  0.00000000000E+00  0.19934777432E+02  0.19934777432E+02  0.00000000000E+00 0.  1.
          1   -1    0    0  501    0  0.00000000000E+00 -0.00000000000E+00 -0.10314615580E+04  0.10314615580E+04  0.00000000000E+00 0. -1.
         23    2    1    2    0    0 -0.35599506911E+01 -0.89282135903E+02 -0.36749271673E+03  0.38930216691E+03  0.92310927169E+02 0.  0.
          5    1    1    2  502    0  0.45012737199E+02 -0.76608129634E+01 -0.25039323296E+03  0.25455663040E+03  0.41800000000E+01 0. -1.
         -5    1    1    2    0  502 -0.41452786508E+02  0.96942948866E+02 -0.39364083088E+03  0.40753753813E+03  0.41800000000E+01 0. -1.
        -11    1    3    3    0    0  0.29306385486E+02 -0.90685712833E+02 -0.28390072598E+03  0.29947017373E+03  0.00000000000E+00 0.  1.
         11    1    3    3    0    0 -0.32866336177E+02  0.14035769299E+01 -0.83591990743E+02  0.89831993178E+02  0.00000000000E+00 0. -1.
</event>
<event>
 8    1  0.6648599E-009  0.9704418E+02  0.7561462E-02  0.1286637E+00
          1   -1    0    0  501    0  0.00000000000E+00  0.00000000000E+00  0.16704088483E+03  0.16704088483E+03  0.00000000000E+00 0. -1.
         -1   -1    0    0    0  501 -0.00000000000E+00 -0.00000000000E+00 -0.10529562011E+03  0.10529562011E+03  0.00000000000E+00 0.  1.
         25    2    1    2    0    0  0.38792236507E+01  0.70509568284E+02  0.57608912070E+01  0.14376103042E+03  0.12508956154E+03 0.  0.
         23    2    1    2    0    0 -0.38792236507E+01 -0.70509568284E+02  0.55984373508E+02  0.12857547452E+03  0.91710168330E+02 0.  0.
          5    1    3    3  502    0  0.21271296773E+02  0.31635660373E+02 -0.56455465882E+02  0.68249359716E+02  0.41800000000E+01 0.  1.
         -5    1    3    3    0  502 -0.17392073122E+02  0.38873907910E+02  0.62216357089E+02  0.75511670708E+02  0.41800000000E+01 0.  1.
        -11    1    4    4    0    0  0.42011465810E+02 -0.38598879295E+02  0.42321621074E+02  0.71034895316E+02  0.00000000000E+00 0. -1.
         11    1    4    4    0    0 -0.45890689460E+02 -0.31910688989E+02  0.13662752434E+02  0.57540579202E+02  0.00000000000E+00 0.  1.
</event>
<event>
 8    1  0.6648599E-009  0.3824144E+03  0.7561462E-02  0.1050045E+00
         -1   -1    0    0    0  501 -0.00000000000E+00  0.00000000000E+00  0.30671109261E+03  0.30671109261E+03  0.00000000000E+00 0.  1.
          1   -1    0    0  501    0  0.00000000000E+00 -0.00000000000E+00 -0.49292987321E+03  0.49292987321E+03  0.00000000000E+00 0. -1.
         25    2    1    2    0    0  0.76813839671E+02  0.36038671733E+03 -0.15555626788E+03  0.41907040803E+03  0.12507318824E+03 0.  0.
         23    2    1    2    0    0 -0.76813839671E+02 -0.36038671733E+03 -0.30662512718E+02  0.38057055780E+03  0.90082227919E+02 0.  0.
          5    1    3    3  502    0  0.11057257653E+03  0.25055483806E+03 -0.11638588188E+03  0.29760236467E+03  0.41800000000E+01 0.  1.
         -5    1    3    3    0  502 -0.33758736862E+02  0.10983187927E+03 -0.39170386007E+02  0.12146804336E+03  0.41800000000E+01 0.  1.
        -11    1    4    4    0    0 -0.84938635622E+02 -0.22790409131E+03  0.45041808032E+01  0.24325939715E+03  0.00000000000E+00 0. -1.
         11    1    4    4    0    0  0.81247959509E+01 -0.13248262602E+03 -0.35166693521E+02  0.13731116065E+03  0.00000000000E+00 0.  1.
</event>
<event>
 8    1  0.6648599E-009  0.1407227E+03  0.7561462E-02  0.1212360E+00
          2   -1    0    0  501    0  0.00000000000E+00  0.00000000000E+00  0.12052948291E+04  0.12052948291E+04  0.00000000000E+00 0. -1.
         -2   -1    0    0    0  501 -0.00000000000E+00 -0.00000000000E+00 -0.24688034725E+02  0.24688034725E+02  0.00000000000E+00 0.  1.
         25    2    1    2    0    0  0.60473123989E+02  0.10810999462E+03  0.81059995190E+03  0.82949586660E+03  0.12508533497E+03 0.  0.
         23    2    1    2    0    0 -0.60473123989E+02 -0.10810999462E+03  0.37000684250E+03  0.40048699725E+03  0.90221958570E+02 0.  0.
          5    1    3    3  502    0 -0.22406182626E+02  0.44141009869E+02  0.10500364047E+03  0.11616239790E+03  0.41800000000E+01 0.  1.
         -5    1    3    3    0  502  0.82879306615E+02  0.63968984751E+02  0.70559631143E+03  0.71333346871E+03  0.41800000000E+01 0.  1.
        -11    1    4    4    0    0 -0.28068308430E+02 -0.77445980556E+02  0.33141210246E+03  0.34149625400E+03  0.00000000000E+00 0. -1.
         11    1    4    4    0    0 -0.32404815558E+02 -0.30664014064E+02  0.38594740039E+02  0.58990743245E+02  0.00000000000E+00 0.  1.
</event>
<event>
 8    1  0.6648599E-009  0.9472110E+02  0.7561462E-02  0.1291805E+00
          1   -1    0    0  501    0  0.00000000000E+00  0.00000000000E+00  0.10365738857E+04  0.10365738857E+04  0.00000000000E+00 0. -1.
         -1   -1    0    0    0  501 -0.00000000000E+00 -0.00000000000E+00 -0.14451117733E+02  0.14451117733E+02  0.00000000000E+00 0.  1.
         25    2    1    2    0    0  0.43788061964E+02 -0.35780305973E+02  0.53436936577E+03  0.55172109617E+03  0.12509166328E+03 0.  0.
         23    2    1    2    0    0 -0.43788061964E+02  0.35780305973E+02  0.48775340218E+03  0.49930390724E+03  0.90572544322E+02 0.  0.
          5    1    3    3  502    0 -0.55577900653E+01 -0.38327888396E+02  0.43655330077E+02  0.58507916588E+02  0.41800000000E+01 0.  1.
         -5    1    3    3    0  502  0.49345852029E+02  0.25475824231E+01  0.49071403569E+03  0.49321317958E+03  0.41800000000E+01 0.  1.
        -11    1    4    4    0    0 -0.99492484113E+00 -0.25850562379E+02  0.65271666502E+02  0.70211337394E+02  0.00000000000E+00 0. -1.
         11    1    4    4    0    0 -0.42793137123E+02  0.61630868352E+02  0.42248173567E+03  0.42909256985E+03  0.00000000000E+00 0.  1.
</event>
<event>
 8    1  0.6648599E-009  0.1052786E+03  0.7561462E-02  0.1269572E+00
         -1   -1    0    0    0  501 -0.00000000000E+00  0.00000000000E+00  0.65518272836E+02  0.65518272836E+02  0.00000000000E+00 0.  1.
          1   -1    0    0  501    0  0.00000000000E+00 -0.00000000000E+00 -0.23281146770E+03  0.23281146770E+03  0.00000000000E+00 0. -1.
         25    2    1    2    0    0 -0.18765632242E+02 -0.12752269824E+02 -0.29628225291E+02  0.13053583903E+03  0.12508798583E+03 0.  0.
         23    2    1    2    0    0  0.18765632242E+02  0.12752269824E+02 -0.13766496957E+03  0.16779390150E+03  0.93211481025E+02 0.  0.
          5    1    3    3  502    0 -0.37631326877E+02  0.43655491702E+02  0.10405966331E+02  0.58716907732E+02  0.41800000000E+01 0. -1.
         -5    1    3    3    0  502  0.18865694635E+02 -0.56407761526E+02 -0.40034191621E+02  0.71818931301E+02  0.41800000000E+01 0. -1.
        -11    1    4    4    0    0  0.48658165445E+02 -0.16441470164E+02 -0.95486882888E+02  0.10842363123E+03  0.00000000000E+00 0. -1.
         11    1    4    4    0    0 -0.29892533203E+02  0.29193739987E+02 -0.42178086686E+02  0.59370270273E+02  0.00000000000E+00 0.  1.
</event>
<event>
 8    1  0.6648599E-009  0.1928544E+03  0.7561462E-02  0.1155912E+00
         -2   -1    0    0    0  501 -0.00000000000E+00  0.00000000000E+00  0.30155964610E+02  0.30155964610E+02  0.00000000000E+00 0.  1.
          2   -1    0    0  501    0  0.00000000000E+00 -0.00000000000E+00 -0.13482338325E+04  0.13482338325E+04  0.00000000000E+00 0. -1.
         25    2    1    2    0    0 -0.93680618539E+02 -0.13953740814E+03 -0.77487161886E+03  0.80269545733E+03  0.12508886819E+03 0.  0.
         23    2    1    2    0    0  0.93680618539E+02  0.13953740814E+03 -0.54320624904E+03  0.57569433979E+03  0.90023315362E+02 0.  0.
          5    1    3    3  502    0  0.19272428299E+02 -0.58370561429E+02 -0.14344066570E+03  0.15611292679E+03  0.41800000000E+01 0.  1.
         -5    1    3    3    0  502 -0.11295304684E+03 -0.81166846710E+02 -0.63143095315E+03  0.64658253053E+03  0.41800000000E+01 0.  1.
        -11    1    4    4    0    0  0.16959053776E+02  0.94435381313E+02 -0.35111745360E+03  0.36399054517E+03  0.00000000000E+00 0.  1.
         11    1    4    4    0    0  0.76721564763E+02  0.45102026826E+02 -0.19208879544E+03  0.21170379462E+03  0.00000000000E+00 0. -1.
</event>
<event>
 8    1  0.6648599E-009  0.1401976E+03  0.7561462E-02  0.1213063E+00
          1   -1    0    0  501    0  0.00000000000E+00  0.00000000000E+00  0.73035869401E+03  0.73035869401E+03  0.00000000000E+00 0. -1.
         -1   -1    0    0    0  501 -0.00000000000E+00 -0.00000000000E+00 -0.28844377740E+02  0.28844377740E+02  0.00000000000E+00 0.  1.
         25    2    1    2    0    0  0.76196356414E+02  0.56827290421E+02  0.42122300537E+03  0.44956709000E+03  0.12508606034E+03 0.  0.
         23    2    1    2    0    0 -0.76196356414E+02 -0.56827290421E+02  0.28029131091E+03  0.30963598175E+03  0.90972504417E+02 0.  0.
          5    1    3    3  502    0 -0.17078615798E+02 -0.25562098416E+02  0.61144303661E+02  0.68565284679E+02  0.41800000000E+01 0.  1.
         -5    1    3    3    0  502  0.93274972212E+02  0.82389388837E+02  0.36007870171E+03  0.38100180532E+03  0.41800000000E+01 0.  1.
        -11    1    4    4    0    0 -0.78069343058E+02 -0.10835198143E+02  0.22060353577E+03  0.23426084572E+03  0.00000000000E+00 0.  1.
         11    1    4    4    0    0  0.18729866435E+01 -0.45992092278E+02  0.59687775134E+02  0.75375136030E+02  0.00000000000E+00 0. -1.
</event>
<event>
 8    1  0.6648599E-009  0.1230829E+03  0.7561462E-02  0.1238096E+00
          2   -1    0    0  501    0  0.00000000000E+00  0.00000000000E+00  0.43277937258E+02  0.43277937258E+02  0.00000000000E+00 0. -1.
         -2   -1    0    0    0  501 -0.00000000000E+00 -0.00000000000E+00 -0.54986517807E+03  0.54986517807E+03  0.00000000000E+00 0.  1.
         25    2    1    2    0    0  0.89557315686E+02  0.19047335896E+02 -0.38616959853E+03  0.41612114191E+03  0.12508609881E+03 0.  0.
         23    2    1    2    0    0 -0.89557315686E+02 -0.19047335896E+02 -0.12041764228E+03  0.17702197342E+03  0.91940506327E+02 0.  0.
          5    1    3    3  502    0  0.35823502129E+02  0.45751536913E+02 -0.57012086834E+02  0.81513047299E+02  0.41800000000E+01 0.  1.
         -5    1    3    3    0  502  0.53733813557E+02 -0.26704201018E+02 -0.32915751170E+03  0.33460809461E+03  0.41800000000E+01 0.  1.
        -11    1    4    4    0    0 -0.58736423358E+02 -0.54955863086E+02 -0.60384591092E+02  0.10058038157E+03  0.00000000000E+00 0.  1.
         11    1    4    4    0    0 -0.30820892328E+02  0.35908527190E+02 -0.60033051190E+02  0.76441591847E+02  0.00000000000E+00 0. -1.
</event>
<event>
 8    1  0.6648599E-009  0.1531673E+03  0.7561462E-02  0.1196634E+00
          1   -1    0    0  501    0  0.00000000000E+00  0.00000000000E+00  0.42401560889E+02  0.42401560889E+02  0.00000000000E+00 0. -1.
         -1   -1    0    0    0  501 -0.00000000000E+00 -0.00000000000E+00 -0.74054540576E+03  0.74054540576E+03  0.00000000000E+00 0.  1.
         25    2    1    2    0    0  0.12491406501E+03 -0.37898052896E+02 -0.48223016529E+03  0.51500769680E+03  0.12508880606E+03 0.  0.
         23    2    1    2    0    0 -0.12491406501E+03  0.37898052896E+02 -0.21591367959E+03  0.26793926985E+03  0.90182865592E+02 0.  0.
          5    1    3    3  502    0  0.66804762592E+02  0.40415324693E+02 -0.27571628473E+03  0.28658893356E+03  0.41800000000E+01 0.  1.
         -5    1    3    3    0  502  0.58109302414E+02 -0.78313377589E+02 -0.20651388056E+03  0.22841876324E+03  0.41800000000E+01 0.  1.
        -11    1    4    4    0    0 -0.42476025132E+02  0.12708977223E+02 -0.15797024531E+03  0.16407415768E+03  0.00000000000E+00 0.  1.
         11    1    4    4    0    0 -0.82438039874E+02  0.25189075673E+02 -0.57943434271E+02  0.10386511217E+03  0.00000000000E+00 0. -1.
</event>
<event>
 8    1  0.6648599E-009  0.1214307E+03  0.7561462E-02  0.1240755E+00
         -3   -1    0    0    0  501 -0.00000000000E+00  0.00000000000E+00  0.66619667016E+03  0.66619667016E+03  0.00000000000E+00 0.  1.
          3   -1    0    0  501    0  0.00000000000E+00 -0.00000000000E+00 -0.27468502117E+02  0.27468502117E+02  0.00000000000E+00 0. -1.
         25    2    1    2    0    0 -0.73438785542E+02  0.63845014843E+01  0.42914048955E+03  0.45303796324E+03  0.12509124386E+03 0.  0.
         23    2    1    2    0    0  0.73438785542E+02 -0.63845014843E+01  0.20958767850E+03  0.24062720903E+03  0.92414510049E+02 0.  0.
          5    1    3    3  502    0 -0.98640170677E+02  0.16139196827E+02  0.40291947069E+03  0.41515289859E+03  0.41800000000E+01 0.  1.
         -5    1    3    3    0  502  0.25201385135E+02 -0.97546953429E+01  0.26221018850E+02  0.37885064650E+02  0.41800000000E+01 0.  1.
        -11    1    4    4    0    0  0.34514684239E+02 -0.47593940267E+02  0.13234846860E+03  0.14481907236E+03  0.00000000000E+00 0.  1.
         11    1    4    4    0    0  0.38924101303E+02  0.41209438783E+02  0.77239209892E+02  0.95808136668E+02  0.00000000000E+00 0. -1.
</event>
<event>
 8    1  0.6648599E-009  0.1542846E+03  0.7561462E-02  0.1195305E+00
          2   -1    0    0  501    0  0.00000000000E+00  0.00000000000E+00  0.56580753806E+03  0.56580753806E+03  0.00000000000E+00 0. -1.
         -2   -1    0    0    0  501 -0.00000000000E+00 -0.00000000000E+00 -0.57367478634E+02  0.57367478634E+02  0.00000000000E+00 0.  1.
         25    2    1    2    0    0  0.14241718233E+03  0.19607152913E+02  0.25656589325E+03  0.31959161032E+03  0.12508255488E+03 0.  0.
         23    2    1    2    0    0 -0.14241718233E+03 -0.19607152913E+02  0.25187416618E+03  0.30358340638E+03  0.89750736889E+02 0.  0.
          5    1    3    3  502    0  0.49824236177E+02 -0.31973585578E+01  0.20513771418E+03  0.21116730758E+03  0.41800000000E+01 0. -1.
         -5    1    3    3    0  502  0.92592946157E+02  0.22804511471E+02  0.51428179075E+02  0.10842430274E+03  0.41800000000E+01 0. -1.
        -11    1    4    4    0    0 -0.74886829508E+02 -0.48866049624E+02  0.95918751618E+02  0.13113479688E+03  0.00000000000E+00 0. -1.
         11    1    4    4    0    0 -0.67530352826E+02  0.29258896711E+02  0.15595541456E+03  0.17244860950E+03  0.00000000000E+00 0.  1.
</event>
<event>
 8    1  0.6648599E-009  0.1148884E+03  0.7561462E-02  0.1251776E+00
         -1   -1    0    0    0  501 -0.00000000000E+00  0.00000000000E+00  0.18943475270E+02  0.18943475270E+02  0.00000000000E+00 0.  1.
          1   -1    0    0  501    0  0.00000000000E+00 -0.00000000000E+00 -0.70537159586E+03  0.70537159586E+03  0.00000000000E+00 0. -1.
         25    2    1    2    0    0 -0.11748151956E+02  0.30464532310E+02 -0.41946917530E+03  0.43893969714E+03  0.12509021505E+03 0.  0.
         23    2    1    2    0    0  0.11748151956E+02 -0.30464532310E+02 -0.26695894529E+03  0.28537537398E+03  0.95424938056E+02 0.  0.
          5    1    3    3  502    0  0.48197198213E+02  0.46140400096E+02 -0.20185784156E+03  0.21264046424E+03  0.41800000000E+01 0. -1.
         -5    1    3    3    0  502 -0.59945350169E+02 -0.15675867786E+02 -0.21761133374E+03  0.22629923290E+03  0.41800000000E+01 0. -1.
        -11    1    4    4    0    0  0.53888874751E+02 -0.15063493943E+02 -0.14441220220E+03  0.15487350908E+03  0.00000000000E+00 0. -1.
         11    1    4    4    0    0 -0.42140722795E+02 -0.15401038367E+02 -0.12254674309E+03  0.13050186490E+03  0.00000000000E+00 0.  1.
</event>
<event>
 8    1  0.6648599E-009  0.2077421E+03  0.7561462E-02  0.1143367E+00
          2   -1    0    0  501    0  0.00000000000E+00  0.00000000000E+00  0.48934225007E+03  0.48934225007E+03  0.00000000000E+00 0. -1.
         -2   -1    0    0    0  501 -0.00000000000E+00 -0.00000000000E+00 -0.96455246774E+02  0.96455246774E+02  0.00000000000E+00 0.  1.
         25    2    1    2    0    0 -0.16627758640E+03 -0.72060714146E+02  0.13537687993E+03  0.25849715933E+03  0.12511154822E+03 0.  0.
         23    2    1    2    0    0  0.16627758640E+03  0.72060714146E+02  0.25751012336E+03  0.32730033751E+03  0.89292021124E+02 0.  0.
          5    1    3    3  502    0 -0.76541632676E+02 -0.94184897675E+02  0.10665575156E+03  0.16162406450E+03  0.41800000000E+01 0.  1.
         -5    1    3    3    0  502 -0.89735953729E+02  0.22124183529E+02  0.28721128371E+02  0.96873094837E+02  0.41800000000E+01 0.  1.
        -11    1    4    4    0    0  0.32388549539E+02 -0.20888040861E+02  0.40616718680E+02  0.55991483537E+02  0.00000000000E+00 0. -1.
         11    1    4    4    0    0  0.13388903687E+03  0.92948755007E+02  0.21689340468E+03  0.27130885397E+03  0.00000000000E+00 0.  1.
</event>
<event>
 8    1  0.6648599E-009  0.1307968E+03  0.7561462E-02  0.1226278E+00
         -2   -1    0    0    0  501 -0.00000000000E+00  0.00000000000E+00  0.64948220223E+02  0.64948220223E+02  0.00000000000E+00 0.  1.
          2   -1    0    0  501    0  0.00000000000E+00 -0.00000000000E+00 -0.30180046788E+03  0.30180046788E+03  0.00000000000E+00 0. -1.
         25    2    1    2    0    0  0.64422932740E+02 -0.58480472001E+02 -0.12769061502E+03  0.19880281781E+03  0.12508951730E+03 0.  0.
         23    2    1    2    0    0 -0.64422932740E+02  0.58480472001E+02 -0.10916163264E+03  0.16794587029E+03  0.93377049848E+02 0.  0.
          5    1    3    3  502    0  0.15101427039E+02 -0.85734659211E+02 -0.10840750049E+03  0.13909760405E+03  0.41800000000E+01 0. -1.
         -5    1    3    3    0  502  0.49321505701E+02  0.27254187210E+02 -0.19283114523E+02  0.59705213766E+02  0.41800000000E+01 0. -1.
        -11    1    4    4    0    0 -0.36737440742E+02  0.76525028999E+02 -0.45726871941E+02  0.96419222322E+02  0.00000000000E+00 0.  1.
         11    1    4    4    0    0 -0.27685491998E+02 -0.18044556999E+02 -0.63434760701E+02  0.71526647969E+02  0.00000000000E+00 0. -1.
</event>
<event>
 8    1  0.6648599E-009  0.1142830E+03  0.7561462E-02  0.1252838E+00
         -3   -1    0    0    0  501 -0.00000000000E+00  0.00000000000E+00  0.16734632554E+02  0.16734632554E+02  0.00000000000E+00 0.  1.
          3   -1    0    0  501    0  0.00000000000E+00 -0.00000000000E+00 -0.12630792137E+04  0.12630792137E+04  0.00000000000E+00 0. -1.
         25    2    1    2    0    0 -0.40489026567E+02 -0.22065953771E+02 -0.10352820230E+04  0.10438304056E+04  0.12508709371E+03 0.  0.
         23    2    1    2    0    0  0.40489026567E+02  0.22065953771E+02 -0.21106255820E+03  0.23598344066E+03  0.94944790299E+02 0.  0.
          5    1    3    3  502    0  0.33435837350E+02  0.23606239382E+02 -0.48176112038E+03  0.48351469395E+03  0.41800000000E+01 0. -1.
         -5    1    3    3    0  502 -0.73924863917E+02 -0.45672193153E+02 -0.55352090259E+03  0.56031571166E+03  0.41800000000E+01 0. -1.
        -11    1    4    4    0    0  0.57948633794E+02 -0.14650121824E+02 -0.15942597471E+03  0.17026247866E+03  0.00000000000E+00 0. -1.
         11    1    4    4    0    0 -0.17459607227E+02  0.36716075596E+02 -0.51636583487E+02  0.65720961997E+02  0.00000000000E+00 0.  1.
</event>
<event>
 8    1  0.6648599E-009  0.9826999E+02  0.7561462E-02  0.1283977E+00
          1   -1    0    0  501    0  0.00000000000E+00  0.00000000000E+00  0.85590108255E+03  0.85590108255E+03  0.00000000000E+00 0. -1.
         -1   -1    0    0    0  501 -0.00000000000E+00 -0.00000000000E+00 -0.21658406939E+02  0.21658406939E+02  0.00000000000E+00 0.  1.
         25    2    1    2    0    0 -0.86762725781E+02  0.96525546054E+01  0.46311975432E+03  0.48759401462E+03  0.12508826425E+03 0.  0.
         23    2    1    2    0    0  0.86762725781E+02 -0.96525546054E+01  0.37112292129E+03  0.38996547487E+03  0.81975035779E+02 0.  0.
          5    1    3    3  502    0 -0.94045223496E+02  0.12986533192E+02  0.17339334182E+03  0.19772677485E+03  0.41800000000E+01 0.  1.
         -5    1    3    3    0  502  0.72824977157E+01 -0.33339785870E+01  0.28972641251E+03  0.28986723977E+03  0.41800000000E+01 0.  1.
        -11    1    4    4    0    0  0.32785712202E+02  0.11148686963E+02  0.36247598658E+02  0.50130674781E+02  0.00000000000E+00 0.  1.
         11    1    4    4    0    0  0.53977013579E+02 -0.20801241568E+02  0.33487532263E+03  0.33983480009E+03  0.00000000000E+00 0. -1.
</event>
<event>
 8    1  0.6648599E-009  0.5890341E+02  0.7561462E-02  0.1402492E+00
          1   -1    0    0  501    0  0.00000000000E+00  0.00000000000E+00  0.41143135032E+03  0.41143135032E+03  0.00000000000E+00 0. -1.
         -1   -1    0    0    0  501 -0.00000000000E+00 -0.00000000000E+00 -0.29252656782E+02  0.29252656782E+02  0.00000000000E+00 0.  1.
         25    2    1    2    0    0 -0.21838796083E+00 -0.19032802344E+02  0.24188805098E+03  0.27298200222E+03  0.12508816518E+03 0.  0.
         23    2    1    2    0    0  0.21838796083E+00  0.19032802344E+02  0.14029064255E+03  0.16770200488E+03  0.89889948242E+02 0.  0.
          5    1    3    3  502    0 -0.30517700455E+01 -0.20158183055E+02  0.25657126351E+03  0.25741396875E+03  0.41800000000E+01 0. -1.
         -5    1    3    3    0  502  0.28333820847E+01  0.11253807109E+01 -0.14683212534E+02  0.15568033469E+02  0.41800000000E+01 0. -1.
        -11    1    4    4    0    0  0.43250024639E+02 -0.32322436046E+01  0.63197194304E+02  0.76647879279E+02  0.00000000000E+00 0. -1.
         11    1    4    4    0    0 -0.43031636679E+02  0.22265045949E+02  0.77093448250E+02  0.91054125603E+02  0.00000000000E+00 0.  1.
</event>
<event>
 8    1  0.6648599E-009  0.1090197E+03  0.7561462E-02  0.1262396E+00
          2   -1    0    0  501    0  0.00000000000E+00  0.00000000000E+00  0.43966134058E+03  0.43966134058E+03  0.00000000000E+00 0.  1.
         -2   -1    0    0    0  501 -0.00000000000E+00 -0.00000000000E+00 -0.38697913924E+02  0.38697913924E+02  0.00000000000E+00 0. -1.
         25    2    1    2    0    0  0.62801995090E+02  0.34388001939E+02  0.23874660021E+03  0.27887166760E+03  0.12507135008E+03 0.  0.
         23    2    1    2    0    0 -0.62801995090E+02 -0.34388001939E+02  0.16221682645E+03  0.19948758691E+03  0.91402260821E+02 0.  0.
          5    1    3    3  502    0  0.84122650041E+02  0.12579511981E+02  0.23230274347E+03  0.24742049510E+03  0.41800000000E+01 0.  1.
         -5    1    3    3    0  502 -0.21320654951E+02  0.21808489958E+02  0.64438567391E+01  0.31451172497E+02  0.41800000000E+01 0.  1.
        -11    1    4    4    0    0 -0.55855904511E+02 -0.56180479851E+02  0.74187614624E+02  0.10853538846E+03  0.00000000000E+00 0. -1.
         11    1    4    4    0    0 -0.69460905789E+01  0.21792477912E+02  0.88029211824E+02  0.90952198446E+02  0.00000000000E+00 0.  1.
</event>
<event>
 8    1  0.6648599E-009  0.1331554E+03  0.7561462E-02  0.1222847E+00
         -2   -1    0    0    0  501 -0.00000000000E+00  0.00000000000E+00  0.55442923532E+02  0.55442923532E+02  0.00000000000E+00 0. -1.
          2   -1    0    0  501    0  0.00000000000E+00 -0.00000000000E+00 -0.52014589972E+03  0.52014589972E+03  0.00000000000E+00 0.  1.
         25    2    1    2    0    0  0.86732926332E+02  0.39994219689E+02 -0.98481737940E+02  0.18565571643E+03  0.12508898520E+03 0.  0.
         23    2    1    2    0    0 -0.86732926332E+02 -0.39994219689E+02 -0.36622123824E+03  0.38993310682E+03  0.93849317157E+02 0.  0.
          5    1    3    3  502    0  0.31849512019E+02 -0.32260351537E+02  0.74311012960E+01  0.46128249084E+02  0.41800000000E+01 0.  1.
         -5    1    3    3    0  502  0.54883414313E+02  0.72254571225E+02 -0.10591283924E+03  0.13952746735E+03  0.41800000000E+01 0.  1.
        -11    1    4    4    0    0 -0.82338497975E+02  0.71098367674E+01 -0.18467466494E+03  0.20232377492E+03  0.00000000000E+00 0.  1.
         11    1    4    4    0    0 -0.43944283564E+01 -0.47104056456E+02 -0.18154657330E+03  0.18760933189E+03  0.00000000000E+00 0. -1.
</event>
<event>
 8    1  0.6648599E-009  0.1112027E+03  0.7561462E-02  0.1258359E+00
          1   -1    0    0  501    0  0.00000000000E+00  0.00000000000E+00  0.59506598057E+02  0.59506598057E+02  0.00000000000E+00 0. -1.
         -1   -1    0    0    0  501 -0.00000000000E+00 -0.00000000000E+00 -0.34366381318E+03  0.34366381318E+03  0.00000000000E+00 0.  1.
         25    2    1    2    0    0  0.20902310999E+02  0.89583883765E+02 -0.14500993111E+03  0.21246303143E+03  0.12510188155E+03 0.  0.
         23    2    1    2    0    0 -0.20902310999E+02 -0.89583883765E+02 -0.13914728401E+03  0.19070737981E+03  0.92440030449E+02 0.  0.
          5    1    3    3  502    0 -0.90541648337E+01  0.51686742927E+02 -0.15435400840E+03  0.16308319841E+03  0.41800000000E+01 0.  1.
         -5    1    3    3    0  502  0.29956475832E+02  0.37897140839E+02  0.93440772940E+01  0.49379833014E+02  0.41800000000E+01 0.  1.
        -11    1    4    4    0    0  0.29392264286E+02 -0.46714423383E+02 -0.99104973565E+02  0.11343693551E+03  0.00000000000E+00 0.  1.
         11    1    4    4    0    0 -0.50294575285E+02 -0.42869460382E+02 -0.40042310450E+02  0.77270444302E+02  0.00000000000E+00 0. -1.
</event>
<event>
 8    1  0.6648599E-009  0.1185812E+03  0.7561462E-02  0.1245456E+00
         -2   -1    0    0    0  501 -0.00000000000E+00  0.00000000000E+00  0.25889529350E+02  0.25889529350E+02  0.00000000000E+00 0.  1.
          2   -1    0    0  501    0  0.00000000000E+00 -0.00000000000E+00 -0.75691930682E+03  0.75691930682E+03  0.00000000000E+00 0. -1.
         25    2    1    2    0    0  0.10789095168E+02 -0.75471244468E+02 -0.46731536181E+03  0.48973918520E+03  0.12509399993E+03 0.  0.
         23    2    1    2    0    0 -0.10789095168E+02  0.75471244468E+02 -0.26371441566E+03  0.29306965097E+03  0.10262657539E+03 0.  0.
          5    1    3    3  502    0 -0.16492324863E+02 -0.10312708164E+03 -0.37937202160E+03  0.39350704558E+03  0.41800000000E+01 0.  1.
         -5    1    3    3    0  502  0.27281420031E+02  0.27655837173E+02 -0.87943340217E+02  0.96232139627E+02  0.41800000000E+01 0.  1.
        -11    1    4    4    0    0 -0.28484249761E+02  0.18625173369E+02 -0.14761168049E+02  0.37096383242E+02  0.00000000000E+00 0.  1.
         11    1    4    4    0    0  0.17695154593E+02  0.56846071099E+02 -0.24895324761E+03  0.25597326772E+03  0.00000000000E+00 0. -1.
</event>
<event>
 8    1  0.6648599E-009  0.1451138E+03  0.7561462E-02  0.1206609E+00
         -1   -1    0    0    0  501 -0.00000000000E+00  0.00000000000E+00  0.27885989662E+02  0.27885989662E+02  0.00000000000E+00 0.  1.
          1   -1    0    0  501    0  0.00000000000E+00 -0.00000000000E+00 -0.79206847014E+03  0.79206847014E+03  0.00000000000E+00 0. -1.
         25    2    1    2    0    0 -0.57227640901E+02 -0.83583959710E+02 -0.39990370879E+03  0.43108129340E+03  0.12508726558E+03 0.  0.
         23    2    1    2    0    0  0.57227640901E+02  0.83583959710E+02 -0.36427877168E+03  0.38887316640E+03  0.90895736099E+02 0.  0.
          5    1    3    3  502    0 -0.24140420313E+01 -0.98136235701E+02 -0.30509442979E+03  0.32052555568E+03  0.41800000000E+01 0.  1.
         -5    1    3    3    0  502 -0.54813598870E+02  0.14552275992E+02 -0.94809279001E+02  0.11055573772E+03  0.41800000000E+01 0.  1.
        -11    1    4    4    0    0 -0.16270321665E+02  0.53101247554E+02 -0.12712783701E+03  0.13872978340E+03  0.00000000000E+00 0.  1.
         11    1    4    4    0    0  0.73497962567E+02  0.30482712155E+02 -0.23715093467E+03  0.25014338300E+03  0.00000000000E+00 0. -1.
</event>
<event>
 8    1  0.6648599E-009  0.1380999E+03  0.7561462E-02  0.1215909E+00
          1   -1    0    0  501    0  0.00000000000E+00  0.00000000000E+00  0.53570413357E+03  0.53570413357E+03  0.00000000000E+00 0. -1.
         -1   -1    0    0    0  501 -0.00000000000E+00 -0.00000000000E+00 -0.48968152863E+02  0.48968152863E+02  0.00000000000E+00 0.  1.
         25    2    1    2    0    0  0.15607373418E+02 -0.11011411568E+03  0.17254540094E+03  0.24039158750E+03  0.12508993317E+03 0.  0.
         23    2    1    2    0    0 -0.15607373418E+02  0.11011411568E+03  0.31419057977E+03  0.34428069893E+03  0.86283084456E+02 0.  0.
          5    1    3    3  502    0 -0.31022359622E+02 -0.11299436513E+03  0.10052505451E+03  0.15444375135E+03  0.41800000000E+01 0.  1.
         -5    1    3    3    0  502  0.46629733039E+02  0.28802494476E+01  0.72020346422E+02  0.85947836151E+02  0.41800000000E+01 0.  1.
        -11    1    4    4    0    0  0.16350690330E+01  0.32368853135E+02  0.16984598193E+02  0.36590882468E+02  0.00000000000E+00 0.  1.
         11    1    4    4    0    0 -0.17242442451E+02  0.77745262543E+02  0.29720598158E+03  0.30768981646E+03  0.00000000000E+00 0. -1.
</event>
<event>
 8    1  0.6648599E-009  0.9454362E+02  0.7561462E-02  0.1292207E+00
          1   -1    0    0  501    0  0.00000000000E+00  0.00000000000E+00  0.31211955988E+02  0.31211955988E+02  0.00000000000E+00 0. -1.
         -1   -1    0    0    0  501 -0.00000000000E+00 -0.00000000000E+00 -0.43712790227E+03  0.43712790227E+03  0.00000000000E+00 0.  1.
         25    2    1    2    0    0 -0.10201160323E+01 -0.23465293142E+02 -0.31114040598E+03  0.33616640211E+03  0.12509131486E+03 0.  0.
         23    2    1    2    0    0  0.10201160323E+01  0.23465293142E+02 -0.94775540304E+02  0.13217345615E+03  0.89082876313E+02 0.  0.
          5    1    3    3  502    0 -0.36319489095E+01  0.44533189030E+02 -0.20618110056E+03  0.21100832829E+03  0.41800000000E+01 0.  1.
         -5    1    3    3    0  502  0.26118328772E+01 -0.67998482172E+02 -0.10495930542E+03  0.12515807382E+03  0.41800000000E+01 0.  1.
        -11    1    4    4    0    0  0.30916340971E+02  0.32447213330E+02 -0.16253758137E+02  0.47674169584E+02  0.00000000000E+00 0. -1.
         11    1    4    4    0    0 -0.29896224938E+02 -0.89819201881E+01 -0.78521782167E+02  0.84499286568E+02  0.00000000000E+00 0.  1.
</event>
<event>
 8    1  0.6648599E-009  0.1675574E+03  0.7561462E-02  0.1180419E+00
          1   -1    0    0  501    0  0.00000000000E+00  0.00000000000E+00  0.86669075354E+02  0.86669075354E+02  0.00000000000E+00 0. -1.
         -1   -1    0    0    0  501 -0.00000000000E+00 -0.00000000000E+00 -0.36360989192E+03  0.36360989192E+03  0.00000000000E+00 0.  1.
         25    2    1    2    0    0  0.11964513963E+03 -0.64046760090E+02 -0.19082992140E+03  0.26548376039E+03  0.12509444916E+03 0.  0.
         23    2    1    2    0    0 -0.11964513963E+03  0.64046760090E+02 -0.86110895160E+02  0.18479520688E+03  0.91198877777E+02 0.  0.
          5    1    3    3  502    0  0.10350833243E+03  0.55439570185E+01 -0.15211580274E+03  0.18412332874E+03  0.41800000000E+01 0. -1.
         -5    1    3    3    0  502  0.16136807199E+02 -0.69590717108E+02 -0.38714118659E+02  0.81360431646E+02  0.41800000000E+01 0. -1.
        -11    1    4    4    0    0 -0.10864529465E+03  0.15150874772E+02 -0.76570350911E+02  0.13377730635E+03  0.00000000000E+00 0.  1.
         11    1    4    4    0    0 -0.10999844981E+02  0.48895885317E+02 -0.95405442482E+01  0.51017900536E+02  0.00000000000E+00 0. -1.
</event>
<event>
 8    1  0.6648599E-009  0.2533345E+03  0.7561462E-02  0.1111215E+00
          1   -1    0    0  501    0  0.00000000000E+00  0.00000000000E+00  0.37746067466E+02  0.37746067466E+02  0.00000000000E+00 0. -1.
         -1   -1    0    0    0  501 -0.00000000000E+00 -0.00000000000E+00 -0.17963566532E+04  0.17963566532E+04  0.00000000000E+00 0.  1.
         25    2    1    2    0    0 -0.13352083445E+03  0.18967225146E+03 -0.10664395140E+04  0.10985223253E+04  0.12511868784E+03 0.  0.
         23    2    1    2    0    0  0.13352083445E+03 -0.18967225146E+03 -0.69217107174E+03  0.73558039533E+03  0.90412107795E+02 0.  0.
          5    1    3    3  502    0  0.17386010333E+02  0.38295789679E+01 -0.15818421766E+03  0.15923774097E+03  0.41800000000E+01 0.  1.
         -5    1    3    3    0  502 -0.15090684478E+03  0.18584267249E+03 -0.90825529632E+03  0.93928458436E+03  0.41800000000E+01 0.  1.
        -11    1    4    4    0    0  0.14179223098E+03 -0.14238330224E+03 -0.56022651979E+03  0.59517375194E+03  0.00000000000E+00 0.  1.
         11    1    4    4    0    0 -0.82713965295E+01 -0.47288949224E+02 -0.13194455195E+03  0.14040664340E+03  0.00000000000E+00 0. -1.
</event>
<event>
 8    1  0.6648599E-009  0.4801799E+03  0.7561462E-02  0.1019086E+00
         -2   -1    0    0    0  501 -0.00000000000E+00  0.00000000000E+00  0.40527709962E+03  0.40527709962E+03  0.00000000000E+00 0.  1.
          2   -1    0    0  501    0  0.00000000000E+00 -0.00000000000E+00 -0.58907479608E+03  0.58907479608E+03  0.00000000000E+00 0. -1.
         25    2    1    2    0    0 -0.31298732933E+03  0.35279958259E+03 -0.16155772592E+03  0.51398093199E+03  0.12508751275E+03 0.  0.
         23    2    1    2    0    0  0.31298732933E+03 -0.35279958259E+03 -0.22239970534E+02  0.48037096371E+03  0.88504421866E+02 0.  0.
          5    1    3    3  502    0 -0.30726953450E+03  0.29175631621E+03 -0.12220499923E+03  0.44100776538E+03  0.41800000000E+01 0. -1.
         -5    1    3    3    0  502 -0.57177948274E+01  0.61043266380E+02 -0.39352726687E+02  0.72973166614E+02  0.41800000000E+01 0. -1.
        -11    1    4    4    0    0  0.82680004885E+02 -0.57639416403E+02 -0.32352731167E+02  0.10585360053E+03  0.00000000000E+00 0. -1.
         11    1    4    4    0    0  0.23030732445E+03 -0.29516016619E+03  0.10112760633E+02  0.37451736318E+03  0.00000000000E+00 0.  1.
</event>
<event>
 8    1  0.6648599E-009  0.1227886E+03  0.7561462E-02  0.1238566E+00
         -2   -1    0    0    0  501 -0.00000000000E+00  0.00000000000E+00  0.10762062347E+03  0.10762062347E+03  0.00000000000E+00 0.  1.
          2   -1    0    0  501    0  0.00000000000E+00 -0.00000000000E+00 -0.19471894871E+03  0.19471894871E+03  0.00000000000E+00 0. -1.
         25    2    1    2    0    0  0.78128611753E+02 -0.27336864631E+02 -0.97661515884E+02  0.17899019441E+03  0.12509330065E+03 0.  0.
         23    2    1    2    0    0 -0.78128611753E+02  0.27336864631E+02  0.10563190642E+02  0.12334937777E+03  0.90841091242E+02 0.  0.
          5    1    3    3  502    0  0.99079248831E+02 -0.27434695751E+02 -0.28736046265E+02  0.10682973760E+03  0.41800000000E+01 0. -1.
         -5    1    3    3    0  502 -0.20950637078E+02  0.97831120054E-01 -0.68925469619E+02  0.72160456811E+02  0.41800000000E+01 0. -1.
        -11    1    4    4    0    0 -0.55416136842E+02  0.59910950095E+02 -0.21940606703E+01  0.81639966107E+02  0.00000000000E+00 0.  1.
         11    1    4    4    0    0 -0.22712474911E+02 -0.32574085464E+02  0.12757251312E+02  0.41709411665E+02  0.00000000000E+00 0. -1.
</event>
<event>
 8    1  0.6648599E-009  0.2128996E+03  0.7561462E-02  0.1139290E+00
         -1   -1    0    0    0  501 -0.00000000000E+00  0.00000000000E+00  0.28826915772E+02  0.28826915772E+02  0.00000000000E+00 0.  1.
          1   -1    0    0  501    0  0.00000000000E+00 -0.00000000000E+00 -0.20970323222E+04  0.20970323222E+04  0.00000000000E+00 0. -1.
         25    2    1    2    0    0 -0.21207310886E+03 -0.50573255929E+01 -0.13247499277E+04  0.13474459523E+04  0.12509054011E+03 0.  0.
         23    2    1    2    0    0  0.21207310886E+03  0.50573255929E+01 -0.74345547872E+03  0.77841328573E+03  0.90557244384E+02 0.  0.
          5    1    3    3  502    0 -0.13860277000E+03  0.81300103550E+01 -0.11354975739E+04  0.11439619913E+04  0.41800000000E+01 0.  1.
         -5    1    3    3    0  502 -0.73470338861E+02 -0.13187335948E+02 -0.18925235383E+03  0.20348396092E+03  0.41800000000E+01 0.  1.
        -11    1    4    4    0    0  0.16834976564E+03  0.42033244039E+01 -0.68507784436E+03  0.70547215704E+03  0.00000000000E+00 0. -1.
         11    1    4    4    0    0  0.43723343216E+02  0.85400118905E+00 -0.58377634358E+02  0.72941128681E+02  0.00000000000E+00 0.  1.
</event>
<event>
 7    1  0.6648599E-009  0.9284307E+02  0.7561462E-02  0.1296109E+00
         -1   -1    0    0    0  501 -0.00000000000E+00  0.00000000000E+00  0.31833652099E+03  0.31833652099E+03  0.00000000000E+00 0.  1.
          1   -1    0    0  501    0  0.00000000000E+00 -0.00000000000E+00 -0.46554500203E+02  0.46554500203E+02  0.00000000000E+00 0. -1.
         23    2    1    2    0    0 -0.99986554476E+01  0.52979985333E+02  0.12737989706E+03  0.16568865553E+03  0.91215352006E+02 0.  0.
          5    1    1    2  502    0 -0.37968204583E+02 -0.10299326548E+01 -0.16911324812E+00  0.38211860984E+02  0.41800000000E+01 0.  1.
         -5    1    1    2    0  502  0.47966860031E+02 -0.51950052678E+02  0.14457123697E+03  0.16099050467E+03  0.41800000000E+01 0.  1.
        -11    1    3    3    0    0 -0.30493626374E+02  0.16178547621E+02  0.11744014507E+03  0.12240830987E+03  0.00000000000E+00 0.  1.
         11    1    3    3    0    0  0.20494970926E+02  0.36801437712E+02  0.99397519902E+01  0.43280345661E+02  0.00000000000E+00 0. -1.
</event>
<event>
 8    1  0.6648599E-009  0.1095816E+03  0.7561462E-02  0.1261347E+00
         -2   -1    0    0    0  501 -0.00000000000E+00  0.00000000000E+00  0.22951434879E+03  0.22951434879E+03  0.00000000000E+00 0.  1.
          2   -1    0    0  501    0  0.00000000000E+00 -0.00000000000E+00 -0.87382047601E+02  0.87382047601E+02  0.00000000000E+00 0. -1.
         25    2    1    2    0    0 -0.34865031454E+02  0.91781139789E+01 -0.15504150742E+02  0.13110524251E+03  0.12509355591E+03 0.  0.
         23    2    1    2    0    0  0.34865031454E+02 -0.91781139789E+01  0.15763645193E+03  0.18579115388E+03  0.91483843867E+02 0.  0.
          5    1    3    3  502    0  0.19799774328E+02 -0.46172891871E+02  0.46710371806E+01  0.50628628221E+02  0.41800000000E+01 0.  1.
         -5    1    3    3    0  502 -0.54664805782E+02  0.55351005850E+02 -0.20175187923E+02  0.80476614290E+02  0.41800000000E+01 0.  1.
        -11    1    4    4    0    0 -0.17897154376E+01 -0.41761937442E+02  0.10891346475E+03  0.11665935584E+03  0.00000000000E+00 0.  1.
         11    1    4    4    0    0  0.36654746892E+02  0.32583823463E+02  0.48722987182E+02  0.69131798046E+02  0.00000000000E+00 0. -1.
</event>
<event>
 8    1  0.6648599E-009  0.8829019E+02  0.7561462E-02  0.1307046E+00
         -3   -1    0    0    0  501 -0.00000000000E+00  0.00000000000E+00  0.66376822861E+02  0.66376822861E+02  0.00000000000E+00 0.  1.
          3   -1    0    0  501    0  0.00000000000E+00 -0.00000000000E+00 -0.24884126033E+03  0.24884126033E+03  0.00000000000E+00 0. -1.
         25    2    1    2    0    0 -0.20967448503E+02  0.50919884900E+02 -0.13784481399E+03  0.19411566518E+03  0.12508888900E+03 0.  0.
         23    2    1    2    0    0  0.20967448503E+02 -0.50919884900E+02 -0.44619623481E+02  0.12110241801E+03  0.98195805779E+02 0.  0.
          5    1    3    3  502    0  0.19344575217E+02  0.36037205877E+02 -0.14467575520E+03  0.15040425307E+03  0.41800000000E+01 0.  1.
         -5    1    3    3    0  502 -0.40312023720E+02  0.14882679023E+02  0.68309412136E+01  0.43711412116E+02  0.41800000000E+01 0.  1.
        -11    1    4    4    0    0  0.47640827098E+02 -0.43726315486E+02  0.44200577437E+01  0.64816479255E+02  0.00000000000E+00 0.  1.
         11    1    4    4    0    0 -0.26673378595E+02 -0.71935694147E+01 -0.49039681224E+02  0.56285938752E+02  0.00000000000E+00 0. -1.
</event>
<event>
 7    1  0.6648599E-009  0.9333506E+02  0.7561462E-02  0.1294971E+00
         -2   -1    0    0    0  501 -0.00000000000E+00  0.00000000000E+00  0.14338498832E+03  0.14338498832E+03  0.00000000000E+00 0.  1.
          2   -1    0    0  501    0  0.00000000000E+00 -0.00000000000E+00 -0.94655654192E+02  0.94655654192E+02  0.00000000000E+00 0. -1.
         23    2    1    2    0    0 -0.91047790921E+01  0.41447086905E+02  0.28043284374E+02  0.10427066845E+03  0.91023010741E+02 0.  0.
          5    1    1    2  502    0  0.54870857988E+02 -0.17504850127E+02 -0.26636474092E+02  0.63594064081E+02  0.41800000000E+01 0.  1.
         -5    1    1    2    0  502 -0.45766078896E+02 -0.23942236778E+02  0.47322523849E+02  0.70175909989E+02  0.41800000000E+01 0.  1.
        -11    1    3    3    0    0 -0.37035204745E+02  0.25134697714E+02  0.48501961818E+02  0.65998482709E+02  0.00000000000E+00 0.  1.
         11    1    3    3    0    0  0.27930425653E+02  0.16312389190E+02 -0.20458677444E+02  0.38272185736E+02  0.00000000000E+00 0. -1.
</event>
<event>
 8    1  0.6648599E-009  0.1498034E+03  0.7561462E-02  0.1200715E+00
          1   -1    0    0  501    0  0.00000000000E+00  0.00000000000E+00  0.28985919994E+03  0.28985919994E+03  0.00000000000E+00 0. -1.
         -1   -1    0    0    0  501 -0.00000000000E+00 -0.00000000000E+00 -0.11888265469E+03  0.11888265469E+03  0.00000000000E+00 0.  1.
         25    2    1    2    0    0 -0.91308620092E+02  0.11189410221E+03  0.44946667058E+02  0.19627912031E+03  0.12509091085E+03 0.  0.
         23    2    1    2    0    0  0.91308620092E+02 -0.11189410221E+03  0.12602987819E+03  0.21246273432E+03  0.91647853566E+02 0.  0.
          5    1    3    3  502    0 -0.17673956684E+02  0.54123006590E+02 -0.40086875685E+02  0.69757426769E+02  0.41800000000E+01 0.  1.
         -5    1    3    3    0  502 -0.73634663408E+02  0.57771095622E+02  0.85033542743E+02  0.12652169354E+03  0.41800000000E+01 0.  1.
        -11    1    4    4    0    0  0.25245786778E+02 -0.59097043249E+02  0.45223664545E+01  0.64422527653E+02  0.00000000000E+00 0.  1.
         11    1    4    4    0    0  0.66062833314E+02 -0.52797058963E+02  0.12150751174E+03  0.14804020666E+03  0.00000000000E+00 0. -1.
</event>
<event>
 8    1  0.6648599E-009  0.1288332E+03  0.7561462E-02  0.1229197E+00
          2   -1    0    0  501    0  0.00000000000E+00  0.00000000000E+00  0.63776753645E+03  0.63776753645E+03  0.00000000000E+00 0. -1.
         -2   -1    0    0    0  501 -0.00000000000E+00 -0.00000000000E+00 -0.31626638264E+02  0.31626638264E+02  0.00000000000E+00 0.  1.
         25    2    1    2    0    0 -0.76854447071E+02 -0.50339469037E+02  0.31728234789E+03  0.35320935152E+03  0.12509232406E+03 0.  0.
         23    2    1    2    0    0  0.76854447071E+02  0.50339469037E+02  0.28885855029E+03  0.31618482319E+03  0.89960614506E+02 0.  0.
          5    1    3    3  502    0 -0.16490469794E+02 -0.64725552760E+02  0.64711311214E+02  0.93093281031E+02  0.41800000000E+01 0. -1.
         -5    1    3    3    0  502 -0.60363977278E+02  0.14386083723E+02  0.25257103668E+03  0.26011607049E+03  0.41800000000E+01 0. -1.
        -11    1    4    4    0    0 -0.20963419763E+01  0.49548339668E+02  0.11507688962E+03  0.12530811282E+03  0.00000000000E+00 0. -1.
         11    1    4    4    0    0  0.78950789048E+02  0.79112936908E+00  0.17378166067E+03  0.19087671037E+03  0.00000000000E+00 0.  1.
</event>
<event>
 8    1  0.6648599E-009  0.9277804E+02  0.7561462E-02  0.1296260E+00
          1   -1    0    0  501    0  0.00000000000E+00  0.00000000000E+00  0.64842662557E+03  0.64842662557E+03  0.00000000000E+00 0. -1.
         -1   -1    0    0    0  501 -0.00000000000E+00 -0.00000000000E+00 -0.26700523047E+02  0.26700523047E+02  0.00000000000E+00 0.  1.
         25    2    1    2    0    0  0.19286330745E+02  0.67907405919E+02  0.28711407316E+03  0.32105366932E+03  0.12513028907E+03 0.  0.
         23    2    1    2    0    0 -0.19286330745E+02 -0.67907405919E+02  0.33461202936E+03  0.35407347930E+03  0.91757507689E+02 0.  0.
          5    1    3    3  502    0 -0.99663538439E+01  0.54883852445E+02  0.28302900234E+03  0.28850381979E+03  0.41800000000E+01 0.  1.
         -5    1    3    3    0  502  0.29252684589E+02  0.13023553473E+02  0.40850708240E+01  0.32549849529E+02  0.41800000000E+01 0.  1.
        -11    1    4    4    0    0 -0.39138764344E+02 -0.16975553743E+02  0.24807891621E+03  0.25172040237E+03  0.00000000000E+00 0. -1.
         11    1    4    4    0    0  0.19852433599E+02 -0.50931852176E+02  0.86533113146E+02  0.10235307693E+03  0.00000000000E+00 0.  1.
</event>
<event>
 8    1  0.6648599E-009  0.1335833E+03  0.7561462E-02  0.1222234E+00
          1   -1    0    0  501    0  0.00000000000E+00  0.00000000000E+00  0.53566340062E+03  0.53566340062E+03  0.00000000000E+00 0. -1.
         -1   -1    0    0    0  501 -0.00000000000E+00 -0.00000000000E+00 -0.39829558364E+02  0.39829558364E+02  0.00000000000E+00 0.  1.
         25    2    1    2    0    0 -0.12119605378E+02  0.84100814317E+02  0.34007451226E+03  0.37218035656E+03  0.12509081546E+03 0.  0.
         23    2    1    2    0    0  0.12119605378E+02 -0.84100814317E+02  0.15575932999E+03  0.20331260243E+03  0.99273428583E+02 0.  0.
          5    1    3    3  502    0  0.45130624424E+02 -0.36774625421E+01  0.12190846216E+03  0.13011319126E+03  0.41800000000E+01 0.  1.
         -5    1    3    3    0  502 -0.57250229802E+02  0.87778276859E+02  0.21816605010E+03  0.24206716530E+03  0.41800000000E+01 0.  1.
        -11    1    4    4    0    0 -0.29880501704E+02 -0.97712424489E+01  0.76442234739E+01  0.32353604337E+02  0.00000000000E+00 0.  1.
         11    1    4    4    0    0  0.42000107082E+02 -0.74329571868E+02  0.14811510652E+03  0.17095899809E+03  0.00000000000E+00 0. -1.
</event>
<event>
 8    1  0.6648599E-009  0.1701949E+03  0.7561462E-02  0.1177645E+00
         -1   -1    0    0    0  501 -0.00000000000E+00  0.00000000000E+00  0.13377888570E+03  0.13377888570E+03  0.00000000000E+00 0.  1.
          1   -1    0    0  501    0  0.00000000000E+00 -0.00000000000E+00 -0.25750615420E+03  0.25750615420E+03  0.00000000000E+00 0. -1.
         25    2    1    2    0    0 -0.80932815239E+02 -0.12395363934E+03 -0.90826916069E+02  0.21403379830E+03  0.12508522233E+03 0.  0.
         23    2    1    2    0    0  0.80932815239E+02  0.12395363934E+03 -0.32900352428E+02  0.17725124160E+03  0.91765702594E+02 0.  0.
          5    1    3    3  502    0 -0.93891194961E+02 -0.90342759043E+02 -0.11214900776E+03  0.17196581911E+03  0.41800000000E+01 0.  1.
         -5    1    3    3    0  502  0.12958379722E+02 -0.33610880295E+02  0.21322091686E+02  0.42067979189E+02  0.41800000000E+01 0.  1.
        -11    1    4    4    0    0  0.34013727982E+02  0.12216122015E+03 -0.29373463405E+02  0.13016565504E+03  0.00000000000E+00 0.  1.
         11    1    4    4    0    0  0.46919087257E+02  0.17924191850E+01 -0.35268890235E+01  0.47085586560E+02  0.00000000000E+00 0. -1.
</event>
<event>
 8    1  0.6648599E-009  0.1036343E+03  0.7561462E-02  0.1272834E+00
          1   -1    0    0  501    0  0.00000000000E+00  0.00000000000E+00  0.42696421128E+02  0.42696421128E+02  0.00000000000E+00 0. -1.
         -1   -1    0    0    0  501 -0.00000000000E+00 -0.00000000000E+00 -0.30981945834E+03  0.30981945834E+03  0.00000000000E+00 0.  1.
         25    2    1    2    0    0  0.29624199387E+02 -0.23048451770E+02 -0.13354252595E+03  0.18678803393E+03  0.12508932434E+03 0.  0.
         23    2    1    2    0    0 -0.29624199387E+02  0.23048451770E+02 -0.13358051126E+03  0.16572784554E+03  0.90626384017E+02 0.  0.
          5    1    3    3  502    0  0.38649870938E+02  0.45325249960E+02 -0.77422661424E+02  0.97774903270E+02  0.41800000000E+01 0. -1.
         -5    1    3    3    0  502 -0.90256715506E+01 -0.68373701730E+02 -0.56119864530E+02  0.89013130662E+02  0.41800000000E+01 0. -1.
        -11    1    4    4    0    0 -0.33020524392E+01 -0.24174244021E+02 -0.32313304353E+01  0.24611767931E+02  0.00000000000E+00 0. -1.
         11    1    4    4    0    0 -0.26322146948E+02  0.47222695791E+02 -0.13034918083E+03  0.14111607761E+03  0.00000000000E+00 0.  1.
</event>
<event>
 8    1  0.6648599E-009  0.1559820E+03  0.7561462E-02  0.1193309E+00
         -2   -1    0    0    0  501 -0.00000000000E+00  0.00000000000E+00  0.59095070393E+02  0.59095070393E+02  0.00000000000E+00 0.  1.
          2   -1    0    0  501    0  0.00000000000E+00 -0.00000000000E+00 -0.48895637372E+03  0.48895637372E+03  0.00000000000E+00 0. -1.
         25    2    1    2    0    0  0.12805543387E+03 -0.78340534402E+01 -0.25928061981E+03  0.31517198807E+03  0.12508947086E+03 0.  0.
         23    2    1    2    0    0 -0.12805543387E+03  0.78340534402E+01 -0.17058068352E+03  0.23287945604E+03  0.93142390570E+02 0.  0.
          5    1    3    3  502    0  0.13926390393E+03 -0.21294506235E+02 -0.15562234530E+03  0.20996113376E+03  0.41800000000E+01 0. -1.
         -5    1    3    3    0  502 -0.11208470061E+02  0.13460452795E+02 -0.10365827451E+03  0.10521085431E+03  0.41800000000E+01 0. -1.
        -11    1    4    4    0    0 -0.91267157705E+02  0.44091090102E+02 -0.14004401156E+03  0.17287580361E+03  0.00000000000E+00 0. -1.
         11    1    4    4    0    0 -0.36788276163E+02 -0.36257036662E+02 -0.30536671964E+02  0.60003652432E+02  0.00000000000E+00 0.  1.
</event>
<event>
 8    1  0.6648599E-009  0.1756176E+03  0.7561462E-02  0.1172113E+00
          2   -1    0    0  501    0  0.00000000000E+00  0.00000000000E+00  0.22267875508E+04  0.22267875508E+04  0.00000000000E+00 0. -1.
         -2   -1    0    0    0  501 -0.00000000000E+00 -0.00000000000E+00 -0.27122354133E+02  0.27122354133E+02  0.00000000000E+00 0.  1.
         25    2    1    2    0    0 -0.13540578027E+03 -0.33239999045E+02  0.19176385144E+04  0.19267652301E+04  0.12508859722E+03 0.  0.
         23    2    1    2    0    0  0.13540578027E+03  0.33239999045E+02  0.28202668227E+03  0.32714467484E+03  0.89693733865E+02 0.  0.
          5    1    3    3  502    0 -0.26344615491E+02  0.44488500045E+02  0.64931748892E+03  0.65138616750E+03  0.41800000000E+01 0. -1.
         -5    1    3    3    0  502 -0.10906116477E+03 -0.77728499090E+02  0.12683210255E+04  0.12753790626E+04  0.41800000000E+01 0. -1.
        -11    1    4    4    0    0  0.12018870395E+01  0.31128436099E+02  0.44529433853E+02  0.54344222744E+02  0.00000000000E+00 0.  1.
         11    1    4    4    0    0  0.13420389323E+03  0.21115629464E+01  0.23749724842E+03  0.27280045209E+03  0.00000000000E+00 0. -1.
</event>
<event>
 8    1  0.6648599E-009  0.7393521E+02  0.7561462E-02  0.1347200E+00
          2   -1    0    0  501    0  0.00000000000E+00  0.00000000000E+00  0.25777841912E+03  0.25777841912E+03  0.00000000000E+00 0. -1.
         -2   -1    0    0    0  501 -0.00000000000E+00 -0.00000000000E+00 -0.62466693318E+02  0.62466693318E+02  0.00000000000E+00 0.  1.
         25    2    1    2    0    0 -0.26826453864E+02 -0.22003698308E+02  0.17814805144E+03  0.22042719562E+03  0.12509036322E+03 0.  0.
         23    2    1    2    0    0  0.26826453864E+02  0.22003698308E+02  0.17163674363E+02  0.99817916817E+02  0.92006540169E+02 0.  0.
          5    1    3    3  502    0  0.50613382767E+01 -0.43848625401E+02  0.17599025645E+03  0.18148928855E+03  0.41800000000E+01 0.  1.
         -5    1    3    3    0  502 -0.31887792140E+02  0.21844927093E+02  0.21577949865E+01  0.38937907064E+02  0.41800000000E+01 0.  1.
        -11    1    4    4    0    0  0.34725022049E+02 -0.62807888729E+01 -0.28613181512E+02  0.45431152543E+02  0.00000000000E+00 0. -1.
         11    1    4    4    0    0 -0.78985681853E+01  0.28284487181E+02  0.45776855874E+02  0.54386764274E+02  0.00000000000E+00 0.  1.
</event>
<event>
 8    1  0.6648599E-009  0.1535928E+03  0.7561462E-02  0.1196126E+00
          2   -1    0    0  501    0  0.00000000000E+00  0.00000000000E+00  0.25205320491E+03  0.25205320491E+03  0.00000000000E+00 0. -1.
         -2   -1    0    0    0  501 -0.00000000000E+00 -0.00000000000E+00 -0.12644696466E+03  0.12644696466E+03  0.00000000000E+00 0.  1.
         25    2    1    2    0    0  0.53933475329E+02  0.12933920133E+03  0.87939931320E+02  0.20740688595E+03  0.12508691402E+03 0.  0.
         23    2    1    2    0    0 -0.53933475329E+02 -0.12933920133E+03  0.37666308928E+02  0.17109328362E+03  0.90646081606E+02 0.  0.
          5    1    3    3  502    0  0.51196874528E+02  0.24951504923E+02 -0.16719330039E+02  0.59503831442E+02  0.41800000000E+01 0. -1.
         -5    1    3    3    0  502  0.27366008014E+01  0.10438769641E+03  0.10465926136E+03  0.14790305451E+03  0.41800000000E+01 0. -1.
        -11    1    4    4    0    0  0.27071915013E+01 -0.37998661289E+02  0.50057522550E+02  0.62904552374E+02  0.00000000000E+00 0. -1.
         11    1    4    4    0    0 -0.56640666831E+02 -0.91340540041E+02 -0.12391213622E+02  0.10818873125E+03  0.00000000000E+00 0.  1.
</event>
<event>
 8    1  0.6648599E-009  0.1327222E+03  0.7561462E-02  0.1223471E+00
          2   -1    0    0  501    0  0.00000000000E+00  0.00000000000E+00  0.31751714139E+03  0.31751714139E+03  0.00000000000E+00 0. -1.
         -2   -1    0    0    0  501 -0.00000000000E+00 -0.00000000000E+00 -0.59749692391E+02  0.59749692391E+02  0.00000000000E+00 0.  1.
         25    2    1    2    0    0  0.75652094917E+02 -0.33579541675E+02  0.11513956942E+03  0.18910388407E+03  0.12510928598E+03 0.  0.
         23    2    1    2    0    0 -0.75652094917E+02  0.33579541675E+02  0.14262787959E+03  0.18816294972E+03  0.90618753724E+02 0.  0.
          5    1    3    3  502    0 -0.21217317957E+02 -0.42003252078E+02  0.15257516864E+02  0.49645865762E+02  0.41800000000E+01 0.  1.
         -5    1    3    3    0  502  0.96869412874E+02  0.84237104031E+01  0.99882052552E+02  0.13945801830E+03  0.41800000000E+01 0.  1.
        -11    1    4    4    0    0 -0.80705133348E+02 -0.60448348180E+01  0.11012264542E+03  0.13666329284E+03  0.00000000000E+00 0.  1.
         11    1    4    4    0    0  0.50530384311E+01  0.39624376493E+02  0.32505234168E+02  0.51499656875E+02  0.00000000000E+00 0. -1.
</event>
<event>
 8    1  0.6648599E-009  0.6527074E+02  0.7561462E-02  0.1376956E+00
          3   -1    0    0  501    0  0.00000000000E+00  0.00000000000E+00  0.52936140335E+02  0.52936140335E+02  0.00000000000E+00 0. -1.
         -3   -1    0    0    0  501 -0.00000000000E+00 -0.00000000000E+00 -0.22883287761E+03  0.22883287761E+03  0.00000000000E+00 0.  1.
         25    2    1    2    0    0 -0.48784624060E+01  0.25942006174E+01 -0.65676555835E+02  0.14139228279E+03  0.12509132014E+03 0.  0.
         23    2    1    2    0    0  0.48784624060E+01 -0.25942006174E+01 -0.11022018144E+03  0.14037673515E+03  0.86756037851E+02 0.  0.
          5    1    3    3  502    0  0.84706723543E+01  0.23591953133E+02 -0.97513241732E+02  0.10077022008E+03  0.41800000000E+01 0. -1.
         -5    1    3    3    0  502 -0.13349134760E+02 -0.20997752515E+02  0.31836685897E+02  0.40622062705E+02  0.41800000000E+01 0. -1.
        -11    1    4    4    0    0 -0.56569453747E+00  0.38470316743E+02 -0.81033002798E+02  0.89703025718E+02  0.00000000000E+00 0.  1.
         11    1    4    4    0    0  0.54441569434E+01 -0.41064517360E+02 -0.29187178637E+02  0.50673709432E+02  0.00000000000E+00 0. -1.
</event>
<event>
 8    1  0.6648599E-009  0.8957222E+02  0.7561462E-02  0.1303891E+00
         -1   -1    0    0    0  501 -0.00000000000E+00  0.00000000000E+00  0.11587662884E+02  0.11587662884E+02  0.00000000000E+00 0.  1.
          1   -1    0    0  501    0  0.00000000000E+00 -0.00000000000E+00 -0.13230322107E+04  0.13230322107E+04  0.00000000000E+00 0. -1.
         25    2    1    2    0    0  0.23466919040E+00 -0.36754360719E+01 -0.10449356450E+04  0.10524028428E+04  0.12509067658E+03 0.  0.
         23    2    1    2    0    0 -0.23466919040E+00  0.36754360719E+01 -0.26650890286E+03  0.28221703086E+03  0.92767954085E+02 0.  0.
          5    1    3    3  502    0 -0.33976381844E+02  0.25586927964E+02 -0.88947381687E+03  0.89049998804E+03  0.41800000000E+01 0. -1.
         -5    1    3    3    0  502  0.34211051035E+02 -0.29262364035E+02 -0.15546182813E+03  0.16190285472E+03  0.41800000000E+01 0. -1.
        -11    1    4    4    0    0 -0.29054343577E+02  0.37059461567E+02 -0.11101828606E+03  0.12059277927E+03  0.00000000000E+00 0.  1.
         11    1    4    4    0    0  0.28819674386E+02 -0.33384025495E+02 -0.15549061679E+03  0.16162425159E+03  0.00000000000E+00 0. -1.
</event>
<event>
 8    1  0.6648599E-009  0.1602920E+03  0.7561462E-02  0.1188367E+00
          1   -1    0    0  501    0  0.00000000000E+00  0.00000000000E+00  0.41036673507E+02  0.41036673507E+02  0.00000000000E+00 0. -1.
         -1   -1    0    0    0  501 -0.00000000000E+00 -0.00000000000E+00 -0.75370955292E+03  0.75370955292E+03  0.00000000000E+00 0.  1.
         25    2    1    2    0    0 -0.94476740938E+02  0.10015182521E+03 -0.37982756636E+03  0.42293591839E+03  0.12509823430E+03 0.  0.
         23    2    1    2    0    0  0.94476740938E+02 -0.10015182521E+03 -0.33284531305E+03  0.37181030803E+03  0.92199024237E+02 0.  0.
          5    1    3    3  502    0 -0.10737672249E+03  0.93614392387E+02 -0.21826268146E+03  0.26067122110E+03  0.41800000000E+01 0.  1.
         -5    1    3    3    0  502  0.12899981550E+02  0.65374328226E+01 -0.16156488490E+03  0.16226469729E+03  0.41800000000E+01 0.  1.
        -11    1    4    4    0    0  0.10453798102E+03 -0.57737998036E+02 -0.21170111462E+03  0.24306218921E+03  0.00000000000E+00 0.  1.
         11    1    4    4    0    0 -0.10061240079E+02 -0.42413827174E+02 -0.12114419843E+03  0.12874811883E+03  0.00000000000E+00 0. -1.
</event>
<event>
 8    1  0.6648599E-009  0.2193236E+03  0.7561462E-02  0.1134388E+00
          1   -1    0    0  501    0  0.00000000000E+00  0.00000000000E+00  0.36146920467E+03  0.36146920467E+03  0.00000000000E+00 0. -1.
         -1   -1    0    0    0  501 -0.00000000000E+00 -0.00000000000E+00 -0.15265372868E+03  0.15265372868E+03  0.00000000000E+00 0.  1.
         25    2    1    2    0    0  0.19186755089E+03 -0.78743968500E+02  0.11346725877E+03  0.26746277479E+03  0.12509095661E+03 0.  0.
         23    2    1    2    0    0 -0.19186755089E+03  0.78743968500E+02  0.95348217216E+02  0.24666015856E+03  0.93467543222E+02 0.  0.
          5    1    3    3  502    0  0.68208720925E+02  0.18423765083E+02  0.79638003936E+02  0.10654364740E+03  0.41800000000E+01 0. -1.
         -5    1    3    3    0  502  0.12365882996E+03 -0.97167733584E+02  0.33829254831E+02  0.16091912739E+03  0.41800000000E+01 0. -1.
        -11    1    4    4    0    0 -0.54359082233E+02  0.40597559931E+02 -0.10943591357E+02  0.68722877452E+02  0.00000000000E+00 0. -1.
         11    1    4    4    0    0 -0.13750846865E+03  0.38146408570E+02  0.10629180857E+03  0.17793728111E+03  0.00000000000E+00 0.  1.
</event>
<event>
 8    1  0.6648599E-009  0.9754407E+02  0.7561462E-02  0.1285547E+00
          2   -1    0    0  501    0  0.00000000000E+00  0.00000000000E+00  0.13495396898E+04  0.13495396898E+04  0.00000000000E+00 0. -1.
         -2   -1    0    0    0  501 -0.00000000000E+00 -0.00000000000E+00 -0.12771007535E+02  0.12771007535E+02  0.00000000000E+00 0.  1.
         25    2    1    2    0    0  0.73844215433E+02  0.44787633505E+01  0.74963081119E+03  0.76358782990E+03  0.12508794267E+03 0.  0.
         23    2    1    2    0    0 -0.73844215433E+02 -0.44787633505E+01  0.58713787109E+03  0.59872286746E+03  0.90912952177E+02 0.  0.
          5    1    3    3  502    0  0.18877253312E+02  0.11652048324E+02  0.64246676311E+03  0.64286323197E+03  0.41800000000E+01 0. -1.
         -5    1    3    3    0  502  0.54966962121E+02 -0.71732849733E+01  0.10716404808E+03  0.12072459792E+03  0.41800000000E+01 0. -1.
        -11    1    4    4    0    0 -0.84813935870E+01  0.38023053700E+02  0.21583119686E+03  0.21931892802E+03  0.00000000000E+00 0. -1.
         11    1    4    4    0    0 -0.65362821846E+02 -0.42501817051E+02  0.37130667423E+03  0.37940393943E+03  0.00000000000E+00 0.  1.
</event>
<event>
 8    1  0.6648599E-009  0.1102161E+03  0.7561462E-02  0.1260170E+00
         -2   -1    0    0    0  501 -0.00000000000E+00  0.00000000000E+00  0.59383319277E+02  0.59383319277E+02  0.00000000000E+00 0.  1.
          2   -1    0    0  501    0  0.00000000000E+00 -0.00000000000E+00 -0.23744053325E+03  0.23744053325E+03  0.00000000000E+00 0. -1.
         25    2    1    2    0    0  0.47521773968E+02 -0.64615101834E+01 -0.80820295438E+02  0.15645968401E+03  0.12509053701E+03 0.  0.
         23    2    1    2    0    0 -0.47521773968E+02  0.64615101834E+01 -0.97236918538E+02  0.14036416852E+03  0.89146011480E+02 0.  0.
          5    1    3    3  502    0  0.65458984345E+02  0.43214648529E+02 -0.62571613612E+02  0.10042441789E+03  0.41800000000E+01 0. -1.
         -5    1    3    3    0  502 -0.17937210376E+02 -0.49676158712E+02 -0.18248681826E+02  0.56035266117E+02  0.41800000000E+01 0. -1.
        -11    1    4    4    0    0 -0.25502169059E+01 -0.30552203635E+02 -0.46911235441E+01  0.31015276773E+02  0.00000000000E+00 0.  1.
         11    1    4    4    0    0 -0.44971557063E+02  0.37013713819E+02 -0.92545794994E+02  0.10934889175E+03  0.00000000000E+00 0. -1.
</event>
<event>
 8    1  0.6648599E-009  0.1059711E+03  0.7561462E-02  0.1268218E+00
          1   -1    0    0  501    0  0.00000000000E+00  0.00000000000E+00  0.70951494399E+02  0.70951494399E+02  0.00000000000E+00 0. -1.
         -1   -1    0    0    0  501 -0.00000000000E+00 -0.00000000000E+00 -0.19607591191E+03  0.19607591191E+03  0.00000000000E+00 0.  1.
         25    2    1    2    0    0  0.25324751151E+02 -0.30081488524E+02 -0.96426625346E+02  0.16276285389E+03  0.12508962210E+03 0.  0.
         23    2    1    2    0    0 -0.25324751151E+02  0.30081488524E+02 -0.28697792164E+02  0.10426455242E+03  0.92202465500E+02 0.  0.
          5    1    3    3  502    0  0.25229801981E+02  0.46647293403E+02 -0.49864327285E+02  0.72913897341E+02  0.41800000000E+01 0. -1.
         -5    1    3    3    0  502  0.94949169180E-01 -0.76728781927E+02 -0.46562298060E+02  0.89848956544E+02  0.41800000000E+01 0. -1.
        -11    1    4    4    0    0 -0.20525110456E+01  0.50741060385E+02 -0.46120379798E+02  0.68599981365E+02  0.00000000000E+00 0.  1.
         11    1    4    4    0    0 -0.23272240105E+02 -0.20659571860E+02  0.17422587633E+02  0.35664571059E+02  0.00000000000E+00 0. -1.
</event>
<event>
 8    1  0.6648599E-009  0.9345144E+02  0.7561462E-02  0.1294702E+00
          2   -1    0    0  501    0  0.00000000000E+00  0.00000000000E+00  0.52314511947E+02  0.52314511947E+02  0.00000000000E+00 0. -1.
         -2   -1    0    0    0  501 -0.00000000000E+00 -0.00000000000E+00 -0.28480617741E+03  0.28480617741E+03  0.00000000000E+00 0.  1.
         25    2    1    2    0    0 -0.51624556158E+02  0.12357003152E+02 -0.10672555120E+03  0.17278727088E+03  0.12508919767E+03 0.  0.
         23    2    1    2    0    0  0.51624556158E+02 -0.12357003152E+02 -0.12576611427E+03  0.16433341848E+03  0.91490800659E+02 0.  0.
          5    1    3    3  502    0 -0.77983857246E+02  0.34505650349E+02 -0.10849423323E+03  0.13806010626E+03  0.41800000000E+01 0. -1.
         -5    1    3    3    0  502  0.26359301088E+02 -0.22148647198E+02  0.17686820297E+01  0.34727164622E+02  0.41800000000E+01 0. -1.
        -11    1    4    4    0    0  0.39902957944E+02  0.10406401524E+02 -0.13173858134E+03  0.13804199744E+03  0.00000000000E+00 0.  1.
         11    1    4    4    0    0  0.11721598214E+02 -0.22763404676E+02  0.59724670694E+01  0.26291421035E+02  0.00000000000E+00 0. -1.
</event>
<event>
 8    1  0.6648599E-009  0.7739612E+02  0.7561462E-02  0.1336608E+00
          1   -1    0    0  501    0  0.00000000000E+00  0.00000000000E+00  0.68719159164E+02  0.68719159164E+02  0.00000000000E+00 0. -1.
         -1   -1    0    0    0  501 -0.00000000000E+00 -0.00000000000E+00 -0.21511116492E+03  0.21511116492E+03  0.00000000000E+00 0.  1.
         25    2    1    2    0    0  0.56066674509E+02  0.12189090850E+01 -0.69233824133E+02  0.15357651353E+03  0.12508982922E+03 0.  0.
         23    2    1    2    0    0 -0.56066674509E+02 -0.12189090850E+01 -0.77158181625E+02  0.13025381055E+03  0.88700126504E+02 0.  0.
          5    1    3    3  502    0  0.35004864495E+02  0.20273447317E+02  0.29831417821E+02  0.50435494383E+02  0.41800000000E+01 0.  1.
         -5    1    3    3    0  502  0.21061810014E+02 -0.19054538232E+02 -0.99065241954E+02  0.10314101915E+03  0.41800000000E+01 0.  1.
        -11    1    4    4    0    0 -0.20394582294E+01  0.25195788643E+02 -0.63833682509E+02  0.68656581461E+02  0.00000000000E+00 0.  1.
         11    1    4    4    0    0 -0.54027216280E+02 -0.26414697728E+02 -0.13324499116E+02  0.61597229091E+02  0.00000000000E+00 0. -1.
</event>
<event>
 8    1  0.6648599E-009  0.9080903E+02  0.7561462E-02  0.1300904E+00
         -1   -1    0    0    0  501 -0.00000000000E+00  0.00000000000E+00  0.71870940627E+03  0.71870940627E+03  0.00000000000E+00 0.  1.
          1   -1    0    0  501    0  0.00000000000E+00 -0.00000000000E+00 -0.25893308020E+02  0.25893308020E+02  0.00000000000E+00 0. -1.
         25    2    1    2    0    0 -0.13154191588E+02  0.64724794591E+02  0.24480331267E+03  0.28273467776E+03  0.12509158374E+03 0.  0.
         23    2    1    2    0    0  0.13154191588E+02 -0.64724794591E+02  0.44801278557E+03  0.46186803653E+03  0.90798102041E+02 0.  0.
          5    1    3    3  502    0  0.10584240330E+02  0.81567802656E+01  0.21308908664E+03  0.21354856696E+03  0.41800000000E+01 0.  1.
         -5    1    3    3    0  502 -0.23738431917E+02  0.56568014325E+02  0.31714226037E+02  0.69186110800E+02  0.41800000000E+01 0. -1.
        -11    1    4    4    0    0  0.24392949896E+02 -0.81981726215E+02  0.40796911956E+03  0.41683908400E+03  0.00000000000E+00 0.  1.
         11    1    4    4    0    0 -0.11238758308E+02  0.17256931624E+02  0.40043666017E+02  0.45028952525E+02  0.00000000000E+00 0. -1.
</event>
<event>
 7    1  0.6648599E-009  0.1116992E+03  0.7561462E-02  0.1257455E+00
         -1   -1    0    0    0  501 -0.00000000000E+00  0.00000000000E+00  0.22687023411E+03  0.22687023411E+03  0.00000000000E+00 0.  1.
          1   -1    0    0  501    0  0.00000000000E+00 -0.00000000000E+00 -0.67376885893E+02  0.67376885893E+02  0.00000000000E+00 0. -1.
         23    2    1    2    0    0  0.13947600729E+02 -0.29889809619E+02  0.12501490899E+03  0.16030829214E+03  0.94773861235E+02 0.  0.
          5    1    1    2  502    0 -0.42191020817E+01  0.78049335999E+02  0.10074714713E+02  0.78920668704E+02  0.41800000000E+01 0.  1.
         -5    1    1    2    0  502 -0.97284986471E+01 -0.48159526379E+02  0.24403724507E+02  0.55018159155E+02  0.41800000000E+01 0.  1.
        -11    1    3    3    0    0  0.24543310065E+01 -0.61824700952E+02  0.10200501267E+03  0.11930356239E+03  0.00000000000E+00 0.  1.
         11    1    3    3    0    0  0.11493269722E+02  0.31934891332E+02  0.23009896319E+02  0.41004729751E+02  0.00000000000E+00 0. -1.
</event>
<event>
 8    1  0.6648599E-009  0.8341240E+02  0.7561462E-02  0.1319637E+00
         -2   -1    0    0    0  501 -0.00000000000E+00  0.00000000000E+00  0.27294761243E+02  0.27294761243E+02  0.00000000000E+00 0.  1.
          2   -1    0    0  501    0  0.00000000000E+00 -0.00000000000E+00 -0.55585033301E+03  0.55585033301E+03  0.00000000000E+00 0. -1.
         25    2    1    2    0    0 -0.99222117197E+01 -0.10086880966E+02 -0.16081398183E+03  0.20422612826E+03  0.12508788614E+03 0.  0.
         23    2    1    2    0    0  0.99222117197E+01  0.10086880966E+02 -0.36774158994E+03  0.37891896599E+03  0.90252481222E+02 0.  0.
          5    1    3    3  502    0 -0.41202629692E+02  0.51472711869E+01 -0.22038208654E+01  0.41790911938E+02  0.41800000000E+01 0.  1.
         -5    1    3    3    0  502  0.31280417972E+02 -0.15234152153E+02 -0.15861016097E+03  0.16243521632E+03  0.41800000000E+01 0.  1.
        -11    1    4    4    0    0  0.47175237830E+02 -0.92542484346E+01 -0.22782077074E+03  0.23283781428E+03  0.00000000000E+00 0. -1.
         11    1    4    4    0    0 -0.37253026110E+02  0.19341129401E+02 -0.13992081920E+03  0.14608115171E+03  0.00000000000E+00 0.  1.
</event>
<event>
 8    1  0.6648599E-009  0.3013521E+03  0.7561462E-02  0.1084567E+00
         -1   -1    0    0    0  501 -0.00000000000E+00  0.00000000000E+00  0.73538583447E+02  0.73538583447E+02  0.00000000000E+00 0.  1.
          1   -1    0    0  501    0  0.00000000000E+00 -0.00000000000E+00 -0.13069712784E+04  0.13069712784E+04  0.00000000000E+00 0. -1.
         25    2    1    2    0    0 -0.52486052999E+02  0.27722467482E+03 -0.78340181375E+03  0.84200648503E+03  0.12509281734E+03 0.  0.
         23    2    1    2    0    0  0.52486052999E+02 -0.27722467482E+03 -0.45003088120E+03  0.53850337682E+03  0.88599022135E+02 0.  0.
          5    1    3    3  502    0 -0.87553489341E+02  0.13791457639E+03 -0.37509685682E+03  0.40914687861E+03  0.41800000000E+01 0. -1.
         -5    1    3    3    0  502  0.35067436342E+02  0.13931009843E+03 -0.40830495693E+03  0.43285960642E+03  0.41800000000E+01 0. -1.
        -11    1    4    4    0    0  0.75365770921E+02 -0.17031732452E+03 -0.27501810941E+03  0.33214898910E+03  0.00000000000E+00 0.  1.
         11    1    4    4    0    0 -0.22879717922E+02 -0.10690735030E+03 -0.17501277179E+03  0.20635438772E+03  0.00000000000E+00 0. -1.
</event>
<event>
 8    1  0.6648599E-009  0.1044243E+03  0.7561462E-02  0.1271258E+00
          2   -1    0    0  501    0  0.00000000000E+00  0.00000000000E+00  0.11055854853E+04  0.11055854853E+04  0.00000000000E+00 0.  1.
         -2   -1    0    0    0  501 -0.00000000000E+00 -0.00000000000E+00 -0.17854913122E+02  0.17854913122E+02  0.00000000000E+00 0. -1.
         25    2    1    2    0    0 -0.99668297095E+01 -0.57511681115E+02  0.88193362491E+03  0.89267098399E+03  0.12509051029E+03 0.  0.
         23    2    1    2    0    0  0.99668297095E+01  0.57511681115E+02  0.20579694731E+03  0.23076941446E+03  0.86574869171E+02 0.  0.
          5    1    3    3  502    0  0.39209158054E+02  0.29525826600E+01  0.56066363065E+03  0.56205627383E+03  0.41800000000E+01 0. -1.
         -5    1    3    3    0  502 -0.49175987763E+02 -0.60464263775E+02  0.32126999426E+03  0.33061471016E+03  0.41800000000E+01 0. -1.
        -11    1    4    4    0    0  0.33231377873E+02  0.59245077494E+02  0.19200849863E+03  0.20367024139E+03  0.00000000000E+00 0.  1.
         11    1    4    4    0    0 -0.23264548163E+02 -0.17333963795E+01  0.13788448676E+02  0.27099173071E+02  0.00000000000E+00 0. -1.
</event>
<event>
 8    1  0.6648599E-009  0.1116350E+03  0.7561462E-02  0.1257572E+00
         -2   -1    0    0    0  501 -0.00000000000E+00  0.00000000000E+00  0.12563959273E+03  0.12563959273E+03  0.00000000000E+00 0.  1.
          2   -1    0    0  501    0  0.00000000000E+00 -0.00000000000E+00 -0.14977838897E+03  0.14977838897E+03  0.00000000000E+00 0. -1.
         25    2    1    2    0    0  0.83419812662E+02 -0.10562619692E+02 -0.60356933090E+01  0.15084620762E+03  0.12509082573E+03 0.  0.
         23    2    1    2    0    0 -0.83419812662E+02  0.10562619692E+02 -0.18103102929E+02  0.12457177408E+03  0.90110878820E+02 0.  0.
          5    1    3    3  502    0  0.51043047498E+02  0.32932589839E+02  0.45431567823E+02  0.75970046243E+02  0.41800000000E+01 0.  1.
         -5    1    3    3    0  502  0.32376765164E+02 -0.43495209531E+02 -0.51467261132E+02  0.74876161381E+02  0.41800000000E+01 0.  1.
        -11    1    4    4    0    0 -0.83329013674E+02 -0.13084959978E+02 -0.39077739423E+02  0.92962413996E+02  0.00000000000E+00 0. -1.
         11    1    4    4    0    0 -0.90798987645E-01  0.23647579670E+02  0.20974636493E+02  0.31609360081E+02  0.00000000000E+00 0.  1.
</event>
<event>
 8    1  0.6648599E-009  0.9341344E+02  0.7561462E-02  0.1294790E+00
         -2   -1    0    0    0  501 -0.00000000000E+00  0.00000000000E+00  0.14155955029E+03  0.14155955029E+03  0.00000000000E+00 0.  1.
          2   -1    0    0  501    0  0.00000000000E+00 -0.00000000000E+00 -0.98845035438E+02  0.98845035438E+02  0.00000000000E+00 0. -1.
         25    2    1    2    0    0  0.33703861523E+02 -0.21543818341E+02  0.68660423607E+01  0.13148918731E+03  0.12506869093E+03 0.  0.
         23    2    1    2    0    0 -0.33703861523E+02  0.21543818341E+02  0.35848472495E+02  0.10891539842E+03  0.94748955896E+02 0.  0.
          5    1    3    3  502    0 -0.26308781535E+02  0.23191393388E+02 -0.31454014372E+02  0.47295032860E+02  0.41800000000E+01 0.  1.
         -5    1    3    3    0  502  0.60012643058E+02 -0.44735211729E+02  0.38320056732E+02  0.84194154448E+02  0.41800000000E+01 0.  1.
        -11    1    4    4    0    0 -0.38598697409E+02  0.41097957010E+02 -0.11421470515E+02  0.57526963250E+02  0.00000000000E+00 0. -1.
         11    1    4    4    0    0  0.48948358858E+01 -0.19554138669E+02  0.47269943010E+02  0.51388435174E+02  0.00000000000E+00 0.  1.
</event>
<event>
 8    1  0.6648599E-009  0.1541458E+03  0.7561462E-02  0.1195469E+00
         -2   -1    0    0    0  501 -0.00000000000E+00  0.00000000000E+00  0.14796776195E+03  0.14796776195E+03  0.00000000000E+00 0.  1.
          2   -1    0    0  501    0  0.00000000000E+00 -0.00000000000E+00 -0.26960323484E+03  0.26960323484E+03  0.00000000000E+00 0. -1.
         25    2    1    2    0    0  0.40914717819E+02 -0.13677858294E+03 -0.15530907105E+03  0.24525606753E+03  0.12508891328E+03 0.  0.
         23    2    1    2    0    0 -0.40914717819E+02  0.13677858294E+03  0.33673598161E+02  0.17231492925E+03  0.90421948349E+02 0.  0.
          5    1    3    3  502    0 -0.20516577312E+02 -0.76665184020E+02 -0.15323633926E+02  0.80936805856E+02  0.41800000000E+01 0.  1.
         -5    1    3    3    0  502  0.61431295131E+02 -0.60113398924E+02 -0.13998543712E+03  0.16431926168E+03  0.41800000000E+01 0.  1.
        -11    1    4    4    0    0 -0.24458253470E+02  0.81598847104E+02  0.64640799679E+02  0.10693461084E+03  0.00000000000E+00 0.  1.
         11    1    4    4    0    0 -0.16456464349E+02  0.55179735841E+02 -0.30967201517E+02  0.65380318416E+02  0.00000000000E+00 0. -1.
</event>
<event>
 8    1  0.6648599E-009  0.1244326E+03  0.7561462E-02  0.1235959E+00
          3   -1    0    0  501    0  0.00000000000E+00  0.00000000000E+00  0.28096913541E+03  0.28096913541E+03  0.00000000000E+00 0. -1.
         -3   -1    0    0    0  501 -0.00000000000E+00 -0.00000000000E+00 -0.65655382740E+02  0.65655382740E+02  0.00000000000E+00 0.  1.
         25    2    1    2    0    0 -0.76152483820E+02  0.19036424723E+02  0.14650599407E+03  0.20802141420E+03  0.12508923298E+03 0.  0.
         23    2    1    2    0    0  0.76152483820E+02 -0.19036424723E+02  0.68807758602E+02  0.13860310396E+03  0.91185122276E+02 0.  0.
          5    1    3    3  502    0  0.18979678756E+02  0.34881294764E+02  0.84030547132E+02  0.93035144872E+02  0.41800000000E+01 0. -1.
         -5    1    3    3    0  502 -0.95132162575E+02 -0.15844870041E+02  0.62475446939E+02  0.11498626932E+03  0.41800000000E+01 0. -1.
        -11    1    4    4    0    0  0.31930800931E+02 -0.49356234846E+02  0.11085752991E+02  0.59820630936E+02  0.00000000000E+00 0.  1.
         11    1    4    4    0    0  0.44221682889E+02  0.30319810123E+02  0.57722005612E+02  0.78782473021E+02  0.00000000000E+00 0. -1.
</event>
<event>
 8    1  0.6648599E-009  0.5699166E+02  0.7561462E-02  0.1410908E+00
         -1   -1    0    0    0  501 -0.00000000000E+00  0.00000000000E+00  0.43527042845E+02  0.43527042845E+02  0.00000000000E+00 0.  1.
          1   -1    0    0  501    0  0.00000000000E+00 -0.00000000000E+00 -0.26962078887E+03  0.26962078887E+03  0.00000000000E+00 0. -1.
         25    2    1    2    0    0  0.29841273703E+01  0.11234098133E+02 -0.11881802051E+03  0.17291783170E+03  0.12509094509E+03 0.  0.
         23    2    1    2    0    0 -0.29841273703E+01 -0.11234098133E+02 -0.10727572551E+03  0.14023000002E+03  0.89561496432E+02 0.  0.
          5    1    3    3  502    0  0.82117909104E+01 -0.51185971623E+01 -0.14276724287E+03  0.14315582973E+03  0.41800000000E+01 0.  1.
         -5    1    3    3    0  502 -0.52276635401E+01  0.16352695295E+02  0.23949222363E+02  0.29762001971E+02  0.41800000000E+01 0.  1.
        -11    1    4    4    0    0 -0.41667687373E+02  0.82238782929E+01 -0.75118413494E+02  0.86293710031E+02  0.00000000000E+00 0.  1.
         11    1    4    4    0    0  0.38683560002E+02 -0.19457976426E+02 -0.32157312020E+02  0.53936289985E+02  0.00000000000E+00 0. -1.
</event>
<event>
 8    1  0.6648599E-009  0.1436492E+03  0.7561462E-02  0.1208501E+00
          2   -1    0    0  501    0  0.00000000000E+00  0.00000000000E+00  0.89447969583E+03  0.89447969583E+03  0.00000000000E+00 0. -1.
         -2   -1    0    0    0  501 -0.00000000000E+00 -0.00000000000E+00 -0.49271762035E+02  0.49271762035E+02  0.00000000000E+00 0.  1.
         25    2    1    2    0    0  0.38134355378E+02 -0.10320915664E+03  0.75579955019E+03  0.77394208043E+03  0.12508806781E+03 0.  0.
         23    2    1    2    0    0 -0.38134355378E+02  0.10320915664E+03  0.89408383603E+02  0.16980937744E+03  0.93461256857E+02 0.  0.
          5    1    3    3  502    0 -0.16037723116E+02  0.13027252186E+02  0.28710050463E+02  0.35618215282E+02  0.41800000000E+01 0.  1.
         -5    1    3    3    0  502  0.54172078494E+02 -0.11623640883E+03  0.72708949973E+03  0.73832386515E+03  0.41800000000E+01 0.  1.
        -11    1    4    4    0    0 -0.57724554521E+02  0.36295352079E+02  0.19145318379E+02  0.70823865985E+02  0.00000000000E+00 0.  1.
         11    1    4    4    0    0  0.19590199142E+02  0.66913804562E+02  0.70263065224E+02  0.98985511455E+02  0.00000000000E+00 0. -1.
</event>
<event>
 8    1  0.6648599E-009  0.2104300E+03  0.7561462E-02  0.1141226E+00
          1   -1    0    0  501    0  0.00000000000E+00  0.00000000000E+00  0.10823225878E+03  0.10823225878E+03  0.00000000000E+00 0. -1.
         -1   -1    0    0    0  501 -0.00000000000E+00 -0.00000000000E+00 -0.61532777437E+03  0.61532777437E+03  0.00000000000E+00 0.  1.
         25    2    1    2    0    0  0.35124328947E+02  0.20364448437E+03 -0.41395126142E+03  0.47927854120E+03  0.12508988258E+03 0.  0.
         23    2    1    2    0    0 -0.35124328947E+02 -0.20364448437E+03 -0.93144254170E+02  0.24428149195E+03  0.91064816076E+02 0.  0.
          5    1    3    3  502    0 -0.15859085104E+00  0.55605368888E+02 -0.24749932861E+03  0.25370331544E+03  0.41800000000E+01 0.  1.
         -5    1    3    3    0  502  0.35282919798E+02  0.14803911548E+03 -0.16645193281E+03  0.22557522576E+03  0.41800000000E+01 0.  1.
        -11    1    4    4    0    0 -0.43134441061E+02 -0.10006682694E+03 -0.88349565814E+02  0.14028398212E+03  0.00000000000E+00 0.  1.
         11    1    4    4    0    0  0.80101121137E+01 -0.10357765744E+03 -0.47946883557E+01  0.10399750984E+03  0.00000000000E+00 0. -1.
</event>
<event>
 8    1  0.6648599E-009  0.1015604E+03  0.7561462E-02  0.1277048E+00
          1   -1    0    0  501    0  0.00000000000E+00  0.00000000000E+00  0.85208030679E+02  0.85208030679E+02  0.00000000000E+00 0. -1.
         -1   -1    0    0    0  501 -0.00000000000E+00 -0.00000000000E+00 -0.14739093808E+03  0.14739093808E+03  0.00000000000E+00 0.  1.
         25    2    1    2    0    0  0.18736716173E+02  0.15176262918E+02 -0.64283907980E+02  0.14268114576E+03  0.12507639682E+03 0.  0.
         23    2    1    2    0    0 -0.18736716173E+02 -0.15176262918E+02  0.21010005777E+01  0.89917822996E+02  0.86599175515E+02 0.  0.
          5    1    3    3  502    0 -0.44458984222E+02  0.32076156332E+02 -0.52615563440E+02  0.76100926402E+02  0.41800000000E+01 0.  1.
         -5    1    3    3    0  502  0.63195700395E+02 -0.16899893414E+02 -0.11668344540E+02  0.66580219361E+02  0.41800000000E+01 0.  1.
        -11    1    4    4    0    0  0.18443992215E+02 -0.35654432252E+02  0.18771262886E+02  0.44314554024E+02  0.00000000000E+00 0. -1.
         11    1    4    4    0    0 -0.37180708389E+02  0.20478169333E+02 -0.16670262308E+02  0.45603268972E+02  0.00000000000E+00 0.  1.
</event>
<event>
 8    1  0.6648599E-009  0.1095389E+03  0.7561462E-02  0.1261426E+00
          1   -1    0    0  501    0  0.00000000000E+00  0.00000000000E+00  0.26182748192E+03  0.26182748192E+03  0.00000000000E+00 0. -1.
         -1   -1    0    0    0  501 -0.00000000000E+00 -0.00000000000E+00 -0.66001946916E+02  0.66001946916E+02  0.00000000000E+00 0.  1.
         25    2    1    2    0    0 -0.69247181118E+02 -0.18854613023E+02  0.84812792204E+02  0.16730535114E+03  0.12508877757E+03 0.  0.
         23    2    1    2    0    0  0.69247181118E+02  0.18854613023E+02  0.11101274280E+03  0.16052407769E+03  0.91068556210E+02 0.  0.
          5    1    3    3  502    0 -0.10525167676E+02 -0.41162366980E+02 -0.18335476120E+02  0.46462691426E+02  0.41800000000E+01 0.  1.
         -5    1    3    3    0  502 -0.58722013442E+02  0.22307753956E+02  0.10314826832E+03  0.12084265972E+03  0.41800000000E+01 0.  1.
        -11    1    4    4    0    0  0.11860396899E+02  0.47735045022E+02  0.31958582518E+02  0.58657092789E+02  0.00000000000E+00 0.  1.
         11    1    4    4    0    0  0.57386784219E+02 -0.28880431999E+02  0.79054160284E+02  0.10186698490E+03  0.00000000000E+00 0. -1.
</event>
<event>
 8    1  0.6648599E-009  0.1332727E+03  0.7561462E-02  0.1222679E+00
         -1   -1    0    0    0  501 -0.00000000000E+00  0.00000000000E+00  0.36812114007E+02  0.36812114007E+02  0.00000000000E+00 0.  1.
          1   -1    0    0  501    0  0.00000000000E+00 -0.00000000000E+00 -0.57817371107E+03  0.57817371107E+03  0.00000000000E+00 0. -1.
         25    2    1    2    0    0  0.69837187699E+02 -0.46782707337E+02 -0.18958056856E+03  0.24218784748E+03  0.12509319327E+03 0.  0.
         23    2    1    2    0    0 -0.69837187699E+02  0.46782707337E+02 -0.35178102850E+03  0.37279797759E+03  0.90347028682E+02 0.  0.
          5    1    3    3  502    0  0.18437375373E+02 -0.84449786252E+02 -0.11671407594E+03  0.14529745741E+03  0.41800000000E+01 0. -1.
         -5    1    3    3    0  502  0.51399812326E+02  0.37667078914E+02 -0.72866492622E+02  0.96890390071E+02  0.41800000000E+01 0. -1.
        -11    1    4    4    0    0  0.80665452671E+01  0.36717552708E+02 -0.18036288335E+03  0.18423902279E+03  0.00000000000E+00 0. -1.
         11    1    4    4    0    0 -0.77903732966E+02  0.10065154630E+02 -0.17141814515E+03  0.18855895480E+03  0.00000000000E+00 0.  1.
</event>
<event>
 8    1  0.6648599E-009  0.1641622E+03  0.7561462E-02  0.1184076E+00
         -1   -1    0    0    0  501 -0.00000000000E+00  0.00000000000E+00  0.25299924132E+02  0.25299924132E+02  0.00000000000E+00 0.  1.
          1   -1    0    0  501    0  0.00000000000E+00 -0.00000000000E+00 -0.12109315662E+04  0.12109315662E+04  0.00000000000E+00 0. -1.
         25    2    1    2    0    0  0.45992001563E+02 -0.12878582762E+03 -0.59827866888E+03  0.62632658184E+03  0.12508624175E+03 0.  0.
         23    2    1    2    0    0 -0.45992001563E+02  0.12878582762E+03 -0.58735297315E+03  0.60990490846E+03  0.91101200254E+02 0.  0.
          5    1    3    3  502    0 -0.26563349548E+02 -0.10144699937E+03 -0.39555689945E+03  0.40924300644E+03  0.41800000000E+01 0. -1.
         -5    1    3    3    0  502  0.72555351111E+02 -0.27338828244E+02 -0.20272176944E+03  0.21708357540E+03  0.41800000000E+01 0. -1.
        -11    1    4    4    0    0  0.11018709473E+02  0.17335094234E+02 -0.19176454613E+02  0.28100780453E+02  0.00000000000E+00 0.  1.
         11    1    4    4    0    0 -0.57010711036E+02  0.11145073338E+03 -0.56817651854E+03  0.58180412800E+03  0.00000000000E+00 0. -1.
</event>
<event>
 8    1  0.6648599E-009  0.1697510E+03  0.7561462E-02  0.1178108E+00
         -1   -1    0    0    0  501 -0.00000000000E+00  0.00000000000E+00  0.76537877343E+02  0.76537877343E+02  0.00000000000E+00 0.  1.
          1   -1    0    0  501    0  0.00000000000E+00 -0.00000000000E+00 -0.52634461100E+03  0.52634461100E+03  0.00000000000E+00 0. -1.
         25    2    1    2    0    0  0.10249217757E+03 -0.11953668855E+03 -0.14432501278E+03  0.24752920746E+03  0.12508929954E+03 0.  0.
         23    2    1    2    0    0 -0.10249217757E+03  0.11953668855E+03 -0.30548172088E+03  0.35535328088E+03  0.90350462483E+02 0.  0.
          5    1    3    3  502    0  0.79615625713E+00 -0.45090396631E+02  0.11834616790E+02  0.46811411939E+02  0.41800000000E+01 0.  1.
         -5    1    3    3    0  502  0.10169602131E+03 -0.74446291920E+02 -0.15615962957E+03  0.20071779553E+03  0.41800000000E+01 0.  1.
        -11    1    4    4    0    0 -0.70841776877E+02  0.37449180357E+02 -0.79619448498E+02  0.11296129886E+03  0.00000000000E+00 0.  1.
         11    1    4    4    0    0 -0.31650400694E+02  0.82087508193E+02 -0.22586227238E+03  0.24239198202E+03  0.00000000000E+00 0. -1.
</event>
<event>
 8    1  0.6648599E-009  0.1221280E+03  0.7561462E-02  0.1239627E+00
         -2   -1    0    0    0  501 -0.00000000000E+00  0.00000000000E+00  0.58157941417E+02  0.58157941417E+02  0.00000000000E+00 0.  1.
          2   -1    0    0  501    0  0.00000000000E+00 -0.00000000000E+00 -0.30529635137E+03  0.30529635137E+03  0.00000000000E+00 0. -1.
         25    2    1    2    0    0 -0.27406486405E+02  0.65638051047E+02 -0.17174629279E+03  0.22406573704E+03  0.12509674730E+03 0.  0.
         23    2    1    2    0    0  0.27406486405E+02 -0.65638051047E+02 -0.75392117159E+02  0.13938855574E+03  0.93197258007E+02 0.  0.
          5    1    3    3  502    0 -0.46525373410E+02  0.93088580006E+02 -0.15415052861E+03  0.18603750151E+03  0.41800000000E+01 0. -1.
         -5    1    3    3    0  502  0.19118887006E+02 -0.27450528959E+02 -0.17595764186E+02  0.38028235533E+02  0.41800000000E+01 0. -1.
        -11    1    4    4    0    0  0.20178454964E+02  0.15180199759E+02  0.43499693784E+01  0.25622855872E+02  0.00000000000E+00 0.  1.
         11    1    4    4    0    0  0.72280314409E+01 -0.80818250806E+02 -0.79742086537E+02  0.11376569987E+03  0.00000000000E+00 0. -1.
</event>
<event>
 8    1  0.6648599E-009  0.1234665E+03  0.7561462E-02  0.1237486E+00
         -1   -1    0    0    0  501 -0.00000000000E+00  0.00000000000E+00  0.41629110863E+02  0.41629110863E+02  0.00000000000E+00 0.  1.
          1   -1    0    0  501    0  0.00000000000E+00 -0.00000000000E+00 -0.54057515391E+03  0.54057515391E+03  0.00000000000E+00 0. -1.
         25    2    1    2    0    0 -0.90067057869E+02 -0.16873592475E+02 -0.36150191462E+03  0.39335445591E+03  0.12508917089E+03 0.  0.
         23    2    1    2    0    0  0.90067057869E+02  0.16873592475E+02 -0.13744412843E+03  0.18884980887E+03  0.91523597137E+02 0.  0.
          5    1    3    3  502    0  0.27522398828E+02 -0.19719860500E+02 -0.11909267218E+03  0.12388257466E+03  0.41800000000E+01 0.  1.
         -5    1    3    3    0  502 -0.11758945670E+03  0.28462680255E+01 -0.24240924243E+03  0.26947188125E+03  0.41800000000E+01 0.  1.
        -11    1    4    4    0    0  0.18870094980E+02  0.14647966962E+02  0.93761389619E+01  0.25662334315E+02  0.00000000000E+00 0.  1.
         11    1    4    4    0    0  0.71196962889E+02  0.22256255129E+01 -0.14682026739E+03  0.16318747455E+03  0.00000000000E+00 0. -1.
</event>
<event>
 8    1  0.6648599E-009  0.4440232E+03  0.7561462E-02  0.1029520E+00
         -2   -1    0    0    0  501 -0.00000000000E+00  0.00000000000E+00  0.42385924080E+03  0.42385924080E+03  0.00000000000E+00 0. -1.
          2   -1    0    0  501    0  0.00000000000E+00 -0.00000000000E+00 -0.73565349820E+03  0.73565349820E+03  0.00000000000E+00 0.  1.
         25    2    1    2    0    0  0.43056985082E+03  0.95058265218E+02 -0.49403362839E+03  0.67390175920E+03  0.12509150590E+03 0.  0.
         23    2    1    2    0    0 -0.43056985082E+03 -0.95058265218E+02  0.18223937100E+03  0.48561097981E+03  0.90445371072E+02 0.  0.
          5    1    3    3  502    0  0.27604312366E+03  0.65634981024E+02 -0.22466626994E+03  0.36193944535E+03  0.41800000000E+01 0. -1.
         -5    1    3    3    0  502  0.15452672715E+03  0.29423284194E+02 -0.26936735845E+03  0.31196231384E+03  0.41800000000E+01 0. -1.
        -11    1    4    4    0    0 -0.28205534169E+03 -0.26360114525E+02  0.14303237720E+03  0.31734576150E+03  0.00000000000E+00 0.  1.
         11    1    4    4    0    0 -0.14851450913E+03 -0.68698150693E+02  0.39206993802E+02  0.16826521831E+03  0.00000000000E+00 0. -1.
</event>
<event>
 8    1  0.6648599E-009  0.9744549E+02  0.7561462E-02  0.1285761E+00
          2   -1    0    0  501    0  0.00000000000E+00  0.00000000000E+00  0.33372350481E+03  0.33372350481E+03  0.00000000000E+00 0. -1.
         -2   -1    0    0    0  501 -0.00000000000E+00 -0.00000000000E+00 -0.56955757125E+02  0.56955757125E+02  0.00000000000E+00 0.  1.
         25    2    1    2    0    0 -0.66508895456E+02  0.25351578226E+02  0.87412616081E+02  0.16839181736E+03  0.12509477611E+03 0.  0.
         23    2    1    2    0    0  0.66508895456E+02 -0.25351578226E+02  0.18935513160E+03  0.22228744457E+03  0.92142316321E+02 0.  0.
          5    1    3    3  502    0 -0.69990710170E+02  0.21476353592E+02  0.11698833058E+03  0.13807126843E+03  0.41800000000E+01 0. -1.
         -5    1    3    3    0  502  0.34818147142E+01  0.38752246343E+01 -0.29575714496E+02  0.30320548934E+02  0.41800000000E+01 0. -1.
        -11    1    4    4    0    0 -0.20616368533E+02 -0.18134657376E+02  0.62062161067E+02  0.67864661539E+02  0.00000000000E+00 0.  1.
         11    1    4    4    0    0  0.87125263989E+02 -0.72169208505E+01  0.12729297053E+03  0.15442278303E+03  0.00000000000E+00 0. -1.
</event>
<event>
 8    1  0.6648599E-009  0.1484052E+03  0.7561462E-02  0.1202447E+00
          1   -1    0    0  501    0  0.00000000000E+00  0.00000000000E+00  0.93123000478E+03  0.93123000478E+03  0.00000000000E+00 0. -1.
         -1   -1    0    0    0  501 -0.00000000000E+00 -0.00000000000E+00 -0.40375455143E+02  0.40375455143E+02  0.00000000000E+00 0.  1.
         25    2    1    2    0    0 -0.31763683955E+02 -0.12052978997E+03  0.72469595328E+03  0.74590085165E+03  0.12508994328E+03 0.  0.
         23    2    1    2    0    0  0.31763683955E+02  0.12052978997E+03  0.16615859636E+03  0.22570460827E+03  0.88303619180E+02 0.  0.
          5    1    3    3  502    0 -0.31760672960E+01 -0.13814508074E+03  0.63863289694E+03  0.65342451759E+03  0.41800000000E+01 0. -1.
         -5    1    3    3    0  502 -0.28587616659E+02  0.17615290768E+02  0.86063056339E+02  0.92476334061E+02  0.41800000000E+01 0. -1.
        -11    1    4    4    0    0  0.85441671069E+01  0.40812982811E+02  0.12744531504E+03  0.13409329097E+03  0.00000000000E+00 0. -1.
         11    1    4    4    0    0  0.23219516848E+02  0.79716807163E+02  0.38713281319E+02  0.91611317300E+02  0.00000000000E+00 0.  1.
</event>
<event>
 8    1  0.6648599E-009  0.8366394E+02  0.7561462E-02  0.1318964E+00
         -2   -1    0    0    0  501 -0.00000000000E+00  0.00000000000E+00  0.10604253428E+03  0.10604253428E+03  0.00000000000E+00 0.  1.
          2   -1    0    0  501    0  0.00000000000E+00 -0.00000000000E+00 -0.15211757549E+03  0.15211757549E+03  0.00000000000E+00 0. -1.
         25    2    1    2    0    0 -0.39942917016E+02  0.50927920834E+02 -0.40792417590E+02  0.14663338340E+03  0.12509291768E+03 0.  0.
         23    2    1    2    0    0  0.39942917016E+02 -0.50927920834E+02 -0.52826236152E+01  0.11152672638E+03  0.90670915091E+02 0.  0.
          5    1    3    3  502    0 -0.49401829962E+02  0.12325303520E+02  0.34324282985E+02  0.61547402162E+02  0.41800000000E+01 0. -1.
         -5    1    3    3    0  502  0.94589129455E+01  0.38602617314E+02 -0.75116700576E+02  0.85085981236E+02  0.41800000000E+01 0. -1.
        -11    1    4    4    0    0  0.17733676074E+02 -0.51075886538E+02 -0.42103002054E+02  0.68526580498E+02  0.00000000000E+00 0.  1.
         11    1    4    4    0    0  0.22209240942E+02  0.14796570386E+00  0.36820378439E+02  0.43000145878E+02  0.00000000000E+00 0. -1.
</event>
<event>
 8    1  0.6648599E-009  0.9155416E+02  0.7561462E-02  0.1299131E+00
          2   -1    0    0  501    0  0.00000000000E+00  0.00000000000E+00  0.14217234526E+04  0.14217234526E+04  0.00000000000E+00 0. -1.
         -2   -1    0    0    0  501 -0.00000000000E+00 -0.00000000000E+00 -0.13392623156E+02  0.13392623156E+02  0.00000000000E+00 0.  1.
         25    2    1    2    0    0  0.56187854491E+01  0.58593390491E+02  0.10971819990E+04  0.11058573490E+04  0.12508949290E+03 0.  0.
         23    2    1    2    0    0 -0.56187854491E+01 -0.58593390491E+02  0.31114883048E+03  0.32925872680E+03  0.90182915815E+02 0.  0.
          5    1    3    3  502    0 -0.20178618754E+02  0.14667599673E+02  0.39267995983E+02  0.46709346426E+02  0.41800000000E+01 0. -1.
         -5    1    3    3    0  502  0.25797404203E+02  0.43925790817E+02  0.10579140030E+04  0.10591480026E+04  0.41800000000E+01 0. -1.
        -11    1    4    4    0    0  0.18934139244E+02  0.18088210906E+02  0.58574374177E+02  0.64161065397E+02  0.00000000000E+00 0.  1.
         11    1    4    4    0    0 -0.24552924693E+02 -0.76681601397E+02  0.25257445630E+03  0.26509766140E+03  0.00000000000E+00 0. -1.
</event>
<event>
 7    1  0.6648599E-009  0.1096655E+03  0.7561462E-02  0.1261191E+00
         -1   -1    0    0    0  501 -0.00000000000E+00  0.00000000000E+00  0.21827857827E+02  0.21827857827E+02  0.00000000000E+00 0.  1.
          1   -1    0    0  501    0  0.00000000000E+00 -0.00000000000E+00 -0.68458795557E+03  0.68458795557E+03  0.00000000000E+00 0. -1.
         23    2    1    2    0    0  0.30622652383E+02  0.10560849855E+02 -0.15490512532E+03  0.18241605454E+03  0.90723429796E+02 0.  0.
          5    1    1    2  502    0 -0.73709611317E+02  0.15795343322E+02 -0.24755739250E+03  0.25881409284E+03  0.41800000000E+01 0.  1.
         -5    1    1    2    0  502  0.43086958934E+02 -0.26356193177E+02 -0.26029757992E+03  0.26518566601E+03  0.41800000000E+01 0.  1.
        -11    1    3    3    0    0 -0.28385667849E+02 -0.10834979631E+02 -0.30379720321E+02  0.42965920561E+02  0.00000000000E+00 0.  1.
         11    1    3    3    0    0  0.59008320232E+02  0.21395829486E+02 -0.12452540500E+03  0.13945013398E+03  0.00000000000E+00 0. -1.
</event>
<event>
 8    1  0.6648599E-009  0.1064267E+03  0.7561462E-02  0.1267334E+00
          2   -1    0    0  501    0  0.00000000000E+00  0.00000000000E+00  0.26802945521E+03  0.26802945521E+03  0.00000000000E+00 0. -1.
         -2   -1    0    0    0  501 -0.00000000000E+00 -0.00000000000E+00 -0.61629738736E+02  0.61629738736E+02  0.00000000000E+00 0.  1.
         25    2    1    2    0    0 -0.38076139611E+02  0.56808450489E+02  0.11279521891E+03  0.18178813342E+03  0.12508865491E+03 0.  0.
         23    2    1    2    0    0  0.38076139611E+02 -0.56808450489E+02  0.93604497560E+02  0.14787106053E+03  0.91798998491E+02 0.  0.
          5    1    3    3  502    0  0.35075820150E+02 -0.58177545551E+01  0.64985596017E+02  0.74194066588E+02  0.41800000000E+01 0.  1.
         -5    1    3    3    0  502 -0.73151959761E+02  0.62626205044E+02  0.47809622895E+02  0.10759406683E+03  0.41800000000E+01 0.  1.
        -11    1    4    4    0    0 -0.29945245625E+01 -0.33115199908E+02 -0.93355882472E+01  0.34536022501E+02  0.00000000000E+00 0.  1.
         11    1    4    4    0    0  0.41070664173E+02 -0.23693250581E+02  0.10294008581E+03  0.11333503803E+03  0.00000000000E+00 0. -1.
</event>
<event>
 8    1  0.6648599E-009  0.1210980E+03  0.7561462E-02  0.1241297E+00
          2   -1    0    0  501    0  0.00000000000E+00  0.00000000000E+00  0.62785557949E+03  0.62785557949E+03  0.00000000000E+00 0.  1.
         -2   -1    0    0    0  501 -0.00000000000E+00 -0.00000000000E+00 -0.27815849031E+02  0.27815849031E+02  0.00000000000E+00 0. -1.
         25    2    1    2    0    0 -0.43624159028E+02  0.56810948482E+02  0.27630301945E+03  0.31164213008E+03  0.12508759958E+03 0.  0.
         23    2    1    2    0    0  0.43624159028E+02 -0.56810948482E+02  0.32373671101E+03  0.34402929844E+03  0.91761369911E+02 0.  0.
          5    1    3    3  502    0  0.36625659296E+02  0.25554594164E+02  0.16419410396E+03  0.17021061182E+03  0.41800000000E+01 0. -1.
         -5    1    3    3    0  502 -0.80249818324E+02  0.31256354317E+02  0.11210891549E+03  0.14143151826E+03  0.41800000000E+01 0. -1.
        -11    1    4    4    0    0 -0.67047547157E+01 -0.60296880353E+02  0.12436722027E+03  0.13837583963E+03  0.00000000000E+00 0. -1.
         11    1    4    4    0    0  0.50328913743E+02  0.34859318719E+01  0.19936949075E+03  0.20565345881E+03  0.00000000000E+00 0.  1.
</event>
<event>
 8    1  0.6648599E-009  0.9654857E+02  0.7561462E-02  0.1287726E+00
          2   -1    0    0  501    0  0.00000000000E+00  0.00000000000E+00  0.14505204987E+03  0.14505204987E+03  0.00000000000E+00 0. -1.
         -2   -1    0    0    0  501 -0.00000000000E+00 -0.00000000000E+00 -0.92273992198E+02  0.92273992198E+02  0.00000000000E+00 0.  1.
         25    2    1    2    0    0  0.75700915380E+01  0.12119191626E+02 -0.10827167887E+02  0.12637345058E+03  0.12509532508E+03 0.  0.
         23    2    1    2    0    0 -0.75700915380E+01 -0.12119191626E+02  0.63605225563E+02  0.11095259149E+03  0.89781243855E+02 0.  0.
          5    1    3    3  502    0  0.97226426959E+01 -0.47781203990E+02 -0.36482144240E+02  0.61040908284E+02  0.41800000000E+01 0.  1.
         -5    1    3    3    0  502 -0.21525511580E+01  0.59900395616E+02  0.25654976353E+02  0.65332542298E+02  0.41800000000E+01 0.  1.
        -11    1    4    4    0    0  0.36877072718E+02  0.33074929807E+01  0.75804831611E+01  0.37793143916E+02  0.00000000000E+00 0.  1.
         11    1    4    4    0    0 -0.44447164256E+02 -0.15426684607E+02  0.56024742402E+02  0.73159447575E+02  0.00000000000E+00 0. -1.
</event>
<event>
 8    1  0.6648599E-009  0.9403601E+02  0.7561462E-02  0.1293362E+00
         -2   -1    0    0    0  501 -0.00000000000E+00  0.00000000000E+00  0.20109180197E+02  0.20109180197E+02  0.00000000000E+00 0.  1.
          2   -1    0    0  501    0  0.00000000000E+00 -0.00000000000E+00 -0.13109606908E+04  0.13109606908E+04  0.00000000000E+00 0. -1.
         25    2    1    2    0    0 -0.25664286275E+02  0.45023374579E+02 -0.11262844055E+04  0.11343935940E+04  0.12508598728E+03 0.  0.
         23    2    1    2    0    0  0.25664286275E+02 -0.45023374579E+02 -0.16456710514E+03  0.19667627702E+03  0.94411154006E+02 0.  0.
          5    1    3    3  502    0 -0.46181178309E+02  0.32698307645E+02 -0.10850565829E+04  0.10865390656E+04  0.41800000000E+01 0. -1.
         -5    1    3    3    0  502  0.20516892033E+02  0.12325066934E+02 -0.41227822541E+02  0.47854528366E+02  0.41800000000E+01 0. -1.
        -11    1    4    4    0    0  0.94471155773E+01  0.29392634567E+02 -0.38006475353E+02  0.48965979295E+02  0.00000000000E+00 0.  1.
         11    1    4    4    0    0  0.16217170698E+02 -0.74416009146E+02 -0.12656062979E+03  0.14771029773E+03  0.00000000000E+00 0. -1.
</event>
<event>
 8    1  0.6648599E-009  0.1267788E+03  0.7561462E-02  0.1232315E+00
          2   -1    0    0  501    0  0.00000000000E+00  0.00000000000E+00  0.30171103973E+03  0.30171103973E+03  0.00000000000E+00 0. -1.
         -2   -1    0    0    0  501 -0.00000000000E+00 -0.00000000000E+00 -0.55193745923E+02  0.55193745923E+02  0.00000000000E+00 0.  1.
         25    2    1    2    0    0 -0.30878270740E+02 -0.62317049784E+02  0.12746470307E+03  0.19165303601E+03  0.12508698328E+03 0.  0.
         23    2    1    2    0    0  0.30878270740E+02  0.62317049784E+02  0.11905259074E+03  0.16525174964E+03  0.91091926650E+02 0.  0.
          5    1    3    3  502    0 -0.68090196375E+02  0.18978673694E+01  0.52714982161E+02  0.86233511393E+02  0.41800000000E+01 0. -1.
         -5    1    3    3    0  502  0.37211925635E+02 -0.64214917153E+02  0.74749720905E+02  0.10541952461E+03  0.41800000000E+01 0. -1.
        -11    1    4    4    0    0 -0.28002375264E+00  0.76671261446E+02  0.10000075834E+03  0.12601076309E+03  0.00000000000E+00 0. -1.
         11    1    4    4    0    0  0.31158294493E+02 -0.14354211662E+02  0.19051832397E+02  0.39240986555E+02  0.00000000000E+00 0.  1.
</event>
<event>
 8    1  0.6648599E-009  0.1275317E+03  0.7561462E-02  0.1231165E+00
         -1   -1    0    0    0  501 -0.00000000000E+00  0.00000000000E+00  0.18233777534E+03  0.18233777534E+03  0.00000000000E+00 0.  1.
          1   -1    0    0  501    0  0.00000000000E+00 -0.00000000000E+00 -0.14189300321E+03  0.14189300321E+03  0.00000000000E+00 0. -1.
         25    2    1    2    0    0 -0.16606760746E+01  0.86103301602E+02 -0.60967284692E+02  0.16364820340E+03  0.12508872164E+03 0.  0.
         23    2    1    2    0    0  0.16606760746E+01 -0.86103301602E+02  0.10141205682E+03  0.16058257515E+03  0.89921197616E+02 0.  0.
          5    1    3    3  502    0 -0.23715079594E+02  0.11159832387E+03 -0.30876411390E+02  0.11826840690E+03  0.41800000000E+01 0.  1.
         -5    1    3    3    0  502  0.22054403519E+02 -0.25495022263E+02 -0.30090873302E+02  0.45379796505E+02  0.41800000000E+01 0.  1.
        -11    1    4    4    0    0 -0.18653842748E+02 -0.84517618507E+02  0.10869368436E+03  0.13894427194E+03  0.00000000000E+00 0.  1.
         11    1    4    4    0    0  0.20314518823E+02 -0.15856830956E+01 -0.72816275372E+01  0.21638303202E+02  0.00000000000E+00 0. -1.
</event>
<event>
 8    1  0.6648599E-009  0.1245876E+03  0.7561462E-02  0.1235715E+00
         -1   -1    0    0    0  501 -0.00000000000E+00  0.00000000000E+00  0.57343124164E+02  0.57343124164E+02  0.00000000000E+00 0.  1.
          1   -1    0    0  501    0  0.00000000000E+00 -0.00000000000E+00 -0.39277349168E+03  0.39277349168E+03  0.00000000000E+00 0. -1.
         25    2    1    2    0    0  0.10303566298E+03  0.30257598436E+01 -0.17250166633E+03  0.23670790053E+03  0.12509317415E+03 0.  0.
         23    2    1    2    0    0 -0.10303566298E+03 -0.30257598436E+01 -0.16292870119E+03  0.21340871531E+03  0.91498716013E+02 0.  0.
          5    1    3    3  502    0  0.16851744766E+02  0.26135864903E+02 -0.13706250622E+03  0.14060820655E+03  0.41800000000E+01 0.  1.
         -5    1    3    3    0  502  0.86183918217E+02 -0.23110105060E+02 -0.35439160106E+02  0.96099693986E+02  0.41800000000E+01 0.  1.
        -11    1    4    4    0    0  0.12081108345E+02  0.50005871338E+01 -0.50991218372E+02  0.52640890964E+02  0.00000000000E+00 0. -1.
         11    1    4    4    0    0 -0.11511677133E+03 -0.80263469774E+01 -0.11193748282E+03  0.16076782435E+03  0.00000000000E+00 0.  1.
</event>
<event>
 8    1  0.6648599E-009  0.2840627E+03  0.7561462E-02  0.1093490E+00
          1   -1    0    0  501    0  0.00000000000E+00  0.00000000000E+00  0.94278568446E+03  0.94278568446E+03  0.00000000000E+00 0. -1.
         -1   -1    0    0    0  501 -0.00000000000E+00 -0.00000000000E+00 -0.91437587324E+02  0.91437587324E+02  0.00000000000E+00 0.  1.
         25    2    1    2    0    0  0.10037134350E+03  0.25150227458E+03  0.48376551588E+03  0.56833510183E+03  0.12509161806E+03 0.  0.
         23    2    1    2    0    0 -0.10037134350E+03 -0.25150227458E+03  0.36758258126E+03  0.46588816995E+03  0.92774091971E+02 0.  0.
          5    1    3    3  502    0 -0.72578495470E+01  0.97948402308E+02  0.95094992631E+02  0.13677388610E+03  0.41800000000E+01 0. -1.
         -5    1    3    3    0  502  0.10762919305E+03  0.15355387227E+03  0.38867052325E+03  0.43156121574E+03  0.41800000000E+01 0. -1.
        -11    1    4    4    0    0 -0.47814711313E+02 -0.20975502688E+03  0.24434298467E+03  0.32555631168E+03  0.00000000000E+00 0.  1.
         11    1    4    4    0    0 -0.52556632190E+02 -0.41747247698E+02  0.12323959659E+03  0.14033185827E+03  0.00000000000E+00 0. -1.
</event>
<event>
 8    1  0.6648599E-009  0.9915223E+02  0.7561462E-02  0.1282089E+00
         -3   -1    0    0    0  501 -0.00000000000E+00  0.00000000000E+00  0.43568137280E+03  0.43568137280E+03  0.00000000000E+00 0.  1.
          3   -1    0    0  501    0  0.00000000000E+00 -0.00000000000E+00 -0.31641091015E+02  0.31641091015E+02  0.00000000000E+00 0. -1.
         25    2    1    2    0    0 -0.13458813914E+02 -0.25550315981E+02  0.26592470338E+03  0.29529228979E+03  0.12509048815E+03 0.  0.
         23    2    1    2    0    0  0.13458813914E+02  0.25550315981E+02  0.13811557841E+03  0.17203017402E+03  0.98409905279E+02 0.  0.
          5    1    3    3  502    0  0.27569494836E+02  0.36803058201E+02  0.56758428193E+02  0.73167846144E+02  0.41800000000E+01 0.  1.
         -5    1    3    3    0  502 -0.41028308750E+02 -0.62353374182E+02  0.20916627518E+03  0.22212444365E+03  0.41800000000E+01 0.  1.
        -11    1    4    4    0    0 -0.18857452842E+02 -0.16002873015E+02  0.10921032119E+03  0.11197584439E+03  0.00000000000E+00 0.  1.
         11    1    4    4    0    0  0.32316266756E+02  0.41553188996E+02  0.28905257214E+02  0.60054329630E+02  0.00000000000E+00 0. -1.
</event>
<event>
 8    1  0.6648599E-009  0.1193079E+03  0.7561462E-02  0.1244243E+00
          2   -1    0    0  501    0  0.00000000000E+00  0.00000000000E+00  0.18830547711E+03  0.18830547711E+03  0.00000000000E+00 0. -1.
         -2   -1    0    0    0  501 -0.00000000000E+00 -0.00000000000E+00 -0.90318597470E+02  0.90318597470E+02  0.00000000000E+00 0.  1.
         25    2    1    2    0    0  0.46190483301E+02 -0.40069458093E+02  0.91482294388E+02  0.16659917487E+03  0.12508857926E+03 0.  0.
         23    2    1    2    0    0 -0.46190483301E+02  0.40069458093E+02  0.65045852526E+01  0.11202489971E+03  0.93638380525E+02 0.  0.
          5    1    3    3  502    0 -0.30056560258E+02 -0.50695409397E+02  0.22749355009E+02  0.63312138660E+02  0.41800000000E+01 0.  1.
         -5    1    3    3    0  502  0.76247043558E+02  0.10625951304E+02  0.68732939379E+02  0.10328703621E+03  0.41800000000E+01 0.  1.
        -11    1    4    4    0    0 -0.40773958933E+02 -0.17672665215E+02 -0.19421919024E+02  0.48497935641E+02  0.00000000000E+00 0.  1.
         11    1    4    4    0    0 -0.54165243678E+01  0.57742123308E+02  0.25926504277E+02  0.63526964073E+02  0.00000000000E+00 0. -1.
</event>
<event>
 8    1  0.6648599E-009  0.1634101E+03  0.7561462E-02  0.1184900E+00
          2   -1    0    0  501    0  0.00000000000E+00  0.00000000000E+00  0.51647379558E+03  0.51647379558E+03  0.00000000000E+00 0. -1.
         -2   -1    0    0    0  501 -0.00000000000E+00 -0.00000000000E+00 -0.58773838337E+02  0.58773838337E+02  0.00000000000E+00 0.  1.
         25    2    1    2    0    0  0.48646556245E+02 -0.12266473056E+03  0.29832848964E+03  0.34937015896E+03  0.12508595718E+03 0.  0.
         23    2    1    2    0    0 -0.48646556245E+02  0.12266473056E+03  0.15937146760E+03  0.22587747496E+03  0.90599367826E+02 0.  0.
          5    1    3    3  502    0  0.46920007120E+02 -0.14077352976E+03  0.29523025972E+03  0.33044977289E+03  0.41800000000E+01 0.  1.
         -5    1    3    3    0  502  0.17265491258E+01  0.18108799201E+02  0.30982299208E+01  0.18920386070E+02  0.41800000000E+01 0.  1.
        -11    1    4    4    0    0 -0.56610019965E+02  0.25277459720E+02  0.54593485309E+02  0.82608068423E+02  0.00000000000E+00 0. -1.
         11    1    4    4    0    0  0.79634637200E+01  0.97387270835E+02  0.10477798229E+03  0.14326940653E+03  0.00000000000E+00 0.  1.
</event>
<event>
 8    1  0.6648599E-009  0.1067946E+03  0.7561462E-02  0.1266624E+00
         -2   -1    0    0    0  501 -0.00000000000E+00  0.00000000000E+00  0.88497165484E+02  0.88497165484E+02  0.00000000000E+00 0. -1.
          2   -1    0    0  501    0  0.00000000000E+00 -0.00000000000E+00 -0.17012373352E+03  0.17012373352E+03  0.00000000000E+00 0.  1.
         25    2    1    2    0    0 -0.78809856070E+01  0.20585095241E+02  0.98255788393E+01  0.12739492843E+03  0.12508824768E+03 0.  0.
         23    2    1    2    0    0  0.78809856070E+01 -0.20585095241E+02 -0.91452146877E+02  0.13122597058E+03  0.91492645091E+02 0.  0.
          5    1    3    3  502    0  0.47649781577E+02  0.40219099074E+02  0.23530716883E+02  0.66777575965E+02  0.41800000000E+01 0.  1.
         -5    1    3    3    0  502 -0.55530767184E+02 -0.19634003833E+02 -0.13705138043E+02  0.60617352461E+02  0.41800000000E+01 0.  1.
        -11    1    4    4    0    0  0.42879677664E+02  0.11683333532E+02 -0.30567532768E+02  0.53940162203E+02  0.00000000000E+00 0. -1.
         11    1    4    4    0    0 -0.34998692057E+02 -0.32268428773E+02 -0.60884614108E+02  0.77285808376E+02  0.00000000000E+00 0.  1.
</event>
<event>
 8    1  0.6648599E-009  0.9621921E+02  0.7561462E-02  0.1288453E+00
          2   -1    0    0  501    0  0.00000000000E+00  0.00000000000E+00  0.51411134918E+02  0.51411134918E+02  0.00000000000E+00 0. -1.
         -2   -1    0    0    0  501 -0.00000000000E+00 -0.00000000000E+00 -0.30137444637E+03  0.30137444637E+03  0.00000000000E+00 0.  1.
         25    2    1    2    0    0 -0.33383624683E+02  0.21940807007E+01 -0.20927534429E+03  0.24609465391E+03  0.12508848295E+03 0.  0.
         23    2    1    2    0    0  0.33383624683E+02 -0.21940807007E+01 -0.40687967156E+02  0.10669092738E+03  0.92780186065E+02 0.  0.
          5    1    3    3  502    0 -0.74354734322E+02  0.25197621137E+01 -0.18208943992E+03  0.19674606031E+03  0.41800000000E+01 0. -1.
         -5    1    3    3    0  502  0.40971109639E+02 -0.32568141299E+00 -0.27185904373E+02  0.49348593597E+02  0.41800000000E+01 0. -1.
        -11    1    4    4    0    0  0.17562094388E+02 -0.35644003211E+02  0.12715491364E+02  0.41720568607E+02  0.00000000000E+00 0.  1.
         11    1    4    4    0    0  0.15821530295E+02  0.33449922510E+02 -0.53403458520E+02  0.64970358770E+02  0.00000000000E+00 0. -1.
</event>
<event>
 8    1  0.6648599E-009  0.1043863E+03  0.7561462E-02  0.1271333E+00
         -2   -1    0    0    0  501 -0.00000000000E+00  0.00000000000E+00  0.84288813902E+02  0.84288813902E+02  0.00000000000E+00 0.  1.
          2   -1    0    0  501    0  0.00000000000E+00 -0.00000000000E+00 -0.25057199710E+03  0.25057199710E+03  0.00000000000E+00 0. -1.
         25    2    1    2    0    0 -0.63835287912E+02  0.45319170015E+01 -0.17391451570E+03  0.22358212455E+03  0.12508886997E+03 0.  0.
         23    2    1    2    0    0  0.63835287912E+02 -0.45319170015E+01  0.76313325049E+01  0.11127868646E+03  0.90715084574E+02 0.  0.
          5    1    3    3  502    0 -0.31837950217E+02  0.39496920322E+02 -0.86854841320E+01  0.51638859627E+02  0.41800000000E+01 0.  1.
         -5    1    3    3    0  502 -0.31997337694E+02 -0.34965003321E+02 -0.16522903157E+03  0.17194326492E+03  0.41800000000E+01 0.  1.
        -11    1    4    4    0    0  0.17657899141E+02 -0.45344595341E+02  0.96871794224E+01  0.49616279323E+02  0.00000000000E+00 0.  1.
         11    1    4    4    0    0  0.46177388770E+02  0.40812678340E+02 -0.20558469175E+01  0.61662407133E+02  0.00000000000E+00 0. -1.
</event>
<event>
 7    1  0.6648599E-009  0.1973067E+03  0.7561462E-02  0.1152031E+00
         -2   -1    0    0    0  501 -0.00000000000E+00  0.00000000000E+00  0.56332919274E+03  0.56332919274E+03  0.00000000000E+00 0.  1.
          2   -1    0    0  501    0  0.00000000000E+00 -0.00000000000E+00 -0.75421778705E+02  0.75421778705E+02  0.00000000000E+00 0. -1.
         23    2    1    2    0    0 -0.53731694766E+02  0.16488836511E+03  0.26686790507E+03  0.33128477149E+03  0.91955712691E+02 0.  0.
          5    1    1    2  502    0  0.35702837717E+02 -0.17955495570E+03  0.21625977986E+03  0.28337332182E+03  0.41800000000E+01 0. -1.
         -5    1    1    2    0  502  0.18028857048E+02  0.14666590595E+02  0.47797291109E+01  0.24092878129E+02  0.41800000000E+01 0. -1.
        -11    1    3    3    0    0 -0.58962651335E+02  0.64623345547E+02  0.77159949336E+02  0.11664659799E+03  0.00000000000E+00 0.  1.
         11    1    3    3    0    0  0.52309565691E+01  0.10026501956E+03  0.18970795573E+03  0.21463817350E+03  0.00000000000E+00 0. -1.
</event>
<event>
 8    1  0.6648599E-009  0.1085587E+03  0.7561462E-02  0.1263262E+00
          4   -1    0    0  501    0  0.00000000000E+00  0.00000000000E+00  0.86765767703E+02  0.86765767703E+02  0.00000000000E+00 0. -1.
         -4   -1    0    0    0  501 -0.00000000000E+00 -0.00000000000E+00 -0.15918344633E+03  0.15918344633E+03  0.00000000000E+00 0.  1.
         25    2    1    2    0    0 -0.26571923297E+02  0.35537765904E+02 -0.37977360806E+02  0.13805539888E+03  0.12509201938E+03 0.  0.
         23    2    1    2    0    0  0.26571923297E+02 -0.35537765904E+02 -0.34440317823E+02  0.10789381515E+03  0.92119161653E+02 0.  0.
          5    1    3    3  502    0 -0.41928831275E+01 -0.44601356341E+02  0.32355119069E+01  0.45108781780E+02  0.41800000000E+01 0.  1.
         -5    1    3    3    0  502 -0.22379040170E+02  0.80139122246E+02 -0.41212872713E+02  0.92946617101E+02  0.41800000000E+01 0.  1.
        -11    1    4    4    0    0 -0.28491023211E+01 -0.54003675043E+02 -0.46297682622E+02  0.71189814709E+02  0.00000000000E+00 0.  1.
         11    1    4    4    0    0  0.29421025618E+02  0.18465909138E+02  0.11857364798E+02  0.36704000446E+02  0.00000000000E+00 0. -1.
</event>
<event>
 8    1  0.6648599E-009  0.1506223E+03  0.7561462E-02  0.1199710E+00
          1   -1    0    0  501    0  0.00000000000E+00  0.00000000000E+00  0.31108431125E+03  0.31108431125E+03  0.00000000000E+00 0. -1.
         -1   -1    0    0    0  501 -0.00000000000E+00 -0.00000000000E+00 -0.13141754605E+03  0.13141754605E+03  0.00000000000E+00 0.  1.
         25    2    1    2    0    0 -0.63412999541E+02  0.92404190201E+02 -0.42099675265E+02  0.17315624661E+03  0.12510379773E+03 0.  0.
         23    2    1    2    0    0  0.63412999541E+02 -0.92404190201E+02  0.22176644047E+03  0.26934561068E+03  0.10395653419E+03 0.  0.
          5    1    3    3  502    0 -0.91741436769E+02  0.86367409505E+02 -0.59184173926E+02  0.13926973644E+03  0.41800000000E+01 0. -1.
         -5    1    3    3    0  502  0.28328437228E+02  0.60367806961E+01  0.17084498661E+02  0.33886510170E+02  0.41800000000E+01 0. -1.
        -11    1    4    4    0    0  0.85604125409E+02 -0.88953569285E+02  0.21094914440E+03  0.24441838168E+03  0.00000000000E+00 0. -1.
         11    1    4    4    0    0 -0.22191125868E+02 -0.34506209156E+01  0.10817296063E+02  0.24927229010E+02  0.00000000000E+00 0.  1.
</event>
<event>
 8    1  0.6648599E-009  0.9353164E+02  0.7561462E-02  0.1294518E+00
         -1   -1    0    0    0  501 -0.00000000000E+00  0.00000000000E+00  0.83852904382E+03  0.83852904382E+03  0.00000000000E+00 0.  1.
          1   -1    0    0  501    0  0.00000000000E+00 -0.00000000000E+00 -0.15224011093E+02  0.15224011093E+02  0.00000000000E+00 0. -1.
         25    2    1    2    0    0 -0.56970227033E+01  0.22766829592E+02  0.58894861965E+03  0.60254423092E+03  0.12509312142E+03 0.  0.
         23    2    1    2    0    0  0.56970227033E+01 -0.22766829592E+02  0.23435641307E+03  0.25120882399E+03  0.87362236151E+02 0.  0.
          5    1    3    3  502    0  0.40472208912E+02  0.30604983494E+02  0.49375509106E+03  0.49637307245E+03  0.41800000000E+01 0. -1.
         -5    1    3    3    0  502 -0.46169231615E+02 -0.78381539019E+01  0.95193528598E+02  0.10617115847E+03  0.41800000000E+01 0. -1.
        -11    1    4    4    0    0 -0.17089250542E+02 -0.50457879584E+02  0.11838105954E+03  0.12981569764E+03  0.00000000000E+00 0.  1.
         11    1    4    4    0    0  0.22786273245E+02  0.27691049991E+02  0.11597535353E+03  0.12139312635E+03  0.00000000000E+00 0. -1.
</event>
<event>
 8    1  0.6648599E-009  0.1320192E+03  0.7561462E-02  0.1224490E+00
          2   -1    0    0  501    0  0.00000000000E+00  0.00000000000E+00  0.20367017785E+03  0.20367017785E+03  0.00000000000E+00 0. -1.
         -2   -1    0    0    0  501 -0.00000000000E+00 -0.00000000000E+00 -0.11212131445E+03  0.11212131445E+03  0.00000000000E+00 0.  1.
         25    2    1    2    0    0  0.98441271865E+02  0.28345750939E+02  0.72957102915E+02  0.17738342929E+03  0.12509187231E+03 0.  0.
         23    2    1    2    0    0 -0.98441271865E+02 -0.28345750939E+02  0.18591760485E+02  0.13840806302E+03  0.91197438274E+02 0.  0.
          5    1    3    3  502    0  0.10790182070E+03 -0.21997060967E+02  0.46974081813E+02  0.11979445048E+03  0.41800000000E+01 0. -1.
         -5    1    3    3    0  502 -0.94605488395E+01  0.50342811906E+02  0.25983021102E+02  0.57588978811E+02  0.41800000000E+01 0. -1.
        -11    1    4    4    0    0 -0.62374579437E+02 -0.18332345470E+02 -0.34381972494E+02  0.73544429313E+02  0.00000000000E+00 0.  1.
         11    1    4    4    0    0 -0.36066692428E+02 -0.10013405469E+02  0.52973732978E+02  0.64863633705E+02  0.00000000000E+00 0. -1.
</event>
<event>
 8    1  0.6648599E-009  0.6608541E+02  0.7561462E-02  0.1373935E+00
         -2   -1    0    0    0  501 -0.00000000000E+00  0.00000000000E+00  0.35958864985E+03  0.35958864985E+03  0.00000000000E+00 0.  1.
          2   -1    0    0  501    0  0.00000000000E+00 -0.00000000000E+00 -0.55548535215E+02  0.55548535215E+02  0.00000000000E+00 0. -1.
         25    2    1    2    0    0 -0.16976546819E+02  0.30519228496E+02  0.29158685010E+03  0.31920317543E+03  0.12509256416E+03 0.  0.
         23    2    1    2    0    0  0.16976546819E+02 -0.30519228496E+02  0.12453264537E+02  0.95934009627E+02  0.88479511502E+02 0.  0.
          5    1    3    3  502    0 -0.30073331356E+00 -0.42929470993E+01 -0.11855488416E+02  0.13287017758E+02  0.41800000000E+01 0.  1.
         -5    1    3    3    0  502 -0.16675813506E+02  0.34812175595E+02  0.30344233851E+03  0.30591615768E+03  0.41800000000E+01 0.  1.
        -11    1    4    4    0    0 -0.19135913708E+02  0.18396026048E+02  0.21888340908E+02  0.34404889703E+02  0.00000000000E+00 0.  1.
         11    1    4    4    0    0  0.36112460528E+02 -0.48915254544E+02 -0.94350763706E+01  0.61529119924E+02  0.00000000000E+00 0. -1.
</event>
<event>
 8    1  0.6648599E-009  0.8930414E+02  0.7561462E-02  0.1304546E+00
          2   -1    0    0  501    0  0.00000000000E+00  0.00000000000E+00  0.61641496496E+03  0.61641496496E+03  0.00000000000E+00 0. -1.
         -2   -1    0    0    0  501 -0.00000000000E+00 -0.00000000000E+00 -0.31341005531E+02  0.31341005531E+02  0.00000000000E+00 0.  1.
         25    2    1    2    0    0 -0.56357299763E+02  0.42523905470E+02  0.43588063475E+03  0.45893758776E+03  0.12508938376E+03 0.  0.
         23    2    1    2    0    0  0.56357299763E+02 -0.42523905470E+02  0.14919332467E+03  0.18881838273E+03  0.91702266916E+02 0.  0.
          5    1    3    3  502    0 -0.41880373703E+02  0.59806987287E+02  0.42872473774E+03  0.43491748019E+03  0.41800000000E+01 0. -1.
         -5    1    3    3    0  502 -0.14476926059E+02 -0.17283081817E+02  0.71558970148E+01  0.24020107562E+02  0.41800000000E+01 0. -1.
        -11    1    4    4    0    0  0.27453192572E+02 -0.45861518459E+02  0.21104004575E+02  0.57465952240E+02  0.00000000000E+00 0.  1.
         11    1    4    4    0    0  0.28904107190E+02  0.33376129886E+01  0.12808932010E+03  0.13135243049E+03  0.00000000000E+00 0. -1.
</event>
<event>
 8    1  0.6648599E-009  0.7520035E+02  0.7561462E-02  0.1343252E+00
         -1   -1    0    0    0  501 -0.00000000000E+00  0.00000000000E+00  0.90698765938E+02  0.90698765938E+02  0.00000000000E+00 0. -1.
          1   -1    0    0  501    0  0.00000000000E+00 -0.00000000000E+00 -0.18808090601E+03  0.18808090601E+03  0.00000000000E+00 0.  1.
         25    2    1    2    0    0 -0.54426232705E+02  0.10560329332E+02 -0.40375533541E+01  0.13688808468E+03  0.12509320737E+03 0.  0.
         23    2    1    2    0    0  0.54426232705E+02 -0.10560329332E+02 -0.93344586714E+02  0.14189158726E+03  0.91357951511E+02 0.  0.
          5    1    3    3  502    0 -0.24129131969E+02 -0.10797236825E+02  0.58352157153E+02  0.64196900058E+02  0.41800000000E+01 0. -1.
         -5    1    3    3    0  502 -0.30297100736E+02  0.21357566157E+02 -0.62389710507E+02  0.72691184626E+02  0.41800000000E+01 0. -1.
        -11    1    4    4    0    0  0.42206618351E+02 -0.37686202057E+02 -0.96611350676E+02  0.11196160743E+03  0.00000000000E+00 0.  1.
         11    1    4    4    0    0  0.12219614354E+02  0.27125872725E+02  0.32667639622E+01  0.29929979833E+02  0.00000000000E+00 0. -1.
</event>
<event>
 8    1  0.6648599E-009  0.1169144E+03  0.7561462E-02  0.1248276E+00
         -1   -1    0    0    0  501 -0.00000000000E+00  0.00000000000E+00  0.85076625697E+02  0.85076625697E+02  0.00000000000E+00 0.  1.
          1   -1    0    0  501    0  0.00000000000E+00 -0.00000000000E+00 -0.22267301398E+03  0.22267301398E+03  0.00000000000E+00 0. -1.
         25    2    1    2    0    0 -0.11482215892E+02 -0.73969374260E+02 -0.31640710228E+02  0.14916618849E+03  0.12508440204E+03 0.  0.
         23    2    1    2    0    0  0.11482215892E+02  0.73969374260E+02 -0.10595567805E+03  0.15858345119E+03  0.91207432093E+02 0.  0.
          5    1    3    3  502    0 -0.61990230824E+02 -0.71630975140E+02 -0.16738847941E+02  0.96288352086E+02  0.41800000000E+01 0.  1.
         -5    1    3    3    0  502  0.50508014932E+02 -0.23383991200E+01 -0.14901862286E+02  0.52877836400E+02  0.41800000000E+01 0.  1.
        -11    1    4    4    0    0 -0.55995269674E+01  0.70649016747E+02 -0.11784095631E+03  0.13751046962E+03  0.00000000000E+00 0. -1.
         11    1    4    4    0    0  0.17081742860E+02  0.33203575132E+01  0.11885278258E+02  0.21072981574E+02  0.00000000000E+00 0.  1.
</event>
<event>
 8    1  0.6648599E-009  0.1168723E+03  0.7561462E-02  0.1248348E+00
          1   -1    0    0  501    0  0.00000000000E+00  0.00000000000E+00  0.55970420646E+03  0.55970420646E+03  0.00000000000E+00 0. -1.
         -1   -1    0    0    0  501 -0.00000000000E+00 -0.00000000000E+00 -0.32416161192E+02  0.32416161192E+02  0.00000000000E+00 0.  1.
         25    2    1    2    0    0 -0.29384784660E+02 -0.56964087067E+02  0.38923125070E+03  0.41383210454E+03  0.12509065288E+03 0.  0.
         23    2    1    2    0    0  0.29384784660E+02  0.56964087067E+02  0.13805679456E+03  0.17828826311E+03  0.92836703158E+02 0.  0.
          5    1    3    3  502    0  0.32392402471E+02  0.56270370494E+01  0.32579477270E+02  0.46473928422E+02  0.41800000000E+01 0.  1.
         -5    1    3    3    0  502 -0.61777187130E+02 -0.62591124117E+02  0.35665177343E+03  0.36735817612E+03  0.41800000000E+01 0.  1.
        -11    1    4    4    0    0 -0.31302380744E+02  0.37456275819E+02  0.53979991145E+02  0.72778094799E+02  0.00000000000E+00 0.  1.
         11    1    4    4    0    0  0.60687165404E+02  0.19507811248E+02  0.84076803419E+02  0.10551016831E+03  0.00000000000E+00 0. -1.
</event>
<event>
 8    1  0.6648599E-009  0.1126935E+03  0.7561462E-02  0.1255662E+00
         -2   -1    0    0    0  501 -0.00000000000E+00  0.00000000000E+00  0.68332742848E+02  0.68332742848E+02  0.00000000000E+00 0.  1.
          2   -1    0    0  501    0  0.00000000000E+00 -0.00000000000E+00 -0.20996596739E+03  0.20996596739E+03  0.00000000000E+00 0. -1.
         25    2    1    2    0    0 -0.52898748898E+01 -0.44145702571E+02 -0.56008974015E+02  0.14408953247E+03  0.12509181574E+03 0.  0.
         23    2    1    2    0    0  0.52898748898E+01  0.44145702571E+02 -0.85624250530E+02  0.13420917777E+03  0.93293972407E+02 0.  0.
          5    1    3    3  502    0  0.57259026404E+01 -0.86963241515E+02 -0.45717685449E+02  0.98503657286E+02  0.41800000000E+01 0.  1.
         -5    1    3    3    0  502 -0.11015777530E+02  0.42817538944E+02 -0.10291288565E+02  0.45585875183E+02  0.41800000000E+01 0.  1.
        -11    1    4    4    0    0  0.61150360947E+00  0.68713923776E+02 -0.84852524983E+02  0.10918758287E+03  0.00000000000E+00 0. -1.
         11    1    4    4    0    0  0.46783712803E+01 -0.24568221205E+02 -0.77172554702E+00  0.25021594900E+02  0.00000000000E+00 0.  1.
</event>
<event>
 8    1  0.6648599E-009  0.8689625E+02  0.7561462E-02  0.1310547E+00
          3   -1    0    0  501    0  0.00000000000E+00  0.00000000000E+00  0.86493650843E+02  0.86493650843E+02  0.00000000000E+00 0. -1.
         -3   -1    0    0    0  501 -0.00000000000E+00 -0.00000000000E+00 -0.15299325289E+03  0.15299325289E+03  0.00000000000E+00 0.  1.
         25    2    1    2    0    0 -0.63261152507E+01 -0.31620532861E+02 -0.13551191685E+02  0.12989182648E+03  0.12509346089E+03 0.  0.
         23    2    1    2    0    0  0.63261152507E+01  0.31620532861E+02 -0.52948410361E+02  0.10959507726E+03  0.90375156798E+02 0.  0.
          5    1    3    3  502    0  0.24964094787E+02 -0.38077491851E+02 -0.58711312196E+02  0.74414998448E+02  0.41800000000E+01 0.  1.
         -5    1    3    3    0  502 -0.31290210038E+02  0.64569589902E+01  0.45160120511E+02  0.55476828029E+02  0.41800000000E+01 0.  1.
        -11    1    4    4    0    0 -0.41626043160E+02  0.79761858513E+01 -0.26002288350E+02  0.49723897768E+02  0.00000000000E+00 0. -1.
         11    1    4    4    0    0  0.47952158410E+02  0.23644347009E+02 -0.26946122012E+02  0.59871179487E+02  0.00000000000E+00 0.  1.
</event>
<event>
 8    1  0.6648599E-009  0.8677135E+02  0.7561462E-02  0.1310864E+00
         -1   -1    0    0    0  501 -0.00000000000E+00  0.00000000000E+00  0.44435424415E+02  0.44435424415E+02  0.00000000000E+00 0.  1.
          1   -1    0    0  501    0  0.00000000000E+00 -0.00000000000E+00 -0.48150710896E+03  0.48150710896E+03  0.00000000000E+00 0. -1.
         25    2    1    2    0    0 -0.28535777831E+02  0.52774852012E+02 -0.97537288709E+02  0.16958826533E+03  0.12508869424E+03 0.  0.
         23    2    1    2    0    0  0.28535777831E+02 -0.52774852012E+02 -0.33953439583E+03  0.35635426805E+03  0.90029343991E+02 0.  0.
          5    1    3    3  502    0  0.13524177220E+02  0.63795947103E+01  0.26421848415E+02  0.30646191800E+02  0.41800000000E+01 0. -1.
         -5    1    3    3    0  502 -0.42059955052E+02  0.46395257301E+02 -0.12395913712E+03  0.13894207353E+03  0.41800000000E+01 0. -1.
        -11    1    4    4    0    0  0.36769827757E+02  0.48106609801E+01 -0.22349325383E+03  0.22654888479E+03  0.00000000000E+00 0. -1.
         11    1    4    4    0    0 -0.82340499258E+01 -0.57585512992E+02 -0.11604114200E+03  0.12980538326E+03  0.00000000000E+00 0.  1.
</event>
<event>
 8    1  0.6648599E-009  0.1770290E+03  0.7561462E-02  0.1170710E+00
         -1   -1    0    0    0  501 -0.00000000000E+00  0.00000000000E+00  0.25382064549E+02  0.25382064549E+02  0.00000000000E+00 0.  1.
          1   -1    0    0  501    0  0.00000000000E+00 -0.00000000000E+00 -0.13215568721E+04  0.13215568721E+04  0.00000000000E+00 0. -1.
         25    2    1    2    0    0 -0.12820555022E+03  0.72409964609E+02 -0.71189925399E+03  0.73765012178E+03  0.12508912120E+03 0.  0.
         23    2    1    2    0    0  0.12820555022E+03 -0.72409964609E+02 -0.58427555354E+03  0.60928881486E+03  0.90416101201E+02 0.  0.
          5    1    3    3  502    0 -0.43449525388E+02 -0.29455558503E+02 -0.31018091557E+03  0.31461907756E+03  0.41800000000E+01 0.  1.
         -5    1    3    3    0  502 -0.84756024836E+02  0.10186552311E+03 -0.40171833843E+03  0.42303104422E+03  0.41800000000E+01 0.  1.
        -11    1    4    4    0    0  0.13921177274E+03 -0.58307573958E+02 -0.55332775315E+03  0.57354275625E+03  0.00000000000E+00 0. -1.
         11    1    4    4    0    0 -0.11006222514E+02 -0.14102390651E+02 -0.30947800398E+02  0.35746058602E+02  0.00000000000E+00 0.  1.
</event>
<event>
 8    1  0.6648599E-009  0.1094375E+03  0.7561462E-02  0.1261615E+00
          2   -1    0    0  501    0  0.00000000000E+00  0.00000000000E+00  0.55774272152E+02  0.55774272152E+02  0.00000000000E+00 0. -1.
         -2   -1    0    0    0  501 -0.00000000000E+00 -0.00000000000E+00 -0.24891750312E+03  0.24891750312E+03  0.00000000000E+00 0.  1.
         25    2    1    2    0    0  0.11007472161E+02  0.25749920778E+02 -0.14935345928E+03  0.19681849707E+03  0.12508733800E+03 0.  0.
         23    2    1    2    0    0 -0.11007472161E+02 -0.25749920778E+02 -0.43789771688E+02  0.10787327820E+03  0.94524479273E+02 0.  0.
          5    1    3    3  502    0 -0.11806901936E+02 -0.46658445989E+02 -0.35666546506E+02  0.60049883057E+02  0.41800000000E+01 0.  1.
         -5    1    3    3    0  502  0.22814374097E+02  0.72408366767E+02 -0.11368691277E+03  0.13676861401E+03  0.41800000000E+01 0.  1.
        -11    1    4    4    0    0  0.15132110871E+02 -0.53978670350E+02 -0.10578835811E+02  0.57049008749E+02  0.00000000000E+00 0. -1.
         11    1    4    4    0    0 -0.26139583032E+02  0.28228749572E+02 -0.33210935878E+02  0.50824269452E+02  0.00000000000E+00 0.  1.
</event>
<event>
 8    1  0.6648599E-009  0.6880002E+02  0.7561462E-02  0.1364222E+00
         -2   -1    0    0    0  501 -0.00000000000E+00  0.00000000000E+00  0.93374414340E+02  0.93374414340E+02  0.00000000000E+00 0.  1.
          2   -1    0    0  501    0  0.00000000000E+00 -0.00000000000E+00 -0.13260017766E+03  0.13260017766E+03  0.00000000000E+00 0. -1.
         25    2    1    2    0    0  0.15038361669E+01 -0.25649661678E+02 -0.17898705640E+02  0.12894879245E+03  0.12508901129E+03 0.  0.
         23    2    1    2    0    0 -0.15038361669E+01  0.25649661678E+02 -0.21327057682E+02  0.97025799546E+02  0.91098823927E+02 0.  0.
          5    1    3    3  502    0  0.58021748117E+01  0.11305808016E+02 -0.66368659554E+02  0.67703455587E+02  0.41800000000E+01 0. -1.
         -5    1    3    3    0  502 -0.42983386449E+01 -0.36955469695E+02  0.48469953915E+02  0.61245336867E+02  0.41800000000E+01 0. -1.
        -11    1    4    4    0    0 -0.27325523266E+02  0.46271779763E+02 -0.31698781410E+02  0.62390500616E+02  0.00000000000E+00 0.  1.
         11    1    4    4    0    0  0.25821687099E+02 -0.20622118084E+02  0.10371723728E+02  0.34635298931E+02  0.00000000000E+00 0. -1.
</event>
<event>
 8    1  0.6648599E-009  0.9474469E+02  0.7561462E-02  0.1291752E+00
         -2   -1    0    0    0  501 -0.00000000000E+00  0.00000000000E+00  0.25472346003E+03  0.25472346003E+03  0.00000000000E+00 0.  1.
          2   -1    0    0  501    0  0.00000000000E+00 -0.00000000000E+00 -0.84871785043E+02  0.84871785043E+02  0.00000000000E+00 0. -1.
         25    2    1    2    0    0 -0.53165198709E+02  0.34438651980E+02  0.45115935535E+01  0.14028548935E+03  0.12508838851E+03 0.  0.
         23    2    1    2    0    0  0.53165198709E+02 -0.34438651980E+02  0.16534008143E+03  0.19930975573E+03  0.91512169114E+02 0.  0.
          5    1    3    3  502    0 -0.86476658320E+02  0.18906275326E+02 -0.25979051903E+02  0.92347405046E+02  0.41800000000E+01 0. -1.
         -5    1    3    3    0  502  0.33311459612E+02  0.15532376653E+02  0.30490645456E+02  0.47938084299E+02  0.41800000000E+01 0. -1.
        -11    1    4    4    0    0  0.32694489632E+02 -0.16315214634E+02  0.16791833557E+03  0.17184784928E+03  0.00000000000E+00 0.  1.
         11    1    4    4    0    0  0.20470709076E+02 -0.18123437345E+02 -0.25782541397E+01  0.27461906447E+02  0.00000000000E+00 0. -1.
</event>
<event>
 8    1  0.6648599E-009  0.1192093E+03  0.7561462E-02  0.1244407E+00
         -1   -1    0    0    0  501 -0.00000000000E+00  0.00000000000E+00  0.98768910145E+02  0.98768910145E+02  0.00000000000E+00 0.  1.
          1   -1    0    0  501    0  0.00000000000E+00 -0.00000000000E+00 -0.15350343972E+03  0.15350343972E+03  0.00000000000E+00 0. -1.
         25    2    1    2    0    0  0.23334076365E+02 -0.40686019214E+02 -0.58980619019E+02  0.14603271064E+03  0.12508800053E+03 0.  0.
         23    2    1    2    0    0 -0.23334076365E+02  0.40686019214E+02  0.42460894400E+01  0.10623963923E+03  0.95231299416E+02 0.  0.
          5    1    3    3  502    0 -0.40835803804E+02 -0.53606050588E+02 -0.23708983553E+02  0.71559484578E+02  0.41800000000E+01 0.  1.
         -5    1    3    3    0  502  0.64169880169E+02  0.12920031374E+02 -0.35271635466E+02  0.74473226062E+02  0.41800000000E+01 0.  1.
        -11    1    4    4    0    0 -0.38575483878E+02 -0.19500040456E+02 -0.48328788777E+01  0.43493404701E+02  0.00000000000E+00 0. -1.
         11    1    4    4    0    0  0.15241407513E+02  0.60186059671E+02  0.90789683176E+01  0.62746234527E+02  0.00000000000E+00 0.  1.
</event>
<event>
 8    1  0.6648599E-009  0.1185642E+03  0.7561462E-02  0.1245485E+00
          1   -1    0    0  501    0  0.00000000000E+00  0.00000000000E+00  0.24760272714E+03  0.24760272714E+03  0.00000000000E+00 0. -1.
         -1   -1    0    0    0  501 -0.00000000000E+00 -0.00000000000E+00 -0.10997114997E+03  0.10997114997E+03  0.00000000000E+00 0.  1.
         25    2    1    2    0    0 -0.66211365976E+02 -0.40839739743E+01 -0.37698641343E+02  0.14652810257E+03  0.12509465798E+03 0.  0.
         23    2    1    2    0    0  0.66211365976E+02  0.40839739743E+01  0.17533021852E+03  0.21104577454E+03  0.96948489405E+02 0.  0.
          5    1    3    3  502    0 -0.95410080884E+02  0.26508547086E+01  0.32749675897E+01  0.95594499725E+02  0.41800000000E+01 0.  1.
         -5    1    3    3    0  502  0.29198714908E+02 -0.67348286829E+01 -0.40973608933E+02  0.50933602844E+02  0.41800000000E+01 0.  1.
        -11    1    4    4    0    0  0.74976849368E+02 -0.26497750262E+02  0.15216861637E+03  0.17169434038E+03  0.00000000000E+00 0. -1.
         11    1    4    4    0    0 -0.87654833916E+01  0.30581724236E+02  0.23161602141E+02  0.39351434155E+02  0.00000000000E+00 0.  1.
</event>
<event>
 8    1  0.6648599E-009  0.1092884E+03  0.7561462E-02  0.1261893E+00
          1   -1    0    0  501    0  0.00000000000E+00  0.00000000000E+00  0.71641566318E+02  0.71641566318E+02  0.00000000000E+00 0. -1.
         -1   -1    0    0    0  501 -0.00000000000E+00 -0.00000000000E+00 -0.29893914960E+03  0.29893914960E+03  0.00000000000E+00 0.  1.
         25    2    1    2    0    0  0.40094697504E+02  0.44257414675E+02 -0.22067324999E+03  0.26059667937E+03  0.12509053728E+03 0.  0.
         23    2    1    2    0    0 -0.40094697504E+02 -0.44257414675E+02 -0.66243332945E+01  0.10998403655E+03  0.92121132117E+02 0.  0.
          5    1    3    3  502    0  0.23169477837E+02 -0.30030571245E+02 -0.15591077350E+03  0.16051262133E+03  0.41800000000E+01 0. -1.
         -5    1    3    3    0  502  0.16925219667E+02  0.74287985920E+02 -0.64762476487E+02  0.10008405804E+03  0.41800000000E+01 0. -1.
        -11    1    4    4    0    0 -0.50846769374E+00 -0.61092018768E+02 -0.21040183488E+02  0.64615653039E+02  0.00000000000E+00 0.  1.
         11    1    4    4    0    0 -0.39586229810E+02  0.16834604093E+02  0.14415850193E+02  0.45368383510E+02  0.00000000000E+00 0. -1.
</event>
<event>
 8    1  0.6648599E-009  0.1244869E+03  0.7561462E-02  0.1235873E+00
          2   -1    0    0  501    0  0.00000000000E+00  0.00000000000E+00  0.86118430551E+02  0.86118430551E+02  0.00000000000E+00 0.  1.
         -2   -1    0    0    0  501 -0.00000000000E+00 -0.00000000000E+00 -0.20660551874E+03  0.20660551874E+03  0.00000000000E+00 0. -1.
         25    2    1    2    0    0  0.68094988262E+02  0.16327757197E+02 -0.10161409265E+03  0.17570470477E+03  0.12507276432E+03 0.  0.
         23    2    1    2    0    0 -0.68094988262E+02 -0.16327757197E+02 -0.18872995539E+02  0.11701924451E+03  0.91835671415E+02 0.  0.
          5    1    3    3  502    0 -0.47125930879E+01 -0.46213803874E+02 -0.25652697105E+02  0.53230230799E+02  0.41800000000E+01 0.  1.
         -5    1    3    3    0  502  0.72807581350E+02  0.62541561071E+02 -0.75961395541E+02  0.12247447398E+03  0.41800000000E+01 0.  1.
        -11    1    4    4    0    0 -0.58429130387E+01 -0.39429544129E+02 -0.29744256688E+02  0.49734790528E+02  0.00000000000E+00 0. -1.
         11    1    4    4    0    0 -0.62252075223E+02  0.23101786932E+02  0.10871261149E+02  0.67284453985E+02  0.00000000000E+00 0.  1.
</event>
<event>
 8    1  0.6648599E-009  0.5812469E+02  0.7561462E-02  0.1405874E+00
          1   -1    0    0  501    0  0.00000000000E+00  0.00000000000E+00  0.24989152863E+03  0.24989152863E+03  0.00000000000E+00 0.  1.
         -1   -1    0    0    0  501 -0.00000000000E+00 -0.00000000000E+00 -0.52065002588E+02  0.52065002588E+02  0.00000000000E+00 0. -1.
         25    2    1    2    0    0  0.33844067944E+02  0.15142315679E+01  0.11511219092E+03  0.17333927473E+03  0.12509186158E+03 0.  0.
         23    2    1    2    0    0 -0.33844067944E+02 -0.15142315679E+01  0.82714335122E+02  0.12861725649E+03  0.92482558351E+02 0.  0.
          5    1    3    3  502    0  0.31131998951E+02  0.39531261809E+01 -0.20433168120E+02  0.37680436897E+02  0.41800000000E+01 0. -1.
         -5    1    3    3    0  502  0.27120689930E+01 -0.24388946130E+01  0.13554535904E+03  0.13565883783E+03  0.41800000000E+01 0. -1.
        -11    1    4    4    0    0 -0.29280761844E+02  0.33063477559E+02  0.82683603027E+02  0.93739718221E+02  0.00000000000E+00 0.  1.
         11    1    4    4    0    0 -0.45633060999E+01 -0.34577709127E+02  0.30732094789E-01  0.34877538266E+02  0.00000000000E+00 0. -1.
</event>
<event>
 8    1  0.6648599E-009  0.1304538E+03  0.7561462E-02  0.1226784E+00
          2   -1    0    0  501    0  0.00000000000E+00  0.00000000000E+00  0.79480552397E+03  0.79480552397E+03  0.00000000000E+00 0.  1.
         -2   -1    0    0    0  501 -0.00000000000E+00 -0.00000000000E+00 -0.34709248591E+02  0.34709248591E+02  0.00000000000E+00 0. -1.
         25    2    1    2    0    0  0.96669766550E+02 -0.17908071743E+02  0.21477642396E+03  0.26728733940E+03  0.12509143343E+03 0.  0.
         23    2    1    2    0    0 -0.96669766550E+02  0.17908071743E+02  0.54531985142E+03  0.56222743317E+03  0.95185100978E+02 0.  0.
          5    1    3    3  502    0 -0.20950123485E+02  0.23982405699E+02  0.28152423610E+02  0.42709422991E+02  0.41800000000E+01 0. -1.
         -5    1    3    3    0  502  0.11761989004E+03 -0.41890477442E+02  0.18662400035E+03  0.22457791641E+03  0.41800000000E+01 0. -1.
        -11    1    4    4    0    0 -0.92956269619E+02  0.80208451050E+01  0.54357310416E+03  0.55152236726E+03  0.00000000000E+00 0.  1.
         11    1    4    4    0    0 -0.37134969303E+01  0.98872266381E+01  0.17467472601E+01  0.10705065905E+02  0.00000000000E+00 0. -1.
</event>
<event>
 8    1  0.6648599E-009  0.1116833E+03  0.7561462E-02  0.1257484E+00
          1   -1    0    0  501    0  0.00000000000E+00  0.00000000000E+00  0.54347204256E+02  0.54347204256E+02  0.00000000000E+00 0. -1.
         -1   -1    0    0    0  501 -0.00000000000E+00 -0.00000000000E+00 -0.31986416552E+03  0.31986416552E+03  0.00000000000E+00 0.  1.
         25    2    1    2    0    0 -0.67556274161E+02 -0.27070687160E+02 -0.12327737528E+03  0.19010873190E+03  0.12508935370E+03 0.  0.
         23    2    1    2    0    0  0.67556274161E+02  0.27070687160E+02 -0.14223958598E+03  0.18410263787E+03  0.91460424057E+02 0.  0.
          5    1    3    3  502    0 -0.92944204348E+02 -0.11774952662E+02 -0.40621907651E+02  0.10220022707E+03  0.41800000000E+01 0.  1.
         -5    1    3    3    0  502  0.25387930187E+02 -0.15295734498E+02 -0.82655467630E+02  0.87908504834E+02  0.41800000000E+01 0.  1.
        -11    1    4    4    0    0  0.77144117684E+01  0.38040029836E+02 -0.12451371962E+02  0.40762638318E+02  0.00000000000E+00 0.  1.
         11    1    4    4    0    0  0.59841862393E+02 -0.10969342676E+02 -0.12978821402E+03  0.14333999955E+03  0.00000000000E+00 0. -1.
</event>
<event>
 8    1  0.6648599E-009  0.1041614E+03  0.7561462E-02  0.1271781E+00
          2   -1    0    0  501    0  0.00000000000E+00  0.00000000000E+00  0.96015407165E+03  0.96015407165E+03  0.00000000000E+00 0. -1.
         -2   -1    0    0    0  501 -0.00000000000E+00 -0.00000000000E+00 -0.18332125373E+02  0.18332125373E+02  0.00000000000E+00 0.  1.
         25    2    1    2    0    0  0.12946274000E+02  0.72401349737E+01  0.79146327218E+03  0.80142473062E+03  0.12508981602E+03 0.  0.
         23    2    1    2    0    0 -0.12946274000E+02 -0.72401349737E+01  0.15035867410E+03  0.17706146641E+03  0.92320130222E+02 0.  0.
          5    1    3    3  502    0  0.11902334479E+02 -0.56199466865E+02  0.26839031091E+03  0.27450114213E+03  0.41800000000E+01 0.  1.
         -5    1    3    3    0  502  0.10439395206E+01  0.63439601839E+02  0.52307296127E+03  0.52692358849E+03  0.41800000000E+01 0.  1.
        -11    1    4    4    0    0  0.35526157575E+02  0.78286678910E+01  0.32679928630E+02  0.48901673266E+02  0.00000000000E+00 0.  1.
         11    1    4    4    0    0 -0.48472431575E+02 -0.15068802865E+02  0.11767874547E+03  0.12815979314E+03  0.00000000000E+00 0. -1.
</event>
<event>
 8    1  0.6648599E-009  0.1907918E+03  0.7561462E-02  0.1157749E+00
         -1   -1    0    0    0  501 -0.00000000000E+00  0.00000000000E+00  0.35702899974E+02  0.35702899974E+02  0.00000000000E+00 0.  1.
          1   -1    0    0  501    0  0.00000000000E+00 -0.00000000000E+00 -0.11536529363E+04  0.11536529363E+04  0.00000000000E+00 0. -1.
         25    2    1    2    0    0  0.16639383779E+03  0.18737320876E+02 -0.47863578551E+03  0.52227977994E+03  0.12508379956E+03 0.  0.
         23    2    1    2    0    0 -0.16639383779E+03 -0.18737320876E+02 -0.63931425084E+03  0.66707605636E+03  0.90718009198E+02 0.  0.
          5    1    3    3  502    0 -0.14587463885E+02 -0.61574566977E+01 -0.97834466901E+01  0.19076074144E+02  0.41800000000E+01 0.  1.
         -5    1    3    3    0  502  0.18098130168E+03  0.24894777573E+02 -0.46885233882E+03  0.50320370579E+03  0.41800000000E+01 0.  1.
        -11    1    4    4    0    0 -0.50865256810E+02  0.27750773064E+02 -0.30200133566E+03  0.30750965269E+03  0.00000000000E+00 0. -1.
         11    1    4    4    0    0 -0.11552858098E+03 -0.46488093940E+02 -0.33731291517E+03  0.35956640366E+03  0.00000000000E+00 0.  1.
</event>
<event>
 8    1  0.6648599E-009  0.1209566E+03  0.7561462E-02  0.1241527E+00
         -2   -1    0    0    0  501 -0.00000000000E+00  0.00000000000E+00  0.67605731003E+02  0.67605731003E+02  0.00000000000E+00 0.  1.
          2   -1    0    0  501    0  0.00000000000E+00 -0.00000000000E+00 -0.29966997477E+03  0.29966997477E+03  0.00000000000E+00 0. -1.
         25    2    1    2    0    0  0.76699025502E+02 -0.33302414314E+02 -0.77123700089E+02  0.16907711628E+03  0.12508882772E+03 0.  0.
         23    2    1    2    0    0 -0.76699025502E+02  0.33302414314E+02 -0.15494054367E+03  0.19819858949E+03  0.91018226146E+02 0.  0.
          5    1    3    3  502    0 -0.16246563999E+01  0.37078181317E+02  0.18385695369E+01  0.37393632829E+02  0.41800000000E+01 0.  1.
         -5    1    3    3    0  502  0.78323681902E+02 -0.70380595631E+02 -0.78962269626E+02  0.13168348345E+03  0.41800000000E+01 0.  1.
        -11    1    4    4    0    0 -0.69595877391E+00  0.22388706681E+02  0.29841066866E+01  0.22597421051E+02  0.00000000000E+00 0.  1.
         11    1    4    4    0    0 -0.76003066729E+02  0.10913707633E+02 -0.15792465036E+03  0.17560116844E+03  0.00000000000E+00 0. -1.
</event>
<event>
 8    1  0.6648599E-009  0.1434855E+03  0.7561462E-02  0.1208714E+00
         -2   -1    0    0    0  501 -0.00000000000E+00  0.00000000000E+00  0.32002180035E+02  0.32002180035E+02  0.00000000000E+00 0.  1.
          2   -1    0    0  501    0  0.00000000000E+00 -0.00000000000E+00 -0.81405084106E+03  0.81405084106E+03  0.00000000000E+00 0. -1.
         25    2    1    2    0    0  0.96078274542E+02 -0.61024749713E+02 -0.31985829799E+03  0.36181754301E+03  0.12509016234E+03 0.  0.
         23    2    1    2    0    0 -0.96078274542E+02  0.61024749713E+02 -0.46219036303E+03  0.48423547809E+03  0.88932624186E+02 0.  0.
          5    1    3    3  502    0  0.93159713080E+02 -0.75142827944E+01 -0.10633668322E+03  0.14163389137E+03  0.41800000000E+01 0.  1.
         -5    1    3    3    0  502  0.29185614616E+01 -0.53510466919E+02 -0.21352161477E+03  0.22018365163E+03  0.41800000000E+01 0.  1.
        -11    1    4    4    0    0 -0.42040669800E+02  0.73068046763E+02 -0.33638434492E+03  0.34678636778E+03  0.00000000000E+00 0.  1.
         11    1    4    4    0    0 -0.54037604742E+02 -0.12043297050E+02 -0.12580601811E+03  0.13744911030E+03  0.00000000000E+00 0. -1.
</event>
<event>
 8    1  0.6648599E-009  0.1206235E+03  0.7561462E-02  0.1242072E+00
         -1   -1    0    0    0  501 -0.00000000000E+00  0.00000000000E+00  0.73441497988E+02  0.73441497988E+02  0.00000000000E+00 0. -1.
          1   -1    0    0  501    0  0.00000000000E+00 -0.00000000000E+00 -0.38422666203E+03  0.38422666203E+03  0.00000000000E+00 0.  1.
         25    2    1    2    0    0  0.31361335845E+02 -0.93139408783E+02 -0.27579377526E+03  0.31838366670E+03  0.12508984729E+03 0.  0.
         23    2    1    2    0    0 -0.31361335845E+02  0.93139408783E+02 -0.34991388780E+02  0.13928449332E+03  0.92289164776E+02 0.  0.
          5    1    3    3  502    0  0.20830728061E+02  0.11838350530E+02 -0.15935383539E+03  0.16119920294E+03  0.41800000000E+01 0.  1.
         -5    1    3    3    0  502  0.10530607784E+02 -0.10497775931E+03 -0.11643993986E+03  0.15718446376E+03  0.41800000000E+01 0.  1.
        -11    1    4    4    0    0  0.13952547785E+02  0.34616631199E+02 -0.51352174719E+02  0.63482521954E+02  0.00000000000E+00 0.  1.
         11    1    4    4    0    0 -0.45313883629E+02  0.58522777584E+02  0.16360785939E+02  0.75801971362E+02  0.00000000000E+00 0. -1.
</event>
<event>
 8    1  0.6648599E-009  0.2112753E+03  0.7561462E-02  0.1140560E+00
         -2   -1    0    0    0  501 -0.00000000000E+00  0.00000000000E+00  0.41239832515E+02  0.41239832515E+02  0.00000000000E+00 0.  1.
          2   -1    0    0  501    0  0.00000000000E+00 -0.00000000000E+00 -0.13002861025E+04  0.13002861025E+04  0.00000000000E+00 0. -1.
         25    2    1    2    0    0  0.85224508656E+02 -0.16975111271E+03 -0.87589663482E+03  0.90494274821E+03  0.12509118874E+03 0.  0.
         23    2    1    2    0    0 -0.85224508656E+02  0.16975111271E+03 -0.38314963513E+03  0.43658318677E+03  0.87878205108E+02 0.  0.
          5    1    3    3  502    0  0.40621827972E+02 -0.17413848691E+03 -0.62718956067E+03  0.65219518777E+03  0.41800000000E+01 0.  1.
         -5    1    3    3    0  502  0.44602680684E+02  0.43873742030E+01 -0.24870707415E+03  0.25274756044E+03  0.41800000000E+01 0.  1.
        -11    1    4    4    0    0 -0.50044976002E+02  0.15043731622E+03 -0.23788041917E+03  0.28587231339E+03  0.00000000000E+00 0.  1.
         11    1    4    4    0    0 -0.35179532654E+02  0.19313796484E+02 -0.14526921596E+03  0.15071087339E+03  0.00000000000E+00 0. -1.
</event>
<event>
 8    1  0.6648599E-009  0.8620867E+02  0.7561462E-02  0.1312302E+00
          1   -1    0    0  501    0  0.00000000000E+00  0.00000000000E+00  0.63451823691E+02  0.63451823691E+02  0.00000000000E+00 0. -1.
         -1   -1    0    0    0  501 -0.00000000000E+00 -0.00000000000E+00 -0.26180061557E+03  0.26180061557E+03  0.00000000000E+00 0.  1.
         25    2    1    2    0    0  0.12245435252E+02 -0.12690857956E+02 -0.23377441163E+02  0.12847573296E+03  0.12509396726E+03 0.  0.
         23    2    1    2    0    0 -0.12245435252E+02  0.12690857956E+02 -0.17497135072E+03  0.19677670630E+03  0.88289806940E+02 0.  0.
          5    1    3    3  502    0  0.67083440925E+02  0.66660565920E+01 -0.18140310266E+02  0.69936883069E+02  0.41800000000E+01 0. -1.
         -5    1    3    3    0  502 -0.54838005674E+02 -0.19356914548E+02 -0.52371308970E+01  0.58538849896E+02  0.41800000000E+01 0. -1.
        -11    1    4    4    0    0 -0.24933506894E+02  0.19967458888E+02 -0.17882128923E+03  0.18165195474E+03  0.00000000000E+00 0.  1.
         11    1    4    4    0    0  0.12688071642E+02 -0.72766009317E+01  0.38499385100E+01  0.15124751557E+02  0.00000000000E+00 0. -1.
</event>
<event>
 8    1  0.6648599E-009  0.1779900E+03  0.7561462E-02  0.1169763E+00
         -2   -1    0    0    0  501 -0.00000000000E+00  0.00000000000E+00  0.67180515526E+03  0.67180515526E+03  0.00000000000E+00 0.  1.
          2   -1    0    0  501    0  0.00000000000E+00 -0.00000000000E+00 -0.56011120442E+02  0.56011120442E+02  0.00000000000E+00 0. -1.
         25    2    1    2    0    0  0.10315911421E+03 -0.12233537359E+03  0.34111472884E+03  0.39700760495E+03  0.12509210078E+03 0.  0.
         23    2    1    2    0    0 -0.10315911421E+03  0.12233537359E+03  0.27467930598E+03  0.33080867075E+03  0.91530918480E+02 0.  0.
          5    1    3    3  502    0 -0.14075473004E+02 -0.61503752129E+01 -0.21845169185E+01  0.16068309485E+02  0.41800000000E+01 0.  1.
         -5    1    3    3    0  502  0.11723458722E+03 -0.11618499838E+03  0.34329924576E+03  0.38093929546E+03  0.41800000000E+01 0.  1.
        -11    1    4    4    0    0 -0.48154668357E+02  0.90173998109E+01  0.35544999894E+02  0.60527948928E+02  0.00000000000E+00 0. -1.
         11    1    4    4    0    0 -0.55004445854E+02  0.11331797378E+03  0.23913430608E+03  0.27028072183E+03  0.00000000000E+00 0.  1.
</event>
<event>
 8    1  0.6648599E-009  0.1661256E+03  0.7561462E-02  0.1181950E+00
          1   -1    0    0  501    0  0.00000000000E+00  0.00000000000E+00  0.27743021243E+03  0.27743021243E+03  0.00000000000E+00 0. -1.
         -1   -1    0    0    0  501 -0.00000000000E+00 -0.00000000000E+00 -0.11299001308E+03  0.11299001308E+03  0.00000000000E+00 0.  1.
         25    2    1    2    0    0  0.93584616942E+02 -0.10080537700E+03  0.63943019747E+02  0.19660910676E+03  0.12508647620E+03 0.  0.
         23    2    1    2    0    0 -0.93584616942E+02  0.10080537700E+03  0.10049717960E+03  0.19381111875E+03  0.92429768381E+02 0.  0.
          5    1    3    3  502    0 -0.30860522202E+01 -0.85185672505E+02  0.13594287146E+02  0.86419902577E+02  0.41800000000E+01 0. -1.
         -5    1    3    3    0  502  0.96670669162E+02 -0.15619704491E+02  0.50348732601E+02  0.11018920419E+03  0.41800000000E+01 0. -1.
        -11    1    4    4    0    0 -0.24015626426E+02  0.67730988168E+02  0.63154470573E+01  0.72139600375E+02  0.00000000000E+00 0.  1.
         11    1    4    4    0    0 -0.69568990516E+02  0.33074388828E+02  0.94181732547E+02  0.12167151837E+03  0.00000000000E+00 0. -1.
</event>
<event>
 8    1  0.6648599E-009  0.9836455E+02  0.7561462E-02  0.1283773E+00
         -3   -1    0    0    0  501 -0.00000000000E+00  0.00000000000E+00  0.11091268232E+03  0.11091268232E+03  0.00000000000E+00 0.  1.
          3   -1    0    0  501    0  0.00000000000E+00 -0.00000000000E+00 -0.14603487954E+03  0.14603487954E+03  0.00000000000E+00 0. -1.
         25    2    1    2    0    0 -0.55139675020E+02  0.38092208145E+01 -0.55709335264E+02  0.14766763957E+03  0.12508919944E+03 0.  0.
         23    2    1    2    0    0  0.55139675020E+02 -0.38092208145E+01  0.20587138036E+02  0.10927992229E+03  0.91996615364E+02 0.  0.
          5    1    3    3  502    0 -0.73751371761E+02 -0.99091350270E+01 -0.83068955581E+02  0.11160367187E+03  0.41800000000E+01 0.  1.
         -5    1    3    3    0  502  0.18611696741E+02  0.13718355842E+02  0.27359620318E+02  0.36063967703E+02  0.41800000000E+01 0.  1.
        -11    1    4    4    0    0  0.31423679509E+02  0.38804979529E+02  0.31851880260E+02  0.59226821173E+02  0.00000000000E+00 0.  1.
         11    1    4    4    0    0  0.23715995511E+02 -0.42614200343E+02 -0.11264742224E+02  0.50053101116E+02  0.00000000000E+00 0. -1.
</event>
<event>
 8    1  0.6648599E-009  0.1070724E+03  0.7561462E-02  0.1266089E+00
          4   -1    0    0  501    0  0.00000000000E+00  0.00000000000E+00  0.17643380703E+03  0.17643380703E+03  0.00000000000E+00 0. -1.
         -4   -1    0    0    0  501 -0.00000000000E+00 -0.00000000000E+00 -0.99339201829E+02  0.99339201829E+02  0.00000000000E+00 0.  1.
         25    2    1    2    0    0  0.19669625742E+02 -0.37110943353E+02 -0.24556633620E+02  0.13420654654E+03  0.12507698664E+03 0.  0.
         23    2    1    2    0    0 -0.19669625742E+02  0.37110943353E+02  0.10165123882E+03  0.14156646232E+03  0.89128966145E+02 0.  0.
          5    1    3    3  502    0  0.71518692386E+02 -0.82345744369E+01 -0.18195325230E+02  0.74372534157E+02  0.41800000000E+01 0.  1.
         -5    1    3    3    0  502 -0.51849066644E+02 -0.28876368916E+02 -0.63613083905E+01  0.59834012385E+02  0.41800000000E+01 0.  1.
        -11    1    4    4    0    0  0.96275091319E+01 -0.17835700523E+02 -0.22932168616E+01  0.20397548598E+02  0.00000000000E+00 0. -1.
         11    1    4    4    0    0 -0.29297134874E+02  0.54946643876E+02  0.10394445568E+03  0.12116891372E+03  0.00000000000E+00 0.  1.
</event>
<event>
 8    1  0.6648599E-009  0.1332953E+03  0.7561462E-02  0.1222646E+00
         -2   -1    0    0    0  501 -0.00000000000E+00  0.00000000000E+00  0.17692590937E+03  0.17692590937E+03  0.00000000000E+00 0.  1.
          2   -1    0    0  501    0  0.00000000000E+00 -0.00000000000E+00 -0.15155942575E+03  0.15155942575E+03  0.00000000000E+00 0. -1.
         25    2    1    2    0    0 -0.99115357803E+02 -0.48449849930E+02 -0.38140192644E+02  0.17109749585E+03  0.12509371159E+03 0.  0.
         23    2    1    2    0    0  0.99115357803E+02  0.48449849930E+02  0.63506676258E+02  0.15738783927E+03  0.92555885341E+02 0.  0.
          5    1    3    3  502    0 -0.12031507824E+03 -0.25318383742E+02 -0.55539095789E+02  0.13497704312E+03  0.41800000000E+01 0. -1.
         -5    1    3    3    0  502  0.21199720441E+02 -0.23131466187E+02  0.17398903145E+02  0.36120452730E+02  0.41800000000E+01 0. -1.
        -11    1    4    4    0    0  0.45025335738E+02  0.32478208745E+02  0.81123860820E+02  0.98301554901E+02  0.00000000000E+00 0.  1.
         11    1    4    4    0    0  0.54090022065E+02  0.15971641185E+02 -0.17617184562E+02  0.59086284373E+02  0.00000000000E+00 0. -1.
</event>
<event>
 7    1  0.6648599E-009  0.1003254E+03  0.7561462E-02  0.1279613E+00
          2   -1    0    0  501    0  0.00000000000E+00  0.00000000000E+00  0.40586789165E+03  0.40586789165E+03  0.00000000000E+00 0. -1.
         -2   -1    0    0    0  501 -0.00000000000E+00 -0.00000000000E+00 -0.35803920359E+02  0.35803920359E+02  0.00000000000E+00 0.  1.
         23    2    1    2    0    0  0.29544120508E+02 -0.42865617365E+02  0.14400792789E+03  0.17816226458E+03  0.91066969964E+02 0.  0.
          5    1    1    2  502    0 -0.15749060668E+02 -0.38967118503E+02  0.33904005999E+02  0.54161086208E+02  0.41800000000E+01 0.  1.
         -5    1    1    2    0  502 -0.13795059840E+02  0.81832735868E+02  0.19215203740E+03  0.20934846121E+03  0.41800000000E+01 0.  1.
        -11    1    3    3    0    0  0.43502082650E+02 -0.18565776381E+02  0.14244845779E+03  0.15009557746E+03  0.00000000000E+00 0. -1.
         11    1    3    3    0    0 -0.13957962142E+02 -0.24299840984E+02  0.15594700996E+01  0.28066687122E+02  0.00000000000E+00 0.  1.
</event>
<event>
 8    1  0.6648599E-009  0.9152834E+02  0.7561462E-02  0.1299192E+00
          2   -1    0    0  501    0  0.00000000000E+00  0.00000000000E+00  0.56634804266E+03  0.56634804266E+03  0.00000000000E+00 0. -1.
         -2   -1    0    0    0  501 -0.00000000000E+00 -0.00000000000E+00 -0.35305799267E+02  0.35305799267E+02  0.00000000000E+00 0.  1.
         25    2    1    2    0    0  0.51428064668E+02 -0.62642632409E+02  0.39438450312E+03  0.42161097345E+03  0.12509089254E+03 0.  0.
         23    2    1    2    0    0 -0.51428064668E+02  0.62642632409E+02  0.13665774027E+03  0.18004286848E+03  0.84682650436E+02 0.  0.
          5    1    3    3  502    0  0.34037172247E+02 -0.69820781318E+02  0.10046208397E+03  0.12705736230E+03  0.41800000000E+01 0.  1.
         -5    1    3    3    0  502  0.17390892420E+02  0.71781489086E+01  0.29392241915E+03  0.29455361114E+03  0.41800000000E+01 0.  1.
        -11    1    4    4    0    0 -0.12739572113E+02  0.44475589188E+00 -0.99395461819E+01  0.16164438862E+02  0.00000000000E+00 0.  1.
         11    1    4    4    0    0 -0.38688492555E+02  0.62197876517E+02  0.14659728646E+03  0.16387842962E+03  0.00000000000E+00 0. -1.
</event>
<event>
 8    1  0.6648599E-009  0.1146421E+03  0.7561462E-02  0.1252207E+00
         -1   -1    0    0    0  501 -0.00000000000E+00  0.00000000000E+00  0.24050731679E+02  0.24050731679E+02  0.00000000000E+00 0.  1.
          1   -1    0    0  501    0  0.00000000000E+00 -0.00000000000E+00 -0.57238318234E+03  0.57238318234E+03  0.00000000000E+00 0. -1.
         25    2    1    2    0    0 -0.25230543744E+02  0.38136366037E+02 -0.30990971413E+03  0.33731640425E+03  0.12508941966E+03 0.  0.
         23    2    1    2    0    0  0.25230543744E+02 -0.38136366037E+02 -0.23842273653E+03  0.25911750977E+03  0.90584324377E+02 0.  0.
          5    1    3    3  502    0  0.17703500405E+02 -0.37414062756E+02 -0.14520442114E+03  0.15104642444E+03  0.41800000000E+01 0. -1.
         -5    1    3    3    0  502 -0.42934044149E+02  0.75550428793E+02 -0.16470529299E+03  0.18626997981E+03  0.41800000000E+01 0. -1.
        -11    1    4    4    0    0  0.58807480092E+02 -0.30515525187E+02 -0.17160180558E+03  0.18394753782E+03  0.00000000000E+00 0.  1.
         11    1    4    4    0    0 -0.33576936348E+02 -0.76208408500E+01 -0.66820930954E+02  0.75169971952E+02  0.00000000000E+00 0. -1.
</event>
<event>
 8    1  0.6648599E-009  0.1626932E+03  0.7561462E-02  0.1185689E+00
          2   -1    0    0  501    0  0.00000000000E+00  0.00000000000E+00  0.15755923567E+04  0.15755923567E+04  0.00000000000E+00 0. -1.
         -2   -1    0    0    0  501 -0.00000000000E+00 -0.00000000000E+00 -0.18480143542E+02  0.18480143542E+02  0.00000000000E+00 0.  1.
         25    2    1    2    0    0  0.11391235404E+03  0.50230840213E+02  0.10183585006E+04  0.10335386755E+04  0.12509594790E+03 0.  0.
         23    2    1    2    0    0 -0.11391235404E+03 -0.50230840213E+02  0.53875371251E+03  0.56053382475E+03  0.91888215978E+02 0.  0.
          5    1    3    3  502    0 -0.21068848817E+02  0.25597369419E+02  0.11316436958E+03  0.11799478231E+03  0.41800000000E+01 0.  1.
         -5    1    3    3    0  502  0.13498120285E+03  0.24633470794E+02  0.90519413104E+03  0.91554389315E+03  0.41800000000E+01 0.  1.
        -11    1    4    4    0    0 -0.46325157274E+02 -0.70301625766E+02  0.29933357269E+03  0.31094843065E+03  0.00000000000E+00 0.  1.
         11    1    4    4    0    0 -0.67587196762E+02  0.20070785553E+02  0.23942013982E+03  0.24958539410E+03  0.00000000000E+00 0. -1.
</event>
<event>
 8    1  0.6648599E-009  0.1407080E+03  0.7561462E-02  0.1212379E+00
         -1   -1    0    0    0  501 -0.00000000000E+00  0.00000000000E+00  0.23973523499E+02  0.23973523499E+02  0.00000000000E+00 0.  1.
          1   -1    0    0  501    0  0.00000000000E+00 -0.00000000000E+00 -0.14140917044E+04  0.14140917044E+04  0.00000000000E+00 0. -1.
         25    2    1    2    0    0 -0.39357179403E+02  0.99759849519E+02 -0.11254766134E+04  0.11374737952E+04  0.12509201543E+03 0.  0.
         23    2    1    2    0    0  0.39357179403E+02 -0.99759849519E+02 -0.26464156748E+03  0.30059143267E+03  0.93909717337E+02 0.  0.
          5    1    3    3  502    0 -0.21034482280E+02 -0.25779928585E+02 -0.14575019091E+03  0.14955816498E+03  0.41800000000E+01 0. -1.
         -5    1    3    3    0  502 -0.18322697123E+02  0.12553977810E+03 -0.97972642252E+03  0.98791563025E+03  0.41800000000E+01 0. -1.
        -11    1    4    4    0    0 -0.10923071602E+02 -0.46228735408E+02 -0.33668680604E+02  0.58223616551E+02  0.00000000000E+00 0.  1.
         11    1    4    4    0    0  0.50280251005E+02 -0.53531114111E+02 -0.23097288687E+03  0.24236781612E+03  0.00000000000E+00 0. -1.
</event>
<event>
 8    1  0.6648599E-009  0.9883028E+02  0.7561462E-02  0.1282775E+00
         -1   -1    0    0    0  501 -0.00000000000E+00  0.00000000000E+00  0.14974062393E+02  0.14974062393E+02  0.00000000000E+00 0.  1.
          1   -1    0    0  501    0  0.00000000000E+00 -0.00000000000E+00 -0.98974029511E+03  0.98974029511E+03  0.00000000000E+00 0. -1.
         25    2    1    2    0    0  0.98405265103E+01 -0.44804323674E+02 -0.66231580409E+03  0.67558453944E+03  0.12509189505E+03 0.  0.
         23    2    1    2    0    0 -0.98405265103E+01  0.44804323674E+02 -0.31245042863E+03  0.32912981806E+03  0.92719487729E+02 0.  0.
          5    1    3    3  502    0 -0.37148772097E+02 -0.24338877876E+02 -0.55279981089E+03  0.55459671434E+03  0.41800000000E+01 0. -1.
         -5    1    3    3    0  502  0.46989298607E+02 -0.20465445798E+02 -0.10951599320E+03  0.12098782510E+03  0.41800000000E+01 0. -1.
        -11    1    4    4    0    0 -0.49723987166E+02  0.15318030901E+02 -0.19052882805E+03  0.19750531965E+03  0.00000000000E+00 0.  1.
         11    1    4    4    0    0  0.39883460656E+02  0.29486292772E+02 -0.12192160058E+03  0.13162449842E+03  0.00000000000E+00 0. -1.
</event>
<event>
 8    1  0.6648599E-009  0.1801054E+03  0.7561462E-02  0.1167701E+00
         -1   -1    0    0    0  501 -0.00000000000E+00  0.00000000000E+00  0.14688848703E+03  0.14688848703E+03  0.00000000000E+00 0.  1.
          1   -1    0    0  501    0  0.00000000000E+00 -0.00000000000E+00 -0.37920431144E+03  0.37920431144E+03  0.00000000000E+00 0. -1.
         25    2    1    2    0    0 -0.10147211958E+03  0.12206874025E+03 -0.27188738754E+03  0.33877339574E+03  0.12508914326E+03 0.  0.
         23    2    1    2    0    0  0.10147211958E+03 -0.12206874025E+03  0.39571563123E+02  0.18731940273E+03  0.91242981292E+02 0.  0.
          5    1    3    3  502    0  0.17062233441E+02  0.37103907003E+02 -0.12570954716E+03  0.13224289157E+03  0.41800000000E+01 0. -1.
         -5    1    3    3    0  502 -0.11853435302E+03  0.84964833245E+02 -0.14617784038E+03  0.20653050417E+03  0.41800000000E+01 0. -1.
        -11    1    4    4    0    0  0.20099335176E+02 -0.78345537204E+02  0.48832453554E+02  0.94480765209E+02  0.00000000000E+00 0.  1.
         11    1    4    4    0    0  0.81372784403E+02 -0.43723203043E+02 -0.92608904313E+01  0.92838637524E+02  0.00000000000E+00 0. -1.
</event>
<event>
 8    1  0.6648599E-009  0.1009667E+03  0.7561462E-02  0.1278276E+00
          1   -1    0    0  501    0  0.00000000000E+00  0.00000000000E+00  0.40978665041E+03  0.40978665041E+03  0.00000000000E+00 0. -1.
         -1   -1    0    0    0  501 -0.00000000000E+00 -0.00000000000E+00 -0.42978767564E+02  0.42978767564E+02  0.00000000000E+00 0.  1.
         25    2    1    2    0    0  0.10303688555E+02  0.53065690745E+02  0.29236819001E+03  0.32256441355E+03  0.12508600573E+03 0.  0.
         23    2    1    2    0    0 -0.10303688555E+02 -0.53065690745E+02  0.74439692839E+02  0.13020100443E+03  0.92135227526E+02 0.  0.
          5    1    3    3  502    0 -0.56346228997E+02  0.16600756349E+02  0.14986691537E+03  0.16102188471E+03  0.41800000000E+01 0. -1.
         -5    1    3    3    0  502  0.66649917552E+02  0.36464934396E+02  0.14250127464E+03  0.16154252884E+03  0.41800000000E+01 0. -1.
        -11    1    4    4    0    0  0.77770621140E+01 -0.47363071192E+02 -0.52532794909E+01  0.48283953372E+02  0.00000000000E+00 0.  1.
         11    1    4    4    0    0 -0.18080750669E+02 -0.57026195539E+01  0.79692972330E+02  0.81917051054E+02  0.00000000000E+00 0. -1.
</event>
<event>
 8    1  0.6648599E-009  0.9440294E+02  0.7561462E-02  0.1292527E+00
          2   -1    0    0  501    0  0.00000000000E+00  0.00000000000E+00  0.50856380258E+02  0.50856380258E+02  0.00000000000E+00 0. -1.
         -2   -1    0    0    0  501 -0.00000000000E+00 -0.00000000000E+00 -0.28712794721E+03  0.28712794721E+03  0.00000000000E+00 0.  1.
         25    2    1    2    0    0 -0.39138552471E+02 -0.42077535702E+02 -0.15916781121E+03  0.21043781902E+03  0.12508932108E+03 0.  0.
         23    2    1    2    0    0  0.39138552471E+02  0.42077535702E+02 -0.77103755743E+02  0.12754650845E+03  0.83790079170E+02 0.  0.
          5    1    3    3  502    0  0.24330635680E+02 -0.14534837753E+02  0.77691222171E+01  0.29682873869E+02  0.41800000000E+01 0.  1.
         -5    1    3    3    0  502 -0.63469188151E+02 -0.27542697949E+02 -0.16693693342E+03  0.18075494515E+03  0.41800000000E+01 0.  1.
        -11    1    4    4    0    0  0.59810485002E+02  0.30196088601E+02 -0.27337212418E+02  0.72363119513E+02  0.00000000000E+00 0. -1.
         11    1    4    4    0    0 -0.20671932531E+02  0.11881447101E+02 -0.49766543325E+02  0.55183388935E+02  0.00000000000E+00 0.  1.
</event>
<event>
 8    1  0.6648599E-009  0.9176556E+02  0.7561462E-02  0.1298632E+00
          2   -1    0    0  501    0  0.00000000000E+00  0.00000000000E+00  0.97094465813E+03  0.97094465813E+03  0.00000000000E+00 0. -1.
         -2   -1    0    0    0  501 -0.00000000000E+00 -0.00000000000E+00 -0.38405861799E+02  0.38405861799E+02  0.00000000000E+00 0.  1.
         25    2    1    2    0    0 -0.18251669442E+02 -0.31974994929E+02  0.89467455728E+03  0.90412760495E+03  0.12509451961E+03 0.  0.
         23    2    1    2    0    0  0.18251669442E+02  0.31974994929E+02  0.37864239048E+02  0.10522291498E+03  0.91008996814E+02 0.  0.
          5    1    3    3  502    0 -0.16402953047E+02  0.26085425430E+02  0.70563795807E+03  0.70632280620E+03  0.41800000000E+01 0. -1.
         -5    1    3    3    0  502 -0.18487163944E+01 -0.58060420359E+02  0.18903659921E+03  0.19780479874E+03  0.41800000000E+01 0. -1.
        -11    1    4    4    0    0  0.14857845640E+02 -0.29286251089E+02 -0.53186589989E+00  0.32843918177E+02  0.00000000000E+00 0.  1.
         11    1    4    4    0    0  0.33938238017E+01  0.61261246018E+02  0.38396104948E+02  0.72378996808E+02  0.00000000000E+00 0. -1.
</event>
<event>
 8    1  0.6648599E-009  0.1105842E+03  0.7561462E-02  0.1259492E+00
          2   -1    0    0  501    0  0.00000000000E+00  0.00000000000E+00  0.14565905994E+03  0.14565905994E+03  0.00000000000E+00 0. -1.
         -2   -1    0    0    0  501 -0.00000000000E+00 -0.00000000000E+00 -0.13403737541E+03  0.13403737541E+03  0.00000000000E+00 0.  1.
         25    2    1    2    0    0 -0.55915324619E+02  0.63628483601E+02  0.27632497460E+02  0.15358037675E+03  0.12509304439E+03 0.  0.
         23    2    1    2    0    0  0.55915324619E+02 -0.63628483601E+02 -0.16010812926E+02  0.12611605860E+03  0.92053281597E+02 0.  0.
          5    1    3    3  502    0 -0.36819188840E+02  0.88154081520E+01  0.71291767925E+02  0.80829157249E+02  0.41800000000E+01 0.  1.
         -5    1    3    3    0  502 -0.19096135779E+02  0.54813075449E+02 -0.43659270465E+02  0.72751219505E+02  0.41800000000E+01 0.  1.
        -11    1    4    4    0    0  0.30857642558E+02  0.20537446764E+02 -0.81138517105E+01  0.37944899702E+02  0.00000000000E+00 0. -1.
         11    1    4    4    0    0  0.25057682061E+02 -0.84165930365E+02 -0.78969612150E+01  0.88171158895E+02  0.00000000000E+00 0.  1.
</event>
<event>
 8    1  0.6648599E-009  0.1415709E+03  0.7561462E-02  0.1211231E+00
          2   -1    0    0  501    0  0.00000000000E+00  0.00000000000E+00  0.29215319510E+03  0.29215319510E+03  0.00000000000E+00 0. -1.
         -2   -1    0    0    0  501 -0.00000000000E+00 -0.00000000000E+00 -0.97955848126E+02  0.97955848126E+02  0.00000000000E+00 0.  1.
         25    2    1    2    0    0 -0.57357564718E+02 -0.80374134652E+02  0.19968307827E+03  0.25548175173E+03  0.12509077492E+03 0.  0.
         23    2    1    2    0    0  0.57357564718E+02  0.80374134652E+02 -0.54857312888E+01  0.13462729150E+03  0.91348358588E+02 0.  0.
          5    1    3    3  502    0  0.27945892205E+02 -0.51317272176E+02  0.36502004775E+02  0.69023938364E+02  0.41800000000E+01 0. -1.
         -5    1    3    3    0  502 -0.85303456923E+02 -0.29056862476E+02  0.16318107349E+03  0.18645781337E+03  0.41800000000E+01 0. -1.
        -11    1    4    4    0    0 -0.33119773995E+01  0.73175993428E+02 -0.63548784830E+01  0.73526047691E+02  0.00000000000E+00 0.  1.
         11    1    4    4    0    0  0.60669542118E+02  0.71981412237E+01  0.86914719417E+00  0.61101243806E+02  0.00000000000E+00 0. -1.
</event>
<event>
 7    1  0.6648599E-009  0.1967867E+03  0.7561462E-02  0.1152479E+00
         -1   -1    0    0    0  501 -0.00000000000E+00  0.00000000000E+00  0.64929183900E+02  0.64929183900E+02  0.00000000000E+00 0.  1.
          1   -1    0    0  501    0  0.00000000000E+00 -0.00000000000E+00 -0.75477315336E+03  0.75477315336E+03  0.00000000000E+00 0. -1.
         23    2    1    2    0    0  0.14925260442E+03 -0.11134893836E+03 -0.42457854035E+03  0.47243106935E+03  0.90825394901E+02 0.  0.
          5    1    1    2  502    0 -0.11481890607E+03  0.10644871108E+03 -0.11855606367E+03  0.19643757765E+03  0.41800000000E+01 0. -1.
         -5    1    1    2    0  502 -0.34433698348E+02  0.49002272786E+01 -0.14670936545E+03  0.15083369026E+03  0.41800000000E+01 0. -1.
        -11    1    3    3    0    0  0.31399120721E+00 -0.34162356151E+02 -0.11933900423E+03  0.12413284456E+03  0.00000000000E+00 0. -1.
         11    1    3    3    0    0  0.14893861321E+03 -0.77186582209E+02 -0.30523953612E+03  0.34829822479E+03  0.00000000000E+00 0.  1.
</event>
<event>
 8    1  0.6648599E-009  0.1230241E+03  0.7561462E-02  0.1238190E+00
         -1   -1    0    0    0  501 -0.00000000000E+00  0.00000000000E+00  0.15317141411E+02  0.15317141411E+02  0.00000000000E+00 0.  1.
          1   -1    0    0  501    0  0.00000000000E+00 -0.00000000000E+00 -0.15667983104E+04  0.15667983104E+04  0.00000000000E+00 0. -1.
         25    2    1    2    0    0 -0.86860421165E+02  0.34796638923E+02 -0.11172253735E+04  0.11280942310E+04  0.12509404446E+03 0.  0.
         23    2    1    2    0    0  0.86860421165E+02 -0.34796638923E+02 -0.43425579546E+03  0.45402122079E+03  0.93817025065E+02 0.  0.
          5    1    3    3  502    0 -0.40687229663E+02 -0.32224733963E+02 -0.75595948345E+03  0.75775068272E+03  0.41800000000E+01 0.  1.
         -5    1    3    3    0  502 -0.46173191502E+02  0.67021372886E+02 -0.36126589005E+03  0.37034354827E+03  0.41800000000E+01 0.  1.
        -11    1    4    4    0    0  0.62010220501E+01 -0.31128896461E+02 -0.37484454660E+02  0.49117666990E+02  0.00000000000E+00 0.  1.
         11    1    4    4    0    0  0.80659399115E+02 -0.36677424618E+01 -0.39677134080E+03  0.40490355380E+03  0.00000000000E+00 0. -1.
</event>
<event>
 8    1  0.6648599E-009  0.1296218E+03  0.7561462E-02  0.1228018E+00
         -1   -1    0    0    0  501 -0.00000000000E+00  0.00000000000E+00  0.20901523308E+03  0.20901523308E+03  0.00000000000E+00 0.  1.
          1   -1    0    0  501    0  0.00000000000E+00 -0.00000000000E+00 -0.95685573847E+02  0.95685573847E+02  0.00000000000E+00 0. -1.
         25    2    1    2    0    0  0.13637704344E+00  0.90830974026E+02  0.48903794898E+02  0.16214852224E+03  0.12510106982E+03 0.  0.
         23    2    1    2    0    0 -0.13637704344E+00 -0.90830974026E+02  0.64425864332E+02  0.14255228468E+03  0.88995378707E+02 0.  0.
          5    1    3    3  502    0  0.10350364848E+02  0.11393101600E+03  0.65257196457E+02  0.13177018080E+03  0.41800000000E+01 0. -1.
         -5    1    3    3    0  502 -0.10213987804E+02 -0.23100041975E+02 -0.16353401560E+02  0.30378341441E+02  0.41800000000E+01 0. -1.
        -11    1    4    4    0    0  0.30039015122E+02 -0.82593607680E+02  0.23374183768E+02  0.90941733687E+02  0.00000000000E+00 0. -1.
         11    1    4    4    0    0 -0.30175392165E+02 -0.82373663458E+01  0.41051680564E+02  0.51610550993E+02  0.00000000000E+00 0.  1.
</event>
<event>
 8    1  0.6648599E-009  0.1030749E+03  0.7561462E-02  0.1273960E+00
          2   -1    0    0  501    0  0.00000000000E+00  0.00000000000E+00  0.44088235449E+03  0.44088235449E+03  0.00000000000E+00 0.  1.
         -2   -1    0    0    0  501 -0.00000000000E+00 -0.00000000000E+00 -0.38346610506E+02  0.38346610506E+02  0.00000000000E+00 0. -1.
         25    2    1    2    0    0  0.40271529731E+01  0.68162363060E+02  0.18877496101E+03  0.23650776135E+03  0.12505042814E+03 0.  0.
         23    2    1    2    0    0 -0.40271529731E+01 -0.68162363060E+02  0.21376078298E+03  0.24272120365E+03  0.92507214101E+02 0.  0.
          5    1    3    3  502    0 -0.28677144909E+02  0.58391498776E+02  0.19122712653E+03  0.20203275005E+03  0.41800000000E+01 0.  1.
         -5    1    3    3    0  502  0.32704297882E+02  0.97708642839E+01 -0.24521655237E+01  0.34475011306E+02  0.41800000000E+01 0.  1.
        -11    1    4    4    0    0 -0.21963784294E+02 -0.81381268448E+02  0.19866369113E+03  0.21580681372E+03  0.00000000000E+00 0.  1.
         11    1    4    4    0    0  0.17936631321E+02  0.13218905388E+02  0.15097091849E+02  0.26914389926E+02  0.00000000000E+00 0. -1.
</event>
<event>
 8    1  0.6648599E-009  0.1054796E+03  0.7561462E-02  0.1269178E+00
         -1   -1    0    0    0  501 -0.00000000000E+00  0.00000000000E+00  0.93043959017E+02  0.93043959017E+02  0.00000000000E+00 0.  1.
          1   -1    0    0  501    0  0.00000000000E+00 -0.00000000000E+00 -0.13714857595E+03  0.13714857595E+03  0.00000000000E+00 0. -1.
         25    2    1    2    0    0  0.24898737552E+02 -0.13839312259E+02 -0.65269162052E+01  0.12845948398E+03  0.12509102563E+03 0.  0.
         23    2    1    2    0    0 -0.24898737552E+02  0.13839312259E+02 -0.37577700729E+02  0.10173305099E+03  0.90144641415E+02 0.  0.
          5    1    3    3  502    0  0.67367838335E+02  0.14963295342E+02  0.17985408266E+02  0.71437197312E+02  0.41800000000E+01 0. -1.
         -5    1    3    3    0  502 -0.42469100782E+02 -0.28802607601E+02 -0.24512324471E+02  0.57022286668E+02  0.41800000000E+01 0. -1.
        -11    1    4    4    0    0  0.30379680799E+02 -0.71489259481E+01 -0.27811379344E+02  0.41803169361E+02  0.00000000000E+00 0.  1.
         11    1    4    4    0    0 -0.55278418351E+02  0.20988238207E+02 -0.97663213852E+01  0.59929881627E+02  0.00000000000E+00 0. -1.
</event>
<event>
 8    1  0.6648599E-009  0.3184248E+03  0.7561462E-02  0.1076377E+00
          2   -1    0    0  501    0  0.00000000000E+00  0.00000000000E+00  0.13949174419E+04  0.13949174419E+04  0.00000000000E+00 0.  1.
         -2   -1    0    0    0  501 -0.00000000000E+00 -0.00000000000E+00 -0.82120000532E+02  0.82120000532E+02  0.00000000000E+00 0. -1.
         25    2    1    2    0    0  0.26806205580E+03 -0.14522268105E+03  0.88333508293E+03  0.94280068491E+03  0.12508145297E+03 0.  0.
         23    2    1    2    0    0 -0.26806205580E+03  0.14522268105E+03  0.42946235839E+03  0.53423675748E+03  0.89577357133E+02 0.  0.
          5    1    3    3  502    0  0.21729986631E+03 -0.55851265594E+02  0.55215025166E+03  0.59600836284E+03  0.41800000000E+01 0.  1.
         -5    1    3    3    0  502  0.50762189491E+02 -0.89371415456E+02  0.33118483127E+03  0.34679232207E+03  0.41800000000E+01 0.  1.
        -11    1    4    4    0    0 -0.19632690497E+03  0.77943994410E+02  0.34533565060E+03  0.40481629347E+03  0.00000000000E+00 0.  1.
         11    1    4    4    0    0 -0.71735150829E+02  0.67278686641E+02  0.84126707792E+02  0.12942046401E+03  0.00000000000E+00 0. -1.
</event>
<event>
 8    1  0.6648599E-009  0.6752051E+02  0.7561462E-02  0.1368734E+00
          2   -1    0    0  501    0  0.00000000000E+00  0.00000000000E+00  0.14324178488E+03  0.14324178488E+03  0.00000000000E+00 0.  1.
         -2   -1    0    0    0  501 -0.00000000000E+00 -0.00000000000E+00 -0.92267251221E+02  0.92267251221E+02  0.00000000000E+00 0. -1.
         25    2    1    2    0    0  0.32487889717E+01 -0.35475466453E+02  0.46838496142E+02  0.13823845261E+03  0.12508781599E+03 0.  0.
         23    2    1    2    0    0 -0.32487889717E+01  0.35475466453E+02  0.41360375203E+01  0.97270583492E+02  0.90417897878E+02 0.  0.
          5    1    3    3  502    0 -0.54802530929E+01 -0.24248479448E+02  0.89548616903E+02  0.93029291725E+02  0.41800000000E+01 0.  1.
         -5    1    3    3    0  502  0.87290420646E+01 -0.11226987004E+02 -0.42710120762E+02  0.45209160886E+02  0.41800000000E+01 0.  1.
        -11    1    4    4    0    0  0.36970247120E+02  0.40080466858E+02 -0.77604941603E+01  0.55076930428E+02  0.00000000000E+00 0.  1.
         11    1    4    4    0    0 -0.40219036092E+02 -0.46050004052E+01  0.11896531681E+02  0.42193653065E+02  0.00000000000E+00 0. -1.
</event>
<event>
 8    1  0.6648599E-009  0.8422079E+02  0.7561462E-02  0.1317483E+00
         -1   -1    0    0    0  501 -0.00000000000E+00  0.00000000000E+00  0.60854071981E+02  0.60854071981E+02  0.00000000000E+00 0.  1.
          1   -1    0    0  501    0  0.00000000000E+00 -0.00000000000E+00 -0.27134779635E+03  0.27134779635E+03  0.00000000000E+00 0. -1.
         25    2    1    2    0    0  0.48604606035E+02  0.28899502014E+02 -0.16586579891E+03  0.21530560476E+03  0.12508977276E+03 0.  0.
         23    2    1    2    0    0 -0.48604606035E+02 -0.28899502014E+02 -0.44627925460E+02  0.11689626357E+03  0.92062455764E+02 0.  0.
          5    1    3    3  502    0 -0.41649590508E+00 -0.11840365679E+01 -0.15688159865E+03  0.15694229451E+03  0.41800000000E+01 0.  1.
         -5    1    3    3    0  502  0.49021101940E+02  0.30083538582E+02 -0.89842002590E+01  0.58363310250E+02  0.41800000000E+01 0.  1.
        -11    1    4    4    0    0 -0.63464166232E+02 -0.49865954481E+02 -0.24792434473E+02  0.84433279096E+02  0.00000000000E+00 0.  1.
         11    1    4    4    0    0  0.14859560197E+02  0.20966452466E+02 -0.19835490987E+02  0.32462984474E+02  0.00000000000E+00 0. -1.
</event>
<event>
 8    1  0.6648599E-009  0.1151682E+03  0.7561462E-02  0.1251288E+00
          1   -1    0    0  501    0  0.00000000000E+00  0.00000000000E+00  0.29584015204E+02  0.29584015204E+02  0.00000000000E+00 0. -1.
         -1   -1    0    0    0  501 -0.00000000000E+00 -0.00000000000E+00 -0.58830869521E+03  0.58830869521E+03  0.00000000000E+00 0.  1.
         25    2    1    2    0    0 -0.51128793692E+02 -0.95264531472E+01 -0.43585717064E+03  0.45642795807E+03  0.12510036311E+03 0.  0.
         23    2    1    2    0    0  0.51128793692E+02  0.95264531472E+01 -0.12286750936E+03  0.16146475234E+03  0.90936981143E+02 0.  0.
          5    1    3    3  502    0  0.23209510185E+02 -0.46582946099E+02 -0.15960290168E+03  0.16792620657E+03  0.41800000000E+01 0. -1.
         -5    1    3    3    0  502 -0.74338303877E+02  0.37056492952E+02 -0.27625426897E+03  0.28850175149E+03  0.41800000000E+01 0. -1.
        -11    1    4    4    0    0  0.45057504887E+02 -0.30540297580E+02 -0.10262295923E+03  0.11616522838E+03  0.00000000000E+00 0.  1.
         11    1    4    4    0    0  0.60712888050E+01  0.40066750727E+02 -0.20244550129E+02  0.45299523966E+02  0.00000000000E+00 0. -1.
</event>
<event>
 7    1  0.6648599E-009  0.1647754E+03  0.7561462E-02  0.1183408E+00
          4   -1    0    0  501    0  0.00000000000E+00  0.00000000000E+00  0.33633466048E+03  0.33633466048E+03  0.00000000000E+00 0. -1.
         -4   -1    0    0    0  501 -0.00000000000E+00 -0.00000000000E+00 -0.12474868782E+03  0.12474868782E+03  0.00000000000E+00 0.  1.
         23    2    1    2    0    0 -0.35484982892E+02  0.13566288790E+03  0.21681614614E+03  0.27323073015E+03  0.89343088749E+02 0.  0.
          5    1    1    2  502    0  0.71991553604E+02 -0.34158943403E+02 -0.40291283094E+01  0.79895703762E+02  0.41800000000E+01 0. -1.
         -5    1    1    2    0  502 -0.36506570712E+02 -0.10150394450E+03 -0.12010451726E+01  0.10795691438E+03  0.41800000000E+01 0. -1.
        -11    1    3    3    0    0  0.76261925881E+00  0.31637712280E+02  0.18722267454E+01  0.31702234297E+02  0.00000000000E+00 0.  1.
         11    1    3    3    0    0 -0.36247602151E+02  0.10402517562E+03  0.21494391940E+03  0.24152849585E+03  0.00000000000E+00 0. -1.
</event>
<event>
 8    1  0.6648599E-009  0.1927107E+03  0.7561462E-02  0.1156039E+00
          2   -1    0    0  501    0  0.00000000000E+00  0.00000000000E+00  0.21972922490E+03  0.21972922490E+03  0.00000000000E+00 0.  1.
         -2   -1    0    0    0  501 -0.00000000000E+00 -0.00000000000E+00 -0.21681385356E+03  0.21681385356E+03  0.00000000000E+00 0. -1.
         25    2    1    2    0    0 -0.13603411231E+03  0.12237670700E+03  0.51145700536E+02  0.22747448712E+03  0.12508965375E+03 0.  0.
         23    2    1    2    0    0  0.13603411231E+03 -0.12237670700E+03 -0.48230329197E+02  0.20906859134E+03  0.88894167991E+02 0.  0.
          5    1    3    3  502    0 -0.41838798933E+02  0.86709065485E+02  0.77059897072E+02  0.12338819745E+03  0.41800000000E+01 0. -1.
         -5    1    3    3    0  502 -0.94195313380E+02  0.35667641516E+02 -0.25914196536E+02  0.10408628967E+03  0.41800000000E+01 0. -1.
        -11    1    4    4    0    0  0.20083878085E+02 -0.43784201647E+02  0.21318351999E+02  0.52677230420E+02  0.00000000000E+00 0.  1.
         11    1    4    4    0    0  0.11595023423E+03 -0.78592505355E+02 -0.69548681196E+02  0.15639136092E+03  0.00000000000E+00 0. -1.
</event>
<event>
 8    1  0.6648599E-009  0.1360214E+03  0.7561462E-02  0.1218785E+00
          2   -1    0    0  501    0  0.00000000000E+00  0.00000000000E+00  0.35109272023E+02  0.35109272023E+02  0.00000000000E+00 0. -1.
         -2   -1    0    0    0  501 -0.00000000000E+00 -0.00000000000E+00 -0.58279815113E+03  0.58279815113E+03  0.00000000000E+00 0.  1.
         25    2    1    2    0    0 -0.90926043636E+02 -0.35112805812E+01 -0.26930472382E+03  0.31056901766E+03  0.12509278938E+03 0.  0.
         23    2    1    2    0    0  0.90926043636E+02  0.35112805812E+01 -0.27838415529E+03  0.30733840549E+03  0.93162669962E+02 0.  0.
          5    1    3    3  502    0 -0.40749680204E+02 -0.63692263620E+02 -0.11988708195E+03  0.14180136001E+03  0.41800000000E+01 0. -1.
         -5    1    3    3    0  502 -0.50176363432E+02  0.60180983038E+02 -0.14941764187E+03  0.16876765765E+03  0.41800000000E+01 0. -1.
        -11    1    4    4    0    0  0.40135229386E+02  0.38941086479E+02 -0.68063307467E+02  0.88090060037E+02  0.00000000000E+00 0. -1.
         11    1    4    4    0    0  0.50790814250E+02 -0.35429805897E+02 -0.21032084782E+03  0.21924834546E+03  0.00000000000E+00 0.  1.
</event>
<event>
 8    1  0.6648599E-009  0.4196479E+03  0.7561462E-02  0.1037181E+00
          1   -1    0    0  501    0  0.00000000000E+00  0.00000000000E+00  0.28930374590E+03  0.28930374590E+03  0.00000000000E+00 0. -1.
         -1   -1    0    0    0  501 -0.00000000000E+00 -0.00000000000E+00 -0.68831188021E+03  0.68831188021E+03  0.00000000000E+00 0.  1.
         25    2    1    2    0    0  0.35103331934E+03  0.20934236293E+03 -0.46291622769E+02  0.42993246494E+03  0.12510153424E+03 0.  0.
         23    2    1    2    0    0 -0.35103331934E+03 -0.20934236293E+03 -0.35271651154E+03  0.54768316116E+03  0.92191601079E+02 0.  0.
          5    1    3    3  502    0  0.30724506170E+03  0.13026456699E+03 -0.57805762682E+02  0.33871428070E+03  0.41800000000E+01 0.  1.
         -5    1    3    3    0  502  0.43788257636E+02  0.79077795939E+02  0.11514139913E+02  0.91218184235E+02  0.41800000000E+01 0.  1.
        -11    1    4    4    0    0 -0.24096866075E+03 -0.18109016324E+03 -0.22124775335E+03  0.37391190279E+03  0.00000000000E+00 0.  1.
         11    1    4    4    0    0 -0.11006465859E+03 -0.28252199687E+02 -0.13146875819E+03  0.17377125837E+03  0.00000000000E+00 0. -1.
</event>
<event>
 8    1  0.6648599E-009  0.7630886E+02  0.7561462E-02  0.1339865E+00
          1   -1    0    0  501    0  0.00000000000E+00  0.00000000000E+00  0.20887491371E+03  0.20887491371E+03  0.00000000000E+00 0. -1.
         -1   -1    0    0    0  501 -0.00000000000E+00 -0.00000000000E+00 -0.61248356085E+02  0.61248356085E+02  0.00000000000E+00 0.  1.
         25    2    1    2    0    0 -0.43919878611E+00 -0.15705385514E+02  0.12023097455E+03  0.17421065648E+03  0.12508802326E+03 0.  0.
         23    2    1    2    0    0  0.43919878611E+00  0.15705385514E+02  0.27395583082E+02  0.95912613313E+02  0.90564117566E+02 0.  0.
          5    1    3    3  502    0  0.17988935465E+02  0.18645619916E+02 -0.17146341394E+02  0.31348530498E+02  0.41800000000E+01 0. -1.
         -5    1    3    3    0  502 -0.18428134251E+02 -0.34351005430E+02  0.13737731594E+03  0.14286212599E+03  0.41800000000E+01 0. -1.
        -11    1    4    4    0    0 -0.35555343318E+02  0.31835595178E+02 -0.28404553377E+00  0.47725970295E+02  0.00000000000E+00 0.  1.
         11    1    4    4    0    0  0.35994542104E+02 -0.16130209664E+02  0.27679628615E+02  0.48186643018E+02  0.00000000000E+00 0. -1.
</event>
<event>
 8    1  0.6648599E-009  0.9191750E+02  0.7561462E-02  0.1298274E+00
         -2   -1    0    0    0  501 -0.00000000000E+00  0.00000000000E+00  0.69855082067E+02  0.69855082067E+02  0.00000000000E+00 0.  1.
          2   -1    0    0  501    0  0.00000000000E+00 -0.00000000000E+00 -0.24678722003E+03  0.24678722003E+03  0.00000000000E+00 0. -1.
         25    2    1    2    0    0  0.65856827301E+02 -0.23485665201E+02 -0.72501342791E+02  0.16059650476E+03  0.12508434939E+03 0.  0.
         23    2    1    2    0    0 -0.65856827301E+02  0.23485665201E+02 -0.10443079517E+03  0.15604579734E+03  0.92497576805E+02 0.  0.
          5    1    3    3  502    0  0.30627054788E+02 -0.31287977190E+02 -0.10374536813E+03  0.11268330759E+03  0.41800000000E+01 0.  1.
         -5    1    3    3    0  502  0.35229772513E+02  0.78023119894E+01  0.31244025336E+02  0.47913197168E+02  0.41800000000E+01 0.  1.
        -11    1    4    4    0    0 -0.17849938645E+01 -0.23818909404E+02  0.10098480223E+01  0.23907037485E+02  0.00000000000E+00 0.  1.
         11    1    4    4    0    0 -0.64071833437E+02  0.47304574604E+02 -0.10544064320E+03  0.13213875986E+03  0.00000000000E+00 0. -1.
</event>
<event>
 8    1  0.6648599E-009  0.1327706E+03  0.7561462E-02  0.1223402E+00
          2   -1    0    0  501    0  0.00000000000E+00  0.00000000000E+00  0.73637912258E+02  0.73637912258E+02  0.00000000000E+00 0. -1.
         -2   -1    0    0    0  501 -0.00000000000E+00 -0.00000000000E+00 -0.25744048677E+03  0.25744048677E+03  0.00000000000E+00 0.  1.
         25    2    1    2    0    0  0.75361661470E+02 -0.19441483206E+02 -0.13049807639E+03  0.19680723947E+03  0.12508393293E+03 0.  0.
         23    2    1    2    0    0 -0.75361661470E+02  0.19441483206E+02 -0.53304498126E+02  0.13427115956E+03  0.95551156356E+02 0.  0.
          5    1    3    3  502    0  0.66762896158E+02  0.44460641381E+02 -0.89631021623E+02  0.12035458185E+03  0.41800000000E+01 0. -1.
         -5    1    3    3    0  502  0.85987653122E+01 -0.63902124587E+02 -0.40867054767E+02  0.76452657618E+02  0.41800000000E+01 0. -1.
        -11    1    4    4    0    0 -0.86172833855E+02  0.41796686187E+02 -0.52949186347E+02  0.10943645008E+03  0.00000000000E+00 0.  1.
         11    1    4    4    0    0  0.10811172386E+02 -0.22355202981E+02 -0.35531177916E+00  0.24834709484E+02  0.00000000000E+00 0. -1.
</event>
<event>
 8    1  0.6648599E-009  0.8072162E+02  0.7561462E-02  0.1327016E+00
         -2   -1    0    0    0  501 -0.00000000000E+00  0.00000000000E+00  0.10545225319E+03  0.10545225319E+03  0.00000000000E+00 0. -1.
          2   -1    0    0  501    0  0.00000000000E+00 -0.00000000000E+00 -0.14027586225E+03  0.14027586225E+03  0.00000000000E+00 0.  1.
         25    2    1    2    0    0 -0.18684445983E+02  0.27338063809E+02  0.22563778474E+02  0.13135610157E+03  0.12509525597E+03 0.  0.
         23    2    1    2    0    0  0.18684445983E+02 -0.27338063809E+02 -0.57387387542E+02  0.11437201387E+03  0.93226428945E+02 0.  0.
          5    1    3    3  502    0 -0.98467301505E+01 -0.16150702192E+02  0.66201363911E+02  0.68977505461E+02  0.41800000000E+01 0.  1.
         -5    1    3    3    0  502 -0.88377158329E+01  0.43488766001E+02 -0.43637585437E+02  0.62378596107E+02  0.41800000000E+01 0.  1.
        -11    1    4    4    0    0  0.25718537201E+02  0.30122163742E+02 -0.13929500007E+02  0.41985936630E+02  0.00000000000E+00 0. -1.
         11    1    4    4    0    0 -0.70340912173E+01 -0.57460227551E+02 -0.43457887535E+02  0.72386077242E+02  0.00000000000E+00 0.  1.
</event>
<event>
 8    1  0.6648599E-009  0.2041639E+03  0.7561462E-02  0.1146273E+00
         -2   -1    0    0    0  501 -0.00000000000E+00  0.00000000000E+00  0.77021930892E+02  0.77021930892E+02  0.00000000000E+00 0.  1.
          2   -1    0    0  501    0  0.00000000000E+00 -0.00000000000E+00 -0.10539652759E+04  0.10539652759E+04  0.00000000000E+00 0. -1.
         25    2    1    2    0    0  0.18768846933E+03 -0.25174321978E+02 -0.86156502627E+03  0.89095618414E+03  0.12509164460E+03 0.  0.
         23    2    1    2    0    0 -0.18768846933E+03  0.25174321978E+02 -0.11537831870E+03  0.24003102262E+03  0.91880506023E+02 0.  0.
          5    1    3    3  502    0  0.20967364420E+02 -0.28824557655E+02 -0.45161480032E+02  0.57684635506E+02  0.41800000000E+01 0.  1.
         -5    1    3    3    0  502  0.16672110491E+03  0.36502356769E+01 -0.81640354624E+03  0.83327154863E+03  0.41800000000E+01 0.  1.
        -11    1    4    4    0    0 -0.10301322810E+03 -0.26579873440E+02 -0.85219208273E+02  0.13631041154E+03  0.00000000000E+00 0. -1.
         11    1    4    4    0    0 -0.84675241226E+02  0.51754195418E+02 -0.30159110425E+02  0.10372061107E+03  0.00000000000E+00 0.  1.
</event>
<event>
 8    1  0.6648599E-009  0.1422999E+03  0.7561462E-02  0.1210267E+00
          1   -1    0    0  501    0  0.00000000000E+00  0.00000000000E+00  0.18230614859E+04  0.18230614859E+04  0.00000000000E+00 0. -1.
         -1   -1    0    0    0  501 -0.00000000000E+00 -0.00000000000E+00 -0.31175665681E+02  0.31175665681E+02  0.00000000000E+00 0.  1.
         25    2    1    2    0    0 -0.11207061642E+03  0.14364271404E+01  0.16277293988E+04  0.16363717982E+04  0.12509108588E+03 0.  0.
         23    2    1    2    0    0  0.11207061642E+03 -0.14364271404E+01  0.16415642140E+03  0.21786535338E+03  0.89196945742E+02 0.  0.
          5    1    3    3  502    0 -0.13148852860E+03  0.25053201217E+02  0.14289092150E+04  0.14351710397E+04  0.41800000000E+01 0.  1.
         -5    1    3    3    0  502  0.19417912181E+02 -0.23616774076E+02  0.19882018384E+03  0.20120075853E+03  0.41800000000E+01 0.  1.
        -11    1    4    4    0    0  0.24855223625E+02 -0.18459648336E+02  0.10892206413E+03  0.11323672908E+03  0.00000000000E+00 0. -1.
         11    1    4    4    0    0  0.87215392797E+02  0.17023221195E+02  0.55234357266E+02  0.10462862430E+03  0.00000000000E+00 0.  1.
</event>
<event>
 8    1  0.6648599E-009  0.1090872E+03  0.7561462E-02  0.1262270E+00
         -2   -1    0    0    0  501 -0.00000000000E+00  0.00000000000E+00  0.12233936639E+03  0.12233936639E+03  0.00000000000E+00 0.  1.
          2   -1    0    0  501    0  0.00000000000E+00 -0.00000000000E+00 -0.10894467133E+03  0.10894467133E+03  0.00000000000E+00 0. -1.
         25    2    1    2    0    0 -0.19905407443E+02  0.25136849030E+02  0.34111636606E+02  0.13356594758E+03  0.12509265437E+03 0.  0.
         23    2    1    2    0    0  0.19905407443E+02 -0.25136849030E+02 -0.20716941546E+02  0.97718090140E+02  0.89953026903E+02 0.  0.
          5    1    3    3  502    0  0.20117888308E+02 -0.42332092846E+02  0.28033282137E+02  0.54772920518E+02  0.41800000000E+01 0. -1.
         -5    1    3    3    0  502 -0.40023295751E+02  0.67468941875E+02  0.60783544692E+01  0.78793027062E+02  0.41800000000E+01 0. -1.
        -11    1    4    4    0    0 -0.30667606237E+02  0.84991160257E+01 -0.18776527484E+02  0.36949898916E+02  0.00000000000E+00 0. -1.
         11    1    4    4    0    0  0.50573013680E+02 -0.33635965055E+02 -0.19404140624E+01  0.60768191224E+02  0.00000000000E+00 0.  1.
</event>
<event>
 8    1  0.6648599E-009  0.1278270E+03  0.7561462E-02  0.1230716E+00
         -2   -1    0    0    0  501 -0.00000000000E+00  0.00000000000E+00  0.15041809753E+02  0.15041809753E+02  0.00000000000E+00 0.  1.
          2   -1    0    0  501    0  0.00000000000E+00 -0.00000000000E+00 -0.16142485304E+04  0.16142485304E+04  0.00000000000E+00 0. -1.
         25    2    1    2    0    0  0.50381137154E+02  0.98935257796E+02 -0.96191610128E+03  0.97634879753E+03  0.12509174358E+03 0.  0.
         23    2    1    2    0    0 -0.50381137154E+02 -0.98935257796E+02 -0.63729061937E+03  0.65294154263E+03  0.88695435842E+02 0.  0.
          5    1    3    3  502    0  0.45464182986E+02  0.65162648012E+02 -0.91353957710E+03  0.91699792473E+03  0.41800000000E+01 0.  1.
         -5    1    3    3    0  502  0.49169541672E+01  0.33772609784E+02 -0.48376524179E+02  0.59350872795E+02  0.41800000000E+01 0.  1.
        -11    1    4    4    0    0 -0.73204856877E+02 -0.92555938177E+02 -0.54779318975E+03  0.56035964478E+03  0.00000000000E+00 0.  1.
         11    1    4    4    0    0  0.22823719723E+02 -0.63793196191E+01 -0.89497429616E+02  0.92581897846E+02  0.00000000000E+00 0. -1.
</event>
<event>
 8    1  0.6648599E-009  0.1470840E+03  0.7561462E-02  0.1204103E+00
          1   -1    0    0  501    0  0.00000000000E+00  0.00000000000E+00  0.32681328912E+02  0.32681328912E+02  0.00000000000E+00 0. -1.
         -1   -1    0    0    0  501 -0.00000000000E+00 -0.00000000000E+00 -0.81398564171E+03  0.81398564171E+03  0.00000000000E+00 0.  1.
         25    2    1    2    0    0  0.76938819983E+02  0.92088355645E+02 -0.35562022064E+03  0.39561660090E+03  0.12508759457E+03 0.  0.
         23    2    1    2    0    0 -0.76938819983E+02 -0.92088355645E+02 -0.42568409216E+03  0.45105036972E+03  0.88541755363E+02 0.  0.
          5    1    3    3  502    0  0.10066694603E+03  0.61090054636E+02 -0.32538893413E+03  0.34606539794E+03  0.41800000000E+01 0. -1.
         -5    1    3    3    0  502 -0.23728126042E+02  0.30998301009E+02 -0.30231286511E+02  0.49551202962E+02  0.41800000000E+01 0. -1.
        -11    1    4    4    0    0  0.62183525942E+01 -0.36565415673E+02 -0.49801257232E+02  0.62095593678E+02  0.00000000000E+00 0.  1.
         11    1    4    4    0    0 -0.83157172578E+02 -0.55522939972E+02 -0.37588283493E+03  0.38895477604E+03  0.00000000000E+00 0. -1.
</event>
<event>
 8    1  0.6648599E-009  0.1154750E+03  0.7561462E-02  0.1250754E+00
         -1   -1    0    0    0  501 -0.00000000000E+00  0.00000000000E+00  0.76430786233E+02  0.76430786233E+02  0.00000000000E+00 0.  1.
          1   -1    0    0  501    0  0.00000000000E+00 -0.00000000000E+00 -0.20313613035E+03  0.20313613035E+03  0.00000000000E+00 0. -1.
         25    2    1    2    0    0  0.52255991942E+02 -0.32956162980E+02 -0.69626238161E+02  0.15592569227E+03  0.12509280993E+03 0.  0.
         23    2    1    2    0    0 -0.52255991942E+02  0.32956162980E+02 -0.57079105956E+02  0.12364122431E+03  0.90621910379E+02 0.  0.
          5    1    3    3  502    0 -0.35754654308E+02 -0.36454924542E+02 -0.22689340716E+02  0.56032449617E+02  0.41800000000E+01 0. -1.
         -5    1    3    3    0  502  0.88010646249E+02  0.34987615615E+01 -0.46936897445E+02  0.99893242651E+02  0.41800000000E+01 0. -1.
        -11    1    4    4    0    0  0.89816842769E+01 -0.12415196119E+02  0.13007779572E+02  0.20100001903E+02  0.00000000000E+00 0.  1.
         11    1    4    4    0    0 -0.61237676218E+02  0.45371359100E+02 -0.70086885527E+02  0.10354122241E+03  0.00000000000E+00 0. -1.
</event>
<event>
 8    1  0.6648599E-009  0.1783553E+03  0.7561462E-02  0.1169404E+00
          2   -1    0    0  501    0  0.00000000000E+00  0.00000000000E+00  0.28295331495E+02  0.28295331495E+02  0.00000000000E+00 0. -1.
         -2   -1    0    0    0  501 -0.00000000000E+00 -0.00000000000E+00 -0.14478306922E+04  0.14478306922E+04  0.00000000000E+00 0.  1.
         25    2    1    2    0    0  0.14487780406E+03  0.80222251181E+02 -0.59168766568E+03  0.62703034270E+03  0.12509024442E+03 0.  0.
         23    2    1    2    0    0 -0.14487780406E+03 -0.80222251181E+02 -0.82784769505E+03  0.84909568103E+03  0.90589633205E+02 0.  0.
          5    1    3    3  502    0  0.11627223684E+02 -0.24377609485E+01  0.21923777957E+01  0.12783345784E+02  0.41800000000E+01 0.  1.
         -5    1    3    3    0  502  0.13325058037E+03  0.82660012129E+02 -0.59388004348E+03  0.61424699691E+03  0.41800000000E+01 0.  1.
        -11    1    4    4    0    0 -0.14412635016E+03 -0.43533300616E+02 -0.61886685062E+03  0.63691736659E+03  0.00000000000E+00 0.  1.
         11    1    4    4    0    0 -0.75145389862E+00 -0.36688950564E+02 -0.20898084443E+03  0.21217831444E+03  0.00000000000E+00 0. -1.
</event>
<event>
 8    1  0.6648599E-009  0.1642301E+03  0.7561462E-02  0.1184002E+00
         -1   -1    0    0    0  501 -0.00000000000E+00  0.00000000000E+00  0.56304086993E+02  0.56304086993E+02  0.00000000000E+00 0.  1.
          1   -1    0    0  501    0  0.00000000000E+00 -0.00000000000E+00 -0.76226056443E+03  0.76226056443E+03  0.00000000000E+00 0. -1.
         25    2    1    2    0    0  0.28136436999E+02  0.14752333325E+03 -0.18803633395E+03  0.27121979286E+03  0.12509084784E+03 0.  0.
         23    2    1    2    0    0 -0.28136436999E+02 -0.14752333325E+03 -0.51792014349E+03  0.54734485857E+03  0.93756739634E+02 0.  0.
          5    1    3    3  502    0  0.20823759767E+02  0.58040811550E+02 -0.16817667037E+03  0.17917374147E+03  0.41800000000E+01 0. -1.
         -5    1    3    3    0  502  0.73126772323E+01  0.89482521699E+02 -0.19859663574E+02  0.92046051383E+02  0.41800000000E+01 0. -1.
        -11    1    4    4    0    0  0.34454758205E+02 -0.45306399930E+02 -0.18111504740E+03  0.18984852023E+03  0.00000000000E+00 0. -1.
         11    1    4    4    0    0 -0.62591195204E+02 -0.10221693332E+03 -0.33680509609E+03  0.35749633834E+03  0.00000000000E+00 0.  1.
</event>
<event>
 8    1  0.6648599E-009  0.1320532E+03  0.7561462E-02  0.1224441E+00
         -3   -1    0    0    0  501 -0.00000000000E+00  0.00000000000E+00  0.42687978502E+03  0.42687978502E+03  0.00000000000E+00 0.  1.
          3   -1    0    0  501    0  0.00000000000E+00 -0.00000000000E+00 -0.48560786103E+02  0.48560786103E+02  0.00000000000E+00 0. -1.
         25    2    1    2    0    0  0.17938947167E+02  0.78859047708E+02  0.29120091106E+03  0.32709249655E+03  0.12510385871E+03 0.  0.
         23    2    1    2    0    0 -0.17938947167E+02 -0.78859047708E+02  0.87118087857E+02  0.14834807457E+03  0.88752660620E+02 0.  0.
          5    1    3    3  502    0  0.34554305412E+02 -0.25370671743E+02  0.75662536917E+02  0.87062982374E+02  0.41800000000E+01 0. -1.
         -5    1    3    3    0  502 -0.16615358245E+02  0.10422971945E+03  0.21553837415E+03  0.24002951418E+03  0.41800000000E+01 0. -1.
        -11    1    4    4    0    0 -0.50551335539E+02 -0.56783601082E+02  0.36834354421E+02  0.84478308117E+02  0.00000000000E+00 0.  1.
         11    1    4    4    0    0  0.32612388372E+02 -0.22075446626E+02  0.50283733436E+02  0.63869766458E+02  0.00000000000E+00 0. -1.
</event>
<event>
 8    1  0.6648599E-009  0.1018294E+03  0.7561462E-02  0.1276495E+00
          3   -1    0    0  501    0  0.00000000000E+00  0.00000000000E+00  0.69262915130E+03  0.69262915130E+03  0.00000000000E+00 0. -1.
         -3   -1    0    0    0  501 -0.00000000000E+00 -0.00000000000E+00 -0.27460003879E+02  0.27460003879E+02  0.00000000000E+00 0.  1.
         25    2    1    2    0    0  0.38947393566E+02  0.73655575656E+02  0.41475662842E+03  0.44114960746E+03  0.12509145475E+03 0.  0.
         23    2    1    2    0    0 -0.38947393566E+02 -0.73655575656E+02  0.25041251901E+03  0.27893954773E+03  0.90326066669E+02 0.  0.
          5    1    3    3  502    0  0.40548785260E+02  0.67979444184E+02  0.42289793107E+03  0.43026217742E+03  0.41800000000E+01 0. -1.
         -5    1    3    3    0  502 -0.16013916936E+01  0.56761314723E+01 -0.81413026525E+01  0.10887430033E+02  0.41800000000E+01 0. -1.
        -11    1    4    4    0    0  0.12724988131E+02  0.11766015429E+02  0.76226536287E+02  0.78171921279E+02  0.00000000000E+00 0.  1.
         11    1    4    4    0    0 -0.51672381697E+02 -0.85421591085E+02  0.17418598272E+03  0.20076762645E+03  0.00000000000E+00 0. -1.
</event>
<event>
 8    1  0.6648599E-009  0.1034997E+03  0.7561462E-02  0.1273104E+00
         -1   -1    0    0    0  501 -0.00000000000E+00  0.00000000000E+00  0.11574375704E+03  0.11574375704E+03  0.00000000000E+00 0.  1.
          1   -1    0    0  501    0  0.00000000000E+00 -0.00000000000E+00 -0.10451129484E+03  0.10451129484E+03  0.00000000000E+00 0. -1.
         25    2    1    2    0    0 -0.13398268544E+02  0.82232568337E+01  0.31796664333E+02  0.13001719173E+03  0.12508519788E+03 0.  0.
         23    2    1    2    0    0  0.13398268544E+02 -0.82232568337E+01 -0.20564202136E+02  0.90237860150E+02  0.86445644437E+02 0.  0.
          5    1    3    3  502    0  0.47478201581E+02 -0.22842896924E+02  0.31530937101E+02  0.61543886452E+02  0.41800000000E+01 0.  1.
         -5    1    3    3    0  502 -0.60876470124E+02  0.31066153757E+02  0.26572723180E+00  0.68473305273E+02  0.41800000000E+01 0.  1.
        -11    1    4    4    0    0 -0.14930087140E+02  0.32673906378E+02 -0.18590261355E+02  0.40448602908E+02  0.00000000000E+00 0.  1.
         11    1    4    4    0    0  0.28328355684E+02 -0.40897163212E+02 -0.19739407815E+01  0.49789257242E+02  0.00000000000E+00 0. -1.
</event>
<event>
 8    1  0.6648599E-009  0.1167679E+03  0.7561462E-02  0.1248526E+00
         -2   -1    0    0    0  501 -0.00000000000E+00  0.00000000000E+00  0.15097068455E+03  0.15097068455E+03  0.00000000000E+00 0. -1.
          2   -1    0    0  501    0  0.00000000000E+00 -0.00000000000E+00 -0.10676123080E+03  0.10676123080E+03  0.00000000000E+00 0.  1.
         25    2    1    2    0    0  0.37603046509E+02 -0.72420246836E+02  0.52119416118E+02  0.15818550122E+03  0.12509011952E+03 0.  0.
         23    2    1    2    0    0 -0.37603046509E+02  0.72420246836E+02 -0.79099623640E+01  0.99546414132E+02  0.56464500382E+02 0.  0.
          5    1    3    3  502    0  0.83285467127E+02 -0.46634753457E+02  0.23966916355E+02  0.98504592502E+02  0.41800000000E+01 0. -1.
         -5    1    3    3    0  502 -0.45682420618E+02 -0.25785493378E+02  0.28152499763E+02  0.59680908717E+02  0.41800000000E+01 0. -1.
        -11    1    4    4    0    0 -0.13097702099E+02  0.51523946924E+02 -0.29476050757E+02  0.60787371017E+02  0.00000000000E+00 0.  1.
         11    1    4    4    0    0 -0.24505344409E+02  0.20896299911E+02  0.21566088393E+02  0.38759043115E+02  0.00000000000E+00 0. -1.
</event>
<event>
 8    1  0.6648599E-009  0.1323824E+03  0.7561462E-02  0.1223963E+00
         -2   -1    0    0    0  501 -0.00000000000E+00  0.00000000000E+00  0.36429295063E+02  0.36429295063E+02  0.00000000000E+00 0.  1.
          2   -1    0    0  501    0  0.00000000000E+00 -0.00000000000E+00 -0.59926218981E+03  0.59926218981E+03  0.00000000000E+00 0. -1.
         25    2    1    2    0    0 -0.84605985537E+02 -0.38024043300E+02 -0.38730783390E+03  0.41744062805E+03  0.12508124994E+03 0.  0.
         23    2    1    2    0    0  0.84605985537E+02  0.38024043300E+02 -0.17552506085E+03  0.21825085682E+03  0.90666360145E+02 0.  0.
          5    1    3    3  502    0 -0.68473382553E+02  0.22651078289E+02 -0.10025680579E+03  0.12357416790E+03  0.41800000000E+01 0. -1.
         -5    1    3    3    0  502 -0.16132602984E+02 -0.60675121589E+02 -0.28705102811E+03  0.29386646015E+03  0.41800000000E+01 0. -1.
        -11    1    4    4    0    0 -0.17030654894E+02 -0.70292264006E+01 -0.21919355489E+02  0.28634094624E+02  0.00000000000E+00 0. -1.
         11    1    4    4    0    0  0.10163664043E+03  0.45053269701E+02 -0.15360570536E+03  0.18961676220E+03  0.00000000000E+00 0.  1.
</event>
<event>
 8    1  0.6648599E-009  0.2888038E+03  0.7561462E-02  0.1090975E+00
         -1   -1    0    0    0  501 -0.00000000000E+00  0.00000000000E+00  0.96670328149E+02  0.96670328149E+02  0.00000000000E+00 0.  1.
          1   -1    0    0  501    0  0.00000000000E+00 -0.00000000000E+00 -0.92020048283E+03  0.92020048283E+03  0.00000000000E+00 0. -1.
         25    2    1    2    0    0 -0.23395236386E+03  0.14520275636E+03 -0.47503876129E+03  0.56314040541E+03  0.12509093680E+03 0.  0.
         23    2    1    2    0    0  0.23395236386E+03 -0.14520275636E+03 -0.34849139340E+03  0.45373040557E+03  0.92776509182E+02 0.  0.
          5    1    3    3  502    0 -0.52581975021E+02 -0.15878744368E+02 -0.53610669758E+02  0.76867255263E+02  0.41800000000E+01 0. -1.
         -5    1    3    3    0  502 -0.18137038884E+03  0.16108150073E+03 -0.42142809153E+03  0.48627315015E+03  0.41800000000E+01 0. -1.
        -11    1    4    4    0    0  0.24055566863E+02  0.10617032376E+01 -0.36526633997E+01  0.24354454639E+02  0.00000000000E+00 0.  1.
         11    1    4    4    0    0  0.20989679700E+03 -0.14626445960E+03 -0.34483873000E+03  0.42937595093E+03  0.00000000000E+00 0. -1.
</event>
<event>
 8    1  0.6648599E-009  0.1194936E+03  0.7561462E-02  0.1243935E+00
          1   -1    0    0  501    0  0.00000000000E+00  0.00000000000E+00  0.71790203235E+03  0.71790203235E+03  0.00000000000E+00 0. -1.
         -1   -1    0    0    0  501 -0.00000000000E+00 -0.00000000000E+00 -0.24486357882E+02  0.24486357882E+02  0.00000000000E+00 0.  1.
         25    2    1    2    0    0  0.74647159814E+02 -0.12852503498E+02  0.40408279933E+03  0.42973057052E+03  0.12509224279E+03 0.  0.
         23    2    1    2    0    0 -0.74647159814E+02  0.12852503498E+02  0.28933287514E+03  0.31265781972E+03  0.91126364360E+02 0.  0.
          5    1    3    3  502    0  0.50094554217E+02  0.52279895137E+02  0.25557022430E+03  0.26566193507E+03  0.41800000000E+01 0.  1.
         -5    1    3    3    0  502  0.24552605597E+02 -0.65132398635E+02  0.14851257503E+03  0.16406863544E+03  0.41800000000E+01 0.  1.
        -11    1    4    4    0    0 -0.40036303685E+02  0.37009066932E+02  0.67127278148E+02  0.86479177375E+02  0.00000000000E+00 0.  1.
         11    1    4    4    0    0 -0.34610856129E+02 -0.24156563434E+02  0.22220559699E+03  0.22617864234E+03  0.00000000000E+00 0. -1.
</event>
<event>
 8    1  0.6648599E-009  0.1225113E+03  0.7561462E-02  0.1239011E+00
          2   -1    0    0  501    0  0.00000000000E+00  0.00000000000E+00  0.37119199619E+03  0.37119199619E+03  0.00000000000E+00 0. -1.
         -2   -1    0    0    0  501 -0.00000000000E+00 -0.00000000000E+00 -0.78783637517E+02  0.78783637517E+02  0.00000000000E+00 0.  1.
         25    2    1    2    0    0 -0.77541150191E+02 -0.19145281721E+02  0.19162158046E+02  0.14964258710E+03  0.12508614547E+03 0.  0.
         23    2    1    2    0    0  0.77541150191E+02  0.19145281721E+02  0.27324620063E+03  0.30033304661E+03  0.95693682870E+02 0.  0.
          5    1    3    3  502    0 -0.10387414331E+03 -0.17779554963E+02  0.42956750070E+02  0.11388022216E+03  0.41800000000E+01 0.  1.
         -5    1    3    3    0  502  0.26332993121E+02 -0.13657267574E+01 -0.23794592024E+02  0.35762364937E+02  0.41800000000E+01 0.  1.
        -11    1    4    4    0    0  0.24728934639E+02  0.47030265688E+02  0.66429498679E+02  0.85066117778E+02  0.00000000000E+00 0.  1.
         11    1    4    4    0    0  0.52812215552E+02 -0.27884983967E+02  0.20681670195E+03  0.21526692883E+03  0.00000000000E+00 0. -1.
</event>
<event>
 8    1  0.6648599E-009  0.1192272E+03  0.7561462E-02  0.1244377E+00
         -1   -1    0    0    0  501 -0.00000000000E+00  0.00000000000E+00  0.15302649688E+02  0.15302649688E+02  0.00000000000E+00 0.  1.
          1   -1    0    0  501    0  0.00000000000E+00 -0.00000000000E+00 -0.10266723080E+04  0.10266723080E+04  0.00000000000E+00 0. -1.
         25    2    1    2    0    0  0.37669493610E+02 -0.36608210199E+02 -0.70917466250E+03  0.72203546214E+03  0.12508938747E+03 0.  0.
         23    2    1    2    0    0 -0.37669493610E+02  0.36608210199E+02 -0.30219499578E+03  0.31993949551E+03  0.90996228011E+02 0.  0.
          5    1    3    3  502    0 -0.37000707835E+02 -0.45107077202E+02 -0.25143320091E+03  0.25814691111E+03  0.41800000000E+01 0.  1.
         -5    1    3    3    0  502  0.74670201445E+02  0.84988670034E+01 -0.45774146159E+03  0.46388855104E+03  0.41800000000E+01 0.  1.
        -11    1    4    4    0    0 -0.55059496608E+01  0.62907667199E+02 -0.16885950117E+03  0.18028095077E+03  0.00000000000E+00 0.  1.
         11    1    4    4    0    0 -0.32163543949E+02 -0.26299457000E+02 -0.13333549460E+03  0.13965854474E+03  0.00000000000E+00 0. -1.
</event>
<event>
 8    1  0.6648599E-009  0.6289324E+02  0.7561462E-02  0.1386076E+00
         -2   -1    0    0    0  501 -0.00000000000E+00  0.00000000000E+00  0.29045355470E+03  0.29045355470E+03  0.00000000000E+00 0.  1.
          2   -1    0    0  501    0  0.00000000000E+00 -0.00000000000E+00 -0.51215698528E+02  0.51215698528E+02  0.00000000000E+00 0. -1.
         25    2    1    2    0    0 -0.19928504294E+01  0.54734394211E+02  0.11418676178E+03  0.17800946352E+03  0.12509567208E+03 0.  0.
         23    2    1    2    0    0  0.19928504294E+01 -0.54734394211E+02  0.12505109439E+03  0.16365978971E+03  0.90260319068E+02 0.  0.
          5    1    3    3  502    0 -0.42645739598E+01 -0.35901837833E+00  0.12201334261E+03  0.12215991020E+03  0.41800000000E+01 0.  1.
         -5    1    3    3    0  502  0.22717235304E+01  0.55093412589E+02 -0.78265808248E+01  0.55849553319E+02  0.41800000000E+01 0.  1.
        -11    1    4    4    0    0 -0.13831200061E+02 -0.10035102404E+02 -0.10498657821E+02  0.20055602495E+02  0.00000000000E+00 0. -1.
         11    1    4    4    0    0  0.15824050491E+02 -0.44699291807E+02  0.13554975221E+03  0.14360418722E+03  0.00000000000E+00 0.  1.
</event>
<event>
 8    1  0.6648599E-009  0.1627606E+03  0.7561462E-02  0.1185615E+00
          1   -1    0    0  501    0  0.00000000000E+00  0.00000000000E+00  0.21094942370E+03  0.21094942370E+03  0.00000000000E+00 0. -1.
         -1   -1    0    0    0  501 -0.00000000000E+00 -0.00000000000E+00 -0.18314570013E+03  0.18314570013E+03  0.00000000000E+00 0.  1.
         25    2    1    2    0    0 -0.15898885297E+02  0.14615906780E+03 -0.56613933099E+02  0.20116884754E+03  0.12509404521E+03 0.  0.
         23    2    1    2    0    0  0.15898885297E+02 -0.14615906780E+03  0.84417656665E+02  0.19292627629E+03  0.92081266677E+02 0.  0.
          5    1    3    3  502    0 -0.45189163754E+02  0.10781252736E+03  0.11556712663E+02  0.11754416865E+03  0.41800000000E+01 0.  1.
         -5    1    3    3    0  502  0.29290278457E+02  0.38346540441E+02 -0.68170645762E+02  0.83624678890E+02  0.41800000000E+01 0.  1.
        -11    1    4    4    0    0  0.38730154514E+02 -0.63690330197E+02  0.76784653796E+02  0.10701572823E+03  0.00000000000E+00 0. -1.
         11    1    4    4    0    0 -0.22831269217E+02 -0.82468737603E+02  0.76330028691E+01  0.85910548064E+02  0.00000000000E+00 0.  1.
</event>
<event>
 8    1  0.6648599E-009  0.1220892E+03  0.7561462E-02  0.1239690E+00
         -1   -1    0    0    0  501 -0.00000000000E+00  0.00000000000E+00  0.31338764813E+02  0.31338764813E+02  0.00000000000E+00 0.  1.
          1   -1    0    0  501    0  0.00000000000E+00 -0.00000000000E+00 -0.53552494466E+03  0.53552494466E+03  0.00000000000E+00 0. -1.
         25    2    1    2    0    0 -0.36798334713E+01 -0.63629973546E+02 -0.36030221504E+03  0.38668505786E+03  0.12508130598E+03 0.  0.
         23    2    1    2    0    0  0.36798334713E+01  0.63629973546E+02 -0.14388396481E+03  0.18017865161E+03  0.87746432740E+02 0.  0.
          5    1    3    3  502    0 -0.15765809838E+02 -0.99633232380E+02 -0.23725360555E+03  0.25784120598E+03  0.41800000000E+01 0. -1.
         -5    1    3    3    0  502  0.12085976367E+02  0.36003258834E+02 -0.12304860949E+03  0.12884385188E+03  0.41800000000E+01 0. -1.
        -11    1    4    4    0    0  0.18102332598E+02 -0.15955364774E+02 -0.54671180837E+02  0.59759569315E+02  0.00000000000E+00 0.  1.
         11    1    4    4    0    0 -0.14422499127E+02  0.79585338320E+02 -0.89212783973E+02  0.12041908230E+03  0.00000000000E+00 0. -1.
</event>
<event>
 8    1  0.6648599E-009  0.9972516E+02  0.7561462E-02  0.1280875E+00
          2   -1    0    0  501    0  0.00000000000E+00  0.00000000000E+00  0.34501242399E+03  0.34501242399E+03  0.00000000000E+00 0. -1.
         -2   -1    0    0    0  501 -0.00000000000E+00 -0.00000000000E+00 -0.35305624768E+02  0.35305624768E+02  0.00000000000E+00 0.  1.
         25    2    1    2    0    0  0.11264877940E+01  0.20644197210E+02  0.17283613363E+03  0.21435460473E+03  0.12509242834E+03 0.  0.
         23    2    1    2    0    0 -0.11264877940E+01 -0.20644197210E+02  0.13687066559E+03  0.16596344403E+03  0.91557816705E+02 0.  0.
          5    1    3    3  502    0 -0.74399209440E+00  0.67024206134E+02  0.14567913850E+03  0.16041409391E+03  0.41800000000E+01 0. -1.
         -5    1    3    3    0  502  0.18704798884E+01 -0.46380008924E+02  0.27156995128E+02  0.53940510817E+02  0.41800000000E+01 0. -1.
        -11    1    4    4    0    0 -0.33558293937E+02 -0.36503093678E+02  0.43886155877E+02  0.66216535832E+02  0.00000000000E+00 0.  1.
         11    1    4    4    0    0  0.32431806143E+02  0.15858896467E+02  0.92984509718E+02  0.99746908195E+02  0.00000000000E+00 0. -1.
</event>
<event>
 8    1  0.6648599E-009  0.9786073E+02  0.7561462E-02  0.1284860E+00
          3   -1    0    0  501    0  0.00000000000E+00  0.00000000000E+00  0.27722242330E+03  0.27722242330E+03  0.00000000000E+00 0. -1.
         -3   -1    0    0    0  501 -0.00000000000E+00 -0.00000000000E+00 -0.56018634496E+02  0.56018634496E+02  0.00000000000E+00 0.  1.
         25    2    1    2    0    0 -0.30360845466E+02 -0.63140140527E+02  0.15480278100E+03  0.21099730782E+03  0.12508998609E+03 0.  0.
         23    2    1    2    0    0  0.30360845466E+02  0.63140140527E+02  0.66401007812E+02  0.12224374998E+03  0.75006548297E+02 0.  0.
          5    1    3    3  502    0 -0.63724338403E+02 -0.23000163961E+02  0.27299864852E+02  0.73161149992E+02  0.41800000000E+01 0.  1.
         -5    1    3    3    0  502  0.33363492938E+02 -0.40139976566E+02  0.12750291614E+03  0.13783615783E+03  0.41800000000E+01 0.  1.
        -11    1    4    4    0    0  0.10512302975E+02  0.51309589950E+02  0.46642242249E+00  0.52377476882E+02  0.00000000000E+00 0.  1.
         11    1    4    4    0    0  0.19848542491E+02  0.11830550577E+02  0.65934585389E+02  0.69866273097E+02  0.00000000000E+00 0. -1.
</event>
<event>
 8    1  0.6648599E-009  0.7308288E+02  0.7561462E-02  0.1349913E+00
          1   -1    0    0  501    0  0.00000000000E+00  0.00000000000E+00  0.12459037209E+03  0.12459037209E+03  0.00000000000E+00 0. -1.
         -1   -1    0    0    0  501 -0.00000000000E+00 -0.00000000000E+00 -0.11139957455E+03  0.11139957455E+03  0.00000000000E+00 0.  1.
         25    2    1    2    0    0  0.12136584610E+00  0.39680796802E+02  0.44796798754E+01  0.13130294161E+03  0.12508323061E+03 0.  0.
         23    2    1    2    0    0 -0.12136584610E+00 -0.39680796802E+02  0.87111176668E+01  0.10468700504E+03  0.96482667293E+02 0.  0.
          5    1    3    3  502    0 -0.17308640970E+02  0.64336848961E+02 -0.39669407547E+02  0.77652775106E+02  0.41800000000E+01 0.  1.
         -5    1    3    3    0  502  0.17430006816E+02 -0.24656052159E+02  0.44149087423E+02  0.53650166504E+02  0.41800000000E+01 0.  1.
        -11    1    4    4    0    0 -0.13108287252E+02 -0.29970710030E+02 -0.40969600108E+02  0.52426889926E+02  0.00000000000E+00 0.  1.
         11    1    4    4    0    0  0.12986921406E+02 -0.97100867723E+01  0.49680717774E+02  0.52260115110E+02  0.00000000000E+00 0. -1.
</event>
<event>
 8    1  0.6648599E-009  0.1416959E+03  0.7561462E-02  0.1211065E+00
         -2   -1    0    0    0  501 -0.00000000000E+00  0.00000000000E+00  0.23370717444E+03  0.23370717444E+03  0.00000000000E+00 0.  1.
          2   -1    0    0  501    0  0.00000000000E+00 -0.00000000000E+00 -0.18173256907E+03  0.18173256907E+03  0.00000000000E+00 0. -1.
         25    2    1    2    0    0 -0.12662154781E+03  0.18061266359E+02  0.14750069695E+03  0.23186658352E+03  0.12508569559E+03 0.  0.
         23    2    1    2    0    0  0.12662154781E+03 -0.18061266359E+02 -0.95526091579E+02  0.18357316000E+03  0.90634679826E+02 0.  0.
          5    1    3    3  502    0 -0.54383723746E+02  0.50344426248E+02  0.13154534888E+03  0.15104238436E+03  0.41800000000E+01 0. -1.
         -5    1    3    3    0  502 -0.72237824060E+02 -0.32283159889E+02  0.15955348071E+02  0.80824199157E+02  0.41800000000E+01 0. -1.
        -11    1    4    4    0    0  0.10770461845E+03 -0.68064319540E+01 -0.26504348210E+02  0.11112647221E+03  0.00000000000E+00 0.  1.
         11    1    4    4    0    0  0.18916929357E+02 -0.11254834405E+02 -0.69021743370E+02  0.72446687789E+02  0.00000000000E+00 0. -1.
</event>
<event>
 8    1  0.6648599E-009  0.5352567E+02  0.7561462E-02  0.1427203E+00
          1   -1    0    0  501    0  0.00000000000E+00  0.00000000000E+00  0.35300933886E+02  0.35300933886E+02  0.00000000000E+00 0. -1.
         -1   -1    0    0    0  501 -0.00000000000E+00 -0.00000000000E+00 -0.34249003618E+03  0.34249003618E+03  0.00000000000E+00 0.  1.
         25    2    1    2    0    0  0.17184891952E+02 -0.35213995471E+02 -0.21997834318E+03  0.25606841437E+03  0.12508083539E+03 0.  0.
         23    2    1    2    0    0 -0.17184891952E+02  0.35213995471E+02 -0.87210759115E+02  0.12172255570E+03  0.75334706950E+02 0.  0.
          5    1    3    3  502    0  0.53985892353E+01 -0.25645786624E+02 -0.23368810794E+03  0.23519025348E+03  0.41800000000E+01 0. -1.
         -5    1    3    3    0  502  0.11786302717E+02 -0.95682088476E+01  0.13709764764E+02  0.20878160891E+02  0.41800000000E+01 0. -1.
        -11    1    4    4    0    0 -0.22808021551E+01  0.46196459112E+02 -0.17267919899E+02  0.49371003135E+02  0.00000000000E+00 0. -1.
         11    1    4    4    0    0 -0.14904089797E+02 -0.10982463641E+02 -0.69942839216E+02  0.72351552561E+02  0.00000000000E+00 0.  1.
</event>
<event>
 8    1  0.6648599E-009  0.1115903E+03  0.7561462E-02  0.1257653E+00
          2   -1    0    0  501    0  0.00000000000E+00  0.00000000000E+00  0.45075662191E+03  0.45075662191E+03  0.00000000000E+00 0. -1.
         -2   -1    0    0    0  501 -0.00000000000E+00 -0.00000000000E+00 -0.54895325749E+02  0.54895325749E+02  0.00000000000E+00 0.  1.
         25    2    1    2    0    0  0.10037882118E+03 -0.12086272680E+02  0.29731924022E+03  0.33803597702E+03  0.12509038903E+03 0.  0.
         23    2    1    2    0    0 -0.10037882118E+03  0.12086272680E+02  0.98542055945E+02  0.16761597064E+03  0.90347059136E+02 0.  0.
          5    1    3    3  502    0  0.10907207025E+03 -0.42614104080E+01  0.30463038204E+03  0.32362326584E+03  0.41800000000E+01 0.  1.
         -5    1    3    3    0  502 -0.86932490700E+01 -0.78248622722E+01 -0.73111418238E+01  0.14412711186E+02  0.41800000000E+01 0.  1.
        -11    1    4    4    0    0 -0.25664302394E+02  0.71775132074E+01 -0.15769273759E+02  0.30965191879E+02  0.00000000000E+00 0.  1.
         11    1    4    4    0    0 -0.74714518787E+02  0.49087594729E+01  0.11431132970E+03  0.13665077876E+03  0.00000000000E+00 0. -1.
</event>
<event>
 8    1  0.6648599E-009  0.9860071E+02  0.7561462E-02  0.1283266E+00
         -4   -1    0    0    0  501 -0.00000000000E+00  0.00000000000E+00  0.67999792964E+02  0.67999792964E+02  0.00000000000E+00 0.  1.
          4   -1    0    0  501    0  0.00000000000E+00 -0.00000000000E+00 -0.31716501337E+03  0.31716501337E+03  0.00000000000E+00 0. -1.
         25    2    1    2    0    0  0.51729950867E+02  0.32483090886E+02 -0.33586971752E+02  0.14320450510E+03  0.12509319166E+03 0.  0.
         23    2    1    2    0    0 -0.51729950867E+02 -0.32483090886E+02 -0.21557824865E+03  0.24196030123E+03  0.91321777625E+02 0.  0.
          5    1    3    3  502    0  0.26957282471E+02  0.73812582854E+02  0.84221638197E+01  0.79141630696E+02  0.41800000000E+01 0.  1.
         -5    1    3    3    0  502  0.24772668396E+02 -0.41329491968E+02 -0.42009135572E+02  0.64062874407E+02  0.41800000000E+01 0.  1.
        -11    1    4    4    0    0 -0.87611382200E+01 -0.25047615486E+02 -0.51115491929E+01  0.27023480893E+02  0.00000000000E+00 0.  1.
         11    1    4    4    0    0 -0.42968812647E+02 -0.74354754006E+01 -0.21046669946E+03  0.21493682034E+03  0.00000000000E+00 0. -1.
</event>
<event>
 8    1  0.6648599E-009  0.1133064E+03  0.7561462E-02  0.1254567E+00
          1   -1    0    0  501    0  0.00000000000E+00  0.00000000000E+00  0.11230800185E+04  0.11230800185E+04  0.00000000000E+00 0. -1.
         -1   -1    0    0    0  501 -0.00000000000E+00 -0.00000000000E+00 -0.17468460268E+02  0.17468460268E+02  0.00000000000E+00 0.  1.
         25    2    1    2    0    0 -0.68394238148E+02 -0.34947947042E+02  0.80776688765E+03  0.82099614145E+03  0.12509272037E+03 0.  0.
         23    2    1    2    0    0  0.68394238148E+02  0.34947947042E+02  0.29784467054E+03  0.31955233727E+03  0.86620538386E+02 0.  0.
          5    1    3    3  502    0  0.13251445983E+02 -0.28880245654E+02  0.54026740296E+03  0.54121715468E+03  0.41800000000E+01 0.  1.
         -5    1    3    3    0  502 -0.81645684130E+02 -0.60677013876E+01  0.26749948468E+03  0.27977898678E+03  0.41800000000E+01 0.  1.
        -11    1    4    4    0    0  0.72328963638E+02  0.55809171054E+02  0.26625418668E+03  0.28149144655E+03  0.00000000000E+00 0.  1.
         11    1    4    4    0    0 -0.39347254901E+01 -0.20861224013E+02  0.31590483862E+02  0.38060890723E+02  0.00000000000E+00 0. -1.
</event>
<event>
 8    1  0.6648599E-009  0.1118838E+03  0.7561462E-02  0.1257121E+00
         -3   -1    0    0    0  501 -0.00000000000E+00  0.00000000000E+00  0.41728952890E+02  0.41728952890E+02  0.00000000000E+00 0.  1.
          3   -1    0    0  501    0  0.00000000000E+00 -0.00000000000E+00 -0.43791414620E+03  0.43791414620E+03  0.00000000000E+00 0. -1.
         25    2    1    2    0    0  0.74290668677E+02 -0.44074677070E+01 -0.27357519552E+03  0.30988332837E+03  0.12508301392E+03 0.  0.
         23    2    1    2    0    0 -0.74290668677E+02  0.44074677070E+01 -0.12260999779E+03  0.16975977072E+03  0.90811006896E+02 0.  0.
          5    1    3    3  502    0  0.44365961839E+02  0.54650832634E+02 -0.87754954931E+02  0.11257644777E+03  0.41800000000E+01 0. -1.
         -5    1    3    3    0  502  0.29924706838E+02 -0.59058300341E+02 -0.18582024059E+03  0.19730688060E+03  0.41800000000E+01 0. -1.
        -11    1    4    4    0    0 -0.34437292868E+01  0.14900195502E+02  0.10537823988E+02  0.18572044363E+02  0.00000000000E+00 0.  1.
         11    1    4    4    0    0 -0.70846939390E+02 -0.10492727795E+02 -0.13314782177E+03  0.15118772636E+03  0.00000000000E+00 0. -1.
</event>
<event>
 8    1  0.6648599E-009  0.2107075E+03  0.7561462E-02  0.1141007E+00
         -1   -1    0    0    0  501 -0.00000000000E+00  0.00000000000E+00  0.99781907059E+02  0.99781907059E+02  0.00000000000E+00 0.  1.
          1   -1    0    0  501    0  0.00000000000E+00 -0.00000000000E+00 -0.52667231129E+03  0.52667231129E+03  0.00000000000E+00 0. -1.
         25    2    1    2    0    0  0.37625579203E+02  0.19561072019E+03 -0.17428362662E+03  0.29274789387E+03  0.12508920335E+03 0.  0.
         23    2    1    2    0    0 -0.37625579203E+02 -0.19561072019E+03 -0.25260677761E+03  0.33370632448E+03  0.88715775596E+02 0.  0.
          5    1    3    3  502    0  0.48489357688E+02  0.32331424452E+02 -0.72519830968E+01  0.58877860652E+02  0.41800000000E+01 0. -1.
         -5    1    3    3    0  502 -0.10863778486E+02  0.16327929574E+03 -0.16703164353E+03  0.23387003322E+03  0.41800000000E+01 0. -1.
        -11    1    4    4    0    0 -0.24199252441E+02 -0.14052971316E+03 -0.10953553607E+03  0.17981167304E+03  0.00000000000E+00 0.  1.
         11    1    4    4    0    0 -0.13426326762E+02 -0.55081007029E+02 -0.14307124154E+03  0.15389465144E+03  0.00000000000E+00 0. -1.
</event>
<event>
 8    1  0.6648599E-009  0.8467037E+02  0.7561462E-02  0.1316297E+00
          1   -1    0    0  501    0  0.00000000000E+00  0.00000000000E+00  0.39052733361E+03  0.39052733361E+03  0.00000000000E+00 0. -1.
         -1   -1    0    0    0  501 -0.00000000000E+00 -0.00000000000E+00 -0.40777121505E+02  0.40777121505E+02  0.00000000000E+00 0.  1.
         25    2    1    2    0    0 -0.34023194704E+00 -0.55618052460E+02  0.24919254065E+03  0.28431986877E+03  0.12508949575E+03 0.  0.
         23    2    1    2    0    0  0.34023194704E+00  0.55618052460E+02  0.10055767146E+03  0.14698458634E+03  0.91646821093E+02 0.  0.
          5    1    3    3  502    0 -0.18679357177E+02 -0.41670242218E+01 -0.81454379999E+01  0.21215631870E+02  0.41800000000E+01 0.  1.
         -5    1    3    3    0  502  0.18339125230E+02 -0.51451028238E+02  0.25733797865E+03  0.26310423690E+03  0.41800000000E+01 0.  1.
        -11    1    4    4    0    0  0.36513140601E+02  0.12288307242E+02  0.76448348862E+02  0.85607020595E+02  0.00000000000E+00 0. -1.
         11    1    4    4    0    0 -0.36172908654E+02  0.43329745218E+02  0.24109322594E+02  0.61377565748E+02  0.00000000000E+00 0.  1.
</event>
<event>
 8    1  0.6648599E-009  0.1013267E+03  0.7561462E-02  0.1277531E+00
         -2   -1    0    0    0  501 -0.00000000000E+00  0.00000000000E+00  0.12748569433E+02  0.12748569433E+02  0.00000000000E+00 0.  1.
          2   -1    0    0  501    0  0.00000000000E+00 -0.00000000000E+00 -0.12122324094E+04  0.12122324094E+04  0.00000000000E+00 0. -1.
         25    2    1    2    0    0 -0.72939250220E+01  0.60386804170E+02 -0.74194551697E+03  0.75487146029E+03  0.12509198195E+03 0.  0.
         23    2    1    2    0    0  0.72939250220E+01 -0.60386804170E+02 -0.45753832300E+03  0.47010951855E+03  0.89229339088E+02 0.  0.
          5    1    3    3  502    0 -0.32948885506E+02 -0.96141861567E+01 -0.51069316714E+03  0.51186233012E+03  0.41800000000E+01 0.  1.
         -5    1    3    3    0  502  0.25654960484E+02  0.70000990326E+02 -0.23125234983E+03  0.24300913017E+03  0.41800000000E+01 0.  1.
        -11    1    4    4    0    0 -0.91076473550E+01 -0.72466083282E+02 -0.42825525565E+03  0.43443854164E+03  0.00000000000E+00 0. -1.
         11    1    4    4    0    0  0.16401572377E+02  0.12079279113E+02 -0.29283067349E+02  0.35670976909E+02  0.00000000000E+00 0.  1.
</event>
<event>
 8    1  0.6648599E-009  0.7510109E+02  0.7561462E-02  0.1343558E+00
          1   -1    0    0  501    0  0.00000000000E+00  0.00000000000E+00  0.12040412148E+03  0.12040412148E+03  0.00000000000E+00 0. -1.
         -1   -1    0    0    0  501 -0.00000000000E+00 -0.00000000000E+00 -0.14838130021E+03  0.14838130021E+03  0.00000000000E+00 0.  1.
         25    2    1    2    0    0  0.38005733416E+02 -0.34254278152E+02  0.46040199535E+02  0.14276756696E+03  0.12508032163E+03 0.  0.
         23    2    1    2    0    0 -0.38005733416E+02  0.34254278152E+02 -0.74017378268E+02  0.12601785473E+03  0.88227751197E+02 0.  0.
          5    1    3    3  502    0  0.21178758075E+02 -0.39276981537E+01 -0.42365475731E+02  0.47710298053E+02  0.41800000000E+01 0.  1.
         -5    1    3    3    0  502  0.16826975341E+02 -0.30326579998E+02  0.88405675266E+02  0.95057268910E+02  0.41800000000E+01 0.  1.
        -11    1    4    4    0    0  0.24363665608E+02  0.78266716717E+01 -0.46154208570E+02  0.52773629400E+02  0.00000000000E+00 0. -1.
         11    1    4    4    0    0 -0.62369399024E+02  0.26427606480E+02 -0.27863169698E+02  0.73244225332E+02  0.00000000000E+00 0.  1.
</event>
<event>
 8    1  0.6648599E-009  0.1035184E+03  0.7561462E-02  0.1273067E+00
         -1   -1    0    0    0  501 -0.00000000000E+00  0.00000000000E+00  0.44774914892E+02  0.44774914892E+02  0.00000000000E+00 0.  1.
          1   -1    0    0  501    0  0.00000000000E+00 -0.00000000000E+00 -0.40147525823E+03  0.40147525823E+03  0.00000000000E+00 0. -1.
         25    2    1    2    0    0 -0.30885030358E+02 -0.40488665505E+02 -0.96684083905E+02  0.16608564024E+03  0.12507362103E+03 0.  0.
         23    2    1    2    0    0  0.30885030358E+02  0.40488665505E+02 -0.26001625944E+03  0.28016453288E+03  0.91052145393E+02 0.  0.
          5    1    3    3  502    0 -0.60604173228E+02  0.16155117927E+02 -0.76216607515E+02  0.98794216982E+02  0.41800000000E+01 0.  1.
         -5    1    3    3    0  502  0.29719142869E+02 -0.56643783432E+02 -0.20467476389E+02  0.67291423258E+02  0.41800000000E+01 0.  1.
        -11    1    4    4    0    0 -0.14046822494E+02 -0.61307562612E+01 -0.36590526771E+01  0.15757159039E+02  0.00000000000E+00 0.  1.
         11    1    4    4    0    0  0.44931852852E+02  0.46619421766E+02 -0.25635720676E+03  0.26440737385E+03  0.00000000000E+00 0. -1.
</event>
<event>
 8    1  0.6648599E-009  0.1118251E+03  0.7561462E-02  0.1257227E+00
          1   -1    0    0  501    0  0.00000000000E+00  0.00000000000E+00  0.18960303727E+02  0.18960303727E+02  0.00000000000E+00 0. -1.
         -1   -1    0    0    0  501 -0.00000000000E+00 -0.00000000000E+00 -0.71685291987E+03  0.71685291987E+03  0.00000000000E+00 0.  1.
         25    2    1    2    0    0 -0.12966224454E+02 -0.39126101600E+02 -0.37176302343E+03  0.39440489987E+03  0.12509398325E+03 0.  0.
         23    2    1    2    0    0  0.12966224454E+02  0.39126101600E+02 -0.32612959271E+03  0.34140832373E+03  0.92196298556E+02 0.  0.
          5    1    3    3  502    0  0.30121420829E+02 -0.70692067652E+02 -0.19268311520E+03  0.20748234552E+03  0.41800000000E+01 0. -1.
         -5    1    3    3    0  502 -0.43087645284E+02  0.31565966052E+02 -0.17907990823E+03  0.18692255434E+03  0.41800000000E+01 0. -1.
        -11    1    4    4    0    0 -0.35202821256E+02  0.24092629671E+02 -0.85570613410E+02  0.95613928422E+02  0.00000000000E+00 0.  1.
         11    1    4    4    0    0  0.48169045710E+02  0.15033471929E+02 -0.24055897930E+03  0.24579439531E+03  0.00000000000E+00 0. -1.
</event>
<event>
 8    1  0.6648599E-009  0.1072652E+03  0.7561462E-02  0.1265720E+00
          1   -1    0    0  501    0  0.00000000000E+00  0.00000000000E+00  0.22330759542E+03  0.22330759542E+03  0.00000000000E+00 0. -1.
         -1   -1    0    0    0  501 -0.00000000000E+00 -0.00000000000E+00 -0.59398263875E+02  0.59398263875E+02  0.00000000000E+00 0.  1.
         25    2    1    2    0    0  0.33496405062E+02  0.11874956856E+02  0.11181964679E+03  0.17150385502E+03  0.12508762979E+03 0.  0.
         23    2    1    2    0    0 -0.33496405062E+02 -0.11874956856E+02  0.52089684762E+02  0.11120200428E+03  0.91594359786E+02 0.  0.
          5    1    3    3  502    0  0.32317357953E+02  0.61282174267E+02  0.97867645658E+02  0.11998110257E+03  0.41800000000E+01 0. -1.
         -5    1    3    3    0  502  0.11790471088E+01 -0.49407217411E+02  0.13952001130E+02  0.51522752449E+02  0.41800000000E+01 0. -1.
        -11    1    4    4    0    0  0.17859785652E+02 -0.34930205683E+02  0.34447284430E+02  0.52208300271E+02  0.00000000000E+00 0.  1.
         11    1    4    4    0    0 -0.51356190713E+02  0.23055248827E+02  0.17642400332E+02  0.58993704008E+02  0.00000000000E+00 0. -1.
</event>
<event>
 8    1  0.6648599E-009  0.1656181E+03  0.7561462E-02  0.1182496E+00
         -2   -1    0    0    0  501 -0.00000000000E+00  0.00000000000E+00  0.34614704232E+03  0.34614704232E+03  0.00000000000E+00 0.  1.
          2   -1    0    0  501    0  0.00000000000E+00 -0.00000000000E+00 -0.91426867834E+02  0.91426867834E+02  0.00000000000E+00 0. -1.
         25    2    1    2    0    0 -0.10046754126E+03  0.83503206341E+02  0.19822877313E+03  0.26834966228E+03  0.12510148853E+03 0.  0.
         23    2    1    2    0    0  0.10046754126E+03 -0.83503206341E+02  0.56491401354E+02  0.16922424787E+03  0.91537180012E+02 0.  0.
          5    1    3    3  502    0 -0.52334077404E+02  0.10893237364E+03  0.16453486644E+03  0.20419185184E+03  0.41800000000E+01 0. -1.
         -5    1    3    3    0  502 -0.48133463857E+02 -0.25429167294E+02  0.33693906690E+02  0.64157810438E+02  0.41800000000E+01 0. -1.
        -11    1    4    4    0    0  0.11141908607E+03 -0.53152007024E+02  0.28938233409E+02  0.12679420312E+03  0.00000000000E+00 0.  1.
         11    1    4    4    0    0 -0.10951544813E+02 -0.30351199317E+02  0.27553167944E+02  0.42430044751E+02  0.00000000000E+00 0. -1.
</event>
<event>
 8    1  0.6648599E-009  0.9222639E+02  0.7561462E-02  0.1297548E+00
          1   -1    0    0  501    0  0.00000000000E+00  0.00000000000E+00  0.39877233295E+03  0.39877233295E+03  0.00000000000E+00 0. -1.
         -1   -1    0    0    0  501 -0.00000000000E+00 -0.00000000000E+00 -0.53116755877E+02  0.53116755877E+02  0.00000000000E+00 0.  1.
         25    2    1    2    0    0  0.33000664111E+02 -0.66354724874E+02  0.28525554654E+03  0.32017838012E+03  0.12510585487E+03 0.  0.
         23    2    1    2    0    0 -0.33000664111E+02  0.66354724874E+02  0.60400030535E+02  0.13171070870E+03  0.90595550409E+02 0.  0.
          5    1    3    3  502    0 -0.23929538145E+02 -0.30719264896E+02  0.22941476535E+03  0.23273354505E+03  0.41800000000E+01 0.  1.
         -5    1    3    3    0  502  0.56930202256E+02 -0.35635459977E+02  0.55840781183E+02  0.87444835067E+02  0.41800000000E+01 0.  1.
        -11    1    4    4    0    0 -0.22699878405E+01  0.31284112076E+02  0.76259186090E+02  0.82457940650E+02  0.00000000000E+00 0. -1.
         11    1    4    4    0    0 -0.30730676271E+02  0.35070612798E+02 -0.15859155555E+02  0.49252768054E+02  0.00000000000E+00 0.  1.
</event>
<event>
 8    1  0.6648599E-009  0.1487737E+03  0.7561462E-02  0.1201988E+00
         -1   -1    0    0    0  501 -0.00000000000E+00  0.00000000000E+00  0.80753376035E+03  0.80753376035E+03  0.00000000000E+00 0.  1.
          1   -1    0    0  501    0  0.00000000000E+00 -0.00000000000E+00 -0.38234884718E+02  0.38234884718E+02  0.00000000000E+00 0. -1.
         25    2    1    2    0    0 -0.77110476674E+02 -0.93852949063E+02  0.25115801089E+03  0.30575120693E+03  0.12509617278E+03 0.  0.
         23    2    1    2    0    0  0.77110476674E+02  0.93852949063E+02  0.51814086475E+03  0.54001743814E+03  0.91621373687E+02 0.  0.
          5    1    3    3  502    0 -0.56609297485E+02  0.17428046311E+02  0.10777070953E+03  0.12304611978E+03  0.41800000000E+01 0.  1.
         -5    1    3    3    0  502 -0.20501179189E+02 -0.11128099537E+03  0.14338730135E+03  0.18270508715E+03  0.41800000000E+01 0.  1.
        -11    1    4    4    0    0  0.56863360352E+02  0.46560953191E+02  0.44236725096E+03  0.44843076259E+03  0.00000000000E+00 0.  1.
         11    1    4    4    0    0  0.20247116322E+02  0.47291995871E+02  0.75773613786E+02  0.91586675554E+02  0.00000000000E+00 0. -1.
</event>
<event>
 8    1  0.6648599E-009  0.1430672E+03  0.7561462E-02  0.1209260E+00
          2   -1    0    0  501    0  0.00000000000E+00  0.00000000000E+00  0.40642284241E+03  0.40642284241E+03  0.00000000000E+00 0. -1.
         -2   -1    0    0    0  501 -0.00000000000E+00 -0.00000000000E+00 -0.16340504022E+03  0.16340504022E+03  0.00000000000E+00 0.  1.
         25    2    1    2    0    0 -0.13355073502E+02  0.10928550669E+03 -0.10294706224E+03  0.19587701094E+03  0.12509206941E+03 0.  0.
         23    2    1    2    0    0  0.13355073502E+02 -0.10928550669E+03  0.34596486444E+03  0.37395087169E+03  0.89587315246E+02 0.  0.
          5    1    3    3  502    0 -0.13994329669E+02 -0.26612257472E+02 -0.14206749616E+02  0.33516527942E+02  0.41800000000E+01 0.  1.
         -5    1    3    3    0  502  0.63925616667E+00  0.13589776417E+03 -0.88740312628E+02  0.16236048300E+03  0.41800000000E+01 0.  1.
        -11    1    4    4    0    0 -0.14018712444E+02 -0.73149046854E+02  0.10484964015E+03  0.12861086421E+03  0.00000000000E+00 0.  1.
         11    1    4    4    0    0  0.27373785946E+02 -0.36136459841E+02  0.24111522428E+03  0.24534000748E+03  0.00000000000E+00 0. -1.
</event>
<event>
 8    1  0.6648599E-009  0.7134105E+02  0.7561462E-02  0.1355591E+00
          2   -1    0    0  501    0  0.00000000000E+00  0.00000000000E+00  0.12465110010E+04  0.12465110010E+04  0.00000000000E+00 0. -1.
         -2   -1    0    0    0  501 -0.00000000000E+00 -0.00000000000E+00 -0.20627387906E+02  0.20627387906E+02  0.00000000000E+00 0.  1.
         25    2    1    2    0    0 -0.34978737684E+02 -0.17985392245E+02  0.10974784908E+04  0.11052842950E+04  0.12508936262E+03 0.  0.
         23    2    1    2    0    0  0.34978737684E+02  0.17985392245E+02  0.12840512232E+03  0.16185409390E+03  0.90343156086E+02 0.  0.
          5    1    3    3  502    0  0.10032887220E+02 -0.24144806363E+02  0.48034117597E+02  0.54848695095E+02  0.41800000000E+01 0.  1.
         -5    1    3    3    0  502 -0.45011624905E+02  0.61594141176E+01  0.10494443732E+04  0.10504355999E+04  0.41800000000E+01 0.  1.
        -11    1    4    4    0    0  0.85668200562E+01 -0.21461520483E+02  0.10754658254E+03  0.11000115765E+03  0.00000000000E+00 0. -1.
         11    1    4    4    0    0  0.26411917628E+02  0.39446912728E+02  0.20858539773E+02  0.51852936253E+02  0.00000000000E+00 0.  1.
</event>
<event>
 8    1  0.6648599E-009  0.7764793E+02  0.7561462E-02  0.1335862E+00
          1   -1    0    0  501    0  0.00000000000E+00  0.00000000000E+00  0.49242428924E+03  0.49242428924E+03  0.00000000000E+00 0. -1.
         -1   -1    0    0    0  501 -0.00000000000E+00 -0.00000000000E+00 -0.34340967153E+02  0.34340967153E+02  0.00000000000E+00 0.  1.
         25    2    1    2    0    0 -0.22378615106E+02 -0.20950015932E+02  0.38421998640E+03  0.40523205971E+03  0.12509323998E+03 0.  0.
         23    2    1    2    0    0  0.22378615106E+02  0.20950015932E+02  0.73863335684E+02  0.12153319668E+03  0.91514042390E+02 0.  0.
          5    1    3    3  502    0  0.29401673335E+01  0.49329772751E+02  0.20715604306E+03  0.21300978766E+03  0.41800000000E+01 0.  1.
         -5    1    3    3    0  502 -0.25318782439E+02 -0.70279788684E+02  0.17706394334E+03  0.19222227205E+03  0.41800000000E+01 0.  1.
        -11    1    4    4    0    0  0.14015960873E+02  0.10573166725E+02  0.94965598539E+02  0.96574861738E+02  0.00000000000E+00 0. -1.
         11    1    4    4    0    0  0.83626542328E+01  0.10376849207E+02 -0.21102262856E+02  0.24958334939E+02  0.00000000000E+00 0.  1.
</event>
<event>
 8    1  0.6648599E-009  0.1309163E+03  0.7561462E-02  0.1226102E+00
         -1   -1    0    0    0  501 -0.00000000000E+00  0.00000000000E+00  0.79593390934E+02  0.79593390934E+02  0.00000000000E+00 0.  1.
          1   -1    0    0  501    0  0.00000000000E+00 -0.00000000000E+00 -0.25236191298E+03  0.25236191298E+03  0.00000000000E+00 0. -1.
         25    2    1    2    0    0 -0.86826847418E+02 -0.21647704602E+02 -0.10270065511E+03  0.18493782284E+03  0.12508816575E+03 0.  0.
         23    2    1    2    0    0  0.86826847418E+02  0.21647704602E+02 -0.70067866934E+02  0.14701748107E+03  0.93258293020E+02 0.  0.
          5    1    3    3  502    0 -0.10643293068E+03 -0.34076561647E+02 -0.41390332526E+02  0.11924685662E+03  0.41800000000E+01 0. -1.
         -5    1    3    3    0  502  0.19606083259E+02  0.12428857045E+02 -0.61310322584E+02  0.65690966224E+02  0.41800000000E+01 0. -1.
        -11    1    4    4    0    0  0.10338968678E+02  0.45210413376E+02 -0.40891359329E+02  0.61830243560E+02  0.00000000000E+00 0. -1.
         11    1    4    4    0    0  0.76487878740E+02 -0.23562708773E+02 -0.29176507605E+02  0.85187237512E+02  0.00000000000E+00 0.  1.
</event>
<event>
 8    1  0.6648599E-009  0.1082672E+03  0.7561462E-02  0.1263813E+00
          2   -1    0    0  501    0  0.00000000000E+00  0.00000000000E+00  0.39766108578E+03  0.39766108578E+03  0.00000000000E+00 0. -1.
         -2   -1    0    0    0  501 -0.00000000000E+00 -0.00000000000E+00 -0.31962752554E+02  0.31962752554E+02  0.00000000000E+00 0.  1.
         25    2    1    2    0    0 -0.88067414276E+01  0.13678410360E+02  0.26232491209E+03  0.29107706779E+03  0.12508733864E+03 0.  0.
         23    2    1    2    0    0  0.88067414276E+01 -0.13678410360E+02  0.10337342114E+03  0.13854677054E+03  0.90799151017E+02 0.  0.
          5    1    3    3  502    0 -0.22080371750E+02  0.66235251623E+02  0.12261804381E+03  0.14116411882E+03  0.41800000000E+01 0.  1.
         -5    1    3    3    0  502  0.13273630323E+02 -0.52556841263E+02  0.13970686828E+03  0.14991294898E+03  0.41800000000E+01 0.  1.
        -11    1    4    4    0    0  0.42924660605E+02 -0.31959397896E+02  0.61488648356E+02  0.81515541332E+02  0.00000000000E+00 0. -1.
         11    1    4    4    0    0 -0.34117919177E+02  0.18280987536E+02  0.41884772779E+02  0.57031229208E+02  0.00000000000E+00 0.  1.
</event>
<event>
 8    1  0.6648599E-009  0.1757353E+03  0.7561462E-02  0.1171995E+00
         -2   -1    0    0    0  501 -0.00000000000E+00  0.00000000000E+00  0.36461464349E+02  0.36461464349E+02  0.00000000000E+00 0.  1.
          2   -1    0    0  501    0  0.00000000000E+00 -0.00000000000E+00 -0.11366855946E+04  0.11366855946E+04  0.00000000000E+00 0. -1.
         25    2    1    2    0    0  0.37836272209E+02 -0.15902961555E+03 -0.72524219302E+03  0.75388763243E+03  0.12509325196E+03 0.  0.
         23    2    1    2    0    0 -0.37836272209E+02  0.15902961555E+03 -0.37498193722E+03  0.41925942650E+03  0.91896742895E+02 0.  0.
          5    1    3    3  502    0 -0.16212642179E+02 -0.84097130827E+01 -0.10580618000E+02  0.21517316696E+02  0.41800000000E+01 0.  1.
         -5    1    3    3    0  502  0.54048914388E+02 -0.15061990246E+03 -0.71466157502E+03  0.73237031574E+03  0.41800000000E+01 0.  1.
        -11    1    4    4    0    0 -0.22169830441E+00  0.11392539385E+03 -0.31649146331E+03  0.33637165586E+03  0.00000000000E+00 0.  1.
         11    1    4    4    0    0 -0.37614573905E+02  0.45104221694E+02 -0.58490473908E+02  0.82887770646E+02  0.00000000000E+00 0. -1.
</event>
<event>
 8    1  0.6648599E-009  0.1363893E+03  0.7561462E-02  0.1218272E+00
         -2   -1    0    0    0  501 -0.00000000000E+00  0.00000000000E+00  0.29702168871E+02  0.29702168871E+02  0.00000000000E+00 0.  1.
          2   -1    0    0  501    0  0.00000000000E+00 -0.00000000000E+00 -0.11794364609E+04  0.11794364609E+04  0.00000000000E+00 0. -1.
         25    2    1    2    0    0 -0.43469624012E+02 -0.12066303248E+03 -0.86898022386E+03  0.88725546964E+03  0.12508582386E+03 0.  0.
         23    2    1    2    0    0  0.43469624012E+02  0.12066303248E+03 -0.28075406815E+03  0.32188316011E+03  0.91305784916E+02 0.  0.
          5    1    3    3  502    0 -0.22215553892E+02 -0.31306288027E+01 -0.21381343875E+02  0.31272446935E+02  0.41800000000E+01 0.  1.
         -5    1    3    3    0  502 -0.21254070120E+02 -0.11753240368E+03 -0.84759887998E+03  0.85598302271E+03  0.41800000000E+01 0.  1.
        -11    1    4    4    0    0  0.12538893402E+02  0.11601059797E+02  0.20491156106E+01  0.17204863003E+02  0.00000000000E+00 0.  1.
         11    1    4    4    0    0  0.30930730610E+02  0.10906197269E+03 -0.28280318376E+03  0.30467829710E+03  0.00000000000E+00 0. -1.
</event>
<event>
 8    1  0.6648599E-009  0.1298471E+03  0.7561462E-02  0.1227683E+00
         -2   -1    0    0    0  501 -0.00000000000E+00  0.00000000000E+00  0.34621186145E+02  0.34621186145E+02  0.00000000000E+00 0.  1.
          2   -1    0    0  501    0  0.00000000000E+00 -0.00000000000E+00 -0.66891874798E+03  0.66891874798E+03  0.00000000000E+00 0. -1.
         25    2    1    2    0    0  0.16466854141E+02 -0.10109994843E+03 -0.40874534172E+03  0.43955979376E+03  0.12509077125E+03 0.  0.
         23    2    1    2    0    0 -0.16466854141E+02  0.10109994843E+03 -0.22555222012E+03  0.26398014037E+03  0.91210490907E+02 0.  0.
          5    1    3    3  502    0  0.43799777502E+02 -0.64394694904E+02 -0.37374126915E+03  0.38179196679E+03  0.41800000000E+01 0. -1.
         -5    1    3    3    0  502 -0.27332923361E+02 -0.36705253527E+02 -0.35004072571E+02  0.57767826967E+02  0.41800000000E+01 0. -1.
        -11    1    4    4    0    0  0.31098477912E+02  0.75672134743E+02 -0.15392825334E+03  0.17431951836E+03  0.00000000000E+00 0. -1.
         11    1    4    4    0    0 -0.47565332052E+02  0.25427813688E+02 -0.71623966784E+02  0.89660622015E+02  0.00000000000E+00 0.  1.
</event>
<event>
 8    1  0.6648599E-009  0.1061366E+03  0.7561462E-02  0.1267896E+00
         -3   -1    0    0    0  501 -0.00000000000E+00  0.00000000000E+00  0.31079029497E+03  0.31079029497E+03  0.00000000000E+00 0.  1.
          3   -1    0    0  501    0  0.00000000000E+00 -0.00000000000E+00 -0.52885545077E+02  0.52885545077E+02  0.00000000000E+00 0. -1.
         25    2    1    2    0    0  0.45561731731E+02 -0.21167181318E+02  0.21064061458E+03  0.25008211988E+03  0.12509067597E+03 0.  0.
         23    2    1    2    0    0 -0.45561731731E+02  0.21167181318E+02  0.47264135316E+02  0.11359372016E+03  0.90253608292E+02 0.  0.
          5    1    3    3  502    0 -0.22617083325E+01  0.38814067143E+02  0.18716378774E+02  0.43352305212E+02  0.41800000000E+01 0.  1.
         -5    1    3    3    0  502  0.47823440063E+02 -0.59981248461E+02  0.19192423580E+03  0.20672981467E+03  0.41800000000E+01 0.  1.
        -11    1    4    4    0    0  0.24002016943E+02  0.94688272852E+01  0.32547726847E+02  0.41534443904E+02  0.00000000000E+00 0.  1.
         11    1    4    4    0    0 -0.69563748674E+02  0.11698354033E+02  0.14716408468E+02  0.72059276258E+02  0.00000000000E+00 0. -1.
</event>
<event>
 8    1  0.6648599E-009  0.1127920E+03  0.7561462E-02  0.1255485E+00
          1   -1    0    0  501    0  0.00000000000E+00  0.00000000000E+00  0.52523670795E+03  0.52523670795E+03  0.00000000000E+00 0. -1.
         -1   -1    0    0    0  501 -0.00000000000E+00 -0.00000000000E+00 -0.36037762818E+02  0.36037762818E+02  0.00000000000E+00 0.  1.
         25    2    1    2    0    0  0.54112391457E+02 -0.64242530312E+02  0.26599212463E+03  0.30570402132E+03  0.12509150523E+03 0.  0.
         23    2    1    2    0    0 -0.54112391457E+02  0.64242530312E+02  0.22320682050E+03  0.25557044944E+03  0.91867928568E+02 0.  0.
          5    1    3    3  502    0 -0.16359859486E+02 -0.58180365235E+02  0.19964619307E+03  0.20863526717E+03  0.41800000000E+01 0. -1.
         -5    1    3    3    0  502  0.70472250943E+02 -0.60621650773E+01  0.66345931562E+02  0.97068754155E+02  0.41800000000E+01 0. -1.
        -11    1    4    4    0    0 -0.39589590111E+02  0.68408679920E+02  0.22668294557E+03  0.24006715924E+03  0.00000000000E+00 0. -1.
         11    1    4    4    0    0 -0.14522801346E+02 -0.41661496076E+01 -0.34761250707E+01  0.15503290199E+02  0.00000000000E+00 0.  1.
</event>
<event>
 8    1  0.6648599E-009  0.1175586E+03  0.7561462E-02  0.1247180E+00
         -1   -1    0    0    0  501 -0.00000000000E+00  0.00000000000E+00  0.32882272077E+02  0.32882272077E+02  0.00000000000E+00 0.  1.
          1   -1    0    0  501    0  0.00000000000E+00 -0.00000000000E+00 -0.45620581564E+03  0.45620581564E+03  0.00000000000E+00 0. -1.
         25    2    1    2    0    0 -0.25097233114E+02 -0.49832612509E+02 -0.25771476245E+03  0.29185124608E+03  0.12508833149E+03 0.  0.
         23    2    1    2    0    0  0.25097233114E+02  0.49832612509E+02 -0.16560878112E+03  0.19723684164E+03  0.91449127594E+02 0.  0.
          5    1    3    3  502    0  0.49071793223E+02 -0.35817011756E+02 -0.12713897584E+03  0.14097053167E+03  0.41800000000E+01 0.  1.
         -5    1    3    3    0  502 -0.74169026337E+02 -0.14015600753E+02 -0.13057578661E+03  0.15088071441E+03  0.41800000000E+01 0.  1.
        -11    1    4    4    0    0 -0.72201172519E+00 -0.22144115660E+02 -0.10966102887E+02  0.24721217038E+02  0.00000000000E+00 0.  1.
         11    1    4    4    0    0  0.25819244839E+02  0.71976728169E+02 -0.15464267823E+03  0.17251562460E+03  0.00000000000E+00 0. -1.
</event>
<event>
 8    1  0.6648599E-009  0.1088292E+03  0.7561462E-02  0.1262753E+00
         -2   -1    0    0    0  501 -0.00000000000E+00  0.00000000000E+00  0.26206315002E+02  0.26206315002E+02  0.00000000000E+00 0.  1.
          2   -1    0    0  501    0  0.00000000000E+00 -0.00000000000E+00 -0.61088496090E+03  0.61088496090E+03  0.00000000000E+00 0. -1.
         25    2    1    2    0    0  0.24774712757E+02  0.76361283737E+00 -0.17493640845E+03  0.21648003947E+03  0.12508593443E+03 0.  0.
         23    2    1    2    0    0 -0.24774712757E+02 -0.76361283737E+00 -0.40974223745E+03  0.42061123643E+03  0.91710095212E+02 0.  0.
          5    1    3    3  502    0 -0.43281890652E+02 -0.26019051191E+02 -0.97508098280E+02  0.10988910189E+03  0.41800000000E+01 0.  1.
         -5    1    3    3    0  502  0.68056603409E+02  0.26782664029E+02 -0.77428310169E+02  0.10659093759E+03  0.41800000000E+01 0.  1.
        -11    1    4    4    0    0  0.95772259899E+00  0.42973111241E+02 -0.15417619001E+03  0.16005593737E+03  0.00000000000E+00 0.  1.
         11    1    4    4    0    0 -0.25732435356E+02 -0.43736724079E+02 -0.25556604744E+03  0.26055529906E+03  0.00000000000E+00 0. -1.
</event>
<event>
 8    1  0.6648599E-009  0.7730937E+02  0.7561462E-02  0.1336865E+00
          1   -1    0    0  501    0  0.00000000000E+00  0.00000000000E+00  0.85026810593E+02  0.85026810593E+02  0.00000000000E+00 0. -1.
         -1   -1    0    0    0  501 -0.00000000000E+00 -0.00000000000E+00 -0.15251904246E+03  0.15251904246E+03  0.00000000000E+00 0.  1.
         25    2    1    2    0    0 -0.40606639237E+02 -0.21114176465E+01 -0.64311640284E+02  0.14641541570E+03  0.12509248436E+03 0.  0.
         23    2    1    2    0    0  0.40606639237E+02  0.21114176465E+01 -0.31805915860E+01  0.91130437358E+02  0.81494068592E+02 0.  0.
          5    1    3    3  502    0  0.19979299055E+02 -0.26680342619E+02 -0.72972854449E+02  0.80333822014E+02  0.41800000000E+01 0. -1.
         -5    1    3    3    0  502 -0.60585938292E+02  0.24568924972E+02  0.86612141642E+01  0.66081593684E+02  0.41800000000E+01 0. -1.
        -11    1    4    4    0    0  0.29760184436E+02 -0.16458980810E+02 -0.37503284754E+02  0.50626702384E+02  0.00000000000E+00 0.  1.
         11    1    4    4    0    0  0.10846454801E+02  0.18570398456E+02  0.34322693168E+02  0.40503734974E+02  0.00000000000E+00 0. -1.
</event>
<event>
 8    1  0.6648599E-009  0.1079745E+03  0.7561462E-02  0.1264367E+00
         -1   -1    0    0    0  501 -0.00000000000E+00  0.00000000000E+00  0.30650328585E+02  0.30650328585E+02  0.00000000000E+00 0.  1.
          1   -1    0    0  501    0  0.00000000000E+00 -0.00000000000E+00 -0.56046577757E+03  0.56046577757E+03  0.00000000000E+00 0. -1.
         25    2    1    2    0    0  0.40298133613E+02  0.62360177069E+02 -0.32149265501E+03  0.35286904416E+03  0.12508518635E+03 0.  0.
         23    2    1    2    0    0 -0.40298133613E+02 -0.62360177069E+02 -0.20832279398E+03  0.23824706200E+03  0.88603300188E+02 0.  0.
          5    1    3    3  502    0 -0.26372764752E+02  0.58154353084E+02 -0.80955235262E+02  0.10319241261E+03  0.41800000000E+01 0.  1.
         -5    1    3    3    0  502  0.66670898364E+02  0.42058239857E+01 -0.24053741975E+03  0.24967663155E+03  0.41800000000E+01 0.  1.
        -11    1    4    4    0    0 -0.28857467182E+02 -0.86756437086E+01 -0.89178512462E+01  0.31425280854E+02  0.00000000000E+00 0.  1.
         11    1    4    4    0    0 -0.11440666431E+02 -0.53684533361E+02 -0.19940494273E+03  0.20682178115E+03  0.00000000000E+00 0. -1.
</event>
<event>
 8    1  0.6648599E-009  0.9812839E+02  0.7561462E-02  0.1284282E+00
         -1   -1    0    0    0  501 -0.00000000000E+00  0.00000000000E+00  0.43972375511E+02  0.43972375511E+02  0.00000000000E+00 0.  1.
          1   -1    0    0  501    0  0.00000000000E+00 -0.00000000000E+00 -0.31341081674E+03  0.31341081674E+03  0.00000000000E+00 0. -1.
         25    2    1    2    0    0 -0.10893496765E+01  0.44968272910E+02 -0.14789562644E+03  0.19887637746E+03  0.12512140081E+03 0.  0.
         23    2    1    2    0    0  0.10893496765E+01 -0.44968272910E+02 -0.12154281479E+03  0.15850681479E+03  0.91260189882E+02 0.  0.
          5    1    3    3  502    0 -0.33718930396E+02 -0.25628095634E+02 -0.15543045593E+02  0.45308103240E+02  0.41800000000E+01 0.  1.
         -5    1    3    3    0  502  0.32629580720E+02  0.70596368544E+02 -0.13235258085E+03  0.15356827422E+03  0.41800000000E+01 0.  1.
        -11    1    4    4    0    0  0.31031048790E+02 -0.24627411557E+02 -0.11511754143E+03  0.12174351619E+03  0.00000000000E+00 0. -1.
         11    1    4    4    0    0 -0.29941699113E+02 -0.20340861353E+02 -0.64252733575E+01  0.36763298602E+02  0.00000000000E+00 0.  1.
</event>
<event>
 8    1  0.6648599E-009  0.1360019E+03  0.7561462E-02  0.1218812E+00
         -2   -1    0    0    0  501 -0.00000000000E+00  0.00000000000E+00  0.19839120305E+02  0.19839120305E+02  0.00000000000E+00 0.  1.
          2   -1    0    0  501    0  0.00000000000E+00 -0.00000000000E+00 -0.98354721434E+03  0.98354721434E+03  0.00000000000E+00 0. -1.
         25    2    1    2    0    0  0.81419676336E+02 -0.20069715875E+02 -0.63581984678E+03  0.65341080092E+03  0.12508732951E+03 0.  0.
         23    2    1    2    0    0 -0.81419676336E+02  0.20069715875E+02 -0.32788824726E+03  0.34997553373E+03  0.89107880298E+02 0.  0.
          5    1    3    3  502    0  0.11385343930E+03 -0.25309422632E+02 -0.46605358548E+03  0.48044415852E+03  0.41800000000E+01 0.  1.
         -5    1    3    3    0  502 -0.32433762965E+02  0.52397067575E+01 -0.16976626130E+03  0.17296664240E+03  0.41800000000E+01 0.  1.
        -11    1    4    4    0    0 -0.89299047310E+02  0.42139991513E+02 -0.25714060603E+03  0.27544761753E+03  0.00000000000E+00 0.  1.
         11    1    4    4    0    0  0.78793709734E+01 -0.22070275638E+02 -0.70747641229E+02  0.74527916201E+02  0.00000000000E+00 0. -1.
</event>
<event>
 8    1  0.6648599E-009  0.1030028E+03  0.7561462E-02  0.1274105E+00
         -2   -1    0    0    0  501 -0.00000000000E+00  0.00000000000E+00  0.48679004813E+02  0.48679004813E+02  0.00000000000E+00 0.  1.
          2   -1    0    0  501    0  0.00000000000E+00 -0.00000000000E+00 -0.32211265492E+03  0.32211265492E+03  0.00000000000E+00 0. -1.
         25    2    1    2    0    0 -0.44493144225E+02  0.13063528934E+02 -0.13987172622E+03  0.19330659699E+03  0.12511212961E+03 0.  0.
         23    2    1    2    0    0  0.44493144225E+02 -0.13063528934E+02 -0.13356192389E+03  0.17748506274E+03  0.10729335632E+03 0.  0.
          5    1    3    3  502    0 -0.10984118687E+02 -0.31399246872E+02  0.86607013396E+01  0.34627210618E+02  0.41800000000E+01 0.  1.
         -5    1    3    3    0  502 -0.33509025538E+02  0.44462775806E+02 -0.14853242756E+03  0.15867938638E+03  0.41800000000E+01 0.  1.
        -11    1    4    4    0    0  0.12036609155E+01 -0.55801539348E+02 -0.58255130683E+02  0.80677883240E+02  0.00000000000E+00 0.  1.
         11    1    4    4    0    0  0.43289483310E+02  0.42738010414E+02 -0.75306793205E+02  0.96807179497E+02  0.00000000000E+00 0. -1.
</event>
<event>
 8    1  0.6648599E-009  0.1390815E+03  0.7561462E-02  0.1214570E+00
          1   -1    0    0  501    0  0.00000000000E+00  0.00000000000E+00  0.17998371576E+04  0.17998371576E+04  0.00000000000E+00 0. -1.
         -1   -1    0    0    0  501 -0.00000000000E+00 -0.00000000000E+00 -0.21614708567E+02  0.21614708567E+02  0.00000000000E+00 0.  1.
         25    2    1    2    0    0  0.97790850978E+02  0.22784816766E+01  0.15409247745E+04  0.15490846276E+04  0.12508309575E+03 0.  0.
         23    2    1    2    0    0 -0.97790850978E+02 -0.22784816766E+01  0.23729767451E+03  0.27236723853E+03  0.91134429721E+02 0.  0.
          5    1    3    3  502    0  0.74786318328E+01  0.45763217511E+02  0.80605815171E+03  0.80740164623E+03  0.41800000000E+01 0. -1.
         -5    1    3    3    0  502  0.90312219145E+02 -0.43484735834E+02  0.73486662282E+03  0.74168298141E+03  0.41800000000E+01 0. -1.
        -11    1    4    4    0    0 -0.36196314597E+02 -0.43933823261E+02  0.12898236471E+03  0.14098512128E+03  0.00000000000E+00 0. -1.
         11    1    4    4    0    0 -0.61594536381E+02  0.41655341584E+02  0.10831530981E+03  0.13138211725E+03  0.00000000000E+00 0.  1.
</event>
<event>
 8    1  0.6648599E-009  0.2491418E+03  0.7561462E-02  0.1113848E+00
         -2   -1    0    0    0  501 -0.00000000000E+00  0.00000000000E+00  0.98518741211E+02  0.98518741211E+02  0.00000000000E+00 0.  1.
          2   -1    0    0  501    0  0.00000000000E+00 -0.00000000000E+00 -0.68142440312E+03  0.68142440312E+03  0.00000000000E+00 0. -1.
         25    2    1    2    0    0 -0.15171877812E+03  0.17931926701E+03 -0.29492887850E+03  0.39724588628E+03  0.12508902287E+03 0.  0.
         23    2    1    2    0    0  0.15171877812E+03 -0.17931926701E+03 -0.28797678341E+03  0.38269725805E+03  0.91392430666E+02 0.  0.
          5    1    3    3  502    0 -0.11454423280E+02 -0.17469840947E+02 -0.43772369980E+02  0.48681535813E+02  0.41800000000E+01 0.  1.
         -5    1    3    3    0  502 -0.14026435484E+03  0.19678910795E+03 -0.25115650852E+03  0.34856435047E+03  0.41800000000E+01 0.  1.
        -11    1    4    4    0    0  0.11000499004E+03 -0.12034004721E+03 -0.25642113154E+03  0.30386612430E+03  0.00000000000E+00 0.  1.
         11    1    4    4    0    0  0.41713788077E+02 -0.58979219798E+02 -0.31555651872E+02  0.78831133753E+02  0.00000000000E+00 0. -1.
</event>
<event>
 8    1  0.6648599E-009  0.7946862E+02  0.7561462E-02  0.1330566E+00
          1   -1    0    0  501    0  0.00000000000E+00  0.00000000000E+00  0.31521932602E+03  0.31521932602E+03  0.00000000000E+00 0. -1.
         -1   -1    0    0    0  501 -0.00000000000E+00 -0.00000000000E+00 -0.70617504185E+02  0.70617504185E+02  0.00000000000E+00 0.  1.
         25    2    1    2    0    0 -0.14778716135E+02 -0.12384524322E+02  0.26380230362E+03  0.29259392888E+03  0.12509102656E+03 0.  0.
         23    2    1    2    0    0  0.14778716135E+02  0.12384524322E+02 -0.19200481789E+02  0.93242901325E+02  0.89184041472E+02 0.  0.
          5    1    3    3  502    0 -0.47086399435E+02 -0.31478285760E+02  0.50572257767E+02  0.76046282893E+02  0.41800000000E+01 0. -1.
         -5    1    3    3    0  502  0.32307683300E+02  0.19093761438E+02  0.21323004585E+03  0.21654764598E+03  0.41800000000E+01 0. -1.
        -11    1    4    4    0    0  0.38196198813E+02  0.14533713826E+02 -0.43321279537E+02  0.59555954380E+02  0.00000000000E+00 0.  1.
         11    1    4    4    0    0 -0.23417482678E+02 -0.21491895041E+01  0.24120797748E+02  0.33686946945E+02  0.00000000000E+00 0. -1.
</event>
<event>
 8    1  0.6648599E-009  0.1934758E+03  0.7561462E-02  0.1155363E+00
          1   -1    0    0  501    0  0.00000000000E+00  0.00000000000E+00  0.13414609243E+04  0.13414609243E+04  0.00000000000E+00 0. -1.
         -1   -1    0    0    0  501 -0.00000000000E+00 -0.00000000000E+00 -0.36605262916E+02  0.36605262916E+02  0.00000000000E+00 0.  1.
         25    2    1    2    0    0  0.18834870629E+03 -0.35823232510E+02  0.60238868718E+03  0.64442094138E+03  0.12509068749E+03 0.  0.
         23    2    1    2    0    0 -0.18834870629E+03  0.35823232510E+02  0.70246697418E+03  0.73364524581E+03  0.89537465546E+02 0.  0.
          5    1    3    3  502    0  0.15548032145E+03 -0.28168697566E+02  0.58548254776E+03  0.60644446738E+03  0.41800000000E+01 0. -1.
         -5    1    3    3    0  502  0.32868384847E+02 -0.76545349442E+01  0.16906139418E+02  0.37976474003E+02  0.41800000000E+01 0. -1.
        -11    1    4    4    0    0 -0.12100012179E+03  0.57932252898E+01  0.56298676745E+03  0.57587211363E+03  0.00000000000E+00 0.  1.
         11    1    4    4    0    0 -0.67348584508E+02  0.30030007220E+02  0.13948020673E+03  0.15777313218E+03  0.00000000000E+00 0. -1.
</event>
<event>
 8    1  0.6648599E-009  0.1802848E+03  0.7561462E-02  0.1167528E+00
          2   -1    0    0  501    0  0.00000000000E+00  0.00000000000E+00  0.94632566691E+03  0.94632566691E+03  0.00000000000E+00 0.  1.
         -2   -1    0    0    0  501 -0.00000000000E+00 -0.00000000000E+00 -0.41048714046E+02  0.41048714046E+02  0.00000000000E+00 0. -1.
         25    2    1    2    0    0 -0.14814372523E+03 -0.27920981992E+02  0.64804704176E+03  0.67700734923E+03  0.12509131869E+03 0.  0.
         23    2    1    2    0    0  0.14814372523E+03  0.27920981992E+02  0.25722991111E+03  0.31036703173E+03  0.86222518269E+02 0.  0.
          5    1    3    3  502    0  0.22472464097E+02  0.56057492294E+00  0.76073135010E+02  0.79435005867E+02  0.41800000000E+01 0. -1.
         -5    1    3    3    0  502 -0.17061618933E+03 -0.28481556915E+02  0.57197390675E+03  0.59757234336E+03  0.41800000000E+01 0. -1.
        -11    1    4    4    0    0  0.76957824369E+02 -0.19189544531E+02  0.75114003858E+02  0.10923762596E+03  0.00000000000E+00 0. -1.
         11    1    4    4    0    0  0.71185900866E+02  0.47110526523E+02  0.18211590725E+03  0.20112940577E+03  0.00000000000E+00 0.  1.
</event>
<event>
 8    1  0.6648599E-009  0.1374543E+03  0.7561462E-02  0.1216796E+00
          1   -1    0    0  501    0  0.00000000000E+00  0.00000000000E+00  0.16287141895E+04  0.16287141895E+04  0.00000000000E+00 0. -1.
         -1   -1    0    0    0  501 -0.00000000000E+00 -0.00000000000E+00 -0.15739407678E+02  0.15739407678E+02  0.00000000000E+00 0.  1.
         25    2    1    2    0    0 -0.70228792757E+02 -0.59128952329E+02  0.12384805535E+04  0.12481619484E+04  0.12508337878E+03 0.  0.
         23    2    1    2    0    0  0.70228792757E+02  0.59128952329E+02  0.37449422823E+03  0.39629164871E+03  0.91503155804E+02 0.  0.
          5    1    3    3  502    0  0.15132529744E+02  0.22744412025E+02  0.10711349615E+03  0.11062131437E+03  0.41800000000E+01 0.  1.
         -5    1    3    3    0  502 -0.85361322501E+02 -0.81873364355E+02  0.11313670574E+04  0.11375406341E+04  0.41800000000E+01 0.  1.
        -11    1    4    4    0    0  0.91678012123E+02  0.39431446563E+02  0.27156317714E+03  0.28932033469E+03  0.00000000000E+00 0.  1.
         11    1    4    4    0    0 -0.21449219366E+02  0.19697505766E+02  0.10293105109E+03  0.10697131402E+03  0.00000000000E+00 0. -1.
</event>
<event>
 8    1  0.6648599E-009  0.1062851E+03  0.7561462E-02  0.1267608E+00
          2   -1    0    0  501    0  0.00000000000E+00  0.00000000000E+00  0.74418640125E+03  0.74418640125E+03  0.00000000000E+00 0. -1.
         -2   -1    0    0    0  501 -0.00000000000E+00 -0.00000000000E+00 -0.20719996267E+02  0.20719996267E+02  0.00000000000E+00 0.  1.
         25    2    1    2    0    0 -0.49848450469E+02 -0.31592517206E+02  0.42047649938E+03  0.44263973300E+03  0.12508593662E+03 0.  0.
         23    2    1    2    0    0  0.49848450469E+02  0.31592517206E+02  0.30298990560E+03  0.32226666451E+03  0.92574105479E+02 0.  0.
          5    1    3    3  502    0 -0.69309468002E+02 -0.52517648209E+02  0.17488965946E+03  0.19536061813E+03  0.41800000000E+01 0. -1.
         -5    1    3    3    0  502  0.19461017533E+02  0.20925131004E+02  0.24558683992E+03  0.24727911487E+03  0.41800000000E+01 0. -1.
        -11    1    4    4    0    0  0.38000625954E+02 -0.20520686803E+02  0.62890465027E+02  0.76291262613E+02  0.00000000000E+00 0.  1.
         11    1    4    4    0    0  0.11847824514E+02  0.52113204009E+02  0.24009944057E+03  0.24597540190E+03  0.00000000000E+00 0. -1.
</event>
<event>
 7    1  0.6648599E-009  0.2265541E+03  0.7561462E-02  0.1129089E+00
         -1   -1    0    0    0  501 -0.00000000000E+00  0.00000000000E+00  0.28899111461E+02  0.28899111461E+02  0.00000000000E+00 0.  1.
          1   -1    0    0  501    0  0.00000000000E+00 -0.00000000000E+00 -0.21672146892E+04  0.21672146892E+04  0.00000000000E+00 0. -1.
         23    2    1    2    0    0 -0.20242964714E+03  0.38007808167E+02 -0.62995260786E+03  0.66861738216E+03  0.88241487174E+02 0.  0.
          5    1    1    2  502    0  0.18299582796E+02  0.33942336109E+02 -0.37639728159E+03  0.37839046354E+03  0.41800000000E+01 0.  1.
         -5    1    1    2    0  502  0.18413006434E+03 -0.71950144276E+02 -0.11319656883E+04  0.11491059550E+04  0.41800000000E+01 0.  1.
        -11    1    3    3    0    0 -0.63528192233E+02 -0.19202174931E+02 -0.12158208300E+03  0.13851627210E+03  0.00000000000E+00 0.  1.
         11    1    3    3    0    0 -0.13890145490E+03  0.57209983098E+02 -0.50837052486E+03  0.53010111006E+03  0.00000000000E+00 0. -1.
</event>
<event>
 8    1  0.6648599E-009  0.1246171E+03  0.7561462E-02  0.1235669E+00
         -1   -1    0    0    0  501 -0.00000000000E+00  0.00000000000E+00  0.11133277207E+03  0.11133277207E+03  0.00000000000E+00 0.  1.
          1   -1    0    0  501    0  0.00000000000E+00 -0.00000000000E+00 -0.20371181864E+03  0.20371181864E+03  0.00000000000E+00 0. -1.
         25    2    1    2    0    0 -0.55369396279E+02  0.21677064414E+02 -0.13240927276E+03  0.19161189143E+03  0.12508891342E+03 0.  0.
         23    2    1    2    0    0  0.55369396279E+02 -0.21677064414E+02  0.40030226183E+02  0.12343269928E+03  0.10048655172E+03 0.  0.
          5    1    3    3  502    0 -0.73536885462E+02 -0.31573926207E+02 -0.93144992905E+02  0.12287411624E+03  0.41800000000E+01 0. -1.
         -5    1    3    3    0  502  0.18167489182E+02  0.53250990621E+02 -0.39264279854E+02  0.68737775188E+02  0.41800000000E+01 0. -1.
        -11    1    4    4    0    0  0.84747341453E+00 -0.50838771008E+02  0.20883460197E+01  0.50888702459E+02  0.00000000000E+00 0. -1.
         11    1    4    4    0    0  0.54521922864E+02  0.29161706595E+02  0.37941880164E+02  0.72543996821E+02  0.00000000000E+00 0.  1.
</event>
<event>
 8    1  0.6648599E-009  0.4851764E+02  0.7561462E-02  0.1453505E+00
          1   -1    0    0  501    0  0.00000000000E+00  0.00000000000E+00  0.40172193685E+03  0.40172193685E+03  0.00000000000E+00 0.  1.
         -1   -1    0    0    0  501 -0.00000000000E+00 -0.00000000000E+00 -0.30628516674E+02  0.30628516674E+02  0.00000000000E+00 0. -1.
         25    2    1    2    0    0 -0.30685584033E+02 -0.20159732350E+01  0.29958840194E+03  0.32610783877E+03  0.12508973864E+03 0.  0.
         23    2    1    2    0    0  0.30685584033E+02  0.20159732350E+01  0.71505018237E+02  0.10624261476E+03  0.72310831428E+02 0.  0.
          5    1    3    3  502    0 -0.21150849975E+00  0.12086549107E+02  0.29088795021E+03  0.29116902545E+03  0.41800000000E+01 0. -1.
         -5    1    3    3    0  502 -0.30474075533E+02 -0.14102522342E+02  0.87004517374E+01  0.34938813323E+02  0.41800000000E+01 0. -1.
        -11    1    4    4    0    0 -0.81618515679E+01 -0.67392560387E+01 -0.10606463127E+02  0.14984340260E+02  0.00000000000E+00 0. -1.
         11    1    4    4    0    0  0.38847435601E+02  0.87552292737E+01  0.82111481364E+02  0.91258274497E+02  0.00000000000E+00 0.  1.
</event>
<event>
 8    1  0.6648599E-009  0.1451853E+03  0.7561462E-02  0.1206517E+00
          2   -1    0    0  501    0  0.00000000000E+00  0.00000000000E+00  0.10626557766E+04  0.10626557766E+04  0.00000000000E+00 0. -1.
         -2   -1    0    0    0  501 -0.00000000000E+00 -0.00000000000E+00 -0.22619520270E+02  0.22619520270E+02  0.00000000000E+00 0.  1.
         25    2    1    2    0    0 -0.89472568663E+02  0.61102761456E+02  0.48849249604E+03  0.51576218515E+03  0.12508726934E+03 0.  0.
         23    2    1    2    0    0  0.89472568663E+02 -0.61102761456E+02  0.55154376030E+03  0.56951311172E+03  0.91683024041E+02 0.  0.
          5    1    3    3  502    0 -0.11183955446E+02  0.79035175562E+02  0.30725015042E+03  0.31747719157E+03  0.41800000000E+01 0. -1.
         -5    1    3    3    0  502 -0.78288613217E+02 -0.17932414107E+02  0.18124234562E+03  0.19828499358E+03  0.41800000000E+01 0. -1.
        -11    1    4    4    0    0  0.61315409845E+02  0.15390037760E+01  0.14863417255E+03  0.16079199379E+03  0.00000000000E+00 0.  1.
         11    1    4    4    0    0  0.28157158819E+02 -0.62641765232E+02  0.40290958774E+03  0.40872111793E+03  0.00000000000E+00 0. -1.
</event>
<event>
 8    1  0.6648599E-009  0.2121991E+03  0.7561462E-02  0.1139836E+00
         -4   -1    0    0    0  501 -0.00000000000E+00  0.00000000000E+00  0.18909355417E+03  0.18909355417E+03  0.00000000000E+00 0.  1.
          4   -1    0    0  501    0  0.00000000000E+00 -0.00000000000E+00 -0.32738131025E+03  0.32738131025E+03  0.00000000000E+00 0. -1.
         25    2    1    2    0    0  0.36420013077E+02  0.20127782708E+03  0.33114207051E+02  0.24203980843E+03  0.12509011602E+03 0.  0.
         23    2    1    2    0    0 -0.36420013077E+02 -0.20127782708E+03 -0.17140196312E+03  0.27443505599E+03  0.64006140075E+02 0.  0.
          5    1    3    3  502    0  0.18744832186E+02  0.19427579804E+02  0.51566513527E+02  0.58355610768E+02  0.41800000000E+01 0.  1.
         -5    1    3    3    0  502  0.17675180891E+02  0.18185024728E+03 -0.18452306476E+02  0.18368419766E+03  0.41800000000E+01 0.  1.
        -11    1    4    4    0    0 -0.25316226112E+02 -0.18858454896E+02 -0.24876586016E+02  0.40192003650E+02  0.00000000000E+00 0.  1.
         11    1    4    4    0    0 -0.11103786965E+02 -0.18241937219E+03 -0.14652537711E+03  0.23424305234E+03  0.00000000000E+00 0. -1.
</event>
<event>
 8    1  0.6648599E-009  0.1163611E+03  0.7561462E-02  0.1249224E+00
          1   -1    0    0  501    0  0.00000000000E+00  0.00000000000E+00  0.13921056277E+04  0.13921056277E+04  0.00000000000E+00 0. -1.
         -1   -1    0    0    0  501 -0.00000000000E+00 -0.00000000000E+00 -0.20293298149E+02  0.20293298149E+02  0.00000000000E+00 0.  1.
         25    2    1    2    0    0 -0.67040529157E+01  0.10668396345E+03  0.10232919889E+04  0.10364359493E+04  0.12508625091E+03 0.  0.
         23    2    1    2    0    0  0.67040529157E+01 -0.10668396345E+03  0.34852034072E+03  0.37596297658E+03  0.91952811123E+02 0.  0.
          5    1    3    3  502    0 -0.61074829900E+01  0.14185805466E+02  0.98849055972E+01  0.18807503393E+02  0.41800000000E+01 0. -1.
         -5    1    3    3    0  502 -0.59656992572E+00  0.92498157986E+02  0.10134070833E+04  0.10176284459E+04  0.41800000000E+01 0. -1.
        -11    1    4    4    0    0 -0.27761834868E+02 -0.59879211234E+02  0.93793643771E+02  0.11468865256E+03  0.00000000000E+00 0.  1.
         11    1    4    4    0    0  0.34465887784E+02 -0.46804752218E+02  0.25472669695E+03  0.26127432402E+03  0.00000000000E+00 0. -1.
</event>
<event>
 8    1  0.6648599E-009  0.1094908E+03  0.7561462E-02  0.1261516E+00
          3   -1    0    0  501    0  0.00000000000E+00  0.00000000000E+00  0.21142877946E+03  0.21142877946E+03  0.00000000000E+00 0. -1.
         -3   -1    0    0    0  501 -0.00000000000E+00 -0.00000000000E+00 -0.76097966389E+02  0.76097966389E+02  0.00000000000E+00 0.  1.
         25    2    1    2    0    0  0.43791432918E+02  0.34025140914E+02  0.33339979278E+02  0.14083629856E+03  0.12509160229E+03 0.  0.
         23    2    1    2    0    0 -0.43791432918E+02 -0.34025140914E+02  0.10199083379E+03  0.14669044729E+03  0.89669154879E+02 0.  0.
          5    1    3    3  502    0 -0.43021929854E+02  0.20443928355E+02  0.20135757881E+02  0.51882191554E+02  0.41800000000E+01 0. -1.
         -5    1    3    3    0  502  0.86813362772E+02  0.13581212559E+02  0.13204221396E+02  0.88954107005E+02  0.41800000000E+01 0. -1.
        -11    1    4    4    0    0  0.15045756503E+02 -0.15285386170E+02  0.77244615408E+02  0.80167003366E+02  0.00000000000E+00 0.  1.
         11    1    4    4    0    0 -0.58837189421E+02 -0.18739754743E+02  0.24746218382E+02  0.66523443921E+02  0.00000000000E+00 0. -1.
</event>
<event>
 8    1  0.6648599E-009  0.7220345E+02  0.7561462E-02  0.1352756E+00
         -2   -1    0    0    0  501 -0.00000000000E+00  0.00000000000E+00  0.99938143048E+02  0.99938143048E+02  0.00000000000E+00 0.  1.
          2   -1    0    0  501    0  0.00000000000E+00 -0.00000000000E+00 -0.14456109552E+03  0.14456109552E+03  0.00000000000E+00 0. -1.
         25    2    1    2    0    0  0.11190159458E+02 -0.48774165789E+02 -0.16937561476E+02  0.13578812946E+03  0.12508955271E+03 0.  0.
         23    2    1    2    0    0 -0.11190159458E+02  0.48774165789E+02 -0.27685390992E+02  0.10871110910E+03  0.92452611923E+02 0.  0.
          5    1    3    3  502    0  0.23802073083E+02  0.39017089950E+01 -0.61071380081E+02  0.65794740527E+02  0.41800000000E+01 0. -1.
         -5    1    3    3    0  502 -0.12611913625E+02 -0.52675874784E+02  0.44133818605E+02  0.69993388932E+02  0.41800000000E+01 0. -1.
        -11    1    4    4    0    0  0.14963038280E+02  0.29619652978E+02  0.28566697915E+02  0.43786671338E+02  0.00000000000E+00 0.  1.
         11    1    4    4    0    0 -0.26153197738E+02  0.19154512811E+02 -0.56252088906E+02  0.64924437766E+02  0.00000000000E+00 0. -1.
</event>
<event>
 8    1  0.6648599E-009  0.1176120E+03  0.7561462E-02  0.1247089E+00
         -2   -1    0    0    0  501 -0.00000000000E+00  0.00000000000E+00  0.12612988351E+02  0.12612988351E+02  0.00000000000E+00 0.  1.
          2   -1    0    0  501    0  0.00000000000E+00 -0.00000000000E+00 -0.11434829536E+04  0.11434829536E+04  0.00000000000E+00 0. -1.
         25    2    1    2    0    0  0.48347786056E+02  0.24730643602E+02 -0.69033345362E+03  0.70367390142E+03  0.12509024425E+03 0.  0.
         23    2    1    2    0    0 -0.48347786056E+02 -0.24730643602E+02 -0.44053651159E+03  0.45242204049E+03  0.87545254167E+02 0.  0.
          5    1    3    3  502    0  0.12946137947E+02  0.71845604832E+02 -0.29377515238E+03  0.30273867605E+03  0.41800000000E+01 0. -1.
         -5    1    3    3    0  502  0.35401648109E+02 -0.47114961230E+02 -0.39655830124E+03  0.40093522537E+03  0.41800000000E+01 0. -1.
        -11    1    4    4    0    0  0.23302355258E+02  0.74656616278E+01 -0.10428003025E+03  0.10711237358E+03  0.00000000000E+00 0.  1.
         11    1    4    4    0    0 -0.71650141314E+02 -0.32196305230E+02 -0.33625648134E+03  0.34530966691E+03  0.00000000000E+00 0. -1.
</event>
<event>
 8    1  0.6648599E-009  0.1128033E+03  0.7561462E-02  0.1255465E+00
         -2   -1    0    0    0  501 -0.00000000000E+00  0.00000000000E+00  0.16854358443E+02  0.16854358443E+02  0.00000000000E+00 0. -1.
          2   -1    0    0  501    0  0.00000000000E+00 -0.00000000000E+00 -0.10993727549E+04  0.10993727549E+04  0.00000000000E+00 0.  1.
         25    2    1    2    0    0  0.51338696481E+02  0.17489833929E+02 -0.84422424336E+03  0.85516295503E+03  0.12509016963E+03 0.  0.
         23    2    1    2    0    0 -0.51338696481E+02 -0.17489833929E+02 -0.23829415314E+03  0.26106415835E+03  0.91808688630E+02 0.  0.
          5    1    3    3  502    0 -0.21989380935E+02  0.39715284896E+02 -0.15174901411E+03  0.15844895838E+03  0.41800000000E+01 0. -1.
         -5    1    3    3    0  502  0.73328077416E+02 -0.22225450967E+02 -0.69247522925E+03  0.69671399666E+03  0.41800000000E+01 0. -1.
        -11    1    4    4    0    0  0.25225776160E+02 -0.43780175930E+01 -0.34459266620E+02  0.42929568795E+02  0.00000000000E+00 0.  1.
         11    1    4    4    0    0 -0.76564472641E+02 -0.13111816336E+02 -0.20383488652E+03  0.21813458955E+03  0.00000000000E+00 0. -1.
</event>
<event>
 8    1  0.6648599E-009  0.1373707E+03  0.7561462E-02  0.1216911E+00
         -1   -1    0    0    0  501 -0.00000000000E+00  0.00000000000E+00  0.48119229309E+02  0.48119229309E+02  0.00000000000E+00 0.  1.
          1   -1    0    0  501    0  0.00000000000E+00 -0.00000000000E+00 -0.48133479492E+03  0.48133479492E+03  0.00000000000E+00 0. -1.
         25    2    1    2    0    0 -0.71241538971E+02  0.74437670860E+02 -0.29015692368E+03  0.33234742176E+03  0.12508974648E+03 0.  0.
         23    2    1    2    0    0  0.71241538971E+02 -0.74437670860E+02 -0.14305864193E+03  0.19710660247E+03  0.88141443076E+02 0.  0.
          5    1    3    3  502    0 -0.99058230891E+01  0.90298082070E+02 -0.21816361246E+03  0.23635715170E+03  0.41800000000E+01 0. -1.
         -5    1    3    3    0  502 -0.61335715882E+02 -0.15860411211E+02 -0.71993311219E+02  0.95990270063E+02  0.41800000000E+01 0. -1.
        -11    1    4    4    0    0  0.44303388393E+02 -0.81236211968E+02 -0.61907256454E+02  0.11133113113E+03  0.00000000000E+00 0.  1.
         11    1    4    4    0    0  0.26938150578E+02  0.67985411084E+01 -0.81151385475E+02  0.85775471333E+02  0.00000000000E+00 0. -1.
</event>
<event>
 8    1  0.6648599E-009  0.1454343E+03  0.7561462E-02  0.1206198E+00
          2   -1    0    0  501    0  0.00000000000E+00  0.00000000000E+00  0.40400268200E+03  0.40400268200E+03  0.00000000000E+00 0. -1.
         -2   -1    0    0    0  501 -0.00000000000E+00 -0.00000000000E+00 -0.70798273654E+02  0.70798273654E+02  0.00000000000E+00 0.  1.
         25    2    1    2    0    0 -0.24857569847E+02 -0.10976761891E+03  0.26667618768E+03  0.31532550387E+03  0.12508859011E+03 0.  0.
         23    2    1    2    0    0  0.24857569847E+02  0.10976761891E+03  0.66528220665E+02  0.15947545179E+03  0.91321337255E+02 0.  0.
          5    1    3    3  502    0  0.34149616550E+02 -0.64284309839E+01  0.17435388460E+02  0.39102253212E+02  0.41800000000E+01 0. -1.
         -5    1    3    3    0  502 -0.59007186397E+02 -0.10333918792E+03  0.24924079922E+03  0.27622325066E+03  0.41800000000E+01 0. -1.
        -11    1    4    4    0    0  0.52858419431E+02  0.80395596464E+02  0.69643435903E+02  0.11877572395E+03  0.00000000000E+00 0. -1.
         11    1    4    4    0    0 -0.28000849584E+02  0.29372022444E+02 -0.31152152382E+01  0.40699727836E+02  0.00000000000E+00 0.  1.
</event>
<event>
 8    1  0.6648599E-009  0.1021559E+03  0.7561462E-02  0.1275827E+00
          1   -1    0    0  501    0  0.00000000000E+00  0.00000000000E+00  0.60251832588E+03  0.60251832588E+03  0.00000000000E+00 0. -1.
         -1   -1    0    0    0  501 -0.00000000000E+00 -0.00000000000E+00 -0.21401327031E+02  0.21401327031E+02  0.00000000000E+00 0.  1.
         25    2    1    2    0    0 -0.99220201534E+01 -0.37728533246E+02  0.29027598904E+03  0.31848026839E+03  0.12509053855E+03 0.  0.
         23    2    1    2    0    0  0.99220201534E+01  0.37728533246E+02  0.29084100981E+03  0.30543938453E+03  0.84751613117E+02 0.  0.
          5    1    3    3  502    0 -0.47195417475E+02 -0.66031332379E+02  0.15085232350E+03  0.17135180242E+03  0.41800000000E+01 0. -1.
         -5    1    3    3    0  502  0.37273397322E+02  0.28302799132E+02  0.13942366554E+03  0.14712846597E+03  0.41800000000E+01 0. -1.
        -11    1    4    4    0    0  0.34460411385E+02  0.45104326814E+01  0.48861191807E+02  0.59960653937E+02  0.00000000000E+00 0.  1.
         11    1    4    4    0    0 -0.24538391231E+02  0.33218100565E+02  0.24197981801E+03  0.24547873059E+03  0.00000000000E+00 0. -1.
</event>
<event>
 8    1  0.6648599E-009  0.8410103E+02  0.7561462E-02  0.1317800E+00
          1   -1    0    0  501    0  0.00000000000E+00  0.00000000000E+00  0.13650726746E+03  0.13650726746E+03  0.00000000000E+00 0. -1.
         -1   -1    0    0    0  501 -0.00000000000E+00 -0.00000000000E+00 -0.11222017514E+03  0.11222017514E+03  0.00000000000E+00 0.  1.
         25    2    1    2    0    0 -0.27975950733E+02  0.18407512000E+01 -0.39816593685E+02  0.13423414964E+03  0.12508958235E+03 0.  0.
         23    2    1    2    0    0  0.27975950733E+02 -0.18407512000E+01  0.64103686008E+02  0.11449329296E+03  0.90627751751E+02 0.  0.
          5    1    3    3  502    0 -0.37535479200E+02  0.53633248732E+02 -0.47303242217E+02  0.80873399165E+02  0.41800000000E+01 0. -1.
         -5    1    3    3    0  502  0.95595284669E+01 -0.51792497532E+02  0.74866485315E+01  0.53360750476E+02  0.41800000000E+01 0. -1.
        -11    1    4    4    0    0 -0.79916450119E+01 -0.10089629827E+02  0.74937188382E+02  0.76034526517E+02  0.00000000000E+00 0. -1.
         11    1    4    4    0    0  0.35967595745E+02  0.82488786274E+01 -0.10833502374E+02  0.38458766438E+02  0.00000000000E+00 0.  1.
</event>
<event>
 8    1  0.6648599E-009  0.1079562E+03  0.7561462E-02  0.1264402E+00
         -2   -1    0    0    0  501 -0.00000000000E+00  0.00000000000E+00  0.10835540633E+03  0.10835540633E+03  0.00000000000E+00 0.  1.
          2   -1    0    0  501    0  0.00000000000E+00 -0.00000000000E+00 -0.14245072214E+03  0.14245072214E+03  0.00000000000E+00 0. -1.
         25    2    1    2    0    0 -0.37231096130E+02  0.17371155079E+02 -0.63173309679E+02  0.14603330579E+03  0.12508776038E+03 0.  0.
         23    2    1    2    0    0  0.37231096130E+02 -0.17371155079E+02  0.29077993869E+02  0.10477282268E+03  0.91890712786E+02 0.  0.
          5    1    3    3  502    0 -0.73989426751E+02 -0.16319666653E+02 -0.16604384819E+02  0.77678470543E+02  0.41800000000E+01 0. -1.
         -5    1    3    3    0  502  0.36758330622E+02  0.33690821732E+02 -0.46568924860E+02  0.68354835247E+02  0.41800000000E+01 0. -1.
        -11    1    4    4    0    0 -0.22525431658E+02  0.95314464121E+01  0.30659611930E+02  0.39220598489E+02  0.00000000000E+00 0.  1.
         11    1    4    4    0    0  0.59756527788E+02 -0.26902601492E+02 -0.15816180612E+01  0.65552224188E+02  0.00000000000E+00 0. -1.
</event>
<event>
 8    1  0.6648599E-009  0.1881872E+03  0.7561462E-02  0.1160107E+00
         -2   -1    0    0    0  501 -0.00000000000E+00  0.00000000000E+00  0.29913070209E+03  0.29913070209E+03  0.00000000000E+00 0.  1.
          2   -1    0    0  501    0  0.00000000000E+00 -0.00000000000E+00 -0.16737831860E+03  0.16737831860E+03  0.00000000000E+00 0. -1.
         25    2    1    2    0    0 -0.86581637016E+02 -0.13570926654E+03  0.18328989912E+03  0.27413645646E+03  0.12506888000E+03 0.  0.
         23    2    1    2    0    0  0.86581637016E+02  0.13570926654E+03 -0.51537515631E+02  0.19237256423E+03  0.91856970658E+02 0.  0.
          5    1    3    3  502    0 -0.13332536781E+02 -0.12616154476E+03  0.92736065599E+02  0.15720032499E+03  0.41800000000E+01 0. -1.
         -5    1    3    3    0  502 -0.73249100235E+02 -0.95477217804E+01  0.90553833526E+02  0.11693613147E+03  0.41800000000E+01 0. -1.
        -11    1    4    4    0    0  0.72475743830E+02  0.48720049195E+02 -0.56657851412E+02  0.10409845707E+03  0.00000000000E+00 0. -1.
         11    1    4    4    0    0  0.14105893186E+02  0.86989217348E+02  0.51203357811E+01  0.88274107165E+02  0.00000000000E+00 0.  1.
</event>
<event>
 8    1  0.6648599E-009  0.9709335E+02  0.7561462E-02  0.1286530E+00
         -2   -1    0    0    0  501 -0.00000000000E+00  0.00000000000E+00  0.24073086280E+02  0.24073086280E+02  0.00000000000E+00 0. -1.
          2   -1    0    0  501    0  0.00000000000E+00 -0.00000000000E+00 -0.55533804443E+03  0.55533804443E+03  0.00000000000E+00 0.  1.
         25    2    1    2    0    0 -0.43266023515E+01 -0.16600940747E+02 -0.39291435935E+03  0.41270315276E+03  0.12509151769E+03 0.  0.
         23    2    1    2    0    0  0.43266023515E+01  0.16600940747E+02 -0.13835059881E+03  0.16670797795E+03  0.91413078937E+02 0.  0.
          5    1    3    3  502    0  0.37154394038E+02  0.39893902128E+02 -0.20267437016E+03  0.20991985409E+03  0.41800000000E+01 0.  1.
         -5    1    3    3    0  502 -0.41480996389E+02 -0.56494842875E+02 -0.19023998919E+03  0.20278329867E+03  0.41800000000E+01 0.  1.
        -11    1    4    4    0    0  0.32928510394E+02  0.22775320526E+02 -0.13036859552E+03  0.13637805072E+03  0.00000000000E+00 0.  1.
         11    1    4    4    0    0 -0.28601908042E+02 -0.61743797788E+01 -0.79820032932E+01  0.30329927232E+02  0.00000000000E+00 0. -1.
</event>
<event>
 8    1  0.6648599E-009  0.1312249E+03  0.7561462E-02  0.1225649E+00
          1   -1    0    0  501    0  0.00000000000E+00  0.00000000000E+00  0.38640304015E+03  0.38640304015E+03  0.00000000000E+00 0. -1.
         -1   -1    0    0    0  501 -0.00000000000E+00 -0.00000000000E+00 -0.65260386067E+02  0.65260386067E+02  0.00000000000E+00 0.  1.
         25    2    1    2    0    0 -0.20251062179E+02  0.98836313857E+02  0.24043521811E+03  0.28919640620E+03  0.12508694894E+03 0.  0.
         23    2    1    2    0    0  0.20251062179E+02 -0.98836313857E+02  0.80707435973E+02  0.16246702002E+03  0.98504415717E+02 0.  0.
          5    1    3    3  502    0 -0.57504617378E+02  0.98775647425E+02  0.21610960136E+03  0.24450816294E+03  0.41800000000E+01 0.  1.
         -5    1    3    3    0  502  0.37253555199E+02  0.60666431110E-01  0.24325616750E+02  0.44688243260E+02  0.41800000000E+01 0.  1.
        -11    1    4    4    0    0  0.34868145360E+02 -0.65880937288E+02  0.51214758947E+00  0.74540913289E+02  0.00000000000E+00 0.  1.
         11    1    4    4    0    0 -0.14617083181E+02 -0.32955376569E+02  0.80195288384E+02  0.87926106728E+02  0.00000000000E+00 0. -1.
</event>
<event>
 8    1  0.6648599E-009  0.1239259E+03  0.7561462E-02  0.1236758E+00
          2   -1    0    0  501    0  0.00000000000E+00  0.00000000000E+00  0.11503568618E+03  0.11503568618E+03  0.00000000000E+00 0. -1.
         -2   -1    0    0    0  501 -0.00000000000E+00 -0.00000000000E+00 -0.18321760328E+03  0.18321760328E+03  0.00000000000E+00 0.  1.
         25    2    1    2    0    0  0.25317069705E+02  0.93768961494E+02 -0.37495330203E+02  0.16275608732E+03  0.12510024786E+03 0.  0.
         23    2    1    2    0    0 -0.25317069705E+02 -0.93768961494E+02 -0.30686586896E+02  0.13549720215E+03  0.89354647431E+02 0.  0.
          5    1    3    3  502    0  0.52553470487E+02  0.87804840980E+01 -0.49206501088E+02  0.72647892678E+02  0.41800000000E+01 0.  1.
         -5    1    3    3    0  502 -0.27236400782E+02  0.84988477396E+02  0.11711170885E+02  0.90108194639E+02  0.41800000000E+01 0.  1.
        -11    1    4    4    0    0 -0.15867620449E+02 -0.62811411274E+01  0.25798076553E+02  0.30931777615E+02  0.00000000000E+00 0. -1.
         11    1    4    4    0    0 -0.94494492560E+01 -0.87487820366E+02 -0.56484663449E+02  0.10456542454E+03  0.00000000000E+00 0.  1.
</event>
<event>
 8    1  0.6648599E-009  0.1071985E+03  0.7561462E-02  0.1265848E+00
          2   -1    0    0  501    0  0.00000000000E+00  0.00000000000E+00  0.42769309831E+03  0.42769309831E+03  0.00000000000E+00 0. -1.
         -2   -1    0    0    0  501 -0.00000000000E+00 -0.00000000000E+00 -0.35771090340E+02  0.35771090340E+02  0.00000000000E+00 0.  1.
         25    2    1    2    0    0 -0.37708913252E+02 -0.24070634483E+02  0.29325481402E+03  0.32194232445E+03  0.12508843570E+03 0.  0.
         23    2    1    2    0    0  0.37708913252E+02  0.24070634483E+02  0.98667193955E+02  0.14152186420E+03  0.91059679888E+02 0.  0.
          5    1    3    3  502    0  0.37276391334E+02  0.53286071657E+01  0.35705119888E+02  0.52060074831E+02  0.41800000000E+01 0. -1.
         -5    1    3    3    0  502 -0.74985304586E+02 -0.29399241649E+02  0.25754969413E+03  0.26988224962E+03  0.41800000000E+01 0. -1.
        -11    1    4    4    0    0  0.10265473115E+01  0.50586511666E+02  0.74928642143E+02  0.90412114096E+02  0.00000000000E+00 0.  1.
         11    1    4    4    0    0  0.36682365941E+02 -0.26515877183E+02  0.23738551812E+02  0.51109750106E+02  0.00000000000E+00 0. -1.
</event>
<event>
 8    1  0.6648599E-009  0.2598745E+03  0.7561462E-02  0.1107219E+00
         -2   -1    0    0    0  501 -0.00000000000E+00  0.00000000000E+00  0.27952031414E+03  0.27952031414E+03  0.00000000000E+00 0. -1.
          2   -1    0    0  501    0  0.00000000000E+00 -0.00000000000E+00 -0.28290490585E+03  0.28290490585E+03  0.00000000000E+00 0.  1.
         25    2    1    2    0    0  0.16400113491E+03  0.19708541785E+03 -0.41196547023E+02  0.28824274016E+03  0.12509071744E+03 0.  0.
         23    2    1    2    0    0 -0.16400113491E+03 -0.19708541785E+03  0.37811955310E+02  0.27418247982E+03  0.89483261540E+02 0.  0.
          5    1    3    3  502    0  0.25545077875E+02  0.65430812385E+02  0.39621141255E+02  0.80753015097E+02  0.41800000000E+01 0. -1.
         -5    1    3    3    0  502  0.13845605703E+03  0.13165460547E+03 -0.80817688278E+02  0.20748972507E+03  0.41800000000E+01 0. -1.
        -11    1    4    4    0    0 -0.13958687163E+03 -0.18277785547E+03  0.39018461009E+01  0.23001622461E+03  0.00000000000E+00 0.  1.
         11    1    4    4    0    0 -0.24414263279E+02 -0.14307562382E+02  0.33910109209E+02  0.44166255211E+02  0.00000000000E+00 0. -1.
</event>
<event>
 8    1  0.6648599E-009  0.9694133E+02  0.7561462E-02  0.1286863E+00
         -1   -1    0    0    0  501 -0.00000000000E+00  0.00000000000E+00  0.21617730415E+03  0.21617730415E+03  0.00000000000E+00 0.  1.
          1   -1    0    0  501    0  0.00000000000E+00 -0.00000000000E+00 -0.57659285086E+02  0.57659285086E+02  0.00000000000E+00 0. -1.
         25    2    1    2    0    0 -0.42489356937E+01  0.63297631836E+01  0.12179403571E+03  0.17475315433E+03  0.12508700355E+03 0.  0.
         23    2    1    2    0    0  0.42489356937E+01 -0.63297631836E+01  0.36723983350E+02  0.99083434906E+02  0.91710178079E+02 0.  0.
          5    1    3    3  502    0  0.52309561192E+02  0.88286797646E+01  0.17512401305E+02  0.56021356445E+02  0.41800000000E+01 0. -1.
         -5    1    3    3    0  502 -0.56558496886E+02 -0.24989165810E+01  0.10428163441E+03  0.11873179789E+03  0.41800000000E+01 0. -1.
        -11    1    4    4    0    0 -0.10418479821E+02 -0.43085306006E+02 -0.11001214040E+01  0.44340710216E+02  0.00000000000E+00 0.  1.
         11    1    4    4    0    0  0.14667415514E+02  0.36755542822E+02  0.37824104754E+02  0.54742724690E+02  0.00000000000E+00 0. -1.
</event>
<event>
 8    1  0.6648599E-009  0.1022198E+03  0.7561462E-02  0.1275696E+00
          1   -1    0    0  501    0  0.00000000000E+00  0.00000000000E+00  0.75007660418E+03  0.75007660418E+03  0.00000000000E+00 0. -1.
         -1   -1    0    0    0  501 -0.00000000000E+00 -0.00000000000E+00 -0.24414183307E+02  0.24414183307E+02  0.00000000000E+00 0.  1.
         25    2    1    2    0    0  0.32440222847E+01 -0.11649994836E+02  0.62926348741E+03  0.64169145451E+03  0.12509652333E+03 0.  0.
         23    2    1    2    0    0 -0.32440222847E+01  0.11649994836E+02  0.96398933461E+02  0.13279933297E+03  0.90535420721E+02 0.  0.
          5    1    3    3  502    0 -0.49511206692E+02  0.17504033275E+02  0.15754698978E+03  0.16612127244E+03  0.41800000000E+01 0.  1.
         -5    1    3    3    0  502  0.52755228976E+02 -0.29154028112E+02  0.47171649763E+03  0.47557018207E+03  0.41800000000E+01 0.  1.
        -11    1    4    4    0    0  0.24587984090E+02  0.42928248527E+02  0.52274636909E+02  0.71972502716E+02  0.00000000000E+00 0. -1.
         11    1    4    4    0    0 -0.27832006375E+02 -0.31278253691E+02  0.44124296552E+02  0.60826830256E+02  0.00000000000E+00 0.  1.
</event>
<event>
 8    1  0.6648599E-009  0.9311519E+02  0.7561462E-02  0.1295478E+00
          2   -1    0    0  501    0  0.00000000000E+00  0.00000000000E+00  0.27505185427E+03  0.27505185427E+03  0.00000000000E+00 0. -1.
         -2   -1    0    0    0  501 -0.00000000000E+00 -0.00000000000E+00 -0.82965833163E+02  0.82965833163E+02  0.00000000000E+00 0.  1.
         25    2    1    2    0    0 -0.16244948275E+02  0.59108088607E+02  0.25722077655E+01  0.13933288826E+03  0.12509745407E+03 0.  0.
         23    2    1    2    0    0  0.16244948275E+02 -0.59108088607E+02  0.18951381334E+03  0.21868479917E+03  0.90276749276E+02 0.  0.
          5    1    3    3  502    0 -0.93260022305E+01  0.74248908120E+02 -0.45916701767E+02  0.87895907616E+02  0.41800000000E+01 0.  1.
         -5    1    3    3    0  502 -0.69189460445E+01 -0.15140819512E+02  0.48488909532E+02  0.51436980641E+02  0.41800000000E+01 0.  1.
        -11    1    4    4    0    0  0.76803705851E+00  0.16714325700E+02  0.95327177573E+02  0.96784447865E+02  0.00000000000E+00 0. -1.
         11    1    4    4    0    0  0.15476911216E+02 -0.75822414307E+02  0.94186635765E+02  0.12190035131E+03  0.00000000000E+00 0.  1.
</event>
<event>
 8    1  0.6648599E-009  0.1053931E+03  0.7561462E-02  0.1269347E+00
         -4   -1    0    0    0  501 -0.00000000000E+00  0.00000000000E+00  0.71667249686E+02  0.71667249686E+02  0.00000000000E+00 0.  1.
          4   -1    0    0  501    0  0.00000000000E+00 -0.00000000000E+00 -0.17584662817E+03  0.17584662817E+03  0.00000000000E+00 0. -1.
         25    2    1    2    0    0 -0.24574242372E+01  0.12904151948E+02 -0.89666591120E+02  0.15447031575E+03  0.12509366416E+03 0.  0.
         23    2    1    2    0    0  0.24574242372E+01 -0.12904151948E+02 -0.14512787361E+02  0.93043562107E+02  0.90961131156E+02 0.  0.
          5    1    3    3  502    0  0.26672990336E+02  0.61003713003E+02 -0.64245882165E+02  0.92616991901E+02  0.41800000000E+01 0.  1.
         -5    1    3    3    0  502 -0.29130414573E+02 -0.48099561055E+02 -0.25420708955E+02  0.61853323845E+02  0.41800000000E+01 0.  1.
        -11    1    4    4    0    0  0.36198194926E+02  0.19319079020E+02  0.70731056750E+01  0.41636101570E+02  0.00000000000E+00 0.  1.
         11    1    4    4    0    0 -0.33740770689E+02 -0.32223230969E+02 -0.21585893036E+02  0.51407460537E+02  0.00000000000E+00 0. -1.
</event>
<event>
 8    1  0.6648599E-009  0.5385228E+02  0.7561462E-02  0.1425606E+00
         -1   -1    0    0    0  501 -0.00000000000E+00  0.00000000000E+00  0.20796922204E+03  0.20796922204E+03  0.00000000000E+00 0.  1.
          1   -1    0    0  501    0  0.00000000000E+00 -0.00000000000E+00 -0.57879068078E+02  0.57879068078E+02  0.00000000000E+00 0. -1.
         25    2    1    2    0    0  0.84523567200E+01 -0.15485385704E+02  0.71931101998E+02  0.14536842566E+03  0.12508659496E+03 0.  0.
         23    2    1    2    0    0 -0.84523567200E+01  0.15485385704E+02  0.78159051967E+02  0.12047986447E+03  0.89974000871E+02 0.  0.
          5    1    3    3  502    0  0.31729584244E+01  0.43426986769E+01  0.10554550026E+03  0.10576507798E+03  0.41800000000E+01 0. -1.
         -5    1    3    3    0  502  0.52793982956E+01 -0.19828084381E+02 -0.33614398257E+02  0.39603347671E+02  0.41800000000E+01 0. -1.
        -11    1    4    4    0    0  0.31512284993E+02  0.23351164646E+02  0.68000617181E+02  0.78500859440E+02  0.00000000000E+00 0.  1.
         11    1    4    4    0    0 -0.39964641713E+02 -0.78657789421E+01  0.10158434785E+02  0.41979005025E+02  0.00000000000E+00 0. -1.
</event>
<event>
 8    1  0.6648599E-009  0.1495357E+03  0.7561462E-02  0.1201045E+00
         -2   -1    0    0    0  501 -0.00000000000E+00  0.00000000000E+00  0.21049205658E+03  0.21049205658E+03  0.00000000000E+00 0.  1.
          2   -1    0    0  501    0  0.00000000000E+00 -0.00000000000E+00 -0.14200203247E+03  0.14200203247E+03  0.00000000000E+00 0. -1.
         25    2    1    2    0    0  0.10900653981E+03 -0.76730299678E+02  0.54876227664E+02  0.19086265441E+03  0.12508872002E+03 0.  0.
         23    2    1    2    0    0 -0.10900653981E+03  0.76730299678E+02  0.13613796442E+02  0.16163143464E+03  0.90384847179E+02 0.  0.
          5    1    3    3  502    0  0.71674679945E+02 -0.12101699922E+02  0.83528260269E+02  0.11080682989E+03  0.41800000000E+01 0. -1.
         -5    1    3    3    0  502  0.37331859865E+02 -0.64628599757E+02 -0.28652032605E+02  0.80055824522E+02  0.41800000000E+01 0. -1.
        -11    1    4    4    0    0 -0.90489637139E+02  0.21153835595E+02  0.34953686936E+02  0.99285544871E+02  0.00000000000E+00 0.  1.
         11    1    4    4    0    0 -0.18516902671E+02  0.55576464084E+02 -0.21339890494E+02  0.62345889767E+02  0.00000000000E+00 0. -1.
</event>
<event>
 8    1  0.6648599E-009  0.1391937E+03  0.7561462E-02  0.1214418E+00
          4   -1    0    0  501    0  0.00000000000E+00  0.00000000000E+00  0.30230606732E+03  0.30230606732E+03  0.00000000000E+00 0. -1.
         -4   -1    0    0    0  501 -0.00000000000E+00 -0.00000000000E+00 -0.88253860158E+02  0.88253860158E+02  0.00000000000E+00 0.  1.
         25    2    1    2    0    0 -0.11039158369E+03 -0.34504434481E+02  0.70548854932E+02  0.18439088512E+03  0.12508397113E+03 0.  0.
         23    2    1    2    0    0  0.11039158369E+03  0.34504434481E+02  0.14350335223E+03  0.20616904235E+03  0.92388333548E+02 0.  0.
          5    1    3    3  502    0 -0.82684284667E+02  0.83744574763E+01 -0.15121532270E+02  0.84575147692E+02  0.41800000000E+01 0.  1.
         -5    1    3    3    0  502 -0.27707299027E+02 -0.42878891958E+02  0.85670387202E+02  0.99815737428E+02  0.41800000000E+01 0.  1.
        -11    1    4    4    0    0  0.30720813896E+02  0.53822589977E+02  0.38517023048E+02  0.72967120422E+02  0.00000000000E+00 0.  1.
         11    1    4    4    0    0  0.79670769799E+02 -0.19318155496E+02  0.10498632918E+03  0.13320192193E+03  0.00000000000E+00 0. -1.
</event>
<event>
 8    1  0.6648599E-009  0.1742963E+03  0.7561462E-02  0.1173440E+00
         -2   -1    0    0    0  501 -0.00000000000E+00  0.00000000000E+00  0.53337460977E+02  0.53337460977E+02  0.00000000000E+00 0.  1.
          2   -1    0    0  501    0  0.00000000000E+00 -0.00000000000E+00 -0.61238723648E+03  0.61238723648E+03  0.00000000000E+00 0. -1.
         25    2    1    2    0    0  0.10196314352E+03 -0.92853458178E+02 -0.21894653713E+03  0.28740890678E+03  0.12509215101E+03 0.  0.
         23    2    1    2    0    0 -0.10196314352E+03  0.92853458178E+02 -0.34010323837E+03  0.37831579067E+03  0.91838866438E+02 0.  0.
          5    1    3    3  502    0  0.10718914405E+03 -0.11813091700E+03 -0.19485871483E+03  0.25185673963E+03  0.41800000000E+01 0. -1.
         -5    1    3    3    0  502 -0.52260005292E+01  0.25277458822E+02 -0.24087822302E+02  0.35552167153E+02  0.41800000000E+01 0. -1.
        -11    1    4    4    0    0 -0.86886922214E+02  0.10991433009E+03 -0.26394033118E+03  0.29882268260E+03  0.00000000000E+00 0. -1.
         11    1    4    4    0    0 -0.15076221306E+02 -0.17060871915E+02 -0.76162907192E+02  0.79493108074E+02  0.00000000000E+00 0.  1.
</event>
<event>
 8    1  0.6648599E-009  0.2330448E+03  0.7561462E-02  0.1124515E+00
         -1   -1    0    0    0  501 -0.00000000000E+00  0.00000000000E+00  0.12826476535E+03  0.12826476535E+03  0.00000000000E+00 0. -1.
          1   -1    0    0  501    0  0.00000000000E+00 -0.00000000000E+00 -0.44507251412E+03  0.44507251412E+03  0.00000000000E+00 0.  1.
         25    2    1    2    0    0  0.85357022331E+02 -0.19500701065E+03 -0.16794646716E+03  0.29860771426E+03  0.12508795194E+03 0.  0.
         23    2    1    2    0    0 -0.85357022331E+02  0.19500701065E+03 -0.14886128161E+03  0.27472956520E+03  0.89460032240E+02 0.  0.
          5    1    3    3  502    0  0.10767575847E+03 -0.94384329944E+02 -0.10696399957E+03  0.17877706873E+03  0.41800000000E+01 0.  1.
         -5    1    3    3    0  502 -0.22318736135E+02 -0.10062268071E+03 -0.60982467592E+02  0.11983064553E+03  0.41800000000E+01 0.  1.
        -11    1    4    4    0    0 -0.10878378531E+02  0.91647716285E+02 -0.21865526603E+02  0.94845897504E+02  0.00000000000E+00 0.  1.
         11    1    4    4    0    0 -0.74478643799E+02  0.10335929436E+03 -0.12699575501E+03  0.17988366769E+03  0.00000000000E+00 0. -1.
</event>
<event>
 8    1  0.6648599E-009  0.1271652E+03  0.7561462E-02  0.1231724E+00
         -1   -1    0    0    0  501 -0.00000000000E+00  0.00000000000E+00  0.24415091647E+03  0.24415091647E+03  0.00000000000E+00 0.  1.
          1   -1    0    0  501    0  0.00000000000E+00 -0.00000000000E+00 -0.10436228265E+03  0.10436228265E+03  0.00000000000E+00 0. -1.
         25    2    1    2    0    0 -0.75184584171E+02  0.79182899947E+02  0.33104864226E+02  0.16930780047E+03  0.12508615400E+03 0.  0.
         23    2    1    2    0    0  0.75184584171E+02 -0.79182899947E+02  0.10668376960E+03  0.17920539865E+03  0.93864236365E+02 0.  0.
          5    1    3    3  502    0  0.13045688120E+02 -0.54843423577E+01 -0.28668945785E+02  0.32243586060E+02  0.41800000000E+01 0. -1.
         -5    1    3    3    0  502 -0.88230272291E+02  0.84667242304E+02  0.61773810011E+02  0.13706421441E+03  0.41800000000E+01 0. -1.
        -11    1    4    4    0    0  0.77779579720E+02 -0.60983430355E+02  0.12076117238E+03  0.15605096140E+03  0.00000000000E+00 0.  1.
         11    1    4    4    0    0 -0.25949955491E+01 -0.18199469591E+02 -0.14077402780E+02  0.23154437250E+02  0.00000000000E+00 0. -1.
</event>
<event>
 8    1  0.6648599E-009  0.1254653E+03  0.7561462E-02  0.1234344E+00
          2   -1    0    0  501    0  0.00000000000E+00  0.00000000000E+00  0.17773387054E+04  0.17773387054E+04  0.00000000000E+00 0. -1.
         -2   -1    0    0    0  501 -0.00000000000E+00 -0.00000000000E+00 -0.10309728801E+02  0.10309728801E+02  0.00000000000E+00 0.  1.
         25    2    1    2    0    0 -0.19672354470E+02  0.63353656785E+02  0.12788577745E+04  0.12866716281E+04  0.12508390727E+03 0.  0.
         23    2    1    2    0    0  0.19672354470E+02 -0.63353656785E+02  0.48817120209E+03  0.50097680607E+03  0.90917271802E+02 0.  0.
          5    1    3    3  502    0  0.51397896472E+02  0.13606582844E+02  0.57729329307E+03  0.57975158601E+03  0.41800000000E+01 0. -1.
         -5    1    3    3    0  502 -0.71070250942E+02  0.49747073941E+02  0.70156448139E+03  0.70692004207E+03  0.41800000000E+01 0. -1.
        -11    1    4    4    0    0  0.46889414681E+02 -0.60118688183E+01  0.25366528342E+03  0.25803262543E+03  0.00000000000E+00 0. -1.
         11    1    4    4    0    0 -0.27217060211E+02 -0.57341787966E+02  0.23450591868E+03  0.24294418064E+03  0.00000000000E+00 0.  1.
</event>
<event>
 8    1  0.6648599E-009  0.1395250E+03  0.7561462E-02  0.1213970E+00
         -2   -1    0    0    0  501 -0.00000000000E+00  0.00000000000E+00  0.20862119709E+02  0.20862119709E+02  0.00000000000E+00 0.  1.
          2   -1    0    0  501    0  0.00000000000E+00 -0.00000000000E+00 -0.10298366393E+04  0.10298366393E+04  0.00000000000E+00 0. -1.
         25    2    1    2    0    0  0.38113144710E+02 -0.83781486627E+02 -0.40848616706E+03  0.43701313180E+03  0.12509028496E+03 0.  0.
         23    2    1    2    0    0 -0.38113144710E+02  0.83781486627E+02 -0.60048835251E+03  0.61368562718E+03  0.86901313028E+02 0.  0.
          5    1    3    3  502    0  0.80120467296E+02 -0.74337515655E+02 -0.25318203313E+03  0.27579697208E+03  0.41800000000E+01 0.  1.
         -5    1    3    3    0  502 -0.42007322586E+02 -0.94439709718E+01 -0.15530413393E+03  0.16121615972E+03  0.41800000000E+01 0.  1.
        -11    1    4    4    0    0 -0.58264643681E+02  0.88275781973E+02 -0.51357891981E+03  0.52435740603E+03  0.00000000000E+00 0.  1.
         11    1    4    4    0    0  0.20151498970E+02 -0.44942953469E+01 -0.86909432699E+02  0.89328221148E+02  0.00000000000E+00 0. -1.
</event>
<event>
 8    1  0.6648599E-009  0.8939112E+02  0.7561462E-02  0.1304333E+00
          1   -1    0    0  501    0  0.00000000000E+00  0.00000000000E+00  0.22066206435E+03  0.22066206435E+03  0.00000000000E+00 0. -1.
         -1   -1    0    0    0  501 -0.00000000000E+00 -0.00000000000E+00 -0.78003873475E+02  0.78003873475E+02  0.00000000000E+00 0.  1.
         25    2    1    2    0    0  0.95623429669E+01  0.43654049967E+02  0.14496678171E+03  0.19661770343E+03  0.12508412777E+03 0.  0.
         23    2    1    2    0    0 -0.95623429669E+01 -0.43654049967E+02 -0.23085908354E+01  0.10204823440E+03  0.91713674394E+02 0.  0.
          5    1    3    3  502    0 -0.57370965456E+02  0.23673066078E+02  0.58589510525E+02  0.85452003361E+02  0.41800000000E+01 0.  1.
         -5    1    3    3    0  502  0.66933308423E+02  0.19980983889E+02  0.86377271186E+02  0.11116570007E+03  0.41800000000E+01 0.  1.
        -11    1    4    4    0    0 -0.22185231109E+01 -0.35725561187E+02 -0.45291067713E+02  0.57727968798E+02  0.00000000000E+00 0.  1.
         11    1    4    4    0    0 -0.73438198561E+01 -0.79284887800E+01  0.42982476878E+02  0.44320265601E+02  0.00000000000E+00 0. -1.
</event>
<event>
 8    1  0.6648599E-009  0.2168719E+03  0.7561462E-02  0.1136237E+00
          2   -1    0    0  501    0  0.00000000000E+00  0.00000000000E+00  0.33816646904E+04  0.33816646904E+04  0.00000000000E+00 0.  1.
         -2   -1    0    0    0  501 -0.00000000000E+00 -0.00000000000E+00 -0.19660479084E+02  0.19660479084E+02  0.00000000000E+00 0. -1.
         25    2    1    2    0    0 -0.62020141094E+02  0.18545981402E+03  0.25453516703E+04  0.25559152718E+04  0.12508361422E+03 0.  0.
         23    2    1    2    0    0  0.62020141094E+02 -0.18545981402E+03  0.81665254102E+03  0.84540989770E+03  0.97748052963E+02 0.  0.
          5    1    3    3  502    0  0.20446688344E+02  0.77261072405E+02  0.14388502854E+04  0.14410742370E+04  0.41800000000E+01 0.  1.
         -5    1    3    3    0  502 -0.82466829438E+02  0.10819874161E+03  0.11065013849E+04  0.11148410348E+04  0.41800000000E+01 0.  1.
        -11    1    4    4    0    0  0.68722228174E+02 -0.57875600287E+02  0.37796879882E+03  0.38850063402E+03  0.00000000000E+00 0.  1.
         11    1    4    4    0    0 -0.67020870806E+01 -0.12758421373E+03  0.43868374220E+03  0.45690926368E+03  0.00000000000E+00 0. -1.
</event>
<event>
 8    1  0.6648599E-009  0.1203852E+03  0.7561462E-02  0.1242463E+00
         -2   -1    0    0    0  501 -0.00000000000E+00  0.00000000000E+00  0.83629238611E+02  0.83629238611E+02  0.00000000000E+00 0.  1.
          2   -1    0    0  501    0  0.00000000000E+00 -0.00000000000E+00 -0.22196843379E+03  0.22196843379E+03  0.00000000000E+00 0. -1.
         25    2    1    2    0    0  0.64941573304E+02  0.35926965185E+02 -0.37078673632E+02  0.15009357058E+03  0.12508036265E+03 0.  0.
         23    2    1    2    0    0 -0.64941573304E+02 -0.35926965185E+02 -0.10126052154E+03  0.15550410182E+03  0.91758801695E+02 0.  0.
          5    1    3    3  502    0 -0.11400969413E+02 -0.24995703575E+02 -0.44051327114E+02  0.52084154225E+02  0.41800000000E+01 0. -1.
         -5    1    3    3    0  502  0.76342542717E+02  0.60922668760E+02  0.69726534826E+01  0.98009416353E+02  0.41800000000E+01 0. -1.
        -11    1    4    4    0    0 -0.78614792314E+02 -0.19984964168E+01 -0.83966654682E+02  0.11504207342E+03  0.00000000000E+00 0. -1.
         11    1    4    4    0    0  0.13673219010E+02 -0.33928468768E+02 -0.17293866861E+02  0.40462028398E+02  0.00000000000E+00 0.  1.
</event>
<event>
 8    1  0.6648599E-009  0.9424464E+02  0.7561462E-02  0.1292886E+00
         -1   -1    0    0    0  501 -0.00000000000E+00  0.00000000000E+00  0.49171043958E+02  0.49171043958E+02  0.00000000000E+00 0.  1.
          1   -1    0    0  501    0  0.00000000000E+00 -0.00000000000E+00 -0.32352196632E+03  0.32352196632E+03  0.00000000000E+00 0. -1.
         25    2    1    2    0    0 -0.44299735153E+02 -0.36789996762E+02 -0.19259124497E+03  0.23675714595E+03  0.12508632268E+03 0.  0.
         23    2    1    2    0    0  0.44299735153E+02  0.36789996762E+02 -0.81759677391E+02  0.13593586433E+03  0.92075751249E+02 0.  0.
          5    1    3    3  502    0  0.33445927886E+02 -0.47258961266E+01 -0.96642868117E+01  0.35381280728E+02  0.41800000000E+01 0. -1.
         -5    1    3    3    0  502 -0.77745663039E+02 -0.32064100635E+02 -0.18292695816E+03  0.20137586522E+03  0.41800000000E+01 0. -1.
        -11    1    4    4    0    0  0.35435767696E+02  0.32779820285E+01  0.10725162263E+02  0.37168103314E+02  0.00000000000E+00 0.  1.
         11    1    4    4    0    0  0.88639674567E+01  0.33512014733E+02 -0.92484839653E+02  0.98767761017E+02  0.00000000000E+00 0. -1.
</event>
<event>
 8    1  0.6648599E-009  0.1760595E+03  0.7561462E-02  0.1171672E+00
          2   -1    0    0  501    0  0.00000000000E+00  0.00000000000E+00  0.13876225932E+03  0.13876225932E+03  0.00000000000E+00 0. -1.
         -2   -1    0    0    0  501 -0.00000000000E+00 -0.00000000000E+00 -0.25357333083E+03  0.25357333083E+03  0.00000000000E+00 0.  1.
         25    2    1    2    0    0 -0.73633265892E+02 -0.12675139934E+03 -0.10491910542E+03  0.21941761375E+03  0.12509314715E+03 0.  0.
         23    2    1    2    0    0  0.73633265892E+02  0.12675139934E+03 -0.98919660974E+01  0.17291797640E+03  0.91186624498E+02 0.  0.
          5    1    3    3  502    0 -0.99879963583E+02 -0.51420063576E+02 -0.54261783427E+02  0.12482725505E+03  0.41800000000E+01 0. -1.
         -5    1    3    3    0  502  0.26246697691E+02 -0.75331335764E+02 -0.50657321989E+02  0.94590358699E+02  0.41800000000E+01 0. -1.
        -11    1    4    4    0    0  0.84725979316E+02  0.11978723180E+03  0.12206855236E+02  0.14722934419E+03  0.00000000000E+00 0. -1.
         11    1    4    4    0    0 -0.11092713424E+02  0.69641675353E+01 -0.22098821333E+02  0.25688632211E+02  0.00000000000E+00 0.  1.
</event>
<event>
 8    1  0.6648599E-009  0.1171641E+03  0.7561462E-02  0.1247850E+00
         -1   -1    0    0    0  501 -0.00000000000E+00  0.00000000000E+00  0.50304173863E+03  0.50304173863E+03  0.00000000000E+00 0.  1.
          1   -1    0    0  501    0  0.00000000000E+00 -0.00000000000E+00 -0.45166593495E+02  0.45166593495E+02  0.00000000000E+00 0. -1.
         25    2    1    2    0    0  0.53855399018E+02 -0.47463034719E+02  0.38113212827E+03  0.40750806225E+03  0.12509187794E+03 0.  0.
         23    2    1    2    0    0 -0.53855399018E+02  0.47463034719E+02  0.76743016864E+02  0.14070026988E+03  0.93562447803E+02 0.  0.
          5    1    3    3  502    0  0.21855482287E+02  0.41224156892E+02  0.16812684708E+03  0.17453137920E+03  0.41800000000E+01 0.  1.
         -5    1    3    3    0  502  0.31999916731E+02 -0.88687191610E+02  0.21300528120E+03  0.23297668305E+03  0.41800000000E+01 0.  1.
        -11    1    4    4    0    0 -0.50630837492E+01  0.43891743550E+02 -0.59877284805E+01  0.44586689283E+02  0.00000000000E+00 0. -1.
         11    1    4    4    0    0 -0.48792315269E+02  0.35712911690E+01  0.82730745344E+02  0.96113580597E+02  0.00000000000E+00 0.  1.
</event>
<event>
 8    1  0.6648599E-009  0.1186640E+03  0.7561462E-02  0.1245317E+00
         -2   -1    0    0    0  501 -0.00000000000E+00  0.00000000000E+00  0.35820634744E+03  0.35820634744E+03  0.00000000000E+00 0.  1.
          2   -1    0    0  501    0  0.00000000000E+00 -0.00000000000E+00 -0.46240108587E+02  0.46240108587E+02  0.00000000000E+00 0. -1.
         25    2    1    2    0    0  0.48532586270E+02 -0.28644324083E+02  0.11055122542E+03  0.17619865569E+03  0.12509389911E+03 0.  0.
         23    2    1    2    0    0 -0.48532586270E+02  0.28644324083E+02  0.20141501344E+03  0.22824780034E+03  0.91395522258E+02 0.  0.
          5    1    3    3  502    0 -0.15941320374E+02  0.35489233902E+02  0.96534760629E+01  0.40302275597E+02  0.41800000000E+01 0.  1.
         -5    1    3    3    0  502  0.64473906644E+02 -0.64133557985E+02  0.10089774935E+03  0.13589638009E+03  0.41800000000E+01 0.  1.
        -11    1    4    4    0    0 -0.31693601973E+01  0.54738705646E+02  0.95911878178E+02  0.11047831966E+03  0.00000000000E+00 0. -1.
         11    1    4    4    0    0 -0.45363226073E+02 -0.26094381563E+02  0.10550313526E+03  0.11776948068E+03  0.00000000000E+00 0.  1.
</event>
<event>
 8    1  0.6648599E-009  0.1526206E+03  0.7561462E-02  0.1197289E+00
         -1   -1    0    0    0  501 -0.00000000000E+00  0.00000000000E+00  0.23824811257E+03  0.23824811257E+03  0.00000000000E+00 0.  1.
          1   -1    0    0  501    0  0.00000000000E+00 -0.00000000000E+00 -0.14123553758E+03  0.14123553758E+03  0.00000000000E+00 0. -1.
         25    2    1    2    0    0  0.75497054651E+02  0.81064434868E+02 -0.49975077094E+02  0.17440090552E+03  0.12508764789E+03 0.  0.
         23    2    1    2    0    0 -0.75497054651E+02 -0.81064434868E+02  0.14698765208E+03  0.20508274463E+03  0.90456146392E+02 0.  0.
          5    1    3    3  502    0  0.46676726475E+02  0.11122416439E+03 -0.18785847112E+02  0.12214709162E+03  0.41800000000E+01 0.  1.
         -5    1    3    3    0  502  0.28820328176E+02 -0.30159729522E+02 -0.31189229982E+02  0.52253813907E+02  0.41800000000E+01 0.  1.
        -11    1    4    4    0    0 -0.32572507350E+02 -0.92610927252E+02  0.10806937052E+03  0.14600253740E+03  0.00000000000E+00 0.  1.
         11    1    4    4    0    0 -0.42924547301E+02  0.11546492384E+02  0.38918281564E+02  0.59080207238E+02  0.00000000000E+00 0. -1.
</event>
<event>
 8    1  0.6648599E-009  0.1269298E+03  0.7561462E-02  0.1232084E+00
         -4   -1    0    0    0  501 -0.00000000000E+00  0.00000000000E+00  0.13285038796E+03  0.13285038796E+03  0.00000000000E+00 0.  1.
          4   -1    0    0  501    0  0.00000000000E+00 -0.00000000000E+00 -0.22616600461E+03  0.22616600461E+03  0.00000000000E+00 0. -1.
         25    2    1    2    0    0  0.45008660123E+02  0.75679688578E+02  0.56004767698E+02  0.16290777061E+03  0.12509681439E+03 0.  0.
         23    2    1    2    0    0 -0.45008660123E+02 -0.75679688578E+02 -0.14932038435E+03  0.19610862197E+03  0.91699616569E+02 0.  0.
          5    1    3    3  502    0 -0.20448620875E+02  0.66579197862E+02  0.65874222100E+02  0.95957392737E+02  0.41800000000E+01 0. -1.
         -5    1    3    3    0  502  0.65457280998E+02  0.91004907160E+01 -0.98694544015E+01  0.66950377871E+02  0.41800000000E+01 0. -1.
        -11    1    4    4    0    0 -0.43638799253E+02 -0.14897844251E+01 -0.22365106556E+02  0.49058763225E+02  0.00000000000E+00 0.  1.
         11    1    4    4    0    0 -0.13698608694E+01 -0.74189904153E+02 -0.12695527779E+03  0.14704985874E+03  0.00000000000E+00 0. -1.
</event>
<event>
 8    1  0.6648599E-009  0.1146156E+03  0.7561462E-02  0.1252254E+00
          1   -1    0    0  501    0  0.00000000000E+00  0.00000000000E+00  0.73266030742E+03  0.73266030742E+03  0.00000000000E+00 0. -1.
         -1   -1    0    0    0  501 -0.00000000000E+00 -0.00000000000E+00 -0.18752520305E+02  0.18752520305E+02  0.00000000000E+00 0.  1.
         25    2    1    2    0    0  0.28211605155E+02 -0.24133113050E+02  0.46943594954E+03  0.48723337452E+03  0.12509176121E+03 0.  0.
         23    2    1    2    0    0 -0.28211605155E+02  0.24133113050E+02  0.24447183758E+03  0.26417945320E+03  0.92983882007E+02 0.  0.
          5    1    3    3  502    0 -0.12914929331E+01 -0.72326816948E+02  0.29771243665E+03  0.30640333507E+03  0.41800000000E+01 0. -1.
         -5    1    3    3    0  502  0.29503098088E+02  0.48193703899E+02  0.17172351289E+03  0.18083003946E+03  0.41800000000E+01 0. -1.
        -11    1    4    4    0    0  0.28572284958E+02 -0.13892345483E+02  0.75780404324E+02  0.82170812399E+02  0.00000000000E+00 0. -1.
         11    1    4    4    0    0 -0.56783890113E+02  0.38025458533E+02  0.16869143326E+03  0.18200864080E+03  0.00000000000E+00 0.  1.
</event>
<event>
 8    1  0.6648599E-009  0.2829983E+03  0.7561462E-02  0.1094063E+00
          2   -1    0    0  501    0  0.00000000000E+00  0.00000000000E+00  0.42337072949E+03  0.42337072949E+03  0.00000000000E+00 0. -1.
         -2   -1    0    0    0  501 -0.00000000000E+00 -0.00000000000E+00 -0.41127757547E+03  0.41127757547E+03  0.00000000000E+00 0.  1.
         25    2    1    2    0    0  0.65990425281E+02  0.26993091672E+03 -0.28570839382E+03  0.41772504992E+03  0.12508994765E+03 0.  0.
         23    2    1    2    0    0 -0.65990425281E+02 -0.26993091672E+03  0.29780154784E+03  0.41692325503E+03  0.89004509218E+02 0.  0.
          5    1    3    3  502    0  0.26680593215E+02  0.10129720785E+03 -0.30300877863E+02  0.10912650445E+03  0.41800000000E+01 0.  1.
         -5    1    3    3    0  502  0.39309832066E+02  0.16863370887E+03 -0.25540751596E+03  0.30859854548E+03  0.41800000000E+01 0.  1.
        -11    1    4    4    0    0  0.10696619284E+02 -0.11075253733E+03  0.14876414675E+03  0.18577220876E+03  0.00000000000E+00 0. -1.
         11    1    4    4    0    0 -0.76687044565E+02 -0.15917837939E+03  0.14903740108E+03  0.23115104627E+03  0.00000000000E+00 0.  1.
</event>
<event>
 8    1  0.6648599E-009  0.1778061E+03  0.7561462E-02  0.1169943E+00
         -1   -1    0    0    0  501 -0.00000000000E+00  0.00000000000E+00  0.28599790117E+02  0.28599790117E+02  0.00000000000E+00 0.  1.
          1   -1    0    0  501    0  0.00000000000E+00 -0.00000000000E+00 -0.14429380058E+04  0.14429380058E+04  0.00000000000E+00 0. -1.
         25    2    1    2    0    0  0.42591893789E+02  0.16266686167E+03 -0.85241782215E+03  0.87780375252E+03  0.12509479256E+03 0.  0.
         23    2    1    2    0    0 -0.42591893789E+02 -0.16266686167E+03 -0.56192039356E+03  0.59373404342E+03  0.92146667403E+02 0.  0.
          5    1    3    3  502    0  0.54868136655E+02  0.53881459195E+02 -0.56481065065E+03  0.57003707560E+03  0.41800000000E+01 0.  1.
         -5    1    3    3    0  502 -0.12276242866E+02  0.10878540247E+03 -0.28760717150E+03  0.30776667693E+03  0.41800000000E+01 0.  1.
        -11    1    4    4    0    0 -0.32193465845E+02 -0.88969518515E+02 -0.44637705157E+03  0.45629427636E+03  0.00000000000E+00 0.  1.
         11    1    4    4    0    0 -0.10398427943E+02 -0.73697343154E+02 -0.11554334199E+03  0.13743976706E+03  0.00000000000E+00 0. -1.
</event>
<event>
 8    1  0.6648599E-009  0.8522972E+02  0.7561462E-02  0.1314833E+00
          1   -1    0    0  501    0  0.00000000000E+00  0.00000000000E+00  0.55592070672E+03  0.55592070672E+03  0.00000000000E+00 0. -1.
         -1   -1    0    0    0  501 -0.00000000000E+00 -0.00000000000E+00 -0.29480941434E+02  0.29480941434E+02  0.00000000000E+00 0.  1.
         25    2    1    2    0    0  0.15771379284E+02 -0.16330767207E+02  0.43819134697E+03  0.45626116045E+03  0.12508860704E+03 0.  0.
         23    2    1    2    0    0 -0.15771379284E+02  0.16330767207E+02  0.88248418314E+02  0.12914048770E+03  0.91509845742E+02 0.  0.
          5    1    3    3  502    0  0.32207565414E+02  0.32463867722E+02  0.35759081766E+03  0.36052724620E+03  0.41800000000E+01 0.  1.
         -5    1    3    3    0  502 -0.16436186130E+02 -0.48794634929E+02  0.80600529313E+02  0.95733914251E+02  0.41800000000E+01 0.  1.
        -11    1    4    4    0    0 -0.43397231832E+02  0.95720433546E+01  0.90282330308E+02  0.10062724736E+03  0.00000000000E+00 0. -1.
         11    1    4    4    0    0  0.27625852548E+02  0.67587238524E+01 -0.20339119949E+01  0.28513240348E+02  0.00000000000E+00 0.  1.
</event>
<event>
 8    1  0.6648599E-009  0.1445186E+03  0.7561462E-02  0.1207375E+00
         -1   -1    0    0    0  501 -0.00000000000E+00  0.00000000000E+00  0.18770532895E+03  0.18770532895E+03  0.00000000000E+00 0.  1.
          1   -1    0    0  501    0  0.00000000000E+00 -0.00000000000E+00 -0.14294096306E+03  0.14294096306E+03  0.00000000000E+00 0. -1.
         25    2    1    2    0    0 -0.10173325419E+03  0.69365090197E+02  0.18134558149E+02  0.17645993002E+03  0.12509226179E+03 0.  0.
         23    2    1    2    0    0  0.10173325419E+03 -0.69365090197E+02  0.26629807738E+02  0.15418636198E+03  0.88899475906E+02 0.  0.
          5    1    3    3  502    0  0.22122469253E+02 -0.13523365723E+01  0.24924688335E+02  0.33614653779E+02  0.41800000000E+01 0.  1.
         -5    1    3    3    0  502 -0.12385572344E+03  0.70717426770E+02 -0.67901301859E+01  0.14284527624E+03  0.41800000000E+01 0.  1.
        -11    1    4    4    0    0  0.12244395347E+02 -0.36625237089E+01  0.40347877489E+02  0.42323640146E+02  0.00000000000E+00 0.  1.
         11    1    4    4    0    0  0.89488858838E+02 -0.65702566488E+02 -0.13718069750E+02  0.11186272184E+03  0.00000000000E+00 0. -1.
</event>
<event>
 8    1  0.6648599E-009  0.1393442E+03  0.7561462E-02  0.1214214E+00
          4   -1    0    0  501    0  0.00000000000E+00  0.00000000000E+00  0.12668746972E+03  0.12668746972E+03  0.00000000000E+00 0.  1.
         -4   -1    0    0    0  501 -0.00000000000E+00 -0.00000000000E+00 -0.19947899121E+03  0.19947899121E+03  0.00000000000E+00 0. -1.
         25    2    1    2    0    0  0.11057660942E+03 -0.32086072315E+02 -0.38339074203E+02  0.17428600824E+03  0.12509606497E+03 0.  0.
         23    2    1    2    0    0 -0.11057660942E+03  0.32086072315E+02 -0.34452447289E+02  0.15188045269E+03  0.92865484425E+02 0.  0.
          5    1    3    3  502    0  0.11796693458E+03 -0.27390557399E+02 -0.70842168732E+02  0.14036568512E+03  0.41800000000E+01 0. -1.
         -5    1    3    3    0  502 -0.73903251655E+01 -0.46955149164E+01  0.32503094529E+02  0.33920323116E+02  0.41800000000E+01 0. -1.
        -11    1    4    4    0    0 -0.42363170227E+02 -0.32866730325E+02 -0.96563777464E+01  0.54480324752E+02  0.00000000000E+00 0.  1.
         11    1    4    4    0    0 -0.68213439189E+02  0.64952802640E+02 -0.24796069542E+02  0.97400127934E+02  0.00000000000E+00 0. -1.
</event>
<event>
 8    1  0.6648599E-009  0.1151121E+03  0.7561462E-02  0.1251386E+00
         -1   -1    0    0    0  501 -0.00000000000E+00  0.00000000000E+00  0.97731288445E+02  0.97731288445E+02  0.00000000000E+00 0.  1.
          1   -1    0    0  501    0  0.00000000000E+00 -0.00000000000E+00 -0.18658535648E+03  0.18658535648E+03  0.00000000000E+00 0. -1.
         25    2    1    2    0    0  0.17989325250E+02 -0.73419692430E+02 -0.27677642471E+02  0.14875481969E+03  0.12509147624E+03 0.  0.
         23    2    1    2    0    0 -0.17989325250E+02  0.73419692430E+02 -0.61176425560E+02  0.13556182523E+03  0.94447796991E+02 0.  0.
          5    1    3    3  502    0 -0.35489850559E+00  0.24177062986E+02  0.26034883790E+02  0.35776303632E+02  0.41800000000E+01 0.  1.
         -5    1    3    3    0  502  0.18344223756E+02 -0.97596755416E+02 -0.53712526261E+02  0.11297851606E+03  0.41800000000E+01 0.  1.
        -11    1    4    4    0    0 -0.39238519880E+02  0.75350879956E+02 -0.17195002892E+02  0.86678051876E+02  0.00000000000E+00 0.  1.
         11    1    4    4    0    0  0.21249194630E+02 -0.19311875257E+01 -0.43981422668E+02  0.48883773357E+02  0.00000000000E+00 0. -1.
</event>
<event>
 8    1  0.6648599E-009  0.1066585E+03  0.7561462E-02  0.1266886E+00
         -1   -1    0    0    0  501 -0.00000000000E+00  0.00000000000E+00  0.13427001484E+03  0.13427001484E+03  0.00000000000E+00 0.  1.
          1   -1    0    0  501    0  0.00000000000E+00 -0.00000000000E+00 -0.14965810526E+03  0.14965810526E+03  0.00000000000E+00 0. -1.
         25    2    1    2    0    0  0.68969237063E+02  0.39219886051E+02  0.38212267291E+02  0.15297789753E+03  0.12508838731E+03 0.  0.
         23    2    1    2    0    0 -0.68969237063E+02 -0.39219886051E+02 -0.53600357715E+02  0.13095022257E+03  0.89330886718E+02 0.  0.
          5    1    3    3  502    0 -0.27831201619E+02  0.17067908003E+02  0.42186740340E+02  0.53507781936E+02  0.41800000000E+01 0.  1.
         -5    1    3    3    0  502  0.96800438682E+02  0.22151978048E+02 -0.39744730492E+01  0.99470115595E+02  0.41800000000E+01 0.  1.
        -11    1    4    4    0    0 -0.29774491309E+02 -0.78031479694E+01  0.23641523106E+02  0.38811481106E+02  0.00000000000E+00 0.  1.
         11    1    4    4    0    0 -0.39194745754E+02 -0.31416738081E+02 -0.77241880820E+02  0.92138741466E+02  0.00000000000E+00 0. -1.
</event>
<event>
 8    1  0.6648599E-009  0.1333577E+03  0.7561462E-02  0.1222557E+00
         -2   -1    0    0    0  501 -0.00000000000E+00  0.00000000000E+00  0.13179397657E+03  0.13179397657E+03  0.00000000000E+00 0.  1.
          2   -1    0    0  501    0  0.00000000000E+00 -0.00000000000E+00 -0.17329796445E+03  0.17329796445E+03  0.00000000000E+00 0. -1.
         25    2    1    2    0    0 -0.81040553004E+01 -0.10245121254E+03 -0.44541235166E+02  0.16792387133E+03  0.12511026445E+03 0.  0.
         23    2    1    2    0    0  0.81040553004E+01  0.10245121254E+03  0.30372472862E+01  0.13716806968E+03  0.90796078143E+02 0.  0.
          5    1    3    3  502    0  0.23921489889E+02  0.13237725232E+02 -0.38833317600E+02  0.47675717128E+02  0.41800000000E+01 0.  1.
         -5    1    3    3    0  502 -0.32025545189E+02 -0.11568893777E+03 -0.57079175655E+01  0.12024815421E+03  0.41800000000E+01 0.  1.
        -11    1    4    4    0    0  0.29831194315E+02  0.26347154062E+02 -0.31557083272E+02  0.50792934410E+02  0.00000000000E+00 0. -1.
         11    1    4    4    0    0 -0.21727139014E+02  0.76104058475E+02  0.34594330558E+02  0.86375135270E+02  0.00000000000E+00 0.  1.
</event>
<event>
 8    1  0.6648599E-009  0.1366192E+03  0.7561462E-02  0.1217952E+00
         -2   -1    0    0    0  501 -0.00000000000E+00  0.00000000000E+00  0.27396706324E+02  0.27396706324E+02  0.00000000000E+00 0.  1.
          2   -1    0    0  501    0  0.00000000000E+00 -0.00000000000E+00 -0.91468252747E+03  0.91468252747E+03  0.00000000000E+00 0. -1.
         25    2    1    2    0    0  0.82632634012E+02 -0.69139569617E+02 -0.60014465124E+03  0.62243849975E+03  0.12509057227E+03 0.  0.
         23    2    1    2    0    0 -0.82632634012E+02  0.69139569617E+02 -0.28714116991E+03  0.31964073405E+03  0.90065060451E+02 0.  0.
          5    1    3    3  502    0  0.14740720547E+02 -0.91605693698E+02 -0.31267013885E+03  0.32617323632E+03  0.41800000000E+01 0.  1.
         -5    1    3    3    0  502  0.67891913465E+02  0.22466124080E+02 -0.28747451239E+03  0.29626526344E+03  0.41800000000E+01 0.  1.
        -11    1    4    4    0    0 -0.64274274714E+02  0.45287008548E+02 -0.27690016984E+03  0.28784683356E+03  0.00000000000E+00 0. -1.
         11    1    4    4    0    0 -0.18358359298E+02  0.23852561069E+02 -0.10241000069E+02  0.31793900485E+02  0.00000000000E+00 0.  1.
</event>
<event>
 8    1  0.6648599E-009  0.8408593E+02  0.7561462E-02  0.1317840E+00
          1   -1    0    0  501    0  0.00000000000E+00  0.00000000000E+00  0.81094027850E+03  0.81094027850E+03  0.00000000000E+00 0. -1.
         -1   -1    0    0    0  501 -0.00000000000E+00 -0.00000000000E+00 -0.18848993850E+02  0.18848993850E+02  0.00000000000E+00 0.  1.
         25    2    1    2    0    0 -0.55660791720E+02 -0.53854267126E+01  0.50557139667E+03  0.52381025189E+03  0.12509043249E+03 0.  0.
         23    2    1    2    0    0  0.55660791720E+02  0.53854267126E+01  0.28651988798E+03  0.30597902046E+03  0.91664541654E+02 0.  0.
          5    1    3    3  502    0 -0.13351033513E+02  0.18166840199E+02  0.44748343563E+03  0.44807050979E+03  0.41800000000E+01 0.  1.
         -5    1    3    3    0  502 -0.42309758207E+02 -0.23552266911E+02  0.58087961041E+02  0.75739742105E+02  0.41800000000E+01 0.  1.
        -11    1    4    4    0    0 -0.15688831155E+02  0.18327139381E+02  0.25626798590E+02  0.35195969470E+02  0.00000000000E+00 0.  1.
         11    1    4    4    0    0  0.71349622876E+02 -0.12941712669E+02  0.26089308939E+03  0.27078305099E+03  0.00000000000E+00 0. -1.
</event>
<event>
 8    1  0.6648599E-009  0.1361797E+03  0.7561462E-02  0.1218564E+00
          2   -1    0    0  501    0  0.00000000000E+00  0.00000000000E+00  0.19301178009E+04  0.19301178009E+04  0.00000000000E+00 0. -1.
         -2   -1    0    0    0  501 -0.00000000000E+00 -0.00000000000E+00 -0.11549407593E+02  0.11549407593E+02  0.00000000000E+00 0.  1.
         25    2    1    2    0    0  0.48304491695E+02 -0.84474820232E+02  0.12465583011E+04  0.12565924565E+04  0.12509070591E+03 0.  0.
         23    2    1    2    0    0 -0.48304491695E+02  0.84474820232E+02  0.67201009228E+03  0.68507475199E+03  0.90887471740E+02 0.  0.
          5    1    3    3  502    0 -0.29207072353E+02 -0.46719277062E+01  0.93123090695E+02  0.97797047013E+02  0.41800000000E+01 0.  1.
         -5    1    3    3    0  502  0.77511564048E+02 -0.79802892526E+02  0.11534352104E+04  0.11587954095E+04  0.41800000000E+01 0.  1.
        -11    1    4    4    0    0 -0.23526417180E+02  0.99458109281E+02  0.56739774926E+03  0.57652893567E+03  0.00000000000E+00 0. -1.
         11    1    4    4    0    0 -0.24778074515E+02 -0.14983289049E+02  0.10461234302E+03  0.10854581632E+03  0.00000000000E+00 0.  1.
</event>
<event>
 8    1  0.6648599E-009  0.5590812E+02  0.7561462E-02  0.1415853E+00
          1   -1    0    0  501    0  0.00000000000E+00  0.00000000000E+00  0.19505027578E+03  0.19505027578E+03  0.00000000000E+00 0. -1.
         -1   -1    0    0    0  501 -0.00000000000E+00 -0.00000000000E+00 -0.81737734365E+02  0.81737734365E+02  0.00000000000E+00 0.  1.
         25    2    1    2    0    0 -0.45556472438E+02 -0.78226717948E+01  0.10459839492E+03  0.16947898972E+03  0.12508284200E+03 0.  0.
         23    2    1    2    0    0  0.45556472438E+02  0.78226717948E+01  0.87141464900E+01  0.10730902042E+03  0.96450521718E+02 0.  0.
          5    1    3    3  502    0 -0.59314927347E+01 -0.22001632483E+02  0.12168099191E+03  0.12386682619E+03  0.41800000000E+01 0.  1.
         -5    1    3    3    0  502 -0.39624979703E+02  0.14178960688E+02 -0.17082596984E+02  0.45612163536E+02  0.41800000000E+01 0.  1.
        -11    1    4    4    0    0  0.14739726111E+02  0.42063784066E+01  0.51909069579E+02  0.54124898611E+02  0.00000000000E+00 0. -1.
         11    1    4    4    0    0  0.30816746327E+02  0.36162933883E+01 -0.43194923089E+02  0.53184121810E+02  0.00000000000E+00 0.  1.
</event>
<event>
 8    1  0.6648599E-009  0.1175321E+03  0.7561462E-02  0.1247225E+00
          1   -1    0    0  501    0  0.00000000000E+00  0.00000000000E+00  0.10277532435E+04  0.10277532435E+04  0.00000000000E+00 0. -1.
         -1   -1    0    0    0  501 -0.00000000000E+00 -0.00000000000E+00 -0.23876381342E+02  0.23876381342E+02  0.00000000000E+00 0.  1.
         25    2    1    2    0    0 -0.48070422374E+02 -0.45072440663E+02  0.84714748802E+03  0.85886533288E+03  0.12509397728E+03 0.  0.
         23    2    1    2    0    0  0.48070422374E+02  0.45072440663E+02  0.15672937414E+03  0.19276429197E+03  0.90838786449E+02 0.  0.
          5    1    3    3  502    0 -0.39348231017E+01  0.35357714061E+02  0.44153461694E+03  0.44298526063E+03  0.41800000000E+01 0.  1.
         -5    1    3    3    0  502 -0.44135599273E+02 -0.80430154724E+02  0.40561287108E+03  0.41588007225E+03  0.41800000000E+01 0.  1.
        -11    1    4    4    0    0  0.44463133302E+02 -0.15226155617E+02  0.97142851874E+02  0.10791450184E+03  0.00000000000E+00 0. -1.
         11    1    4    4    0    0  0.36072890719E+01  0.60298596280E+02  0.59586522270E+02  0.84849790124E+02  0.00000000000E+00 0.  1.
</event>
<event>
 8    1  0.6648599E-009  0.7609625E+02  0.7561462E-02  0.1340510E+00
         -1   -1    0    0    0  501 -0.00000000000E+00  0.00000000000E+00  0.40919910323E+02  0.40919910323E+02  0.00000000000E+00 0.  1.
          1   -1    0    0  501    0  0.00000000000E+00 -0.00000000000E+00 -0.39308855367E+03  0.39308855367E+03  0.00000000000E+00 0. -1.
         25    2    1    2    0    0  0.40482454461E+02  0.79853400589E+01 -0.28445565580E+03  0.31347105544E+03  0.12508592130E+03 0.  0.
         23    2    1    2    0    0 -0.40482454461E+02 -0.79853400589E+01 -0.67712987547E+02  0.12053740855E+03  0.90783387259E+02 0.  0.
          5    1    3    3  502    0 -0.15378997858E+02 -0.26738175179E+02 -0.12334043267E+02  0.33482004276E+02  0.41800000000E+01 0. -1.
         -5    1    3    3    0  502  0.55861452319E+02  0.34723515238E+02 -0.27212161253E+03  0.27998905116E+03  0.41800000000E+01 0. -1.
        -11    1    4    4    0    0 -0.38039983197E+01 -0.16973604703E+02  0.19119720303E+02  0.25848353222E+02  0.00000000000E+00 0.  1.
         11    1    4    4    0    0 -0.36678456141E+02  0.89882646437E+01 -0.86832707850E+02  0.94689055327E+02  0.00000000000E+00 0. -1.
</event>
<event>
 8    1  0.6648599E-009  0.1026018E+03  0.7561462E-02  0.1274918E+00
          2   -1    0    0  501    0  0.00000000000E+00  0.00000000000E+00  0.93686601825E+02  0.93686601825E+02  0.00000000000E+00 0. -1.
         -2   -1    0    0    0  501 -0.00000000000E+00 -0.00000000000E+00 -0.21631339803E+03  0.21631339803E+03  0.00000000000E+00 0.  1.
         25    2    1    2    0    0 -0.70651681737E+02 -0.31519462298E+02 -0.14043302598E+02  0.14775082147E+03  0.12509178334E+03 0.  0.
         23    2    1    2    0    0  0.70651681737E+02  0.31519462298E+02 -0.10858349360E+03  0.16224917839E+03  0.92462339188E+02 0.  0.
          5    1    3    3  502    0 -0.86087407171E+02 -0.40554885703E+02  0.30134770480E+02  0.99906542427E+02  0.41800000000E+01 0.  1.
         -5    1    3    3    0  502  0.15435725434E+02  0.90354234047E+01 -0.44178073079E+02  0.47844279038E+02  0.41800000000E+01 0.  1.
        -11    1    4    4    0    0  0.52703494521E+02  0.44867208144E+02 -0.21706364130E+02  0.72538892638E+02  0.00000000000E+00 0. -1.
         11    1    4    4    0    0  0.17948187216E+02 -0.13347745846E+02 -0.86877129475E+02  0.89710285750E+02  0.00000000000E+00 0.  1.
</event>
<event>
 8    1  0.6648599E-009  0.1151793E+03  0.7561462E-02  0.1251268E+00
          1   -1    0    0  501    0  0.00000000000E+00  0.00000000000E+00  0.39528873349E+02  0.39528873349E+02  0.00000000000E+00 0. -1.
         -1   -1    0    0    0  501 -0.00000000000E+00 -0.00000000000E+00 -0.42270010772E+03  0.42270010772E+03  0.00000000000E+00 0.  1.
         25    2    1    2    0    0 -0.43973152624E+02 -0.15982571712E+02 -0.11883377071E+03  0.17877309029E+03  0.12509705032E+03 0.  0.
         23    2    1    2    0    0  0.43973152624E+02  0.15982571712E+02 -0.26433746366E+03  0.28345589078E+03  0.91015749050E+02 0.  0.
          5    1    3    3  502    0 -0.37704143048E+02 -0.67176458016E+02 -0.47326599096E+02  0.90507227869E+02  0.41800000000E+01 0. -1.
         -5    1    3    3    0  502 -0.62690095754E+01  0.51193886304E+02 -0.71507171617E+02  0.88265862419E+02  0.41800000000E+01 0. -1.
        -11    1    4    4    0    0 -0.83143077889E+01  0.42173594327E+02 -0.13057424733E+03  0.13746771925E+03  0.00000000000E+00 0. -1.
         11    1    4    4    0    0  0.52287460412E+02 -0.26191022615E+02 -0.13376321633E+03  0.14598817153E+03  0.00000000000E+00 0.  1.
</event>
<event>
 8    1  0.6648599E-009  0.1081598E+03  0.7561462E-02  0.1264016E+00
          1   -1    0    0  501    0  0.00000000000E+00  0.00000000000E+00  0.39925867803E+03  0.39925867803E+03  0.00000000000E+00 0. -1.
         -1   -1    0    0    0  501 -0.00000000000E+00 -0.00000000000E+00 -0.57016267889E+02  0.57016267889E+02  0.00000000000E+00 0.  1.
         25    2    1    2    0    0 -0.96730643146E+02  0.11455957367E+02  0.13150793221E+03  0.20598841007E+03  0.12509529394E+03 0.  0.
         23    2    1    2    0    0  0.96730643146E+02 -0.11455957367E+02  0.21073447793E+03  0.25028653585E+03  0.93521513865E+02 0.  0.
          5    1    3    3  502    0 -0.53471860365E+02  0.85713427513E+00  0.14868846822E+03  0.15806867973E+03  0.41800000000E+01 0.  1.
         -5    1    3    3    0  502 -0.43258782781E+02  0.10598823092E+02 -0.17180536006E+02  0.47919730343E+02  0.41800000000E+01 0.  1.
        -11    1    4    4    0    0  0.74196132374E+02  0.22194820750E+02  0.71934699337E+02  0.10569899288E+03  0.00000000000E+00 0.  1.
         11    1    4    4    0    0  0.22534510772E+02 -0.33650778117E+02  0.13879977859E+03  0.14458754297E+03  0.00000000000E+00 0. -1.
</event>
<event>
 8    1  0.6648599E-009  0.8757796E+02  0.7561462E-02  0.1308825E+00
         -1   -1    0    0    0  501 -0.00000000000E+00  0.00000000000E+00  0.31627796684E+03  0.31627796684E+03  0.00000000000E+00 0.  1.
          1   -1    0    0  501    0  0.00000000000E+00 -0.00000000000E+00 -0.42369463238E+02  0.42369463238E+02  0.00000000000E+00 0. -1.
         25    2    1    2    0    0  0.15997328839E+02 -0.36852369777E+02  0.14899977739E+03  0.19865325992E+03  0.12509265496E+03 0.  0.
         23    2    1    2    0    0 -0.15997328839E+02  0.36852369777E+02  0.12490872620E+03  0.15999417015E+03  0.91552896803E+02 0.  0.
          5    1    3    3  502    0 -0.44357359249E+02 -0.39376856417E+02  0.33512497291E+02  0.68254465169E+02  0.41800000000E+01 0. -1.
         -5    1    3    3    0  502  0.60354688089E+02  0.25244866404E+01  0.11548728010E+03  0.13039879475E+03  0.41800000000E+01 0. -1.
        -11    1    4    4    0    0 -0.71150568676E+01  0.43481573099E+02  0.13681089911E+03  0.14373062774E+03  0.00000000000E+00 0.  1.
         11    1    4    4    0    0 -0.88822719717E+01 -0.66292033224E+01 -0.11902172908E+02  0.16263542418E+02  0.00000000000E+00 0. -1.
</event>
<event>
 8    1  0.6648599E-009  0.7914496E+02  0.7561462E-02  0.1331496E+00
         -4   -1    0    0    0  501 -0.00000000000E+00  0.00000000000E+00  0.21920902632E+03  0.21920902632E+03  0.00000000000E+00 0.  1.
          4   -1    0    0  501    0  0.00000000000E+00 -0.00000000000E+00 -0.69678787241E+02  0.69678787241E+02  0.00000000000E+00 0. -1.
         25    2    1    2    0    0  0.46884882707E+02  0.25859613588E+02  0.50574705824E+02  0.14516040830E+03  0.12508729523E+03 0.  0.
         23    2    1    2    0    0 -0.46884882707E+02 -0.25859613588E+02  0.98955533257E+02  0.14372740526E+03  0.89434096511E+02 0.  0.
          5    1    3    3  502    0  0.86188553572E+00  0.73400898100E+00  0.83167440246E+02  0.83280112469E+02  0.41800000000E+01 0.  1.
         -5    1    3    3    0  502  0.46022997171E+02  0.25125604607E+02 -0.32592734422E+02  0.61880295835E+02  0.41800000000E+01 0.  1.
        -11    1    4    4    0    0  0.12329006938E+02  0.22001414447E+02  0.40612223551E+02  0.47806059778E+02  0.00000000000E+00 0.  1.
         11    1    4    4    0    0 -0.59213889645E+02 -0.47861028034E+02  0.58343309706E+02  0.95921345481E+02  0.00000000000E+00 0. -1.
</event>
<event>
 8    1  0.6648599E-009  0.8342342E+02  0.7561462E-02  0.1319608E+00
         -4   -1    0    0    0  501 -0.00000000000E+00  0.00000000000E+00  0.30914136725E+03  0.30914136725E+03  0.00000000000E+00 0.  1.
          4   -1    0    0  501    0  0.00000000000E+00 -0.00000000000E+00 -0.43748519377E+02  0.43748519377E+02  0.00000000000E+00 0. -1.
         25    2    1    2    0    0  0.27396531870E+02  0.24660659269E+02  0.18155475264E+03  0.22353718117E+03  0.12509206643E+03 0.  0.
         23    2    1    2    0    0 -0.27396531870E+02 -0.24660659269E+02  0.83838095235E+02  0.12935270546E+03  0.91348662409E+02 0.  0.
          5    1    3    3  502    0  0.46516338612E+02  0.27499595391E+01  0.79392624445E+01  0.47453517504E+02  0.41800000000E+01 0.  1.
         -5    1    3    3    0  502 -0.19119806742E+02  0.21910699729E+02  0.17361549020E+03  0.17608366366E+03  0.41800000000E+01 0.  1.
        -11    1    4    4    0    0 -0.56574943080E+02 -0.24114265356E+02  0.78438982113E+02  0.99673947916E+02  0.00000000000E+00 0. -1.
         11    1    4    4    0    0  0.29178411210E+02 -0.54639391275E+00  0.53991131216E+01  0.29678757547E+02  0.00000000000E+00 0.  1.
</event>
<event>
 8    1  0.6648599E-009  0.1247981E+03  0.7561462E-02  0.1235385E+00
         -2   -1    0    0    0  501 -0.00000000000E+00  0.00000000000E+00  0.47283804491E+02  0.47283804491E+02  0.00000000000E+00 0.  1.
          2   -1    0    0  501    0  0.00000000000E+00 -0.00000000000E+00 -0.61035769855E+03  0.61035769855E+03  0.00000000000E+00 0. -1.
         25    2    1    2    0    0 -0.84341091449E+02  0.29264988530E+02 -0.48498084625E+03  0.50874862065E+03  0.12509547764E+03 0.  0.
         23    2    1    2    0    0  0.84341091449E+02 -0.29264988530E+02 -0.78093047815E+02  0.14889288239E+03  0.90003927971E+02 0.  0.
          5    1    3    3  502    0 -0.61510739808E+02  0.69023082501E+02 -0.20387352440E+03  0.22389650150E+03  0.41800000000E+01 0.  1.
         -5    1    3    3    0  502 -0.22830351640E+02 -0.39758093970E+02 -0.28110732184E+03  0.28485211915E+03  0.41800000000E+01 0.  1.
        -11    1    4    4    0    0  0.94165916247E+02 -0.17663830876E+02 -0.88533354182E+02  0.13045070144E+03  0.00000000000E+00 0. -1.
         11    1    4    4    0    0 -0.98248247985E+01 -0.11601157655E+02  0.10440306367E+02  0.18442180953E+02  0.00000000000E+00 0.  1.
</event>
<event>
 8    1  0.6648599E-009  0.1633148E+03  0.7561462E-02  0.1185004E+00
          2   -1    0    0  501    0  0.00000000000E+00  0.00000000000E+00  0.73008009999E+03  0.73008009999E+03  0.00000000000E+00 0. -1.
         -2   -1    0    0    0  501 -0.00000000000E+00 -0.00000000000E+00 -0.39147621025E+02  0.39147621025E+02  0.00000000000E+00 0.  1.
         25    2    1    2    0    0  0.11971033589E+03  0.44822691640E+02  0.32589144741E+03  0.37174225453E+03  0.12508968823E+03 0.  0.
         23    2    1    2    0    0 -0.11971033589E+03 -0.44822691640E+02  0.36504103156E+03  0.39748546649E+03  0.91652076602E+02 0.  0.
          5    1    3    3  502    0  0.75211193317E+00  0.58729964404E+02  0.10092456135E+03  0.11684611194E+03  0.41800000000E+01 0. -1.
         -5    1    3    3    0  502  0.11895822396E+03 -0.13907272764E+02  0.22496688606E+03  0.25489614259E+03  0.41800000000E+01 0. -1.
        -11    1    4    4    0    0 -0.10360131945E+03 -0.36192589432E+01  0.18475582616E+03  0.21185147564E+03  0.00000000000E+00 0.  1.
         11    1    4    4    0    0 -0.16109016439E+02 -0.41203432697E+02  0.18028520540E+03  0.18563399086E+03  0.00000000000E+00 0. -1.
</event>
<event>
 8    1  0.6648599E-009  0.1179943E+03  0.7561462E-02  0.1246443E+00
          2   -1    0    0  501    0  0.00000000000E+00  0.00000000000E+00  0.67659117242E+03  0.67659117242E+03  0.00000000000E+00 0. -1.
         -2   -1    0    0    0  501 -0.00000000000E+00 -0.00000000000E+00 -0.21465570411E+02  0.21465570411E+02  0.00000000000E+00 0.  1.
         25    2    1    2    0    0  0.31563478311E+01 -0.52832228681E+02  0.37739777459E+03  0.40109594612E+03  0.12509065039E+03 0.  0.
         23    2    1    2    0    0 -0.31563478311E+01  0.52832228681E+02  0.27772782742E+03  0.29696079671E+03  0.90839208154E+02 0.  0.
          5    1    3    3  502    0 -0.19745127006E+02 -0.88594262598E+02  0.22023033470E+03  0.23823871668E+03  0.41800000000E+01 0.  1.
         -5    1    3    3    0  502  0.22901474837E+02  0.35762033918E+02  0.15716743989E+03  0.16285722944E+03  0.41800000000E+01 0.  1.
        -11    1    4    4    0    0  0.38197084754E+02  0.39137213380E+01  0.73530483908E+02  0.82952194438E+02  0.00000000000E+00 0.  1.
         11    1    4    4    0    0 -0.41353432585E+02  0.48918507343E+02  0.20419734351E+03  0.21400860227E+03  0.00000000000E+00 0. -1.
</event>
<event>
 8    1  0.6648599E-009  0.1369254E+03  0.7561462E-02  0.1217527E+00
          2   -1    0    0  501    0  0.00000000000E+00  0.00000000000E+00  0.41322544016E+03  0.41322544016E+03  0.00000000000E+00 0.  1.
         -2   -1    0    0    0  501 -0.00000000000E+00 -0.00000000000E+00 -0.54387635569E+02  0.54387635569E+02  0.00000000000E+00 0. -1.
         25    2    1    2    0    0 -0.14750241585E+02 -0.92789724282E+02  0.26106060244E+03  0.30434908246E+03  0.12509285866E+03 0.  0.
         23    2    1    2    0    0  0.14750241585E+02  0.92789724282E+02  0.97777202152E+02  0.16326399327E+03  0.90924406400E+02 0.  0.
          5    1    3    3  502    0 -0.63970984894E+02 -0.83375705151E+02  0.19202183701E+03  0.21893755596E+03  0.41800000000E+01 0. -1.
         -5    1    3    3    0  502  0.49220743309E+02 -0.94140191310E+01  0.69038765428E+02  0.85411526505E+02  0.41800000000E+01 0. -1.
        -11    1    4    4    0    0  0.43831015433E+02  0.63124626908E+02  0.94196467261E+02  0.12156829719E+03  0.00000000000E+00 0.  1.
         11    1    4    4    0    0 -0.29080773847E+02  0.29665097374E+02  0.35807348912E+01  0.41695696086E+02  0.00000000000E+00 0. -1.
</event>
<event>
 8    1  0.6648599E-009  0.1089896E+03  0.7561462E-02  0.1262453E+00
         -1   -1    0    0    0  501 -0.00000000000E+00  0.00000000000E+00  0.17132458689E+03  0.17132458689E+03  0.00000000000E+00 0.  1.
          1   -1    0    0  501    0  0.00000000000E+00 -0.00000000000E+00 -0.10217743467E+03  0.10217743467E+03  0.00000000000E+00 0. -1.
         25    2    1    2    0    0 -0.58555928085E+02 -0.47187905895E+02  0.35237115533E+02  0.15014824746E+03  0.12508935498E+03 0.  0.
         23    2    1    2    0    0  0.58555928085E+02  0.47187905895E+02  0.33910036690E+02  0.12335377409E+03  0.91710238345E+02 0.  0.
          5    1    3    3  502    0 -0.29704962036E+01 -0.46890964509E+02 -0.36254403268E+02  0.59493197566E+02  0.41800000000E+01 0.  1.
         -5    1    3    3    0  502 -0.55585431881E+02 -0.29694138580E+00  0.71491518802E+02  0.90655049899E+02  0.41800000000E+01 0.  1.
        -11    1    4    4    0    0  0.69853952301E+02  0.35013312360E+01  0.57803879050E+01  0.70180102998E+02  0.00000000000E+00 0. -1.
         11    1    4    4    0    0 -0.11298024216E+02  0.43686574659E+02  0.28129648785E+02  0.53173671092E+02  0.00000000000E+00 0.  1.
</event>
<event>
 8    1  0.6648599E-009  0.8598180E+02  0.7561462E-02  0.1312885E+00
          1   -1    0    0  501    0  0.00000000000E+00  0.00000000000E+00  0.42034281950E+02  0.42034281950E+02  0.00000000000E+00 0. -1.
         -1   -1    0    0    0  501 -0.00000000000E+00 -0.00000000000E+00 -0.31095080092E+03  0.31095080092E+03  0.00000000000E+00 0.  1.
         25    2    1    2    0    0  0.59837722939E+01  0.13826116276E+02 -0.19783748626E+03  0.23455203072E+03  0.12509203462E+03 0.  0.
         23    2    1    2    0    0 -0.59837722939E+01 -0.13826116276E+02 -0.71079032708E+02  0.11843305214E+03  0.93526423685E+02 0.  0.
          5    1    3    3  502    0 -0.77439116517E+01 -0.38498434855E+02 -0.16810787847E+03  0.17268418821E+03  0.41800000000E+01 0.  1.
         -5    1    3    3    0  502  0.13727683946E+02  0.52324551131E+02 -0.29729607784E+02  0.61867842507E+02  0.41800000000E+01 0.  1.
        -11    1    4    4    0    0  0.34644286804E+02  0.17880729442E+01 -0.66066198866E+02  0.74620147719E+02  0.00000000000E+00 0.  1.
         11    1    4    4    0    0 -0.40628059098E+02 -0.15614189220E+02 -0.50128338425E+01  0.43812904426E+02  0.00000000000E+00 0. -1.
</event>
<event>
 8    1  0.6648599E-009  0.2186862E+03  0.7561462E-02  0.1134866E+00
         -2   -1    0    0    0  501 -0.00000000000E+00  0.00000000000E+00  0.11108139224E+03  0.11108139224E+03  0.00000000000E+00 0.  1.
          2   -1    0    0  501    0  0.00000000000E+00 -0.00000000000E+00 -0.61878328060E+03  0.61878328060E+03  0.00000000000E+00 0. -1.
         25    2    1    2    0    0  0.19028453858E+03 -0.44409246740E+02 -0.45020708139E+03  0.50647190726E+03  0.12508792862E+03 0.  0.
         23    2    1    2    0    0 -0.19028453858E+03  0.44409246740E+02 -0.57494806966E+02  0.22339276558E+03  0.91751229227E+02 0.  0.
          5    1    3    3  502    0  0.18675084711E+03 -0.71997812885E+02 -0.35922578423E+03  0.41124226486E+03  0.41800000000E+01 0.  1.
         -5    1    3    3    0  502  0.35336914783E+01  0.27588566145E+02 -0.90981297162E+02  0.95229642395E+02  0.41800000000E+01 0.  1.
        -11    1    4    4    0    0 -0.28728562789E+02 -0.20134433944E+02 -0.32148565623E+02  0.47584199287E+02  0.00000000000E+00 0.  1.
         11    1    4    4    0    0 -0.16155597580E+03  0.64543680684E+02 -0.25346241343E+02  0.17580856629E+03  0.00000000000E+00 0. -1.
</event>
<event>
 8    1  0.6648599E-009  0.1114053E+03  0.7561462E-02  0.1257989E+00
          2   -1    0    0  501    0  0.00000000000E+00  0.00000000000E+00  0.37490355917E+02  0.37490355917E+02  0.00000000000E+00 0. -1.
         -2   -1    0    0    0  501 -0.00000000000E+00 -0.00000000000E+00 -0.36831373679E+03  0.36831373679E+03  0.00000000000E+00 0.  1.
         25    2    1    2    0    0  0.41636846132E+02 -0.12105440452E+02 -0.20934384939E+03  0.24769518732E+03  0.12509152610E+03 0.  0.
         23    2    1    2    0    0 -0.41636846132E+02  0.12105440452E+02 -0.12147953149E+03  0.15810890539E+03  0.91438398649E+02 0.  0.
          5    1    3    3  502    0  0.61293434884E+02  0.35079266334E+02 -0.71342762067E+02  0.10047239514E+03  0.41800000000E+01 0.  1.
         -5    1    3    3    0  502 -0.19656588751E+02 -0.47184706786E+02 -0.13800108732E+03  0.14722279218E+03  0.41800000000E+01 0.  1.
        -11    1    4    4    0    0 -0.62105679491E+02 -0.17739494372E+02 -0.70814188265E+02  0.95845992850E+02  0.00000000000E+00 0.  1.
         11    1    4    4    0    0  0.20468833359E+02  0.29844934824E+02 -0.50665343223E+02  0.62262912538E+02  0.00000000000E+00 0. -1.
</event>
<event>
 8    1  0.6648599E-009  0.1682678E+03  0.7561462E-02  0.1179666E+00
         -2   -1    0    0    0  501 -0.00000000000E+00  0.00000000000E+00  0.12636419842E+03  0.12636419842E+03  0.00000000000E+00 0.  1.
          2   -1    0    0  501    0  0.00000000000E+00 -0.00000000000E+00 -0.54337347824E+03  0.54337347824E+03  0.00000000000E+00 0. -1.
         25    2    1    2    0    0  0.85406770765E+02  0.12562931326E+03  0.20738054059E+02  0.19786503940E+03  0.12507384254E+03 0.  0.
         23    2    1    2    0    0 -0.85406770765E+02 -0.12562931326E+03 -0.43774733387E+03  0.47187263726E+03  0.89241339277E+02 0.  0.
          5    1    3    3  502    0  0.73134170480E+02  0.13986652233E+03  0.47515328958E+02  0.16488307932E+03  0.41800000000E+01 0. -1.
         -5    1    3    3    0  502  0.12272600285E+02 -0.14237209065E+02 -0.26777274899E+02  0.32981960080E+02  0.41800000000E+01 0. -1.
        -11    1    4    4    0    0 -0.82025768811E+02 -0.83226378116E+02 -0.21124933468E+03  0.24141486733E+03  0.00000000000E+00 0.  1.
         11    1    4    4    0    0 -0.33810019538E+01 -0.42402935148E+02 -0.22649799919E+03  0.23045776993E+03  0.00000000000E+00 0. -1.
</event>
<event>
 8    1  0.6648599E-009  0.1039403E+03  0.7561462E-02  0.1272222E+00
         -2   -1    0    0    0  501 -0.00000000000E+00  0.00000000000E+00  0.22937770391E+02  0.22937770391E+02  0.00000000000E+00 0.  1.
          2   -1    0    0  501    0  0.00000000000E+00 -0.00000000000E+00 -0.63473700751E+03  0.63473700751E+03  0.00000000000E+00 0. -1.
         25    2    1    2    0    0 -0.12125135590E+02  0.40618445229E+02 -0.42224037894E+03  0.44241714522E+03  0.12509642592E+03 0.  0.
         23    2    1    2    0    0  0.12125135590E+02 -0.40618445229E+02 -0.18955885818E+03  0.21525763267E+03  0.92770742716E+02 0.  0.
          5    1    3    3  502    0  0.46244438709E+02  0.20888421390E+02 -0.81287795597E+02  0.95916903477E+02  0.41800000000E+01 0.  1.
         -5    1    3    3    0  502 -0.58369574299E+02  0.19730023838E+02 -0.34095258334E+03  0.34650024175E+03  0.41800000000E+01 0.  1.
        -11    1    4    4    0    0 -0.84456230580E+01  0.25028734838E+02 -0.93132650805E+02  0.96806284726E+02  0.00000000000E+00 0. -1.
         11    1    4    4    0    0  0.20570758648E+02 -0.65647180066E+02 -0.96426207373E+02  0.11845134795E+03  0.00000000000E+00 0.  1.
</event>
<event>
 8    1  0.6648599E-009  0.8194485E+02  0.7561462E-02  0.1323621E+00
          1   -1    0    0  501    0  0.00000000000E+00  0.00000000000E+00  0.27824550129E+02  0.27824550129E+02  0.00000000000E+00 0. -1.
         -1   -1    0    0    0  501 -0.00000000000E+00 -0.00000000000E+00 -0.47377188170E+03  0.47377188170E+03  0.00000000000E+00 0.  1.
         25    2    1    2    0    0  0.26487334438E+02  0.88522583555E+00 -0.18682065696E+03  0.22638953900E+03  0.12509157842E+03 0.  0.
         23    2    1    2    0    0 -0.26487334438E+02 -0.88522583555E+00 -0.25912667461E+03  0.27520689283E+03  0.88824759243E+02 0.  0.
          5    1    3    3  502    0  0.37288685373E+02  0.38600684679E+02 -0.17799950098E+03  0.18596169945E+03  0.41800000000E+01 0.  1.
         -5    1    3    3    0  502 -0.10801350935E+02 -0.37715458843E+02 -0.88211559815E+01  0.40427839549E+02  0.41800000000E+01 0.  1.
        -11    1    4    4    0    0  0.20296825333E+02 -0.10484335283E+02 -0.17159495270E+02  0.28571501235E+02  0.00000000000E+00 0. -1.
         11    1    4    4    0    0 -0.46784159770E+02  0.95991094477E+01 -0.24196717934E+03  0.24663539159E+03  0.00000000000E+00 0.  1.
</event>
<event>
 8    1  0.6648599E-009  0.1138453E+03  0.7561462E-02  0.1253610E+00
         -3   -1    0    0    0  501 -0.00000000000E+00  0.00000000000E+00  0.66551706054E+03  0.66551706054E+03  0.00000000000E+00 0.  1.
          3   -1    0    0  501    0  0.00000000000E+00 -0.00000000000E+00 -0.22626786423E+02  0.22626786423E+02  0.00000000000E+00 0. -1.
         25    2    1    2    0    0  0.53045493325E+02 -0.21532639978E+02  0.35189232396E+03  0.37782718797E+03  0.12509075650E+03 0.  0.
         23    2    1    2    0    0 -0.53045493325E+02  0.21532639978E+02  0.29099795016E+03  0.31031665899E+03  0.91318907718E+02 0.  0.
          5    1    3    3  502    0 -0.11352091733E+02  0.33234797466E+02  0.34743606299E+02  0.49578345353E+02  0.41800000000E+01 0. -1.
         -5    1    3    3    0  502  0.64397585058E+02 -0.54767437444E+02  0.31714871766E+03  0.32824884261E+03  0.41800000000E+01 0. -1.
        -11    1    4    4    0    0 -0.21777945273E+02 -0.36073369916E+02  0.10746439455E+03  0.11543033836E+03  0.00000000000E+00 0.  1.
         11    1    4    4    0    0 -0.31267548052E+02  0.57606009894E+02  0.18353355561E+03  0.19488632064E+03  0.00000000000E+00 0. -1.
</event>
<event>
 8    1  0.6648599E-009  0.1104238E+03  0.7561462E-02  0.1259787E+00
         -1   -1    0    0    0  501 -0.00000000000E+00  0.00000000000E+00  0.12077095373E+03  0.12077095373E+03  0.00000000000E+00 0.  1.
          1   -1    0    0  501    0  0.00000000000E+00 -0.00000000000E+00 -0.12799976891E+03  0.12799976891E+03  0.00000000000E+00 0. -1.
         25    2    1    2    0    0  0.12224628894E+02  0.17853300018E+02 -0.58023705125E+02  0.13957556136E+03  0.12508559110E+03 0.  0.
         23    2    1    2    0    0 -0.12224628894E+02 -0.17853300018E+02  0.50794889945E+02  0.10919516129E+03  0.94208707297E+02 0.  0.
          5    1    3    3  502    0 -0.55620931859E+02  0.45403699613E+01 -0.37383493337E+02  0.67300081681E+02  0.41800000000E+01 0.  1.
         -5    1    3    3    0  502  0.67845560753E+02  0.13312930057E+02 -0.20640211789E+02  0.72275479682E+02  0.41800000000E+01 0.  1.
        -11    1    4    4    0    0 -0.45581720167E+02  0.15793562086E+02  0.17627006184E+02  0.51359917871E+02  0.00000000000E+00 0. -1.
         11    1    4    4    0    0  0.33357091273E+02 -0.33646862104E+02  0.33167883761E+02  0.57835243415E+02  0.00000000000E+00 0.  1.
</event>
<event>
 8    1  0.6648599E-009  0.1249376E+03  0.7561462E-02  0.1235167E+00
         -4   -1    0    0    0  501 -0.00000000000E+00  0.00000000000E+00  0.10865539329E+04  0.10865539329E+04  0.00000000000E+00 0. -1.
          4   -1    0    0  501    0  0.00000000000E+00 -0.00000000000E+00 -0.21001498765E+02  0.21001498765E+02  0.00000000000E+00 0.  1.
         25    2    1    2    0    0  0.82588812221E+02  0.79798987327E+02  0.54468266873E+03  0.57053996957E+03  0.12509139447E+03 0.  0.
         23    2    1    2    0    0 -0.82588812221E+02 -0.79798987327E+02  0.52086976540E+03  0.53701546210E+03  0.62381918398E+02 0.  0.
          5    1    3    3  502    0  0.89019067238E+01  0.27515669577E+02  0.39192963341E+03  0.39301738633E+03  0.41800000000E+01 0. -1.
         -5    1    3    3    0  502  0.73686905497E+02  0.52283317750E+02  0.15275303532E+03  0.17752258323E+03  0.41800000000E+01 0. -1.
        -11    1    4    4    0    0 -0.42207102572E+02 -0.79288141327E+02  0.37996481733E+03  0.39043733335E+03  0.00000000000E+00 0. -1.
         11    1    4    4    0    0 -0.40381709649E+02 -0.51084600045E+00  0.14090494807E+03  0.14657812875E+03  0.00000000000E+00 0.  1.
</event>
<event>
 8    1  0.6648599E-009  0.1434425E+03  0.7561462E-02  0.1208770E+00
         -1   -1    0    0    0  501 -0.00000000000E+00  0.00000000000E+00  0.32360553214E+02  0.32360553214E+02  0.00000000000E+00 0.  1.
          1   -1    0    0  501    0  0.00000000000E+00 -0.00000000000E+00 -0.90276350649E+03  0.90276350649E+03  0.00000000000E+00 0. -1.
         25    2    1    2    0    0  0.12689214573E+03  0.12437953732E+02 -0.54625307134E+03  0.57471396539E+03  0.12508958679E+03 0.  0.
         23    2    1    2    0    0 -0.12689214573E+03 -0.12437953732E+02 -0.32414988194E+03  0.36041009432E+03  0.92552529870E+02 0.  0.
          5    1    3    3  502    0  0.99571277453E+02  0.17662676247E+02 -0.17321819025E+03  0.20062009685E+03  0.41800000000E+01 0. -1.
         -5    1    3    3    0  502  0.27320868275E+02 -0.52247225148E+01 -0.37303488109E+03  0.37409386854E+03  0.41800000000E+01 0. -1.
        -11    1    4    4    0    0 -0.24039372001E+02  0.36450719812E+02 -0.88405036587E+02  0.98600186992E+02  0.00000000000E+00 0.  1.
         11    1    4    4    0    0 -0.10285277373E+03 -0.48888673544E+02 -0.23574484535E+03  0.26180990732E+03  0.00000000000E+00 0. -1.
</event>
<event>
 8    1  0.6648599E-009  0.1064174E+03  0.7561462E-02  0.1267352E+00
          3   -1    0    0  501    0  0.00000000000E+00  0.00000000000E+00  0.17755021048E+03  0.17755021048E+03  0.00000000000E+00 0. -1.
         -3   -1    0    0    0  501 -0.00000000000E+00 -0.00000000000E+00 -0.80516303065E+02  0.80516303065E+02  0.00000000000E+00 0.  1.
         25    2    1    2    0    0  0.99996415396E+01 -0.29710463984E+02  0.11236469592E+02  0.12944141996E+03  0.12508444528E+03 0.  0.
         23    2    1    2    0    0 -0.99996415396E+01  0.29710463984E+02  0.85797437822E+02  0.12862509359E+03  0.90556666582E+02 0.  0.
          5    1    3    3  502    0  0.65188028992E+02 -0.11128499304E+02  0.22506671299E+02  0.69981035099E+02  0.41800000000E+01 0. -1.
         -5    1    3    3    0  502 -0.55188387452E+02 -0.18581964680E+02 -0.11270201706E+02  0.59460384858E+02  0.41800000000E+01 0. -1.
        -11    1    4    4    0    0  0.27129035703E+02 -0.14252772658E+02  0.55969329316E+02  0.63809810615E+02  0.00000000000E+00 0.  1.
         11    1    4    4    0    0 -0.37128677242E+02  0.43963236641E+02  0.29828108506E+02  0.64815282972E+02  0.00000000000E+00 0. -1.
</event>
<event>
 8    1  0.6648599E-009  0.9872919E+02  0.7561462E-02  0.1282991E+00
          2   -1    0    0  501    0  0.00000000000E+00  0.00000000000E+00  0.68380672362E+03  0.68380672362E+03  0.00000000000E+00 0.  1.
         -2   -1    0    0    0  501 -0.00000000000E+00 -0.00000000000E+00 -0.18151550878E+02  0.18151550878E+02  0.00000000000E+00 0. -1.
         25    2    1    2    0    0 -0.21810026673E+02  0.13306279476E+02  0.39616511718E+03  0.41623590509E+03  0.12511112772E+03 0.  0.
         23    2    1    2    0    0  0.21810026673E+02 -0.13306279476E+02  0.26949005556E+03  0.28572236940E+03  0.91431110651E+02 0.  0.
          5    1    3    3  502    0 -0.52498730009E+02  0.51354220795E+02  0.17756771981E+03  0.19220078086E+03  0.41800000000E+01 0.  1.
         -5    1    3    3    0  502  0.30688703336E+02 -0.38047941319E+02  0.21859739737E+03  0.22403512423E+03  0.41800000000E+01 0.  1.
        -11    1    4    4    0    0 -0.53775873431E+01 -0.37839274139E+02  0.22441661155E+03  0.22764785229E+03  0.00000000000E+00 0.  1.
         11    1    4    4    0    0  0.27187614017E+02  0.24532994663E+02  0.45073444013E+02  0.58074517116E+02  0.00000000000E+00 0. -1.
</event>
<event>
 8    1  0.6648599E-009  0.1144536E+03  0.7561462E-02  0.1252538E+00
         -1   -1    0    0    0  501 -0.00000000000E+00  0.00000000000E+00  0.42797822343E+02  0.42797822343E+02  0.00000000000E+00 0.  1.
          1   -1    0    0  501    0  0.00000000000E+00 -0.00000000000E+00 -0.32143995855E+03  0.32143995855E+03  0.00000000000E+00 0. -1.
         25    2    1    2    0    0 -0.92937450544E+01  0.41518313729E+02 -0.12453986496E+03  0.18156877972E+03  0.12508756826E+03 0.  0.
         23    2    1    2    0    0  0.92937450544E+01 -0.41518313729E+02 -0.15410227125E+03  0.18266900117E+03  0.88375957771E+02 0.  0.
          5    1    3    3  502    0  0.56905306632E+02  0.11407609944E+02 -0.66994865706E+02  0.88736305527E+02  0.41800000000E+01 0. -1.
         -5    1    3    3    0  502 -0.66199051686E+02  0.30110703785E+02 -0.57544999249E+02  0.92832474195E+02  0.41800000000E+01 0. -1.
        -11    1    4    4    0    0 -0.27713560285E+02 -0.52419439394E+02 -0.99127145204E+02  0.11550770523E+03  0.00000000000E+00 0.  1.
         11    1    4    4    0    0  0.37007305339E+02  0.10901125665E+02 -0.54975126046E+02  0.67161295945E+02  0.00000000000E+00 0. -1.
</event>
<event>
 8    1  0.6648599E-009  0.1174467E+03  0.7561462E-02  0.1247370E+00
         -2   -1    0    0    0  501 -0.00000000000E+00  0.00000000000E+00  0.10581114223E+04  0.10581114223E+04  0.00000000000E+00 0.  1.
          2   -1    0    0  501    0  0.00000000000E+00 -0.00000000000E+00 -0.23288944805E+02  0.23288944805E+02  0.00000000000E+00 0. -1.
         25    2    1    2    0    0  0.35887459034E+02 -0.40848204491E+02  0.89937391033E+03  0.90965786690E+03  0.12509004242E+03 0.  0.
         23    2    1    2    0    0 -0.35887459034E+02  0.40848204491E+02  0.13544856719E+03  0.17174250023E+03  0.90513460348E+02 0.  0.
          5    1    3    3  502    0  0.12193533356E+02 -0.83324470157E+02  0.65941661076E+03  0.66478521985E+03  0.41800000000E+01 0. -1.
         -5    1    3    3    0  502  0.23693925678E+02  0.42476265667E+02  0.23995729957E+03  0.24487264706E+03  0.41800000000E+01 0. -1.
        -11    1    4    4    0    0 -0.30233576055E+02 -0.22796853952E+02  0.29426499237E+02  0.47955026102E+02  0.00000000000E+00 0.  1.
         11    1    4    4    0    0 -0.56538829790E+01  0.63645058443E+02  0.10602206795E+03  0.12378747412E+03  0.00000000000E+00 0. -1.
</event>
<event>
 8    1  0.6648599E-009  0.2835183E+03  0.7561462E-02  0.1093783E+00
         -2   -1    0    0    0  501 -0.00000000000E+00  0.00000000000E+00  0.49905369312E+02  0.49905369312E+02  0.00000000000E+00 0.  1.
          2   -1    0    0  501    0  0.00000000000E+00 -0.00000000000E+00 -0.17727601493E+04  0.17727601493E+04  0.00000000000E+00 0. -1.
         25    2    1    2    0    0 -0.26236254388E+03 -0.14512622330E+02 -0.61124551249E+03  0.67698632179E+03  0.12507870605E+03 0.  0.
         23    2    1    2    0    0  0.26236254388E+03  0.14512622330E+02 -0.11116092675E+04  0.11456791969E+04  0.88661929962E+02 0.  0.
          5    1    3    3  502    0 -0.12269149878E+03  0.53973688882E+02 -0.31495802394E+03  0.34231913795E+03  0.41800000000E+01 0.  1.
         -5    1    3    3    0  502 -0.13967104509E+03 -0.68486311213E+02 -0.29628748855E+03  0.33466718383E+03  0.41800000000E+01 0.  1.
        -11    1    4    4    0    0  0.12484353008E+03 -0.37403129769E+02 -0.52155955233E+03  0.53759582192E+03  0.00000000000E+00 0. -1.
         11    1    4    4    0    0  0.13751901380E+03  0.51915752099E+02 -0.59004971522E+03  0.60808337496E+03  0.00000000000E+00 0.  1.
</event>
<event>
 8    1  0.6648599E-009  0.5515875E+02  0.7561462E-02  0.1419350E+00
          1   -1    0    0  501    0  0.00000000000E+00  0.00000000000E+00  0.54097947128E+03  0.54097947128E+03  0.00000000000E+00 0. -1.
         -1   -1    0    0    0  501 -0.00000000000E+00 -0.00000000000E+00 -0.23650037899E+02  0.23650037899E+02  0.00000000000E+00 0.  1.
         25    2    1    2    0    0  0.12822277829E+02  0.36949282070E+02  0.37336547391E+03  0.39570472331E+03  0.12510312021E+03 0.  0.
         23    2    1    2    0    0 -0.12822277829E+02 -0.36949282070E+02  0.14396395947E+03  0.16892478587E+03  0.79248352670E+02 0.  0.
          5    1    3    3  502    0  0.35407420532E+01  0.35740136855E+02  0.18361124629E+02  0.40552404791E+02  0.41800000000E+01 0.  1.
         -5    1    3    3    0  502  0.92815357757E+01  0.12091452147E+01  0.35500434928E+03  0.35515231852E+03  0.41800000000E+01 0.  1.
        -11    1    4    4    0    0  0.49613761235E+00  0.12595562310E+02 -0.32581684471E+01  0.13019600764E+02  0.00000000000E+00 0.  1.
         11    1    4    4    0    0 -0.13318415441E+02 -0.49544844380E+02  0.14722212792E+03  0.15590518511E+03  0.00000000000E+00 0. -1.
</event>
<event>
 7    1  0.6648599E-009  0.9221125E+02  0.7561462E-02  0.1297583E+00
         -2   -1    0    0    0  501 -0.00000000000E+00  0.00000000000E+00  0.89953780393E+02  0.89953780393E+02  0.00000000000E+00 0.  1.
          2   -1    0    0  501    0  0.00000000000E+00 -0.00000000000E+00 -0.19051357442E+03  0.19051357442E+03  0.00000000000E+00 0. -1.
         23    2    1    2    0    0  0.90244486129E+01 -0.97534893260E+01  0.30720396755E+02  0.98577064951E+02  0.92720675854E+02 0.  0.
          5    1    1    2  502    0  0.29956591068E+02  0.33329161801E+02 -0.12839175457E+03  0.13605199527E+03  0.41800000000E+01 0.  1.
         -5    1    1    2    0  502 -0.38981039681E+02 -0.23575672475E+02 -0.28884362098E+01  0.45838294591E+02  0.41800000000E+01 0.  1.
        -11    1    3    3    0    0  0.38090755685E+02 -0.37522665586E+02  0.17374929057E+02  0.56220496806E+02  0.00000000000E+00 0.  1.
         11    1    3    3    0    0 -0.29066307072E+02  0.27769176260E+02  0.13345467698E+02  0.42356568146E+02  0.00000000000E+00 0. -1.
</event>
<event>
 8    1  0.6648599E-009  0.1409874E+03  0.7561462E-02  0.1212006E+00
          2   -1    0    0  501    0  0.00000000000E+00  0.00000000000E+00  0.27902222461E+02  0.27902222461E+02  0.00000000000E+00 0. -1.
         -2   -1    0    0    0  501 -0.00000000000E+00 -0.00000000000E+00 -0.78739354494E+03  0.78739354494E+03  0.00000000000E+00 0.  1.
         25    2    1    2    0    0  0.96991966850E+02 -0.14995569813E+02 -0.38032441904E+03  0.41222467970E+03  0.12510081569E+03 0.  0.
         23    2    1    2    0    0 -0.96991966850E+02  0.14995569813E+02 -0.37916690344E+03  0.40307108770E+03  0.95217920213E+02 0.  0.
          5    1    3    3  502    0  0.25630247653E+02  0.48812516937E+02 -0.20611710821E+03  0.21340409111E+03  0.41800000000E+01 0. -1.
         -5    1    3    3    0  502  0.71361719197E+02 -0.63808086750E+02 -0.17420731083E+03  0.19882058859E+03  0.41800000000E+01 0. -1.
        -11    1    4    4    0    0 -0.10874301285E+03  0.29038593641E+02 -0.35698286093E+03  0.37430608566E+03  0.00000000000E+00 0.  1.
         11    1    4    4    0    0  0.11751046001E+02 -0.14043023828E+02 -0.22184042505E+02  0.28765002038E+02  0.00000000000E+00 0. -1.
</event>
<event>
 8    1  0.6648599E-009  0.1620690E+03  0.7561462E-02  0.1186381E+00
         -1   -1    0    0    0  501 -0.00000000000E+00  0.00000000000E+00  0.28027229376E+02  0.28027229376E+02  0.00000000000E+00 0.  1.
          1   -1    0    0  501    0  0.00000000000E+00 -0.00000000000E+00 -0.93931321533E+03  0.93931321533E+03  0.00000000000E+00 0. -1.
         25    2    1    2    0    0  0.71073518357E+02 -0.96336757138E+02 -0.46636297575E+03  0.49746771772E+03  0.12508992461E+03 0.  0.
         23    2    1    2    0    0 -0.71073518357E+02  0.96336757138E+02 -0.44492301020E+03  0.46987272698E+03  0.92150305295E+02 0.  0.
          5    1    3    3  502    0  0.10579077685E+03 -0.86720348709E+02 -0.37201814205E+03  0.39639258036E+03  0.41800000000E+01 0. -1.
         -5    1    3    3    0  502 -0.34717258490E+02 -0.96164084289E+01 -0.94344833699E+02  0.10107513737E+03  0.41800000000E+01 0. -1.
        -11    1    4    4    0    0 -0.93348165045E+02  0.83860846470E+02 -0.37455670841E+03  0.39501803668E+03  0.00000000000E+00 0. -1.
         11    1    4    4    0    0  0.22274646689E+02  0.12475910669E+02 -0.70366301785E+02  0.74854690294E+02  0.00000000000E+00 0.  1.
</event>
<event>
 8    1  0.6648599E-009  0.8401639E+02  0.7561462E-02  0.1318025E+00
          1   -1    0    0  501    0  0.00000000000E+00  0.00000000000E+00  0.10125785582E+03  0.10125785582E+03  0.00000000000E+00 0. -1.
         -1   -1    0    0    0  501 -0.00000000000E+00 -0.00000000000E+00 -0.18790644491E+03  0.18790644491E+03  0.00000000000E+00 0.  1.
         25    2    1    2    0    0 -0.53954441371E+02  0.27530008974E+02 -0.11094851884E+03  0.17783707621E+03  0.12508984254E+03 0.  0.
         23    2    1    2    0    0  0.53954441371E+02 -0.27530008974E+02  0.24299929748E+02  0.11132722451E+03  0.90190249997E+02 0.  0.
          5    1    3    3  502    0 -0.42429146318E+02  0.16380326822E+02 -0.13841659747E+03  0.14575724483E+03  0.41800000000E+01 0. -1.
         -5    1    3    3    0  502 -0.11525295053E+02  0.11149682153E+02  0.27468078632E+02  0.32079831388E+02  0.41800000000E+01 0. -1.
        -11    1    4    4    0    0  0.59888805088E+02  0.15892820175E+02  0.16263552145E+01  0.61983027832E+02  0.00000000000E+00 0.  1.
         11    1    4    4    0    0 -0.59343637167E+01 -0.43422829150E+02  0.22673574534E+02  0.49344196682E+02  0.00000000000E+00 0. -1.
</event>
<event>
 8    1  0.6648599E-009  0.2311736E+03  0.7561462E-02  0.1125816E+00
         -1   -1    0    0    0  501 -0.00000000000E+00  0.00000000000E+00  0.25812205573E+02  0.25812205573E+02  0.00000000000E+00 0.  1.
          1   -1    0    0  501    0  0.00000000000E+00 -0.00000000000E+00 -0.22947577366E+04  0.22947577366E+04  0.00000000000E+00 0. -1.
         25    2    1    2    0    0 -0.21132671853E+03 -0.23340787022E+02 -0.93883642471E+03  0.97070018657E+03  0.12506496534E+03 0.  0.
         23    2    1    2    0    0  0.21132671853E+03  0.23340787022E+02 -0.13301091063E+04  0.13498697556E+04  0.88058776166E+02 0.  0.
          5    1    3    3  502    0 -0.59661594943E+02 -0.50842003774E+02 -0.18024897839E+03  0.19660005562E+03  0.41800000000E+01 0.  1.
         -5    1    3    3    0  502 -0.15166512358E+03  0.27501216752E+02 -0.75858744632E+03  0.77410013095E+03  0.41800000000E+01 0.  1.
        -11    1    4    4    0    0  0.18476336248E+02 -0.24761982578E+02 -0.15138217449E+03  0.15450272986E+03  0.00000000000E+00 0.  1.
         11    1    4    4    0    0  0.19285038228E+03  0.48102769600E+02 -0.11787269318E+04  0.11953670257E+04  0.00000000000E+00 0. -1.
</event>
<event>
 8    1  0.6648599E-009  0.2345878E+03  0.7561462E-02  0.1123452E+00
          1   -1    0    0  501    0  0.00000000000E+00  0.00000000000E+00  0.12873581521E+04  0.12873581521E+04  0.00000000000E+00 0. -1.
         -1   -1    0    0    0  501 -0.00000000000E+00 -0.00000000000E+00 -0.50294529400E+02  0.50294529400E+02  0.00000000000E+00 0.  1.
         25    2    1    2    0    0  0.14819121553E+03  0.17157060562E+03  0.72697875026E+03  0.77171504303E+03  0.12509554447E+03 0.  0.
         23    2    1    2    0    0 -0.14819121553E+03 -0.17157060562E+03  0.51008487245E+03  0.56593763848E+03  0.93283034208E+02 0.  0.
          5    1    3    3  502    0  0.11742930546E+00  0.12998477970E+02  0.21776423926E+03  0.21819191213E+03  0.41800000000E+01 0. -1.
         -5    1    3    3    0  502  0.14807378622E+03  0.15857212765E+03  0.50921451100E+03  0.55352313090E+03  0.41800000000E+01 0. -1.
        -11    1    4    4    0    0 -0.89895934186E+02 -0.48038824851E+02  0.28464777076E+03  0.30234642560E+03  0.00000000000E+00 0.  1.
         11    1    4    4    0    0 -0.58295281340E+02 -0.12353178077E+03  0.22543710169E+03  0.26359121288E+03  0.00000000000E+00 0. -1.
</event>
<event>
 8    1  0.6648599E-009  0.1115694E+03  0.7561462E-02  0.1257691E+00
         -1   -1    0    0    0  501 -0.00000000000E+00  0.00000000000E+00  0.12280824008E+03  0.12280824008E+03  0.00000000000E+00 0.  1.
          1   -1    0    0  501    0  0.00000000000E+00 -0.00000000000E+00 -0.23245412251E+03  0.23245412251E+03  0.00000000000E+00 0. -1.
         25    2    1    2    0    0 -0.17187201604E+02  0.27436927634E+02  0.72672338256E+02  0.14824666609E+03  0.12509044873E+03 0.  0.
         23    2    1    2    0    0  0.17187201604E+02 -0.27436927634E+02 -0.18231822068E+03  0.20701569650E+03  0.92560143197E+02 0.  0.
          5    1    3    3  502    0  0.26630734739E+02 -0.40256626935E+02  0.26064806610E+02  0.55014894243E+02  0.41800000000E+01 0. -1.
         -5    1    3    3    0  502 -0.43817936343E+02  0.67693554570E+02  0.46607531646E+02  0.93231771847E+02  0.41800000000E+01 0. -1.
        -11    1    4    4    0    0  0.19321951229E+02 -0.59115912980E+02 -0.90068792107E+02  0.10945508795E+03  0.00000000000E+00 0.  1.
         11    1    4    4    0    0 -0.21347496247E+01  0.31678985346E+02 -0.92249428576E+02  0.97560608553E+02  0.00000000000E+00 0. -1.
</event>
<event>
 8    1  0.6648599E-009  0.1557196E+03  0.7561462E-02  0.1193616E+00
         -2   -1    0    0    0  501 -0.00000000000E+00  0.00000000000E+00  0.20215767600E+02  0.20215767600E+02  0.00000000000E+00 0.  1.
          2   -1    0    0  501    0  0.00000000000E+00 -0.00000000000E+00 -0.17841695281E+04  0.17841695281E+04  0.00000000000E+00 0. -1.
         25    2    1    2    0    0  0.12764105415E+03 -0.81911275959E+01 -0.13586767852E+04  0.13704058192E+04  0.12510063636E+03 0.  0.
         23    2    1    2    0    0 -0.12764105415E+03  0.81911275959E+01 -0.40527697525E+03  0.43397947651E+03  0.87917154673E+02 0.  0.
          5    1    3    3  502    0  0.14202784616E+03 -0.19101771559E+01 -0.87560492170E+03  0.88706088245E+03  0.41800000000E+01 0.  1.
         -5    1    3    3    0  502 -0.14386792005E+02 -0.62809504400E+01 -0.48307186354E+03  0.48334493674E+03  0.41800000000E+01 0.  1.
        -11    1    4    4    0    0 -0.32239576489E+02 -0.35678851977E+02 -0.96135995427E+02  0.10749186196E+03  0.00000000000E+00 0.  1.
         11    1    4    4    0    0 -0.95401477665E+02  0.43869979573E+02 -0.30914097982E+03  0.32648761455E+03  0.00000000000E+00 0. -1.
</event>
<event>
 8    1  0.6648599E-009  0.1307043E+03  0.7561462E-02  0.1226414E+00
          2   -1    0    0  501    0  0.00000000000E+00  0.00000000000E+00  0.10880228456E+03  0.10880228456E+03  0.00000000000E+00 0. -1.
         -2   -1    0    0    0  501 -0.00000000000E+00 -0.00000000000E+00 -0.22038134840E+03  0.22038134840E+03  0.00000000000E+00 0.  1.
         25    2    1    2    0    0  0.89654635855E+02  0.64470587537E+02 -0.52793897837E+02  0.17500817453E+03  0.12508499157E+03 0.  0.
         23    2    1    2    0    0 -0.89654635855E+02 -0.64470587537E+02 -0.58785166003E+02  0.15417545843E+03  0.90110853140E+02 0.  0.
          5    1    3    3  502    0  0.25650612797E+02 -0.25547738110E+01 -0.75170234917E+02  0.79577116206E+02  0.41800000000E+01 0.  1.
         -5    1    3    3    0  502  0.64004023058E+02  0.67025361348E+02  0.22376337081E+02  0.95431058323E+02  0.41800000000E+01 0.  1.
        -11    1    4    4    0    0 -0.17647624103E+02 -0.68174371715E+02 -0.28411039017E+02  0.75936623136E+02  0.00000000000E+00 0. -1.
         11    1    4    4    0    0 -0.72007011752E+02  0.37037841776E+01 -0.30374126986E+02  0.78238835299E+02  0.00000000000E+00 0.  1.
</event>
<event>
 8    1  0.6648599E-009  0.1779953E+03  0.7561462E-02  0.1169757E+00
         -1   -1    0    0    0  501 -0.00000000000E+00  0.00000000000E+00  0.62064910982E+02  0.62064910982E+02  0.00000000000E+00 0.  1.
          1   -1    0    0  501    0  0.00000000000E+00 -0.00000000000E+00 -0.73607763612E+03  0.73607763612E+03  0.00000000000E+00 0. -1.
         25    2    1    2    0    0  0.30449545917E+02  0.16335056583E+03 -0.20682585963E+03  0.29331662466E+03  0.12508846424E+03 0.  0.
         23    2    1    2    0    0 -0.30449545917E+02 -0.16335056583E+03 -0.46718686551E+03  0.50482592244E+03  0.94736806263E+02 0.  0.
          5    1    3    3  502    0 -0.12400177496E+02  0.34052824793E+02  0.94517349942E+01  0.37685102795E+02  0.41800000000E+01 0.  1.
         -5    1    3    3    0  502  0.42849723413E+02  0.12929774104E+03 -0.21627759463E+03  0.25563152187E+03  0.41800000000E+01 0.  1.
        -11    1    4    4    0    0 -0.10919825742E+02 -0.16333847268E+03 -0.35467437962E+03  0.39063104691E+03  0.00000000000E+00 0.  1.
         11    1    4    4    0    0 -0.19529720175E+02 -0.12093150253E-01 -0.11251248590E+03  0.11419487554E+03  0.00000000000E+00 0. -1.
</event>
<event>
 8    1  0.6648599E-009  0.1063553E+03  0.7561462E-02  0.1267472E+00
         -2   -1    0    0    0  501 -0.00000000000E+00  0.00000000000E+00  0.13324407341E+02  0.13324407341E+02  0.00000000000E+00 0.  1.
          2   -1    0    0  501    0  0.00000000000E+00 -0.00000000000E+00 -0.94166151757E+03  0.94166151757E+03  0.00000000000E+00 0. -1.
         25    2    1    2    0    0 -0.19668711708E+01  0.36982537057E+01 -0.62574175084E+03  0.63813652331E+03  0.12509171826E+03 0.  0.
         23    2    1    2    0    0  0.19668711708E+01 -0.36982537057E+01 -0.30259535940E+03  0.31684940161E+03  0.93872499205E+02 0.  0.
          5    1    3    3  502    0  0.60837988786E+02  0.61454873044E+01 -0.34641808038E+03  0.35179821874E+03  0.41800000000E+01 0.  1.
         -5    1    3    3    0  502 -0.62804859957E+02 -0.24472335987E+01 -0.27932367046E+03  0.28633830457E+03  0.41800000000E+01 0.  1.
        -11    1    4    4    0    0  0.39427926144E+02  0.19889335793E+02 -0.97555303509E+02  0.10708493956E+03  0.00000000000E+00 0. -1.
         11    1    4    4    0    0 -0.37461054973E+02 -0.23587589499E+02 -0.20504005589E+03  0.20976446204E+03  0.00000000000E+00 0.  1.
</event>
<event>
 7    1  0.6648599E-009  0.2397541E+03  0.7561462E-02  0.1119957E+00
          1   -1    0    0  501    0  0.00000000000E+00  0.00000000000E+00  0.28280183442E+03  0.28280183442E+03  0.00000000000E+00 0. -1.
         -1   -1    0    0    0  501 -0.00000000000E+00 -0.00000000000E+00 -0.28852312513E+03  0.28852312513E+03  0.00000000000E+00 0.  1.
         25    2    1    2    0    0 -0.20537832163E+03 -0.12560427117E+02  0.13807553190E+03  0.27757980792E+03  0.12509067883E+03 0.  0.
          5    1    3    3  502    0 -0.11229345807E+03  0.41095146362E+02  0.11828988783E+03  0.16825160250E+03  0.41800000000E+01 0.  1.
         -5    1    3    3    0  502 -0.93084863561E+02 -0.53655573478E+02  0.19785644062E+02  0.10932820542E+03  0.41800000000E+01 0.  1.
        -11    1    1    2    0    0 -0.47169206784E+01  0.40159064668E+02 -0.57430493496E+01  0.40840940630E+02  0.00000000000E+00 0. -1.
         11    1    1    2    0    0  0.21009524231E+03 -0.27598637552E+02 -0.13805377325E+03  0.25290421101E+03  0.00000000000E+00 0.  1.
</event>
<event>
 8    1  0.6648599E-009  0.9405660E+02  0.7561462E-02  0.1293315E+00
          1   -1    0    0  501    0  0.00000000000E+00  0.00000000000E+00  0.30724072810E+03  0.30724072810E+03  0.00000000000E+00 0. -1.
         -1   -1    0    0    0  501 -0.00000000000E+00 -0.00000000000E+00 -0.53012690886E+02  0.53012690886E+02  0.00000000000E+00 0.  1.
         25    2    1    2    0    0  0.87261250574E+01  0.44538439418E+02  0.21460228297E+03  0.25251097868E+03  0.12509131326E+03 0.  0.
         23    2    1    2    0    0 -0.87261250574E+01 -0.44538439418E+02  0.39625754246E+02  0.10774244031E+03  0.89321974898E+02 0.  0.
          5    1    3    3  502    0  0.45519288305E+00  0.83619814805E+02  0.96461747267E+02  0.12772948647E+03  0.41800000000E+01 0.  1.
         -5    1    3    3    0  502  0.82709321743E+01 -0.39081375388E+02  0.11814053570E+03  0.12478149220E+03  0.41800000000E+01 0.  1.
        -11    1    4    4    0    0  0.17183625647E+02 -0.29840114350E+02  0.61705537020E+02  0.70663163768E+02  0.00000000000E+00 0. -1.
         11    1    4    4    0    0 -0.25909750704E+02 -0.14698325068E+02 -0.22079782774E+02  0.37079276540E+02  0.00000000000E+00 0.  1.
</event>
<event>
 8    1  0.6648599E-009  0.1530883E+03  0.7561462E-02  0.1196729E+00
          3   -1    0    0  501    0  0.00000000000E+00  0.00000000000E+00  0.76409560157E+03  0.76409560157E+03  0.00000000000E+00 0. -1.
         -3   -1    0    0    0  501 -0.00000000000E+00 -0.00000000000E+00 -0.30867113174E+02  0.30867113174E+02  0.00000000000E+00 0.  1.
         25    2    1    2    0    0  0.71736614218E+02  0.79519335425E+02  0.41489779477E+03  0.44638251938E+03  0.12509079492E+03 0.  0.
         23    2    1    2    0    0 -0.71736614218E+02 -0.79519335425E+02  0.31833069363E+03  0.34858019537E+03  0.93296600012E+02 0.  0.
          5    1    3    3  502    0  0.71108984832E+02  0.11142679310E+03  0.34283720037E+03  0.36746052346E+03  0.41800000000E+01 0.  1.
         -5    1    3    3    0  502  0.62762938568E+00 -0.31907457674E+02  0.72060594397E+02  0.78921995912E+02  0.41800000000E+01 0.  1.
        -11    1    4    4    0    0  0.17969168432E+02 -0.39734504813E+02  0.87857287929E+02  0.98084784392E+02  0.00000000000E+00 0.  1.
         11    1    4    4    0    0 -0.89705782650E+02 -0.39784830612E+02  0.23047340570E+03  0.25049541098E+03  0.00000000000E+00 0. -1.
</event>
<event>
 8    1  0.6648599E-009  0.1393918E+03  0.7561462E-02  0.1214150E+00
         -1   -1    0    0    0  501 -0.00000000000E+00  0.00000000000E+00  0.36049200325E+02  0.36049200325E+02  0.00000000000E+00 0.  1.
          1   -1    0    0  501    0  0.00000000000E+00 -0.00000000000E+00 -0.70080177115E+03  0.70080177115E+03  0.00000000000E+00 0. -1.
         25    2    1    2    0    0  0.80873226374E+02  0.51655386869E+02 -0.20687392371E+03  0.26010048176E+03  0.12508670019E+03 0.  0.
         23    2    1    2    0    0 -0.80873226374E+02 -0.51655386869E+02 -0.45787864711E+03  0.47675048971E+03  0.91811852306E+02 0.  0.
          5    1    3    3  502    0 -0.23852879078E+02 -0.89149740889E+01 -0.82919080634E+02  0.86841711962E+02  0.41800000000E+01 0.  1.
         -5    1    3    3    0  502  0.10472610545E+03  0.60570360958E+02 -0.12395484308E+03  0.17325876980E+03  0.41800000000E+01 0.  1.
        -11    1    4    4    0    0 -0.99883741286E+02 -0.32752656570E+02 -0.34086138159E+03  0.35670152753E+03  0.00000000000E+00 0.  1.
         11    1    4    4    0    0  0.19010514912E+02 -0.18902730299E+02 -0.11701726553E+03  0.12004896218E+03  0.00000000000E+00 0. -1.
</event>
<event>
 8    1  0.6648599E-009  0.6299592E+02  0.7561462E-02  0.1385673E+00
          2   -1    0    0  501    0  0.00000000000E+00  0.00000000000E+00  0.32827679276E+03  0.32827679276E+03  0.00000000000E+00 0.  1.
         -2   -1    0    0    0  501 -0.00000000000E+00 -0.00000000000E+00 -0.38717361189E+02  0.38717361189E+02  0.00000000000E+00 0. -1.
         25    2    1    2    0    0  0.37697149842E+02  0.12624226545E+02  0.18849692912E+03  0.22969349990E+03  0.12509022906E+03 0.  0.
         23    2    1    2    0    0 -0.37697149842E+02 -0.12624226545E+02  0.10106250245E+03  0.13730065405E+03  0.84008297199E+02 0.  0.
          5    1    3    3  502    0 -0.10046443304E+02 -0.29208895200E+01 -0.15727027134E+02  0.19346172777E+02  0.41800000000E+01 0. -1.
         -5    1    3    3    0  502  0.47743593145E+02  0.15545116065E+02  0.20422395626E+03  0.21034732713E+03  0.41800000000E+01 0. -1.
        -11    1    4    4    0    0 -0.29432656431E+02 -0.31878505822E+02  0.10900988244E+02  0.44736472175E+02  0.00000000000E+00 0. -1.
         11    1    4    4    0    0 -0.82644934109E+01  0.19254279277E+02  0.90161514204E+02  0.92564181871E+02  0.00000000000E+00 0.  1.
</event>
<event>
 8    1  0.6648599E-009  0.9168597E+02  0.7561462E-02  0.1298819E+00
          1   -1    0    0  501    0  0.00000000000E+00  0.00000000000E+00  0.38851874465E+03  0.38851874465E+03  0.00000000000E+00 0. -1.
         -1   -1    0    0    0  501 -0.00000000000E+00 -0.00000000000E+00 -0.31861313220E+02  0.31861313220E+02  0.00000000000E+00 0.  1.
         25    2    1    2    0    0 -0.48903097491E+01 -0.15265362096E+01  0.23630152007E+03  0.26741757522E+03  0.12508999045E+03 0.  0.
         23    2    1    2    0    0  0.48903097491E+01  0.15265362096E+01  0.12035591136E+03  0.15296248265E+03  0.94264151483E+02 0.  0.
          5    1    3    3  502    0 -0.56774216196E+01 -0.54682330960E+02  0.18640570946E+03  0.19438866056E+03  0.41800000000E+01 0.  1.
         -5    1    3    3    0  502  0.78711187044E+00  0.53155794750E+02  0.49895810602E+02  0.73028914659E+02  0.41800000000E+01 0.  1.
        -11    1    4    4    0    0 -0.19800935690E+01  0.37871208973E+02  0.10719020968E+03  0.11370088078E+03  0.00000000000E+00 0. -1.
         11    1    4    4    0    0  0.68704033181E+01 -0.36344672763E+02  0.13165701684E+02  0.39261601863E+02  0.00000000000E+00 0.  1.
</event>
<event>
 8    1  0.6648599E-009  0.2039834E+03  0.7561462E-02  0.1146421E+00
          3   -1    0    0  501    0  0.00000000000E+00  0.00000000000E+00  0.12252090015E+03  0.12252090015E+03  0.00000000000E+00 0. -1.
         -3   -1    0    0    0  501 -0.00000000000E+00 -0.00000000000E+00 -0.37613931587E+03  0.37613931587E+03  0.00000000000E+00 0.  1.
         25    2    1    2    0    0 -0.77523159499E+02  0.16776123708E+03 -0.16031271533E+03  0.27477588650E+03  0.12509175902E+03 0.  0.
         23    2    1    2    0    0  0.77523159499E+02 -0.16776123708E+03 -0.93305700387E+02  0.22388432953E+03  0.85232425500E+02 0.  0.
          5    1    3    3  502    0  0.32352529946E+02  0.17671810499E+02 -0.27394902326E+02  0.46118674674E+02  0.41800000000E+01 0. -1.
         -5    1    3    3    0  502 -0.10987568945E+03  0.15008942658E+03 -0.13291781301E+03  0.22865721182E+03  0.41800000000E+01 0. -1.
        -11    1    4    4    0    0  0.14951745344E+02 -0.31402674536E+02 -0.61299061775E+02  0.70478774332E+02  0.00000000000E+00 0.  1.
         11    1    4    4    0    0  0.62571414155E+02 -0.13635856255E+03 -0.32006638612E+02  0.15340555519E+03  0.00000000000E+00 0. -1.
</event>
<event>
 8    1  0.6648599E-009  0.8268148E+02  0.7561462E-02  0.1321610E+00
         -1   -1    0    0    0  501 -0.00000000000E+00  0.00000000000E+00  0.18993483195E+02  0.18993483195E+02  0.00000000000E+00 0.  1.
          1   -1    0    0  501    0  0.00000000000E+00 -0.00000000000E+00 -0.65594888111E+03  0.65594888111E+03  0.00000000000E+00 0. -1.
         25    2    1    2    0    0  0.15285987151E+02  0.13058655816E+02 -0.37322867581E+03  0.39414623686E+03  0.12508965461E+03 0.  0.
         23    2    1    2    0    0 -0.15285987151E+02 -0.13058655816E+02 -0.26372672210E+03  0.28079612744E+03  0.94289402060E+02 0.  0.
          5    1    3    3  502    0 -0.24849285592E+02  0.33166713321E+02 -0.39560177369E+02  0.57445608191E+02  0.41800000000E+01 0.  1.
         -5    1    3    3    0  502  0.40135272743E+02 -0.20108057505E+02 -0.33366849844E+03  0.33670062867E+03  0.41800000000E+01 0.  1.
        -11    1    4    4    0    0  0.36396507882E+01  0.30717732411E+02 -0.33156507992E+02  0.45345122831E+02  0.00000000000E+00 0.  1.
         11    1    4    4    0    0 -0.18925637939E+02 -0.43776388227E+02 -0.23057021411E+03  0.23545100461E+03  0.00000000000E+00 0. -1.
</event>
<event>
 8    1  0.6648599E-009  0.4036970E+03  0.7561462E-02  0.1042507E+00
          4   -1    0    0  501    0  0.00000000000E+00  0.00000000000E+00  0.51691042136E+03  0.51691042136E+03  0.00000000000E+00 0.  1.
         -4   -1    0    0    0  501 -0.00000000000E+00 -0.00000000000E+00 -0.43252994817E+03  0.43252994817E+03  0.00000000000E+00 0. -1.
         25    2    1    2    0    0  0.37122706221E+03 -0.13386281958E+03 -0.19489383437E+03  0.45755744417E+03  0.12508565810E+03 0.  0.
         23    2    1    2    0    0 -0.37122706221E+03  0.13386281958E+03  0.27927430756E+03  0.49188292536E+03  0.90696676982E+02 0.  0.
          5    1    3    3  502    0  0.13190420644E+03 -0.37730358257E+00 -0.22758413301E+02  0.13391893000E+03  0.41800000000E+01 0. -1.
         -5    1    3    3    0  502  0.23932285576E+03 -0.13348551599E+03 -0.17213542107E+03  0.32363851417E+03  0.41800000000E+01 0. -1.
        -11    1    4    4    0    0 -0.14741081975E+03  0.15641989651E+02  0.13519185049E+03  0.20062766025E+03  0.00000000000E+00 0.  1.
         11    1    4    4    0    0 -0.22381624246E+03  0.11822082992E+03  0.14408245707E+03  0.29125526511E+03  0.00000000000E+00 0. -1.
</event>
<event>
 8    1  0.6648599E-009  0.9360892E+02  0.7561462E-02  0.1294340E+00
          2   -1    0    0  501    0  0.00000000000E+00  0.00000000000E+00  0.15969527828E+03  0.15969527828E+03  0.00000000000E+00 0.  1.
         -2   -1    0    0    0  501 -0.00000000000E+00 -0.00000000000E+00 -0.96194058078E+02  0.96194058078E+02  0.00000000000E+00 0. -1.
         25    2    1    2    0    0 -0.16286587668E-01  0.56559123956E+01 -0.24696755421E+02  0.12762408030E+03  0.12508391796E+03 0.  0.
         23    2    1    2    0    0  0.16286587668E-01 -0.56559123956E+01  0.88197975622E+02  0.12826525606E+03  0.92957535455E+02 0.  0.
          5    1    3    3  502    0 -0.32615986632E+02 -0.33940257712E+02  0.27211456886E+02  0.54531453890E+02  0.41800000000E+01 0.  1.
         -5    1    3    3    0  502  0.32599700044E+02  0.39596170107E+02 -0.51908212307E+02  0.73092626407E+02  0.41800000000E+01 0.  1.
        -11    1    4    4    0    0  0.33734629820E+02 -0.31393880749E+02  0.65697595940E+02  0.80248209388E+02  0.00000000000E+00 0.  1.
         11    1    4    4    0    0 -0.33718343232E+02  0.25737968354E+02  0.22500379682E+02  0.48017046672E+02  0.00000000000E+00 0. -1.
</event>
<event>
 8    1  0.6648599E-009  0.1666006E+03  0.7561462E-02  0.1181440E+00
         -1   -1    0    0    0  501 -0.00000000000E+00  0.00000000000E+00  0.95190814492E+02  0.95190814492E+02  0.00000000000E+00 0.  1.
          1   -1    0    0  501    0  0.00000000000E+00 -0.00000000000E+00 -0.40694571780E+03  0.40694571780E+03  0.00000000000E+00 0. -1.
         25    2    1    2    0    0 -0.86326202537E+02  0.13535795026E+03 -0.12875186207E+03  0.24082364847E+03  0.12507997333E+03 0.  0.
         23    2    1    2    0    0  0.86326202537E+02 -0.13535795026E+03 -0.18300304124E+03  0.26131288383E+03  0.94975376858E+02 0.  0.
          5    1    3    3  502    0 -0.41191611239E+02  0.10069105091E+03 -0.10317993132E+02  0.10935890431E+03  0.41800000000E+01 0. -1.
         -5    1    3    3    0  502 -0.45134591298E+02  0.34666899348E+02 -0.11843386894E+03  0.13146474415E+03  0.41800000000E+01 0. -1.
        -11    1    4    4    0    0  0.42211035046E+02 -0.26581086649E+02 -0.78985377769E+01  0.50504579457E+02  0.00000000000E+00 0.  1.
         11    1    4    4    0    0  0.44115167491E+02 -0.10877686361E+03 -0.17510450346E+03  0.21080830437E+03  0.00000000000E+00 0. -1.
</event>
<event>
 8    1  0.6648599E-009  0.1034946E+03  0.7561462E-02  0.1273114E+00
          2   -1    0    0  501    0  0.00000000000E+00  0.00000000000E+00  0.63478496394E+03  0.63478496394E+03  0.00000000000E+00 0. -1.
         -2   -1    0    0    0  501 -0.00000000000E+00 -0.00000000000E+00 -0.30793652977E+02  0.30793652977E+02  0.00000000000E+00 0.  1.
         25    2    1    2    0    0  0.12626545337E+02  0.20725556545E+02  0.53342877404E+03  0.54843590647E+03  0.12508680262E+03 0.  0.
         23    2    1    2    0    0 -0.12626545337E+02 -0.20725556545E+02  0.70562536926E+02  0.11714271045E+03  0.90301520768E+02 0.  0.
          5    1    3    3  502    0  0.65847330463E+02 -0.16072119521E+01  0.21909531444E+03  0.22882019856E+03  0.41800000000E+01 0. -1.
         -5    1    3    3    0  502 -0.53220785126E+02  0.22332768497E+02  0.31433345960E+03  0.31961570791E+03  0.41800000000E+01 0. -1.
        -11    1    4    4    0    0  0.22501371713E+02 -0.37857042729E+02  0.63731934339E+02  0.77467585916E+02  0.00000000000E+00 0.  1.
         11    1    4    4    0    0 -0.35127917049E+02  0.17131486184E+02  0.68306025867E+01  0.39675124534E+02  0.00000000000E+00 0. -1.
</event>
<event>
 8    1  0.6648599E-009  0.3135725E+03  0.7561462E-02  0.1078646E+00
          2   -1    0    0  501    0  0.00000000000E+00  0.00000000000E+00  0.23287659504E+03  0.23287659504E+03  0.00000000000E+00 0. -1.
         -2   -1    0    0    0  501 -0.00000000000E+00 -0.00000000000E+00 -0.60914406283E+03  0.60914406283E+03  0.00000000000E+00 0.  1.
         25    2    1    2    0    0 -0.28464583674E+03 -0.82975948542E+02 -0.42009420942E+03  0.52918295624E+03  0.12508875238E+03 0.  0.
         23    2    1    2    0    0  0.28464583674E+03  0.82975948542E+02  0.43826741631E+02  0.31283770163E+03  0.89657034690E+02 0.  0.
          5    1    3    3  502    0 -0.17402996535E+03  0.87886724929E+01 -0.18983609905E+03  0.25771861886E+03  0.41800000000E+01 0.  1.
         -5    1    3    3    0  502 -0.11061587140E+03 -0.91764621035E+02 -0.23025811037E+03  0.27146433738E+03  0.41800000000E+01 0.  1.
        -11    1    4    4    0    0  0.11361011879E+03  0.78262829412E+02  0.29980208528E+02  0.14117769818E+03  0.00000000000E+00 0.  1.
         11    1    4    4    0    0  0.17103571795E+03  0.47131191300E+01  0.13846533103E+02  0.17166000346E+03  0.00000000000E+00 0. -1.
</event>
<event>
 8    1  0.6648599E-009  0.9215315E+02  0.7561462E-02  0.1297720E+00
         -1   -1    0    0    0  501 -0.00000000000E+00  0.00000000000E+00  0.11904234351E+03  0.11904234351E+03  0.00000000000E+00 0.  1.
          1   -1    0    0  501    0  0.00000000000E+00 -0.00000000000E+00 -0.10092039554E+03  0.10092039554E+03  0.00000000000E+00 0. -1.
         25    2    1    2    0    0 -0.49865589418E+01 -0.11326691640E+02  0.26795379864E+02  0.12853114489E+03  0.12509637529E+03 0.  0.
         23    2    1    2    0    0  0.49865589418E+01  0.11326691640E+02 -0.86734318862E+01  0.91431594162E+02  0.90173988914E+02 0.  0.
          5    1    3    3  502    0 -0.47380322768E+00 -0.51996703283E+02 -0.28633007058E+02  0.59508008999E+02  0.41800000000E+01 0.  1.
         -5    1    3    3    0  502 -0.45127557141E+01  0.40670011644E+02  0.55428386922E+02  0.69023135890E+02  0.41800000000E+01 0.  1.
        -11    1    4    4    0    0  0.17014626617E+02 -0.37256144894E+02 -0.31612683402E+01  0.41079331406E+02  0.00000000000E+00 0. -1.
         11    1    4    4    0    0 -0.12028067675E+02  0.48582836533E+02 -0.55121635460E+01  0.50352262755E+02  0.00000000000E+00 0.  1.
</event>
<event>
 8    1  0.6648599E-009  0.7755957E+02  0.7561462E-02  0.1336123E+00
         -2   -1    0    0    0  501 -0.00000000000E+00  0.00000000000E+00  0.13472364623E+03  0.13472364623E+03  0.00000000000E+00 0. -1.
          2   -1    0    0  501    0  0.00000000000E+00 -0.00000000000E+00 -0.99273975120E+02  0.99273975120E+02  0.00000000000E+00 0.  1.
         25    2    1    2    0    0 -0.10314802136E+02 -0.10095021325E+02 -0.13467187264E+02  0.12664176671E+03  0.12509383416E+03 0.  0.
         23    2    1    2    0    0  0.10314802136E+02  0.10095021325E+02  0.48916858369E+02  0.10735585463E+03  0.94467538831E+02 0.  0.
          5    1    3    3  502    0  0.21700567341E+02 -0.23321652546E+02  0.46939527792E+02  0.56882385408E+02  0.41800000000E+01 0.  1.
         -5    1    3    3    0  502 -0.32015369477E+02  0.13226631221E+02 -0.60406715055E+02  0.69759381304E+02  0.41800000000E+01 0.  1.
        -11    1    4    4    0    0 -0.20844067657E+02 -0.30488863234E+02  0.53391571303E+00  0.36936851568E+02  0.00000000000E+00 0. -1.
         11    1    4    4    0    0  0.31158869793E+02  0.40583884559E+02  0.48382942656E+02  0.70419003065E+02  0.00000000000E+00 0.  1.
</event>
<event>
 8    1  0.6648599E-009  0.8830111E+02  0.7561462E-02  0.1307019E+00
          1   -1    0    0  501    0  0.00000000000E+00  0.00000000000E+00  0.64760320707E+03  0.64760320707E+03  0.00000000000E+00 0. -1.
         -1   -1    0    0    0  501 -0.00000000000E+00 -0.00000000000E+00 -0.26136543238E+02  0.26136543238E+02  0.00000000000E+00 0.  1.
         25    2    1    2    0    0  0.68374733574E+02  0.20391130262E+01  0.27836711489E+03  0.31275196352E+03  0.12508508249E+03 0.  0.
         23    2    1    2    0    0 -0.68374733574E+02 -0.20391130262E+01  0.34309954894E+03  0.36098778678E+03  0.88969767626E+02 0.  0.
          5    1    3    3  502    0  0.27166880880E+02 -0.31432753508E+02  0.24791454918E+03  0.25140635136E+03  0.41800000000E+01 0.  1.
         -5    1    3    3    0  502  0.41207852694E+02  0.33471866534E+02  0.30452565710E+02  0.61345612160E+02  0.41800000000E+01 0.  1.
        -11    1    4    4    0    0  0.44634432526E+00  0.11453307370E+02  0.70387870352E+00  0.11483593436E+02  0.00000000000E+00 0.  1.
         11    1    4    4    0    0 -0.68821077899E+02 -0.13492420397E+02  0.34239567024E+03  0.34950419335E+03  0.00000000000E+00 0. -1.
</event>
<event>
 8    1  0.6648599E-009  0.1024507E+03  0.7561462E-02  0.1275225E+00
         -1   -1    0    0    0  501 -0.00000000000E+00  0.00000000000E+00  0.54524399520E+02  0.54524399520E+02  0.00000000000E+00 0.  1.
          1   -1    0    0  501    0  0.00000000000E+00 -0.00000000000E+00 -0.23015531185E+03  0.23015531185E+03  0.00000000000E+00 0. -1.
         25    2    1    2    0    0  0.19081844490E+02 -0.79117945439E+01 -0.76254476955E+02  0.14794125311E+03  0.12508059735E+03 0.  0.
         23    2    1    2    0    0 -0.19081844490E+02  0.79117945439E+01 -0.99376435379E+02  0.13673845826E+03  0.91624324160E+02 0.  0.
          5    1    3    3  502    0 -0.11084720430E+02  0.51956172642E+02 -0.11242247628E+02  0.54462605835E+02  0.41800000000E+01 0. -1.
         -5    1    3    3    0  502  0.30166564920E+02 -0.59867967186E+02 -0.65012229327E+02  0.93478647274E+02  0.41800000000E+01 0. -1.
        -11    1    4    4    0    0  0.61073596386E+01 -0.34542488804E+02 -0.72479597925E+02  0.80521894475E+02  0.00000000000E+00 0. -1.
         11    1    4    4    0    0 -0.25189204129E+02  0.42454283348E+02 -0.26896837454E+02  0.56216563789E+02  0.00000000000E+00 0.  1.
</event>
<event>
 8    1  0.6648599E-009  0.1152672E+03  0.7561462E-02  0.1251115E+00
          2   -1    0    0  501    0  0.00000000000E+00  0.00000000000E+00  0.58247284875E+03  0.58247284875E+03  0.00000000000E+00 0. -1.
         -2   -1    0    0    0  501 -0.00000000000E+00 -0.00000000000E+00 -0.36199025060E+02  0.36199025060E+02  0.00000000000E+00 0.  1.
         25    2    1    2    0    0 -0.61003076649E+02  0.43420723458E+02  0.42709737310E+03  0.45129505129E+03  0.12509325568E+03 0.  0.
         23    2    1    2    0    0  0.61003076649E+02 -0.43420723458E+02  0.11917645059E+03  0.16737682253E+03  0.90582778484E+02 0.  0.
          5    1    3    3  502    0 -0.11201464556E+02  0.78610525857E+02  0.29852723353E+03  0.30893538021E+03  0.41800000000E+01 0. -1.
         -5    1    3    3    0  502 -0.49801612093E+02 -0.35189802399E+02  0.12857013957E+03  0.14235967108E+03  0.41800000000E+01 0. -1.
        -11    1    4    4    0    0  0.61714399168E+02 -0.17749583845E+02  0.23608297807E+02  0.68418320037E+02  0.00000000000E+00 0.  1.
         11    1    4    4    0    0 -0.71132251919E+00 -0.25671139613E+02  0.95568152783E+02  0.98958502490E+02  0.00000000000E+00 0. -1.
</event>
<event>
 8    1  0.6648599E-009  0.3320217E+03  0.7561462E-02  0.1070246E+00
         -2   -1    0    0    0  501 -0.00000000000E+00  0.00000000000E+00  0.23849001731E+03  0.23849001731E+03  0.00000000000E+00 0.  1.
          2   -1    0    0  501    0  0.00000000000E+00 -0.00000000000E+00 -0.51127143053E+03  0.51127143053E+03  0.00000000000E+00 0. -1.
         25    2    1    2    0    0 -0.27429259117E+03 -0.16253227479E+03 -0.23442561606E+03  0.41503477371E+03  0.12508128558E+03 0.  0.
         23    2    1    2    0    0  0.27429259117E+03  0.16253227479E+03 -0.38355797153E+02  0.33472667412E+03  0.94433115341E+02 0.  0.
          5    1    3    3  502    0  0.35861764774E+01 -0.25559476633E+02  0.59253132904E+00  0.26152839250E+02  0.41800000000E+01 0. -1.
         -5    1    3    3    0  502 -0.27787876765E+03 -0.13697279816E+03 -0.23501814739E+03  0.38888193446E+03  0.41800000000E+01 0. -1.
        -11    1    4    4    0    0  0.11296896915E+03  0.11183774874E+03 -0.45896236336E+02  0.16545734962E+03  0.00000000000E+00 0. -1.
         11    1    4    4    0    0  0.16132362202E+03  0.50694526051E+02  0.75404391826E+01  0.16926932450E+03  0.00000000000E+00 0.  1.
</event>
<event>
 8    1  0.6648599E-009  0.3155378E+03  0.7561462E-02  0.1077721E+00
         -2   -1    0    0    0  501 -0.00000000000E+00  0.00000000000E+00  0.16317742959E+03  0.16317742959E+03  0.00000000000E+00 0.  1.
          2   -1    0    0  501    0  0.00000000000E+00 -0.00000000000E+00 -0.14131303644E+04  0.14131303644E+04  0.00000000000E+00 0. -1.
         25    2    1    2    0    0 -0.10953939900E+03 -0.29467647019E+03 -0.11980962095E+04  0.12449559092E+04  0.12509031459E+03 0.  0.
         23    2    1    2    0    0  0.10953939900E+03  0.29467647019E+03 -0.51856725353E+02  0.33135188476E+03  0.90949708921E+02 0.  0.
          5    1    3    3  502    0 -0.21578328167E+02 -0.41270339394E+02 -0.40555492589E+03  0.40824151611E+03  0.41800000000E+01 0. -1.
         -5    1    3    3    0  502 -0.87961070829E+02 -0.25340613079E+03 -0.79254128357E+03  0.83671439313E+03  0.41800000000E+01 0. -1.
        -11    1    4    4    0    0  0.58419914579E+02  0.11158796840E+03 -0.63201457813E+02  0.14092262196E+03  0.00000000000E+00 0. -1.
         11    1    4    4    0    0  0.51119484417E+02  0.18308850179E+03  0.11344732460E+02  0.19042926279E+03  0.00000000000E+00 0.  1.
</event>
<event>
 8    1  0.6648599E-009  0.1346406E+03  0.7561462E-02  0.1220728E+00
          1   -1    0    0  501    0  0.00000000000E+00  0.00000000000E+00  0.32309545801E+03  0.32309545801E+03  0.00000000000E+00 0. -1.
         -1   -1    0    0    0  501 -0.00000000000E+00 -0.00000000000E+00 -0.61417283131E+02  0.61417283131E+02  0.00000000000E+00 0.  1.
         25    2    1    2    0    0 -0.25443269861E+02  0.82562004214E+02  0.16266580178E+03  0.22264704232E+03  0.12509075851E+03 0.  0.
         23    2    1    2    0    0  0.25443269861E+02 -0.82562004214E+02  0.99012373104E+02  0.16186569883E+03  0.94515659590E+02 0.  0.
          5    1    3    3  502    0 -0.28553752603E+02  0.11173577934E+03  0.15265451742E+03  0.19136633784E+03  0.41800000000E+01 0.  1.
         -5    1    3    3    0  502  0.31104827419E+01 -0.29173775124E+02  0.10011284361E+02  0.31280704474E+02  0.41800000000E+01 0.  1.
        -11    1    4    4    0    0 -0.29789174401E+02 -0.69193002829E+01  0.42891493750E+02  0.52677811876E+02  0.00000000000E+00 0. -1.
         11    1    4    4    0    0  0.55232444262E+02 -0.75642703931E+02  0.56120879354E+02  0.10918788695E+03  0.00000000000E+00 0.  1.
</event>
<event>
 8    1  0.6648599E-009  0.9992881E+02  0.7561462E-02  0.1280446E+00
          1   -1    0    0  501    0  0.00000000000E+00  0.00000000000E+00  0.12367154428E+03  0.12367154428E+03  0.00000000000E+00 0. -1.
         -1   -1    0    0    0  501 -0.00000000000E+00 -0.00000000000E+00 -0.10343163093E+03  0.10343163093E+03  0.00000000000E+00 0.  1.
         25    2    1    2    0    0 -0.20596810081E+02 -0.16834198308E+02 -0.83222065115E+01  0.12815706636E+03  0.12508939091E+03 0.  0.
         23    2    1    2    0    0  0.20596810081E+02  0.16834198308E+02  0.28562119862E+02  0.98946108853E+02  0.90922598665E+02 0.  0.
          5    1    3    3  502    0  0.72019312508E+01 -0.68530851640E+02 -0.38625990548E+01  0.69142877519E+02  0.41800000000E+01 0.  1.
         -5    1    3    3    0  502 -0.27798741331E+02  0.51696653332E+02 -0.44596074567E+01  0.59014188836E+02  0.41800000000E+01 0.  1.
        -11    1    4    4    0    0  0.38486628909E+02  0.30790390448E+02  0.48199911775E+02  0.68938380049E+02  0.00000000000E+00 0. -1.
         11    1    4    4    0    0 -0.17889818828E+02 -0.13956192140E+02 -0.19637791913E+02  0.30007728804E+02  0.00000000000E+00 0.  1.
</event>
<event>
 8    1  0.6648599E-009  0.1315869E+03  0.7561462E-02  0.1225120E+00
         -2   -1    0    0    0  501 -0.00000000000E+00  0.00000000000E+00  0.19869836973E+02  0.19869836973E+02  0.00000000000E+00 0. -1.
          2   -1    0    0  501    0  0.00000000000E+00 -0.00000000000E+00 -0.92105300167E+03  0.92105300167E+03  0.00000000000E+00 0.  1.
         25    2    1    2    0    0  0.74042995402E+02 -0.58620439520E+01 -0.38994959828E+03  0.41620012704E+03  0.12508048536E+03 0.  0.
         23    2    1    2    0    0 -0.74042995402E+02  0.58620439520E+01 -0.51123356641E+03  0.52472271160E+03  0.91964318718E+02 0.  0.
          5    1    3    3  502    0  0.66280862586E+02  0.53566954897E+02 -0.23508741947E+03  0.25009226017E+03  0.41800000000E+01 0. -1.
         -5    1    3    3    0  502  0.77621328161E+01 -0.59428998849E+02 -0.15486217881E+03  0.16610786687E+03  0.41800000000E+01 0. -1.
        -11    1    4    4    0    0  0.19554553937E+02 -0.11341809784E+02 -0.81424844354E+02  0.84504570923E+02  0.00000000000E+00 0.  1.
         11    1    4    4    0    0 -0.93597549339E+02  0.17203853736E+02 -0.42980872206E+03  0.44021814068E+03  0.00000000000E+00 0. -1.
</event>
<event>
 8    1  0.6648599E-009  0.1120438E+03  0.7561462E-02  0.1256831E+00
          1   -1    0    0  501    0  0.00000000000E+00  0.00000000000E+00  0.31899820427E+03  0.31899820427E+03  0.00000000000E+00 0. -1.
         -1   -1    0    0    0  501 -0.00000000000E+00 -0.00000000000E+00 -0.65705802638E+02  0.65705802638E+02  0.00000000000E+00 0.  1.
         25    2    1    2    0    0  0.23117623451E+02  0.11125930673E+02  0.16275462092E+02  0.12872598506E+03  0.12508907912E+03 0.  0.
         23    2    1    2    0    0 -0.23117623451E+02 -0.11125930673E+02  0.23701693954E+03  0.25597802185E+03  0.93217526217E+02 0.  0.
          5    1    3    3  502    0  0.73778500680E+02  0.18611868001E+02  0.12303199340E+02  0.77191384928E+02  0.41800000000E+01 0.  1.
         -5    1    3    3    0  502 -0.50660877229E+02 -0.74859373273E+01  0.39722627518E+01  0.51534600131E+02  0.41800000000E+01 0.  1.
        -11    1    4    4    0    0 -0.55083682404E+02 -0.26389213679E+02  0.14233170410E+03  0.15488355839E+03  0.00000000000E+00 0.  1.
         11    1    4    4    0    0  0.31966058954E+02  0.15263283005E+02  0.94685235436E+02  0.10109446346E+03  0.00000000000E+00 0. -1.
</event>
<event>
 8    1  0.6648599E-009  0.1676675E+03  0.7561462E-02  0.1180302E+00
          2   -1    0    0  501    0  0.00000000000E+00  0.00000000000E+00  0.11603699684E+03  0.11603699684E+03  0.00000000000E+00 0. -1.
         -2   -1    0    0    0  501 -0.00000000000E+00 -0.00000000000E+00 -0.34660207309E+03  0.34660207309E+03  0.00000000000E+00 0.  1.
         25    2    1    2    0    0 -0.44226367134E+02  0.14189017432E+03 -0.29007554673E+02  0.19641282751E+03  0.12509103670E+03 0.  0.
         23    2    1    2    0    0  0.44226367134E+02 -0.14189017432E+03 -0.20155752157E+03  0.26622624242E+03  0.90344809091E+02 0.  0.
          5    1    3    3  502    0 -0.16307381996E+02 -0.77383599135E+01  0.28208904498E+02  0.33749483177E+02  0.41800000000E+01 0. -1.
         -5    1    3    3    0  502 -0.27918985137E+02  0.14962853424E+03 -0.57216459171E+02  0.16266334433E+03  0.41800000000E+01 0. -1.
        -11    1    4    4    0    0 -0.15782594323E+02 -0.77398884796E+01 -0.10242171055E+01  0.17608099781E+02  0.00000000000E+00 0. -1.
         11    1    4    4    0    0  0.60008961456E+02 -0.13415028584E+03 -0.20053330447E+03  0.24861814264E+03  0.00000000000E+00 0.  1.
</event>
<event>
 8    1  0.6648599E-009  0.6112215E+02  0.7561462E-02  0.1393182E+00
          2   -1    0    0  501    0  0.00000000000E+00  0.00000000000E+00  0.11327680535E+03  0.11327680535E+03  0.00000000000E+00 0. -1.
         -2   -1    0    0    0  501 -0.00000000000E+00 -0.00000000000E+00 -0.10581635914E+03  0.10581635914E+03  0.00000000000E+00 0.  1.
         25    2    1    2    0    0  0.96366064438E+01  0.64156246352E+01 -0.79345264442E+01  0.12587523342E+03  0.12509034037E+03 0.  0.
         23    2    1    2    0    0 -0.96366064438E+01 -0.64156246352E+01  0.15394972658E+02  0.93217931076E+02  0.91206102141E+02 0.  0.
          5    1    3    3  502    0  0.91066444324E+01  0.33239286145E+02  0.50591361041E+02  0.61357471658E+02  0.41800000000E+01 0.  1.
         -5    1    3    3    0  502  0.52996201148E+00 -0.26823661510E+02 -0.58525887485E+02  0.64517761760E+02  0.41800000000E+01 0.  1.
        -11    1    4    4    0    0  0.24033636195E+02  0.55063899307E+01 -0.27805881458E+02  0.37163194729E+02  0.00000000000E+00 0.  1.
         11    1    4    4    0    0 -0.33670242639E+02 -0.11922014566E+02  0.43200854116E+02  0.56054736348E+02  0.00000000000E+00 0. -1.
</event>
<event>
 8    1  0.6648599E-009  0.1757987E+03  0.7561462E-02  0.1171932E+00
          1   -1    0    0  501    0  0.00000000000E+00  0.00000000000E+00  0.79471431889E+03  0.79471431889E+03  0.00000000000E+00 0. -1.
         -1   -1    0    0    0  501 -0.00000000000E+00 -0.00000000000E+00 -0.49165122840E+02  0.49165122840E+02  0.00000000000E+00 0.  1.
         25    2    1    2    0    0  0.13114902639E+03  0.48445040897E+02  0.20355978602E+03  0.27682329889E+03  0.12509022028E+03 0.  0.
         23    2    1    2    0    0 -0.13114902639E+03 -0.48445040897E+02  0.54198941003E+03  0.56705614285E+03  0.90846901108E+02 0.  0.
          5    1    3    3  502    0  0.13501554677E+03  0.78942413609E+02  0.16608389570E+03  0.22817194251E+03  0.41800000000E+01 0. -1.
         -5    1    3    3    0  502 -0.38665203801E+01 -0.30497372713E+02  0.37475890324E+02  0.48651356382E+02  0.41800000000E+01 0. -1.
        -11    1    4    4    0    0 -0.93533395697E+02 -0.73469099755E+02  0.43386879113E+03  0.44987590805E+03  0.00000000000E+00 0. -1.
         11    1    4    4    0    0 -0.37615630696E+02  0.25024058859E+02  0.10812061890E+03  0.11718023479E+03  0.00000000000E+00 0.  1.
</event>
<event>
 8    1  0.6648599E-009  0.1908511E+03  0.7561462E-02  0.1157696E+00
         -1   -1    0    0    0  501 -0.00000000000E+00  0.00000000000E+00  0.16610218839E+03  0.16610218839E+03  0.00000000000E+00 0.  1.
          1   -1    0    0  501    0  0.00000000000E+00 -0.00000000000E+00 -0.27492744990E+03  0.27492744990E+03  0.00000000000E+00 0. -1.
         25    2    1    2    0    0  0.43631980842E+02 -0.17818435079E+03 -0.43390373662E+02  0.22623556837E+03  0.12508555172E+03 0.  0.
         23    2    1    2    0    0 -0.43631980842E+02  0.17818435079E+03 -0.65434887852E+02  0.21479406993E+03  0.90561334505E+02 0.  0.
          5    1    3    3  502    0  0.19769931969E+02 -0.11761812363E+03  0.34891823572E+02  0.12433738363E+03  0.41800000000E+01 0. -1.
         -5    1    3    3    0  502  0.23862048872E+02 -0.60566227165E+02 -0.78282197234E+02  0.10189818474E+03  0.41800000000E+01 0. -1.
        -11    1    4    4    0    0 -0.60009844787E+02  0.95132914934E+02 -0.65465940516E+02  0.13014316095E+03  0.00000000000E+00 0. -1.
         11    1    4    4    0    0  0.16377863945E+02  0.83051435859E+02  0.31052663867E-01  0.84650908973E+02  0.00000000000E+00 0.  1.
</event>
<event>
 8    1  0.6648599E-009  0.9713362E+02  0.7561462E-02  0.1286442E+00
         -2   -1    0    0    0  501 -0.00000000000E+00  0.00000000000E+00  0.93827476234E+02  0.93827476234E+02  0.00000000000E+00 0.  1.
          2   -1    0    0  501    0  0.00000000000E+00 -0.00000000000E+00 -0.13686947989E+03  0.13686947989E+03  0.00000000000E+00 0. -1.
         25    2    1    2    0    0 -0.17016532492E+02 -0.13081935236E+02 -0.76871456726E+02  0.14836805067E+03  0.12507261168E+03 0.  0.
         23    2    1    2    0    0  0.17016532492E+02  0.13081935236E+02  0.33829453069E+02  0.82328905460E+02  0.71922996126E+02 0.  0.
          5    1    3    3  502    0  0.15439505209E+01  0.52814572458E+02 -0.12837130374E+02  0.54534641865E+02  0.41800000000E+01 0. -1.
         -5    1    3    3    0  502 -0.18560483013E+02 -0.65896507693E+02 -0.64034326352E+02  0.93833408801E+02  0.41800000000E+01 0. -1.
        -11    1    4    4    0    0  0.16265332735E+02 -0.27574157617E+02  0.25243688491E+02  0.40769339287E+02  0.00000000000E+00 0.  1.
         11    1    4    4    0    0  0.75119975690E+00  0.40656092853E+02  0.85857645782E+01  0.41559566173E+02  0.00000000000E+00 0. -1.
</event>
<event>
 8    1  0.6648599E-009  0.1350766E+03  0.7561462E-02  0.1220112E+00
          2   -1    0    0  501    0  0.00000000000E+00  0.00000000000E+00  0.34094535022E+03  0.34094535022E+03  0.00000000000E+00 0. -1.
         -2   -1    0    0    0  501 -0.00000000000E+00 -0.00000000000E+00 -0.10281489264E+03  0.10281489264E+03  0.00000000000E+00 0.  1.
         25    2    1    2    0    0 -0.54220884556E+02 -0.11869646008E+03  0.36062513608E+02  0.18433348616E+03  0.12509826247E+03 0.  0.
         23    2    1    2    0    0  0.54220884556E+02  0.11869646008E+03  0.20206794398E+03  0.25942675670E+03  0.97170129937E+02 0.  0.
          5    1    3    3  502    0 -0.80591504482E+01 -0.23707463572E+02  0.69084148134E+02  0.73600853653E+02  0.41800000000E+01 0.  1.
         -5    1    3    3    0  502 -0.46161734107E+02 -0.94988996513E+02 -0.33021634526E+02  0.11073263250E+03  0.41800000000E+01 0.  1.
        -11    1    4    4    0    0  0.31291918135E+02  0.18641114010E+02  0.43913136744E+01  0.36687312628E+02  0.00000000000E+00 0.  1.
         11    1    4    4    0    0  0.22928966421E+02  0.10005534607E+03  0.19767663030E+03  0.22273944408E+03  0.00000000000E+00 0. -1.
</event>
<event>
 8    1  0.6648599E-009  0.1309886E+03  0.7561462E-02  0.1225996E+00
         -1   -1    0    0    0  501 -0.00000000000E+00  0.00000000000E+00  0.14267162925E+03  0.14267162925E+03  0.00000000000E+00 0.  1.
          1   -1    0    0  501    0  0.00000000000E+00 -0.00000000000E+00 -0.19474487254E+03  0.19474487254E+03  0.00000000000E+00 0. -1.
         25    2    1    2    0    0 -0.25787268171E+02 -0.11784974063E+03 -0.60146239671E+02  0.18390696673E+03  0.12510258870E+03 0.  0.
         23    2    1    2    0    0  0.25787268171E+02  0.11784974063E+03  0.80729963802E+01  0.15350953506E+03  0.94585725748E+02 0.  0.
          5    1    3    3  502    0 -0.18634754824E+02 -0.98155544048E+02  0.19123471650E+02  0.10180837138E+03  0.41800000000E+01 0.  1.
         -5    1    3    3    0  502 -0.71525133474E+01 -0.19694196586E+02 -0.79269711321E+02  0.82098595355E+02  0.41800000000E+01 0.  1.
        -11    1    4    4    0    0 -0.19446221534E+02  0.77820028050E+02  0.34826945705E+02  0.87447289522E+02  0.00000000000E+00 0.  1.
         11    1    4    4    0    0  0.45233489705E+02  0.40029712584E+02 -0.26753949325E+02  0.66062245534E+02  0.00000000000E+00 0. -1.
</event>
<event>
 8    1  0.6648599E-009  0.1098513E+03  0.7561462E-02  0.1260845E+00
         -1   -1    0    0    0  501 -0.00000000000E+00  0.00000000000E+00  0.16578353698E+03  0.16578353698E+03  0.00000000000E+00 0.  1.
          1   -1    0    0  501    0  0.00000000000E+00 -0.00000000000E+00 -0.74133055149E+02  0.74133055149E+02  0.00000000000E+00 0. -1.
         25    2    1    2    0    0 -0.23313653435E+02  0.24899749791E+01  0.51966894572E+02  0.13744206713E+03  0.12506013463E+03 0.  0.
         23    2    1    2    0    0  0.23313653435E+02 -0.24899749791E+01  0.39683587259E+02  0.10247452500E+03  0.91523301759E+02 0.  0.
          5    1    3    3  502    0 -0.50181523914E+01  0.63262677983E+02  0.27610150375E+02  0.69333549475E+02  0.41800000000E+01 0. -1.
         -5    1    3    3    0  502 -0.18295501044E+02 -0.60772703004E+02  0.24356744198E+02  0.68108517652E+02  0.41800000000E+01 0. -1.
        -11    1    4    4    0    0  0.38841294003E+02 -0.37630846611E+02  0.12773256114E+02  0.55568721492E+02  0.00000000000E+00 0. -1.
         11    1    4    4    0    0 -0.15527640568E+02  0.35140871631E+02  0.26910331145E+02  0.46905803510E+02  0.00000000000E+00 0.  1.
</event>
<event>
 8    1  0.6648599E-009  0.1194740E+03  0.7561462E-02  0.1243967E+00
          1   -1    0    0  501    0  0.00000000000E+00  0.00000000000E+00  0.14111885220E+03  0.14111885220E+03  0.00000000000E+00 0. -1.
         -1   -1    0    0    0  501 -0.00000000000E+00 -0.00000000000E+00 -0.14326505515E+03  0.14326505515E+03  0.00000000000E+00 0.  1.
         25    2    1    2    0    0 -0.79079684123E+02  0.13687868882E+02  0.45527772262E+02  0.15543755597E+03  0.12508837501E+03 0.  0.
         23    2    1    2    0    0  0.79079684123E+02 -0.13687868882E+02 -0.47673975212E+02  0.12894635139E+03  0.88957289907E+02 0.  0.
          5    1    3    3  502    0 -0.72332415140E+02 -0.44533541053E+02  0.73456591222E+01  0.85361851354E+02  0.41800000000E+01 0.  1.
         -5    1    3    3    0  502 -0.67472689838E+01  0.58221409935E+02  0.38182113140E+02  0.70075704616E+02  0.41800000000E+01 0.  1.
        -11    1    4    4    0    0  0.26887452919E+02  0.19569641774E+02  0.18735921228E+02  0.38169893213E+02  0.00000000000E+00 0. -1.
         11    1    4    4    0    0  0.52192231204E+02 -0.33257510656E+02 -0.66409896441E+02  0.90776458173E+02  0.00000000000E+00 0.  1.
</event>
<event>
 8    1  0.6648599E-009  0.1397517E+03  0.7561462E-02  0.1213663E+00
          2   -1    0    0  501    0  0.00000000000E+00  0.00000000000E+00  0.68442751913E+02  0.68442751913E+02  0.00000000000E+00 0. -1.
         -2   -1    0    0    0  501 -0.00000000000E+00 -0.00000000000E+00 -0.43058500735E+03  0.43058500735E+03  0.00000000000E+00 0.  1.
         25    2    1    2    0    0 -0.13148502321E+03 -0.84512355355E+01 -0.22143376444E+03  0.28642739739E+03  0.12509199507E+03 0.  0.
         23    2    1    2    0    0  0.13148502321E+03  0.84512355355E+01 -0.14070849100E+03  0.21260036188E+03  0.89667718386E+02 0.  0.
          5    1    3    3  502    0 -0.82318110856E+02  0.12586960031E+02 -0.31610908286E+02  0.89170762363E+02  0.41800000000E+01 0. -1.
         -5    1    3    3    0  502 -0.49166912352E+02 -0.21038195566E+02 -0.18982285615E+03  0.19725663502E+03  0.41800000000E+01 0. -1.
        -11    1    4    4    0    0  0.22999029271E+02 -0.19832837369E+02 -0.78979849771E+02  0.84617453610E+02  0.00000000000E+00 0.  1.
         11    1    4    4    0    0  0.10848599394E+03  0.28284072904E+02 -0.61728641228E+02  0.12798290827E+03  0.00000000000E+00 0. -1.
</event>
<event>
 8    1  0.6648599E-009  0.1069362E+03  0.7561462E-02  0.1266351E+00
          1   -1    0    0  501    0  0.00000000000E+00  0.00000000000E+00  0.65097788607E+02  0.65097788607E+02  0.00000000000E+00 0. -1.
         -1   -1    0    0    0  501 -0.00000000000E+00 -0.00000000000E+00 -0.45899686450E+03  0.45899686450E+03  0.00000000000E+00 0.  1.
         25    2    1    2    0    0  0.56995657015E+02  0.65480832661E+02 -0.55797483465E+02  0.16216347858E+03  0.12508952897E+03 0.  0.
         23    2    1    2    0    0 -0.56995657015E+02 -0.65480832661E+02 -0.33810159243E+03  0.36193117453E+03  0.95630768738E+02 0.  0.
          5    1    3    3  502    0  0.39846040317E+02 -0.49721138498E+01 -0.76621255591E+02  0.86606685962E+02  0.41800000000E+01 0. -1.
         -5    1    3    3    0  502  0.17149616698E+02  0.70452946511E+02  0.20823772126E+02  0.75556792616E+02  0.41800000000E+01 0. -1.
        -11    1    4    4    0    0 -0.59198699730E+02 -0.31956754125E+02 -0.31258792968E+03  0.31974510780E+03  0.00000000000E+00 0.  1.
         11    1    4    4    0    0  0.22030427155E+01 -0.33524078536E+02 -0.25513662751E+02  0.42186066726E+02  0.00000000000E+00 0. -1.
</event>
<event>
 8    1  0.6648599E-009  0.9443722E+02  0.7561462E-02  0.1292449E+00
          2   -1    0    0  501    0  0.00000000000E+00  0.00000000000E+00  0.34892747820E+03  0.34892747820E+03  0.00000000000E+00 0. -1.
         -2   -1    0    0    0  501 -0.00000000000E+00 -0.00000000000E+00 -0.36018832582E+02  0.36018832582E+02  0.00000000000E+00 0.  1.
         25    2    1    2    0    0  0.14039243191E+02  0.19020266357E+02  0.15373083765E+03  0.19959994162E+03  0.12509234736E+03 0.  0.
         23    2    1    2    0    0 -0.14039243191E+02 -0.19020266357E+02  0.15917780797E+03  0.18534636917E+03  0.91961030504E+02 0.  0.
          5    1    3    3  502    0  0.50530206543E+02  0.45218483663E+02  0.43960013872E+02  0.80919517162E+02  0.41800000000E+01 0. -1.
         -5    1    3    3    0  502 -0.36490963352E+02 -0.26198217306E+02  0.10977082378E+03  0.11868042446E+03  0.41800000000E+01 0. -1.
        -11    1    4    4    0    0 -0.61510331781E+01  0.27733294140E+02  0.12211133231E+02  0.30920585178E+02  0.00000000000E+00 0.  1.
         11    1    4    4    0    0 -0.78882100129E+01 -0.46753560497E+02  0.14696667474E+03  0.15442578399E+03  0.00000000000E+00 0. -1.
</event>
<event>
 8    1  0.6648599E-009  0.1284393E+03  0.7561462E-02  0.1229790E+00
          1   -1    0    0  501    0  0.00000000000E+00  0.00000000000E+00  0.66951665239E+03  0.66951665239E+03  0.00000000000E+00 0. -1.
         -1   -1    0    0    0  501 -0.00000000000E+00 -0.00000000000E+00 -0.31610192438E+02  0.31610192438E+02  0.00000000000E+00 0.  1.
         25    2    1    2    0    0 -0.70629095307E+02 -0.63740953944E+02  0.46157778384E+03  0.48759830558E+03  0.12508668498E+03 0.  0.
         23    2    1    2    0    0  0.70629095307E+02  0.63740953944E+02  0.17632867611E+03  0.21352853925E+03  0.73832626521E+02 0.  0.
          5    1    3    3  502    0  0.16289005409E+02  0.12395572273E+02  0.20631059683E+03  0.20736565934E+03  0.41800000000E+01 0.  1.
         -5    1    3    3    0  502 -0.86918100716E+02 -0.76136526217E+02  0.25526718701E+03  0.28023264624E+03  0.41800000000E+01 0.  1.
        -11    1    4    4    0    0  0.17150702151E+02  0.64640280667E+02  0.10142359064E+03  0.12148768335E+03  0.00000000000E+00 0.  1.
         11    1    4    4    0    0  0.53478393156E+02 -0.89932672351E+00  0.74905085478E+02  0.92040855893E+02  0.00000000000E+00 0. -1.
</event>
<event>
 8    1  0.6648599E-009  0.1390124E+03  0.7561462E-02  0.1214664E+00
         -2   -1    0    0    0  501 -0.00000000000E+00  0.00000000000E+00  0.38376920371E+02  0.38376920371E+02  0.00000000000E+00 0.  1.
          2   -1    0    0  501    0  0.00000000000E+00 -0.00000000000E+00 -0.53531395074E+03  0.53531395074E+03  0.00000000000E+00 0. -1.
         25    2    1    2    0    0 -0.92617470281E+02  0.20736275209E+02 -0.27643753966E+03  0.31793809898E+03  0.12513565654E+03 0.  0.
         23    2    1    2    0    0  0.92617470281E+02 -0.20736275209E+02 -0.22049949071E+03  0.25575277213E+03  0.88212618942E+02 0.  0.
          5    1    3    3  502    0 -0.49612829291E+02 -0.52237566101E+02 -0.13237019210E+03  0.15076317952E+03  0.41800000000E+01 0.  1.
         -5    1    3    3    0  502 -0.43004640990E+02  0.72973841310E+02 -0.14406734756E+03  0.16717491946E+03  0.41800000000E+01 0.  1.
        -11    1    4    4    0    0 -0.92839095139E+01 -0.16659517245E+02 -0.92970679862E+01  0.21217114880E+02  0.00000000000E+00 0.  1.
         11    1    4    4    0    0  0.10190137979E+03 -0.40767579643E+01 -0.21120242272E+03  0.23453565725E+03  0.00000000000E+00 0. -1.
</event>
<event>
 7    1  0.6648599E-009  0.1617395E+03  0.7561462E-02  0.1186747E+00
         -1   -1    0    0    0  501 -0.00000000000E+00  0.00000000000E+00  0.40285062520E+03  0.40285062520E+03  0.00000000000E+00 0.  1.
          1   -1    0    0  501    0  0.00000000000E+00 -0.00000000000E+00 -0.89406532676E+02  0.89406532676E+02  0.00000000000E+00 0. -1.
         23    2    1    2    0    0 -0.14966015456E+01 -0.15288989689E+03  0.11126479723E+03  0.20953674246E+03  0.90267552044E+02 0.  0.
          5    1    1    2  502    0 -0.28565304102E+02  0.26772094053E+02  0.12661981647E+03  0.13260004503E+03  0.41800000000E+01 0.  1.
         -5    1    1    2    0  502  0.30061905648E+02  0.12611780284E+03  0.75559478827E+02  0.15012037039E+03  0.41800000000E+01 0.  1.
        -11    1    3    3    0    0 -0.92920131794E+01 -0.12725978991E+03  0.12569283259E+03  0.17910913936E+03  0.00000000000E+00 0.  1.
         11    1    3    3    0    0  0.77954116338E+01 -0.25630106981E+02 -0.14428035361E+02  0.30427603106E+02  0.00000000000E+00 0. -1.
</event>
<event>
 8    1  0.6648599E-009  0.1547913E+03  0.7561462E-02  0.1194706E+00
          3   -1    0    0  501    0  0.00000000000E+00  0.00000000000E+00  0.94969366179E+03  0.94969366179E+03  0.00000000000E+00 0. -1.
         -3   -1    0    0    0  501 -0.00000000000E+00 -0.00000000000E+00 -0.36713972180E+02  0.36713972180E+02  0.00000000000E+00 0.  1.
         25    2    1    2    0    0 -0.79343840771E+02  0.10481723498E+03  0.28065510450E+03  0.33421044231E+03  0.12508890539E+03 0.  0.
         23    2    1    2    0    0  0.79343840771E+02 -0.10481723498E+03  0.63232458512E+03  0.65219719166E+03  0.90800319667E+02 0.  0.
          5    1    3    3  502    0 -0.98015711094E+01 -0.22913969838E+02  0.95181500620E+02  0.98478988978E+02  0.41800000000E+01 0. -1.
         -5    1    3    3    0  502 -0.69542269662E+02  0.12773120482E+03  0.18547360388E+03  0.23573145333E+03  0.41800000000E+01 0. -1.
        -11    1    4    4    0    0  0.47030486495E+02 -0.93352396393E+02  0.58193645069E+03  0.59125000568E+03  0.00000000000E+00 0. -1.
         11    1    4    4    0    0  0.32313354276E+02 -0.11464838590E+02  0.50388134428E+02  0.60947185986E+02  0.00000000000E+00 0.  1.
</event>
<event>
 8    1  0.6648599E-009  0.9206698E+02  0.7561462E-02  0.1297922E+00
         -2   -1    0    0    0  501 -0.00000000000E+00  0.00000000000E+00  0.29272959020E+02  0.29272959020E+02  0.00000000000E+00 0.  1.
          2   -1    0    0  501    0  0.00000000000E+00 -0.00000000000E+00 -0.45334462114E+03  0.45334462114E+03  0.00000000000E+00 0. -1.
         25    2    1    2    0    0  0.18756589620E+01 -0.27320193729E+02 -0.29542767204E+03  0.32198387923E+03  0.12508476326E+03 0.  0.
         23    2    1    2    0    0 -0.18756589620E+01  0.27320193729E+02 -0.12864399008E+03  0.16063370092E+03  0.92217127513E+02 0.  0.
          5    1    3    3  502    0  0.17408945413E+02  0.35248712261E+02 -0.21605820266E+03  0.21964553816E+03  0.41800000000E+01 0. -1.
         -5    1    3    3    0  502 -0.15533286451E+02 -0.62568905990E+02 -0.79369469377E+02  0.10233834107E+03  0.41800000000E+01 0. -1.
        -11    1    4    4    0    0 -0.38194601646E+02  0.86636554482E+01 -0.10799791601E+03  0.11488009568E+03  0.00000000000E+00 0. -1.
         11    1    4    4    0    0  0.36318942684E+02  0.18656538281E+02 -0.20646074067E+02  0.45753605242E+02  0.00000000000E+00 0.  1.
</event>
<event>
 8    1  0.6648599E-009  0.1415644E+03  0.7561462E-02  0.1211239E+00
         -1   -1    0    0    0  501 -0.00000000000E+00  0.00000000000E+00  0.85326358230E+02  0.85326358230E+02  0.00000000000E+00 0.  1.
          1   -1    0    0  501    0  0.00000000000E+00 -0.00000000000E+00 -0.35524981752E+03  0.35524981752E+03  0.00000000000E+00 0. -1.
         25    2    1    2    0    0 -0.12765232248E+03  0.15767725303E+02 -0.19785503931E+03  0.26709127423E+03  0.12508955031E+03 0.  0.
         23    2    1    2    0    0  0.12765232248E+03 -0.15767725303E+02 -0.72068419984E+02  0.17348490151E+03  0.91429849058E+02 0.  0.
          5    1    3    3  502    0 -0.12215651682E+03  0.70190287408E+00 -0.75604930136E+02  0.14372294573E+03  0.41800000000E+01 0. -1.
         -5    1    3    3    0  502 -0.54958056606E+01  0.15065822429E+02 -0.12225010917E+03  0.12336832850E+03  0.41800000000E+01 0. -1.
        -11    1    4    4    0    0  0.48210009297E+02 -0.38498818062E+02 -0.66432923409E+02  0.90662546299E+02  0.00000000000E+00 0.  1.
         11    1    4    4    0    0  0.79442313183E+02  0.22731092760E+02 -0.56354965745E+01  0.82822355216E+02  0.00000000000E+00 0. -1.
</event>
<event>
 8    1  0.6648599E-009  0.1228219E+03  0.7561462E-02  0.1238513E+00
          1   -1    0    0  501    0  0.00000000000E+00  0.00000000000E+00  0.34877403734E+03  0.34877403734E+03  0.00000000000E+00 0. -1.
         -1   -1    0    0    0  501 -0.00000000000E+00 -0.00000000000E+00 -0.74656063679E+02  0.74656063679E+02  0.00000000000E+00 0.  1.
         25    2    1    2    0    0  0.60635207177E+02  0.26818808340E+02  0.27445941408E+03  0.30882355831E+03  0.12509253919E+03 0.  0.
         23    2    1    2    0    0 -0.60635207177E+02 -0.26818808340E+02 -0.34144041596E+00  0.11460654271E+03  0.93480833438E+02 0.  0.
          5    1    3    3  502    0 -0.10293336659E+02  0.54076730403E+02  0.17555163912E+03  0.18402743260E+03  0.41800000000E+01 0. -1.
         -5    1    3    3    0  502  0.70928543836E+02 -0.27257922064E+02  0.98907774955E+02  0.12479612571E+03  0.41800000000E+01 0. -1.
        -11    1    4    4    0    0 -0.54758864776E+02 -0.59656305249E+02 -0.38110167549E+01  0.81067452632E+02  0.00000000000E+00 0.  1.
         11    1    4    4    0    0 -0.58763424009E+01  0.32837496909E+02  0.34695763389E+01  0.33539090078E+02  0.00000000000E+00 0. -1.
</event>
<event>
 8    1  0.6648599E-009  0.9852550E+02  0.7561462E-02  0.1283428E+00
          3   -1    0    0  501    0  0.00000000000E+00  0.00000000000E+00  0.67878444625E+02  0.67878444625E+02  0.00000000000E+00 0. -1.
         -3   -1    0    0    0  501 -0.00000000000E+00 -0.00000000000E+00 -0.27470193346E+03  0.27470193346E+03  0.00000000000E+00 0.  1.
         25    2    1    2    0    0 -0.22492453295E+02  0.64334292200E+02 -0.20373016192E+03  0.24859250228E+03  0.12508973462E+03 0.  0.
         23    2    1    2    0    0  0.22492453295E+02 -0.64334292200E+02 -0.30933269164E+01  0.93987875803E+02  0.64647819132E+02 0.  0.
          5    1    3    3  502    0 -0.49185114225E+02  0.80356847171E+02 -0.89115830130E+02  0.12975169335E+03  0.41800000000E+01 0. -1.
         -5    1    3    3    0  502  0.26692660930E+02 -0.16022554970E+02 -0.11461433179E+03  0.11884080893E+03  0.41800000000E+01 0. -1.
        -11    1    4    4    0    0  0.10470614721E+02 -0.55329847940E+02 -0.29527967881E+02  0.63584013186E+02  0.00000000000E+00 0.  1.
         11    1    4    4    0    0  0.12021838574E+02 -0.90044442601E+01  0.26434640964E+02  0.30403862617E+02  0.00000000000E+00 0. -1.
</event>
<event>
 8    1  0.6648599E-009  0.9101052E+02  0.7561462E-02  0.1300423E+00
          1   -1    0    0  501    0  0.00000000000E+00  0.00000000000E+00  0.38020855248E+03  0.38020855248E+03  0.00000000000E+00 0. -1.
         -1   -1    0    0    0  501 -0.00000000000E+00 -0.00000000000E+00 -0.33474749077E+02  0.33474749077E+02  0.00000000000E+00 0.  1.
         25    2    1    2    0    0  0.49142204365E+01 -0.83550824161E+01  0.27266147815E+03  0.30014368987E+03  0.12509194994E+03 0.  0.
         23    2    1    2    0    0 -0.49142204365E+01  0.83550824161E+01  0.74072325251E+02  0.11353961168E+03  0.85501912773E+02 0.  0.
          5    1    3    3  502    0  0.10380247660E+02  0.57841217160E+02  0.12830872500E+03  0.14118766679E+03  0.41800000000E+01 0. -1.
         -5    1    3    3    0  502 -0.54660272234E+01 -0.66196299576E+02  0.14435275315E+03  0.15895602308E+03  0.41800000000E+01 0. -1.
        -11    1    4    4    0    0 -0.24822006247E+02  0.21383282634E+02 -0.29800404277E+01  0.32897680941E+02  0.00000000000E+00 0.  1.
         11    1    4    4    0    0  0.19907785810E+02 -0.13028200218E+02  0.77052365679E+02  0.80641930740E+02  0.00000000000E+00 0. -1.
</event>
<event>
 8    1  0.6648599E-009  0.1169064E+03  0.7561462E-02  0.1248290E+00
         -2   -1    0    0    0  501 -0.00000000000E+00  0.00000000000E+00  0.55256740712E+03  0.55256740712E+03  0.00000000000E+00 0.  1.
          2   -1    0    0  501    0  0.00000000000E+00 -0.00000000000E+00 -0.42059415912E+02  0.42059415912E+02  0.00000000000E+00 0. -1.
         25    2    1    2    0    0 -0.22613615108E+01 -0.10643473598E+03  0.29353302508E+03  0.33636532221E+03  0.12508607595E+03 0.  0.
         23    2    1    2    0    0  0.22613615108E+01  0.10643473598E+03  0.21697496613E+03  0.25826150082E+03  0.91035158596E+02 0.  0.
          5    1    3    3  502    0 -0.17661557580E+02 -0.56654211746E+01 -0.59968359776E+01  0.19936450411E+02  0.41800000000E+01 0. -1.
         -5    1    3    3    0  502  0.15400196069E+02 -0.10076931480E+03  0.29952986105E+03  0.31642887180E+03  0.41800000000E+01 0. -1.
        -11    1    4    4    0    0 -0.15774684810E+02  0.26581207616E+02  0.14805829233E+03  0.15125031969E+03  0.00000000000E+00 0.  1.
         11    1    4    4    0    0  0.18036046320E+02  0.79853528362E+02  0.68916673795E+02  0.10701118112E+03  0.00000000000E+00 0. -1.
</event>
<event>
 8    1  0.6648599E-009  0.8517011E+02  0.7561462E-02  0.1314988E+00
         -1   -1    0    0    0  501 -0.00000000000E+00  0.00000000000E+00  0.52653368067E+02  0.52653368067E+02  0.00000000000E+00 0.  1.
          1   -1    0    0  501    0  0.00000000000E+00 -0.00000000000E+00 -0.23040832698E+03  0.23040832698E+03  0.00000000000E+00 0. -1.
         25    2    1    2    0    0  0.32656106136E+01  0.86076646624E+01 -0.76222054192E+02  0.14677275400E+03  0.12509070176E+03 0.  0.
         23    2    1    2    0    0 -0.32656106136E+01 -0.86076646624E+01 -0.10153290472E+03  0.13628894105E+03  0.90448817612E+02 0.  0.
          5    1    3    3  502    0  0.22880318785E+02 -0.29086897720E+02 -0.93551680823E+02  0.10069233333E+03  0.41800000000E+01 0.  1.
         -5    1    3    3    0  502 -0.19614708171E+02  0.37694562382E+02  0.17329626631E+02  0.46080420669E+02  0.41800000000E+01 0.  1.
        -11    1    4    4    0    0 -0.28078158612E+02  0.32149019751E+02 -0.55214694751E+02  0.69789719720E+02  0.00000000000E+00 0. -1.
         11    1    4    4    0    0  0.24812547999E+02 -0.40756684414E+02 -0.46318209971E+02  0.66499221330E+02  0.00000000000E+00 0.  1.
</event>
<event>
 8    1  0.6648599E-009  0.1083175E+03  0.7561462E-02  0.1263718E+00
          2   -1    0    0  501    0  0.00000000000E+00  0.00000000000E+00  0.43392041917E+02  0.43392041917E+02  0.00000000000E+00 0. -1.
         -2   -1    0    0    0  501 -0.00000000000E+00 -0.00000000000E+00 -0.50901271630E+03  0.50901271630E+03  0.00000000000E+00 0.  1.
         25    2    1    2    0    0  0.53877873246E+02  0.52862804845E+02 -0.12434579292E+03  0.19185104037E+03  0.12509054366E+03 0.  0.
         23    2    1    2    0    0 -0.53877873246E+02 -0.52862804845E+02 -0.34127488146E+03  0.36055371784E+03  0.88505013249E+02 0.  0.
          5    1    3    3  502    0  0.25370451579E+02 -0.16742112077E+02  0.14460925457E+02  0.33919741968E+02  0.41800000000E+01 0. -1.
         -5    1    3    3    0  502  0.28507421667E+02  0.69604916921E+02 -0.13880671837E+03  0.15793129840E+03  0.41800000000E+01 0. -1.
        -11    1    4    4    0    0  0.16257409543E+02  0.76684465998E+01 -0.23725576611E+02  0.29765944027E+02  0.00000000000E+00 0. -1.
         11    1    4    4    0    0 -0.70135282788E+02 -0.60531251444E+02 -0.31754930485E+03  0.33078777382E+03  0.00000000000E+00 0.  1.
</event>
<event>
 8    1  0.6648599E-009  0.1163181E+03  0.7561462E-02  0.1249298E+00
          2   -1    0    0  501    0  0.00000000000E+00  0.00000000000E+00  0.39008364230E+03  0.39008364230E+03  0.00000000000E+00 0.  1.
         -2   -1    0    0    0  501 -0.00000000000E+00 -0.00000000000E+00 -0.35884518036E+02  0.35884518036E+02  0.00000000000E+00 0. -1.
         25    2    1    2    0    0 -0.36532878768E+02  0.28549681075E+02  0.22663670918E+03  0.26299676085E+03  0.12511339956E+03 0.  0.
         23    2    1    2    0    0  0.36532878768E+02 -0.28549681075E+02  0.12756241509E+03  0.16297139949E+03  0.90209599195E+02 0.  0.
          5    1    3    3  502    0 -0.61679206810E+02  0.63127392645E+02  0.12934279855E+03  0.15664106802E+03  0.41800000000E+01 0. -1.
         -5    1    3    3    0  502  0.25146328042E+02 -0.34577711570E+02  0.97293910629E+02  0.10635569283E+03  0.41800000000E+01 0. -1.
        -11    1    4    4    0    0  0.10068585673E+02 -0.59645075871E+02  0.79783606363E+02  0.10012160275E+03  0.00000000000E+00 0. -1.
         11    1    4    4    0    0  0.26464293095E+02  0.31095394796E+02  0.47778808726E+02  0.62849796736E+02  0.00000000000E+00 0.  1.
</event>
<event>
 8    1  0.6648599E-009  0.2812778E+03  0.7561462E-02  0.1094993E+00
          1   -1    0    0  501    0  0.00000000000E+00  0.00000000000E+00  0.25505816230E+03  0.25505816230E+03  0.00000000000E+00 0. -1.
         -1   -1    0    0    0  501 -0.00000000000E+00 -0.00000000000E+00 -0.40449346317E+03  0.40449346317E+03  0.00000000000E+00 0.  1.
         25    2    1    2    0    0  0.27489689464E+03  0.24282743071E+02  0.48532098451E+02  0.30685500984E+03  0.12508668271E+03 0.  0.
         23    2    1    2    0    0 -0.27489689464E+03 -0.24282743071E+02 -0.19796739932E+03  0.35269661564E+03  0.95109711366E+02 0.  0.
          5    1    3    3  502    0  0.18915512974E+03  0.52253444681E+02  0.78973063977E+02  0.21157576142E+03  0.41800000000E+01 0.  1.
         -5    1    3    3    0  502  0.85741764897E+02 -0.27970701611E+02 -0.30440965525E+02  0.95279248414E+02  0.41800000000E+01 0.  1.
        -11    1    4    4    0    0 -0.19153771407E+03 -0.18383356066E+02 -0.18716906808E+03  0.26843417021E+03  0.00000000000E+00 0.  1.
         11    1    4    4    0    0 -0.83359180566E+02 -0.58993870046E+01 -0.10798331244E+02  0.84262445427E+02  0.00000000000E+00 0. -1.
</event>
<event>
 8    1  0.6648599E-009  0.1155016E+03  0.7561462E-02  0.1250708E+00
          2   -1    0    0  501    0  0.00000000000E+00  0.00000000000E+00  0.13687375598E+04  0.13687375598E+04  0.00000000000E+00 0. -1.
         -2   -1    0    0    0  501 -0.00000000000E+00 -0.00000000000E+00 -0.14031964118E+02  0.14031964118E+02  0.00000000000E+00 0.  1.
         25    2    1    2    0    0  0.28084956291E+02 -0.67246303080E+02  0.97165375585E+03  0.98237920848E+03  0.12508820066E+03 0.  0.
         23    2    1    2    0    0 -0.28084956291E+02  0.67246303080E+02  0.38305183978E+03  0.40039031539E+03  0.90955278298E+02 0.  0.
          5    1    3    3  502    0  0.43476106855E+02  0.24469154811E+01  0.11991292800E+03  0.12764302552E+03  0.41800000000E+01 0. -1.
         -5    1    3    3    0  502 -0.15391150563E+02 -0.69693218562E+02  0.85174082786E+03  0.85473618296E+03  0.41800000000E+01 0. -1.
        -11    1    4    4    0    0 -0.60945184328E+02  0.38367023830E+02  0.21515361625E+03  0.22688636494E+03  0.00000000000E+00 0. -1.
         11    1    4    4    0    0  0.32860228037E+02  0.28879279250E+02  0.16789822353E+03  0.17350395045E+03  0.00000000000E+00 0.  1.
</event>
<event>
 8    1  0.6648599E-009  0.1990030E+03  0.7561462E-02  0.1150583E+00
         -1   -1    0    0    0  501 -0.00000000000E+00  0.00000000000E+00  0.44920227631E+02  0.44920227631E+02  0.00000000000E+00 0.  1.
          1   -1    0    0  501    0  0.00000000000E+00 -0.00000000000E+00 -0.10792326992E+04  0.10792326992E+04  0.00000000000E+00 0. -1.
         25    2    1    2    0    0 -0.19066196656E+03  0.57734828163E+01 -0.49998074152E+03  0.54955738246E+03  0.12508899286E+03 0.  0.
         23    2    1    2    0    0  0.19066196656E+03 -0.57734828163E+01 -0.53433173002E+03  0.57459554434E+03  0.90908323423E+02 0.  0.
          5    1    3    3  502    0 -0.12506323578E+03  0.27461485260E+02 -0.43899447324E+03  0.45730576867E+03  0.41800000000E+01 0.  1.
         -5    1    3    3    0  502 -0.65598730783E+02 -0.21688002444E+02 -0.60986268274E+02  0.92251613798E+02  0.41800000000E+01 0.  1.
        -11    1    4    4    0    0  0.70318880527E+02  0.27995041547E+02 -0.29544234136E+03  0.30498302309E+03  0.00000000000E+00 0. -1.
         11    1    4    4    0    0  0.12034308604E+03 -0.33768524363E+02 -0.23888938866E+03  0.26961252124E+03  0.00000000000E+00 0.  1.
</event>
<event>
 8    1  0.6648599E-009  0.5189201E+02  0.7561462E-02  0.1435396E+00
          2   -1    0    0  501    0  0.00000000000E+00  0.00000000000E+00  0.27364895347E+02  0.27364895347E+02  0.00000000000E+00 0. -1.
         -2   -1    0    0    0  501 -0.00000000000E+00 -0.00000000000E+00 -0.79183563190E+03  0.79183563190E+03  0.00000000000E+00 0.  1.
         25    2    1    2    0    0 -0.21021194302E+02 -0.88503994954E+01 -0.68365668723E+03  0.69538080097E+03  0.12509105557E+03 0.  0.
         23    2    1    2    0    0  0.21021194302E+02  0.88503994954E+01 -0.80814049324E+02  0.12381972628E+03  0.90995570586E+02 0.  0.
          5    1    3    3  502    0  0.83119310806E+00 -0.27375987983E+02 -0.29084255769E+02  0.40168419606E+02  0.41800000000E+01 0.  1.
         -5    1    3    3    0  502 -0.21852387410E+02  0.18525588487E+02 -0.65457243146E+03  0.65521238137E+03  0.41800000000E+01 0.  1.
        -11    1    4    4    0    0  0.21127819721E+02 -0.13306868655E+02  0.12491439813E+02  0.27919412389E+02  0.00000000000E+00 0. -1.
         11    1    4    4    0    0 -0.10662541929E+00  0.22157268151E+02 -0.93305489136E+02  0.95900313888E+02  0.00000000000E+00 0.  1.
</event>
<event>
 8    1  0.6648599E-009  0.1205323E+03  0.7561462E-02  0.1242222E+00
          2   -1    0    0  501    0  0.00000000000E+00  0.00000000000E+00  0.10228003945E+04  0.10228003945E+04  0.00000000000E+00 0. -1.
         -2   -1    0    0    0  501 -0.00000000000E+00 -0.00000000000E+00 -0.38644078179E+02  0.38644078179E+02  0.00000000000E+00 0.  1.
         25    2    1    2    0    0 -0.39008625240E+02 -0.99140161312E+02  0.85801501697E+03  0.87360632662E+03  0.12509116730E+03 0.  0.
         23    2    1    2    0    0  0.39008625240E+02  0.99140161312E+02  0.12614129936E+03  0.18783814607E+03  0.89560578860E+02 0.  0.
          5    1    3    3  502    0 -0.35722447696E+02 -0.11010460836E+03  0.85232161714E+03  0.86015622389E+03  0.41800000000E+01 0. -1.
         -5    1    3    3    0  502 -0.32861775439E+01  0.10964447044E+02  0.56933998287E+01  0.13450102730E+02  0.41800000000E+01 0. -1.
        -11    1    4    4    0    0  0.16582597648E+02  0.66292360269E+01  0.80157734118E+02  0.82123027551E+02  0.00000000000E+00 0. -1.
         11    1    4    4    0    0  0.22426027592E+02  0.92510925285E+02  0.45983565239E+02  0.10571511852E+03  0.00000000000E+00 0.  1.
</event>
<event>
 8    1  0.6648599E-009  0.1547485E+03  0.7561462E-02  0.1194757E+00
          2   -1    0    0  501    0  0.00000000000E+00  0.00000000000E+00  0.24200282605E+04  0.24200282605E+04  0.00000000000E+00 0. -1.
         -2   -1    0    0    0  501 -0.00000000000E+00 -0.00000000000E+00 -0.15694408295E+02  0.15694408295E+02  0.00000000000E+00 0.  1.
         25    2    1    2    0    0  0.11773543696E+03  0.65227858377E+02  0.18196029335E+04  0.18288572720E+04  0.12509108404E+03 0.  0.
         23    2    1    2    0    0 -0.11773543696E+03 -0.65227858377E+02  0.58473091873E+03  0.60686539677E+03  0.90879347790E+02 0.  0.
          5    1    3    3  502    0  0.68758236407E+02  0.69463719946E+02  0.16302381712E+04  0.16331708027E+04  0.41800000000E+01 0.  1.
         -5    1    3    3    0  502  0.48977200549E+02 -0.42358615682E+01  0.18936476230E+03  0.19568646938E+03  0.41800000000E+01 0.  1.
        -11    1    4    4    0    0 -0.10651123124E+03 -0.11141327743E+02  0.39433218403E+03  0.40861551968E+03  0.00000000000E+00 0.  1.
         11    1    4    4    0    0 -0.11224205720E+02 -0.54086530635E+02  0.19039873471E+03  0.19824987710E+03  0.00000000000E+00 0. -1.
</event>
<event>
 8    1  0.6648599E-009  0.1354793E+03  0.7561462E-02  0.1219545E+00
          2   -1    0    0  501    0  0.00000000000E+00  0.00000000000E+00  0.16229509190E+04  0.16229509190E+04  0.00000000000E+00 0. -1.
         -2   -1    0    0    0  501 -0.00000000000E+00 -0.00000000000E+00 -0.12409777463E+02  0.12409777463E+02  0.00000000000E+00 0.  1.
         25    2    1    2    0    0 -0.30320453259E+02 -0.85921349962E+02  0.88186392520E+03  0.89533888166E+03  0.12508366071E+03 0.  0.
         23    2    1    2    0    0  0.30320453259E+02  0.85921349962E+02  0.72867721633E+03  0.74002181480E+03  0.91432994660E+02 0.  0.
          5    1    3    3  502    0 -0.13128298464E+02  0.25768769272E+02  0.36903716490E+03  0.37019222462E+03  0.41800000000E+01 0. -1.
         -5    1    3    3    0  502 -0.17192154795E+02 -0.11169011923E+03  0.51282676030E+03  0.52514665704E+03  0.41800000000E+01 0. -1.
        -11    1    4    4    0    0  0.59084331884E+02  0.79723551765E+02  0.58597459170E+03  0.59431727646E+03  0.00000000000E+00 0. -1.
         11    1    4    4    0    0 -0.28763878625E+02  0.61977981975E+01  0.14270262463E+03  0.14570453834E+03  0.00000000000E+00 0.  1.
</event>
<event>
 8    1  0.6648599E-009  0.1053421E+03  0.7561462E-02  0.1269447E+00
         -1   -1    0    0    0  501 -0.00000000000E+00  0.00000000000E+00  0.45235681735E+02  0.45235681735E+02  0.00000000000E+00 0. -1.
          1   -1    0    0  501    0  0.00000000000E+00 -0.00000000000E+00 -0.32168980822E+03  0.32168980822E+03  0.00000000000E+00 0.  1.
         25    2    1    2    0    0  0.37144966970E+02 -0.20678942551E+02 -0.20223575990E+03  0.24157768119E+03  0.12511237440E+03 0.  0.
         23    2    1    2    0    0 -0.37144966970E+02  0.20678942551E+02 -0.74218366582E+02  0.12534780877E+03  0.91631544721E+02 0.  0.
          5    1    3    3  502    0 -0.35321180498E+02  0.21838958944E+01 -0.13631157544E+03  0.14089241708E+03  0.41800000000E+01 0. -1.
         -5    1    3    3    0  502  0.72466147468E+02 -0.22862838445E+02 -0.65924184461E+02  0.10068526410E+03  0.41800000000E+01 0. -1.
        -11    1    4    4    0    0  0.22480392657E+02 -0.17201668461E+02 -0.10425165405E+02  0.30165369641E+02  0.00000000000E+00 0. -1.
         11    1    4    4    0    0 -0.59625359627E+02  0.37880611012E+02 -0.63793201176E+02  0.95182439124E+02  0.00000000000E+00 0.  1.
</event>
<event>
 8    1  0.6648599E-009  0.1161218E+03  0.7561462E-02  0.1249636E+00
         -1   -1    0    0    0  501 -0.00000000000E+00  0.00000000000E+00  0.92810200637E+02  0.92810200637E+02  0.00000000000E+00 0.  1.
          1   -1    0    0  501    0  0.00000000000E+00 -0.00000000000E+00 -0.32496571257E+03  0.32496571257E+03  0.00000000000E+00 0. -1.
         25    2    1    2    0    0  0.48491737184E+02  0.69414000524E+02 -0.24981268881E+03  0.29193311130E+03  0.12509520351E+03 0.  0.
         23    2    1    2    0    0 -0.48491737184E+02 -0.69414000524E+02  0.17657176878E+02  0.12584280190E+03  0.91405048284E+02 0.  0.
          5    1    3    3  502    0 -0.19829213273E+02  0.73826725654E+02 -0.17160891203E+03  0.18791134667E+03  0.41800000000E+01 0.  1.
         -5    1    3    3    0  502  0.68320950457E+02 -0.44127251301E+01 -0.78203776788E+02  0.10402176464E+03  0.41800000000E+01 0.  1.
        -11    1    4    4    0    0 -0.26210295371E+02 -0.53930077057E+02 -0.32951357631E+02  0.68419476500E+02  0.00000000000E+00 0. -1.
         11    1    4    4    0    0 -0.22281441813E+02 -0.15483923467E+02  0.50608534510E+02  0.57423325404E+02  0.00000000000E+00 0.  1.
</event>
<event>
 8    1  0.6648599E-009  0.2215762E+03  0.7561462E-02  0.1132713E+00
          2   -1    0    0  501    0  0.00000000000E+00  0.00000000000E+00  0.56333019964E+03  0.56333019964E+03  0.00000000000E+00 0.  1.
         -2   -1    0    0    0  501 -0.00000000000E+00 -0.00000000000E+00 -0.11268561428E+03  0.11268561428E+03  0.00000000000E+00 0. -1.
         25    2    1    2    0    0  0.18092900766E+03 -0.69165167296E+02  0.72809461107E+02  0.24180066731E+03  0.12508884404E+03 0.  0.
         23    2    1    2    0    0 -0.18092900766E+03  0.69165167296E+02  0.37783512425E+03  0.43421514661E+03  0.90908119784E+02 0.  0.
          5    1    3    3  502    0  0.67462345976E+02 -0.91962052664E+02  0.27147922953E+02  0.11731440396E+03  0.41800000000E+01 0. -1.
         -5    1    3    3    0  502  0.11346666169E+03  0.22796885368E+02  0.45661538154E+02  0.12448626335E+03  0.41800000000E+01 0. -1.
        -11    1    4    4    0    0 -0.10362335041E+03  0.85330268894E+02  0.25516936005E+03  0.28832352635E+03  0.00000000000E+00 0.  1.
         11    1    4    4    0    0 -0.77305657256E+02 -0.16165101598E+02  0.12266576420E+03  0.14589162026E+03  0.00000000000E+00 0. -1.
</event>
<event>
 8    1  0.6648599E-009  0.9641302E+02  0.7561462E-02  0.1288025E+00
         -1   -1    0    0    0  501 -0.00000000000E+00  0.00000000000E+00  0.17275015648E+03  0.17275015648E+03  0.00000000000E+00 0.  1.
          1   -1    0    0  501    0  0.00000000000E+00 -0.00000000000E+00 -0.93456011693E+02  0.93456011693E+02  0.00000000000E+00 0. -1.
         25    2    1    2    0    0  0.40738280901E+02  0.52297019530E+02  0.50846395304E+02  0.15042365397E+03  0.12508930401E+03 0.  0.
         23    2    1    2    0    0 -0.40738280901E+02 -0.52297019530E+02  0.28447749484E+02  0.11578251420E+03  0.90563405198E+02 0.  0.
          5    1    3    3  502    0 -0.44191570217E+01  0.59994124763E+02 -0.22067404109E+02  0.64212667590E+02  0.41800000000E+01 0. -1.
         -5    1    3    3    0  502  0.45157437923E+02 -0.76971052330E+01  0.72913799413E+02  0.86210986385E+02  0.41800000000E+01 0. -1.
        -11    1    4    4    0    0 -0.52416510689E+02 -0.27674489528E+02  0.52691285544E+02  0.79307878144E+02  0.00000000000E+00 0. -1.
         11    1    4    4    0    0  0.11678229788E+02 -0.24622530003E+02 -0.24243536059E+02  0.36474636055E+02  0.00000000000E+00 0.  1.
</event>
<event>
 8    1  0.6648599E-009  0.7585951E+02  0.7561462E-02  0.1341230E+00
         -2   -1    0    0    0  501 -0.00000000000E+00  0.00000000000E+00  0.18705231921E+02  0.18705231921E+02  0.00000000000E+00 0.  1.
          2   -1    0    0  501    0  0.00000000000E+00 -0.00000000000E+00 -0.66063354228E+03  0.66063354228E+03  0.00000000000E+00 0. -1.
         25    2    1    2    0    0  0.19674549909E+02  0.18259514304E+02 -0.33022525233E+03  0.35414235746E+03  0.12509034453E+03 0.  0.
         23    2    1    2    0    0 -0.19674549909E+02 -0.18259514304E+02 -0.31170305803E+03  0.32519641675E+03  0.88732267519E+02 0.  0.
          5    1    3    3  502    0  0.24823471390E+02 -0.12974010779E+02 -0.67734861134E+01  0.29118416881E+02  0.41800000000E+01 0. -1.
         -5    1    3    3    0  502 -0.51489214812E+01  0.31233525083E+02 -0.32345176621E+03  0.32502394058E+03  0.41800000000E+01 0. -1.
        -11    1    4    4    0    0 -0.42259909846E+02  0.20222546608E+02 -0.18598163034E+03  0.19179160095E+03  0.00000000000E+00 0.  1.
         11    1    4    4    0    0  0.22585359937E+02 -0.38482060912E+02 -0.12572142769E+03  0.13340481579E+03  0.00000000000E+00 0. -1.
</event>
<event>
 8    1  0.6648599E-009  0.7426963E+02  0.7561462E-02  0.1346148E+00
         -2   -1    0    0    0  501 -0.00000000000E+00  0.00000000000E+00  0.16924289081E+02  0.16924289081E+02  0.00000000000E+00 0. -1.
          2   -1    0    0  501    0  0.00000000000E+00 -0.00000000000E+00 -0.71110125009E+03  0.71110125009E+03  0.00000000000E+00 0.  1.
         25    2    1    2    0    0  0.59998839961E+01 -0.78470213717E+01 -0.34297928802E+03  0.36521200316E+03  0.12508973136E+03 0.  0.
         23    2    1    2    0    0 -0.59998839961E+01  0.78470213717E+01 -0.35119767299E+03  0.36281353601E+03  0.90533320077E+02 0.  0.
          5    1    3    3  502    0  0.27200770260E+02  0.11907429684E+02 -0.10993035217E+02  0.31937251098E+02  0.41800000000E+01 0.  1.
         -5    1    3    3    0  502 -0.21200886264E+02 -0.19754451055E+02 -0.33198625280E+03  0.33327475206E+03  0.41800000000E+01 0.  1.
        -11    1    4    4    0    0 -0.28685400385E+02  0.40430508463E+02 -0.22988132411E+03  0.23516568921E+03  0.00000000000E+00 0.  1.
         11    1    4    4    0    0  0.22685516389E+02 -0.32583487091E+02 -0.12131634888E+03  0.12764784679E+03  0.00000000000E+00 0. -1.
</event>
<event>
 8    1  0.6648599E-009  0.2484417E+03  0.7561462E-02  0.1114294E+00
         -2   -1    0    0    0  501 -0.00000000000E+00  0.00000000000E+00  0.11927954753E+03  0.11927954753E+03  0.00000000000E+00 0.  1.
          2   -1    0    0  501    0  0.00000000000E+00 -0.00000000000E+00 -0.65292316855E+03  0.65292316855E+03  0.00000000000E+00 0. -1.
         25    2    1    2    0    0 -0.17378421042E+03 -0.15228404940E+03 -0.11812450427E+03  0.28808175234E+03  0.12508522705E+03 0.  0.
         23    2    1    2    0    0  0.17378421042E+03  0.15228404940E+03 -0.41551911674E+03  0.48412096374E+03  0.91244658259E+02 0.  0.
          5    1    3    3  502    0  0.12000743203E+02 -0.42718853678E+02 -0.35851213105E+02  0.57198777768E+02  0.41800000000E+01 0.  1.
         -5    1    3    3    0  502 -0.18578495363E+03 -0.10956519572E+03 -0.82273291169E+02  0.23088297457E+03  0.41800000000E+01 0.  1.
        -11    1    4    4    0    0  0.93689441048E+02  0.11473574494E+03 -0.18360183333E+03  0.23590598918E+03  0.00000000000E+00 0. -1.
         11    1    4    4    0    0  0.80094769374E+02  0.37548304463E+02 -0.23191728341E+03  0.24821497456E+03  0.00000000000E+00 0.  1.
</event>
<event>
 8    1  0.6648599E-009  0.7130157E+02  0.7561462E-02  0.1355722E+00
         -1   -1    0    0    0  501 -0.00000000000E+00  0.00000000000E+00  0.38460335421E+03  0.38460335421E+03  0.00000000000E+00 0.  1.
          1   -1    0    0  501    0  0.00000000000E+00 -0.00000000000E+00 -0.46704347541E+02  0.46704347541E+02  0.00000000000E+00 0. -1.
         25    2    1    2    0    0 -0.35268960704E+02  0.49757987632E+02  0.26593790567E+03  0.30015005504E+03  0.12508928390E+03 0.  0.
         23    2    1    2    0    0  0.35268960704E+02 -0.49757987632E+02  0.71961101008E+02  0.13115764672E+03  0.91127225965E+02 0.  0.
          5    1    3    3  502    0 -0.75722091588E+01  0.29492424497E+01 -0.13020998865E+02  0.15907708635E+02  0.41800000000E+01 0. -1.
         -5    1    3    3    0  502 -0.27696751545E+02  0.46808745182E+02  0.27895890453E+03  0.28424234640E+03  0.41800000000E+01 0. -1.
        -11    1    4    4    0    0 -0.12041018971E+02 -0.18972432361E+02 -0.15333625460E+02  0.27204032739E+02  0.00000000000E+00 0. -1.
         11    1    4    4    0    0  0.47309979675E+02 -0.30785555271E+02  0.87294726468E+02  0.10395361398E+03  0.00000000000E+00 0.  1.
</event>
<event>
 8    1  0.6648599E-009  0.1634404E+03  0.7561462E-02  0.1184866E+00
         -3   -1    0    0    0  501 -0.00000000000E+00  0.00000000000E+00  0.26947762771E+03  0.26947762771E+03  0.00000000000E+00 0.  1.
          3   -1    0    0  501    0  0.00000000000E+00 -0.00000000000E+00 -0.10327376804E+03  0.10327376804E+03  0.00000000000E+00 0. -1.
         25    2    1    2    0    0  0.78067057149E+02  0.96136543798E+02  0.98385649942E+02  0.20165328294E+03  0.12509040707E+03 0.  0.
         23    2    1    2    0    0 -0.78067057149E+02 -0.96136543798E+02  0.67818209727E+02  0.17109811281E+03  0.96636194937E+02 0.  0.
          5    1    3    3  502    0  0.81659043646E+02  0.12032689579E+03  0.63233790016E+02  0.15862769575E+03  0.41800000000E+01 0.  1.
         -5    1    3    3    0  502 -0.35919864969E+01 -0.24190351992E+02  0.35151859927E+02  0.43025587187E+02  0.41800000000E+01 0.  1.
        -11    1    4    4    0    0 -0.87162983193E+02 -0.33629045942E+02  0.33779126768E+02  0.99344490412E+02  0.00000000000E+00 0. -1.
         11    1    4    4    0    0  0.90959260433E+01 -0.62507497856E+02  0.34039082959E+02  0.71753622400E+02  0.00000000000E+00 0.  1.
</event>
<event>
 8    1  0.6648599E-009  0.2258236E+03  0.7561462E-02  0.1129614E+00
         -2   -1    0    0    0  501 -0.00000000000E+00  0.00000000000E+00  0.29111914647E+02  0.29111914647E+02  0.00000000000E+00 0. -1.
          2   -1    0    0  501    0  0.00000000000E+00 -0.00000000000E+00 -0.20467532098E+04  0.20467532098E+04  0.00000000000E+00 0.  1.
         25    2    1    2    0    0 -0.18923780454E+03 -0.78404721077E+02 -0.13699901106E+04  0.13908548922E+04  0.12508469563E+03 0.  0.
         23    2    1    2    0    0  0.18923780454E+03  0.78404721077E+02 -0.64765118453E+03  0.68501023222E+03  0.88480022974E+02 0.  0.
          5    1    3    3  502    0  0.89511946117E+01 -0.34441265582E+02 -0.16164974573E+03  0.16557305746E+03  0.41800000000E+01 0.  1.
         -5    1    3    3    0  502 -0.19818899915E+03 -0.43963455494E+02 -0.12083403649E+04  0.12252818348E+04  0.41800000000E+01 0.  1.
        -11    1    4    4    0    0  0.11933018445E+03  0.78544414274E+02 -0.32728803625E+03  0.35710835415E+03  0.00000000000E+00 0. -1.
         11    1    4    4    0    0  0.69907620084E+02 -0.13969319775E+00 -0.32036314829E+03  0.32790187807E+03  0.00000000000E+00 0.  1.
</event>
<event>
 8    1  0.6648599E-009  0.1591908E+03  0.7561462E-02  0.1189613E+00
          1   -1    0    0  501    0  0.00000000000E+00  0.00000000000E+00  0.20868046152E+02  0.20868046152E+02  0.00000000000E+00 0. -1.
         -1   -1    0    0    0  501 -0.00000000000E+00 -0.00000000000E+00 -0.18328816920E+04  0.18328816920E+04  0.00000000000E+00 0.  1.
         25    2    1    2    0    0 -0.10567971164E+03 -0.10488151859E+03 -0.12965624443E+04  0.13110642428E+04  0.12508773883E+03 0.  0.
         23    2    1    2    0    0  0.10567971164E+03  0.10488151859E+03 -0.51545120160E+03  0.54268549540E+03  0.81543064024E+02 0.  0.
          5    1    3    3  502    0  0.12786260681E+02 -0.48832012950E+01 -0.46156887035E+03  0.46179067616E+03  0.41800000000E+01 0. -1.
         -5    1    3    3    0  502 -0.11846597232E+03 -0.99998317291E+02 -0.83499357394E+03  0.84927356663E+03  0.41800000000E+01 0. -1.
        -11    1    4    4    0    0  0.47136612397E+02  0.50525575176E+02 -0.11355419528E+03  0.13292572829E+03  0.00000000000E+00 0. -1.
         11    1    4    4    0    0  0.58543099242E+02  0.54355943410E+02 -0.40189700632E+03  0.40975976711E+03  0.00000000000E+00 0.  1.
</event>
<event>
 8    1  0.6648599E-009  0.1758067E+03  0.7561462E-02  0.1171924E+00
         -2   -1    0    0    0  501 -0.00000000000E+00  0.00000000000E+00  0.73948836397E+02  0.73948836397E+02  0.00000000000E+00 0. -1.
          2   -1    0    0  501    0  0.00000000000E+00 -0.00000000000E+00 -0.77623966646E+03  0.77623966646E+03  0.00000000000E+00 0.  1.
         25    2    1    2    0    0  0.15082928962E+03 -0.23722036547E+02 -0.62709293610E+03  0.65742313239E+03  0.12508962737E+03 0.  0.
         23    2    1    2    0    0 -0.15082928962E+03  0.23722036547E+02 -0.75197893969E+02  0.19276537047E+03  0.90507210602E+02 0.  0.
          5    1    3    3  502    0  0.11180193458E+03 -0.70862622019E+02 -0.36606352737E+03  0.38928288204E+03  0.41800000000E+01 0.  1.
         -5    1    3    3    0  502  0.39027355031E+02  0.47140585472E+02 -0.26102940872E+03  0.26814025035E+03  0.41800000000E+01 0.  1.
        -11    1    4    4    0    0 -0.88538622214E+02 -0.61557180716E+01 -0.85117413701E+02  0.12297135684E+03  0.00000000000E+00 0.  1.
         11    1    4    4    0    0 -0.62290667401E+02  0.29877754619E+02  0.99195197323E+01  0.69794013627E+02  0.00000000000E+00 0. -1.
</event>
<event>
 8    1  0.6648599E-009  0.1207378E+03  0.7561462E-02  0.1241885E+00
         -1   -1    0    0    0  501 -0.00000000000E+00  0.00000000000E+00  0.32988153641E+02  0.32988153641E+02  0.00000000000E+00 0.  1.
          1   -1    0    0  501    0  0.00000000000E+00 -0.00000000000E+00 -0.69694759058E+03  0.69694759058E+03  0.00000000000E+00 0. -1.
         25    2    1    2    0    0  0.10096830658E+03  0.16778920238E+02 -0.41472554615E+03  0.44510874217E+03  0.12509349555E+03 0.  0.
         23    2    1    2    0    0 -0.10096830658E+03 -0.16778920238E+02 -0.24923389078E+03  0.28482700204E+03  0.92372927198E+02 0.  0.
          5    1    3    3  502    0  0.97502878952E+02  0.14670913303E+02 -0.42335052813E+03  0.43470126428E+03  0.41800000000E+01 0.  1.
         -5    1    3    3    0  502  0.34654276323E+01  0.21080069353E+01  0.86249819786E+01  0.10407477891E+02  0.41800000000E+01 0.  1.
        -11    1    4    4    0    0 -0.10769247249E+03  0.11119305552E+02 -0.20940474527E+03  0.23573640985E+03  0.00000000000E+00 0. -1.
         11    1    4    4    0    0  0.67241659107E+01 -0.27898225790E+02 -0.39829145510E+02  0.49090592189E+02  0.00000000000E+00 0.  1.
</event>
<event>
 8    1  0.6648599E-009  0.2574361E+03  0.7561462E-02  0.1108694E+00
         -1   -1    0    0    0  501 -0.00000000000E+00  0.00000000000E+00  0.41610859876E+03  0.41610859876E+03  0.00000000000E+00 0.  1.
          1   -1    0    0  501    0  0.00000000000E+00 -0.00000000000E+00 -0.18133609908E+03  0.18133609908E+03  0.00000000000E+00 0. -1.
         25    2    1    2    0    0  0.12485530578E+03 -0.21518521331E+03  0.16629765926E+03  0.32433932486E+03  0.12509021850E+03 0.  0.
         23    2    1    2    0    0 -0.12485530578E+03  0.21518521331E+03  0.68474840413E+02  0.27310537298E+03  0.89466292942E+02 0.  0.
          5    1    3    3  502    0  0.10590257179E+03 -0.15832820995E+03  0.55741641700E+02  0.19851392847E+03  0.41800000000E+01 0. -1.
         -5    1    3    3    0  502  0.18952733993E+02 -0.56857003356E+02  0.11055601756E+03  0.12582539639E+03  0.41800000000E+01 0. -1.
        -11    1    4    4    0    0 -0.67023993539E+02  0.18947068294E+03  0.48618648265E+02  0.20677313260E+03  0.00000000000E+00 0.  1.
         11    1    4    4    0    0 -0.57831312245E+02  0.25714530367E+02  0.19856192148E+02  0.66332240386E+02  0.00000000000E+00 0. -1.
</event>
<event>
 8    1  0.6648599E-009  0.7850229E+02  0.7561462E-02  0.1333356E+00
          2   -1    0    0  501    0  0.00000000000E+00  0.00000000000E+00  0.15598569046E+03  0.15598569046E+03  0.00000000000E+00 0. -1.
         -2   -1    0    0    0  501 -0.00000000000E+00 -0.00000000000E+00 -0.85728124055E+02  0.85728124055E+02  0.00000000000E+00 0.  1.
         25    2    1    2    0    0 -0.22709746509E+02 -0.14149400527E+02 -0.17266508378E+02  0.12907731007E+03  0.12508749554E+03 0.  0.
         23    2    1    2    0    0  0.22709746509E+02  0.14149400527E+02  0.87524074780E+02  0.11263650445E+03  0.65655010058E+02 0.  0.
          5    1    3    3  502    0  0.93474445773E+01 -0.47939097468E+02  0.34021965069E+02  0.59669911123E+02  0.41800000000E+01 0. -1.
         -5    1    3    3    0  502 -0.32057191086E+02  0.33789696941E+02 -0.51288473447E+02  0.69407398945E+02  0.41800000000E+01 0. -1.
        -11    1    4    4    0    0  0.36515037496E+01  0.33711702648E+02  0.18997373912E+02  0.38867886367E+02  0.00000000000E+00 0. -1.
         11    1    4    4    0    0  0.19058242759E+02 -0.19562302121E+02  0.68526700868E+02  0.73768618079E+02  0.00000000000E+00 0.  1.
</event>
<event>
 8    1  0.6648599E-009  0.1561702E+03  0.7561462E-02  0.1193090E+00
         -1   -1    0    0    0  501 -0.00000000000E+00  0.00000000000E+00  0.45111405536E+02  0.45111405536E+02  0.00000000000E+00 0.  1.
          1   -1    0    0  501    0  0.00000000000E+00 -0.00000000000E+00 -0.61418375049E+03  0.61418375049E+03  0.00000000000E+00 0. -1.
         25    2    1    2    0    0  0.47721817788E+02 -0.11569816639E+03 -0.26528579695E+03  0.31888437545E+03  0.12508898130E+03 0.  0.
         23    2    1    2    0    0 -0.47721817788E+02  0.11569816639E+03 -0.30378654801E+03  0.34041078058E+03  0.89049397444E+02 0.  0.
          5    1    3    3  502    0 -0.10329340104E+02  0.13257422687E+02 -0.99228760091E+02  0.10072871364E+03  0.41800000000E+01 0. -1.
         -5    1    3    3    0  502  0.58051157892E+02 -0.12895558908E+03 -0.16605703686E+03  0.21815566180E+03  0.41800000000E+01 0. -1.
        -11    1    4    4    0    0 -0.52624747072E+02  0.17849659812E+02 -0.10540435232E+03  0.11915557833E+03  0.00000000000E+00 0. -1.
         11    1    4    4    0    0  0.49029292840E+01  0.97848506580E+02 -0.19838219569E+03  0.22125520225E+03  0.00000000000E+00 0.  1.
</event>
<event>
 8    1  0.6648599E-009  0.1226308E+03  0.7561462E-02  0.1238819E+00
         -1   -1    0    0    0  501 -0.00000000000E+00  0.00000000000E+00  0.15912076394E+02  0.15912076394E+02  0.00000000000E+00 0.  1.
          1   -1    0    0  501    0  0.00000000000E+00 -0.00000000000E+00 -0.18930056769E+04  0.18930056769E+04  0.00000000000E+00 0. -1.
         25    2    1    2    0    0  0.10343396995E+03 -0.74437586637E+01 -0.14681668512E+04  0.14771307398E+04  0.12508926340E+03 0.  0.
         23    2    1    2    0    0 -0.10343396995E+03  0.74437586637E+01 -0.40892674928E+03  0.43178701347E+03  0.92005125073E+02 0.  0.
          5    1    3    3  502    0  0.34452131377E+02 -0.45592496379E+02 -0.25320295275E+03  0.25960514780E+03  0.41800000000E+01 0. -1.
         -5    1    3    3    0  502  0.68981838576E+02  0.38148737715E+02 -0.12149638984E+04  0.12175255920E+04  0.41800000000E+01 0. -1.
        -11    1    4    4    0    0 -0.32382001234E+02  0.18226858359E+02 -0.35102239521E+02  0.51117312028E+02  0.00000000000E+00 0.  1.
         11    1    4    4    0    0 -0.71051968718E+02 -0.10783099696E+02 -0.37382450976E+03  0.38066970144E+03  0.00000000000E+00 0. -1.
</event>
<event>
 8    1  0.6648599E-009  0.1048778E+03  0.7561462E-02  0.1270361E+00
          2   -1    0    0  501    0  0.00000000000E+00  0.00000000000E+00  0.27236903324E+02  0.27236903324E+02  0.00000000000E+00 0. -1.
         -2   -1    0    0    0  501 -0.00000000000E+00 -0.00000000000E+00 -0.70446715353E+03  0.70446715353E+03  0.00000000000E+00 0.  1.
         25    2    1    2    0    0  0.15904168748E+02  0.70823026902E+02 -0.49983319055E+03  0.52033838008E+03  0.12509983086E+03 0.  0.
         23    2    1    2    0    0 -0.15904168748E+02 -0.70823026902E+02 -0.17739705965E+03  0.21136567678E+03  0.89089218327E+02 0.  0.
          5    1    3    3  502    0 -0.34183538270E+02 -0.13871953971E+02 -0.23240443977E+03  0.23535131489E+03  0.41800000000E+01 0.  1.
         -5    1    3    3    0  502  0.50087707017E+02  0.84694980873E+02 -0.26742875078E+03  0.28498706519E+03  0.41800000000E+01 0.  1.
        -11    1    4    4    0    0 -0.56914678168E+00 -0.37011709654E+02 -0.78993649825E+01  0.37849577893E+02  0.00000000000E+00 0. -1.
         11    1    4    4    0    0 -0.15335021966E+02 -0.33811317248E+02 -0.16949769467E+03  0.17351609888E+03  0.00000000000E+00 0.  1.
</event>
<event>
 8    1  0.6648599E-009  0.8975971E+02  0.7561462E-02  0.1303435E+00
         -2   -1    0    0    0  501 -0.00000000000E+00  0.00000000000E+00  0.11143263361E+02  0.11143263361E+02  0.00000000000E+00 0. -1.
          2   -1    0    0  501    0  0.00000000000E+00 -0.00000000000E+00 -0.15620404619E+04  0.15620404619E+04  0.00000000000E+00 0.  1.
         25    2    1    2    0    0 -0.10520431465E+02  0.59759994575E+01 -0.12996618337E+04  0.13057236144E+04  0.12508750134E+03 0.  0.
         23    2    1    2    0    0  0.10520431465E+02 -0.59759994575E+01 -0.25123536479E+03  0.26746011088E+03  0.90935748443E+02 0.  0.
          5    1    3    3  502    0 -0.61910345954E+01 -0.44448740252E+02 -0.20553618110E+03  0.21042008830E+03  0.41800000000E+01 0.  1.
         -5    1    3    3    0  502 -0.43293968700E+01  0.50424739709E+02 -0.10941256526E+04  0.10953035261E+04  0.41800000000E+01 0.  1.
        -11    1    4    4    0    0  0.30339439367E+02 -0.36380516400E+02 -0.19390337222E+03  0.19960596513E+03  0.00000000000E+00 0.  1.
         11    1    4    4    0    0 -0.19819007901E+02  0.30404516943E+02 -0.57331992567E+02  0.67854145757E+02  0.00000000000E+00 0. -1.
</event>
<event>
 8    1  0.6648599E-009  0.7560413E+02  0.7561462E-02  0.1342010E+00
         -2   -1    0    0    0  501 -0.00000000000E+00  0.00000000000E+00  0.15246956823E+03  0.15246956823E+03  0.00000000000E+00 0.  1.
          2   -1    0    0  501    0  0.00000000000E+00 -0.00000000000E+00 -0.83039775781E+02  0.83039775781E+02  0.00000000000E+00 0. -1.
         25    2    1    2    0    0  0.21504260207E+02  0.36808930845E+01  0.65605400559E+02  0.14292691762E+03  0.12509217808E+03 0.  0.
         23    2    1    2    0    0 -0.21504260207E+02 -0.36808930845E+01  0.38243918948E+01  0.92582426396E+02  0.89893812485E+02 0.  0.
          5    1    3    3  502    0 -0.50035245024E+02 -0.15033746926E+02  0.20966108538E+02  0.56449883954E+02  0.41800000000E+01 0.  1.
         -5    1    3    3    0  502  0.71539505231E+02  0.18714640010E+02  0.44639292021E+02  0.86477033665E+02  0.41800000000E+01 0.  1.
        -11    1    4    4    0    0 -0.12163226083E+02  0.38227099392E+01 -0.42688124313E+02  0.44551466164E+02  0.00000000000E+00 0. -1.
         11    1    4    4    0    0 -0.93410341233E+01 -0.75036030237E+01  0.46512516208E+02  0.48030960232E+02  0.00000000000E+00 0.  1.
</event>
<event>
 8    1  0.6648599E-009  0.1705439E+03  0.7561462E-02  0.1177282E+00
          1   -1    0    0  501    0  0.00000000000E+00  0.00000000000E+00  0.36535996696E+03  0.36535996696E+03  0.00000000000E+00 0. -1.
         -1   -1    0    0    0  501 -0.00000000000E+00 -0.00000000000E+00 -0.12580831745E+03  0.12580831745E+03  0.00000000000E+00 0.  1.
         25    2    1    2    0    0 -0.14263754440E+03 -0.85847661970E+02  0.21761753142E+03  0.30119831842E+03  0.12509095450E+03 0.  0.
         23    2    1    2    0    0  0.14263754440E+03  0.85847661970E+02  0.21934118083E+02  0.18996996599E+03  0.88838011591E+02 0.  0.
          5    1    3    3  502    0 -0.49925868744E+02 -0.12495202771E+02  0.16285208100E+03  0.17084201810E+03  0.41800000000E+01 0. -1.
         -5    1    3    3    0  502 -0.92711675659E+02 -0.73352459199E+02  0.54765450425E+02  0.13035630032E+03  0.41800000000E+01 0. -1.
        -11    1    4    4    0    0  0.36087385759E+02  0.43452210463E+02 -0.30143912168E+02  0.64023819363E+02  0.00000000000E+00 0.  1.
         11    1    4    4    0    0  0.10655015864E+03  0.42395451508E+02  0.52078030251E+02  0.12594614663E+03  0.00000000000E+00 0. -1.
</event>
<event>
 8    1  0.6648599E-009  0.1682878E+03  0.7561462E-02  0.1179645E+00
         -1   -1    0    0    0  501 -0.00000000000E+00  0.00000000000E+00  0.35689350137E+03  0.35689350137E+03  0.00000000000E+00 0.  1.
          1   -1    0    0  501    0  0.00000000000E+00 -0.00000000000E+00 -0.11208040713E+03  0.11208040713E+03  0.00000000000E+00 0. -1.
         25    2    1    2    0    0  0.16324964847E+03  0.30561217225E+02  0.99288411642E+02  0.23041235413E+03  0.12508888251E+03 0.  0.
         23    2    1    2    0    0 -0.16324964847E+03 -0.30561217225E+02  0.14552468260E+03  0.23856155436E+03  0.90275945021E+02 0.  0.
          5    1    3    3  502    0  0.74607179037E+02  0.26438645097E+02  0.11552651185E+03  0.14010382028E+03  0.41800000000E+01 0.  1.
         -5    1    3    3    0  502  0.88642469434E+02  0.41225721284E+01 -0.16238100204E+02  0.90308533852E+02  0.41800000000E+01 0.  1.
        -11    1    4    4    0    0 -0.66623771572E+01 -0.77748456943E+01 -0.11664399779E+02  0.15520751179E+02  0.00000000000E+00 0. -1.
         11    1    4    4    0    0 -0.15658727131E+03 -0.22786371531E+02  0.15718908238E+03  0.22304080318E+03  0.00000000000E+00 0.  1.
</event>
<event>
 8    1  0.6648599E-009  0.8823794E+02  0.7561462E-02  0.1307176E+00
         -2   -1    0    0    0  501 -0.00000000000E+00  0.00000000000E+00  0.32495318181E+02  0.32495318181E+02  0.00000000000E+00 0.  1.
          2   -1    0    0  501    0  0.00000000000E+00 -0.00000000000E+00 -0.64325096862E+03  0.64325096862E+03  0.00000000000E+00 0. -1.
         25    2    1    2    0    0 -0.54050050826E+02  0.24430229257E+02 -0.50451588243E+03  0.52316531176E+03  0.12508966271E+03 0.  0.
         23    2    1    2    0    0  0.54050050826E+02 -0.24430229257E+02 -0.10623976801E+03  0.15258097504E+03  0.92064225080E+02 0.  0.
          5    1    3    3  502    0  0.37734419621E+01 -0.25580065863E+02 -0.20852903872E+02  0.33479764541E+02  0.41800000000E+01 0. -1.
         -5    1    3    3    0  502 -0.57823492788E+02  0.50010295120E+02 -0.48366297855E+03  0.48968554722E+03  0.41800000000E+01 0. -1.
        -11    1    4    4    0    0 -0.63747198724E+00 -0.18723947365E+02 -0.94523344413E+02  0.96362104660E+02  0.00000000000E+00 0. -1.
         11    1    4    4    0    0  0.54687522813E+02 -0.57062818913E+01 -0.11716423601E+02  0.56218870377E+02  0.00000000000E+00 0.  1.
</event>
<event>
 8    1  0.6648599E-009  0.1465264E+03  0.7561462E-02  0.1204807E+00
         -1   -1    0    0    0  501 -0.00000000000E+00  0.00000000000E+00  0.31333644852E+02  0.31333644852E+02  0.00000000000E+00 0.  1.
          1   -1    0    0  501    0  0.00000000000E+00 -0.00000000000E+00 -0.70219939560E+03  0.70219939560E+03  0.00000000000E+00 0. -1.
         25    2    1    2    0    0 -0.79093655203E+02  0.51376222263E+02 -0.32665485742E+03  0.36227929563E+03  0.12509024607E+03 0.  0.
         23    2    1    2    0    0  0.79093655203E+02 -0.51376222263E+02 -0.34421089333E+03  0.37125374482E+03  0.10223933415E+03 0.  0.
          5    1    3    3  502    0 -0.68807533121E+02  0.91663352973E+02 -0.23153466573E+03  0.25838425016E+03  0.41800000000E+01 0.  1.
         -5    1    3    3    0  502 -0.10286122083E+02 -0.40287130710E+02 -0.95120191683E+02  0.10389504547E+03  0.41800000000E+01 0.  1.
        -11    1    4    4    0    0  0.25778151607E+02  0.29831906770E+02 -0.13402317325E+03  0.13970206416E+03  0.00000000000E+00 0.  1.
         11    1    4    4    0    0  0.53315503596E+02 -0.81208129033E+02 -0.21018772008E+03  0.23155168066E+03  0.00000000000E+00 0. -1.
</event>
<event>
 8    1  0.6648599E-009  0.2016969E+03  0.7561462E-02  0.1148315E+00
         -2   -1    0    0    0  501 -0.00000000000E+00  0.00000000000E+00  0.70091369469E+02  0.70091369469E+02  0.00000000000E+00 0.  1.
          2   -1    0    0  501    0  0.00000000000E+00 -0.00000000000E+00 -0.84777031827E+03  0.84777031827E+03  0.00000000000E+00 0. -1.
         25    2    1    2    0    0 -0.83137644334E+02  0.16367036626E+03 -0.62508495916E+03  0.66338330365E+03  0.12508534969E+03 0.  0.
         23    2    1    2    0    0  0.83137644334E+02 -0.16367036626E+03 -0.15259398965E+03  0.25447838409E+03  0.88172930055E+02 0.  0.
          5    1    3    3  502    0 -0.79824640459E+02  0.48794236436E+02 -0.39762923395E+03  0.40850866677E+03  0.41800000000E+01 0.  1.
         -5    1    3    3    0  502 -0.33130038746E+01  0.11487612982E+03 -0.22745572520E+03  0.25487463688E+03  0.41800000000E+01 0.  1.
        -11    1    4    4    0    0  0.53713191569E+02 -0.38307317852E+02 -0.18392194983E+02  0.68489637069E+02  0.00000000000E+00 0.  1.
         11    1    4    4    0    0  0.29424452765E+02 -0.12536304841E+03 -0.13420179466E+03  0.18598874702E+03  0.00000000000E+00 0. -1.
</event>
<event>
 8    1  0.6648599E-009  0.1646688E+03  0.7561462E-02  0.1183524E+00
         -1   -1    0    0    0  501 -0.00000000000E+00  0.00000000000E+00  0.33592280314E+03  0.33592280314E+03  0.00000000000E+00 0.  1.
          1   -1    0    0  501    0  0.00000000000E+00 -0.00000000000E+00 -0.11028510140E+03  0.11028510140E+03  0.00000000000E+00 0. -1.
         25    2    1    2    0    0  0.15376607646E+03  0.17434507095E+01  0.72037569093E+02  0.21091289823E+03  0.12509114032E+03 0.  0.
         23    2    1    2    0    0 -0.15376607646E+03 -0.17434507095E+01  0.15360013264E+03  0.23529500632E+03  0.90131533656E+02 0.  0.
          5    1    3    3  502    0  0.15162310938E+02 -0.12710885878E+02  0.68529293621E+02  0.71450673734E+02  0.41800000000E+01 0. -1.
         -5    1    3    3    0  502  0.13860376552E+03  0.14454336588E+02  0.35082754716E+01  0.13946222449E+03  0.41800000000E+01 0. -1.
        -11    1    4    4    0    0 -0.40967980819E+02  0.31973208602E+02  0.83276738784E+02  0.98161482992E+02  0.00000000000E+00 0. -1.
         11    1    4    4    0    0 -0.11279809564E+03 -0.33716659312E+02  0.70323393860E+02  0.13713352333E+03  0.00000000000E+00 0.  1.
</event>
<event>
 8    1  0.6648599E-009  0.1321068E+03  0.7561462E-02  0.1224363E+00
         -1   -1    0    0    0  501 -0.00000000000E+00  0.00000000000E+00  0.63673882391E+03  0.63673882391E+03  0.00000000000E+00 0.  1.
          1   -1    0    0  501    0  0.00000000000E+00 -0.00000000000E+00 -0.47543566010E+02  0.47543566010E+02  0.00000000000E+00 0. -1.
         25    2    1    2    0    0  0.11476635216E+03 -0.10262716816E+02  0.17371261778E+03  0.24310513891E+03  0.12508955209E+03 0.  0.
         23    2    1    2    0    0 -0.11476635216E+03  0.10262716816E+02  0.41548264012E+03  0.44117725101E+03  0.93460706345E+02 0.  0.
          5    1    3    3  502    0  0.41106819205E+02 -0.31567686704E+02  0.15580428298E+03  0.16425205151E+03  0.41800000000E+01 0. -1.
         -5    1    3    3    0  502  0.73659532952E+02  0.21304969888E+02  0.17908334799E+02  0.78853087396E+02  0.41800000000E+01 0. -1.
        -11    1    4    4    0    0 -0.43176188757E+02 -0.30666923672E+02  0.81732337624E+02  0.97390032840E+02  0.00000000000E+00 0. -1.
         11    1    4    4    0    0 -0.71590163399E+02  0.40929640488E+02  0.33375030249E+03  0.34378721817E+03  0.00000000000E+00 0.  1.
</event>
<event>
 8    1  0.6648599E-009  0.1444457E+03  0.7561462E-02  0.1207469E+00
         -1   -1    0    0    0  501 -0.00000000000E+00  0.00000000000E+00  0.82413603305E+02  0.82413603305E+02  0.00000000000E+00 0.  1.
          1   -1    0    0  501    0  0.00000000000E+00 -0.00000000000E+00 -0.34025214721E+03  0.34025214721E+03  0.00000000000E+00 0. -1.
         25    2    1    2    0    0  0.20832916835E+02 -0.11434596557E+03 -0.20163299179E+03  0.26423448123E+03  0.12511989220E+03 0.  0.
         23    2    1    2    0    0 -0.20832916835E+02  0.11434596557E+03 -0.56205552117E+02  0.15843126929E+03  0.91828060718E+02 0.  0.
          5    1    3    3  502    0 -0.26740520743E+02 -0.14989617503E+02  0.37214085499E+01  0.31161921701E+02  0.41800000000E+01 0.  1.
         -5    1    3    3    0  502  0.47573437578E+02 -0.99356348065E+02 -0.20535440034E+03  0.23307255952E+03  0.41800000000E+01 0.  1.
        -11    1    4    4    0    0 -0.57140286181E+02  0.67215416660E+02 -0.27748477884E+02  0.92481903995E+02  0.00000000000E+00 0. -1.
         11    1    4    4    0    0  0.36307369346E+02  0.47130548908E+02 -0.28457074233E+02  0.65949365297E+02  0.00000000000E+00 0.  1.
</event>
<event>
 8    1  0.6648599E-009  0.2311712E+03  0.7561462E-02  0.1125818E+00
          2   -1    0    0  501    0  0.00000000000E+00  0.00000000000E+00  0.43744788222E+03  0.43744788222E+03  0.00000000000E+00 0. -1.
         -2   -1    0    0    0  501 -0.00000000000E+00 -0.00000000000E+00 -0.13306990995E+03  0.13306990995E+03  0.00000000000E+00 0.  1.
         25    2    1    2    0    0  0.97060485677E+02 -0.19169453669E+03  0.15770022139E+03  0.29442270410E+03  0.12509130899E+03 0.  0.
         23    2    1    2    0    0 -0.97060485677E+02  0.19169453669E+03  0.14667775088E+03  0.27609508807E+03  0.92447832749E+02 0.  0.
          5    1    3    3  502    0  0.11763703746E+03 -0.10927553574E+03  0.12410847872E+03  0.20297783668E+03  0.41800000000E+01 0.  1.
         -5    1    3    3    0  502 -0.20576551784E+02 -0.82419000947E+02  0.33591742670E+02  0.91444867412E+02  0.41800000000E+01 0.  1.
        -11    1    4    4    0    0 -0.53070796116E+02  0.13398252716E+03  0.44602719456E+02  0.15085499517E+03  0.00000000000E+00 0.  1.
         11    1    4    4    0    0 -0.43989689561E+02  0.57712009531E+02  0.10207503142E+03  0.12524009291E+03  0.00000000000E+00 0. -1.
</event>
<event>
 8    1  0.6648599E-009  0.1383307E+03  0.7561462E-02  0.1215593E+00
          2   -1    0    0  501    0  0.00000000000E+00  0.00000000000E+00  0.49072883728E+03  0.49072883728E+03  0.00000000000E+00 0. -1.
         -2   -1    0    0    0  501 -0.00000000000E+00 -0.00000000000E+00 -0.84131255122E+02  0.84131255122E+02  0.00000000000E+00 0.  1.
         25    2    1    2    0    0 -0.82720802941E+02 -0.27402613762E+02  0.33906897834E+01  0.15248840228E+03  0.12509029368E+03 0.  0.
         23    2    1    2    0    0  0.82720802941E+02  0.27402613762E+02  0.40320689238E+03  0.42237169013E+03  0.90710595186E+02 0.  0.
          5    1    3    3  502    0 -0.10311494155E+03 -0.54802715587E+02  0.10605793232E+02  0.11732853045E+03  0.41800000000E+01 0. -1.
         -5    1    3    3    0  502  0.20394138607E+02  0.27400101825E+02 -0.72151034491E+01  0.35159871833E+02  0.41800000000E+01 0. -1.
        -11    1    4    4    0    0 -0.13853239385E+02  0.25253378922E+02  0.10717045279E+03  0.11097365156E+03  0.00000000000E+00 0. -1.
         11    1    4    4    0    0  0.96574042327E+02  0.21492348403E+01  0.29603643958E+03  0.31139803857E+03  0.00000000000E+00 0.  1.
</event>
<event>
 8    1  0.6648599E-009  0.9690802E+02  0.7561462E-02  0.1286936E+00
         -2   -1    0    0    0  501 -0.00000000000E+00  0.00000000000E+00  0.36016178231E+02  0.36016178231E+02  0.00000000000E+00 0.  1.
          2   -1    0    0  501    0  0.00000000000E+00 -0.00000000000E+00 -0.48837932578E+03  0.48837932578E+03  0.00000000000E+00 0. -1.
         25    2    1    2    0    0  0.51746731636E+02 -0.95925466190E+01 -0.13714466943E+03  0.19293944777E+03  0.12508888426E+03 0.  0.
         23    2    1    2    0    0 -0.51746731636E+02  0.95925466190E+01 -0.31521847812E+03  0.33145605625E+03  0.87924325919E+02 0.  0.
          5    1    3    3  502    0 -0.95637945029E+01  0.31035835225E+02  0.47248509794E+01  0.33083014527E+02  0.41800000000E+01 0. -1.
         -5    1    3    3    0  502  0.61310526139E+02 -0.40628381844E+02 -0.14186952041E+03  0.15985643324E+03  0.41800000000E+01 0. -1.
        -11    1    4    4    0    0 -0.52565644586E+02  0.34245419285E+02 -0.28787057558E+03  0.29462750045E+03  0.00000000000E+00 0. -1.
         11    1    4    4    0    0  0.81891295020E+00 -0.24652872666E+02 -0.27347902537E+02  0.36828555800E+02  0.00000000000E+00 0.  1.
</event>
<event>
 8    1  0.6648599E-009  0.6272973E+02  0.7561462E-02  0.1386721E+00
          1   -1    0    0  501    0  0.00000000000E+00  0.00000000000E+00  0.24088063911E+03  0.24088063911E+03  0.00000000000E+00 0. -1.
         -1   -1    0    0    0  501 -0.00000000000E+00 -0.00000000000E+00 -0.58760451284E+02  0.58760451284E+02  0.00000000000E+00 0.  1.
         25    2    1    2    0    0 -0.26758427529E+02  0.23335463018E+02  0.63591191842E+02  0.14474556529E+03  0.12508749623E+03 0.  0.
         23    2    1    2    0    0  0.26758427529E+02 -0.23335463018E+02  0.11852899599E+03  0.15489552510E+03  0.93182313395E+02 0.  0.
          5    1    3    3  502    0 -0.78409510425E+01  0.25099643369E+02 -0.35155679247E+02  0.44100643916E+02  0.41800000000E+01 0. -1.
         -5    1    3    3    0  502 -0.18917476486E+02 -0.17641803514E+01  0.98746871088E+02  0.10064492138E+03  0.41800000000E+01 0. -1.
        -11    1    4    4    0    0 -0.24432941069E+02 -0.10564826664E+02  0.92131607797E+02  0.95900038201E+02  0.00000000000E+00 0. -1.
         11    1    4    4    0    0  0.51191368597E+02 -0.12770636354E+02  0.26397388190E+02  0.58995486904E+02  0.00000000000E+00 0.  1.
</event>
<event>
 8    1  0.6648599E-009  0.1608083E+03  0.7561462E-02  0.1187787E+00
          2   -1    0    0  501    0  0.00000000000E+00  0.00000000000E+00  0.48436635406E+03  0.48436635406E+03  0.00000000000E+00 0. -1.
         -2   -1    0    0    0  501 -0.00000000000E+00 -0.00000000000E+00 -0.84735531551E+02  0.84735531551E+02  0.00000000000E+00 0.  1.
         25    2    1    2    0    0 -0.13932137008E+03  0.16606442128E+02  0.72545834732E+02  0.20148546384E+03  0.12508907194E+03 0.  0.
         23    2    1    2    0    0  0.13932137008E+03 -0.16606442128E+02  0.32708498778E+03  0.36761642177E+03  0.92038178196E+02 0.  0.
          5    1    3    3  502    0 -0.10666580244E+03  0.43943236446E+02  0.98231247472E+02  0.15157655432E+03  0.41800000000E+01 0. -1.
         -5    1    3    3    0  502 -0.32655567643E+02 -0.27336794318E+02 -0.25685412740E+02  0.49908909519E+02  0.41800000000E+01 0. -1.
        -11    1    4    4    0    0  0.24015479550E+02  0.30507602669E+02  0.46175443229E+02  0.60329334789E+02  0.00000000000E+00 0.  1.
         11    1    4    4    0    0  0.11530589053E+03 -0.47114044797E+02  0.28090954455E+03  0.30728708699E+03  0.00000000000E+00 0. -1.
</event>
<event>
 8    1  0.6648599E-009  0.1141599E+03  0.7561462E-02  0.1253055E+00
          2   -1    0    0  501    0  0.00000000000E+00  0.00000000000E+00  0.60254132327E+02  0.60254132327E+02  0.00000000000E+00 0. -1.
         -2   -1    0    0    0  501 -0.00000000000E+00 -0.00000000000E+00 -0.50708938903E+03  0.50708938903E+03  0.00000000000E+00 0.  1.
         25    2    1    2    0    0  0.68362395562E+01 -0.81494181564E+02 -0.41460938982E+03  0.44072285971E+03  0.12509059574E+03 0.  0.
         23    2    1    2    0    0 -0.68362395562E+01  0.81494181564E+02 -0.32225866882E+02  0.12662066165E+03  0.91138628799E+02 0.  0.
          5    1    3    3  502    0  0.17808110194E+02  0.12575334479E+02 -0.24831439867E+03  0.24930459445E+03  0.41800000000E+01 0.  1.
         -5    1    3    3    0  502 -0.10971870638E+02 -0.94069516043E+02 -0.16629499115E+03  0.19141826526E+03  0.41800000000E+01 0.  1.
        -11    1    4    4    0    0 -0.11372971615E+02 -0.12683535401E+02 -0.27332471914E+02  0.32206840493E+02  0.00000000000E+00 0.  1.
         11    1    4    4    0    0  0.45367320585E+01  0.94177716965E+02 -0.48933949683E+01  0.94413821154E+02  0.00000000000E+00 0. -1.
</event>
<event>
 8    1  0.6648599E-009  0.1083830E+03  0.7561462E-02  0.1263594E+00
         -2   -1    0    0    0  501 -0.00000000000E+00  0.00000000000E+00  0.12259516585E+02  0.12259516585E+02  0.00000000000E+00 0.  1.
          2   -1    0    0  501    0  0.00000000000E+00 -0.00000000000E+00 -0.12739579905E+04  0.12739579905E+04  0.00000000000E+00 0. -1.
         25    2    1    2    0    0  0.24449555819E+02  0.46585640240E+02 -0.85719158089E+03  0.86786353037E+03  0.12506677549E+03 0.  0.
         23    2    1    2    0    0 -0.24449555819E+02 -0.46585640240E+02 -0.40450689306E+03  0.41835397676E+03  0.92877449788E+02 0.  0.
          5    1    3    3  502    0  0.93859005810E+01  0.76621697751E+02 -0.30535557794E+03  0.31498965233E+03  0.41800000000E+01 0.  1.
         -5    1    3    3    0  502  0.15063655238E+02 -0.30036057511E+02 -0.55183600296E+03  0.55287387804E+03  0.41800000000E+01 0.  1.
        -11    1    4    4    0    0  0.16074674948E+02  0.21210367635E+02 -0.77451361314E+02  0.81896204059E+02  0.00000000000E+00 0.  1.
         11    1    4    4    0    0 -0.40524230767E+02 -0.67796007875E+02 -0.32705553175E+03  0.33645777270E+03  0.00000000000E+00 0. -1.
</event>
<event>
 8    1  0.6648599E-009  0.6665592E+02  0.7561462E-02  0.1371849E+00
          1   -1    0    0  501    0  0.00000000000E+00  0.00000000000E+00  0.12564041154E+03  0.12564041154E+03  0.00000000000E+00 0. -1.
         -1   -1    0    0    0  501 -0.00000000000E+00 -0.00000000000E+00 -0.11102267770E+03  0.11102267770E+03  0.00000000000E+00 0.  1.
         25    2    1    2    0    0 -0.31488759212E+02 -0.20462558545E+02  0.56232780994E+02  0.14219416335E+03  0.12508715431E+03 0.  0.
         23    2    1    2    0    0  0.31488759212E+02  0.20462558545E+02 -0.41615047149E+02  0.94468925896E+02  0.76041485728E+02 0.  0.
          5    1    3    3  502    0 -0.38865194210E+02 -0.21097324735E+02  0.93741967743E+02  0.10373345337E+03  0.41800000000E+01 0.  1.
         -5    1    3    3    0  502  0.73764349987E+01  0.63476619014E+00 -0.37509186749E+02  0.38460709977E+02  0.41800000000E+01 0.  1.
        -11    1    4    4    0    0 -0.19480094250E+02  0.22017201044E+02 -0.30336926968E+02  0.42244056999E+02  0.00000000000E+00 0.  1.
         11    1    4    4    0    0  0.50968853462E+02 -0.15546424990E+01 -0.11278120180E+02  0.52224868897E+02  0.00000000000E+00 0. -1.
</event>
<event>
 8    1  0.6648599E-009  0.1733101E+03  0.7561462E-02  0.1174439E+00
          2   -1    0    0  501    0  0.00000000000E+00  0.00000000000E+00  0.87449582573E+03  0.87449582573E+03  0.00000000000E+00 0. -1.
         -2   -1    0    0    0  501 -0.00000000000E+00 -0.00000000000E+00 -0.57174255199E+02  0.57174255199E+02  0.00000000000E+00 0.  1.
         25    2    1    2    0    0  0.12671793366E+03  0.89036668190E+02  0.67088579493E+03  0.69980032582E+03  0.12509109954E+03 0.  0.
         23    2    1    2    0    0 -0.12671793366E+03 -0.89036668190E+02  0.14643577560E+03  0.23186975511E+03  0.91297228680E+02 0.  0.
          5    1    3    3  502    0  0.37488060580E+02  0.68513447298E+02  0.13405964633E+03  0.15520601896E+03  0.41800000000E+01 0.  1.
         -5    1    3    3    0  502  0.89229873082E+02  0.20523220893E+02  0.53682614860E+03  0.54459430686E+03  0.41800000000E+01 0.  1.
        -11    1    4    4    0    0 -0.47522185007E+02 -0.85089094212E+02  0.10155716958E+03  0.14075642336E+03  0.00000000000E+00 0.  1.
         11    1    4    4    0    0 -0.79195748655E+02 -0.39475739779E+01  0.44878606016E+02  0.91113331753E+02  0.00000000000E+00 0. -1.
</event>
<event>
 8    1  0.6648599E-009  0.1196690E+03  0.7561462E-02  0.1243644E+00
         -1   -1    0    0    0  501 -0.00000000000E+00  0.00000000000E+00  0.70188540862E+02  0.70188540862E+02  0.00000000000E+00 0.  1.
          1   -1    0    0  501    0  0.00000000000E+00 -0.00000000000E+00 -0.21367594097E+03  0.21367594097E+03  0.00000000000E+00 0. -1.
         25    2    1    2    0    0  0.88627382565E+01  0.51691378299E+02 -0.52336826051E+02  0.14539966672E+03  0.12510544753E+03 0.  0.
         23    2    1    2    0    0 -0.88627382565E+01 -0.51691378299E+02 -0.91150574062E+02  0.13846481512E+03  0.90075141709E+02 0.  0.
          5    1    3    3  502    0 -0.44864004807E+02  0.65531423255E+02 -0.36826510556E+02  0.87640234144E+02  0.41800000000E+01 0. -1.
         -5    1    3    3    0  502  0.53726743064E+02 -0.13840044956E+02 -0.15510315494E+02  0.57759432575E+02  0.41800000000E+01 0. -1.
        -11    1    4    4    0    0 -0.43075465718E+02 -0.54931583743E+02 -0.58884597883E+02  0.91325628972E+02  0.00000000000E+00 0.  1.
         11    1    4    4    0    0  0.34212727462E+02  0.32402054441E+01 -0.32265976179E+02  0.47139186145E+02  0.00000000000E+00 0. -1.
</event>
<event>
 8    1  0.6648599E-009  0.5762182E+02  0.7561462E-02  0.1408092E+00
         -1   -1    0    0    0  501 -0.00000000000E+00  0.00000000000E+00  0.25111428686E+03  0.25111428686E+03  0.00000000000E+00 0.  1.
          1   -1    0    0  501    0  0.00000000000E+00 -0.00000000000E+00 -0.52660043968E+02  0.52660043968E+02  0.00000000000E+00 0. -1.
         25    2    1    2    0    0  0.35149323994E+02 -0.10626854918E+01  0.13521405060E+03  0.18753005072E+03  0.12509227060E+03 0.  0.
         23    2    1    2    0    0 -0.35149323994E+02  0.10626854918E+01  0.63240192291E+02  0.11624428011E+03  0.90976955652E+02 0.  0.
          5    1    3    3  502    0  0.39217729565E+02 -0.17824469759E+02 -0.73200180913E+01  0.43895297006E+02  0.41800000000E+01 0. -1.
         -5    1    3    3    0  502 -0.40684055711E+01  0.16761784267E+02  0.14253406869E+03  0.14363475371E+03  0.41800000000E+01 0. -1.
        -11    1    4    4    0    0 -0.11012986789E+02  0.20469804791E+02  0.78392070550E+02  0.81765613258E+02  0.00000000000E+00 0.  1.
         11    1    4    4    0    0 -0.24136337205E+02 -0.19407119299E+02 -0.15151878259E+02  0.34478666853E+02  0.00000000000E+00 0. -1.
</event>
<event>
 8    1  0.6648599E-009  0.1785926E+03  0.7561462E-02  0.1169172E+00
          1   -1    0    0  501    0  0.00000000000E+00  0.00000000000E+00  0.71557418485E+03  0.71557418485E+03  0.00000000000E+00 0. -1.
         -1   -1    0    0    0  501 -0.00000000000E+00 -0.00000000000E+00 -0.51501774758E+02  0.51501774758E+02  0.00000000000E+00 0.  1.
         25    2    1    2    0    0  0.14581510831E+03  0.88374719994E+01  0.22635263041E+03  0.29702428321E+03  0.12509102607E+03 0.  0.
         23    2    1    2    0    0 -0.14581510831E+03 -0.88374719994E+01  0.43771977968E+03  0.47005167639E+03  0.89497632555E+02 0.  0.
          5    1    3    3  502    0 -0.16410535682E+02 -0.14052857009E+02  0.58185373311E+02  0.62207704818E+02  0.41800000000E+01 0.  1.
         -5    1    3    3    0  502  0.16222564399E+03  0.22890329008E+02  0.16816725710E+03  0.23481657839E+03  0.41800000000E+01 0.  1.
        -11    1    4    4    0    0 -0.12547960856E+03 -0.42060094690E+02  0.34151036515E+03  0.36625607603E+03  0.00000000000E+00 0. -1.
         11    1    4    4    0    0 -0.20335499744E+02  0.33222622691E+02  0.96209414535E+02  0.10379560036E+03  0.00000000000E+00 0.  1.
</event>
<event>
 8    1  0.6648599E-009  0.1271468E+03  0.7561462E-02  0.1231752E+00
          2   -1    0    0  501    0  0.00000000000E+00  0.00000000000E+00  0.10740478165E+03  0.10740478165E+03  0.00000000000E+00 0. -1.
         -2   -1    0    0    0  501 -0.00000000000E+00 -0.00000000000E+00 -0.15779735842E+03  0.15779735842E+03  0.00000000000E+00 0.  1.
         25    2    1    2    0    0 -0.69056816153E+02 -0.22658762381E+02 -0.17689492295E+02  0.14574725085E+03  0.12508828731E+03 0.  0.
         23    2    1    2    0    0  0.69056816153E+02  0.22658762381E+02 -0.32703084478E+02  0.11945488923E+03  0.88981545597E+02 0.  0.
          5    1    3    3  502    0  0.17274378852E+02  0.35888510339E+02 -0.85674112342E+01  0.40954392613E+02  0.41800000000E+01 0. -1.
         -5    1    3    3    0  502 -0.86331195005E+02 -0.58547272720E+02 -0.91220810607E+01  0.10479285823E+03  0.41800000000E+01 0. -1.
        -11    1    4    4    0    0  0.87306659896E+02  0.10534083474E+02 -0.11017256608E+02  0.88627307981E+02  0.00000000000E+00 0. -1.
         11    1    4    4    0    0 -0.18249843743E+02  0.12124678907E+02 -0.21685827871E+02  0.30827581249E+02  0.00000000000E+00 0.  1.
</event>
<event>
 8    1  0.6648599E-009  0.1031727E+03  0.7561462E-02  0.1273762E+00
          1   -1    0    0  501    0  0.00000000000E+00  0.00000000000E+00  0.23472610288E+03  0.23472610288E+03  0.00000000000E+00 0. -1.
         -1   -1    0    0    0  501 -0.00000000000E+00 -0.00000000000E+00 -0.54530881793E+02  0.54530881793E+02  0.00000000000E+00 0.  1.
         25    2    1    2    0    0 -0.68218775545E+01 -0.31212565994E+02  0.11131766515E+03  0.17046947772E+03  0.12508979963E+03 0.  0.
         23    2    1    2    0    0  0.68218775545E+01  0.31212565994E+02  0.68877555946E+02  0.11878750696E+03  0.91354210671E+02 0.  0.
          5    1    3    3  502    0 -0.58751340274E+02 -0.45867698459E+02  0.70530255185E+02  0.10270129036E+03  0.41800000000E+01 0.  1.
         -5    1    3    3    0  502  0.51929462720E+02  0.14655132464E+02  0.40787409960E+02  0.67768187353E+02  0.41800000000E+01 0.  1.
        -11    1    4    4    0    0 -0.66474808410E+01 -0.21844218042E+02  0.58866613380E+02  0.63139821303E+02  0.00000000000E+00 0. -1.
         11    1    4    4    0    0  0.13469358396E+02  0.53056784037E+02  0.10010942567E+02  0.55647685657E+02  0.00000000000E+00 0.  1.
</event>
<event>
 8    1  0.6648599E-009  0.1134937E+03  0.7561462E-02  0.1254234E+00
          2   -1    0    0  501    0  0.00000000000E+00  0.00000000000E+00  0.72351806086E+03  0.72351806086E+03  0.00000000000E+00 0. -1.
         -2   -1    0    0    0  501 -0.00000000000E+00 -0.00000000000E+00 -0.32015353054E+02  0.32015353054E+02  0.00000000000E+00 0.  1.
         25    2    1    2    0    0 -0.91185079784E+02 -0.53458441199E+00  0.49760637388E+03  0.52112823111E+03  0.12509006903E+03 0.  0.
         23    2    1    2    0    0  0.91185079784E+02  0.53458441199E+00  0.19389633393E+03  0.23440518281E+03  0.95052600507E+02 0.  0.
          5    1    3    3  502    0 -0.74309803970E+02 -0.15533102090E+02  0.49153185903E+03  0.49737738697E+03  0.41800000000E+01 0.  1.
         -5    1    3    3    0  502 -0.16875275814E+02  0.14998517678E+02  0.60745148489E+01  0.23750844132E+02  0.41800000000E+01 0.  1.
        -11    1    4    4    0    0 -0.16228639218E+02 -0.11528376338E+02  0.54434501793E+02  0.57960220646E+02  0.00000000000E+00 0. -1.
         11    1    4    4    0    0  0.10741371900E+03  0.12062960750E+02  0.13946183213E+03  0.17644496217E+03  0.00000000000E+00 0.  1.
</event>
<event>
 8    1  0.6648599E-009  0.1443452E+03  0.7561462E-02  0.1207599E+00
         -1   -1    0    0    0  501 -0.00000000000E+00  0.00000000000E+00  0.91085592821E+02  0.91085592821E+02  0.00000000000E+00 0.  1.
          1   -1    0    0  501    0  0.00000000000E+00 -0.00000000000E+00 -0.29259087493E+03  0.29259087493E+03  0.00000000000E+00 0. -1.
         25    2    1    2    0    0  0.96266588229E+02 -0.36557942132E+02 -0.17610436215E+03  0.23929955780E+03  0.12509113818E+03 0.  0.
         23    2    1    2    0    0 -0.96266588229E+02  0.36557942132E+02 -0.25400919961E+02  0.14437690995E+03  0.97957879984E+02 0.  0.
          5    1    3    3  502    0  0.26070730106E+02  0.45062933631E+02 -0.40404908660E+02  0.66033173478E+02  0.41800000000E+01 0. -1.
         -5    1    3    3    0  502  0.70195858123E+02 -0.81620875763E+02 -0.13569945349E+03  0.17326638432E+03  0.41800000000E+01 0. -1.
        -11    1    4    4    0    0 -0.36463128871E+02  0.55137242158E+02  0.17606358424E+02  0.68408033862E+02  0.00000000000E+00 0. -1.
         11    1    4    4    0    0 -0.59803459359E+02 -0.18579300026E+02 -0.43007278385E+02  0.75968876093E+02  0.00000000000E+00 0.  1.
</event>
<event>
 8    1  0.6648599E-009  0.1250035E+03  0.7561462E-02  0.1235064E+00
          1   -1    0    0  501    0  0.00000000000E+00  0.00000000000E+00  0.63200885022E+03  0.63200885022E+03  0.00000000000E+00 0. -1.
         -1   -1    0    0    0  501 -0.00000000000E+00 -0.00000000000E+00 -0.49507246422E+02  0.49507246422E+02  0.00000000000E+00 0.  1.
         25    2    1    2    0    0 -0.10298369872E+02 -0.10459048906E+03  0.13257695389E+03  0.21039356316E+03  0.12507428150E+03 0.  0.
         23    2    1    2    0    0  0.10298369872E+02  0.10459048906E+03  0.44992464991E+03  0.47112253348E+03  0.92081616731E+02 0.  0.
          5    1    3    3  502    0  0.12150161899E+02 -0.16316812376E+01 -0.20653462656E+02  0.24378817394E+02  0.41800000000E+01 0. -1.
         -5    1    3    3    0  502 -0.22448531770E+02 -0.10295880782E+03  0.15323041655E+03  0.18601474576E+03  0.41800000000E+01 0. -1.
        -11    1    4    4    0    0  0.43774303709E+02  0.75366424832E+02  0.21432489023E+03  0.23136863709E+03  0.00000000000E+00 0.  1.
         11    1    4    4    0    0 -0.33475933837E+02  0.29224064224E+02  0.23559975968E+03  0.23975389639E+03  0.00000000000E+00 0. -1.
</event>
<event>
 8    1  0.6648599E-009  0.1095364E+03  0.7561462E-02  0.1261431E+00
         -1   -1    0    0    0  501 -0.00000000000E+00  0.00000000000E+00  0.11165960942E+03  0.11165960942E+03  0.00000000000E+00 0.  1.
          1   -1    0    0  501    0  0.00000000000E+00 -0.00000000000E+00 -0.18207737873E+03  0.18207737873E+03  0.00000000000E+00 0. -1.
         25    2    1    2    0    0  0.28542693878E+02  0.71697837283E+02 -0.90973063552E+02  0.17285641883E+03  0.12509187821E+03 0.  0.
         23    2    1    2    0    0 -0.28542693878E+02 -0.71697837283E+02  0.20555294238E+02  0.12088056932E+03  0.90743190775E+02 0.  0.
          5    1    3    3  502    0  0.55784884881E+02  0.20096594970E+01 -0.13007056530E+01  0.55992466883E+02  0.41800000000E+01 0. -1.
         -5    1    3    3    0  502 -0.27242191003E+02  0.69688177786E+02 -0.89672357899E+02  0.11686395195E+03  0.41800000000E+01 0. -1.
        -11    1    4    4    0    0 -0.24331194177E+02 -0.99876590657E+01  0.46803983867E+02  0.53687738354E+02  0.00000000000E+00 0.  1.
         11    1    4    4    0    0 -0.42114997009E+01 -0.61710178218E+02 -0.26248689630E+02  0.67192830962E+02  0.00000000000E+00 0. -1.
</event>
<event>
 8    1  0.6648599E-009  0.2819183E+03  0.7561462E-02  0.1094646E+00
         -2   -1    0    0    0  501 -0.00000000000E+00  0.00000000000E+00  0.84953434120E+02  0.84953434120E+02  0.00000000000E+00 0.  1.
          2   -1    0    0  501    0  0.00000000000E+00 -0.00000000000E+00 -0.11041804369E+04  0.11041804369E+04  0.00000000000E+00 0. -1.
         25    2    1    2    0    0  0.26964124548E+03  0.61007503305E+02 -0.66115930561E+03  0.72746674154E+03  0.12509163014E+03 0.  0.
         23    2    1    2    0    0 -0.26964124548E+03 -0.61007503305E+02 -0.35806769718E+03  0.46166712949E+03  0.92172370924E+02 0.  0.
          5    1    3    3  502    0  0.17489188009E+03  0.27511803802E+02 -0.54879285938E+03  0.57665860262E+03  0.41800000000E+01 0. -1.
         -5    1    3    3    0  502  0.94749365388E+02  0.33495699503E+02 -0.11236644624E+03  0.15080813893E+03  0.41800000000E+01 0. -1.
        -11    1    4    4    0    0 -0.61516884410E+02  0.17123223908E+02 -0.46818326304E+02  0.79180095620E+02  0.00000000000E+00 0.  1.
         11    1    4    4    0    0 -0.20812436107E+03 -0.78130727214E+02 -0.31124937088E+03  0.38248703387E+03  0.00000000000E+00 0. -1.
</event>
<event>
 8    1  0.6648599E-009  0.2835704E+03  0.7561462E-02  0.1093755E+00
         -1   -1    0    0    0  501 -0.00000000000E+00  0.00000000000E+00  0.40835812388E+03  0.40835812388E+03  0.00000000000E+00 0.  1.
          1   -1    0    0  501    0  0.00000000000E+00 -0.00000000000E+00 -0.23026892759E+03  0.23026892759E+03  0.00000000000E+00 0. -1.
         25    2    1    2    0    0 -0.16601363756E+03  0.20948461886E+03  0.20115085895E+03  0.35714819200E+03  0.12509528207E+03 0.  0.
         23    2    1    2    0    0  0.16601363756E+03 -0.20948461886E+03 -0.23061662654E+02  0.28147885946E+03  0.85171442650E+02 0.  0.
          5    1    3    3  502    0 -0.10546782663E+03  0.51653625842E+02  0.12541202078E+03  0.17186391963E+03  0.41800000000E+01 0. -1.
         -5    1    3    3    0  502 -0.60545810940E+02  0.15783099302E+03  0.75738838175E+02  0.18528427237E+03  0.41800000000E+01 0. -1.
        -11    1    4    4    0    0  0.13429815749E+03 -0.10249822846E+03 -0.13566069572E+02  0.16948722720E+03  0.00000000000E+00 0.  1.
         11    1    4    4    0    0  0.31715480080E+02 -0.10698639041E+03 -0.94955930821E+01  0.11199163226E+03  0.00000000000E+00 0. -1.
</event>
<event>
 8    1  0.6648599E-009  0.1712028E+03  0.7561462E-02  0.1176599E+00
         -1   -1    0    0    0  501 -0.00000000000E+00  0.00000000000E+00  0.57109608796E+02  0.57109608796E+02  0.00000000000E+00 0.  1.
          1   -1    0    0  501    0  0.00000000000E+00 -0.00000000000E+00 -0.68713321984E+03  0.68713321984E+03  0.00000000000E+00 0. -1.
         25    2    1    2    0    0  0.12489230424E+03  0.57168703801E+02 -0.15548417122E+03  0.24225261287E+03  0.12507858566E+03 0.  0.
         23    2    1    2    0    0 -0.12489230424E+03 -0.57168703801E+02 -0.47453943983E+03  0.50199021577E+03  0.89107510462E+02 0.  0.
          5    1    3    3  502    0 -0.20795056012E+02  0.24032156757E+02 -0.49696077964E+02  0.59136718526E+02  0.41800000000E+01 0. -1.
         -5    1    3    3    0  502  0.14568736025E+03  0.33136547044E+02 -0.10578809325E+03  0.18311589434E+03  0.41800000000E+01 0. -1.
        -11    1    4    4    0    0 -0.11944982755E+03 -0.75803034397E+02 -0.38005152634E+03  0.40552869688E+03  0.00000000000E+00 0.  1.
         11    1    4    4    0    0 -0.54424766903E+01  0.18634330596E+02 -0.94487913495E+02  0.96461518887E+02  0.00000000000E+00 0. -1.
</event>
<event>
 8    1  0.6648599E-009  0.9430780E+02  0.7561462E-02  0.1292743E+00
         -2   -1    0    0    0  501 -0.00000000000E+00  0.00000000000E+00  0.17463351030E+03  0.17463351030E+03  0.00000000000E+00 0.  1.
          2   -1    0    0  501    0  0.00000000000E+00 -0.00000000000E+00 -0.74089542336E+02  0.74089542336E+02  0.00000000000E+00 0. -1.
         25    2    1    2    0    0 -0.34157741768E+02  0.22786241341E+01  0.57526869743E+02  0.14187287128E+03  0.12508647973E+03 0.  0.
         23    2    1    2    0    0  0.34157741768E+02 -0.22786241341E+01  0.43017098225E+02  0.10685018136E+03  0.91621760876E+02 0.  0.
          5    1    3    3  502    0  0.15597749421E+02  0.35474307653E+02 -0.20045611942E+02  0.43829387956E+02  0.41800000000E+01 0.  1.
         -5    1    3    3    0  502 -0.49755491189E+02 -0.33195683519E+02  0.77572481685E+02  0.98043483325E+02  0.41800000000E+01 0.  1.
        -11    1    4    4    0    0  0.55090571232E+02  0.20465777469E+02  0.47565663622E+02  0.75606292343E+02  0.00000000000E+00 0. -1.
         11    1    4    4    0    0 -0.20932829464E+02 -0.22744401603E+02 -0.45485653973E+01  0.31243889016E+02  0.00000000000E+00 0.  1.
</event>
<event>
 8    1  0.6648599E-009  0.8534460E+02  0.7561462E-02  0.1314534E+00
          2   -1    0    0  501    0  0.00000000000E+00  0.00000000000E+00  0.17726956705E+03  0.17726956705E+03  0.00000000000E+00 0. -1.
         -2   -1    0    0    0  501 -0.00000000000E+00 -0.00000000000E+00 -0.83646897241E+02  0.83646897241E+02  0.00000000000E+00 0.  1.
         25    2    1    2    0    0  0.31153346500E+02 -0.60673283462E+01  0.17192328816E+01  0.12906069686E+03  0.12508542777E+03 0.  0.
         23    2    1    2    0    0 -0.31153346500E+02  0.60673283462E+01  0.91903436932E+02  0.13185576744E+03  0.89063787337E+02 0.  0.
          5    1    3    3  502    0  0.66214789844E+02 -0.25227349194E+02  0.32872757173E+02  0.78223449844E+02  0.41800000000E+01 0. -1.
         -5    1    3    3    0  502 -0.35061443343E+02  0.19160020848E+02 -0.31153524291E+02  0.50837247014E+02  0.41800000000E+01 0. -1.
        -11    1    4    4    0    0  0.50388196800E+01  0.20096823218E+02 -0.98565344565E+01  0.22943915941E+02  0.00000000000E+00 0.  1.
         11    1    4    4    0    0 -0.36192166180E+02 -0.14029494871E+02  0.10175997139E+03  0.10891185150E+03  0.00000000000E+00 0. -1.
</event>
<event>
 8    1  0.6648599E-009  0.9488057E+02  0.7561462E-02  0.1291445E+00
          2   -1    0    0  501    0  0.00000000000E+00  0.00000000000E+00  0.10505786272E+03  0.10505786272E+03  0.00000000000E+00 0. -1.
         -2   -1    0    0    0  501 -0.00000000000E+00 -0.00000000000E+00 -0.14126237861E+03  0.14126237861E+03  0.00000000000E+00 0.  1.
         25    2    1    2    0    0  0.20759770668E+02  0.68898946719E+01  0.31852667104E+02  0.13092297584E+03  0.12509114467E+03 0.  0.
         23    2    1    2    0    0 -0.20759770668E+02 -0.68898946719E+01 -0.68057182997E+02  0.11539726549E+03  0.90588685816E+02 0.  0.
          5    1    3    3  502    0 -0.29907837707E+02 -0.30014898707E+02 -0.22226921868E+02  0.48030004751E+02  0.41800000000E+01 0.  1.
         -5    1    3    3    0  502  0.50667608374E+02  0.36904793379E+02  0.54079588972E+02  0.82892971090E+02  0.41800000000E+01 0.  1.
        -11    1    4    4    0    0  0.30977727319E+02 -0.99415569755E+01 -0.36664276775E+01  0.32739835626E+02  0.00000000000E+00 0. -1.
         11    1    4    4    0    0 -0.51737497986E+02  0.30516623036E+01 -0.64390755320E+02  0.82657429862E+02  0.00000000000E+00 0.  1.
</event>
<event>
 8    1  0.6648599E-009  0.1165385E+03  0.7561462E-02  0.1248919E+00
         -2   -1    0    0    0  501 -0.00000000000E+00  0.00000000000E+00  0.19941611716E+03  0.19941611716E+03  0.00000000000E+00 0. -1.
          2   -1    0    0  501    0  0.00000000000E+00 -0.00000000000E+00 -0.93466417190E+02  0.93466417190E+02  0.00000000000E+00 0.  1.
         25    2    1    2    0    0  0.73990351852E+02 -0.37224854497E+02  0.60464493204E+02  0.16175130687E+03  0.12508904180E+03 0.  0.
         23    2    1    2    0    0 -0.73990351852E+02  0.37224854497E+02  0.45485206767E+02  0.13113122748E+03  0.90918825476E+02 0.  0.
          5    1    3    3  502    0 -0.34661170347E+02 -0.18924726061E+02  0.14135734084E+02  0.42152501283E+02  0.41800000000E+01 0. -1.
         -5    1    3    3    0  502  0.10865152220E+03 -0.18300128436E+02  0.46328759120E+02  0.11959880559E+03  0.41800000000E+01 0. -1.
        -11    1    4    4    0    0 -0.47489644116E+02  0.27488530377E+02 -0.21115055751E+02  0.58793972310E+02  0.00000000000E+00 0.  1.
         11    1    4    4    0    0 -0.26500707736E+02  0.97363241197E+01  0.66600262518E+02  0.72337255169E+02  0.00000000000E+00 0. -1.
</event>
<event>
 8    1  0.6648599E-009  0.8834059E+02  0.7561462E-02  0.1306921E+00
         -2   -1    0    0    0  501 -0.00000000000E+00  0.00000000000E+00  0.69053986928E+02  0.69053986928E+02  0.00000000000E+00 0.  1.
          2   -1    0    0  501    0  0.00000000000E+00 -0.00000000000E+00 -0.22480968472E+03  0.22480968472E+03  0.00000000000E+00 0. -1.
         25    2    1    2    0    0  0.53869312988E+02  0.20403901305E+02 -0.10844747902E+03  0.17529003183E+03  0.12509003750E+03 0.  0.
         23    2    1    2    0    0 -0.53869312988E+02 -0.20403901305E+02 -0.47308218765E+02  0.11857363982E+03  0.92213981731E+02 0.  0.
          5    1    3    3  502    0  0.67512829213E+02  0.30577865896E+02 -0.12865931244E+03  0.14853847673E+03  0.41800000000E+01 0.  1.
         -5    1    3    3    0  502 -0.13643516226E+02 -0.10173964591E+02  0.20211833413E+02  0.26751555103E+02  0.41800000000E+01 0.  1.
        -11    1    4    4    0    0 -0.65739510503E+02 -0.27314658085E+02 -0.64847416606E+02  0.96296216062E+02  0.00000000000E+00 0. -1.
         11    1    4    4    0    0  0.11870197515E+02  0.69107567792E+01  0.17539197840E+02  0.22277423756E+02  0.00000000000E+00 0.  1.
</event>
<event>
 8    1  0.6648599E-009  0.1045260E+03  0.7561462E-02  0.1271056E+00
         -1   -1    0    0    0  501 -0.00000000000E+00  0.00000000000E+00  0.24454127229E+02  0.24454127229E+02  0.00000000000E+00 0.  1.
          1   -1    0    0  501    0  0.00000000000E+00 -0.00000000000E+00 -0.58652195158E+03  0.58652195158E+03  0.00000000000E+00 0. -1.
         25    2    1    2    0    0  0.36423293781E+02 -0.34502425381E+02 -0.27693862668E+03  0.30799352127E+03  0.12509169642E+03 0.  0.
         23    2    1    2    0    0 -0.36423293781E+02  0.34502425381E+02 -0.28512919767E+03  0.30298255753E+03  0.89345940699E+02 0.  0.
          5    1    3    3  502    0 -0.28860724846E+02 -0.48933142475E+02 -0.68698147217E+02  0.89242936427E+02  0.41800000000E+01 0.  1.
         -5    1    3    3    0  502  0.65284018627E+02  0.14430717093E+02 -0.20824047946E+03  0.21875058485E+03  0.41800000000E+01 0.  1.
        -11    1    4    4    0    0  0.16908713655E+02 -0.61986665794E+01 -0.11777117148E+02  0.21518098269E+02  0.00000000000E+00 0.  1.
         11    1    4    4    0    0 -0.53332007436E+02  0.40701091961E+02 -0.27335208052E+03  0.28146445926E+03  0.00000000000E+00 0. -1.
</event>
<event>
 8    1  0.6648599E-009  0.1206867E+03  0.7561462E-02  0.1241968E+00
          1   -1    0    0  501    0  0.00000000000E+00  0.00000000000E+00  0.69695554312E+03  0.69695554312E+03  0.00000000000E+00 0. -1.
         -1   -1    0    0    0  501 -0.00000000000E+00 -0.00000000000E+00 -0.30661941747E+02  0.30661941747E+02  0.00000000000E+00 0.  1.
         25    2    1    2    0    0 -0.35553989167E+02 -0.64873172481E+02  0.55321769722E+03  0.57198523808E+03  0.12507868488E+03 0.  0.
         23    2    1    2    0    0  0.35553989167E+02  0.64873172481E+02  0.11307590415E+03  0.15563224678E+03  0.77218012706E+02 0.  0.
          5    1    3    3  502    0  0.16189285186E+02  0.25489934777E+02  0.54039997710E+02  0.62045334089E+02  0.41800000000E+01 0. -1.
         -5    1    3    3    0  502 -0.51743274353E+02 -0.90363107259E+02  0.49917769951E+03  0.50993990400E+03  0.41800000000E+01 0. -1.
        -11    1    4    4    0    0  0.36736548769E+02 -0.47504865427E+01  0.34187944538E+02  0.50407903047E+02  0.00000000000E+00 0. -1.
         11    1    4    4    0    0 -0.11825596023E+01  0.69623659024E+02  0.78887959610E+02  0.10522434374E+03  0.00000000000E+00 0.  1.
</event>
<event>
 7    1  0.6648599E-009  0.1023452E+03  0.7561462E-02  0.1275440E+00
         -1   -1    0    0    0  501 -0.00000000000E+00  0.00000000000E+00  0.10856644852E+03  0.10856644852E+03  0.00000000000E+00 0. -1.
          1   -1    0    0  501    0  0.00000000000E+00 -0.00000000000E+00 -0.15763955659E+03  0.15763955659E+03  0.00000000000E+00 0.  1.
         23    2    1    2    0    0 -0.29218975929E+02 -0.43512754145E+02  0.23038025748E+02  0.11253312558E+03  0.96880572840E+02 0.  0.
          5    1    1    2  502    0  0.68483151875E+02  0.55936529968E+02 -0.68858612162E+02  0.11215087313E+03  0.41800000000E+01 0.  1.
         -5    1    1    2    0  502 -0.39264175946E+02 -0.12423775823E+02 -0.32525216520E+01  0.41522006400E+02  0.41800000000E+01 0.  1.
        -11    1    3    3    0    0  0.15657161581E+02 -0.14463783682E+02 -0.30280821325E+02  0.37030742462E+02  0.00000000000E+00 0.  1.
         11    1    3    3    0    0 -0.44876137510E+02 -0.29048970462E+02  0.53318847073E+02  0.75502383114E+02  0.00000000000E+00 0. -1.
</event>
<event>
 8    1  0.6648599E-009  0.1278342E+03  0.7561462E-02  0.1230705E+00
         -1   -1    0    0    0  501 -0.00000000000E+00  0.00000000000E+00  0.13206994959E+03  0.13206994959E+03  0.00000000000E+00 0.  1.
          1   -1    0    0  501    0  0.00000000000E+00 -0.00000000000E+00 -0.23095359515E+03  0.23095359515E+03  0.00000000000E+00 0. -1.
         25    2    1    2    0    0  0.12465906062E+02 -0.10021080301E+03 -0.14816469949E+03  0.21862528031E+03  0.12508649471E+03 0.  0.
         23    2    1    2    0    0 -0.12465906062E+02  0.10021080301E+03  0.49281053927E+02  0.14439826444E+03  0.90689760406E+02 0.  0.
          5    1    3    3  502    0 -0.17533758206E+02 -0.11804711559E+03 -0.13701106927E+03  0.18174724118E+03  0.41800000000E+01 0. -1.
         -5    1    3    3    0  502  0.29999664268E+02  0.17836312576E+02 -0.11153630227E+02  0.36878039125E+02  0.41800000000E+01 0. -1.
        -11    1    4    4    0    0 -0.71817139360E+01  0.38389532293E+02  0.69006060593E+02  0.79291674237E+02  0.00000000000E+00 0.  1.
         11    1    4    4    0    0 -0.52841921262E+01  0.61821270717E+02 -0.19725006666E+02  0.65106590200E+02  0.00000000000E+00 0. -1.
</event>
<event>
 8    1  0.6648599E-009  0.1144918E+03  0.7561462E-02  0.1252471E+00
         -2   -1    0    0    0  501 -0.00000000000E+00  0.00000000000E+00  0.35789556555E+03  0.35789556555E+03  0.00000000000E+00 0.  1.
          2   -1    0    0  501    0  0.00000000000E+00 -0.00000000000E+00 -0.52210272292E+02  0.52210272292E+02  0.00000000000E+00 0. -1.
         25    2    1    2    0    0 -0.50120611279E+02  0.47380002062E+02  0.23633766776E+03  0.27615082986E+03  0.12508735891E+03 0.  0.
         23    2    1    2    0    0  0.50120611279E+02 -0.47380002062E+02  0.69347625500E+02  0.13395500799E+03  0.91530927733E+02 0.  0.
          5    1    3    3  502    0  0.14198178470E+02 -0.33693926169E+02  0.41295281337E+02  0.55314027093E+02  0.41800000000E+01 0.  1.
         -5    1    3    3    0  502 -0.64318789750E+02  0.81073928231E+02  0.19504238642E+03  0.22083680276E+03  0.41800000000E+01 0.  1.
        -11    1    4    4    0    0  0.39948672873E+02 -0.60196823769E+02  0.10659603278E+02  0.73028632729E+02  0.00000000000E+00 0. -1.
         11    1    4    4    0    0  0.10171938406E+02  0.12816821707E+02  0.58688022222E+02  0.60926375257E+02  0.00000000000E+00 0.  1.
</event>
<event>
 8    1  0.6648599E-009  0.1058958E+03  0.7561462E-02  0.1268365E+00
          1   -1    0    0  501    0  0.00000000000E+00  0.00000000000E+00  0.22141014590E+03  0.22141014590E+03  0.00000000000E+00 0. -1.
         -1   -1    0    0    0  501 -0.00000000000E+00 -0.00000000000E+00 -0.89732654829E+02  0.89732654829E+02  0.00000000000E+00 0.  1.
         25    2    1    2    0    0 -0.78719429996E+02 -0.34482516518E+02  0.41252485254E+02  0.15727376032E+03  0.12508986986E+03 0.  0.
         23    2    1    2    0    0  0.78719429996E+02  0.34482516518E+02  0.90425005821E+02  0.15386904041E+03  0.90073344090E+02 0.  0.
          5    1    3    3  502    0 -0.68576978209E+02  0.18037803117E+02  0.67103989575E+02  0.97716846544E+02  0.41800000000E+01 0. -1.
         -5    1    3    3    0  502 -0.10142451788E+02 -0.52520319635E+02 -0.25851504321E+02  0.59556913776E+02  0.41800000000E+01 0. -1.
        -11    1    4    4    0    0  0.14664150285E+02  0.12844223013E+02 -0.17709640440E+02  0.26337098035E+02  0.00000000000E+00 0.  1.
         11    1    4    4    0    0  0.64055279711E+02  0.21638293505E+02  0.10813464626E+03  0.12753194238E+03  0.00000000000E+00 0. -1.
</event>
<event>
 8    1  0.6648599E-009  0.1220593E+03  0.7561462E-02  0.1239738E+00
          1   -1    0    0  501    0  0.00000000000E+00  0.00000000000E+00  0.30908744225E+03  0.30908744225E+03  0.00000000000E+00 0. -1.
         -1   -1    0    0    0  501 -0.00000000000E+00 -0.00000000000E+00 -0.82778439099E+02  0.82778439099E+02  0.00000000000E+00 0.  1.
         25    2    1    2    0    0 -0.31574504893E+02  0.10910448857E+03  0.90587170815E+02  0.19169687548E+03  0.12506365486E+03 0.  0.
         23    2    1    2    0    0  0.31574504893E+02 -0.10910448857E+03  0.13572183233E+03  0.20016900587E+03  0.93522598090E+02 0.  0.
          5    1    3    3  502    0 -0.39554249379E+02  0.56879240702E+02  0.11423233407E+03  0.13366482414E+03  0.41800000000E+01 0.  1.
         -5    1    3    3    0  502  0.79797444856E+01  0.52225247866E+02 -0.23645163254E+02  0.58032051334E+02  0.41800000000E+01 0.  1.
        -11    1    4    4    0    0  0.18194461758E+01 -0.80240216568E+02  0.13690508362E+03  0.15869721062E+03  0.00000000000E+00 0. -1.
         11    1    4    4    0    0  0.29755058718E+02 -0.28864272000E+02 -0.11832512824E+01  0.41471795247E+02  0.00000000000E+00 0.  1.
</event>
<event>
 8    1  0.6648599E-009  0.1161326E+03  0.7561462E-02  0.1249617E+00
         -1   -1    0    0    0  501 -0.00000000000E+00  0.00000000000E+00  0.64794982236E+02  0.64794982236E+02  0.00000000000E+00 0.  1.
          1   -1    0    0  501    0  0.00000000000E+00 -0.00000000000E+00 -0.26976552901E+03  0.26976552901E+03  0.00000000000E+00 0. -1.
         25    2    1    2    0    0 -0.67608822190E+02  0.25375141109E+02 -0.13992662032E+03  0.20110222449E+03  0.12509114675E+03 0.  0.
         23    2    1    2    0    0  0.67608822190E+02 -0.25375141109E+02 -0.65043926452E+02  0.13345828676E+03  0.91463387818E+02 0.  0.
          5    1    3    3  502    0 -0.96899388478E+02  0.10774360396E+02 -0.13669002005E+03  0.16795002921E+03  0.41800000000E+01 0.  1.
         -5    1    3    3    0  502  0.29290566288E+02  0.14600780713E+02 -0.32366002741E+01  0.33152195285E+02  0.41800000000E+01 0.  1.
        -11    1    4    4    0    0  0.88724004161E+01  0.23598007399E+02  0.92342662212E+01  0.26848782374E+02  0.00000000000E+00 0.  1.
         11    1    4    4    0    0  0.58736421774E+02 -0.48973148508E+02 -0.74278192673E+02  0.10660950438E+03  0.00000000000E+00 0. -1.
</event>
<event>
 8    1  0.6648599E-009  0.1171477E+03  0.7561462E-02  0.1247878E+00
         -2   -1    0    0    0  501 -0.00000000000E+00  0.00000000000E+00  0.64399311580E+02  0.64399311580E+02  0.00000000000E+00 0.  1.
          2   -1    0    0  501    0  0.00000000000E+00 -0.00000000000E+00 -0.31261404995E+03  0.31261404995E+03  0.00000000000E+00 0. -1.
         25    2    1    2    0    0 -0.28187549898E+02 -0.53112329251E+02 -0.44016462100E+02  0.14560529893E+03  0.12509195279E+03 0.  0.
         23    2    1    2    0    0  0.28187549898E+02  0.53112329251E+02 -0.20419827627E+03  0.23140806261E+03  0.90759561035E+02 0.  0.
          5    1    3    3  502    0  0.31506533626E+02 -0.67102099841E+02 -0.87787613175E+01  0.74765583756E+02  0.41800000000E+01 0.  1.
         -5    1    3    3    0  502 -0.59694083524E+02  0.13989770590E+02 -0.35237700783E+02  0.70839715170E+02  0.41800000000E+01 0.  1.
        -11    1    4    4    0    0 -0.18423554722E+01  0.65920203546E+02 -0.83657119973E+02  0.10652408756E+03  0.00000000000E+00 0.  1.
         11    1    4    4    0    0  0.30029905370E+02 -0.12807874295E+02 -0.12054115630E+03  0.12488397504E+03  0.00000000000E+00 0. -1.
</event>
<event>
 8    1  0.6648599E-009  0.7099937E+02  0.7561462E-02  0.1356727E+00
          1   -1    0    0  501    0  0.00000000000E+00  0.00000000000E+00  0.14207244453E+03  0.14207244453E+03  0.00000000000E+00 0. -1.
         -1   -1    0    0    0  501 -0.00000000000E+00 -0.00000000000E+00 -0.90383860309E+02  0.90383860309E+02  0.00000000000E+00 0.  1.
         25    2    1    2    0    0  0.63438081477E+01 -0.18997974528E+02  0.34918209764E+00  0.12668055494E+03  0.12508666650E+03 0.  0.
         23    2    1    2    0    0 -0.63438081477E+01  0.18997974528E+02  0.51339402129E+02  0.10577574990E+03  0.90286256528E+02 0.  0.
          5    1    3    3  502    0  0.17973412440E+02  0.35359080285E+02  0.41373513834E+02  0.57467801074E+02  0.41800000000E+01 0.  1.
         -5    1    3    3    0  502 -0.11629604292E+02 -0.54357054813E+02 -0.41024331736E+02  0.69212753870E+02  0.41800000000E+01 0.  1.
        -11    1    4    4    0    0  0.14344671825E+02 -0.45270518763E+01  0.68447495622E+02  0.70080835221E+02  0.00000000000E+00 0. -1.
         11    1    4    4    0    0 -0.20688479972E+02  0.23525026404E+02 -0.17108093493E+02  0.35694914678E+02  0.00000000000E+00 0.  1.
</event>
<event>
 8    1  0.6648599E-009  0.1760421E+03  0.7561462E-02  0.1171689E+00
         -2   -1    0    0    0  501 -0.00000000000E+00  0.00000000000E+00  0.36627763526E+02  0.36627763526E+02  0.00000000000E+00 0. -1.
          2   -1    0    0  501    0  0.00000000000E+00 -0.00000000000E+00 -0.98200210492E+03  0.98200210492E+03  0.00000000000E+00 0.  1.
         25    2    1    2    0    0 -0.13349338796E+03 -0.79802184027E+02 -0.54085482642E+03  0.57650664724E+03  0.12508836016E+03 0.  0.
         23    2    1    2    0    0  0.13349338796E+03  0.79802184027E+02 -0.40451951497E+03  0.44212322120E+03  0.87453024698E+02 0.  0.
          5    1    3    3  502    0 -0.14552860782E+03 -0.48417590280E+02 -0.34270210176E+03  0.37547974871E+03  0.41800000000E+01 0. -1.
         -5    1    3    3    0  502  0.12035219862E+02 -0.31384593747E+02 -0.19815272466E+03  0.20102689853E+03  0.41800000000E+01 0. -1.
        -11    1    4    4    0    0  0.66702196852E+02  0.70995830253E+02 -0.31728778295E+03  0.33190530003E+03  0.00000000000E+00 0.  1.
         11    1    4    4    0    0  0.66791191105E+02  0.88063537746E+01 -0.87231732022E+02  0.11021792117E+03  0.00000000000E+00 0. -1.
</event>
<event>
 8    1  0.6648599E-009  0.1366466E+03  0.7561462E-02  0.1217914E+00
         -2   -1    0    0    0  501 -0.00000000000E+00  0.00000000000E+00  0.16963350825E+02  0.16963350825E+02  0.00000000000E+00 0.  1.
          2   -1    0    0  501    0  0.00000000000E+00 -0.00000000000E+00 -0.13610100644E+04  0.13610100644E+04  0.00000000000E+00 0. -1.
         25    2    1    2    0    0 -0.46557124980E+02 -0.96238616675E+02 -0.68133741575E+03  0.70092683719E+03  0.12509324429E+03 0.  0.
         23    2    1    2    0    0  0.46557124980E+02  0.96238616675E+02 -0.66270929786E+03  0.67704657807E+03  0.88198742507E+02 0.  0.
          5    1    3    3  502    0  0.19801738574E+02  0.29264536083E+01 -0.31418348789E+03  0.31484823239E+03  0.41800000000E+01 0. -1.
         -5    1    3    3    0  502 -0.66358863554E+02 -0.99165070284E+02 -0.36715392787E+03  0.38607860480E+03  0.41800000000E+01 0. -1.
        -11    1    4    4    0    0 -0.32539687252E+01 -0.12995362756E+02 -0.27475146388E+02  0.30567162686E+02  0.00000000000E+00 0.  1.
         11    1    4    4    0    0  0.49811093705E+02  0.10923397943E+03 -0.63523415147E+03  0.64647941538E+03  0.00000000000E+00 0. -1.
</event>
<event>
 8    1  0.6648599E-009  0.1438625E+03  0.7561462E-02  0.1208224E+00
         -2   -1    0    0    0  501 -0.00000000000E+00  0.00000000000E+00  0.27603356953E+03  0.27603356953E+03  0.00000000000E+00 0. -1.
          2   -1    0    0  501    0  0.00000000000E+00 -0.00000000000E+00 -0.96112592311E+02  0.96112592311E+02  0.00000000000E+00 0.  1.
         25    2    1    2    0    0 -0.71235128415E+02 -0.91705481858E+02  0.58460774720E+02  0.18041536421E+03  0.12509077719E+03 0.  0.
         23    2    1    2    0    0  0.71235128415E+02  0.91705481858E+02  0.12146020250E+03  0.19173079764E+03  0.92324314495E+02 0.  0.
          5    1    3    3  502    0 -0.60350209000E+02 -0.11531962035E+03  0.74056000871E+02  0.14980829826E+03  0.41800000000E+01 0. -1.
         -5    1    3    3    0  502 -0.10884919414E+02  0.23614138488E+02 -0.15595226151E+02  0.30607065947E+02  0.41800000000E+01 0. -1.
        -11    1    4    4    0    0  0.42357321465E+02  0.86484273313E+01  0.18439352092E+01  0.43270521999E+02  0.00000000000E+00 0.  1.
         11    1    4    4    0    0  0.28877806949E+02  0.83057054527E+02  0.11961626729E+03  0.14846027564E+03  0.00000000000E+00 0. -1.
</event>
<event>
 8    1  0.6648599E-009  0.1073521E+03  0.7561462E-02  0.1265553E+00
          1   -1    0    0  501    0  0.00000000000E+00  0.00000000000E+00  0.28325881307E+03  0.28325881307E+03  0.00000000000E+00 0. -1.
         -1   -1    0    0    0  501 -0.00000000000E+00 -0.00000000000E+00 -0.41861902335E+02  0.41861902335E+02  0.00000000000E+00 0.  1.
         25    2    1    2    0    0 -0.36851424181E+01 -0.68294611070E+01  0.13986845662E+03  0.18780561139E+03  0.12509013030E+03 0.  0.
         23    2    1    2    0    0  0.36851424181E+01  0.68294611070E+01  0.10152845411E+03  0.13731510401E+03  0.92125940878E+02 0.  0.
          5    1    3    3  502    0 -0.26505087475E+02  0.53451468192E+02  0.78701595968E+02  0.98848331912E+02  0.41800000000E+01 0.  1.
         -5    1    3    3    0  502  0.22819945057E+02 -0.60280929299E+02  0.61166860656E+02  0.88957279477E+02  0.41800000000E+01 0.  1.
        -11    1    4    4    0    0  0.45111829081E+01 -0.41612144028E+02  0.61903347224E+02  0.74725803437E+02  0.00000000000E+00 0. -1.
         11    1    4    4    0    0 -0.82604048994E+00  0.48441605134E+02  0.39625106882E+02  0.62589300574E+02  0.00000000000E+00 0.  1.
</event>
<event>
 8    1  0.6648599E-009  0.1146581E+03  0.7561462E-02  0.1252179E+00
         -2   -1    0    0    0  501 -0.00000000000E+00  0.00000000000E+00  0.11021326359E+03  0.11021326359E+03  0.00000000000E+00 0.  1.
          2   -1    0    0  501    0  0.00000000000E+00 -0.00000000000E+00 -0.16948110226E+03  0.16948110226E+03  0.00000000000E+00 0. -1.
         25    2    1    2    0    0  0.62351673355E+02 -0.46826257173E+02 -0.60750053970E+02  0.15943622649E+03  0.12509561035E+03 0.  0.
         23    2    1    2    0    0 -0.62351673355E+02  0.46826257173E+02  0.14822153001E+01  0.12025813936E+03  0.91539027679E+02 0.  0.
          5    1    3    3  502    0 -0.72136841367E+01  0.31441285392E+02  0.87533788878E+01  0.33685096228E+02  0.41800000000E+01 0. -1.
         -5    1    3    3    0  502  0.69565357492E+02 -0.78267542565E+02 -0.69503432858E+02  0.12575113026E+03  0.41800000000E+01 0. -1.
        -11    1    4    4    0    0 -0.47145180715E+02  0.49091485096E+01  0.39468875648E+02  0.61681115008E+02  0.00000000000E+00 0.  1.
         11    1    4    4    0    0 -0.15206492640E+02  0.41917108664E+02 -0.37986660348E+02  0.58577024348E+02  0.00000000000E+00 0. -1.
</event>
<event>
 8    1  0.6648599E-009  0.9580680E+02  0.7561462E-02  0.1289369E+00
         -2   -1    0    0    0  501 -0.00000000000E+00  0.00000000000E+00  0.82314153242E+03  0.82314153242E+03  0.00000000000E+00 0.  1.
          2   -1    0    0  501    0  0.00000000000E+00 -0.00000000000E+00 -0.19449633518E+02  0.19449633518E+02  0.00000000000E+00 0. -1.
         25    2    1    2    0    0 -0.60754390701E+02 -0.21471621466E+02  0.45149863333E+03  0.47291636174E+03  0.12508694091E+03 0.  0.
         23    2    1    2    0    0  0.60754390701E+02  0.21471621466E+02  0.35219326557E+03  0.36967480420E+03  0.92017596278E+02 0.  0.
          5    1    3    3  502    0 -0.68138222870E+02 -0.36372852889E+01  0.44759350302E+03  0.45278412473E+03  0.41800000000E+01 0.  1.
         -5    1    3    3    0  502  0.73838321691E+01 -0.17834336177E+02  0.39051303078E+01  0.20132237012E+02  0.41800000000E+01 0.  1.
        -11    1    4    4    0    0  0.14252595869E+02 -0.30558270985E+02  0.55960616721E+02  0.65334026651E+02  0.00000000000E+00 0.  1.
         11    1    4    4    0    0  0.46501794832E+02  0.52029892451E+02  0.29623264885E+03  0.30434077755E+03  0.00000000000E+00 0. -1.
</event>
<event>
 8    1  0.6648599E-009  0.7902692E+02  0.7561462E-02  0.1331836E+00
          2   -1    0    0  501    0  0.00000000000E+00  0.00000000000E+00  0.65598685675E+02  0.65598685675E+02  0.00000000000E+00 0.  1.
         -2   -1    0    0    0  501 -0.00000000000E+00 -0.00000000000E+00 -0.16322451471E+03  0.16322451471E+03  0.00000000000E+00 0. -1.
         25    2    1    2    0    0  0.11601482093E+01  0.53705665367E+01 -0.70160688029E+02  0.14354121941E+03  0.12510543791E+03 0.  0.
         23    2    1    2    0    0 -0.11601482093E+01 -0.53705665367E+01 -0.27465141011E+02  0.85281980982E+02  0.80551184850E+02 0.  0.
          5    1    3    3  502    0  0.17094257188E+02 -0.57519839479E+02 -0.31457105264E+02  0.67880537963E+02  0.41800000000E+01 0.  1.
         -5    1    3    3    0  502 -0.15934108979E+02  0.62890406016E+02 -0.38703582765E+02  0.75660681444E+02  0.41800000000E+01 0.  1.
        -11    1    4    4    0    0 -0.17226668883E+01 -0.19085790680E+02 -0.52963383762E+02  0.56323662937E+02  0.00000000000E+00 0. -1.
         11    1    4    4    0    0  0.56251867894E+00  0.13715224144E+02  0.25498242751E+02  0.28958318045E+02  0.00000000000E+00 0.  1.
</event>
<event>
 8    1  0.6648599E-009  0.1215692E+03  0.7561462E-02  0.1240531E+00
          2   -1    0    0  501    0  0.00000000000E+00  0.00000000000E+00  0.17630447637E+04  0.17630447637E+04  0.00000000000E+00 0. -1.
         -2   -1    0    0    0  501 -0.00000000000E+00 -0.00000000000E+00 -0.13119501829E+02  0.13119501829E+02  0.00000000000E+00 0.  1.
         25    2    1    2    0    0  0.31056120848E+02 -0.73727083744E+02  0.13479551791E+04  0.13561091434E+04  0.12509467759E+03 0.  0.
         23    2    1    2    0    0 -0.31056120848E+02  0.73727083744E+02  0.40197008277E+03  0.42005512215E+03  0.92011915997E+02 0.  0.
          5    1    3    3  502    0  0.62292127974E+02 -0.32073140078E+02  0.11220931410E+04  0.11242862113E+04  0.41800000000E+01 0.  1.
         -5    1    3    3    0  502 -0.31236007126E+02 -0.41653943666E+02  0.22586203812E+03  0.23182293205E+03  0.41800000000E+01 0.  1.
        -11    1    4    4    0    0 -0.48738337821E+02  0.41343326668E+01  0.19262147626E+03  0.19873487716E+03  0.00000000000E+00 0.  1.
         11    1    4    4    0    0  0.17682216973E+02  0.69592751077E+02  0.20934860650E+03  0.22132024499E+03  0.00000000000E+00 0. -1.
</event>
<event>
 8    1  0.6648599E-009  0.9588022E+02  0.7561462E-02  0.1289206E+00
          2   -1    0    0  501    0  0.00000000000E+00  0.00000000000E+00  0.20424582082E+04  0.20424582082E+04  0.00000000000E+00 0. -1.
         -2   -1    0    0    0  501 -0.00000000000E+00 -0.00000000000E+00 -0.19479787323E+02  0.19479787323E+02  0.00000000000E+00 0.  1.
         25    2    1    2    0    0  0.17702875534E+02  0.60888762805E+01  0.19159401382E+04  0.19201103467E+04  0.12508662556E+03 0.  0.
         23    2    1    2    0    0 -0.17702875534E+02 -0.60888762805E+01  0.10703828263E+03  0.14182764884E+03  0.91145059161E+02 0.  0.
          5    1    3    3  502    0 -0.25155599085E+02 -0.48896335652E+02  0.70191587724E+03  0.70407884993E+03  0.41800000000E+01 0. -1.
         -5    1    3    3    0  502  0.42858474620E+02  0.54985211933E+02  0.12140242610E+04  0.12160314967E+04  0.41800000000E+01 0. -1.
        -11    1    4    4    0    0 -0.40047788556E+02  0.73240737448E+01  0.10795932337E+02  0.42119111808E+02  0.00000000000E+00 0.  1.
         11    1    4    4    0    0  0.22344913022E+02 -0.13412950025E+02  0.96242350296E+02  0.99708537031E+02  0.00000000000E+00 0. -1.
</event>
<event>
 8    1  0.6648599E-009  0.1239920E+03  0.7561462E-02  0.1236653E+00
         -2   -1    0    0    0  501 -0.00000000000E+00  0.00000000000E+00  0.18261473156E+02  0.18261473156E+02  0.00000000000E+00 0.  1.
          2   -1    0    0  501    0  0.00000000000E+00 -0.00000000000E+00 -0.98999605528E+03  0.98999605528E+03  0.00000000000E+00 0. -1.
         25    2    1    2    0    0  0.73685214317E+02  0.93498553959E+00 -0.42839830523E+03  0.45233057984E+03  0.12508980983E+03 0.  0.
         23    2    1    2    0    0 -0.73685214317E+02 -0.93498553959E+00 -0.54333627689E+03  0.55592694860E+03  0.91706474062E+02 0.  0.
          5    1    3    3  502    0  0.16667548623E+02 -0.58214950318E+02 -0.14389791224E+03  0.15617576369E+03  0.41800000000E+01 0. -1.
         -5    1    3    3    0  502  0.57017665693E+02  0.59149935858E+02 -0.28450039299E+03  0.29615481615E+03  0.41800000000E+01 0. -1.
        -11    1    4    4    0    0 -0.86944918694E+02 -0.11979072718E+02 -0.51729077197E+03  0.52468339008E+03  0.00000000000E+00 0. -1.
         11    1    4    4    0    0  0.13259704377E+02  0.11044087179E+02 -0.26045504927E+02  0.31243558515E+02  0.00000000000E+00 0.  1.
</event>
<event>
 8    1  0.6648599E-009  0.9052681E+02  0.7561462E-02  0.1301581E+00
         -1   -1    0    0    0  501 -0.00000000000E+00  0.00000000000E+00  0.13378521230E+03  0.13378521230E+03  0.00000000000E+00 0.  1.
          1   -1    0    0  501    0  0.00000000000E+00 -0.00000000000E+00 -0.10562155880E+03  0.10562155880E+03  0.00000000000E+00 0. -1.
         25    2    1    2    0    0 -0.35838904953E+02 -0.28036566317E+02 -0.14327317284E+01  0.13311856852E+03  0.12509206372E+03 0.  0.
         23    2    1    2    0    0  0.35838904953E+02  0.28036566317E+02  0.29596385231E+02  0.10628820258E+03  0.91382491922E+02 0.  0.
          5    1    3    3  502    0  0.56385229688E+01  0.31192849196E+02 -0.39882594241E+02  0.51116342843E+02  0.41800000000E+01 0. -1.
         -5    1    3    3    0  502 -0.41477427922E+02 -0.59229415513E+02  0.38449862512E+02  0.82002225678E+02  0.41800000000E+01 0. -1.
        -11    1    4    4    0    0  0.50486217221E+02  0.33967318997E+02  0.51198523400E+02  0.79523114171E+02  0.00000000000E+00 0.  1.
         11    1    4    4    0    0 -0.14647312269E+02 -0.59307526800E+01 -0.21602138169E+02  0.26765088408E+02  0.00000000000E+00 0. -1.
</event>
<event>
 8    1  0.6648599E-009  0.8800769E+02  0.7561462E-02  0.1307749E+00
         -2   -1    0    0    0  501 -0.00000000000E+00  0.00000000000E+00  0.64284228832E+02  0.64284228832E+02  0.00000000000E+00 0.  1.
          2   -1    0    0  501    0  0.00000000000E+00 -0.00000000000E+00 -0.32545994400E+03  0.32545994400E+03  0.00000000000E+00 0. -1.
         25    2    1    2    0    0  0.27380973504E+02  0.72103720558E+02 -0.21979318286E+03  0.26439690210E+03  0.12509202364E+03 0.  0.
         23    2    1    2    0    0 -0.27380973504E+02 -0.72103720558E+02 -0.41382532311E+02  0.12534727074E+03  0.89726027845E+02 0.  0.
          5    1    3    3  502    0  0.41134114956E+02  0.71304863781E+02 -0.55259289674E+02  0.99234371602E+02  0.41800000000E+01 0.  1.
         -5    1    3    3    0  502 -0.13753141452E+02  0.79885677702E+00 -0.16453389319E+03  0.16516253049E+03  0.41800000000E+01 0.  1.
        -11    1    4    4    0    0 -0.11757649204E+02 -0.54071152009E+02  0.20511313991E+02  0.59013945776E+02  0.00000000000E+00 0.  1.
         11    1    4    4    0    0 -0.15623324301E+02 -0.18032568549E+02 -0.61893846302E+02  0.66333324963E+02  0.00000000000E+00 0. -1.
</event>
<event>
 8    1  0.6648599E-009  0.8975387E+02  0.7561462E-02  0.1303449E+00
         -2   -1    0    0    0  501 -0.00000000000E+00  0.00000000000E+00  0.23841868819E+03  0.23841868819E+03  0.00000000000E+00 0.  1.
          2   -1    0    0  501    0  0.00000000000E+00 -0.00000000000E+00 -0.70728605277E+02  0.70728605277E+02  0.00000000000E+00 0. -1.
         25    2    1    2    0    0  0.38654311518E+02  0.60750426774E+02  0.84874892533E+02  0.16744094374E+03  0.12509177473E+03 0.  0.
         23    2    1    2    0    0 -0.38654311518E+02 -0.60750426774E+02  0.82815190378E+02  0.14170634973E+03  0.89652460333E+02 0.  0.
          5    1    3    3  502    0  0.31481574741E+02  0.70153346790E+02 -0.45495065094E+01  0.77141117593E+02  0.41800000000E+01 0.  1.
         -5    1    3    3    0  502  0.71727367768E+01 -0.94029200157E+01  0.89424399042E+02  0.90299826145E+02  0.41800000000E+01 0.  1.
        -11    1    4    4    0    0 -0.97110005481E+01 -0.60231780190E+02  0.92822534543E+02  0.11107742253E+03  0.00000000000E+00 0.  1.
         11    1    4    4    0    0 -0.28943310970E+02 -0.51864658374E+00 -0.10007344165E+02  0.30628927200E+02  0.00000000000E+00 0. -1.
</event>
<event>
 8    1  0.6648599E-009  0.1084519E+03  0.7561462E-02  0.1263464E+00
          1   -1    0    0  501    0  0.00000000000E+00  0.00000000000E+00  0.21688399432E+03  0.21688399432E+03  0.00000000000E+00 0. -1.
         -1   -1    0    0    0  501 -0.00000000000E+00 -0.00000000000E+00 -0.13338074813E+03  0.13338074813E+03  0.00000000000E+00 0.  1.
         25    2    1    2    0    0  0.18664042570E+02  0.99491543875E+02 -0.47412012468E+02  0.16775634318E+03  0.12508947982E+03 0.  0.
         23    2    1    2    0    0 -0.18664042570E+02 -0.99491543875E+02  0.13091525866E+03  0.18250839927E+03  0.76964908019E+02 0.  0.
          5    1    3    3  502    0 -0.84395179316E+00  0.37230795954E+02 -0.84608892929E+02  0.92536379790E+02  0.41800000000E+01 0. -1.
         -5    1    3    3    0  502  0.19507994363E+02  0.62260747921E+02  0.37196880461E+02  0.75219963386E+02  0.41800000000E+01 0. -1.
        -11    1    4    4    0    0  0.18328987498E+02 -0.26520133453E+02  0.54044188132E+01  0.32687566501E+02  0.00000000000E+00 0.  1.
         11    1    4    4    0    0 -0.36993030068E+02 -0.72971410422E+02  0.12551083985E+03  0.14982083277E+03  0.00000000000E+00 0. -1.
</event>
<event>
 8    1  0.6648599E-009  0.1455157E+03  0.7561462E-02  0.1206094E+00
          2   -1    0    0  501    0  0.00000000000E+00  0.00000000000E+00  0.24907950452E+03  0.24907950452E+03  0.00000000000E+00 0. -1.
         -2   -1    0    0    0  501 -0.00000000000E+00 -0.00000000000E+00 -0.15019634965E+03  0.15019634965E+03  0.00000000000E+00 0.  1.
         25    2    1    2    0    0  0.90445819646E+01 -0.12208420562E+03  0.16129957882E+03  0.23801540695E+03  0.12508965622E+03 0.  0.
         23    2    1    2    0    0 -0.90445819646E+01  0.12208420562E+03 -0.62416423954E+02  0.16126044722E+03  0.84396469902E+02 0.  0.
          5    1    3    3  502    0  0.54695833378E+02 -0.98648046968E+02  0.14552275367E+03  0.18416681458E+03  0.41800000000E+01 0.  1.
         -5    1    3    3    0  502 -0.45651251413E+02 -0.23436158654E+02  0.15776825155E+02  0.53848592368E+02  0.41800000000E+01 0.  1.
        -11    1    4    4    0    0  0.12079345435E+01  0.11290223993E+03 -0.80403910033E+02  0.13861155664E+03  0.00000000000E+00 0.  1.
         11    1    4    4    0    0 -0.10252516508E+02  0.91819656941E+01  0.17987486079E+02  0.22648890573E+02  0.00000000000E+00 0. -1.
</event>
<event>
 8    1  0.6648599E-009  0.1599821E+03  0.7561462E-02  0.1188717E+00
         -3   -1    0    0    0  501 -0.00000000000E+00  0.00000000000E+00  0.49948467967E+02  0.49948467967E+02  0.00000000000E+00 0.  1.
          3   -1    0    0  501    0  0.00000000000E+00 -0.00000000000E+00 -0.67657133888E+03  0.67657133888E+03  0.00000000000E+00 0. -1.
         25    2    1    2    0    0  0.11637326526E+03  0.50394840732E+02 -0.48725045642E+03  0.51879358017E+03  0.12510553426E+03 0.  0.
         23    2    1    2    0    0 -0.11637326526E+03 -0.50394840732E+02 -0.13937241450E+03  0.20772622669E+03  0.87425044991E+02 0.  0.
          5    1    3    3  502    0  0.65053760347E+02  0.87034235413E+02 -0.36935226400E+03  0.38502664478E+03  0.41800000000E+01 0. -1.
         -5    1    3    3    0  502  0.51319504908E+02 -0.36639394680E+02 -0.11789819241E+03  0.13376693538E+03  0.41800000000E+01 0. -1.
        -11    1    4    4    0    0 -0.76503973293E+02  0.84291237166E+01 -0.43563971307E+02  0.88440531727E+02  0.00000000000E+00 0.  1.
         11    1    4    4    0    0 -0.39869291962E+02 -0.58823964449E+02 -0.95808443192E+02  0.11928569496E+03  0.00000000000E+00 0. -1.
</event>
<event>
 8    1  0.6648599E-009  0.1423372E+03  0.7561462E-02  0.1210218E+00
         -2   -1    0    0    0  501 -0.00000000000E+00  0.00000000000E+00  0.20913596767E+02  0.20913596767E+02  0.00000000000E+00 0.  1.
          2   -1    0    0  501    0  0.00000000000E+00 -0.00000000000E+00 -0.14300877750E+04  0.14300877750E+04  0.00000000000E+00 0. -1.
         25    2    1    2    0    0 -0.24286281966E+02 -0.13265913531E+03 -0.79400542703E+03  0.81503397094E+03  0.12508991152E+03 0.  0.
         23    2    1    2    0    0  0.24286281966E+02  0.13265913531E+03 -0.61516875121E+03  0.63596740083E+03  0.88508037957E+02 0.  0.
          5    1    3    3  502    0  0.22195067643E+01 -0.30862330694E+02 -0.28345028509E+02  0.42170163710E+02  0.41800000000E+01 0.  1.
         -5    1    3    3    0  502 -0.26505788731E+02 -0.10179680461E+03 -0.76566039852E+03  0.77286380723E+03  0.41800000000E+01 0.  1.
        -11    1    4    4    0    0  0.41265458039E+02  0.55430060153E+02 -0.16467630273E+03  0.17858783351E+03  0.00000000000E+00 0. -1.
         11    1    4    4    0    0 -0.16979176073E+02  0.77229075155E+02 -0.45049244847E+03  0.45737956732E+03  0.00000000000E+00 0.  1.
</event>
<event>
 8    1  0.6648599E-009  0.1797358E+03  0.7561462E-02  0.1168059E+00
          2   -1    0    0  501    0  0.00000000000E+00  0.00000000000E+00  0.35480357641E+03  0.35480357641E+03  0.00000000000E+00 0. -1.
         -2   -1    0    0    0  501 -0.00000000000E+00 -0.00000000000E+00 -0.12666452743E+03  0.12666452743E+03  0.00000000000E+00 0.  1.
         25    2    1    2    0    0  0.94438104934E+02 -0.13240947742E+03  0.49568941039E+02  0.21108045154E+03  0.12508817582E+03 0.  0.
         23    2    1    2    0    0 -0.94438104934E+02  0.13240947742E+03  0.17857010794E+03  0.27038765230E+03  0.12153754027E+03 0.  0.
          5    1    3    3  502    0  0.32761110097E+02 -0.12127843608E+03 -0.79022873025E+01  0.12594311389E+03  0.41800000000E+01 0. -1.
         -5    1    3    3    0  502  0.61676994837E+02 -0.11131041340E+02  0.57471228342E+02  0.85137337640E+02  0.41800000000E+01 0. -1.
        -11    1    4    4    0    0 -0.45758694587E+02  0.23000257537E+02 -0.47364356238E+01  0.51432516947E+02  0.00000000000E+00 0.  1.
         11    1    4    4    0    0 -0.48679410347E+02  0.10940921988E+03  0.18330654356E+03  0.21895513536E+03  0.00000000000E+00 0. -1.
</event>
<event>
 8    1  0.6648599E-009  0.1020592E+03  0.7561462E-02  0.1276024E+00
          2   -1    0    0  501    0  0.00000000000E+00  0.00000000000E+00  0.48091201562E+03  0.48091201562E+03  0.00000000000E+00 0. -1.
         -2   -1    0    0    0  501 -0.00000000000E+00 -0.00000000000E+00 -0.42368575541E+02  0.42368575541E+02  0.00000000000E+00 0.  1.
         25    2    1    2    0    0 -0.38522480309E+02  0.83058751418E+02  0.26423377482E+03  0.30634938265E+03  0.12509084227E+03 0.  0.
         23    2    1    2    0    0  0.38522480309E+02 -0.83058751418E+02  0.17430966526E+03  0.21693120851E+03  0.91063451212E+02 0.  0.
          5    1    3    3  502    0 -0.36301849867E+02  0.26028891353E+02  0.10278848274E+02  0.46026672818E+02  0.41800000000E+01 0. -1.
         -5    1    3    3    0  502 -0.22206304423E+01  0.57029860065E+02  0.25395492654E+03  0.26032270983E+03  0.41800000000E+01 0. -1.
        -11    1    4    4    0    0  0.46947448497E+02 -0.52962079026E+02  0.44933459481E+02  0.83833528591E+02  0.00000000000E+00 0.  1.
         11    1    4    4    0    0 -0.84249681881E+01 -0.30096672392E+02  0.12937620578E+03  0.13309767992E+03  0.00000000000E+00 0. -1.
</event>
<event>
 8    1  0.6648599E-009  0.1212457E+03  0.7561462E-02  0.1241056E+00
         -1   -1    0    0    0  501 -0.00000000000E+00  0.00000000000E+00  0.45513526513E+03  0.45513526513E+03  0.00000000000E+00 0.  1.
          1   -1    0    0  501    0  0.00000000000E+00 -0.00000000000E+00 -0.34079501513E+02  0.34079501513E+02  0.00000000000E+00 0. -1.
         25    2    1    2    0    0  0.60417157738E+02  0.45797000873E+01  0.25036527674E+03  0.28635811100E+03  0.12508792642E+03 0.  0.
         23    2    1    2    0    0 -0.60417157738E+02 -0.45797000873E+01  0.17069048688E+03  0.20285665564E+03  0.91347544175E+02 0.  0.
          5    1    3    3  502    0  0.97842955463E+02  0.14658827238E+02  0.19420368990E+03  0.21799236390E+03  0.41800000000E+01 0. -1.
         -5    1    3    3    0  502 -0.37425797725E+02 -0.10079127151E+02  0.56161586847E+02  0.68365747101E+02  0.41800000000E+01 0. -1.
        -11    1    4    4    0    0  0.47537793207E+01  0.30228554401E+02  0.25044851284E+02  0.39542489740E+02  0.00000000000E+00 0.  1.
         11    1    4    4    0    0 -0.65170937059E+02 -0.34808254488E+02  0.14564563559E+03  0.16331416590E+03  0.00000000000E+00 0. -1.
</event>
<event>
 8    1  0.6648599E-009  0.9454856E+02  0.7561462E-02  0.1292196E+00
          3   -1    0    0  501    0  0.00000000000E+00  0.00000000000E+00  0.28020824586E+02  0.28020824586E+02  0.00000000000E+00 0. -1.
         -3   -1    0    0    0  501 -0.00000000000E+00 -0.00000000000E+00 -0.62099560660E+03  0.62099560660E+03  0.00000000000E+00 0.  1.
         25    2    1    2    0    0 -0.71993535034E+01 -0.70444191134E+02 -0.38776031241E+03  0.41354580032E+03  0.12509138389E+03 0.  0.
         23    2    1    2    0    0  0.71993535034E+01  0.70444191134E+02 -0.20521446960E+03  0.23547063087E+03  0.91209784084E+02 0.  0.
          5    1    3    3  502    0  0.28710086480E+01 -0.52452980316E+02 -0.38892249532E+03  0.39247641661E+03  0.41800000000E+01 0. -1.
         -5    1    3    3    0  502 -0.10070362151E+02 -0.17991210818E+02  0.11621829040E+01  0.21069383704E+02  0.41800000000E+01 0. -1.
        -11    1    4    4    0    0 -0.41827956714E+02  0.26444485463E+02 -0.93101780080E+02  0.10543638000E+03  0.00000000000E+00 0. -1.
         11    1    4    4    0    0  0.49027310217E+02  0.43999705671E+02 -0.11211268952E+03  0.13003425087E+03  0.00000000000E+00 0.  1.
</event>
<event>
 8    1  0.6648599E-009  0.1857548E+03  0.7561462E-02  0.1162347E+00
          1   -1    0    0  501    0  0.00000000000E+00  0.00000000000E+00  0.32790769343E+03  0.32790769343E+03  0.00000000000E+00 0. -1.
         -1   -1    0    0    0  501 -0.00000000000E+00 -0.00000000000E+00 -0.10985045864E+03  0.10985045864E+03  0.00000000000E+00 0.  1.
         25    2    1    2    0    0 -0.33368345187E+02 -0.14900613044E+03  0.14283783335E+03  0.24364917523E+03  0.12508397413E+03 0.  0.
         23    2    1    2    0    0  0.33368345187E+02  0.14900613044E+03  0.75219401440E+02  0.19410897684E+03  0.93295568869E+02 0.  0.
          5    1    3    3  502    0  0.28815089749E+02  0.22551346850E+01  0.43046402609E+02  0.52017883533E+02  0.41800000000E+01 0.  1.
         -5    1    3    3    0  502 -0.62183434936E+02 -0.15126126512E+03  0.99791430742E+02  0.19163129169E+03  0.41800000000E+01 0.  1.
        -11    1    4    4    0    0 -0.71131411213E+01  0.13600375859E+03  0.61501485581E+02  0.14943243241E+03  0.00000000000E+00 0.  1.
         11    1    4    4    0    0  0.40481486308E+02  0.13002371850E+02  0.13717915858E+02  0.44676544438E+02  0.00000000000E+00 0. -1.
</event>
<event>
 8    1  0.6648599E-009  0.1242446E+03  0.7561462E-02  0.1236255E+00
          2   -1    0    0  501    0  0.00000000000E+00  0.00000000000E+00  0.17392416997E+03  0.17392416997E+03  0.00000000000E+00 0. -1.
         -2   -1    0    0    0  501 -0.00000000000E+00 -0.00000000000E+00 -0.24708388437E+03  0.24708388437E+03  0.00000000000E+00 0.  1.
         25    2    1    2    0    0  0.84872714564E+02  0.77971607089E+02  0.94426691649E+02  0.19454016970E+03  0.12508608373E+03 0.  0.
         23    2    1    2    0    0 -0.84872714564E+02 -0.77971607089E+02 -0.16758640604E+03  0.22646788463E+03  0.99596938158E+02 0.  0.
          5    1    3    3  502    0 -0.11000492528E+02  0.81031916972E+01  0.72416328017E+02  0.73812394047E+02  0.41800000000E+01 0.  1.
         -5    1    3    3    0  502  0.95873207092E+02  0.69868415391E+02  0.22010363632E+02  0.12072777566E+03  0.41800000000E+01 0.  1.
        -11    1    4    4    0    0 -0.54999216826E+02 -0.55308038738E+02 -0.29517541886E+02  0.83397711477E+02  0.00000000000E+00 0. -1.
         11    1    4    4    0    0 -0.29873497738E+02 -0.22663568350E+02 -0.13806886416E+03  0.14307017316E+03  0.00000000000E+00 0.  1.
</event>
<event>
 8    1  0.6648599E-009  0.1259996E+03  0.7561462E-02  0.1233515E+00
         -2   -1    0    0    0  501 -0.00000000000E+00  0.00000000000E+00  0.51885421098E+03  0.51885421098E+03  0.00000000000E+00 0. -1.
          2   -1    0    0  501    0  0.00000000000E+00 -0.00000000000E+00 -0.43551339793E+02  0.43551339793E+02  0.00000000000E+00 0.  1.
         25    2    1    2    0    0 -0.66508816757E+02  0.75601078281E+02  0.19927919651E+03  0.25592794776E+03  0.12509184841E+03 0.  0.
         23    2    1    2    0    0  0.66508816757E+02 -0.75601078281E+02  0.27602367467E+03  0.30647760301E+03  0.87180883351E+02 0.  0.
          5    1    3    3  502    0 -0.42229133358E+01 -0.27487122365E+02  0.86184859398E+02  0.90656920765E+02  0.41800000000E+01 0.  1.
         -5    1    3    3    0  502 -0.62285903421E+02  0.10308820065E+03  0.11309433711E+03  0.16527102700E+03  0.41800000000E+01 0.  1.
        -11    1    4    4    0    0  0.23819903846E+02 -0.44737111236E+02  0.23304185596E+03  0.23848962990E+03  0.00000000000E+00 0.  1.
         11    1    4    4    0    0  0.42688912910E+02 -0.30863967045E+02  0.42981818711E+02  0.67987973105E+02  0.00000000000E+00 0. -1.
</event>
<event>
 8    1  0.6648599E-009  0.1477999E+03  0.7561462E-02  0.1203203E+00
          2   -1    0    0  501    0  0.00000000000E+00  0.00000000000E+00  0.12856349513E+04  0.12856349513E+04  0.00000000000E+00 0. -1.
         -2   -1    0    0    0  501 -0.00000000000E+00 -0.00000000000E+00 -0.19614340467E+02  0.19614340467E+02  0.00000000000E+00 0.  1.
         25    2    1    2    0    0  0.86426771460E+02  0.57533461045E+02  0.89659507059E+03  0.91121356503E+03  0.12509098503E+03 0.  0.
         23    2    1    2    0    0 -0.86426771460E+02 -0.57533461045E+02  0.36942554029E+03  0.39403572678E+03  0.89494347266E+02 0.  0.
          5    1    3    3  502    0  0.27937035420E+02  0.90329183247E+02  0.56632936910E+03  0.57418312932E+03  0.41800000000E+01 0. -1.
         -5    1    3    3    0  502  0.58489736041E+02 -0.32795722203E+02  0.33026570149E+03  0.33703043571E+03  0.41800000000E+01 0. -1.
        -11    1    4    4    0    0  0.49921538629E+01 -0.40464262252E+02  0.15577508478E+03  0.16102221946E+03  0.00000000000E+00 0. -1.
         11    1    4    4    0    0 -0.91418925323E+02 -0.17069198792E+02  0.21365045551E+03  0.23301350732E+03  0.00000000000E+00 0.  1.
</event>
<event>
 8    1  0.6648599E-009  0.1938851E+03  0.7561462E-02  0.1155003E+00
         -2   -1    0    0    0  501 -0.00000000000E+00  0.00000000000E+00  0.49017068205E+02  0.49017068205E+02  0.00000000000E+00 0.  1.
          2   -1    0    0  501    0  0.00000000000E+00 -0.00000000000E+00 -0.11920641039E+04  0.11920641039E+04  0.00000000000E+00 0. -1.
         25    2    1    2    0    0  0.13932865827E+03 -0.91909626089E+02 -0.93607261860E+03  0.95903051437E+03  0.12509087026E+03 0.  0.
         23    2    1    2    0    0 -0.13932865827E+03  0.91909626089E+02 -0.20697441714E+03  0.28205065778E+03  0.94097342261E+02 0.  0.
          5    1    3    3  502    0 -0.80178237522E+01  0.21020017761E+02 -0.10570998248E+03  0.10815821485E+03  0.41800000000E+01 0.  1.
         -5    1    3    3    0  502  0.14734648202E+03 -0.11292964385E+03 -0.83036263612E+03  0.85087229952E+03  0.41800000000E+01 0.  1.
        -11    1    4    4    0    0 -0.14529708447E+03  0.79977498238E+02 -0.15029393402E+03  0.22382115535E+03  0.00000000000E+00 0.  1.
         11    1    4    4    0    0  0.59684261989E+01  0.11932127851E+02 -0.56680483123E+02  0.58229502432E+02  0.00000000000E+00 0. -1.
</event>
<event>
 8    1  0.6648599E-009  0.1457309E+03  0.7561462E-02  0.1205819E+00
          1   -1    0    0  501    0  0.00000000000E+00  0.00000000000E+00  0.16052002537E+03  0.16052002537E+03  0.00000000000E+00 0. -1.
         -1   -1    0    0    0  501 -0.00000000000E+00 -0.00000000000E+00 -0.20711844950E+03  0.20711844950E+03  0.00000000000E+00 0.  1.
         25    2    1    2    0    0 -0.34761042764E+02  0.95760612329E+02 -0.13076815977E+03  0.20766750928E+03  0.12508820021E+03 0.  0.
         23    2    1    2    0    0  0.34761042764E+02 -0.95760612329E+02  0.84169735638E+02  0.15997096559E+03  0.90153981988E+02 0.  0.
          5    1    3    3  502    0 -0.52418767085E+02 -0.91162404906E+01 -0.57506243407E+02  0.78455550563E+02  0.41800000000E+01 0.  1.
         -5    1    3    3    0  502  0.17657724321E+02  0.10487685282E+03 -0.73261916365E+02  0.12921195872E+03  0.41800000000E+01 0.  1.
        -11    1    4    4    0    0  0.52423733549E+02 -0.23822662531E+02  0.17162340775E+02  0.60085880456E+02  0.00000000000E+00 0.  1.
         11    1    4    4    0    0 -0.17662690785E+02 -0.71937949798E+02  0.67007394863E+02  0.99885085139E+02  0.00000000000E+00 0. -1.
</event>
<event>
 8    1  0.6648599E-009  0.1106655E+03  0.7561462E-02  0.1259342E+00
          2   -1    0    0  501    0  0.00000000000E+00  0.00000000000E+00  0.37436058175E+03  0.37436058175E+03  0.00000000000E+00 0. -1.
         -2   -1    0    0    0  501 -0.00000000000E+00 -0.00000000000E+00 -0.39059799834E+02  0.39059799834E+02  0.00000000000E+00 0.  1.
         25    2    1    2    0    0  0.36902036940E+01 -0.40641692064E+02  0.12639230038E+03  0.18243527510E+03  0.12506898604E+03 0.  0.
         23    2    1    2    0    0 -0.36902036940E+01  0.40641692064E+02  0.20890848153E+03  0.23098510648E+03  0.89699504014E+02 0.  0.
          5    1    3    3  502    0 -0.53930617184E+02 -0.35999682545E+01  0.89188807602E+02  0.10437234808E+03  0.41800000000E+01 0.  1.
         -5    1    3    3    0  502  0.57620820878E+02 -0.37041723809E+02  0.37203492777E+02  0.78062927028E+02  0.41800000000E+01 0.  1.
        -11    1    4    4    0    0  0.34251972686E+02  0.48859717176E+02  0.13029759105E+03  0.14331061311E+03  0.00000000000E+00 0. -1.
         11    1    4    4    0    0 -0.37942176380E+02 -0.82180251123E+01  0.78610890481E+02  0.87674493369E+02  0.00000000000E+00 0.  1.
</event>
<event>
 8    1  0.6648599E-009  0.9509806E+02  0.7561462E-02  0.1290955E+00
          1   -1    0    0  501    0  0.00000000000E+00  0.00000000000E+00  0.22157789967E+03  0.22157789967E+03  0.00000000000E+00 0. -1.
         -1   -1    0    0    0  501 -0.00000000000E+00 -0.00000000000E+00 -0.62309966866E+02  0.62309966866E+02  0.00000000000E+00 0.  1.
         25    2    1    2    0    0  0.37113660748E+02 -0.22578475390E+02  0.10449820757E+03  0.16868469097E+03  0.12508972067E+03 0.  0.
         23    2    1    2    0    0 -0.37113660748E+02  0.22578475390E+02  0.54769725230E+02  0.11520317556E+03  0.91568758276E+02 0.  0.
          5    1    3    3  502    0 -0.43984941693E+01  0.45422967243E+02  0.65350447640E+02  0.79816953781E+02  0.41800000000E+01 0. -1.
         -5    1    3    3    0  502  0.41512154918E+02 -0.68001442633E+02  0.39147759932E+02  0.88867737193E+02  0.41800000000E+01 0. -1.
        -11    1    4    4    0    0  0.10629133117E+02  0.11337601115E+02 -0.20278339904E+02  0.25548595639E+02  0.00000000000E+00 0.  1.
         11    1    4    4    0    0 -0.47742793866E+02  0.11240874276E+02  0.75048065134E+02  0.89654579921E+02  0.00000000000E+00 0. -1.
</event>
<event>
 8    1  0.6648599E-009  0.1868895E+03  0.7561462E-02  0.1161297E+00
         -2   -1    0    0    0  501 -0.00000000000E+00  0.00000000000E+00  0.34857193737E+02  0.34857193737E+02  0.00000000000E+00 0. -1.
          2   -1    0    0  501    0  0.00000000000E+00 -0.00000000000E+00 -0.24312625111E+04  0.24312625111E+04  0.00000000000E+00 0.  1.
         25    2    1    2    0    0 -0.11156045652E+03  0.11549221079E+03 -0.21558570605E+04  0.21654446139E+04  0.12508606809E+03 0.  0.
         23    2    1    2    0    0  0.11156045652E+03 -0.11549221079E+03 -0.24054825693E+03  0.30067509099E+03  0.82206205460E+02 0.  0.
          5    1    3    3  502    0  0.11845624088E+02  0.54546927568E+02 -0.36105357984E+03  0.36536672814E+03  0.41800000000E+01 0.  1.
         -5    1    3    3    0  502 -0.12340608060E+03  0.60945283219E+02 -0.17948034806E+04  0.18000778857E+04  0.41800000000E+01 0.  1.
        -11    1    4    4    0    0  0.88642296422E+02 -0.33157178429E+02 -0.13486676884E+03  0.16476013029E+03  0.00000000000E+00 0.  1.
         11    1    4    4    0    0  0.22918160095E+02 -0.82335032357E+02 -0.10568148809E+03  0.13591496070E+03  0.00000000000E+00 0. -1.
</event>
<event>
 7    1  0.6648599E-009  0.8507960E+02  0.7561462E-02  0.1315225E+00
         -2   -1    0    0    0  501 -0.00000000000E+00  0.00000000000E+00  0.13293738402E+03  0.13293738402E+03  0.00000000000E+00 0.  1.
          2   -1    0    0  501    0  0.00000000000E+00 -0.00000000000E+00 -0.97270678721E+02  0.97270678721E+02  0.00000000000E+00 0. -1.
         23    2    1    2    0    0  0.38502660175E+02 -0.69449754028E+01  0.30150261484E+02  0.98877087579E+02  0.85656013546E+02 0.  0.
          5    1    1    2  502    0 -0.51477672107E+02  0.21901947867E+02 -0.48179270267E+02  0.73948363939E+02  0.41800000000E+01 0.  1.
         -5    1    1    2    0  502  0.12975011932E+02 -0.14956972464E+02  0.53695714085E+02  0.57382611225E+02  0.41800000000E+01 0.  1.
        -11    1    3    3    0    0  0.36333647026E+02 -0.43797619631E+02  0.22395818562E+02  0.61155033159E+02  0.00000000000E+00 0.  1.
         11    1    3    3    0    0  0.21690131486E+01  0.36852644228E+02  0.77544429213E+01  0.37722054420E+02  0.00000000000E+00 0. -1.
</event>
<event>
 8    1  0.6648599E-009  0.1612923E+03  0.7561462E-02  0.1187245E+00
         -2   -1    0    0    0  501 -0.00000000000E+00  0.00000000000E+00  0.62924942380E+02  0.62924942380E+02  0.00000000000E+00 0.  1.
          2   -1    0    0  501    0  0.00000000000E+00 -0.00000000000E+00 -0.62866257303E+03  0.62866257303E+03  0.00000000000E+00 0. -1.
         25    2    1    2    0    0 -0.95957860856E+02  0.12357590265E+03 -0.19729559262E+03  0.28116127336E+03  0.12508875246E+03 0.  0.
         23    2    1    2    0    0  0.95957860856E+02 -0.12357590265E+03 -0.36844203802E+03  0.41042624204E+03  0.90671108961E+02 0.  0.
          5    1    3    3  502    0 -0.78152705674E+02  0.82531097318E+02 -0.44903903458E+02  0.12228270677E+03  0.41800000000E+01 0. -1.
         -5    1    3    3    0  502 -0.17805155182E+02  0.41044805334E+02 -0.15239168917E+03  0.15887856659E+03  0.41800000000E+01 0. -1.
        -11    1    4    4    0    0  0.70544461741E+02 -0.51100570507E+02 -0.10720146522E+03  0.13813016880E+03  0.00000000000E+00 0.  1.
         11    1    4    4    0    0  0.25413399115E+02 -0.72475332145E+02 -0.26124057280E+03  0.27229607324E+03  0.00000000000E+00 0. -1.
</event>
<event>
 8    1  0.6648599E-009  0.1082790E+03  0.7561462E-02  0.1263790E+00
          2   -1    0    0  501    0  0.00000000000E+00  0.00000000000E+00  0.85723574879E+02  0.85723574879E+02  0.00000000000E+00 0. -1.
         -2   -1    0    0    0  501 -0.00000000000E+00 -0.00000000000E+00 -0.19558017853E+03  0.19558017853E+03  0.00000000000E+00 0.  1.
         25    2    1    2    0    0  0.47631391053E+02  0.10922860429E+02 -0.75275063475E+01  0.13450259047E+03  0.12508487198E+03 0.  0.
         23    2    1    2    0    0 -0.47631391053E+02 -0.10922860429E+02 -0.10232909731E+03  0.14680116294E+03  0.93227029294E+02 0.  0.
          5    1    3    3  502    0 -0.16319790901E+02 -0.34690532935E+02  0.28528808950E+02  0.47970136444E+02  0.41800000000E+01 0.  1.
         -5    1    3    3    0  502  0.63951181954E+02  0.45613393364E+02 -0.36056315297E+02  0.86532454029E+02  0.41800000000E+01 0.  1.
        -11    1    4    4    0    0  0.25546277900E+02 -0.24215460196E+01 -0.75308262278E+01  0.26743027939E+02  0.00000000000E+00 0. -1.
         11    1    4    4    0    0 -0.73177668953E+02 -0.85013144094E+01 -0.94798271080E+02  0.12005813500E+03  0.00000000000E+00 0.  1.
</event>
<event>
 7    1  0.6648599E-009  0.6280854E+02  0.7561462E-02  0.1386410E+00
         -2   -1    0    0    0  501 -0.00000000000E+00  0.00000000000E+00  0.35329057256E+02  0.35329057256E+02  0.00000000000E+00 0.  1.
          2   -1    0    0  501    0  0.00000000000E+00 -0.00000000000E+00 -0.70320960538E+03  0.70320960538E+03  0.00000000000E+00 0. -1.
         23    2    1    2    0    0  0.63800333687E+01 -0.23792563838E+02 -0.51554174664E+02  0.10915121869E+03  0.93001960712E+02 0.  0.
          5    1    1    2  502    0 -0.23616713387E+02 -0.10268575166E+02 -0.22883406139E+02  0.34703248604E+02  0.41800000000E+01 0. -1.
         -5    1    1    2    0  502  0.17236680018E+02  0.34061139004E+02 -0.59344296732E+03  0.59468419534E+03  0.41800000000E+01 0. -1.
        -11    1    3    3    0    0  0.88820077160E+01 -0.41907459718E+02  0.10793381181E+02  0.44177169652E+02  0.00000000000E+00 0.  1.
         11    1    3    3    0    0 -0.25019743473E+01  0.18114895880E+02 -0.62347555846E+02  0.64974049037E+02  0.00000000000E+00 0. -1.
</event>
<event>
 8    1  0.6648599E-009  0.1172889E+03  0.7561462E-02  0.1247638E+00
         -1   -1    0    0    0  501 -0.00000000000E+00  0.00000000000E+00  0.21748118229E+03  0.21748118229E+03  0.00000000000E+00 0.  1.
          1   -1    0    0  501    0  0.00000000000E+00 -0.00000000000E+00 -0.65380286726E+02  0.65380286726E+02  0.00000000000E+00 0. -1.
         25    2    1    2    0    0  0.26915279932E+01 -0.51589626329E+02  0.80497412896E+02  0.15747039236E+03  0.12509339358E+03 0.  0.
         23    2    1    2    0    0 -0.26915279932E+01  0.51589626329E+02  0.71603482673E+02  0.12539107667E+03  0.89034428782E+02 0.  0.
          5    1    3    3  502    0 -0.54801531509E+02 -0.49915797157E+02  0.27580085557E+02  0.79201819303E+02  0.41800000000E+01 0.  1.
         -5    1    3    3    0  502  0.57493059502E+02 -0.16738291727E+01  0.52917327338E+02  0.78268573052E+02  0.41800000000E+01 0.  1.
        -11    1    4    4    0    0  0.22104925265E+02 -0.18179013564E+02  0.24132987249E+02  0.37436684264E+02  0.00000000000E+00 0.  1.
         11    1    4    4    0    0 -0.24796453258E+02  0.69768639894E+02  0.47470495424E+02  0.87954392401E+02  0.00000000000E+00 0. -1.
</event>
<event>
 8    1  0.6648599E-009  0.1221559E+03  0.7561462E-02  0.1239582E+00
          1   -1    0    0  501    0  0.00000000000E+00  0.00000000000E+00  0.41178187283E+03  0.41178187283E+03  0.00000000000E+00 0. -1.
         -1   -1    0    0    0  501 -0.00000000000E+00 -0.00000000000E+00 -0.43434386604E+02  0.43434386604E+02  0.00000000000E+00 0.  1.
         25    2    1    2    0    0 -0.52328419065E+02  0.56987882822E+02  0.22786419961E+03  0.27120984210E+03  0.12508718063E+03 0.  0.
         23    2    1    2    0    0  0.52328419065E+02 -0.56987882822E+02  0.14048328662E+03  0.18400641734E+03  0.90204908794E+02 0.  0.
          5    1    3    3  502    0 -0.18381306132E+02 -0.37953171984E+02  0.97813082275E+02  0.10659825112E+03  0.41800000000E+01 0. -1.
         -5    1    3    3    0  502 -0.33947112933E+02  0.94941054806E+02  0.13005111733E+03  0.16461159097E+03  0.41800000000E+01 0. -1.
        -11    1    4    4    0    0  0.29426395173E+02 -0.69106130644E+02  0.13907039736E+03  0.15805741187E+03  0.00000000000E+00 0. -1.
         11    1    4    4    0    0  0.22902023892E+02  0.12118247822E+02  0.14128892625E+01  0.25949005466E+02  0.00000000000E+00 0.  1.
</event>
<event>
 8    1  0.6648599E-009  0.1017954E+03  0.7561462E-02  0.1276565E+00
          2   -1    0    0  501    0  0.00000000000E+00  0.00000000000E+00  0.32835613702E+03  0.32835613702E+03  0.00000000000E+00 0. -1.
         -2   -1    0    0    0  501 -0.00000000000E+00 -0.00000000000E+00 -0.48499827516E+02  0.48499827516E+02  0.00000000000E+00 0.  1.
         25    2    1    2    0    0 -0.58263671599E+02  0.23602735421E+02  0.11950113384E+03  0.18406241667E+03  0.12508680064E+03 0.  0.
         23    2    1    2    0    0  0.58263671599E+02 -0.23602735421E+02  0.16035517566E+03  0.19279354786E+03  0.86624622291E+02 0.  0.
          5    1    3    3  502    0 -0.97810519734E+02  0.19820360775E+02  0.81305577030E+02  0.12879368668E+03  0.41800000000E+01 0. -1.
         -5    1    3    3    0  502  0.39546848135E+02  0.37823746462E+01  0.38195556806E+02  0.55268729994E+02  0.41800000000E+01 0. -1.
        -11    1    4    4    0    0  0.21992740187E+02 -0.14564646589E+02 -0.17483120463E+01  0.26436076604E+02  0.00000000000E+00 0.  1.
         11    1    4    4    0    0  0.36270931412E+02 -0.90380888320E+01  0.16210348771E+03  0.16635747126E+03  0.00000000000E+00 0. -1.
</event>
<event>
 8    1  0.6648599E-009  0.2358264E+03  0.7561462E-02  0.1122605E+00
         -2   -1    0    0    0  501 -0.00000000000E+00  0.00000000000E+00  0.24610360674E+03  0.24610360674E+03  0.00000000000E+00 0. -1.
          2   -1    0    0  501    0  0.00000000000E+00 -0.00000000000E+00 -0.25113608196E+03  0.25113608196E+03  0.00000000000E+00 0.  1.
         25    2    1    2    0    0  0.20127377653E+03  0.93562196142E+02  0.16330483924E+02  0.25530365310E+03  0.12509297710E+03 0.  0.
         23    2    1    2    0    0 -0.20127377653E+03 -0.93562196142E+02 -0.21362959143E+02  0.24193603559E+03  0.93870398057E+02 0.  0.
          5    1    3    3  502    0  0.17208493233E+03  0.11856633498E+03 -0.87817656454E+01  0.20920275222E+03  0.41800000000E+01 0.  1.
         -5    1    3    3    0  502  0.29188844191E+02 -0.25004138837E+02  0.25112249570E+02  0.46100900887E+02  0.41800000000E+01 0.  1.
        -11    1    4    4    0    0 -0.14053936547E+03 -0.80106678685E+02 -0.55444795681E+02  0.17100444025E+03  0.00000000000E+00 0.  1.
         11    1    4    4    0    0 -0.60734411054E+02 -0.13455517457E+02  0.34081836538E+02  0.70931595343E+02  0.00000000000E+00 0. -1.
</event>
<event>
 8    1  0.6648599E-009  0.9919671E+02  0.7561462E-02  0.1281994E+00
          2   -1    0    0  501    0  0.00000000000E+00  0.00000000000E+00  0.34076981634E+03  0.34076981634E+03  0.00000000000E+00 0. -1.
         -2   -1    0    0    0  501 -0.00000000000E+00 -0.00000000000E+00 -0.63069422694E+02  0.63069422694E+02  0.00000000000E+00 0.  1.
         25    2    1    2    0    0 -0.17638518139E+02  0.21685938568E+02  0.21220054866E+02  0.12991833982E+03  0.12508831695E+03 0.  0.
         23    2    1    2    0    0  0.17638518139E+02 -0.21685938568E+02  0.25648033879E+03  0.27392089922E+03  0.92027700142E+02 0.  0.
          5    1    3    3  502    0 -0.67032657055E+02  0.35096220019E+02  0.45042776955E+01  0.75913652850E+02  0.41800000000E+01 0. -1.
         -5    1    3    3    0  502  0.49394138917E+02 -0.13410281451E+02  0.16715777170E+02  0.54004686966E+02  0.41800000000E+01 0. -1.
        -11    1    4    4    0    0 -0.24630131573E+02 -0.22341665605E+01  0.17116881452E+02  0.30076943198E+02  0.00000000000E+00 0.  1.
         11    1    4    4    0    0  0.42268649711E+02 -0.19451772007E+02  0.23936345733E+03  0.24384395602E+03  0.00000000000E+00 0. -1.
</event>
<event>
 8    1  0.6648599E-009  0.1853055E+03  0.7561462E-02  0.1162765E+00
          4   -1    0    0  501    0  0.00000000000E+00  0.00000000000E+00  0.28342767492E+03  0.28342767492E+03  0.00000000000E+00 0. -1.
         -4   -1    0    0    0  501 -0.00000000000E+00 -0.00000000000E+00 -0.14303143553E+03  0.14303143553E+03  0.00000000000E+00 0.  1.
         25    2    1    2    0    0 -0.16409252379E+03 -0.91886617988E+01  0.28829720213E+02  0.20854084225E+03  0.12508933706E+03 0.  0.
         23    2    1    2    0    0  0.16409252379E+03  0.91886617988E+01  0.11156651918E+03  0.21791826820E+03  0.89613032230E+02 0.  0.
          5    1    3    3  502    0 -0.15235076990E+03  0.23854979932E+02  0.55861878099E+02  0.16406656875E+03  0.41800000000E+01 0.  1.
         -5    1    3    3    0  502 -0.11741753898E+02 -0.33043641731E+02 -0.27032157886E+02  0.44474273501E+02  0.41800000000E+01 0.  1.
        -11    1    4    4    0    0  0.17047214725E+02 -0.24814233796E+02 -0.21341350370E+00  0.30106465653E+02  0.00000000000E+00 0.  1.
         11    1    4    4    0    0  0.14704530907E+03  0.34002895595E+02  0.11177993268E+03  0.18781180255E+03  0.00000000000E+00 0. -1.
</event>
<event>
 8    1  0.6648599E-009  0.1180808E+03  0.7561462E-02  0.1246297E+00
          2   -1    0    0  501    0  0.00000000000E+00  0.00000000000E+00  0.11621262787E+03  0.11621262787E+03  0.00000000000E+00 0. -1.
         -2   -1    0    0    0  501 -0.00000000000E+00 -0.00000000000E+00 -0.13023938268E+03  0.13023938268E+03  0.00000000000E+00 0.  1.
         25    2    1    2    0    0  0.38827052236E+02  0.38286102276E+02 -0.22475038900E+02  0.13829642825E+03  0.12508960421E+03 0.  0.
         23    2    1    2    0    0 -0.38827052236E+02 -0.38286102276E+02  0.84482840909E+01  0.10815558229E+03  0.93020916275E+02 0.  0.
          5    1    3    3  502    0  0.80673326211E+02  0.20753580041E+02  0.75254822576E+01  0.83743667998E+02  0.41800000000E+01 0. -1.
         -5    1    3    3    0  502 -0.41846273975E+02  0.17532522234E+02 -0.30000521158E+02  0.54552760253E+02  0.41800000000E+01 0. -1.
        -11    1    4    4    0    0 -0.55576305639E+02 -0.58668274002E+02  0.11387617092E+02  0.81611089601E+02  0.00000000000E+00 0. -1.
         11    1    4    4    0    0  0.16749253403E+02  0.20382171726E+02 -0.29393330013E+01  0.26544492693E+02  0.00000000000E+00 0.  1.
</event>
<event>
 8    1  0.6648599E-009  0.1168837E+03  0.7561462E-02  0.1248328E+00
         -2   -1    0    0    0  501 -0.00000000000E+00  0.00000000000E+00  0.51864368207E+02  0.51864368207E+02  0.00000000000E+00 0.  1.
          2   -1    0    0  501    0  0.00000000000E+00 -0.00000000000E+00 -0.39912742365E+03  0.39912742365E+03  0.00000000000E+00 0. -1.
         25    2    1    2    0    0 -0.64830669077E+02 -0.12551650227E+02 -0.29602660180E+03  0.32808349252E+03  0.12508584857E+03 0.  0.
         23    2    1    2    0    0  0.64830669077E+02  0.12551650227E+02 -0.51236453645E+02  0.12290829934E+03  0.90115016998E+02 0.  0.
          5    1    3    3  502    0 -0.57088219887E+02 -0.57856864735E+02 -0.11256428229E+03  0.13890526158E+03  0.41800000000E+01 0.  1.
         -5    1    3    3    0  502 -0.77424491895E+01  0.45305214508E+02 -0.18346231951E+03  0.18917823094E+03  0.41800000000E+01 0.  1.
        -11    1    4    4    0    0  0.72834549663E+02 -0.17684220535E+02 -0.17624502681E+02  0.76994976300E+02  0.00000000000E+00 0. -1.
         11    1    4    4    0    0 -0.80038805865E+01  0.30235870762E+02 -0.33611950963E+02  0.45913323042E+02  0.00000000000E+00 0.  1.
</event>
<event>
 8    1  0.6648599E-009  0.1329770E+03  0.7561462E-02  0.1223104E+00
          2   -1    0    0  501    0  0.00000000000E+00  0.00000000000E+00  0.23670984915E+03  0.23670984915E+03  0.00000000000E+00 0.  1.
         -2   -1    0    0    0  501 -0.00000000000E+00 -0.00000000000E+00 -0.12193179692E+03  0.12193179692E+03  0.00000000000E+00 0. -1.
         25    2    1    2    0    0 -0.78201788832E+02 -0.34976587373E+02 -0.42364797684E+02  0.15741879485E+03  0.12508804679E+03 0.  0.
         23    2    1    2    0    0  0.78201788832E+02  0.34976587373E+02  0.15714284991E+03  0.20122285121E+03  0.91966728389E+02 0.  0.
          5    1    3    3  502    0 -0.19630723073E+02 -0.76878682935E+02 -0.23416131079E+02  0.82834079779E+02  0.41800000000E+01 0.  1.
         -5    1    3    3    0  502 -0.58571065759E+02  0.41902095562E+02 -0.18948666606E+02  0.74584715074E+02  0.41800000000E+01 0.  1.
        -11    1    4    4    0    0  0.92457647293E+02  0.21899615808E+02  0.88290222278E+02  0.12970417520E+03  0.00000000000E+00 0. -1.
         11    1    4    4    0    0 -0.14255858461E+02  0.13076971565E+02  0.68852627636E+02  0.71518676009E+02  0.00000000000E+00 0.  1.
</event>
<event>
 8    1  0.6648599E-009  0.1334075E+03  0.7561462E-02  0.1222485E+00
         -1   -1    0    0    0  501 -0.00000000000E+00  0.00000000000E+00  0.26566981954E+02  0.26566981954E+02  0.00000000000E+00 0.  1.
          1   -1    0    0  501    0  0.00000000000E+00 -0.00000000000E+00 -0.95984211601E+03  0.95984211601E+03  0.00000000000E+00 0. -1.
         25    2    1    2    0    0  0.53561388462E+02  0.10308890701E+03 -0.52729044059E+03  0.55423738213E+03  0.12509085468E+03 0.  0.
         23    2    1    2    0    0 -0.53561388462E+02 -0.10308890701E+03 -0.40598469346E+03  0.43217171583E+03  0.91938433534E+02 0.  0.
          5    1    3    3  502    0  0.16999237366E+02  0.70247159296E+02 -0.48157432544E+03  0.48698556527E+03  0.41800000000E+01 0.  1.
         -5    1    3    3    0  502  0.36562151096E+02  0.32841747713E+02 -0.45716115155E+02  0.67251816856E+02  0.41800000000E+01 0.  1.
        -11    1    4    4    0    0 -0.65932646633E+02 -0.32641461869E+02 -0.24939272000E+03  0.26001789883E+03  0.00000000000E+00 0. -1.
         11    1    4    4    0    0  0.12371258171E+02 -0.70447445141E+02 -0.15659197346E+03  0.17215381700E+03  0.00000000000E+00 0.  1.
</event>
<event>
 8    1  0.6648599E-009  0.1027920E+03  0.7561462E-02  0.1274532E+00
          2   -1    0    0  501    0  0.00000000000E+00  0.00000000000E+00  0.54615681257E+03  0.54615681257E+03  0.00000000000E+00 0. -1.
         -2   -1    0    0    0  501 -0.00000000000E+00 -0.00000000000E+00 -0.30736316078E+02  0.30736316078E+02  0.00000000000E+00 0.  1.
         25    2    1    2    0    0 -0.69972044479E+02  0.44665183581E+00  0.28625606626E+03  0.32013387233E+03  0.12508746634E+03 0.  0.
         23    2    1    2    0    0  0.69972044479E+02 -0.44665183581E+00  0.22916443024E+03  0.25675925632E+03  0.92264256980E+02 0.  0.
          5    1    3    3  502    0 -0.90676484312E+02  0.24025867943E+02  0.12803059590E+03  0.15877270869E+03  0.41800000000E+01 0.  1.
         -5    1    3    3    0  502  0.20704439833E+02 -0.23579216107E+02  0.15822547035E+03  0.16136116363E+03  0.41800000000E+01 0.  1.
        -11    1    4    4    0    0  0.33230871469E+02  0.19185613316E+02  0.19586654549E+02  0.43081499664E+02  0.00000000000E+00 0.  1.
         11    1    4    4    0    0  0.36741173010E+02 -0.19632265152E+02  0.20957777569E+03  0.21367775666E+03  0.00000000000E+00 0. -1.
</event>
<event>
 8    1  0.6648599E-009  0.1138551E+03  0.7561462E-02  0.1253593E+00
          2   -1    0    0  501    0  0.00000000000E+00  0.00000000000E+00  0.65177012893E+02  0.65177012893E+02  0.00000000000E+00 0. -1.
         -2   -1    0    0    0  501 -0.00000000000E+00 -0.00000000000E+00 -0.29881967413E+03  0.29881967413E+03  0.00000000000E+00 0.  1.
         25    2    1    2    0    0 -0.72741499736E+02 -0.27044874765E+02 -0.13530034900E+03  0.19993974419E+03  0.12508783246E+03 0.  0.
         23    2    1    2    0    0  0.72741499736E+02  0.27044874765E+02 -0.98342312234E+02  0.16405694283E+03  0.10592789567E+03 0.  0.
          5    1    3    3  502    0 -0.52494886553E+02  0.45308473051E+02 -0.46752185601E+02  0.83736551773E+02  0.41800000000E+01 0.  1.
         -5    1    3    3    0  502 -0.20246613184E+02 -0.72353347816E+02 -0.88548163400E+02  0.11620319241E+03  0.41800000000E+01 0.  1.
        -11    1    4    4    0    0  0.61779862442E+02  0.97921092884E+01  0.10747480390E+01  0.62560306033E+02  0.00000000000E+00 0. -1.
         11    1    4    4    0    0  0.10961637295E+02  0.17252765477E+02 -0.99417060273E+02  0.10149663680E+03  0.00000000000E+00 0.  1.
</event>
<event>
 8    1  0.6648599E-009  0.1338260E+03  0.7561462E-02  0.1221887E+00
          1   -1    0    0  501    0  0.00000000000E+00  0.00000000000E+00  0.24695834520E+03  0.24695834520E+03  0.00000000000E+00 0. -1.
         -1   -1    0    0    0  501 -0.00000000000E+00 -0.00000000000E+00 -0.18751021884E+03  0.18751021884E+03  0.00000000000E+00 0.  1.
         25    2    1    2    0    0 -0.12908877407E+03 -0.89652852699E+01  0.16568885229E+03  0.24463883564E+03  0.12510426133E+03 0.  0.
         23    2    1    2    0    0  0.12908877407E+03  0.89652852699E+01 -0.10624072592E+03  0.18982972839E+03  0.89464775233E+02 0.  0.
          5    1    3    3  502    0 -0.37106046358E+02  0.17503826005E+02 -0.11841820477E+02  0.42906219984E+02  0.41800000000E+01 0.  1.
         -5    1    3    3    0  502 -0.91982727712E+02 -0.26469111275E+02  0.17753067276E+03  0.20173261566E+03  0.41800000000E+01 0. -1.
        -11    1    4    4    0    0  0.64320902565E+02 -0.44068871989E+01 -0.10556134030E+03  0.12369234305E+03  0.00000000000E+00 0.  1.
         11    1    4    4    0    0  0.64767871505E+02  0.13372172469E+02 -0.67938561500E+00  0.66137385348E+02  0.00000000000E+00 0. -1.
</event>
<event>
 8    1  0.6648599E-009  0.1126346E+03  0.7561462E-02  0.1255767E+00
          1   -1    0    0  501    0  0.00000000000E+00  0.00000000000E+00  0.95827561735E+03  0.95827561735E+03  0.00000000000E+00 0. -1.
         -1   -1    0    0    0  501 -0.00000000000E+00 -0.00000000000E+00 -0.15872917523E+02  0.15872917523E+02  0.00000000000E+00 0.  1.
         25    2    1    2    0    0 -0.52886295040E+02  0.28816155462E+02  0.55801832127E+03  0.57502965706E+03  0.12508928252E+03 0.  0.
         23    2    1    2    0    0  0.52886295040E+02 -0.28816155462E+02  0.38438437856E+03  0.39911887782E+03  0.88978633017E+02 0.  0.
          5    1    3    3  502    0 -0.53334331648E+02 -0.28475300693E+02  0.13312667896E+03  0.14627227602E+03  0.41800000000E+01 0. -1.
         -5    1    3    3    0  502  0.44803660837E+00  0.57291456155E+02  0.42489164231E+03  0.42875738104E+03  0.41800000000E+01 0. -1.
        -11    1    4    4    0    0  0.61465923203E+02 -0.53249415201E+02  0.28005181893E+03  0.29162061179E+03  0.00000000000E+00 0. -1.
         11    1    4    4    0    0 -0.85796281635E+01  0.24433259739E+02  0.10433255963E+03  0.10749826603E+03  0.00000000000E+00 0.  1.
</event>
<event>
 8    1  0.6648599E-009  0.1165267E+03  0.7561462E-02  0.1248939E+00
          1   -1    0    0  501    0  0.00000000000E+00  0.00000000000E+00  0.47917076303E+02  0.47917076303E+02  0.00000000000E+00 0. -1.
         -1   -1    0    0    0  501 -0.00000000000E+00 -0.00000000000E+00 -0.39102147513E+03  0.39102147513E+03  0.00000000000E+00 0.  1.
         25    2    1    2    0    0 -0.32867999724E+02  0.64066554125E+02 -0.24433428128E+03  0.28378109582E+03  0.12509052952E+03 0.  0.
         23    2    1    2    0    0  0.32867999724E+02 -0.64066554125E+02 -0.98770117550E+02  0.15515745561E+03  0.95569195597E+02 0.  0.
          5    1    3    3  502    0  0.31110856667E+02 -0.20408284988E+02 -0.77901916717E+02  0.86432427519E+02  0.41800000000E+01 0.  1.
         -5    1    3    3    0  502 -0.63978856391E+02  0.84474839112E+02 -0.16643236456E+03  0.19734866830E+03  0.41800000000E+01 0.  1.
        -11    1    4    4    0    0  0.21699894137E+01 -0.58282756292E+02 -0.10786422294E+03  0.12262250660E+03  0.00000000000E+00 0.  1.
         11    1    4    4    0    0  0.30698010310E+02 -0.57837978324E+01  0.90941053852E+01  0.32534949011E+02  0.00000000000E+00 0. -1.
</event>
<event>
 8    1  0.6648599E-009  0.8362182E+02  0.7561462E-02  0.1319076E+00
         -3   -1    0    0    0  501 -0.00000000000E+00  0.00000000000E+00  0.16909765991E+03  0.16909765991E+03  0.00000000000E+00 0.  1.
          3   -1    0    0  501    0  0.00000000000E+00 -0.00000000000E+00 -0.73164504798E+02  0.73164504798E+02  0.00000000000E+00 0. -1.
         25    2    1    2    0    0  0.27024804494E+02  0.46651391099E+00  0.50510015791E+02  0.13759323920E+03  0.12510028011E+03 0.  0.
         23    2    1    2    0    0 -0.27024804494E+02 -0.46651391099E+00  0.45423139318E+02  0.10466892551E+03  0.90342485512E+02 0.  0.
          5    1    3    3  502    0 -0.13186898585E+02 -0.22727302685E+02 -0.32737582211E+02  0.42185853916E+02  0.41800000000E+01 0.  1.
         -5    1    3    3    0  502  0.40211703078E+02  0.23193816596E+02  0.83247598002E+02  0.95407385280E+02  0.41800000000E+01 0.  1.
        -11    1    4    4    0    0 -0.12447246000E+00  0.42951821283E+02  0.24709801106E+02  0.49552484455E+02  0.00000000000E+00 0.  1.
         11    1    4    4    0    0 -0.26900332034E+02 -0.43418335194E+02  0.20713338213E+02  0.55116441054E+02  0.00000000000E+00 0. -1.
</event>
<event>
 8    1  0.6648599E-009  0.9918574E+02  0.7561462E-02  0.1282018E+00
         -4   -1    0    0    0  501 -0.00000000000E+00  0.00000000000E+00  0.87937124176E+02  0.87937124176E+02  0.00000000000E+00 0.  1.
          4   -1    0    0  501    0  0.00000000000E+00 -0.00000000000E+00 -0.18262446225E+03  0.18262446225E+03  0.00000000000E+00 0. -1.
         25    2    1    2    0    0 -0.60131432021E+01 -0.65955571035E+02 -0.49510367000E+02  0.14994263452E+03  0.12508086170E+03 0.  0.
         23    2    1    2    0    0  0.60131432021E+01  0.65955571035E+02 -0.45176971078E+02  0.12061895191E+03  0.90120350661E+02 0.  0.
          5    1    3    3  502    0 -0.23904769796E+02 -0.63548716804E+02 -0.85621594791E+02  0.10935450298E+03  0.41800000000E+01 0. -1.
         -5    1    3    3    0  502  0.17891626594E+02 -0.24068542315E+01  0.36111227791E+02  0.40588131541E+02  0.41800000000E+01 0. -1.
        -11    1    4    4    0    0  0.34142034580E+02  0.74887756620E+02 -0.32179843879E+02  0.88370792511E+02  0.00000000000E+00 0.  1.
         11    1    4    4    0    0 -0.28128891378E+02 -0.89321855849E+01 -0.12997127199E+02  0.32248159403E+02  0.00000000000E+00 0. -1.
</event>
<event>
 8    1  0.6648599E-009  0.2195053E+03  0.7561462E-02  0.1134252E+00
          1   -1    0    0  501    0  0.00000000000E+00  0.00000000000E+00  0.33689383615E+03  0.33689383615E+03  0.00000000000E+00 0. -1.
         -1   -1    0    0    0  501 -0.00000000000E+00 -0.00000000000E+00 -0.22439345263E+03  0.22439345263E+03  0.00000000000E+00 0.  1.
         25    2    1    2    0    0 -0.17525810570E+03 -0.12121191555E+03  0.19676807225E+03  0.31586832906E+03  0.12508954777E+03 0.  0.
         23    2    1    2    0    0  0.17525810570E+03  0.12121191555E+03 -0.84267688726E+02  0.24541895973E+03  0.87873149168E+02 0.  0.
          5    1    3    3  502    0 -0.83633032702E+02 -0.34389718590E+02  0.10937421985E+02  0.91182435278E+02  0.41800000000E+01 0. -1.
         -5    1    3    3    0  502 -0.91625073001E+02 -0.86822196957E+02  0.18583065026E+03  0.22468589378E+03  0.41800000000E+01 0. -1.
        -11    1    4    4    0    0  0.16031259355E+03  0.81667201036E+02 -0.40199243526E+02  0.18435194210E+03  0.00000000000E+00 0. -1.
         11    1    4    4    0    0  0.14945512151E+02  0.39544714511E+02 -0.44068445201E+02  0.61067017625E+02  0.00000000000E+00 0.  1.
</event>
<event>
 8    1  0.6648599E-009  0.1048521E+03  0.7561462E-02  0.1270411E+00
          1   -1    0    0  501    0  0.00000000000E+00  0.00000000000E+00  0.16373226847E+03  0.16373226847E+03  0.00000000000E+00 0. -1.
         -1   -1    0    0    0  501 -0.00000000000E+00 -0.00000000000E+00 -0.76259149932E+02  0.76259149932E+02  0.00000000000E+00 0.  1.
         25    2    1    2    0    0 -0.14822684320E+02 -0.20787927059E+01  0.81781673991E+02  0.15019795373E+03  0.12508856763E+03 0.  0.
         23    2    1    2    0    0  0.14822684320E+02  0.20787927059E+01  0.56914445461E+01  0.89793464677E+02  0.88354062770E+02 0.  0.
          5    1    3    3  502    0  0.11123399423E+02  0.56261764517E+02  0.19014130691E+02  0.60565053680E+02  0.41800000000E+01 0. -1.
         -5    1    3    3    0  502 -0.25946083743E+02 -0.58340557223E+02  0.62767543300E+02  0.89632900046E+02  0.41800000000E+01 0. -1.
        -11    1    4    4    0    0 -0.34560738138E+02  0.14201774239E+02 -0.53862965962E+01  0.37751121880E+02  0.00000000000E+00 0. -1.
         11    1    4    4    0    0  0.49383422458E+02 -0.12122981533E+02  0.11077741142E+02  0.52042342797E+02  0.00000000000E+00 0.  1.
</event>
<event>
 8    1  0.6648599E-009  0.2617287E+03  0.7561462E-02  0.1106109E+00
          1   -1    0    0  501    0  0.00000000000E+00  0.00000000000E+00  0.92717989516E+03  0.92717989516E+03  0.00000000000E+00 0. -1.
         -1   -1    0    0    0  501 -0.00000000000E+00 -0.00000000000E+00 -0.81149901347E+02  0.81149901347E+02  0.00000000000E+00 0.  1.
         25    2    1    2    0    0 -0.15645010488E+03  0.18436111146E+03  0.30499916894E+03  0.40882466994E+03  0.12508981956E+03 0.  0.
         23    2    1    2    0    0  0.15645010488E+03 -0.18436111146E+03  0.54103082487E+03  0.59950512657E+03  0.90699440963E+02 0.  0.
          5    1    3    3  502    0 -0.16532915952E+03  0.13057337130E+03  0.20037900665E+03  0.29077887644E+03  0.41800000000E+01 0.  1.
         -5    1    3    3    0  502  0.88790546396E+01  0.53787740161E+02  0.10462016230E+03  0.11804579350E+03  0.41800000000E+01 0.  1.
        -11    1    4    4    0    0  0.19944577548E+02  0.85866337923E+01  0.39600758889E+02  0.45163442717E+02  0.00000000000E+00 0.  1.
         11    1    4    4    0    0  0.13650552733E+03 -0.19294774525E+03  0.50143006598E+03  0.55434168386E+03  0.00000000000E+00 0. -1.
</event>
<event>
 8    1  0.6648599E-009  0.9627898E+02  0.7561462E-02  0.1288321E+00
          1   -1    0    0  501    0  0.00000000000E+00  0.00000000000E+00  0.72642047175E+03  0.72642047175E+03  0.00000000000E+00 0. -1.
         -1   -1    0    0    0  501 -0.00000000000E+00 -0.00000000000E+00 -0.30557905396E+02  0.30557905396E+02  0.00000000000E+00 0.  1.
         25    2    1    2    0    0 -0.24049928623E+02  0.29364991040E+02  0.59717764590E+03  0.61131690217E+03  0.12508601980E+03 0.  0.
         23    2    1    2    0    0  0.24049928623E+02 -0.29364991040E+02  0.98684920461E+02  0.14566147498E+03  0.10018907127E+03 0.  0.
          5    1    3    3  502    0 -0.68540912036E+02  0.36435474470E+02  0.46877584329E+03  0.47517750796E+03  0.41800000000E+01 0. -1.
         -5    1    3    3    0  502  0.44490983412E+02 -0.70704834299E+01  0.12840180261E+03  0.13613939420E+03  0.41800000000E+01 0. -1.
        -11    1    4    4    0    0  0.34765707603E+02 -0.41003991844E+02  0.11248291982E+03  0.12466911816E+03  0.00000000000E+00 0. -1.
         11    1    4    4    0    0 -0.10715778979E+02  0.11639000804E+02 -0.13797999356E+02  0.20992356825E+02  0.00000000000E+00 0.  1.
</event>
<event>
 8    1  0.6648599E-009  0.1387705E+03  0.7561462E-02  0.1214993E+00
         -2   -1    0    0    0  501 -0.00000000000E+00  0.00000000000E+00  0.26286497962E+03  0.26286497962E+03  0.00000000000E+00 0.  1.
          2   -1    0    0  501    0  0.00000000000E+00 -0.00000000000E+00 -0.10429979433E+03  0.10429979433E+03  0.00000000000E+00 0. -1.
         25    2    1    2    0    0 -0.11193811422E+03  0.41637607535E+02  0.41801028094E+02  0.17792963542E+03  0.12509115650E+03 0.  0.
         23    2    1    2    0    0  0.11193811422E+03 -0.41637607535E+02  0.11676415720E+03  0.18923513854E+03  0.88950758698E+02 0.  0.
          5    1    3    3  502    0 -0.46460284636E+02  0.71679667581E+02  0.58808752544E+02  0.10379053217E+03  0.41800000000E+01 0. -1.
         -5    1    3    3    0  502 -0.65477829589E+02 -0.30042060046E+02 -0.17007724450E+02  0.74139103248E+02  0.41800000000E+01 0. -1.
        -11    1    4    4    0    0  0.56225729826E+02 -0.26296196996E+02  0.36055892977E+01  0.62175742417E+02  0.00000000000E+00 0. -1.
         11    1    4    4    0    0  0.55712384399E+02 -0.15341410539E+02  0.11315856790E+03  0.12705939612E+03  0.00000000000E+00 0.  1.
</event>
<event>
 8    1  0.6648599E-009  0.1102706E+03  0.7561462E-02  0.1260070E+00
         -2   -1    0    0    0  501 -0.00000000000E+00  0.00000000000E+00  0.31779732175E+03  0.31779732175E+03  0.00000000000E+00 0.  1.
          2   -1    0    0  501    0  0.00000000000E+00 -0.00000000000E+00 -0.49749811286E+02  0.49749811286E+02  0.00000000000E+00 0. -1.
         25    2    1    2    0    0 -0.20162601799E+02  0.60814523131E+02  0.14182923745E+03  0.19966940293E+03  0.12508957245E+03 0.  0.
         23    2    1    2    0    0  0.20162601799E+02 -0.60814523131E+02  0.12621827301E+03  0.16787773010E+03  0.90260418166E+02 0.  0.
          5    1    3    3  502    0 -0.16365210423E+02 -0.34313890745E+02  0.15123918710E+02  0.41127466824E+02  0.41800000000E+01 0.  1.
         -5    1    3    3    0  502 -0.37973913762E+01  0.95128413876E+02  0.12670531874E+03  0.15854193611E+03  0.41800000000E+01 0.  1.
        -11    1    4    4    0    0  0.39403475376E+02 -0.53434685251E+02  0.13087363598E+03  0.14675083664E+03  0.00000000000E+00 0.  1.
         11    1    4    4    0    0 -0.19240873578E+02 -0.73798378804E+01 -0.46553629662E+01  0.21126893466E+02  0.00000000000E+00 0. -1.
</event>
<event>
 8    1  0.6648599E-009  0.7648311E+02  0.7561462E-02  0.1339339E+00
         -3   -1    0    0    0  501 -0.00000000000E+00  0.00000000000E+00  0.30211923686E+03  0.30211923686E+03  0.00000000000E+00 0.  1.
          3   -1    0    0  501    0  0.00000000000E+00 -0.00000000000E+00 -0.50085676577E+02  0.50085676577E+02  0.00000000000E+00 0. -1.
         25    2    1    2    0    0  0.81563248653E+01  0.49129115963E+02  0.18590431425E+03  0.22953970023E+03  0.12509142359E+03 0.  0.
         23    2    1    2    0    0 -0.81563248653E+01 -0.49129115963E+02  0.66129246033E+02  0.12266521320E+03  0.90517852816E+02 0.  0.
          5    1    3    3  502    0 -0.39727089057E+02  0.12483757520E+02  0.92911958909E+01  0.42870555488E+02  0.41800000000E+01 0. -1.
         -5    1    3    3    0  502  0.47883413922E+02  0.36645358443E+02  0.17661311836E+03  0.18666914475E+03  0.41800000000E+01 0. -1.
        -11    1    4    4    0    0 -0.97128211008E+01 -0.31208284576E+02  0.88276530706E+02  0.94133106787E+02  0.00000000000E+00 0.  1.
         11    1    4    4    0    0  0.15564962355E+01 -0.17920831387E+02 -0.22147284672E+02  0.28532106415E+02  0.00000000000E+00 0. -1.
</event>
<event>
 8    1  0.6648599E-009  0.3030880E+03  0.7561462E-02  0.1083707E+00
          1   -1    0    0  501    0  0.00000000000E+00  0.00000000000E+00  0.15565217699E+04  0.15565217699E+04  0.00000000000E+00 0. -1.
         -1   -1    0    0    0  501 -0.00000000000E+00 -0.00000000000E+00 -0.65196521671E+02  0.65196521671E+02  0.00000000000E+00 0.  1.
         25    2    1    2    0    0  0.21038249075E+03 -0.21010045971E+03  0.66721042643E+03  0.74109380673E+03  0.12508909484E+03 0.  0.
         23    2    1    2    0    0 -0.21038249075E+03  0.21010045971E+03  0.82411482183E+03  0.88062448488E+03  0.89057555628E+02 0.  0.
          5    1    3    3  502    0  0.17756055009E+03 -0.13465013639E+03  0.36334233282E+03  0.42625524208E+03  0.41800000000E+01 0. -1.
         -5    1    3    3    0  502  0.32821940658E+02 -0.75450323325E+02  0.30386809361E+03  0.31483856465E+03  0.41800000000E+01 0. -1.
        -11    1    4    4    0    0 -0.14689924075E+03  0.11496791681E+03  0.39997665145E+03  0.44133698070E+03  0.00000000000E+00 0. -1.
         11    1    4    4    0    0 -0.63483249997E+02  0.95132542909E+02  0.42413817039E+03  0.43928750418E+03  0.00000000000E+00 0.  1.
</event>
<event>
 8    1  0.6648599E-009  0.8168810E+02  0.7561462E-02  0.1324328E+00
          2   -1    0    0  501    0  0.00000000000E+00  0.00000000000E+00  0.10437033056E+04  0.10437033056E+04  0.00000000000E+00 0.  1.
         -2   -1    0    0    0  501 -0.00000000000E+00 -0.00000000000E+00 -0.17855827050E+02  0.17855827050E+02  0.00000000000E+00 0. -1.
         25    2    1    2    0    0 -0.14313949066E+02 -0.20586336587E+02  0.86363545997E+03  0.87301026846E+03  0.12510809212E+03 0.  0.
         23    2    1    2    0    0  0.14313949066E+02  0.20586336587E+02  0.16221201857E+03  0.18854886419E+03  0.92786037883E+02 0.  0.
          5    1    3    3  502    0  0.21440686448E+02 -0.46755033360E+02  0.16325897561E+03  0.17122120692E+03  0.41800000000E+01 0.  1.
         -5    1    3    3    0  502 -0.35754635514E+02  0.26168696774E+02  0.70037648436E+03  0.70178906154E+03  0.41800000000E+01 0.  1.
        -11    1    4    4    0    0  0.38510268474E+02  0.19195007106E+02  0.15824412862E+03  0.16398991834E+03  0.00000000000E+00 0.  1.
         11    1    4    4    0    0 -0.24196319408E+02  0.13913294810E+01  0.39678899584E+01  0.24558945852E+02  0.00000000000E+00 0. -1.
</event>
<event>
 8    1  0.6648599E-009  0.8824859E+02  0.7561462E-02  0.1307149E+00
          1   -1    0    0  501    0  0.00000000000E+00  0.00000000000E+00  0.82702708676E+03  0.82702708676E+03  0.00000000000E+00 0. -1.
         -1   -1    0    0    0  501 -0.00000000000E+00 -0.00000000000E+00 -0.20300386654E+02  0.20300386654E+02  0.00000000000E+00 0.  1.
         25    2    1    2    0    0  0.29369851682E+02 -0.22043600933E+02  0.65967638464E+03  0.67243470733E+03  0.12508794762E+03 0.  0.
         23    2    1    2    0    0 -0.29369851682E+02  0.22043600933E+02  0.14705031547E+03  0.17489276609E+03  0.87264974760E+02 0.  0.
          5    1    3    3  502    0  0.54778828072E+02 -0.12550256634E+02  0.12570690941E+03  0.13776040222E+03  0.41800000000E+01 0.  1.
         -5    1    3    3    0  502 -0.25408976391E+02 -0.94933442986E+01  0.53396947523E+03  0.53467430511E+03  0.41800000000E+01 0.  1.
        -11    1    4    4    0    0  0.19886879248E+02 -0.19804138613E+02  0.29320282351E+02  0.40587816270E+02  0.00000000000E+00 0.  1.
         11    1    4    4    0    0 -0.49256730930E+02  0.41847739546E+02  0.11773003312E+03  0.13430494982E+03  0.00000000000E+00 0. -1.
</event>
<event>
 8    1  0.6648599E-009  0.8602608E+02  0.7561462E-02  0.1312771E+00
          1   -1    0    0  501    0  0.00000000000E+00  0.00000000000E+00  0.45374613885E+03  0.45374613885E+03  0.00000000000E+00 0. -1.
         -1   -1    0    0    0  501 -0.00000000000E+00 -0.00000000000E+00 -0.37081677353E+02  0.37081677353E+02  0.00000000000E+00 0.  1.
         25    2    1    2    0    0  0.99723684215E+01 -0.67972794577E+02  0.27457863312E+03  0.30945127672E+03  0.12508764112E+03 0.  0.
         23    2    1    2    0    0 -0.99723684215E+01  0.67972794577E+02  0.14208582837E+03  0.18137653948E+03  0.89382982250E+02 0.  0.
          5    1    3    3  502    0  0.23450274765E+02 -0.18974687301E+02  0.25174882582E+03  0.25358410409E+03  0.41800000000E+01 0.  1.
         -5    1    3    3    0  502 -0.13477906343E+02 -0.48998107276E+02  0.22829807302E+02  0.55867172628E+02  0.41800000000E+01 0.  1.
        -11    1    4    4    0    0 -0.34447159234E+02  0.47644561483E+02  0.32316252289E+02  0.67089128629E+02  0.00000000000E+00 0.  1.
         11    1    4    4    0    0  0.24474790813E+02  0.20328233094E+02  0.10976957609E+03  0.11428741086E+03  0.00000000000E+00 0. -1.
</event>
<event>
 8    1  0.6648599E-009  0.1011217E+03  0.7561462E-02  0.1277955E+00
         -1   -1    0    0    0  501 -0.00000000000E+00  0.00000000000E+00  0.65800645785E+02  0.65800645785E+02  0.00000000000E+00 0.  1.
          1   -1    0    0  501    0  0.00000000000E+00 -0.00000000000E+00 -0.25044936787E+03  0.25044936787E+03  0.00000000000E+00 0. -1.
         25    2    1    2    0    0  0.25753812868E+02 -0.58238345405E+02 -0.13796134938E+03  0.19681448832E+03  0.12509054776E+03 0.  0.
         23    2    1    2    0    0 -0.25753812868E+02  0.58238345405E+02 -0.46687372707E+02  0.11943552534E+03  0.89611216870E+02 0.  0.
          5    1    3    3  502    0  0.36747139314E+02  0.11494139050E+02 -0.11671735073E+03  0.12297511879E+03  0.41800000000E+01 0.  1.
         -5    1    3    3    0  502 -0.10993326445E+02 -0.69732484456E+02 -0.21243998655E+02  0.73839369536E+02  0.41800000000E+01 0.  1.
        -11    1    4    4    0    0 -0.45828012609E+02  0.20823620520E+02 -0.56690602866E+02  0.75813286201E+02  0.00000000000E+00 0. -1.
         11    1    4    4    0    0  0.20074199741E+02  0.37414724885E+02  0.10003230158E+02  0.43622239134E+02  0.00000000000E+00 0.  1.
</event>
<event>
 8    1  0.6648599E-009  0.1316556E+03  0.7561462E-02  0.1225020E+00
          1   -1    0    0  501    0  0.00000000000E+00  0.00000000000E+00  0.10131369375E+03  0.10131369375E+03  0.00000000000E+00 0. -1.
         -1   -1    0    0    0  501 -0.00000000000E+00 -0.00000000000E+00 -0.20533839711E+03  0.20533839711E+03  0.00000000000E+00 0.  1.
         25    2    1    2    0    0  0.85304640448E+02 -0.39840734962E+02 -0.65253538047E+02  0.16961595186E+03  0.12508949218E+03 0.  0.
         23    2    1    2    0    0 -0.85304640448E+02  0.39840734962E+02 -0.38771165314E+02  0.13703613900E+03  0.91714417007E+02 0.  0.
          5    1    3    3  502    0  0.82607473160E+01  0.29544164464E+02 -0.57815013921E+02  0.65583121569E+02  0.41800000000E+01 0.  1.
         -5    1    3    3    0  502  0.77043893132E+02 -0.69384899426E+02 -0.74385241259E+01  0.10403283029E+03  0.41800000000E+01 0.  1.
        -11    1    4    4    0    0 -0.76629100905E+02 -0.10638901220E+02 -0.92425454097E+01  0.77914247544E+02  0.00000000000E+00 0.  1.
         11    1    4    4    0    0 -0.86755395427E+01  0.50479636182E+02 -0.29528619904E+02  0.59121891452E+02  0.00000000000E+00 0. -1.
</event>
<event>
 8    1  0.6648599E-009  0.1193702E+03  0.7561462E-02  0.1244140E+00
         -1   -1    0    0    0  501 -0.00000000000E+00  0.00000000000E+00  0.44438082540E+02  0.44438082540E+02  0.00000000000E+00 0.  1.
          1   -1    0    0  501    0  0.00000000000E+00 -0.00000000000E+00 -0.46990289639E+03  0.46990289639E+03  0.00000000000E+00 0. -1.
         25    2    1    2    0    0  0.42386607066E+01 -0.94946837611E+02 -0.22266278885E+03  0.27251240407E+03  0.12510565382E+03 0.  0.
         23    2    1    2    0    0 -0.42386607066E+01  0.94946837611E+02 -0.20280202500E+03  0.24182857486E+03  0.91211457927E+02 0.  0.
          5    1    3    3  502    0 -0.14839492987E+02 -0.11318708301E+03 -0.11698027669E+03  0.16350346738E+03  0.41800000000E+01 0.  1.
         -5    1    3    3    0  502  0.19078153694E+02  0.18240245402E+02 -0.10568251216E+03  0.10900893669E+03  0.41800000000E+01 0.  1.
        -11    1    4    4    0    0  0.95701686556E+01  0.37697285391E+02 -0.98944497745E+01  0.40131952236E+02  0.00000000000E+00 0.  1.
         11    1    4    4    0    0 -0.13808829362E+02  0.57249552219E+02 -0.19290757523E+03  0.20169662262E+03  0.00000000000E+00 0. -1.
</event>
<event>
 8    1  0.6648599E-009  0.9678370E+02  0.7561462E-02  0.1287209E+00
         -2   -1    0    0    0  501 -0.00000000000E+00  0.00000000000E+00  0.58622619253E+02  0.58622619253E+02  0.00000000000E+00 0.  1.
          2   -1    0    0  501    0  0.00000000000E+00 -0.00000000000E+00 -0.22440361786E+03  0.22440361786E+03  0.00000000000E+00 0. -1.
         25    2    1    2    0    0 -0.16831234166E+02 -0.12420664219E+01 -0.13516137827E+03  0.18493553747E+03  0.12509085367E+03 0.  0.
         23    2    1    2    0    0  0.16831234166E+02  0.12420664219E+01 -0.30619620344E+02  0.98090699649E+02  0.91648191663E+02 0.  0.
          5    1    3    3  502    0  0.49801237668E+02  0.87938686410E+01 -0.91212408560E+02  0.10437754200E+03  0.41800000000E+01 0. -1.
         -5    1    3    3    0  502 -0.66632471833E+02 -0.10035935063E+02 -0.43948969707E+02  0.80557995466E+02  0.41800000000E+01 0. -1.
        -11    1    4    4    0    0  0.50992620568E+01 -0.35950667883E+02  0.13922511728E+02  0.38888164364E+02  0.00000000000E+00 0.  1.
         11    1    4    4    0    0  0.11731972109E+02  0.37192734305E+02 -0.44542132072E+02  0.59202535285E+02  0.00000000000E+00 0. -1.
</event>
<event>
 8    1  0.6648599E-009  0.1094728E+03  0.7561462E-02  0.1261549E+00
         -4   -1    0    0    0  501 -0.00000000000E+00  0.00000000000E+00  0.11821323097E+03  0.11821323097E+03  0.00000000000E+00 0.  1.
          4   -1    0    0  501    0  0.00000000000E+00 -0.00000000000E+00 -0.13978437277E+03  0.13978437277E+03  0.00000000000E+00 0. -1.
         25    2    1    2    0    0 -0.50185631850E+02 -0.90957029676E+01  0.34028542215E+02  0.13930788069E+03  0.12508962579E+03 0.  0.
         23    2    1    2    0    0  0.50185631850E+02  0.90957029676E+01 -0.55599684019E+02  0.11868972305E+03  0.91622028121E+02 0.  0.
          5    1    3    3  502    0 -0.85100370657E+02 -0.33693148686E+02  0.28989723842E+02  0.96099832688E+02  0.41800000000E+01 0. -1.
         -5    1    3    3    0  502  0.34914738806E+02  0.24597445718E+02  0.50388183737E+01  0.43208048005E+02  0.41800000000E+01 0. -1.
        -11    1    4    4    0    0 -0.95706093362E+01 -0.16759253137E+02 -0.49697050456E+02  0.53312906062E+02  0.00000000000E+00 0. -1.
         11    1    4    4    0    0  0.59756241186E+02  0.25854956105E+02 -0.59026335633E+01  0.65376816984E+02  0.00000000000E+00 0.  1.
</event>
<event>
 8    1  0.6648599E-009  0.9745159E+02  0.7561462E-02  0.1285748E+00
          1   -1    0    0  501    0  0.00000000000E+00  0.00000000000E+00  0.20788002920E+03  0.20788002920E+03  0.00000000000E+00 0. -1.
         -1   -1    0    0    0  501 -0.00000000000E+00 -0.00000000000E+00 -0.60375884543E+02  0.60375884543E+02  0.00000000000E+00 0.  1.
         25    2    1    2    0    0 -0.52292523977E+01 -0.37102321472E+01  0.10539802399E+03  0.16369731300E+03  0.12508779285E+03 0.  0.
         23    2    1    2    0    0  0.52292523977E+01  0.37102321472E+01  0.42106120663E+02  0.10455860074E+03  0.95490652358E+02 0.  0.
          5    1    3    3  502    0  0.57230470773E+02 -0.81107578456E+01  0.28920294055E+02  0.64768564798E+02  0.41800000000E+01 0. -1.
         -5    1    3    3    0  502 -0.62459723171E+02  0.44005256984E+01  0.76477729937E+02  0.98928748205E+02  0.41800000000E+01 0. -1.
        -11    1    4    4    0    0  0.28327866387E+02 -0.24697597058E+02  0.54238962470E+02  0.65987153025E+02  0.00000000000E+00 0. -1.
         11    1    4    4    0    0 -0.23098613989E+02  0.28407829205E+02 -0.12132841808E+02  0.38571447713E+02  0.00000000000E+00 0.  1.
</event>
<event>
 8    1  0.6648599E-009  0.1136370E+03  0.7561462E-02  0.1253979E+00
          2   -1    0    0  501    0  0.00000000000E+00  0.00000000000E+00  0.25395323354E+02  0.25395323354E+02  0.00000000000E+00 0. -1.
         -2   -1    0    0    0  501 -0.00000000000E+00 -0.00000000000E+00 -0.74831456626E+03  0.74831456626E+03  0.00000000000E+00 0.  1.
         25    2    1    2    0    0 -0.61370460238E+02  0.58921476471E+02 -0.41761323523E+03  0.44416806604E+03  0.12508550223E+03 0.  0.
         23    2    1    2    0    0  0.61370460238E+02 -0.58921476471E+02 -0.30530600768E+03  0.32954182358E+03  0.90266169654E+02 0.  0.
          5    1    3    3  502    0 -0.18223082013E+02 -0.17791007794E+02 -0.10893652640E+02  0.28013295847E+02  0.41800000000E+01 0.  1.
         -5    1    3    3    0  502 -0.43147378225E+02  0.76712484265E+02 -0.40671958259E+03  0.41615477019E+03  0.41800000000E+01 0.  1.
        -11    1    4    4    0    0  0.77617012498E+02 -0.58335727905E+02 -0.29431652491E+03  0.30991881939E+03  0.00000000000E+00 0.  1.
         11    1    4    4    0    0 -0.16246552260E+02 -0.58574856659E+00 -0.10989482766E+02  0.19623004184E+02  0.00000000000E+00 0. -1.
</event>
<event>
 8    1  0.6648599E-009  0.1119017E+03  0.7561462E-02  0.1257088E+00
          3   -1    0    0  501    0  0.00000000000E+00  0.00000000000E+00  0.30702614299E+03  0.30702614299E+03  0.00000000000E+00 0. -1.
         -3   -1    0    0    0  501 -0.00000000000E+00 -0.00000000000E+00 -0.59456132132E+02  0.59456132132E+02  0.00000000000E+00 0.  1.
         25    2    1    2    0    0 -0.26484822623E+02  0.34094120121E+02  0.22955815847E+03  0.26496907073E+03  0.12509118860E+03 0.  0.
         23    2    1    2    0    0  0.26484822623E+02 -0.34094120121E+02  0.18011852386E+02  0.10151320439E+03  0.90092446874E+02 0.  0.
          5    1    3    3  502    0 -0.61234348234E+02 -0.22064252394E+02  0.12969927433E+03  0.14517524169E+03  0.41800000000E+01 0. -1.
         -5    1    3    3    0  502  0.34749525611E+02  0.56158372515E+02  0.99858884140E+02  0.11979382904E+03  0.41800000000E+01 0. -1.
        -11    1    4    4    0    0  0.27094865975E+02  0.22860794381E+02  0.26047291217E+02  0.43991011146E+02  0.00000000000E+00 0. -1.
         11    1    4    4    0    0 -0.61004335179E+00 -0.56954914502E+02 -0.80354388307E+01  0.57522193248E+02  0.00000000000E+00 0.  1.
</event>
<event>
 8    1  0.6648599E-009  0.1188586E+03  0.7561462E-02  0.1244992E+00
          1   -1    0    0  501    0  0.00000000000E+00  0.00000000000E+00  0.72793910061E+02  0.72793910061E+02  0.00000000000E+00 0. -1.
         -1   -1    0    0    0  501 -0.00000000000E+00 -0.00000000000E+00 -0.26631052968E+03  0.26631052968E+03  0.00000000000E+00 0.  1.
         25    2    1    2    0    0  0.70872209213E+02  0.98489022746E+01 -0.46111024851E+02  0.15130160972E+03  0.12508428989E+03 0.  0.
         23    2    1    2    0    0 -0.70872209213E+02 -0.98489022746E+01 -0.14740559477E+03  0.18780283001E+03  0.91769399467E+02 0.  0.
          5    1    3    3  502    0  0.87266642769E+02 -0.35125731444E+02 -0.41902704532E+02  0.10306596430E+03  0.41800000000E+01 0. -1.
         -5    1    3    3    0  502 -0.16394433555E+02  0.44974633719E+02 -0.42083203186E+01  0.48235645426E+02  0.41800000000E+01 0. -1.
        -11    1    4    4    0    0 -0.23008919931E+02 -0.34650832795E+02 -0.12065409093E+03  0.12762249123E+03  0.00000000000E+00 0.  1.
         11    1    4    4    0    0 -0.47863289283E+02  0.24801930521E+02 -0.26751503833E+02  0.60180338781E+02  0.00000000000E+00 0. -1.
</event>
<event>
 8    1  0.6648599E-009  0.9573044E+02  0.7561462E-02  0.1289539E+00
          3   -1    0    0  501    0  0.00000000000E+00  0.00000000000E+00  0.14493898566E+03  0.14493898566E+03  0.00000000000E+00 0. -1.
         -3   -1    0    0    0  501 -0.00000000000E+00 -0.00000000000E+00 -0.12774461787E+03  0.12774461787E+03  0.00000000000E+00 0.  1.
         25    2    1    2    0    0 -0.57733938804E+02  0.55148447704E+02 -0.11780315454E+02  0.14884204035E+03  0.12506245708E+03 0.  0.
         23    2    1    2    0    0  0.57733938804E+02 -0.55148447704E+02  0.28974683250E+02  0.12384156318E+03  0.90125698481E+02 0.  0.
          5    1    3    3  502    0 -0.59517222815E+02  0.28377516206E+02  0.49010521506E+02  0.82262305195E+02  0.41800000000E+01 0.  1.
         -5    1    3    3    0  502  0.17832840111E+01  0.26770931498E+02 -0.60790836960E+02  0.66579735156E+02  0.41800000000E+01 0.  1.
        -11    1    4    4    0    0 -0.11592789268E+02 -0.11418527202E+02 -0.21965164765E+02  0.27335763930E+02  0.00000000000E+00 0.  1.
         11    1    4    4    0    0  0.69326728073E+02 -0.43729920502E+02  0.50939848016E+02  0.96505799247E+02  0.00000000000E+00 0. -1.
</event>
<event>
 8    1  0.6648599E-009  0.2653782E+03  0.7561462E-02  0.1103954E+00
         -2   -1    0    0    0  501 -0.00000000000E+00  0.00000000000E+00  0.43150650833E+03  0.43150650833E+03  0.00000000000E+00 0.  1.
          2   -1    0    0  501    0  0.00000000000E+00 -0.00000000000E+00 -0.22643819624E+03  0.22643819624E+03  0.00000000000E+00 0. -1.
         25    2    1    2    0    0 -0.22099622528E+02  0.24253928414E+03 -0.66605166240E+02  0.28177428691E+03  0.12508718132E+03 0.  0.
         23    2    1    2    0    0  0.22099622528E+02 -0.24253928414E+03  0.27167347834E+03  0.37617041766E+03  0.91564221306E+02 0.  0.
          5    1    3    3  502    0 -0.71974297716E+02  0.10816832260E+03 -0.39344260866E+02  0.13581652628E+03  0.41800000000E+01 0. -1.
         -5    1    3    3    0  502  0.49874675188E+02  0.13437096153E+03 -0.27260905374E+02  0.14595776064E+03  0.41800000000E+01 0. -1.
        -11    1    4    4    0    0 -0.27917397184E+02 -0.14602237807E+03  0.18373173336E+03  0.23634564901E+03  0.00000000000E+00 0. -1.
         11    1    4    4    0    0  0.50017019712E+02 -0.96516906070E+02  0.87941744979E+02  0.13982476865E+03  0.00000000000E+00 0.  1.
</event>
<event>
 8    1  0.6648599E-009  0.1097539E+03  0.7561462E-02  0.1261026E+00
          2   -1    0    0  501    0  0.00000000000E+00  0.00000000000E+00  0.10070489466E+03  0.10070489466E+03  0.00000000000E+00 0. -1.
         -2   -1    0    0    0  501 -0.00000000000E+00 -0.00000000000E+00 -0.17463215503E+03  0.17463215503E+03  0.00000000000E+00 0.  1.
         25    2    1    2    0    0  0.69614295309E+02  0.60164568016E+01 -0.97470793757E+01  0.14361302462E+03  0.12508935775E+03 0.  0.
         23    2    1    2    0    0 -0.69614295309E+02 -0.60164568016E+01 -0.64180180989E+02  0.13172402507E+03  0.91377104816E+02 0.  0.
          5    1    3    3  502    0 -0.19564102650E+02 -0.67745288274E+01 -0.42663763798E+02  0.47605855677E+02  0.41800000000E+01 0.  1.
         -5    1    3    3    0  502  0.89178397959E+02  0.12790985629E+02  0.32916684423E+02  0.96007168947E+02  0.41800000000E+01 0.  1.
        -11    1    4    4    0    0 -0.44737892414E+02  0.37299545688E+02 -0.56569760089E+02  0.81196507823E+02  0.00000000000E+00 0.  1.
         11    1    4    4    0    0 -0.24876402895E+02 -0.43316002490E+02 -0.76104209008E+01  0.50527517245E+02  0.00000000000E+00 0. -1.
</event>
<event>
 8    1  0.6648599E-009  0.4192626E+02  0.7561462E-02  0.1494496E+00
          2   -1    0    0  501    0  0.00000000000E+00  0.00000000000E+00  0.20905421570E+03  0.20905421570E+03  0.00000000000E+00 0. -1.
         -2   -1    0    0    0  501 -0.00000000000E+00 -0.00000000000E+00 -0.10027759613E+03  0.10027759613E+03  0.00000000000E+00 0.  1.
         25    2    1    2    0    0  0.65091127741E+01  0.24423639851E+02  0.15762450079E+03  0.20278429250E+03  0.12504840383E+03 0.  0.
         23    2    1    2    0    0 -0.65091127741E+01 -0.24423639851E+02 -0.48847881223E+02  0.10654751934E+03  0.91254455475E+02 0.  0.
          5    1    3    3  502    0 -0.48390153278E+00  0.30000340790E+02 -0.12210722194E+02  0.32662344446E+02  0.41800000000E+01 0.  1.
         -5    1    3    3    0  502  0.69930143069E+01 -0.55767009388E+01  0.16983522298E+03  0.17012194805E+03  0.41800000000E+01 0.  1.
        -11    1    4    4    0    0 -0.20060419740E+02 -0.22255224055E+02 -0.72921480085E+02  0.78836905670E+02  0.00000000000E+00 0.  1.
         11    1    4    4    0    0  0.13551306966E+02 -0.21684157960E+01  0.24073598862E+02  0.27710613666E+02  0.00000000000E+00 0. -1.
</event>
<event>
 8    1  0.6648599E-009  0.1588486E+03  0.7561462E-02  0.1190003E+00
         -1   -1    0    0    0  501 -0.00000000000E+00  0.00000000000E+00  0.78874632220E+02  0.78874632220E+02  0.00000000000E+00 0.  1.
          1   -1    0    0  501    0  0.00000000000E+00 -0.00000000000E+00 -0.42492813816E+03  0.42492813816E+03  0.00000000000E+00 0. -1.
         25    2    1    2    0    0 -0.77473281194E+02 -0.12161819564E+03 -0.14372730742E+03  0.23895045590E+03  0.12508671660E+03 0.  0.
         23    2    1    2    0    0  0.77473281194E+02  0.12161819564E+03 -0.20232619852E+03  0.26485231448E+03  0.91748368195E+02 0.  0.
          5    1    3    3  502    0 -0.51573003984E+02 -0.37463978016E+02 -0.13625352917E+03  0.15048528499E+03  0.41800000000E+01 0. -1.
         -5    1    3    3    0  502 -0.25900277209E+02 -0.84154217624E+02 -0.74737782569E+01  0.88465170914E+02  0.41800000000E+01 0. -1.
        -11    1    4    4    0    0  0.76307125081E+02  0.44087278442E+02 -0.74746511697E+02  0.11555737306E+03  0.00000000000E+00 0.  1.
         11    1    4    4    0    0  0.11661561131E+01  0.77530917198E+02 -0.12757968682E+03  0.14929494141E+03  0.00000000000E+00 0. -1.
</event>
<event>
 8    1  0.6648599E-009  0.4588465E+02  0.7561462E-02  0.1468893E+00
          2   -1    0    0  501    0  0.00000000000E+00  0.00000000000E+00  0.31000322449E+03  0.31000322449E+03  0.00000000000E+00 0. -1.
         -2   -1    0    0    0  501 -0.00000000000E+00 -0.00000000000E+00 -0.38767575811E+02  0.38767575811E+02  0.00000000000E+00 0.  1.
         25    2    1    2    0    0 -0.20118690584E+02  0.54216570159E-01  0.14355114844E+03  0.19146581104E+03  0.12508980746E+03 0.  0.
         23    2    1    2    0    0  0.20118690584E+02 -0.54216570159E-01  0.12768450024E+03  0.15730498926E+03  0.89647997152E+02 0.  0.
          5    1    3    3  502    0 -0.15635111410E+02  0.45558695010E+01  0.16647059912E+03  0.16731749887E+03  0.41800000000E+01 0. -1.
         -5    1    3    3    0  502 -0.44835791737E+01 -0.45016529309E+01 -0.22919450683E+02  0.24148312175E+02  0.41800000000E+01 0. -1.
        -11    1    4    4    0    0  0.29369662129E+02 -0.26360958939E+02  0.16669091525E+02  0.42840819577E+02  0.00000000000E+00 0.  1.
         11    1    4    4    0    0 -0.92509715449E+01  0.26306742368E+02  0.11101540871E+03  0.11446416968E+03  0.00000000000E+00 0. -1.
</event>
<event>
 8    1  0.6648599E-009  0.1032487E+03  0.7561462E-02  0.1273609E+00
         -2   -1    0    0    0  501 -0.00000000000E+00  0.00000000000E+00  0.22142510536E+02  0.22142510536E+02  0.00000000000E+00 0. -1.
          2   -1    0    0  501    0  0.00000000000E+00 -0.00000000000E+00 -0.59600774406E+03  0.59600774406E+03  0.00000000000E+00 0.  1.
         25    2    1    2    0    0  0.40286610353E+02  0.37142068879E+01 -0.33764003821E+03  0.36232720837E+03  0.12507359519E+03 0.  0.
         23    2    1    2    0    0 -0.40286610353E+02 -0.37142068879E+01 -0.23622519531E+03  0.25582304623E+03  0.89477828392E+02 0.  0.
          5    1    3    3  502    0  0.80291838866E+02  0.50075013135E+01 -0.14839265076E+03  0.16884817339E+03  0.41800000000E+01 0.  1.
         -5    1    3    3    0  502 -0.40005228512E+02 -0.12932944256E+01 -0.18924738745E+03  0.19347903498E+03  0.41800000000E+01 0.  1.
        -11    1    4    4    0    0  0.17558681472E+02  0.16820327845E+02 -0.13704165531E+03  0.13918206067E+03  0.00000000000E+00 0.  1.
         11    1    4    4    0    0 -0.57845291825E+02 -0.20534534733E+02 -0.99183540008E+02  0.11664098556E+03  0.00000000000E+00 0. -1.
</event>
<event>
 8    1  0.6648599E-009  0.1222776E+03  0.7561462E-02  0.1239386E+00
         -1   -1    0    0    0  501 -0.00000000000E+00  0.00000000000E+00  0.21618780505E+03  0.21618780505E+03  0.00000000000E+00 0.  1.
          1   -1    0    0  501    0  0.00000000000E+00 -0.00000000000E+00 -0.95178436506E+02  0.95178436506E+02  0.00000000000E+00 0. -1.
         25    2    1    2    0    0  0.84395289300E+02 -0.49491072035E+01  0.21457769576E+02  0.15249744481E+03  0.12509187137E+03 0.  0.
         23    2    1    2    0    0 -0.84395289300E+02  0.49491072035E+01  0.99551598963E+02  0.15886879674E+03  0.90452834131E+02 0.  0.
          5    1    3    3  502    0 -0.22375118156E+02 -0.14305430457E+01 -0.26808076930E+02  0.35197127079E+02  0.41800000000E+01 0.  1.
         -5    1    3    3    0  502  0.10677040746E+03 -0.35185641577E+01  0.48265846507E+02  0.11730031774E+03  0.41800000000E+01 0.  1.
        -11    1    4    4    0    0 -0.66583484040E+01 -0.29186548475E+02  0.55880104234E+02  0.63393803045E+02  0.00000000000E+00 0.  1.
         11    1    4    4    0    0 -0.77736940896E+02  0.34135655679E+02  0.43671494730E+02  0.95474993692E+02  0.00000000000E+00 0. -1.
</event>
<event>
 8    1  0.6648599E-009  0.7791852E+02  0.7561462E-02  0.1335064E+00
         -1   -1    0    0    0  501 -0.00000000000E+00  0.00000000000E+00  0.83995050593E+02  0.83995050593E+02  0.00000000000E+00 0.  1.
          1   -1    0    0  501    0  0.00000000000E+00 -0.00000000000E+00 -0.15906244941E+03  0.15906244941E+03  0.00000000000E+00 0. -1.
         25    2    1    2    0    0 -0.34944770869E+02  0.84291609240E+01 -0.24925874234E+02  0.13251763332E+03  0.12508971249E+03 0.  0.
         23    2    1    2    0    0  0.34944770869E+02 -0.84291609240E+01 -0.50141524581E+02  0.11053986668E+03  0.91720782123E+02 0.  0.
          5    1    3    3  502    0 -0.39013857771E+02  0.36436767782E+02  0.36468176338E+02  0.64785179093E+02  0.41800000000E+01 0. -1.
         -5    1    3    3    0  502  0.40690869022E+01 -0.28007606858E+02 -0.61394050573E+02  0.67732454229E+02  0.41800000000E+01 0. -1.
        -11    1    4    4    0    0  0.47914300005E+02 -0.23858686902E+02  0.30950383214E+01  0.53615262266E+02  0.00000000000E+00 0.  1.
         11    1    4    4    0    0 -0.12969529136E+02  0.15429525978E+02 -0.53236562902E+02  0.56924604413E+02  0.00000000000E+00 0. -1.
</event>
<event>
 8    1  0.6648599E-009  0.7460551E+02  0.7561462E-02  0.1345097E+00
          2   -1    0    0  501    0  0.00000000000E+00  0.00000000000E+00  0.40899516470E+03  0.40899516470E+03  0.00000000000E+00 0. -1.
         -2   -1    0    0    0  501 -0.00000000000E+00 -0.00000000000E+00 -0.36073770354E+02  0.36073770354E+02  0.00000000000E+00 0.  1.
         25    2    1    2    0    0  0.46594001880E+02  0.21542412138E+01  0.26607353767E+03  0.29768883221E+03  0.12509145298E+03 0.  0.
         23    2    1    2    0    0 -0.46594001880E+02 -0.21542412138E+01  0.10684785667E+03  0.14738010284E+03  0.90159794098E+02 0.  0.
          5    1    3    3  502    0  0.69422095607E+02 -0.52907985693E+01  0.26419165113E+03  0.27324370228E+03  0.41800000000E+01 0.  1.
         -5    1    3    3    0  502 -0.22828093727E+02  0.74450397831E+01  0.18818865448E+01  0.24445129935E+02  0.41800000000E+01 0.  1.
        -11    1    4    4    0    0 -0.19803878986E+02 -0.15510334458E+02 -0.97670066465E+01  0.26984412477E+02  0.00000000000E+00 0.  1.
         11    1    4    4    0    0 -0.26790122894E+02  0.13356093244E+02  0.11661486332E+03  0.12039569037E+03  0.00000000000E+00 0. -1.
</event>
<event>
 8    1  0.6648599E-009  0.1055968E+03  0.7561462E-02  0.1268948E+00
         -2   -1    0    0    0  501 -0.00000000000E+00  0.00000000000E+00  0.20970628731E+02  0.20970628731E+02  0.00000000000E+00 0. -1.
          2   -1    0    0  501    0  0.00000000000E+00 -0.00000000000E+00 -0.76360091205E+03  0.76360091205E+03  0.00000000000E+00 0.  1.
         25    2    1    2    0    0  0.29304605944E+02  0.20578552581E+02 -0.58586030161E+03  0.60013501246E+03  0.12508998128E+03 0.  0.
         23    2    1    2    0    0 -0.29304605944E+02 -0.20578552581E+02 -0.15676998170E+03  0.18443652832E+03  0.90320369014E+02 0.  0.
          5    1    3    3  502    0  0.15075761022E+02 -0.44946202890E+02 -0.39376692828E+03  0.39663245698E+03  0.41800000000E+01 0.  1.
         -5    1    3    3    0  502  0.14228844922E+02  0.65524755471E+02 -0.19209337334E+03  0.20350255548E+03  0.41800000000E+01 0.  1.
        -11    1    4    4    0    0  0.49672871623E+01  0.32697719403E+02 -0.64934609845E+02  0.72871931165E+02  0.00000000000E+00 0. -1.
         11    1    4    4    0    0 -0.34271893106E+02 -0.53276271984E+02 -0.91835371856E+02  0.11156459715E+03  0.00000000000E+00 0.  1.
</event>
<event>
 8    1  0.6648599E-009  0.1319146E+03  0.7561462E-02  0.1224642E+00
         -2   -1    0    0    0  501 -0.00000000000E+00  0.00000000000E+00  0.48239189324E+02  0.48239189324E+02  0.00000000000E+00 0. -1.
          2   -1    0    0  501    0  0.00000000000E+00 -0.00000000000E+00 -0.52565507518E+03  0.52565507518E+03  0.00000000000E+00 0.  1.
         25    2    1    2    0    0  0.33926742378E+02 -0.11154581262E+03 -0.25685257887E+03  0.30856844023E+03  0.12509093840E+03 0.  0.
         23    2    1    2    0    0 -0.33926742378E+02  0.11154581262E+03 -0.22056330699E+03  0.26532582428E+03  0.90311286538E+02 0.  0.
          5    1    3    3  502    0  0.18654364669E+01 -0.99216255426E+02 -0.77697237653E+02  0.12610185698E+03  0.41800000000E+01 0. -1.
         -5    1    3    3    0  502  0.32061305911E+02 -0.12329557198E+02 -0.17915534121E+03  0.18246658325E+03  0.41800000000E+01 0. -1.
        -11    1    4    4    0    0 -0.48814414515E+02  0.66721890995E+02 -0.19459028812E+03  0.21142383507E+03  0.00000000000E+00 0.  1.
         11    1    4    4    0    0  0.14887672138E+02  0.44823921630E+02 -0.25973018867E+02  0.53901989212E+02  0.00000000000E+00 0. -1.
</event>
<event>
 8    1  0.6648599E-009  0.1346044E+03  0.7561462E-02  0.1220779E+00
         -2   -1    0    0    0  501 -0.00000000000E+00  0.00000000000E+00  0.22575538801E+02  0.22575538801E+02  0.00000000000E+00 0. -1.
          2   -1    0    0  501    0  0.00000000000E+00 -0.00000000000E+00 -0.10703171178E+04  0.10703171178E+04  0.00000000000E+00 0.  1.
         25    2    1    2    0    0  0.10584777651E+03 -0.32254670149E+02 -0.53489106828E+03  0.56035715104E+03  0.12509023250E+03 0.  0.
         23    2    1    2    0    0 -0.10584777651E+03  0.32254670149E+02 -0.51285051075E+03  0.53253550559E+03  0.91292402705E+02 0.  0.
          5    1    3    3  502    0  0.10358417877E+03 -0.48347744272E+02 -0.53093388845E+03  0.54311642653E+03  0.41800000000E+01 0.  1.
         -5    1    3    3    0  502  0.22635977385E+01  0.16093074123E+02 -0.39571798262E+01  0.17240724510E+02  0.41800000000E+01 0.  1.
        -11    1    4    4    0    0 -0.89541798229E+02 -0.12497568019E+02 -0.26086074248E+03  0.27608377316E+03  0.00000000000E+00 0. -1.
         11    1    4    4    0    0 -0.16305978281E+02  0.44752238168E+02 -0.25198976827E+03  0.25645173242E+03  0.00000000000E+00 0.  1.
</event>
<event>
 8    1  0.6648599E-009  0.9513917E+02  0.7561462E-02  0.1290863E+00
          2   -1    0    0  501    0  0.00000000000E+00  0.00000000000E+00  0.99487985243E+03  0.99487985243E+03  0.00000000000E+00 0. -1.
         -2   -1    0    0    0  501 -0.00000000000E+00 -0.00000000000E+00 -0.17616475195E+02  0.17616475195E+02  0.00000000000E+00 0.  1.
         25    2    1    2    0    0  0.21994104603E+02 -0.68772116408E+02  0.44671796066E+03  0.46948625420E+03  0.12508821636E+03 0.  0.
         23    2    1    2    0    0 -0.21994104603E+02  0.68772116408E+02  0.53054541657E+03  0.54301007342E+03  0.90377852158E+02 0.  0.
          5    1    3    3  502    0  0.49412392397E+01 -0.54782010713E+02  0.57719249120E+02  0.79840269676E+02  0.41800000000E+01 0.  1.
         -5    1    3    3    0  502  0.17052865364E+02 -0.13990105696E+02  0.38899871154E+03  0.38964598453E+03  0.41800000000E+01 0.  1.
        -11    1    4    4    0    0 -0.55568373664E+02  0.45410439943E+02  0.39353057427E+03  0.40002033085E+03  0.00000000000E+00 0. -1.
         11    1    4    4    0    0  0.33574269061E+02  0.23361676466E+02  0.13701484230E+03  0.14298974257E+03  0.00000000000E+00 0.  1.
</event>
<event>
 8    1  0.6648599E-009  0.9254075E+02  0.7561462E-02  0.1296813E+00
          1   -1    0    0  501    0  0.00000000000E+00  0.00000000000E+00  0.83407487442E+02  0.83407487442E+02  0.00000000000E+00 0. -1.
         -1   -1    0    0    0  501 -0.00000000000E+00 -0.00000000000E+00 -0.19761415839E+03  0.19761415839E+03  0.00000000000E+00 0.  1.
         25    2    1    2    0    0 -0.66290661455E+00 -0.41322428295E+02 -0.49175062019E+01  0.13183130047E+03  0.12508927768E+03 0.  0.
         23    2    1    2    0    0  0.66290661455E+00  0.41322428295E+02 -0.10928916474E+03  0.14919034536E+03  0.92766670165E+02 0.  0.
          5    1    3    3  502    0 -0.81736276054E+01 -0.64498267913E+02 -0.48845668153E+02  0.81426079663E+02  0.41800000000E+01 0. -1.
         -5    1    3    3    0  502  0.75107209909E+01  0.23175839618E+02  0.43928161951E+02  0.50405220803E+02  0.41800000000E+01 0. -1.
        -11    1    4    4    0    0  0.22999830839E+02  0.61159244754E+02 -0.48224253159E+02  0.81209753295E+02  0.00000000000E+00 0. -1.
         11    1    4    4    0    0 -0.22336924224E+02 -0.19836816459E+02 -0.61064911582E+02  0.67980592065E+02  0.00000000000E+00 0.  1.
</event>
<event>
 8    1  0.6648599E-009  0.1134205E+03  0.7561462E-02  0.1254364E+00
          2   -1    0    0  501    0  0.00000000000E+00  0.00000000000E+00  0.22975344496E+03  0.22975344496E+03  0.00000000000E+00 0. -1.
         -2   -1    0    0    0  501 -0.00000000000E+00 -0.00000000000E+00 -0.63085057679E+02  0.63085057679E+02  0.00000000000E+00 0.  1.
         25    2    1    2    0    0  0.46333185101E+02 -0.49682336561E+01  0.65499661428E+02  0.14869898250E+03  0.12509889832E+03 0.  0.
         23    2    1    2    0    0 -0.46333185101E+02  0.49682336561E+01  0.10116872586E+03  0.14413952014E+03  0.91485751834E+02 0.  0.
          5    1    3    3  502    0 -0.14451084110E+02  0.43892169390E+02  0.51563367734E+02  0.69365767189E+02  0.41800000000E+01 0. -1.
         -5    1    3    3    0  502  0.60784269211E+02 -0.48860403046E+02  0.13936293694E+02  0.79333215309E+02  0.41800000000E+01 0. -1.
        -11    1    4    4    0    0 -0.30125538528E+02 -0.42550963068E+02  0.45785869194E+02  0.69386442102E+02  0.00000000000E+00 0.  1.
         11    1    4    4    0    0 -0.16207646573E+02  0.47519196724E+02  0.55382856662E+02  0.74753078042E+02  0.00000000000E+00 0. -1.
</event>
<event>
 8    1  0.6648599E-009  0.1091692E+03  0.7561462E-02  0.1262116E+00
          2   -1    0    0  501    0  0.00000000000E+00  0.00000000000E+00  0.18515200601E+03  0.18515200601E+03  0.00000000000E+00 0.  1.
         -2   -1    0    0    0  501 -0.00000000000E+00 -0.00000000000E+00 -0.82138075122E+02  0.82138075122E+02  0.00000000000E+00 0. -1.
         25    2    1    2    0    0  0.47630272010E+02 -0.34010777593E+02  0.43178470769E+02  0.14469551025E+03  0.12508810713E+03 0.  0.
         23    2    1    2    0    0 -0.47630272010E+02  0.34010777593E+02  0.59835460123E+02  0.12259457088E+03  0.89575502890E+02 0.  0.
          5    1    3    3  502    0 -0.10599751419E+02  0.39216303535E+02 -0.16443774905E+01  0.40871133706E+02  0.41800000000E+01 0.  1.
         -5    1    3    3    0  502  0.58230023430E+02 -0.73227081127E+02  0.44822848260E+02  0.10382437655E+03  0.41800000000E+01 0.  1.
        -11    1    4    4    0    0 -0.59310180660E+02  0.14414193166E+02  0.73859147838E+02  0.95815657457E+02  0.00000000000E+00 0.  1.
         11    1    4    4    0    0  0.11679908649E+02  0.19596584426E+02 -0.14023687715E+02  0.26778913428E+02  0.00000000000E+00 0. -1.
</event>
<event>
 8    1  0.6648599E-009  0.6444286E+02  0.7561462E-02  0.1380080E+00
          3   -1    0    0  501    0  0.00000000000E+00  0.00000000000E+00  0.23856539580E+02  0.23856539580E+02  0.00000000000E+00 0. -1.
         -3   -1    0    0    0  501 -0.00000000000E+00 -0.00000000000E+00 -0.56041247364E+03  0.56041247364E+03  0.00000000000E+00 0.  1.
         25    2    1    2    0    0 -0.33485175924E+02 -0.16313908297E+02 -0.25006441368E+03  0.28207931826E+03  0.12509648352E+03 0.  0.
         23    2    1    2    0    0  0.33485175924E+02  0.16313908297E+02 -0.28649152038E+03  0.30218969496E+03  0.88621779946E+02 0.  0.
          5    1    3    3  502    0 -0.53269107234E+01  0.35706562731E+01 -0.24711144463E+03  0.24722998206E+03  0.41800000000E+01 0.  1.
         -5    1    3    3    0  502 -0.28158265200E+02 -0.19884564570E+02 -0.29529690545E+01  0.34849336198E+02  0.41800000000E+01 0.  1.
        -11    1    4    4    0    0  0.46029365155E+02 -0.18419163511E+02 -0.94882465429E+02  0.10705442675E+03  0.00000000000E+00 0. -1.
         11    1    4    4    0    0 -0.12544189231E+02  0.34733071808E+02 -0.19160905495E+03  0.19513526821E+03  0.00000000000E+00 0.  1.
</event>
<event>
 8    1  0.6648599E-009  0.9953819E+02  0.7561462E-02  0.1281270E+00
         -1   -1    0    0    0  501 -0.00000000000E+00  0.00000000000E+00  0.56677384150E+02  0.56677384150E+02  0.00000000000E+00 0.  1.
          1   -1    0    0  501    0  0.00000000000E+00 -0.00000000000E+00 -0.30998102602E+03  0.30998102602E+03  0.00000000000E+00 0. -1.
         25    2    1    2    0    0 -0.38280881891E+01  0.65433644945E+02 -0.19264564139E+03  0.23886423774E+03  0.12509022653E+03 0.  0.
         23    2    1    2    0    0  0.38280881891E+01 -0.65433644945E+02 -0.60658000483E+02  0.12779417244E+03  0.91409744206E+02 0.  0.
          5    1    3    3  502    0  0.11273872252E+02  0.92710973263E+02 -0.83746318753E+02  0.12551232236E+03  0.41800000000E+01 0. -1.
         -5    1    3    3    0  502 -0.15101960441E+02 -0.27277328318E+02 -0.10889932264E+03  0.11335191538E+03  0.41800000000E+01 0. -1.
        -11    1    4    4    0    0  0.18521524637E+02 -0.25021685868E+02  0.19568590780E+02  0.36770387320E+02  0.00000000000E+00 0.  1.
         11    1    4    4    0    0 -0.14693436447E+02 -0.40411959077E+02 -0.80226591263E+02  0.91023785115E+02  0.00000000000E+00 0. -1.
</event>
<event>
 8    1  0.6648599E-009  0.9900100E+02  0.7561462E-02  0.1282411E+00
          1   -1    0    0  501    0  0.00000000000E+00  0.00000000000E+00  0.18411269474E+03  0.18411269474E+03  0.00000000000E+00 0.  1.
         -1   -1    0    0    0  501 -0.00000000000E+00 -0.00000000000E+00 -0.67008278765E+02  0.67008278765E+02  0.00000000000E+00 0. -1.
         25    2    1    2    0    0  0.18755220630E+02  0.66843135421E+01  0.95344240308E+02  0.15853237984E+03  0.12508218478E+03 0.  0.
         23    2    1    2    0    0 -0.18755220630E+02 -0.66843135421E+01  0.21760175666E+02  0.92588593667E+02  0.87765050469E+02 0.  0.
          5    1    3    3  502    0  0.71918763200E+02  0.73280466014E+01  0.64196923780E+02  0.96771515385E+02  0.41800000000E+01 0.  1.
         -5    1    3    3    0  502 -0.53163542570E+02 -0.64373305927E+00  0.31147316528E+02  0.61760864451E+02  0.41800000000E+01 0.  1.
        -11    1    4    4    0    0 -0.30686418099E+01  0.31150255569E+02 -0.17493614413E+02  0.35857795942E+02  0.00000000000E+00 0. -1.
         11    1    4    4    0    0 -0.15686578820E+02 -0.37834569111E+02  0.39253790079E+02  0.56730797725E+02  0.00000000000E+00 0.  1.
</event>
<event>
 8    1  0.6648599E-009  0.1587483E+03  0.7561462E-02  0.1190117E+00
         -1   -1    0    0    0  501 -0.00000000000E+00  0.00000000000E+00  0.19374320037E+03  0.19374320037E+03  0.00000000000E+00 0.  1.
          1   -1    0    0  501    0  0.00000000000E+00 -0.00000000000E+00 -0.19920945437E+03  0.19920945437E+03  0.00000000000E+00 0. -1.
         25    2    1    2    0    0  0.36568151256E+02 -0.14348362110E+03  0.66986995696E+02  0.20508407760E+03  0.12508973611E+03 0.  0.
         23    2    1    2    0    0 -0.36568151256E+02  0.14348362110E+03 -0.72453249698E+02  0.18786857714E+03  0.90112982826E+02 0.  0.
          5    1    3    3  502    0 -0.17466154688E+02 -0.91518631489E+02  0.86825420268E+02  0.12742390856E+03  0.41800000000E+01 0. -1.
         -5    1    3    3    0  502  0.54034305944E+02 -0.51964989614E+02 -0.19838424573E+02  0.77660169031E+02  0.41800000000E+01 0. -1.
        -11    1    4    4    0    0 -0.52243191976E+01  0.55568749712E+02  0.17246650025E+02  0.58417689040E+02  0.00000000000E+00 0.  1.
         11    1    4    4    0    0 -0.31343832059E+02  0.87914871391E+02 -0.89699899723E+02  0.12945088810E+03  0.00000000000E+00 0. -1.
</event>
<event>
 8    1  0.6648599E-009  0.2084457E+03  0.7561462E-02  0.1142803E+00
         -1   -1    0    0    0  501 -0.00000000000E+00  0.00000000000E+00  0.58560055850E+02  0.58560055850E+02  0.00000000000E+00 0.  1.
          1   -1    0    0  501    0  0.00000000000E+00 -0.00000000000E+00 -0.97774828364E+03  0.97774828364E+03  0.00000000000E+00 0. -1.
         25    2    1    2    0    0 -0.85765204275E+02 -0.18255443115E+03 -0.32745794027E+03  0.40441838616E+03  0.12507492884E+03 0.  0.
         23    2    1    2    0    0  0.85765204275E+02  0.18255443115E+03 -0.59173028752E+03  0.63188995332E+03  0.91969502292E+02 0.  0.
          5    1    3    3  502    0 -0.70865014155E+01 -0.70973282028E+02 -0.21790120584E+03  0.22931601159E+03  0.41800000000E+01 0. -1.
         -5    1    3    3    0  502 -0.78678702859E+02 -0.11158114912E+03 -0.10955673443E+03  0.17510237457E+03  0.41800000000E+01 0. -1.
        -11    1    4    4    0    0  0.88099388572E+02  0.13479533947E+03 -0.34716547594E+03  0.38269459559E+03  0.00000000000E+00 0.  1.
         11    1    4    4    0    0 -0.23341842971E+01  0.47759091674E+02 -0.24456481158E+03  0.24919535773E+03  0.00000000000E+00 0. -1.
</event>
<event>
 8    1  0.6648599E-009  0.9386078E+02  0.7561462E-02  0.1293763E+00
         -1   -1    0    0    0  501 -0.00000000000E+00  0.00000000000E+00  0.10584850181E+04  0.10584850181E+04  0.00000000000E+00 0.  1.
          1   -1    0    0  501    0  0.00000000000E+00 -0.00000000000E+00 -0.12130584005E+02  0.12130584005E+02  0.00000000000E+00 0. -1.
         25    2    1    2    0    0 -0.14595958381E+02  0.33516779492E+02  0.59247394742E+03  0.60663776890E+03  0.12509031845E+03 0.  0.
         23    2    1    2    0    0  0.14595958381E+02 -0.33516779492E+02  0.45388048666E+03  0.46397783320E+03  0.89059064764E+02 0.  0.
          5    1    3    3  502    0 -0.84743948343E+01  0.61664770939E+02  0.14049748468E+03  0.15372499779E+03  0.41800000000E+01 0.  1.
         -5    1    3    3    0  502 -0.61215635470E+01 -0.28147991447E+02  0.45197646274E+03  0.45291277111E+03  0.41800000000E+01 0.  1.
        -11    1    4    4    0    0 -0.27544031146E+02  0.15486297359E+02  0.15544600492E+03  0.15862521711E+03  0.00000000000E+00 0.  1.
         11    1    4    4    0    0  0.42139989527E+02 -0.49003076851E+02  0.29843448175E+03  0.30535261609E+03  0.00000000000E+00 0. -1.
</event>
<event>
 8    1  0.6648599E-009  0.8282118E+02  0.7561462E-02  0.1321231E+00
         -3   -1    0    0    0  501 -0.00000000000E+00  0.00000000000E+00  0.14246108678E+03  0.14246108678E+03  0.00000000000E+00 0.  1.
          3   -1    0    0  501    0  0.00000000000E+00 -0.00000000000E+00 -0.10112731878E+03  0.10112731878E+03  0.00000000000E+00 0. -1.
         25    2    1    2    0    0 -0.11942625754E+02  0.29648874285E+02 -0.15867662373E+02  0.13008005231E+03  0.12508938901E+03 0.  0.
         23    2    1    2    0    0  0.11942625754E+02 -0.29648874285E+02  0.57201430366E+02  0.11350835325E+03  0.92684737499E+02 0.  0.
          5    1    3    3  502    0  0.32387230572E+02  0.75088259472E+01  0.42034243788E+02  0.53755606425E+02  0.41800000000E+01 0. -1.
         -5    1    3    3    0  502 -0.44329856326E+02  0.22140048338E+02 -0.57901906161E+02  0.76324445883E+02  0.41800000000E+01 0. -1.
        -11    1    4    4    0    0  0.44020389997E+02 -0.11281131573E+02  0.61311624386E+02  0.76316275787E+02  0.00000000000E+00 0.  1.
         11    1    4    4    0    0 -0.32077764243E+02 -0.18367742712E+02 -0.41101940200E+01  0.37192077463E+02  0.00000000000E+00 0. -1.
</event>
<event>
 8    1  0.6648599E-009  0.9283854E+02  0.7561462E-02  0.1296120E+00
         -2   -1    0    0    0  501 -0.00000000000E+00  0.00000000000E+00  0.55860903016E+02  0.55860903016E+02  0.00000000000E+00 0.  1.
          2   -1    0    0  501    0  0.00000000000E+00 -0.00000000000E+00 -0.25320422853E+03  0.25320422853E+03  0.00000000000E+00 0. -1.
         25    2    1    2    0    0  0.38218269543E+00 -0.43447617988E+02 -0.85972572259E+02  0.15788335593E+03  0.12509208338E+03 0.  0.
         23    2    1    2    0    0 -0.38218269543E+00  0.43447617988E+02 -0.11137075326E+03  0.15118177562E+03  0.92545356592E+02 0.  0.
          5    1    3    3  502    0 -0.37775577137E+02 -0.62251976249E+01  0.16812501909E+02  0.42022374206E+02  0.41800000000E+01 0. -1.
         -5    1    3    3    0  502  0.38157759832E+02 -0.37222420363E+02 -0.10278507417E+03  0.11586098172E+03  0.41800000000E+01 0. -1.
        -11    1    4    4    0    0 -0.41620230290E+02  0.18971176022E+02 -0.24338350189E+02  0.51812202993E+02  0.00000000000E+00 0.  1.
         11    1    4    4    0    0  0.41238047595E+02  0.24476441966E+02 -0.87032403066E+02  0.99369572627E+02  0.00000000000E+00 0. -1.
</event>
<event>
 8    1  0.6648599E-009  0.1617081E+03  0.7561462E-02  0.1186782E+00
          1   -1    0    0  501    0  0.00000000000E+00  0.00000000000E+00  0.88132293667E+02  0.88132293667E+02  0.00000000000E+00 0. -1.
         -1   -1    0    0    0  501 -0.00000000000E+00 -0.00000000000E+00 -0.63559952783E+03  0.63559952783E+03  0.00000000000E+00 0.  1.
         25    2    1    2    0    0 -0.13593765307E+03  0.26655906586E+02 -0.41629667783E+02  0.19123310560E+03  0.12508992189E+03 0.  0.
         23    2    1    2    0    0  0.13593765307E+03 -0.26655906586E+02 -0.50583756638E+03  0.53249871590E+03  0.92161032967E+02 0.  0.
          5    1    3    3  502    0 -0.51556724221E+02  0.61342598915E+02  0.17905609508E+02  0.82213706314E+02  0.41800000000E+01 0.  1.
         -5    1    3    3    0  502 -0.84380928845E+02 -0.34686692329E+02 -0.59535277291E+02  0.10901939928E+03  0.41800000000E+01 0.  1.
        -11    1    4    4    0    0  0.71917237484E+02 -0.45512227827E+02 -0.17023581822E+03  0.19032521045E+03  0.00000000000E+00 0.  1.
         11    1    4    4    0    0  0.64020415582E+02  0.18856321240E+02 -0.33560174816E+03  0.34217350545E+03  0.00000000000E+00 0. -1.
</event>
<event>
 8    1  0.6648599E-009  0.1187442E+03  0.7561462E-02  0.1245183E+00
         -1   -1    0    0    0  501 -0.00000000000E+00  0.00000000000E+00  0.74274001841E+02  0.74274001841E+02  0.00000000000E+00 0.  1.
          1   -1    0    0  501    0  0.00000000000E+00 -0.00000000000E+00 -0.27140890980E+03  0.27140890980E+03  0.00000000000E+00 0. -1.
         25    2    1    2    0    0 -0.19545378343E+02 -0.45556315208E+02 -0.15606134153E+02  0.13545663453E+03  0.12509016247E+03 0.  0.
         23    2    1    2    0    0  0.19545378343E+02  0.45556315208E+02 -0.18152877380E+03  0.21022627711E+03  0.93728289204E+02 0.  0.
          5    1    3    3  502    0 -0.27130413938E+02 -0.85997883610E+02  0.25025839306E+01  0.90307423129E+02  0.41800000000E+01 0.  1.
         -5    1    3    3    0  502  0.75850355952E+01  0.40441568402E+02 -0.18108718084E+02  0.45149211404E+02  0.41800000000E+01 0.  1.
        -11    1    4    4    0    0  0.55487738031E+02  0.42290904194E+02 -0.11385498230E+03  0.13353039596E+03  0.00000000000E+00 0.  1.
         11    1    4    4    0    0 -0.35942359688E+02  0.32654110144E+01 -0.67673791504E+02  0.76695881151E+02  0.00000000000E+00 0. -1.
</event>
<event>
 8    1  0.6648599E-009  0.1675240E+03  0.7561462E-02  0.1180455E+00
         -2   -1    0    0    0  501 -0.00000000000E+00  0.00000000000E+00  0.69933035011E+02  0.69933035011E+02  0.00000000000E+00 0.  1.
          2   -1    0    0  501    0  0.00000000000E+00 -0.00000000000E+00 -0.55547634583E+03  0.55547634583E+03  0.00000000000E+00 0. -1.
         25    2    1    2    0    0  0.69148269941E+02  0.13097356636E+03 -0.36645099770E+03  0.41457198226E+03  0.12509211182E+03 0.  0.
         23    2    1    2    0    0 -0.69148269941E+02 -0.13097356636E+03 -0.11909231312E+03  0.21083739858E+03  0.91290039298E+02 0.  0.
          5    1    3    3  502    0  0.78604578286E+02  0.45867845297E+02 -0.27277773481E+03  0.28758947124E+03  0.41800000000E+01 0. -1.
         -5    1    3    3    0  502 -0.94563083448E+01  0.85105721062E+02 -0.93673262887E+02  0.12698251102E+03  0.41800000000E+01 0. -1.
        -11    1    4    4    0    0 -0.59672921583E+00 -0.58319611850E+02 -0.40247545357E+01  0.58461370675E+02  0.00000000000E+00 0.  1.
         11    1    4    4    0    0 -0.68551540725E+02 -0.72653954509E+02 -0.11506755858E+03  0.15237602791E+03  0.00000000000E+00 0. -1.
</event>
<event>
 8    1  0.6648599E-009  0.1300086E+03  0.7561462E-02  0.1227443E+00
          2   -1    0    0  501    0  0.00000000000E+00  0.00000000000E+00  0.70003756372E+03  0.70003756372E+03  0.00000000000E+00 0. -1.
         -2   -1    0    0    0  501 -0.00000000000E+00 -0.00000000000E+00 -0.36894512682E+02  0.36894512682E+02  0.00000000000E+00 0.  1.
         25    2    1    2    0    0  0.70878597157E+02 -0.90459381209E+02  0.40546317907E+03  0.43960707692E+03  0.12508923739E+03 0.  0.
         23    2    1    2    0    0 -0.70878597157E+02  0.90459381209E+02  0.25767987197E+03  0.29732499948E+03  0.93789997960E+02 0.  0.
          5    1    3    3  502    0  0.54264544540E+02 -0.35717943231E+02  0.57220762418E+02  0.86672373421E+02  0.41800000000E+01 0. -1.
         -5    1    3    3    0  502  0.16614052617E+02 -0.54741437979E+02  0.34824241665E+03  0.35293470350E+03  0.41800000000E+01 0. -1.
        -11    1    4    4    0    0 -0.11410933654E+02 -0.13570965817E+02  0.86958061489E+02  0.88747309694E+02  0.00000000000E+00 0. -1.
         11    1    4    4    0    0 -0.59467663503E+02  0.10403034703E+03  0.17072181048E+03  0.20857768979E+03  0.00000000000E+00 0.  1.
</event>
<event>
 8    1  0.6648599E-009  0.1445280E+03  0.7561462E-02  0.1207363E+00
         -2   -1    0    0    0  501 -0.00000000000E+00  0.00000000000E+00  0.27336996779E+03  0.27336996779E+03  0.00000000000E+00 0. -1.
          2   -1    0    0  501    0  0.00000000000E+00 -0.00000000000E+00 -0.15759221371E+03  0.15759221371E+03  0.00000000000E+00 0.  1.
         25    2    1    2    0    0 -0.90918480440E+02 -0.10896761159E+03  0.16902935900E+03  0.25368952362E+03  0.12508932700E+03 0.  0.
         23    2    1    2    0    0  0.90918480440E+02  0.10896761159E+03 -0.53251604913E+02  0.17727265788E+03  0.91922529045E+02 0.  0.
          5    1    3    3  502    0 -0.38432512834E+02 -0.70712272407E+02  0.17050392104E+03  0.18859041069E+03  0.41800000000E+01 0. -1.
         -5    1    3    3    0  502 -0.52485967606E+02 -0.38255339180E+02 -0.14745620425E+01  0.65099112932E+02  0.41800000000E+01 0. -1.
        -11    1    4    4    0    0  0.59893931746E+02  0.85917007922E+02 -0.78691385907E+02  0.13100133406E+03  0.00000000000E+00 0.  1.
         11    1    4    4    0    0  0.31024548694E+02  0.23050603666E+02  0.25439780993E+02  0.46271323819E+02  0.00000000000E+00 0. -1.
</event>
<event>
 8    1  0.6648599E-009  0.9859663E+02  0.7561462E-02  0.1283275E+00
          2   -1    0    0  501    0  0.00000000000E+00  0.00000000000E+00  0.60861848932E+03  0.60861848932E+03  0.00000000000E+00 0. -1.
         -2   -1    0    0    0  501 -0.00000000000E+00 -0.00000000000E+00 -0.19933678955E+02  0.19933678955E+02  0.00000000000E+00 0.  1.
         25    2    1    2    0    0  0.12331181655E+02  0.26162936810E+01  0.37813617839E+03  0.39848613827E+03  0.12508129339E+03 0.  0.
         23    2    1    2    0    0 -0.12331181655E+02 -0.26162936810E+01  0.21054863198E+03  0.23006603001E+03  0.91873547333E+02 0.  0.
          5    1    3    3  502    0  0.13915975999E+02  0.57508159363E+02  0.27747374914E+03  0.28374283541E+03  0.41800000000E+01 0. -1.
         -5    1    3    3    0  502 -0.15847943441E+01 -0.54891865682E+02  0.10066242924E+03  0.11474330287E+03  0.41800000000E+01 0. -1.
        -11    1    4    4    0    0 -0.28208107782E+01 -0.42098449101E+02  0.55095136443E+02  0.69395320086E+02  0.00000000000E+00 0.  1.
         11    1    4    4    0    0 -0.95103708770E+01  0.39482155420E+02  0.15545349554E+03  0.16067070992E+03  0.00000000000E+00 0. -1.
</event>
<event>
 8    1  0.6648599E-009  0.1073935E+03  0.7561462E-02  0.1265474E+00
          1   -1    0    0  501    0  0.00000000000E+00  0.00000000000E+00  0.35561810005E+02  0.35561810005E+02  0.00000000000E+00 0. -1.
         -1   -1    0    0    0  501 -0.00000000000E+00 -0.00000000000E+00 -0.44539592503E+03  0.44539592503E+03  0.00000000000E+00 0.  1.
         25    2    1    2    0    0 -0.64073234510E+02  0.34180922681E+00 -0.21578527778E+03  0.25751854321E+03  0.12508804010E+03 0.  0.
         23    2    1    2    0    0  0.64073234510E+02 -0.34180922681E+00 -0.19404883725E+03  0.22343919183E+03  0.90358314477E+02 0.  0.
          5    1    3    3  502    0 -0.61728875287E+02 -0.53272503113E+02 -0.94880401049E+02  0.12517258700E+03  0.41800000000E+01 0. -1.
         -5    1    3    3    0  502 -0.23443592229E+01  0.53614312340E+02 -0.12090487674E+03  0.13234595621E+03  0.41800000000E+01 0. -1.
        -11    1    4    4    0    0  0.20056044871E+02 -0.22410397840E+02 -0.16181768140E+03  0.16458867786E+03  0.00000000000E+00 0.  1.
         11    1    4    4    0    0  0.44017189639E+02  0.22068588613E+02 -0.32231155848E+02  0.58850513969E+02  0.00000000000E+00 0. -1.
</event>
<event>
 8    1  0.6648599E-009  0.9304717E+02  0.7561462E-02  0.1295636E+00
         -2   -1    0    0    0  501 -0.00000000000E+00  0.00000000000E+00  0.37372017716E+02  0.37372017716E+02  0.00000000000E+00 0.  1.
          2   -1    0    0  501    0  0.00000000000E+00 -0.00000000000E+00 -0.33572116034E+03  0.33572116034E+03  0.00000000000E+00 0. -1.
         25    2    1    2    0    0 -0.11380725332E+02  0.25940603211E+02 -0.17433251645E+03  0.21643006870E+03  0.12509081719E+03 0.  0.
         23    2    1    2    0    0  0.11380725332E+02 -0.25940603211E+02 -0.12401662618E+03  0.15666310935E+03  0.91437248753E+02 0.  0.
          5    1    3    3  502    0 -0.54404321488E+01  0.74697847202E+02 -0.77995468274E+02  0.10821336401E+03  0.41800000000E+01 0. -1.
         -5    1    3    3    0  502 -0.59402931836E+01 -0.48757243991E+02 -0.96337048173E+02  0.10821670470E+03  0.41800000000E+01 0. -1.
        -11    1    4    4    0    0 -0.81963400182E+01 -0.37946438593E+02 -0.12764053931E+03  0.13341371544E+03  0.00000000000E+00 0. -1.
         11    1    4    4    0    0  0.19577065351E+02  0.12005835382E+02  0.36239131326E+01  0.23249393914E+02  0.00000000000E+00 0.  1.
</event>
<event>
 8    1  0.6648599E-009  0.1139558E+03  0.7561462E-02  0.1253415E+00
         -1   -1    0    0    0  501 -0.00000000000E+00  0.00000000000E+00  0.17768648890E+03  0.17768648890E+03  0.00000000000E+00 0. -1.
          1   -1    0    0  501    0  0.00000000000E+00 -0.00000000000E+00 -0.77865722706E+02  0.77865722706E+02  0.00000000000E+00 0.  1.
         25    2    1    2    0    0 -0.20453302359E+02 -0.37330014092E+02  0.63626455200E+02  0.14665225774E+03  0.12508673538E+03 0.  0.
         23    2    1    2    0    0  0.20453302359E+02  0.37330014092E+02  0.36194310992E+02  0.10889995387E+03  0.93473548529E+02 0.  0.
          5    1    3    3  502    0  0.49881507326E+02  0.28714009578E+01  0.32575071530E+02  0.59791449236E+02  0.41800000000E+01 0. -1.
         -5    1    3    3    0  502 -0.70334809685E+02 -0.40201415050E+02  0.31051383670E+02  0.86860808500E+02  0.41800000000E+01 0. -1.
        -11    1    4    4    0    0 -0.32937880109E+02  0.27756155275E+01 -0.45559545189E+01  0.33367120181E+02  0.00000000000E+00 0.  1.
         11    1    4    4    0    0  0.53391182467E+02  0.34554398565E+02  0.40750265511E+02  0.75532833686E+02  0.00000000000E+00 0. -1.
</event>
<event>
 8    1  0.6648599E-009  0.1089409E+03  0.7561462E-02  0.1262544E+00
         -1   -1    0    0    0  501 -0.00000000000E+00  0.00000000000E+00  0.10489341941E+03  0.10489341941E+03  0.00000000000E+00 0.  1.
          1   -1    0    0  501    0  0.00000000000E+00 -0.00000000000E+00 -0.21385237809E+03  0.21385237809E+03  0.00000000000E+00 0. -1.
         25    2    1    2    0    0 -0.62880901377E+02 -0.63734974372E+02 -0.41896693329E+01  0.15388549509E+03  0.12508811915E+03 0.  0.
         23    2    1    2    0    0  0.62880901377E+02  0.63734974372E+02 -0.10476928935E+03  0.16486030241E+03  0.90477403825E+02 0.  0.
          5    1    3    3  502    0 -0.11025590150E+02  0.12956323782E+02 -0.48207010796E+02  0.51291502747E+02  0.41800000000E+01 0. -1.
         -5    1    3    3    0  502 -0.51855311226E+02 -0.76691298154E+02  0.44017341463E+02  0.10259399234E+03  0.41800000000E+01 0. -1.
        -11    1    4    4    0    0  0.20758517266E+02  0.62165760853E+02 -0.10372439049E+03  0.12269574990E+03  0.00000000000E+00 0. -1.
         11    1    4    4    0    0  0.42122384110E+02  0.15692135187E+01 -0.10448988571E+01  0.42164552504E+02  0.00000000000E+00 0.  1.
</event>
<event>
 8    1  0.6648599E-009  0.4637646E+03  0.7561462E-02  0.1023695E+00
         -3   -1    0    0    0  501 -0.00000000000E+00  0.00000000000E+00  0.40693355274E+03  0.40693355274E+03  0.00000000000E+00 0.  1.
          3   -1    0    0  501    0  0.00000000000E+00 -0.00000000000E+00 -0.53951137426E+03  0.53951137426E+03  0.00000000000E+00 0. -1.
         25    2    1    2    0    0 -0.17121509938E+03  0.42193267806E+03 -0.66847743374E+02  0.47692491219E+03  0.12508779317E+03 0.  0.
         23    2    1    2    0    0  0.17121509938E+03 -0.42193267806E+03 -0.65730078147E+02  0.46952001482E+03  0.93737964921E+02 0.  0.
          5    1    3    3  502    0 -0.16607643359E+03  0.31102302906E+03 -0.88913069776E+02  0.36364778671E+03  0.41800000000E+01 0. -1.
         -5    1    3    3    0  502 -0.51386657877E+01  0.11090964900E+03  0.22065326402E+02  0.11327712548E+03  0.41800000000E+01 0. -1.
        -11    1    4    4    0    0  0.14790635630E+03 -0.25131229394E+03 -0.56778174493E+02  0.29708234619E+03  0.00000000000E+00 0. -1.
         11    1    4    4    0    0  0.23308743081E+02 -0.17062038413E+03 -0.89519036540E+01  0.17243766863E+03  0.00000000000E+00 0.  1.
</event>
<event>
 8    1  0.6648599E-009  0.1309850E+03  0.7561462E-02  0.1226001E+00
          1   -1    0    0  501    0  0.00000000000E+00  0.00000000000E+00  0.90098494949E+03  0.90098494949E+03  0.00000000000E+00 0. -1.
         -1   -1    0    0    0  501 -0.00000000000E+00 -0.00000000000E+00 -0.20494490826E+02  0.20494490826E+02  0.00000000000E+00 0.  1.
         25    2    1    2    0    0  0.12569339160E+02  0.82434817388E+02  0.58774511282E+03  0.60666770354E+03  0.12509155636E+03 0.  0.
         23    2    1    2    0    0 -0.12569339160E+02 -0.82434817388E+02  0.29274534585E+03  0.31481173678E+03  0.80331218670E+02 0.  0.
          5    1    3    3  502    0  0.70163798624E+01 -0.31303663087E+02  0.19727919507E+03  0.19991423690E+03  0.41800000000E+01 0.  1.
         -5    1    3    3    0  502  0.55529592976E+01  0.11373848048E+03  0.39046591774E+03  0.40675346663E+03  0.41800000000E+01 0.  1.
        -11    1    4    4    0    0 -0.29904569956E+02  0.15187833768E+01  0.82182378406E+02  0.87467327201E+02  0.00000000000E+00 0.  1.
         11    1    4    4    0    0  0.17335230796E+02 -0.83953600765E+02  0.21056296745E+03  0.22734440958E+03  0.00000000000E+00 0. -1.
</event>
<event>
 8    1  0.6648599E-009  0.7562046E+02  0.7561462E-02  0.1341960E+00
         -1   -1    0    0    0  501 -0.00000000000E+00  0.00000000000E+00  0.91679128746E+02  0.91679128746E+02  0.00000000000E+00 0.  1.
          1   -1    0    0  501    0  0.00000000000E+00 -0.00000000000E+00 -0.19319850889E+03  0.19319850889E+03  0.00000000000E+00 0. -1.
         25    2    1    2    0    0 -0.82951178031E+01 -0.68542775585E+01  0.25236164505E+02  0.12806218061E+03  0.12508904030E+03 0.  0.
         23    2    1    2    0    0  0.82951178031E+01  0.68542775585E+01 -0.12675554465E+03  0.15681545702E+03  0.91696943036E+02 0.  0.
          5    1    3    3  502    0 -0.51301798530E+02 -0.22146940127E+02 -0.23853739426E+02  0.60900203398E+02  0.41800000000E+01 0. -1.
         -5    1    3    3    0  502  0.43006680727E+02  0.15292662568E+02  0.49089903930E+02  0.67161977215E+02  0.41800000000E+01 0. -1.
        -11    1    4    4    0    0  0.33794168807E+01 -0.20906747233E+02  0.52612509466E+01  0.21821853722E+02  0.00000000000E+00 0.  1.
         11    1    4    4    0    0  0.49157009224E+01  0.27761024792E+02 -0.13201679560E+03  0.13499360330E+03  0.00000000000E+00 0. -1.
</event>
<event>
 8    1  0.6648599E-009  0.1190000E+03  0.7561462E-02  0.1244756E+00
          1   -1    0    0  501    0  0.00000000000E+00  0.00000000000E+00  0.96709612233E+03  0.96709612233E+03  0.00000000000E+00 0. -1.
         -1   -1    0    0    0  501 -0.00000000000E+00 -0.00000000000E+00 -0.18444345915E+02  0.18444345915E+02  0.00000000000E+00 0.  1.
         25    2    1    2    0    0 -0.76219162091E+02 -0.27624974144E+01  0.56715681411E+03  0.58577965486E+03  0.12511578718E+03 0.  0.
         23    2    1    2    0    0  0.76219162091E+02  0.27624974144E+01  0.38149496230E+03  0.39976081338E+03  0.91941881574E+02 0.  0.
          5    1    3    3  502    0 -0.61277477822E+02  0.54903845363E+02  0.39673285000E+03  0.40519598739E+03  0.41800000000E+01 0.  1.
         -5    1    3    3    0  502 -0.14941684269E+02 -0.57666342777E+02  0.17042396411E+03  0.18058366748E+03  0.41800000000E+01 0.  1.
        -11    1    4    4    0    0 -0.87890921408E+01  0.63078994683E+01  0.21993950451E+01  0.11039704476E+02  0.00000000000E+00 0.  1.
         11    1    4    4    0    0  0.85008254232E+02 -0.35454020540E+01  0.37929556726E+03  0.38872110890E+03  0.00000000000E+00 0. -1.
</event>
<event>
 8    1  0.6648599E-009  0.1547006E+03  0.7561462E-02  0.1194813E+00
          4   -1    0    0  501    0  0.00000000000E+00  0.00000000000E+00  0.11875802100E+04  0.11875802100E+04  0.00000000000E+00 0. -1.
         -4   -1    0    0    0  501 -0.00000000000E+00 -0.00000000000E+00 -0.27318525479E+02  0.27318525479E+02  0.00000000000E+00 0.  1.
         25    2    1    2    0    0  0.58050306532E+02  0.13006209315E+03  0.66605879301E+03  0.69250446683E+03  0.12506851987E+03 0.  0.
         23    2    1    2    0    0 -0.58050306532E+02 -0.13006209315E+03  0.49420289154E+03  0.52239426868E+03  0.91505670780E+02 0.  0.
          5    1    3    3  502    0  0.96196408844E+01  0.79329939066E+02  0.13589042040E+03  0.15770052466E+03  0.41800000000E+01 0.  1.
         -5    1    3    3    0  502  0.48430665647E+02  0.50732154083E+02  0.53016837262E+03  0.53480394217E+03  0.41800000000E+01 0.  1.
        -11    1    4    4    0    0 -0.34141261933E+01 -0.93081385754E+02  0.19635724224E+03  0.21732916788E+03  0.00000000000E+00 0.  1.
         11    1    4    4    0    0 -0.54636180338E+02 -0.36980707396E+02  0.29784564930E+03  0.30506510080E+03  0.00000000000E+00 0. -1.
</event>
<event>
 8    1  0.6648599E-009  0.1209391E+03  0.7561462E-02  0.1241556E+00
          1   -1    0    0  501    0  0.00000000000E+00  0.00000000000E+00  0.53184745495E+02  0.53184745495E+02  0.00000000000E+00 0. -1.
         -1   -1    0    0    0  501 -0.00000000000E+00 -0.00000000000E+00 -0.44449085471E+03  0.44449085471E+03  0.00000000000E+00 0.  1.
         25    2    1    2    0    0 -0.36136093526E+02  0.99778199145E+02 -0.17023075503E+03  0.23642191378E+03  0.12512116158E+03 0.  0.
         23    2    1    2    0    0  0.36136093526E+02 -0.99778199145E+02 -0.22107535418E+03  0.26125368643E+03  0.90098114105E+02 0.  0.
          5    1    3    3  502    0  0.27430490533E+01  0.76729102696E+01  0.19711414156E+02  0.21734997542E+02  0.41800000000E+01 0. -1.
         -5    1    3    3    0  502 -0.38879142580E+02  0.92105288876E+02 -0.18994216919E+03  0.21468691623E+03  0.41800000000E+01 0. -1.
        -11    1    4    4    0    0  0.47512752208E+02 -0.19142917969E+02 -0.49022051322E+02  0.70901864902E+02  0.00000000000E+00 0.  1.
         11    1    4    4    0    0 -0.11376658682E+02 -0.80635281176E+02 -0.17205330286E+03  0.19035182153E+03  0.00000000000E+00 0. -1.
</event>
<event>
 8    1  0.6648599E-009  0.9752222E+02  0.7561462E-02  0.1285594E+00
         -2   -1    0    0    0  501 -0.00000000000E+00  0.00000000000E+00  0.18979063177E+02  0.18979063177E+02  0.00000000000E+00 0.  1.
          2   -1    0    0  501    0  0.00000000000E+00 -0.00000000000E+00 -0.11341991977E+04  0.11341991977E+04  0.00000000000E+00 0. -1.
         25    2    1    2    0    0 -0.22634506611E+01  0.36423057412E+02 -0.96502208101E+03  0.97377960705E+03  0.12508934394E+03 0.  0.
         23    2    1    2    0    0  0.22634506611E+01 -0.36423057412E+02 -0.15019805349E+03  0.17939865379E+03  0.91064040053E+02 0.  0.
          5    1    3    3  502    0  0.36127044551E+02 -0.14576952065E+02 -0.70190118553E+03  0.70299388157E+03  0.41800000000E+01 0. -1.
         -5    1    3    3    0  502 -0.38390495212E+02  0.51000009477E+02 -0.26312089548E+03  0.27078572548E+03  0.41800000000E+01 0. -1.
        -11    1    4    4    0    0 -0.36291508980E+02 -0.38972598774E+02 -0.11663783238E+03  0.12821981525E+03  0.00000000000E+00 0. -1.
         11    1    4    4    0    0  0.38554959641E+02  0.25495413619E+01 -0.33560221102E+02  0.51178838542E+02  0.00000000000E+00 0.  1.
</event>
<event>
 8    1  0.6648599E-009  0.9953329E+02  0.7561462E-02  0.1281280E+00
          1   -1    0    0  501    0  0.00000000000E+00  0.00000000000E+00  0.96556578094E+03  0.96556578094E+03  0.00000000000E+00 0. -1.
         -1   -1    0    0    0  501 -0.00000000000E+00 -0.00000000000E+00 -0.16443635111E+02  0.16443635111E+02  0.00000000000E+00 0.  1.
         25    2    1    2    0    0 -0.35416670087E+02 -0.14436109472E+02  0.74523642967E+03  0.75662965514E+03  0.12509339367E+03 0.  0.
         23    2    1    2    0    0  0.35416670087E+02  0.14436109472E+02  0.20388571616E+03  0.22537976092E+03  0.88113050121E+02 0.  0.
          5    1    3    3  502    0 -0.52625556582E+02 -0.47690576220E+02  0.65487990317E+03  0.65873287472E+03  0.41800000000E+01 0.  1.
         -5    1    3    3    0  502  0.17208886495E+02  0.33254466748E+02  0.90356526506E+02  0.97896780413E+02  0.41800000000E+01 0.  1.
        -11    1    4    4    0    0 -0.22263699356E+02 -0.13626843288E+02  0.28575685723E+02  0.38703139169E+02  0.00000000000E+00 0.  1.
         11    1    4    4    0    0  0.57680369442E+02  0.28062952761E+02  0.17531003043E+03  0.18667662175E+03  0.00000000000E+00 0. -1.
</event>
<event>
 8    1  0.6648599E-009  0.1530691E+03  0.7561462E-02  0.1196752E+00
          3   -1    0    0  501    0  0.00000000000E+00  0.00000000000E+00  0.27833641191E+03  0.27833641191E+03  0.00000000000E+00 0. -1.
         -3   -1    0    0    0  501 -0.00000000000E+00 -0.00000000000E+00 -0.10309304221E+03  0.10309304221E+03  0.00000000000E+00 0.  1.
         25    2    1    2    0    0  0.12768757130E+03 -0.15132615786E+02  0.95073934376E+02  0.20302599727E+03  0.12508953052E+03 0.  0.
         23    2    1    2    0    0 -0.12768757130E+03  0.15132615786E+02  0.80169435328E+02  0.17840345684E+03  0.94167633117E+02 0.  0.
          5    1    3    3  502    0  0.93457561037E+02  0.22164392562E+02  0.11372194508E+03  0.14891517453E+03  0.41800000000E+01 0. -1.
         -5    1    3    3    0  502  0.34230010265E+02 -0.37297008349E+02 -0.18648010705E+02  0.54110822741E+02  0.41800000000E+01 0. -1.
        -11    1    4    4    0    0 -0.87036923949E+02  0.54435308878E+02  0.55663919911E+02  0.11677799863E+03  0.00000000000E+00 0.  1.
         11    1    4    4    0    0 -0.40650647353E+02 -0.39302693092E+02  0.24505515416E+02  0.61625458216E+02  0.00000000000E+00 0. -1.
</event>
<event>
 8    1  0.6648599E-009  0.1128421E+03  0.7561462E-02  0.1255396E+00
         -2   -1    0    0    0  501 -0.00000000000E+00  0.00000000000E+00  0.40642475372E+02  0.40642475372E+02  0.00000000000E+00 0.  1.
          2   -1    0    0  501    0  0.00000000000E+00 -0.00000000000E+00 -0.33898658987E+03  0.33898658987E+03  0.00000000000E+00 0. -1.
         25    2    1    2    0    0  0.38973894381E+02  0.11355274715E+02 -0.17939740472E+03  0.22243764442E+03  0.12508864908E+03 0.  0.
         23    2    1    2    0    0 -0.38973894381E+02 -0.11355274715E+02 -0.11894670978E+03  0.15719142082E+03  0.94408242785E+02 0.  0.
          5    1    3    3  502    0  0.16928020129E+02 -0.55708366761E+02 -0.10257560310E+03  0.11802206041E+03  0.41800000000E+01 0.  1.
         -5    1    3    3    0  502  0.22045874252E+02  0.67063641476E+02 -0.76821801620E+02  0.10441558401E+03  0.41800000000E+01 0.  1.
        -11    1    4    4    0    0 -0.59090126950E+01  0.37300335057E+02 -0.21756203236E+02  0.43583985656E+02  0.00000000000E+00 0.  1.
         11    1    4    4    0    0 -0.33064881686E+02 -0.48655609772E+02 -0.97190506542E+02  0.11360743517E+03  0.00000000000E+00 0. -1.
</event>
<event>
 8    1  0.6648599E-009  0.3477685E+02  0.7561462E-02  0.1550591E+00
         -1   -1    0    0    0  501 -0.00000000000E+00  0.00000000000E+00  0.69692863671E+02  0.69692863671E+02  0.00000000000E+00 0.  1.
          1   -1    0    0  501    0  0.00000000000E+00 -0.00000000000E+00 -0.26284794700E+03  0.26284794700E+03  0.00000000000E+00 0. -1.
         25    2    1    2    0    0 -0.45646336788E+01 -0.27317469544E+02 -0.19859316167E+03  0.23633385405E+03  0.12508943475E+03 0.  0.
         23    2    1    2    0    0  0.45646336788E+01  0.27317469544E+02  0.54380783461E+01  0.96206956614E+02  0.91973505870E+02 0.  0.
          5    1    3    3  502    0 -0.42025535576E+01 -0.58974261193E+01  0.17366181933E+02  0.19274277319E+02  0.41800000000E+01 0. -1.
         -5    1    3    3    0  502 -0.36208012118E+00 -0.21420043425E+02 -0.21595934360E+03  0.21705957673E+03  0.41800000000E+01 0. -1.
        -11    1    4    4    0    0  0.15907484074E+02  0.21117280502E+02 -0.40566145610E+02  0.48421067264E+02  0.00000000000E+00 0. -1.
         11    1    4    4    0    0 -0.11342850395E+02  0.62001890416E+01  0.46004223956E+02  0.47785889350E+02  0.00000000000E+00 0.  1.
</event>
<event>
 8    1  0.6648599E-009  0.9919863E+02  0.7561462E-02  0.1281990E+00
          2   -1    0    0  501    0  0.00000000000E+00  0.00000000000E+00  0.61003927464E+03  0.61003927464E+03  0.00000000000E+00 0.  1.
         -2   -1    0    0    0  501 -0.00000000000E+00 -0.00000000000E+00 -0.23784461337E+02  0.23784461337E+02  0.00000000000E+00 0. -1.
         25    2    1    2    0    0 -0.48006655782E+02  0.11614330183E+02  0.33624560840E+03  0.36214627664E+03  0.12509710169E+03 0.  0.
         23    2    1    2    0    0  0.48006655782E+02 -0.11614330183E+02  0.25000920490E+03  0.27167745934E+03  0.94151514654E+02 0.  0.
          5    1    3    3  502    0 -0.64369548026E+02  0.32447649739E+02  0.94555134755E+02  0.11897241107E+03  0.41800000000E+01 0.  1.
         -5    1    3    3    0  502  0.16362892244E+02 -0.20833319556E+02  0.24169047365E+03  0.24317386557E+03  0.41800000000E+01 0.  1.
        -11    1    4    4    0    0  0.33267349196E+02 -0.48977197810E+02  0.98409966651E+02  0.11484774253E+03  0.00000000000E+00 0. -1.
         11    1    4    4    0    0  0.14739306586E+02  0.37362867627E+02  0.15159923825E+03  0.15682971681E+03  0.00000000000E+00 0.  1.
</event>
<event>
 8    1  0.6648599E-009  0.1282084E+03  0.7561462E-02  0.1230139E+00
          2   -1    0    0  501    0  0.00000000000E+00  0.00000000000E+00  0.19834974803E+03  0.19834974803E+03  0.00000000000E+00 0. -1.
         -2   -1    0    0    0  501 -0.00000000000E+00 -0.00000000000E+00 -0.10494064421E+03  0.10494064421E+03  0.00000000000E+00 0.  1.
         25    2    1    2    0    0 -0.45343095042E+02  0.54486606658E+02  0.11754052688E+03  0.18571032581E+03  0.12509101918E+03 0.  0.
         23    2    1    2    0    0  0.45343095042E+02 -0.54486606658E+02 -0.24131423066E+02  0.11758006643E+03  0.90652963928E+02 0.  0.
          5    1    3    3  502    0  0.22034752478E+02 -0.27284891639E+02  0.15571283707E+02  0.38599649024E+02  0.41800000000E+01 0. -1.
         -5    1    3    3    0  502 -0.67377847519E+02  0.81771498297E+02  0.10196924317E+03  0.14711067678E+03  0.41800000000E+01 0. -1.
        -11    1    4    4    0    0  0.63587387645E+02 -0.67361482528E+01 -0.14409097622E+02  0.65546576227E+02  0.00000000000E+00 0.  1.
         11    1    4    4    0    0 -0.18244292603E+02 -0.47750458405E+02 -0.97223254447E+01  0.52033490202E+02  0.00000000000E+00 0. -1.
</event>
<event>
 8    1  0.6648599E-009  0.1334468E+03  0.7561462E-02  0.1222429E+00
         -2   -1    0    0    0  501 -0.00000000000E+00  0.00000000000E+00  0.12799142574E+03  0.12799142574E+03  0.00000000000E+00 0.  1.
          2   -1    0    0  501    0  0.00000000000E+00 -0.00000000000E+00 -0.21516301299E+03  0.21516301299E+03  0.00000000000E+00 0. -1.
         25    2    1    2    0    0 -0.52418973645E+02  0.99078356268E+02  0.11578142205E+02  0.16836349638E+03  0.12509174256E+03 0.  0.
         23    2    1    2    0    0  0.52418973645E+02 -0.99078356268E+02 -0.98749729458E+02  0.17479094235E+03  0.90752933730E+02 0.  0.
          5    1    3    3  502    0  0.70633982883E+01  0.41031174664E+02  0.59191180006E+02  0.72488047844E+02  0.41800000000E+01 0. -1.
         -5    1    3    3    0  502 -0.59482371934E+02  0.58047181603E+02 -0.47613037801E+02  0.95875448534E+02  0.41800000000E+01 0. -1.
        -11    1    4    4    0    0  0.17531359632E+02  0.14666622842E+02 -0.51994030073E+01  0.23441249706E+02  0.00000000000E+00 0.  1.
         11    1    4    4    0    0  0.34887614013E+02 -0.11374497911E+03 -0.93550326451E+02  0.15134969264E+03  0.00000000000E+00 0. -1.
</event>
<event>
 8    1  0.6648599E-009  0.3126596E+03  0.7561462E-02  0.1079078E+00
         -2   -1    0    0    0  501 -0.00000000000E+00  0.00000000000E+00  0.16136299861E+03  0.16136299861E+03  0.00000000000E+00 0.  1.
          2   -1    0    0  501    0  0.00000000000E+00 -0.00000000000E+00 -0.67000935190E+03  0.67000935190E+03  0.00000000000E+00 0. -1.
         25    2    1    2    0    0  0.27059782612E+03  0.13869641716E+03 -0.18980717440E+03  0.37965387934E+03  0.12510165870E+03 0.  0.
         23    2    1    2    0    0 -0.27059782612E+03 -0.13869641716E+03 -0.31883917888E+03  0.45171847117E+03  0.99655785438E+02 0.  0.
          5    1    3    3  502    0  0.84882651121E+02  0.59162951633E+01 -0.10698363666E+03  0.13675905060E+03  0.41800000000E+01 0. -1.
         -5    1    3    3    0  502  0.18571517500E+03  0.13278012200E+03 -0.82823537747E+02  0.24289482873E+03  0.41800000000E+01 0. -1.
        -11    1    4    4    0    0 -0.22092016788E+03 -0.80155771420E+02 -0.28038039370E+03  0.36584673490E+03  0.00000000000E+00 0. -1.
         11    1    4    4    0    0 -0.49677658233E+02 -0.58540645739E+02 -0.38458785186E+02  0.85871736264E+02  0.00000000000E+00 0.  1.
</event>
<event>
 8    1  0.6648599E-009  0.1412045E+03  0.7561462E-02  0.1211717E+00
         -1   -1    0    0    0  501 -0.00000000000E+00  0.00000000000E+00  0.81344879773E+02  0.81344879773E+02  0.00000000000E+00 0.  1.
          1   -1    0    0  501    0  0.00000000000E+00 -0.00000000000E+00 -0.28437870674E+03  0.28437870674E+03  0.00000000000E+00 0. -1.
         25    2    1    2    0    0 -0.28209252003E+02  0.10222800877E+03 -0.12670504525E+03  0.20724545982E+03  0.12510069724E+03 0.  0.
         23    2    1    2    0    0  0.28209252003E+02 -0.10222800877E+03 -0.76328781724E+02  0.15847812670E+03  0.89682250451E+02 0.  0.
          5    1    3    3  502    0 -0.58202954081E+02  0.10970570533E+03 -0.70241271546E+02  0.14273834199E+03  0.41800000000E+01 0.  1.
         -5    1    3    3    0  502  0.29993702078E+02 -0.74776965611E+01 -0.56463773701E+02  0.64507117831E+02  0.41800000000E+01 0.  1.
        -11    1    4    4    0    0  0.51462794697E+02 -0.77323864107E+02 -0.82043534910E+02  0.12392958008E+03  0.00000000000E+00 0. -1.
         11    1    4    4    0    0 -0.23253542695E+02 -0.24904144663E+02  0.57147531859E+01  0.34548546615E+02  0.00000000000E+00 0.  1.
</event>
<event>
 8    1  0.6648599E-009  0.1134006E+03  0.7561462E-02  0.1254399E+00
          2   -1    0    0  501    0  0.00000000000E+00  0.00000000000E+00  0.27715525894E+02  0.27715525894E+02  0.00000000000E+00 0. -1.
         -2   -1    0    0    0  501 -0.00000000000E+00 -0.00000000000E+00 -0.48650004840E+03  0.48650004840E+03  0.00000000000E+00 0.  1.
         25    2    1    2    0    0 -0.29207453260E+01  0.40755507492E+02 -0.28438056115E+03  0.31335095040E+03  0.12508785877E+03 0.  0.
         23    2    1    2    0    0  0.29207453260E+01 -0.40755507492E+02 -0.17440396135E+03  0.20086462389E+03  0.90886265471E+02 0.  0.
          5    1    3    3  502    0  0.51384883591E+02  0.50107948217E+02 -0.11954360984E+03  0.13949680924E+03  0.41800000000E+01 0. -1.
         -5    1    3    3    0  502 -0.54305628917E+02 -0.93524407246E+01 -0.16483695132E+03  0.17385414116E+03  0.41800000000E+01 0. -1.
        -11    1    4    4    0    0  0.46924549786E+02 -0.20982887604E+02 -0.90907137356E+02  0.10443324455E+03  0.00000000000E+00 0.  1.
         11    1    4    4    0    0 -0.44003804460E+02 -0.19772619888E+02 -0.83496823996E+02  0.96431379341E+02  0.00000000000E+00 0. -1.
</event>
<event>
 8    1  0.6648599E-009  0.1588171E+03  0.7561462E-02  0.1190039E+00
          2   -1    0    0  501    0  0.00000000000E+00  0.00000000000E+00  0.16150081052E+03  0.16150081052E+03  0.00000000000E+00 0. -1.
         -2   -1    0    0    0  501 -0.00000000000E+00 -0.00000000000E+00 -0.16413676052E+03  0.16413676052E+03  0.00000000000E+00 0.  1.
         25    2    1    2    0    0  0.97771772575E+02  0.66109922463E+02 -0.23744314743E+02  0.17361182695E+03  0.12508969827E+03 0.  0.
         23    2    1    2    0    0 -0.97771772575E+02 -0.66109922463E+02  0.21108364738E+02  0.15202574409E+03  0.93468831409E+02 0.  0.
          5    1    3    3  502    0  0.73277245686E+02  0.10265985210E+03 -0.27816704676E+02  0.12922786629E+03  0.41800000000E+01 0.  1.
         -5    1    3    3    0  502  0.24494526889E+02 -0.36549929634E+02  0.40723899327E+01  0.44383960656E+02  0.41800000000E+01 0.  1.
        -11    1    4    4    0    0 -0.70624118014E+02 -0.87665417249E+02  0.23231333563E+01  0.11259834979E+03  0.00000000000E+00 0.  1.
         11    1    4    4    0    0 -0.27147654561E+02  0.21555494786E+02  0.18785231382E+02  0.39427394305E+02  0.00000000000E+00 0. -1.
</event>
<event>
 8    1  0.6648599E-009  0.1806385E+03  0.7561462E-02  0.1167186E+00
          2   -1    0    0  501    0  0.00000000000E+00  0.00000000000E+00  0.48609107243E+03  0.48609107243E+03  0.00000000000E+00 0. -1.
         -2   -1    0    0    0  501 -0.00000000000E+00 -0.00000000000E+00 -0.77046385740E+02  0.77046385740E+02  0.00000000000E+00 0.  1.
         25    2    1    2    0    0  0.14789558260E+03 -0.58527610268E+02  0.18647178590E+03  0.27516682472E+03  0.12508585042E+03 0.  0.
         23    2    1    2    0    0 -0.14789558260E+03  0.58527610268E+02  0.22257290079E+03  0.28797063345E+03  0.89943343542E+02 0.  0.
          5    1    3    3  502    0 -0.19550359044E+02  0.84873944818E+01  0.16193481256E+02  0.27091578747E+02  0.41800000000E+01 0. -1.
         -5    1    3    3    0  502  0.16744594164E+03 -0.67015004749E+02  0.17027830464E+03  0.24807524598E+03  0.41800000000E+01 0. -1.
        -11    1    4    4    0    0 -0.46441592424E+02  0.21148913749E+02  0.14820147537E+03  0.15674110935E+03  0.00000000000E+00 0.  1.
         11    1    4    4    0    0 -0.10145399017E+03  0.37378696519E+02  0.74371425422E+02  0.13122952410E+03  0.00000000000E+00 0. -1.
</event>
<event>
 8    1  0.6648599E-009  0.1134008E+03  0.7561462E-02  0.1254399E+00
          1   -1    0    0  501    0  0.00000000000E+00  0.00000000000E+00  0.31530619352E+03  0.31530619352E+03  0.00000000000E+00 0. -1.
         -1   -1    0    0    0  501 -0.00000000000E+00 -0.00000000000E+00 -0.60840812522E+02  0.60840812522E+02  0.00000000000E+00 0.  1.
         25    2    1    2    0    0  0.31165348171E+02 -0.78870600062E+02  0.11509870661E+03  0.18996609494E+03  0.12509018540E+03 0.  0.
         23    2    1    2    0    0 -0.31165348171E+02  0.78870600062E+02  0.13936667439E+03  0.18618091110E+03  0.89712938020E+02 0.  0.
          5    1    3    3  502    0 -0.10689334262E+02 -0.76940764692E+02  0.12145012457E+02  0.78734470634E+02  0.41800000000E+01 0.  1.
         -5    1    3    3    0  502  0.41854682433E+02 -0.19298353693E+01  0.10295369415E+03  0.11123162430E+03  0.41800000000E+01 0.  1.
        -11    1    4    4    0    0  0.20074546574E+02  0.29976972846E+02  0.97375220972E+02  0.10384382495E+03  0.00000000000E+00 0. -1.
         11    1    4    4    0    0 -0.51239894745E+02  0.48893627216E+02  0.41991453416E+02  0.82337086151E+02  0.00000000000E+00 0.  1.
</event>
<event>
 8    1  0.6648599E-009  0.1370266E+03  0.7561462E-02  0.1217387E+00
          2   -1    0    0  501    0  0.00000000000E+00  0.00000000000E+00  0.14235464455E+03  0.14235464455E+03  0.00000000000E+00 0. -1.
         -2   -1    0    0    0  501 -0.00000000000E+00 -0.00000000000E+00 -0.13797952023E+03  0.13797952023E+03  0.00000000000E+00 0.  1.
         25    2    1    2    0    0 -0.82614690428E+02  0.18064410829E+02  0.26036410144E+02  0.15322283715E+03  0.12509129929E+03 0.  0.
         23    2    1    2    0    0  0.82614690428E+02 -0.18064410829E+02 -0.21661285829E+02  0.12711132763E+03  0.92393551153E+02 0.  0.
          5    1    3    3  502    0 -0.11075149145E+03  0.34870373740E+02  0.10343376974E+02  0.11664601866E+03  0.41800000000E+01 0. -1.
         -5    1    3    3    0  502  0.28136801018E+02 -0.16805962911E+02  0.15693033170E+02  0.36576818492E+02  0.41800000000E+01 0. -1.
        -11    1    4    4    0    0  0.14227353708E+02 -0.48081591622E+02 -0.35880589474E+01  0.50270579999E+02  0.00000000000E+00 0.  1.
         11    1    4    4    0    0  0.68387336720E+02  0.30017180793E+02 -0.18073226882E+02  0.76840747630E+02  0.00000000000E+00 0. -1.
</event>
<event>
 8    1  0.6648599E-009  0.1090211E+03  0.7561462E-02  0.1262393E+00
         -1   -1    0    0    0  501 -0.00000000000E+00  0.00000000000E+00  0.25496321258E+03  0.25496321258E+03  0.00000000000E+00 0.  1.
          1   -1    0    0  501    0  0.00000000000E+00 -0.00000000000E+00 -0.68313408805E+02  0.68313408805E+02  0.00000000000E+00 0. -1.
         25    2    1    2    0    0  0.67214646722E+02 -0.24194683909E+02  0.70266958976E+02  0.16028504686E+03  0.12510259494E+03 0.  0.
         23    2    1    2    0    0 -0.67214646722E+02  0.24194683909E+02  0.11638284480E+03  0.16299157452E+03  0.88983680176E+02 0.  0.
          5    1    3    3  502    0 -0.28289973987E+01 -0.34055137743E+02 -0.24283715959E+02  0.42129881245E+02  0.41800000000E+01 0.  1.
         -5    1    3    3    0  502  0.70043644121E+02  0.98604538333E+01  0.94550674935E+02  0.11815516562E+03  0.41800000000E+01 0.  1.
        -11    1    4    4    0    0 -0.18749074864E+02  0.53109497715E+02  0.45619598119E+02  0.72479612915E+02  0.00000000000E+00 0.  1.
         11    1    4    4    0    0 -0.48465571858E+02 -0.28914813805E+02  0.70763246678E+02  0.90511961604E+02  0.00000000000E+00 0. -1.
</event>
<event>
 8    1  0.6648599E-009  0.6797146E+02  0.7561462E-02  0.1367130E+00
         -1   -1    0    0    0  501 -0.00000000000E+00  0.00000000000E+00  0.30464273224E+03  0.30464273224E+03  0.00000000000E+00 0.  1.
          1   -1    0    0  501    0  0.00000000000E+00 -0.00000000000E+00 -0.53668534501E+02  0.53668534501E+02  0.00000000000E+00 0. -1.
         25    2    1    2    0    0 -0.25033130069E+01  0.45691916781E+02  0.21265017348E+03  0.25092117819E+03  0.12508926233E+03 0.  0.
         23    2    1    2    0    0  0.25033130069E+01 -0.45691916781E+02  0.38324024265E+02  0.10739008855E+03  0.89274198108E+02 0.  0.
          5    1    3    3  502    0  0.68121955181E+01  0.33073203534E+02 -0.34614333963E+01  0.34200829244E+02  0.41800000000E+01 0. -1.
         -5    1    3    3    0  502 -0.93155085250E+01  0.12618713247E+02  0.21611160687E+03  0.21672034895E+03  0.41800000000E+01 0. -1.
        -11    1    4    4    0    0 -0.76284637646E+01 -0.64164761061E+02  0.11104102180E+01  0.64626179156E+02  0.00000000000E+00 0. -1.
         11    1    4    4    0    0  0.10131776771E+02  0.18472844280E+02  0.37213614047E+02  0.42763909395E+02  0.00000000000E+00 0.  1.
</event>
<event>
 8    1  0.6648599E-009  0.7181103E+02  0.7561462E-02  0.1354041E+00
         -1   -1    0    0    0  501 -0.00000000000E+00  0.00000000000E+00  0.10631159603E+03  0.10631159603E+03  0.00000000000E+00 0.  1.
          1   -1    0    0  501    0  0.00000000000E+00 -0.00000000000E+00 -0.13881920477E+03  0.13881920477E+03  0.00000000000E+00 0. -1.
         25    2    1    2    0    0 -0.26672800231E+02 -0.82877309628E+01 -0.67818928763E+02  0.14500849001E+03  0.12509168765E+03 0.  0.
         23    2    1    2    0    0  0.26672800231E+02  0.82877309628E+01  0.35311320025E+02  0.10012231079E+03  0.89428535931E+02 0.  0.
          5    1    3    3  502    0  0.14745194138E+01  0.21263474352E+02  0.31091869395E+02  0.37927381817E+02  0.41800000000E+01 0.  1.
         -5    1    3    3    0  502 -0.28147319645E+02 -0.29551205314E+02 -0.98910798158E+02  0.10708110819E+03  0.41800000000E+01 0.  1.
        -11    1    4    4    0    0 -0.26029081639E+02  0.10646547872E+02  0.38029083051E+02  0.47297708510E+02  0.00000000000E+00 0.  1.
         11    1    4    4    0    0  0.52701881870E+02 -0.23588169093E+01 -0.27177630259E+01  0.52824602277E+02  0.00000000000E+00 0. -1.
</event>
<event>
 8    1  0.6648599E-009  0.1112117E+03  0.7561462E-02  0.1258342E+00
         -1   -1    0    0    0  501 -0.00000000000E+00  0.00000000000E+00  0.81697697519E+02  0.81697697519E+02  0.00000000000E+00 0.  1.
          1   -1    0    0  501    0  0.00000000000E+00 -0.00000000000E+00 -0.18325270519E+03  0.18325270519E+03  0.00000000000E+00 0. -1.
         25    2    1    2    0    0 -0.23783807642E+02  0.52329332172E+02 -0.68057005036E+02  0.15356774252E+03  0.12508903668E+03 0.  0.
         23    2    1    2    0    0  0.23783807642E+02 -0.52329332172E+02 -0.33498002639E+02  0.11138266019E+03  0.89330578745E+02 0.  0.
          5    1    3    3  502    0  0.98598738090E+01  0.84209649691E+02 -0.21130605949E+02  0.87478323717E+02  0.41800000000E+01 0.  1.
         -5    1    3    3    0  502 -0.33643681451E+02 -0.31880317519E+02 -0.46926399088E+02  0.66089418805E+02  0.41800000000E+01 0.  1.
        -11    1    4    4    0    0  0.21685665806E+01 -0.65598891756E+02  0.43982630766E+01  0.65781927599E+02  0.00000000000E+00 0.  1.
         11    1    4    4    0    0  0.21615241062E+02  0.13269559584E+02 -0.37896265716E+02  0.45600732592E+02  0.00000000000E+00 0. -1.
</event>
<event>
 8    1  0.6648599E-009  0.1319455E+03  0.7561462E-02  0.1224597E+00
          1   -1    0    0  501    0  0.00000000000E+00  0.00000000000E+00  0.22699475177E+03  0.22699475177E+03  0.00000000000E+00 0. -1.
         -1   -1    0    0    0  501 -0.00000000000E+00 -0.00000000000E+00 -0.10925375505E+03  0.10925375505E+03  0.00000000000E+00 0.  1.
         25    2    1    2    0    0  0.68663621190E+02 -0.85720254113E+02  0.89158883447E+02  0.18883662805E+03  0.12508921118E+03 0.  0.
         23    2    1    2    0    0 -0.68663621190E+02  0.85720254113E+02  0.28582113269E+02  0.14741187877E+03  0.94077999364E+02 0.  0.
          5    1    3    3  502    0  0.84636712682E+02 -0.89904594313E+02  0.29809811500E+02  0.12709172465E+03  0.41800000000E+01 0.  1.
         -5    1    3    3    0  502 -0.15973091493E+02  0.41843401998E+01  0.59349071947E+02  0.61744903399E+02  0.41800000000E+01 0.  1.
        -11    1    4    4    0    0 -0.42718321059E+02  0.87432322578E+02 -0.13198356804E+02  0.98201133434E+02  0.00000000000E+00 0. -1.
         11    1    4    4    0    0 -0.25945300130E+02 -0.17120684643E+01  0.41780470073E+02  0.49210745339E+02  0.00000000000E+00 0.  1.
</event>
<event>
 8    1  0.6648599E-009  0.1617618E+03  0.7561462E-02  0.1186722E+00
         -2   -1    0    0    0  501 -0.00000000000E+00  0.00000000000E+00  0.13104286932E+03  0.13104286932E+03  0.00000000000E+00 0.  1.
          2   -1    0    0  501    0  0.00000000000E+00 -0.00000000000E+00 -0.28456222319E+03  0.28456222319E+03  0.00000000000E+00 0. -1.
         25    2    1    2    0    0  0.15721524355E+03 -0.25872705568E+02 -0.10473249826E+03  0.22803921854E+03  0.12508780636E+03 0.  0.
         23    2    1    2    0    0 -0.15721524355E+03  0.25872705568E+02 -0.48786855608E+02  0.18756587397E+03  0.86109059330E+02 0.  0.
          5    1    3    3  502    0  0.23993233725E+02 -0.15190711089E+02 -0.88865465719E+02  0.93386167956E+02  0.41800000000E+01 0. -1.
         -5    1    3    3    0  502  0.13322200983E+03 -0.10681994478E+02 -0.15867032538E+02  0.13465305058E+03  0.41800000000E+01 0. -1.
        -11    1    4    4    0    0 -0.54407759300E+02 -0.24645567689E+01 -0.59170345265E+02  0.80420196909E+02  0.00000000000E+00 0. -1.
         11    1    4    4    0    0 -0.10280748425E+03  0.28337262336E+02  0.10383489657E+02  0.10714567706E+03  0.00000000000E+00 0.  1.
</event>
<event>
 8    1  0.6648599E-009  0.1116096E+03  0.7561462E-02  0.1257618E+00
          2   -1    0    0  501    0  0.00000000000E+00  0.00000000000E+00  0.66505924540E+03  0.66505924540E+03  0.00000000000E+00 0.  1.
         -2   -1    0    0    0  501 -0.00000000000E+00 -0.00000000000E+00 -0.22783829544E+02  0.22783829544E+02  0.00000000000E+00 0. -1.
         25    2    1    2    0    0  0.31768319969E+02 -0.10944858766E+02  0.22127216039E+03  0.25639360286E+03  0.12508914636E+03 0.  0.
         23    2    1    2    0    0 -0.31768319969E+02  0.10944858766E+02  0.42100325547E+03  0.43144947209E+03  0.88181005682E+02 0.  0.
          5    1    3    3  502    0  0.27117154252E+02 -0.67188719409E+02  0.13370306460E+03  0.15213035843E+03  0.41800000000E+01 0. -1.
         -5    1    3    3    0  502  0.46511657169E+01  0.56243860643E+02  0.87569095783E+02  0.10426324443E+03  0.41800000000E+01 0. -1.
        -11    1    4    4    0    0  0.20620366612E+02  0.31606253033E+02  0.15201114868E+03  0.15662548986E+03  0.00000000000E+00 0.  1.
         11    1    4    4    0    0 -0.52388686581E+02 -0.20661394267E+02  0.26899210679E+03  0.27482398223E+03  0.00000000000E+00 0. -1.
</event>
<event>
 8    1  0.6648599E-009  0.9688904E+02  0.7561462E-02  0.1286977E+00
          2   -1    0    0  501    0  0.00000000000E+00  0.00000000000E+00  0.10380659813E+04  0.10380659813E+04  0.00000000000E+00 0. -1.
         -2   -1    0    0    0  501 -0.00000000000E+00 -0.00000000000E+00 -0.13475149560E+02  0.13475149560E+02  0.00000000000E+00 0.  1.
         25    2    1    2    0    0  0.76155116233E+01  0.14578998913E+02  0.78563221545E+03  0.79569879675E+03  0.12509218189E+03 0.  0.
         23    2    1    2    0    0 -0.76155116233E+01 -0.14578998913E+02  0.23895861631E+03  0.25584233413E+03  0.89908489021E+02 0.  0.
          5    1    3    3  502    0 -0.51309899382E+02  0.17989962798E+02  0.55210448214E+03  0.55479111036E+03  0.41800000000E+01 0. -1.
         -5    1    3    3    0  502  0.58925411005E+02 -0.34109638851E+01  0.23352773331E+03  0.24090768639E+03  0.41800000000E+01 0. -1.
        -11    1    4    4    0    0 -0.38663881773E+02 -0.26436607471E+02  0.74062406939E+02  0.87630075259E+02  0.00000000000E+00 0.  1.
         11    1    4    4    0    0  0.31048370150E+02  0.11857608557E+02  0.16489620938E+03  0.16821225888E+03  0.00000000000E+00 0. -1.
</event>
<event>
 8    1  0.6648599E-009  0.1376031E+03  0.7561462E-02  0.1216591E+00
          2   -1    0    0  501    0  0.00000000000E+00  0.00000000000E+00  0.67121418578E+02  0.67121418578E+02  0.00000000000E+00 0.  1.
         -2   -1    0    0    0  501 -0.00000000000E+00 -0.00000000000E+00 -0.53075283699E+03  0.53075283699E+03  0.00000000000E+00 0. -1.
         25    2    1    2    0    0  0.10353901017E+03  0.33151817632E+02 -0.41655111310E+03  0.44831197080E+03  0.12509765665E+03 0.  0.
         23    2    1    2    0    0 -0.10353901017E+03 -0.33151817632E+02 -0.47080305311E+02  0.14956228477E+03  0.91285005538E+02 0.  0.
          5    1    3    3  502    0  0.12073135063E+03 -0.41162021978E+01 -0.26535018002E+03  0.29158393746E+03  0.41800000000E+01 0.  1.
         -5    1    3    3    0  502 -0.17192340457E+02  0.37268019830E+02 -0.15120093308E+03  0.15672803334E+03  0.41800000000E+01 0.  1.
        -11    1    4    4    0    0 -0.87672679785E+02 -0.14961862793E+02  0.81252691112E+01  0.89310559941E+02  0.00000000000E+00 0.  1.
         11    1    4    4    0    0 -0.15866330389E+02 -0.18189954839E+02 -0.55205574422E+02  0.60251724824E+02  0.00000000000E+00 0. -1.
</event>
<event>
 8    1  0.6648599E-009  0.1254260E+03  0.7561462E-02  0.1234405E+00
         -2   -1    0    0    0  501 -0.00000000000E+00  0.00000000000E+00  0.13193046335E+03  0.13193046335E+03  0.00000000000E+00 0.  1.
          2   -1    0    0  501    0  0.00000000000E+00 -0.00000000000E+00 -0.13276009106E+03  0.13276009106E+03  0.00000000000E+00 0. -1.
         25    2    1    2    0    0  0.67270927677E+02 -0.10431548399E+02 -0.81984646578E+01  0.14264942908E+03  0.12508976729E+03 0.  0.
         23    2    1    2    0    0 -0.67270927677E+02  0.10431548399E+02  0.73688369458E+01  0.12204112534E+03  0.10102248068E+03 0.  0.
          5    1    3    3  502    0  0.13718438537E+02 -0.58304330057E+02  0.22904154780E+02  0.64262455334E+02  0.41800000000E+01 0.  1.
         -5    1    3    3    0  502  0.53552489140E+02  0.47872781659E+02 -0.31102619437E+02  0.78386973743E+02  0.41800000000E+01 0.  1.
        -11    1    4    4    0    0 -0.10404464805E+02 -0.40928798837E+02 -0.10158607708E+02  0.43435201999E+02  0.00000000000E+00 0. -1.
         11    1    4    4    0    0 -0.56866462872E+02  0.51360347236E+02  0.17527444654E+02  0.78605923338E+02  0.00000000000E+00 0.  1.
</event>
<event>
 8    1  0.6648599E-009  0.8731608E+02  0.7561462E-02  0.1309484E+00
          1   -1    0    0  501    0  0.00000000000E+00  0.00000000000E+00  0.65178053085E+02  0.65178053085E+02  0.00000000000E+00 0. -1.
         -1   -1    0    0    0  501 -0.00000000000E+00 -0.00000000000E+00 -0.22418700456E+03  0.22418700456E+03  0.00000000000E+00 0.  1.
         25    2    1    2    0    0 -0.34072234507E+01 -0.43725274796E+02 -0.52462188824E+02  0.14255804020E+03  0.12508798800E+03 0.  0.
         23    2    1    2    0    0  0.34072234507E+01  0.43725274796E+02 -0.10654676265E+03  0.14680701744E+03  0.90975705070E+02 0.  0.
          5    1    3    3  502    0  0.30606208191E+02 -0.51083999114E+02 -0.78696418369E+02  0.98777090509E+02  0.41800000000E+01 0. -1.
         -5    1    3    3    0  502 -0.34013431642E+02  0.73587243185E+01  0.26234229545E+02  0.43780949687E+02  0.41800000000E+01 0. -1.
        -11    1    4    4    0    0  0.34905133117E+02  0.18338937273E+02 -0.97755790963E+02  0.10540815720E+03  0.00000000000E+00 0.  1.
         11    1    4    4    0    0 -0.31497909666E+02  0.25386337522E+02 -0.87909716830E+01  0.41398860241E+02  0.00000000000E+00 0. -1.
</event>
<event>
 8    1  0.6648599E-009  0.2312296E+03  0.7561462E-02  0.1125777E+00
         -2   -1    0    0    0  501 -0.00000000000E+00  0.00000000000E+00  0.70139584037E+02  0.70139584037E+02  0.00000000000E+00 0.  1.
          2   -1    0    0  501    0  0.00000000000E+00 -0.00000000000E+00 -0.91209042590E+03  0.91209042590E+03  0.00000000000E+00 0. -1.
         25    2    1    2    0    0 -0.10365120622E+03  0.19751249124E+03 -0.33790913815E+03  0.42377549364E+03  0.12509327167E+03 0.  0.
         23    2    1    2    0    0  0.10365120622E+03 -0.19751249124E+03 -0.50404170372E+03  0.55845451630E+03  0.89769989110E+02 0.  0.
          5    1    3    3  502    0 -0.12318119923E+01  0.54781256258E+01  0.10699551549E+02  0.12785930725E+02  0.41800000000E+01 0.  1.
         -5    1    3    3    0  502 -0.10241939423E+03  0.19203436561E+03 -0.34860868970E+03  0.41098956291E+03  0.41800000000E+01 0.  1.
        -11    1    4    4    0    0 -0.12972643432E+02 -0.79497498966E+01 -0.58083585078E+02  0.60043241556E+02  0.00000000000E+00 0. -1.
         11    1    4    4    0    0  0.11662384965E+03 -0.18956274134E+03 -0.44595811864E+03  0.49841127474E+03  0.00000000000E+00 0.  1.
</event>
<event>
 8    1  0.6648599E-009  0.1020146E+03  0.7561462E-02  0.1276116E+00
          4   -1    0    0  501    0  0.00000000000E+00  0.00000000000E+00  0.26995825083E+03  0.26995825083E+03  0.00000000000E+00 0. -1.
         -4   -1    0    0    0  501 -0.00000000000E+00 -0.00000000000E+00 -0.49087775557E+02  0.49087775557E+02  0.00000000000E+00 0.  1.
         25    2    1    2    0    0 -0.13135113350E+02 -0.64605987455E+01  0.90787568971E+02  0.15525925953E+03  0.12509510163E+03 0.  0.
         23    2    1    2    0    0  0.13135113350E+02  0.64605987455E+01  0.13008290630E+03  0.16378676685E+03  0.98439178916E+02 0.  0.
          5    1    3    3  502    0 -0.21060207566E+02 -0.58966725608E+02  0.78669901801E+02  0.10063316015E+03  0.41800000000E+01 0.  1.
         -5    1    3    3    0  502  0.79250942159E+01  0.52506126863E+02  0.12117667170E+02  0.54626099386E+02  0.41800000000E+01 0.  1.
        -11    1    4    4    0    0  0.42431717841E+02  0.28701780320E+02  0.11121770892E+03  0.12244844487E+03  0.00000000000E+00 0. -1.
         11    1    4    4    0    0 -0.29296604490E+02 -0.22241181575E+02  0.18865197379E+02  0.41338321987E+02  0.00000000000E+00 0.  1.
</event>
<event>
 8    1  0.6648599E-009  0.1861438E+03  0.7561462E-02  0.1161986E+00
         -1   -1    0    0    0  501 -0.00000000000E+00  0.00000000000E+00  0.27457193069E+02  0.27457193069E+02  0.00000000000E+00 0.  1.
          1   -1    0    0  501    0  0.00000000000E+00 -0.00000000000E+00 -0.14700059439E+04  0.14700059439E+04  0.00000000000E+00 0. -1.
         25    2    1    2    0    0  0.13070538841E+03  0.99142847843E+02 -0.90444271431E+03  0.92767297635E+03  0.12508926713E+03 0.  0.
         23    2    1    2    0    0 -0.13070538841E+03 -0.99142847843E+02 -0.53810603652E+03  0.56979016062E+03  0.90495954367E+02 0.  0.
          5    1    3    3  502    0  0.13820238599E+03  0.49508856476E+02 -0.77465577564E+03  0.78845422790E+03  0.41800000000E+01 0.  1.
         -5    1    3    3    0  502 -0.74969975772E+01  0.49633991366E+02 -0.12978693867E+03  0.13921874845E+03  0.41800000000E+01 0.  1.
        -11    1    4    4    0    0 -0.99241572851E+02 -0.37956512997E+02 -0.21981645500E+03  0.24414925875E+03  0.00000000000E+00 0.  1.
         11    1    4    4    0    0 -0.31463815558E+02 -0.61186334846E+02 -0.31828958152E+03  0.32564090186E+03  0.00000000000E+00 0. -1.
</event>
<event>
 8    1  0.6648599E-009  0.1124353E+03  0.7561462E-02  0.1256125E+00
         -3   -1    0    0    0  501 -0.00000000000E+00  0.00000000000E+00  0.66760299256E+02  0.66760299256E+02  0.00000000000E+00 0. -1.
          3   -1    0    0  501    0  0.00000000000E+00 -0.00000000000E+00 -0.27454770708E+03  0.27454770708E+03  0.00000000000E+00 0.  1.
         25    2    1    2    0    0 -0.61596685980E+02 -0.37200218792E+02 -0.68403594299E+02  0.15969273453E+03  0.12507881414E+03 0.  0.
         23    2    1    2    0    0  0.61596685980E+02  0.37200218792E+02 -0.13938381352E+03  0.18161527180E+03  0.91532789088E+02 0.  0.
          5    1    3    3  502    0 -0.72104768536E+02 -0.57576292880E+02 -0.54079613633E+01  0.92524837711E+02  0.41800000000E+01 0.  1.
         -5    1    3    3    0  502  0.10508082555E+02  0.20376074088E+02 -0.62995632936E+02  0.67167896820E+02  0.41800000000E+01 0.  1.
        -11    1    4    4    0    0  0.80146464624E+02  0.17295148898E+02 -0.12824522141E+03  0.15221502811E+03  0.00000000000E+00 0.  1.
         11    1    4    4    0    0 -0.18549778644E+02  0.19905069894E+02 -0.11138592115E+02  0.29400243698E+02  0.00000000000E+00 0. -1.
</event>
<event>
 7    1  0.6648599E-009  0.1708687E+03  0.7561462E-02  0.1176945E+00
         -1   -1    0    0    0  501 -0.00000000000E+00  0.00000000000E+00  0.21844570617E+02  0.21844570617E+02  0.00000000000E+00 0.  1.
          1   -1    0    0  501    0  0.00000000000E+00 -0.00000000000E+00 -0.21728919209E+04  0.21728919209E+04  0.00000000000E+00 0. -1.
         23    2    1    2    0    0  0.65510334618E+02 -0.12692555253E+03 -0.41046642656E+03  0.44383926214E+03  0.90049450063E+02 0.  0.
          5    1    1    2  502    0 -0.39640744673E+02  0.14964922299E+03 -0.13870138092E+04  0.13956328522E+04  0.41800000000E+01 0.  1.
         -5    1    1    2    0  502 -0.25869589945E+02 -0.22723670465E+02 -0.35356711448E+03  0.35526437723E+03  0.41800000000E+01 0.  1.
        -11    1    3    3    0    0  0.63487274796E+02 -0.67280248907E+02 -0.14689321615E+03  0.17359401748E+03  0.00000000000E+00 0. -1.
         11    1    3    3    0    0  0.20230598221E+01 -0.59645303618E+02 -0.26357321040E+03  0.27024524465E+03  0.00000000000E+00 0.  1.
</event>
<event>
 7    1  0.6648599E-009  0.8983622E+02  0.7561462E-02  0.1303249E+00
         -2   -1    0    0    0  501 -0.00000000000E+00  0.00000000000E+00  0.19733369204E+02  0.19733369204E+02  0.00000000000E+00 0.  1.
          2   -1    0    0  501    0  0.00000000000E+00 -0.00000000000E+00 -0.84534002799E+03  0.84534002799E+03  0.00000000000E+00 0. -1.
         23    2    1    2    0    0 -0.54959859574E+02  0.73791384697E+01 -0.22361589782E+03  0.24771302791E+03  0.91008991798E+02 0.  0.
          5    1    1    2  502    0  0.71587032903E+02 -0.17128741725E+02 -0.58932954199E+03  0.59392329348E+03  0.41800000000E+01 0.  1.
         -5    1    1    2    0  502 -0.16627173329E+02  0.97496032557E+01 -0.12661218978E+02  0.23437075811E+02  0.41800000000E+01 0.  1.
        -11    1    3    3    0    0 -0.66607992521E+02  0.19509034657E+02 -0.21975980714E+03  0.23045954078E+03  0.00000000000E+00 0. -1.
         11    1    3    3    0    0  0.11648132947E+02 -0.12129896187E+02 -0.38560906737E+01  0.17253487124E+02  0.00000000000E+00 0.  1.
</event>
<event>
 8    1  0.6648599E-009  0.1035839E+03  0.7561462E-02  0.1272935E+00
          2   -1    0    0  501    0  0.00000000000E+00  0.00000000000E+00  0.64220111001E+02  0.64220111001E+02  0.00000000000E+00 0. -1.
         -2   -1    0    0    0  501 -0.00000000000E+00 -0.00000000000E+00 -0.31211476217E+03  0.31211476217E+03  0.00000000000E+00 0.  1.
         25    2    1    2    0    0  0.27523247004E+02  0.15288535025E+02 -0.22215484020E+02  0.13092861653E+03  0.12512995831E+03 0.  0.
         23    2    1    2    0    0 -0.27523247004E+02 -0.15288535025E+02 -0.22567916715E+03  0.24540625664E+03  0.91114630473E+02 0.  0.
          5    1    3    3  502    0 -0.31739919727E+02 -0.29422842258E+02  0.17215479264E+02  0.46765064707E+02  0.41800000000E+01 0.  1.
         -5    1    3    3    0  502  0.59263166731E+02  0.44711377282E+02 -0.39430963285E+02  0.84163551820E+02  0.41800000000E+01 0.  1.
        -11    1    4    4    0    0  0.30239884118E+02 -0.45949158838E+01 -0.12640796883E+03  0.13005590500E+03  0.00000000000E+00 0.  1.
         11    1    4    4    0    0 -0.57763131121E+02 -0.10693619141E+02 -0.99271198320E+02  0.11535035164E+03  0.00000000000E+00 0. -1.
</event>
<event>
 8    1  0.6648599E-009  0.1238531E+03  0.7561462E-02  0.1236873E+00
          1   -1    0    0  501    0  0.00000000000E+00  0.00000000000E+00  0.26264164975E+03  0.26264164975E+03  0.00000000000E+00 0. -1.
         -1   -1    0    0    0  501 -0.00000000000E+00 -0.00000000000E+00 -0.76940935011E+02  0.76940935011E+02  0.00000000000E+00 0.  1.
         25    2    1    2    0    0  0.76762742537E+02 -0.41321013625E+02  0.66814123117E+02  0.16646897987E+03  0.12509136422E+03 0.  0.
         23    2    1    2    0    0 -0.76762742537E+02  0.41321013625E+02  0.11888659162E+03  0.17311360489E+03  0.90743339829E+02 0.  0.
          5    1    3    3  502    0  0.89261520988E+01 -0.69099841624E+02  0.41193932742E+01  0.69920712988E+02  0.41800000000E+01 0.  1.
         -5    1    3    3    0  502  0.67836590438E+02  0.27778828000E+02  0.62694729842E+02  0.96548266879E+02  0.41800000000E+01 0.  1.
        -11    1    4    4    0    0 -0.54008389070E+01  0.32073748594E+02 -0.18303290189E+01  0.32576748059E+02  0.00000000000E+00 0.  1.
         11    1    4    4    0    0 -0.71361903630E+02  0.92472650305E+01  0.12071692064E+03  0.14053685683E+03  0.00000000000E+00 0. -1.
</event>
<event>
 8    1  0.6648599E-009  0.5404634E+03  0.7561462E-02  0.1003726E+00
          1   -1    0    0  501    0  0.00000000000E+00  0.00000000000E+00  0.30742919855E+03  0.30742919855E+03  0.00000000000E+00 0. -1.
         -1   -1    0    0    0  501 -0.00000000000E+00 -0.00000000000E+00 -0.98215265600E+03  0.98215265600E+03  0.00000000000E+00 0.  1.
         25    2    1    2    0    0 -0.14595588221E+03  0.51562595259E+03 -0.31911944407E+03  0.63612822145E+03  0.12509457224E+03 0.  0.
         23    2    1    2    0    0  0.14595588221E+03 -0.51562595259E+03 -0.35560401338E+03  0.65345363310E+03  0.11564684926E+03 0.  0.
          5    1    3    3  502    0 -0.14451578443E+03  0.48989210691E+03 -0.32970962380E+03  0.60795147568E+03  0.41800000000E+01 0.  1.
         -5    1    3    3    0  502 -0.14400977801E+01  0.25733845686E+02  0.10590179730E+02  0.28176745769E+02  0.41800000000E+01 0.  1.
        -11    1    4    4    0    0  0.98513275139E+02 -0.18108342996E+03 -0.17452066938E+03  0.27009912630E+03  0.00000000000E+00 0.  1.
         11    1    4    4    0    0  0.47442607069E+02 -0.33454252263E+03 -0.18108334400E+03  0.38335450680E+03  0.00000000000E+00 0. -1.
</event>
<event>
 8    1  0.6648599E-009  0.1478550E+03  0.7561462E-02  0.1203134E+00
          3   -1    0    0  501    0  0.00000000000E+00  0.00000000000E+00  0.72946863493E+03  0.72946863493E+03  0.00000000000E+00 0. -1.
         -3   -1    0    0    0  501 -0.00000000000E+00 -0.00000000000E+00 -0.56676106005E+02  0.56676106005E+02  0.00000000000E+00 0.  1.
         25    2    1    2    0    0  0.12338136723E+03  0.68420711634E+02  0.16380054493E+03  0.24976660433E+03  0.12509349527E+03 0.  0.
         23    2    1    2    0    0 -0.12338136723E+03 -0.68420711634E+02  0.50899198400E+03  0.53637813661E+03  0.93404015428E+02 0.  0.
          5    1    3    3  502    0  0.21957389682E+02  0.43559435705E+02  0.13159383720E+03  0.14040641648E+03  0.41800000000E+01 0. -1.
         -5    1    3    3    0  502  0.10142397755E+03  0.24861275929E+02  0.32206707728E+02  0.10936018784E+03  0.41800000000E+01 0. -1.
        -11    1    4    4    0    0 -0.10372651294E+03 -0.49400957550E+02  0.48947545699E+03  0.50277814897E+03  0.00000000000E+00 0. -1.
         11    1    4    4    0    0 -0.19654854288E+02 -0.19019754084E+02  0.19516527013E+02  0.33599987636E+02  0.00000000000E+00 0.  1.
</event>
<event>
 8    1  0.6648599E-009  0.1137745E+03  0.7561462E-02  0.1253736E+00
          2   -1    0    0  501    0  0.00000000000E+00  0.00000000000E+00  0.81338583509E+02  0.81338583509E+02  0.00000000000E+00 0. -1.
         -2   -1    0    0    0  501 -0.00000000000E+00 -0.00000000000E+00 -0.31748233988E+03  0.31748233988E+03  0.00000000000E+00 0.  1.
         25    2    1    2    0    0 -0.43832281973E+02 -0.51842286584E+02 -0.64879709691E+01  0.14247302692E+03  0.12509027944E+03 0.  0.
         23    2    1    2    0    0  0.43832281973E+02  0.51842286584E+02 -0.22965578540E+03  0.25634789647E+03  0.91452570410E+02 0.  0.
          5    1    3    3  502    0 -0.60185524355E+02 -0.77747136467E+02 -0.30826241245E+02  0.10312441088E+03  0.41800000000E+01 0.  1.
         -5    1    3    3    0  502  0.16353242383E+02  0.25904849884E+02  0.24338270276E+02  0.39348616036E+02  0.41800000000E+01 0.  1.
        -11    1    4    4    0    0 -0.42976197034E+01  0.49865731651E+02 -0.51579487946E+02  0.71871442903E+02  0.00000000000E+00 0. -1.
         11    1    4    4    0    0  0.48129901676E+02  0.19765549327E+01 -0.17807629746E+03  0.18447645357E+03  0.00000000000E+00 0.  1.
</event>
<event>
 8    1  0.6648599E-009  0.1070043E+03  0.7561462E-02  0.1266220E+00
         -2   -1    0    0    0  501 -0.00000000000E+00  0.00000000000E+00  0.27398277822E+03  0.27398277822E+03  0.00000000000E+00 0.  1.
          2   -1    0    0  501    0  0.00000000000E+00 -0.00000000000E+00 -0.66904900022E+02  0.66904900022E+02  0.00000000000E+00 0. -1.
         25    2    1    2    0    0  0.18094258190E+02  0.30705322260E+02  0.22430521208E+02  0.13196074090E+03  0.12506114450E+03 0.  0.
         23    2    1    2    0    0 -0.18094258190E+02 -0.30705322260E+02  0.18464735699E+03  0.20892693734E+03  0.91025269610E+02 0.  0.
          5    1    3    3  502    0 -0.27666149084E+01  0.71337355226E+02 -0.14629357403E+02  0.72994266259E+02  0.41800000000E+01 0.  1.
         -5    1    3    3    0  502  0.20860873098E+02 -0.40632032966E+02  0.37059878611E+02  0.58966474645E+02  0.41800000000E+01 0.  1.
        -11    1    4    4    0    0  0.35451556438E+02 -0.23662780350E+02  0.97382046751E+02  0.10630147251E+03  0.00000000000E+00 0.  1.
         11    1    4    4    0    0 -0.53545814628E+02 -0.70425419098E+01  0.87265310242E+02  0.10262546483E+03  0.00000000000E+00 0. -1.
</event>
<event>
 8    1  0.6648599E-009  0.9423831E+02  0.7561462E-02  0.1292901E+00
          4   -1    0    0  501    0  0.00000000000E+00  0.00000000000E+00  0.42079536925E+03  0.42079536925E+03  0.00000000000E+00 0.  1.
         -4   -1    0    0    0  501 -0.00000000000E+00 -0.00000000000E+00 -0.52595278462E+02  0.52595278462E+02  0.00000000000E+00 0. -1.
         25    2    1    2    0    0  0.25112912727E+02  0.73672414820E+02  0.30308424709E+03  0.33699537459E+03  0.12509012177E+03 0.  0.
         23    2    1    2    0    0 -0.25112912727E+02 -0.73672414820E+02  0.65115843695E+02  0.13639527313E+03  0.91133497358E+02 0.  0.
          5    1    3    3  502    0  0.13124908190E+02  0.91895455502E+01 -0.84600897964E+01  0.18594528276E+02  0.41800000000E+01 0.  1.
         -5    1    3    3    0  502  0.11988004537E+02  0.64482869270E+02  0.31154433689E+03  0.31840084631E+03  0.41800000000E+01 0.  1.
        -11    1    4    4    0    0  0.15157835842E+02  0.64894586210E+01  0.39956994553E+02  0.43225391547E+02  0.00000000000E+00 0.  1.
         11    1    4    4    0    0 -0.40270748569E+02 -0.80161873441E+02  0.25158849142E+02  0.93169881582E+02  0.00000000000E+00 0. -1.
</event>
<event>
 8    1  0.6648599E-009  0.1511694E+03  0.7561462E-02  0.1199043E+00
         -1   -1    0    0    0  501 -0.00000000000E+00  0.00000000000E+00  0.71219388805E+02  0.71219388805E+02  0.00000000000E+00 0.  1.
          1   -1    0    0  501    0  0.00000000000E+00 -0.00000000000E+00 -0.41504090776E+03  0.41504090776E+03  0.00000000000E+00 0. -1.
         25    2    1    2    0    0 -0.16001988012E+01  0.12753147085E+03 -0.23356790844E+03  0.29405538250E+03  0.12509102059E+03 0.  0.
         23    2    1    2    0    0  0.16001988012E+01 -0.12753147085E+03 -0.11025361051E+03  0.19220491406E+03  0.92304028427E+02 0.  0.
          5    1    3    3  502    0 -0.49579151583E+02  0.79572550553E+02 -0.19375387597E+03  0.21528567051E+03  0.41800000000E+01 0.  1.
         -5    1    3    3    0  502  0.47978952782E+02  0.47958920297E+02 -0.39814032471E+02  0.78769711995E+02  0.41800000000E+01 0.  1.
        -11    1    4    4    0    0  0.27310828956E+02 -0.34477588135E+02 -0.79549455443E+02  0.90899402215E+02  0.00000000000E+00 0. -1.
         11    1    4    4    0    0 -0.25710630155E+02 -0.93053882715E+02 -0.30704155070E+02  0.10130551184E+03  0.00000000000E+00 0.  1.
</event>
<event>
 8    1  0.6648599E-009  0.1474572E+03  0.7561462E-02  0.1203633E+00
         -1   -1    0    0    0  501 -0.00000000000E+00  0.00000000000E+00  0.79383506284E+02  0.79383506284E+02  0.00000000000E+00 0.  1.
          1   -1    0    0  501    0  0.00000000000E+00 -0.00000000000E+00 -0.34111984025E+03  0.34111984025E+03  0.00000000000E+00 0. -1.
         25    2    1    2    0    0  0.11607707568E+03  0.33654587116E+02 -0.11330525566E+03  0.20759094062E+03  0.12509755767E+03 0.  0.
         23    2    1    2    0    0 -0.11607707568E+03 -0.33654587116E+02 -0.14843107831E+03  0.21291240591E+03  0.93238344321E+02 0.  0.
          5    1    3    3  502    0  0.51295523215E+01  0.57962377566E+02 -0.24153608460E+02  0.63141260058E+02  0.41800000000E+01 0. -1.
         -5    1    3    3    0  502  0.11094752336E+03 -0.24307790450E+02 -0.89151647196E+02  0.14444968056E+03  0.41800000000E+01 0. -1.
        -11    1    4    4    0    0 -0.10420196637E+03 -0.22450249516E+02 -0.58658120920E+02  0.12166691682E+03  0.00000000000E+00 0.  1.
         11    1    4    4    0    0 -0.11875109315E+02 -0.11204337600E+02 -0.89772957389E+02  0.91245489098E+02  0.00000000000E+00 0. -1.
</event>
<event>
 8    1  0.6648599E-009  0.9275017E+02  0.7561462E-02  0.1296325E+00
         -2   -1    0    0    0  501 -0.00000000000E+00  0.00000000000E+00  0.72810974520E+02  0.72810974520E+02  0.00000000000E+00 0.  1.
          2   -1    0    0  501    0  0.00000000000E+00 -0.00000000000E+00 -0.38026684669E+03  0.38026684669E+03  0.00000000000E+00 0. -1.
         25    2    1    2    0    0  0.50784383355E+02 -0.30724377222E+02 -0.12925200743E+02  0.13905868479E+03  0.12508883264E+03 0.  0.
         23    2    1    2    0    0 -0.50784383355E+02  0.30724377222E+02 -0.29453067143E+03  0.31401913643E+03  0.91305315731E+02 0.  0.
          5    1    3    3  502    0  0.21790475282E+02  0.22705198964E+02 -0.56045086137E+02  0.64411760985E+02  0.41800000000E+01 0. -1.
         -5    1    3    3    0  502  0.28993908073E+02 -0.53429576186E+02  0.43119885394E+02  0.74646923803E+02  0.41800000000E+01 0. -1.
        -11    1    4    4    0    0 -0.34966723821E+02 -0.19588935613E+02 -0.51113229667E+02  0.64953525079E+02  0.00000000000E+00 0.  1.
         11    1    4    4    0    0 -0.15817659534E+02  0.50313312834E+02 -0.24341744176E+03  0.24906561135E+03  0.00000000000E+00 0. -1.
</event>
<event>
 8    1  0.6648599E-009  0.1096832E+03  0.7561462E-02  0.1261158E+00
         -2   -1    0    0    0  501 -0.00000000000E+00  0.00000000000E+00  0.48166364636E+02  0.48166364636E+02  0.00000000000E+00 0.  1.
          2   -1    0    0  501    0  0.00000000000E+00 -0.00000000000E+00 -0.49234962094E+03  0.49234962094E+03  0.00000000000E+00 0. -1.
         25    2    1    2    0    0  0.16853816363E+02  0.47744397371E+02 -0.77422284450E+02  0.15558151586E+03  0.12509124406E+03 0.  0.
         23    2    1    2    0    0 -0.16853816363E+02 -0.47744397371E+02 -0.36676097185E+03  0.38493446971E+03  0.10534399316E+03 0.  0.
          5    1    3    3  502    0  0.61103534433E+02  0.96091604948E+01 -0.74531983136E+02  0.96945689929E+02  0.41800000000E+01 0. -1.
         -5    1    3    3    0  502 -0.44249718070E+02  0.38135236877E+02 -0.28903013144E+01  0.58635825931E+02  0.41800000000E+01 0. -1.
        -11    1    4    4    0    0  0.30830879672E+02 -0.39990377143E+02 -0.83481726099E+02  0.97565219202E+02  0.00000000000E+00 0.  1.
         11    1    4    4    0    0 -0.47684696036E+02 -0.77540202285E+01 -0.28327924575E+03  0.28736925051E+03  0.00000000000E+00 0. -1.
</event>
<event>
 8    1  0.6648599E-009  0.8750418E+02  0.7561462E-02  0.1309011E+00
          2   -1    0    0  501    0  0.00000000000E+00  0.00000000000E+00  0.18057282817E+03  0.18057282817E+03  0.00000000000E+00 0. -1.
         -2   -1    0    0    0  501 -0.00000000000E+00 -0.00000000000E+00 -0.68953874906E+02  0.68953874906E+02  0.00000000000E+00 0.  1.
         25    2    1    2    0    0 -0.14847191709E+02  0.10031000459E+02  0.49646225089E+02  0.13576975851E+03  0.12509044563E+03 0.  0.
         23    2    1    2    0    0  0.14847191709E+02 -0.10031000459E+02  0.61972728172E+02  0.11375694457E+03  0.93696122270E+02 0.  0.
          5    1    3    3  502    0  0.36784694277E+02  0.18899723010E+02  0.68340952860E+02  0.79989196150E+02  0.41800000000E+01 0. -1.
         -5    1    3    3    0  502 -0.51631885986E+02 -0.88687225508E+01 -0.18694727772E+02  0.55780562355E+02  0.41800000000E+01 0. -1.
        -11    1    4    4    0    0 -0.72046333310E+01  0.32333805979E+02  0.56750960884E+02  0.65711896272E+02  0.00000000000E+00 0. -1.
         11    1    4    4    0    0  0.22051825040E+02 -0.42364806437E+02  0.52217672879E+01  0.48045048295E+02  0.00000000000E+00 0.  1.
</event>
<event>
 8    1  0.6648599E-009  0.2525555E+03  0.7561462E-02  0.1111700E+00
          1   -1    0    0  501    0  0.00000000000E+00  0.00000000000E+00  0.16393875446E+03  0.16393875446E+03  0.00000000000E+00 0. -1.
         -1   -1    0    0    0  501 -0.00000000000E+00 -0.00000000000E+00 -0.44460355145E+03  0.44460355145E+03  0.00000000000E+00 0.  1.
         25    2    1    2    0    0 -0.16094773913E+03 -0.17354733393E+03 -0.22626748977E+03  0.35052460927E+03  0.12509065885E+03 0.  0.
         23    2    1    2    0    0  0.16094773913E+03  0.17354733393E+03 -0.54397307221E+02  0.25801769665E+03  0.87127566847E+02 0.  0.
          5    1    3    3  502    0  0.19587484397E+02 -0.51246707533E+01 -0.20182302669E+02  0.28891686285E+02  0.41800000000E+01 0. -1.
         -5    1    3    3    0  502 -0.18053522353E+03 -0.16842266318E+03 -0.20608518710E+03  0.32163292299E+03  0.41800000000E+01 0. -1.
        -11    1    4    4    0    0  0.13139112112E+02  0.72298120823E+01  0.18554825941E+02  0.23857661569E+02  0.00000000000E+00 0. -1.
         11    1    4    4    0    0  0.14780862702E+03  0.16631752185E+03 -0.72952133162E+02  0.23416003508E+03  0.00000000000E+00 0.  1.
</event>
<event>
 8    1  0.6648599E-009  0.9976150E+02  0.7561462E-02  0.1280798E+00
         -2   -1    0    0    0  501 -0.00000000000E+00  0.00000000000E+00  0.18499615561E+03  0.18499615561E+03  0.00000000000E+00 0.  1.
          2   -1    0    0  501    0  0.00000000000E+00 -0.00000000000E+00 -0.73891256072E+02  0.73891256072E+02  0.00000000000E+00 0. -1.
         25    2    1    2    0    0 -0.39518318002E+02  0.36158460208E+02  0.63922597743E+02  0.15034263096E+03  0.12509067303E+03 0.  0.
         23    2    1    2    0    0  0.39518318002E+02 -0.36158460208E+02  0.47182301794E+02  0.10854478072E+03  0.81772049733E+02 0.  0.
          5    1    3    3  502    0 -0.11968690755E+01 -0.37212131231E+02  0.55600086347E+02  0.67044889501E+02  0.41800000000E+01 0.  1.
         -5    1    3    3    0  502 -0.38321448926E+02  0.73370591439E+02  0.83225113962E+01  0.83297741457E+02  0.41800000000E+01 0.  1.
        -11    1    4    4    0    0  0.53444706980E+02 -0.37345535801E+02  0.60713761972E+02  0.89090889777E+02  0.00000000000E+00 0.  1.
         11    1    4    4    0    0 -0.13926388978E+02  0.11870755932E+01 -0.13531460178E+02  0.19453890947E+02  0.00000000000E+00 0. -1.
</event>
<event>
 8    1  0.6648599E-009  0.1152357E+03  0.7561462E-02  0.1251170E+00
          2   -1    0    0  501    0  0.00000000000E+00  0.00000000000E+00  0.33407167467E+03  0.33407167467E+03  0.00000000000E+00 0. -1.
         -2   -1    0    0    0  501 -0.00000000000E+00 -0.00000000000E+00 -0.53778289005E+02  0.53778289005E+02  0.00000000000E+00 0.  1.
         25    2    1    2    0    0  0.43378009230E+02 -0.65913174241E+02  0.13716865654E+03  0.20171661965E+03  0.12509259003E+03 0.  0.
         23    2    1    2    0    0 -0.43378009230E+02  0.65913174241E+02  0.14312472912E+03  0.18613334403E+03  0.89077132020E+02 0.  0.
          5    1    3    3  502    0 -0.22974439857E+02 -0.75035486903E+02  0.91136995189E+02  0.12033940948E+03  0.41800000000E+01 0.  1.
         -5    1    3    3    0  502  0.66352449087E+02  0.91223126621E+01  0.46031661355E+02  0.81377210171E+02  0.41800000000E+01 0.  1.
        -11    1    4    4    0    0 -0.30361101358E+02  0.64987161721E+02  0.15351909247E+03  0.16944981386E+03  0.00000000000E+00 0. -1.
         11    1    4    4    0    0 -0.13016907871E+02  0.92601251959E+00 -0.10394363342E+02  0.16683530172E+02  0.00000000000E+00 0.  1.
</event>
<event>
 8    1  0.6648599E-009  0.9654156E+02  0.7561462E-02  0.1287741E+00
         -1   -1    0    0    0  501 -0.00000000000E+00  0.00000000000E+00  0.21416056513E+03  0.21416056513E+03  0.00000000000E+00 0.  1.
          1   -1    0    0  501    0  0.00000000000E+00 -0.00000000000E+00 -0.78225742597E+02  0.78225742597E+02  0.00000000000E+00 0. -1.
         25    2    1    2    0    0 -0.47704577717E+02 -0.40174707444E+02  0.36920332924E+02  0.14457206830E+03  0.12509291785E+03 0.  0.
         23    2    1    2    0    0  0.47704577717E+02  0.40174707444E+02  0.99014489607E+02  0.14781423942E+03  0.90307510047E+02 0.  0.
          5    1    3    3  502    0 -0.79608994542E+02 -0.50383092241E+02  0.51896200624E+02  0.10764170212E+03  0.41800000000E+01 0. -1.
         -5    1    3    3    0  502  0.31904416825E+02  0.10208384798E+02 -0.14975867700E+02  0.36930366184E+02  0.41800000000E+01 0. -1.
        -11    1    4    4    0    0  0.17557501489E+02  0.41425172514E+01  0.99206566128E+02  0.10083337280E+03  0.00000000000E+00 0.  1.
         11    1    4    4    0    0  0.30147076227E+02  0.36032190192E+02 -0.19207652078E+00  0.46980866621E+02  0.00000000000E+00 0. -1.
</event>
<event>
 8    1  0.6648599E-009  0.1772616E+03  0.7561462E-02  0.1170480E+00
          1   -1    0    0  501    0  0.00000000000E+00  0.00000000000E+00  0.84848632600E+02  0.84848632600E+02  0.00000000000E+00 0. -1.
         -1   -1    0    0    0  501 -0.00000000000E+00 -0.00000000000E+00 -0.37333161903E+03  0.37333161903E+03  0.00000000000E+00 0.  1.
         25    2    1    2    0    0  0.13802408560E+03 -0.23705422581E+02 -0.13982748119E+03  0.23412617211E+03  0.12510293643E+03 0.  0.
         23    2    1    2    0    0 -0.13802408560E+03  0.23705422581E+02 -0.14865550524E+03  0.22405407952E+03  0.92136724749E+02 0.  0.
          5    1    3    3  502    0  0.61645254341E+02  0.50895287624E+02 -0.48729878506E+02  0.93715212982E+02  0.41800000000E+01 0.  1.
         -5    1    3    3    0  502  0.76378831260E+02 -0.74600710204E+02 -0.91097602688E+02  0.14041095913E+03  0.41800000000E+01 0.  1.
        -11    1    4    4    0    0 -0.11856450499E+03 -0.19577165497E+02 -0.10546003510E+03  0.15988316439E+03  0.00000000000E+00 0.  1.
         11    1    4    4    0    0 -0.19459580609E+02  0.43282588078E+02 -0.43195470145E+02  0.64170915135E+02  0.00000000000E+00 0. -1.
</event>
<event>
 8    1  0.6648599E-009  0.2302244E+03  0.7561462E-02  0.1126482E+00
          1   -1    0    0  501    0  0.00000000000E+00  0.00000000000E+00  0.10158139734E+04  0.10158139734E+04  0.00000000000E+00 0. -1.
         -1   -1    0    0    0  501 -0.00000000000E+00 -0.00000000000E+00 -0.69110272508E+02  0.69110272508E+02  0.00000000000E+00 0.  1.
         25    2    1    2    0    0  0.11382227438E+03 -0.19932560484E+03  0.33299333029E+03  0.42334513022E+03  0.12510129646E+03 0.  0.
         23    2    1    2    0    0 -0.11382227438E+03  0.19932560484E+03  0.61371037059E+03  0.66157911568E+03  0.91434678526E+02 0.  0.
          5    1    3    3  502    0  0.59736057876E+02 -0.96900588974E+02  0.64501999408E+02  0.13090493146E+03  0.41800000000E+01 0.  1.
         -5    1    3    3    0  502  0.54086216502E+02 -0.10242501587E+03  0.26849133088E+03  0.29244019875E+03  0.41800000000E+01 0.  1.
        -11    1    4    4    0    0 -0.62771320866E+02  0.13178483544E+03  0.49286919694E+03  0.51403066724E+03  0.00000000000E+00 0. -1.
         11    1    4    4    0    0 -0.51050953512E+02  0.67540769394E+02  0.12084117366E+03  0.14754844844E+03  0.00000000000E+00 0.  1.
</event>
<event>
 8    1  0.6648599E-009  0.1011698E+03  0.7561462E-02  0.1277855E+00
          2   -1    0    0  501    0  0.00000000000E+00  0.00000000000E+00  0.15832961836E+03  0.15832961836E+03  0.00000000000E+00 0. -1.
         -2   -1    0    0    0  501 -0.00000000000E+00 -0.00000000000E+00 -0.82150153992E+02  0.82150153992E+02  0.00000000000E+00 0.  1.
         25    2    1    2    0    0  0.40401617965E+01  0.34195305442E+02  0.36461754692E+02  0.13476816351E+03  0.12508939411E+03 0.  0.
         23    2    1    2    0    0 -0.40401617965E+01 -0.34195305442E+02  0.39717709676E+02  0.10571160885E+03  0.91715898084E+02 0.  0.
          5    1    3    3  502    0  0.42215905003E+02  0.48531692490E+02 -0.17697589984E+02  0.66844482961E+02  0.41800000000E+01 0. -1.
         -5    1    3    3    0  502 -0.38175743207E+02 -0.14336387047E+02  0.54159344676E+02  0.67923680544E+02  0.41800000000E+01 0. -1.
        -11    1    4    4    0    0 -0.42355627519E+02  0.43012619601E+01  0.97395926702E+01  0.43673329417E+02  0.00000000000E+00 0.  1.
         11    1    4    4    0    0  0.38315465723E+02 -0.38496567402E+02  0.29978117006E+02  0.62038279429E+02  0.00000000000E+00 0. -1.
</event>
<event>
 8    1  0.6648599E-009  0.1252282E+03  0.7561462E-02  0.1234713E+00
          2   -1    0    0  501    0  0.00000000000E+00  0.00000000000E+00  0.97039795601E+03  0.97039795601E+03  0.00000000000E+00 0. -1.
         -2   -1    0    0    0  501 -0.00000000000E+00 -0.00000000000E+00 -0.18047588548E+02  0.18047588548E+02  0.00000000000E+00 0.  1.
         25    2    1    2    0    0  0.64102492922E+02  0.77263208842E+01  0.67054218688E+03  0.68515939443E+03  0.12509094994E+03 0.  0.
         23    2    1    2    0    0 -0.64102492922E+02 -0.77263208842E+01  0.28180818058E+03  0.30328615013E+03  0.91639579785E+02 0.  0.
          5    1    3    3  502    0 -0.36992426093E+02  0.11948834604E+02  0.21088127929E+03  0.21447517477E+03  0.41800000000E+01 0.  1.
         -5    1    3    3    0  502  0.10109491902E+03 -0.42225137197E+01  0.45966090758E+03  0.47068421966E+03  0.41800000000E+01 0.  1.
        -11    1    4    4    0    0  0.10916295376E+02  0.25728216659E+02  0.99051185438E+02  0.10291862792E+03  0.00000000000E+00 0. -1.
         11    1    4    4    0    0 -0.75018788298E+02 -0.33454537543E+02  0.18275699514E+03  0.20036752220E+03  0.00000000000E+00 0.  1.
</event>
<event>
 8    1  0.6648599E-009  0.1070972E+03  0.7561462E-02  0.1266042E+00
          3   -1    0    0  501    0  0.00000000000E+00  0.00000000000E+00  0.16835927517E+03  0.16835927517E+03  0.00000000000E+00 0. -1.
         -3   -1    0    0    0  501 -0.00000000000E+00 -0.00000000000E+00 -0.10888785659E+03  0.10888785659E+03  0.00000000000E+00 0.  1.
         25    2    1    2    0    0 -0.67079249898E+02  0.19109522088E+02  0.73327402633E+02  0.16092101537E+03  0.12511540916E+03 0.  0.
         23    2    1    2    0    0  0.67079249898E+02 -0.19109522088E+02 -0.13855984046E+02  0.11632611639E+03  0.92059640776E+02 0.  0.
          5    1    3    3  502    0 -0.10975514479E+02 -0.51571781385E+02  0.28135644226E+02  0.59909910944E+02  0.41800000000E+01 0.  1.
         -5    1    3    3    0  502 -0.56103735419E+02  0.70681303473E+02  0.45191758407E+02  0.10101110442E+03  0.41800000000E+01 0.  1.
        -11    1    4    4    0    0  0.36786787155E+02 -0.17207012387E+02 -0.53014115636E+02  0.66782074251E+02  0.00000000000E+00 0.  1.
         11    1    4    4    0    0  0.30292462742E+02 -0.19025097010E+01  0.39158131590E+02  0.49544042142E+02  0.00000000000E+00 0. -1.
</event>
<event>
 8    1  0.6648599E-009  0.1013414E+03  0.7561462E-02  0.1277500E+00
          1   -1    0    0  501    0  0.00000000000E+00  0.00000000000E+00  0.63445867306E+03  0.63445867306E+03  0.00000000000E+00 0. -1.
         -1   -1    0    0    0  501 -0.00000000000E+00 -0.00000000000E+00 -0.29982936587E+02  0.29982936587E+02  0.00000000000E+00 0.  1.
         25    2    1    2    0    0  0.10880162223E+02 -0.35152139198E+02  0.51531857805E+03  0.53155908426E+03  0.12509105627E+03 0.  0.
         23    2    1    2    0    0 -0.10880162223E+02  0.35152139198E+02  0.89157158420E+02  0.13288252538E+03  0.91404134668E+02 0.  0.
          5    1    3    3  502    0 -0.38331553567E+02 -0.48729923560E+02  0.40728238145E+03  0.41199553892E+03  0.41800000000E+01 0. -1.
         -5    1    3    3    0  502  0.49211715790E+02  0.13577784362E+02  0.10803619660E+03  0.11956354534E+03  0.41800000000E+01 0. -1.
        -11    1    4    4    0    0 -0.45616978667E+02  0.28970582067E+02  0.79808288557E+02  0.96382396164E+02  0.00000000000E+00 0.  1.
         11    1    4    4    0    0  0.34736816444E+02  0.61815571309E+01  0.93488698633E+01  0.36500129218E+02  0.00000000000E+00 0. -1.
</event>
<event>
 8    1  0.6648599E-009  0.1897154E+03  0.7561462E-02  0.1158718E+00
          1   -1    0    0  501    0  0.00000000000E+00  0.00000000000E+00  0.14335855072E+04  0.14335855072E+04  0.00000000000E+00 0. -1.
         -1   -1    0    0    0  501 -0.00000000000E+00 -0.00000000000E+00 -0.26538040329E+02  0.26538040329E+02  0.00000000000E+00 0.  1.
         25    2    1    2    0    0 -0.21644075541E+02  0.15587829308E+03  0.87356220872E+03  0.89639565331E+03  0.12509087298E+03 0.  0.
         23    2    1    2    0    0  0.21644075541E+02 -0.15587829308E+03  0.53348525812E+03  0.56372789419E+03  0.91739357957E+02 0.  0.
          5    1    3    3  502    0 -0.50862265666E+02  0.16161212149E+03  0.69823174367E+03  0.71850573286E+03  0.41800000000E+01 0. -1.
         -5    1    3    3    0  502  0.29218190125E+02 -0.57338284114E+01  0.17533046504E+03  0.17788992044E+03  0.41800000000E+01 0. -1.
        -11    1    4    4    0    0  0.17547715679E+02  0.55501288910E+01  0.32358890296E+02  0.37226657618E+02  0.00000000000E+00 0.  1.
         11    1    4    4    0    0  0.40963598623E+01 -0.16142842197E+03  0.50112636783E+03  0.52650123658E+03  0.00000000000E+00 0. -1.
</event>
<event>
 8    1  0.6648599E-009  0.1109933E+03  0.7561462E-02  0.1258741E+00
         -1   -1    0    0    0  501 -0.00000000000E+00  0.00000000000E+00  0.27921807741E+03  0.27921807741E+03  0.00000000000E+00 0.  1.
          1   -1    0    0  501    0  0.00000000000E+00 -0.00000000000E+00 -0.52049194491E+02  0.52049194491E+02  0.00000000000E+00 0. -1.
         25    2    1    2    0    0 -0.81035162539E+01  0.49301634774E+01  0.64209735531E+02  0.14091939780E+03  0.12508162555E+03 0.  0.
         23    2    1    2    0    0  0.81035162539E+01 -0.49301634774E+01  0.16295914739E+03  0.19034787410E+03  0.97911470065E+02 0.  0.
          5    1    3    3  502    0  0.57373766633E+02  0.71649014107E+01  0.18225799933E+02  0.60767895249E+02  0.41800000000E+01 0. -1.
         -5    1    3    3    0  502 -0.65477282887E+02 -0.22347379333E+01  0.45983935598E+02  0.80151502549E+02  0.41800000000E+01 0. -1.
        -11    1    4    4    0    0 -0.31713865056E+02 -0.35916440484E+02  0.78754785994E+02  0.92185010988E+02  0.00000000000E+00 0. -1.
         11    1    4    4    0    0  0.39817381310E+02  0.30986277007E+02  0.84204361393E+02  0.98162863114E+02  0.00000000000E+00 0.  1.
</event>
<event>
 8    1  0.6648599E-009  0.9421861E+02  0.7561462E-02  0.1292946E+00
         -1   -1    0    0    0  501 -0.00000000000E+00  0.00000000000E+00  0.39438566402E+02  0.39438566402E+02  0.00000000000E+00 0.  1.
          1   -1    0    0  501    0  0.00000000000E+00 -0.00000000000E+00 -0.43495704966E+03  0.43495704966E+03  0.00000000000E+00 0. -1.
         25    2    1    2    0    0 -0.66038649220E+02 -0.30014153013E+02 -0.24103291263E+03  0.28107662649E+03  0.12508098342E+03 0.  0.
         23    2    1    2    0    0  0.66038649220E+02  0.30014153013E+02 -0.15448557062E+03  0.19331898957E+03  0.90799160936E+02 0.  0.
          5    1    3    3  502    0 -0.86145169241E+01 -0.11402209399E+02 -0.21448201532E+03  0.21499820366E+03  0.41800000000E+01 0.  1.
         -5    1    3    3    0  502 -0.57424132296E+02 -0.18611943614E+02 -0.26550897309E+02  0.66078422824E+02  0.41800000000E+01 0.  1.
        -11    1    4    4    0    0  0.71082716342E+02 -0.10813254586E+02 -0.11878173947E+03  0.13884804885E+03  0.00000000000E+00 0. -1.
         11    1    4    4    0    0 -0.50440671217E+01  0.40827407599E+02 -0.35703831151E+02  0.54470940723E+02  0.00000000000E+00 0.  1.
</event>
<event>
 8    1  0.6648599E-009  0.2518788E+03  0.7561462E-02  0.1112123E+00
         -1   -1    0    0    0  501 -0.00000000000E+00  0.00000000000E+00  0.50926521193E+02  0.50926521193E+02  0.00000000000E+00 0.  1.
          1   -1    0    0  501    0  0.00000000000E+00 -0.00000000000E+00 -0.13675757657E+04  0.13675757657E+04  0.00000000000E+00 0. -1.
         25    2    1    2    0    0  0.23589545142E+03 -0.19547694415E+02 -0.56073815266E+03  0.62137136017E+03  0.12508523106E+03 0.  0.
         23    2    1    2    0    0 -0.23589545142E+03  0.19547694415E+02 -0.75591109183E+03  0.79713092670E+03  0.89372026951E+02 0.  0.
          5    1    3    3  502    0  0.18353224400E+03 -0.67795339140E+02 -0.43014856814E+03  0.47257333364E+03  0.41800000000E+01 0.  1.
         -5    1    3    3    0  502  0.52363207422E+02  0.48247644725E+02 -0.13058958452E+03  0.14879802652E+03  0.41800000000E+01 0.  1.
        -11    1    4    4    0    0 -0.12714337345E+03  0.12447304744E+02 -0.54445575560E+03  0.55924274033E+03  0.00000000000E+00 0. -1.
         11    1    4    4    0    0 -0.10875207797E+03  0.71003896707E+01 -0.21145533623E+03  0.23788818637E+03  0.00000000000E+00 0.  1.
</event>
<event>
 8    1  0.6648599E-009  0.9577890E+02  0.7561462E-02  0.1289431E+00
          1   -1    0    0  501    0  0.00000000000E+00  0.00000000000E+00  0.36862987367E+02  0.36862987367E+02  0.00000000000E+00 0. -1.
         -1   -1    0    0    0  501 -0.00000000000E+00 -0.00000000000E+00 -0.38365443802E+03  0.38365443802E+03  0.00000000000E+00 0.  1.
         25    2    1    2    0    0  0.19998188142E+02  0.36219742339E+02 -0.14693257798E+03  0.19735406294E+03  0.12509055290E+03 0.  0.
         23    2    1    2    0    0 -0.19998188142E+02 -0.36219742339E+02 -0.19985887268E+03  0.22316336244E+03  0.90258074906E+02 0.  0.
          5    1    3    3  502    0  0.32262445043E+02 -0.25678172479E+02 -0.12290321217E+03  0.12970314516E+03  0.41800000000E+01 0.  1.
         -5    1    3    3    0  502 -0.12264256901E+02  0.61897914818E+02 -0.24029365806E+02  0.67650917786E+02  0.41800000000E+01 0.  1.
        -11    1    4    4    0    0  0.21793436940E+02  0.10498437542E+02 -0.11583691134E+03  0.11833579810E+03  0.00000000000E+00 0.  1.
         11    1    4    4    0    0 -0.41791625082E+02 -0.46718179881E+02 -0.84021961337E+02  0.10482756434E+03  0.00000000000E+00 0. -1.
</event>
<event>
 8    1  0.6648599E-009  0.9322751E+02  0.7561462E-02  0.1295219E+00
         -1   -1    0    0    0  501 -0.00000000000E+00  0.00000000000E+00  0.19267036141E+02  0.19267036141E+02  0.00000000000E+00 0.  1.
          1   -1    0    0  501    0  0.00000000000E+00 -0.00000000000E+00 -0.67577502772E+03  0.67577502772E+03  0.00000000000E+00 0. -1.
         25    2    1    2    0    0 -0.44162903892E+01  0.79283446147E+01 -0.45909256399E+03  0.47591634677E+03  0.12509206426E+03 0.  0.
         23    2    1    2    0    0  0.44162903892E+01 -0.79283446147E+01 -0.19741542759E+03  0.21912571710E+03  0.94661853838E+02 0.  0.
          5    1    3    3  502    0 -0.62753960564E+01 -0.52379163552E+02 -0.11556130715E+03  0.12710171313E+03  0.41800000000E+01 0. -1.
         -5    1    3    3    0  502  0.18591056672E+01  0.60307508166E+02 -0.34353125684E+03  0.34881463364E+03  0.41800000000E+01 0. -1.
        -11    1    4    4    0    0 -0.68842444440E+01  0.31394667240E+02 -0.21870713054E+02  0.38876034291E+02  0.00000000000E+00 0.  1.
         11    1    4    4    0    0  0.11300534833E+02 -0.39323011855E+02 -0.17554471454E+03  0.18024968280E+03  0.00000000000E+00 0. -1.
</event>
<event>
 8    1  0.6648599E-009  0.8621072E+02  0.7561462E-02  0.1312296E+00
          2   -1    0    0  501    0  0.00000000000E+00  0.00000000000E+00  0.29013944986E+02  0.29013944986E+02  0.00000000000E+00 0.  1.
         -2   -1    0    0    0  501 -0.00000000000E+00 -0.00000000000E+00 -0.42169954872E+03  0.42169954872E+03  0.00000000000E+00 0. -1.
         25    2    1    2    0    0  0.88557061523E+01  0.92255360329E+01 -0.27030293399E+03  0.29811652639E+03  0.12508498365E+03 0.  0.
         23    2    1    2    0    0 -0.88557061523E+01 -0.92255360329E+01 -0.12238266975E+03  0.15259696732E+03  0.90248448933E+02 0.  0.
          5    1    3    3  502    0  0.52281719644E+02 -0.12332138449E+02 -0.53534457019E+02  0.75953079832E+02  0.41800000000E+01 0.  1.
         -5    1    3    3    0  502 -0.43426013492E+02  0.21557674482E+02 -0.21676847697E+03  0.22216344655E+03  0.41800000000E+01 0.  1.
        -11    1    4    4    0    0  0.25029867643E+02 -0.22335968531E+02 -0.10872277144E+03  0.11378062574E+03  0.00000000000E+00 0. -1.
         11    1    4    4    0    0 -0.33885573795E+02  0.13110432498E+02 -0.13659898301E+02  0.38816341575E+02  0.00000000000E+00 0.  1.
</event>
<event>
 8    1  0.6648599E-009  0.1266651E+03  0.7561462E-02  0.1232490E+00
          1   -1    0    0  501    0  0.00000000000E+00  0.00000000000E+00  0.25616045483E+02  0.25616045483E+02  0.00000000000E+00 0. -1.
         -1   -1    0    0    0  501 -0.00000000000E+00 -0.00000000000E+00 -0.92598890937E+03  0.92598890937E+03  0.00000000000E+00 0.  1.
         25    2    1    2    0    0 -0.56149852209E+02 -0.66196998839E+02 -0.62829277565E+03  0.64647878095E+03  0.12509258062E+03 0.  0.
         23    2    1    2    0    0  0.56149852209E+02  0.66196998839E+02 -0.27208008824E+03  0.30512617390E+03  0.10742233952E+03 0.  0.
          5    1    3    3  502    0  0.14804661583E+02  0.33896731702E+01 -0.35992906155E+03  0.36027360386E+03  0.41800000000E+01 0.  1.
         -5    1    3    3    0  502 -0.70954513792E+02 -0.69586672009E+02 -0.26836371410E+03  0.28620517709E+03  0.41800000000E+01 0.  1.
        -11    1    4    4    0    0  0.40406162780E+02  0.96135484804E+02 -0.20625444078E+03  0.23111811649E+03  0.00000000000E+00 0.  1.
         11    1    4    4    0    0  0.15743689428E+02 -0.29938485965E+02 -0.65825647461E+02  0.74008057415E+02  0.00000000000E+00 0. -1.
</event>
<event>
 8    1  0.6648599E-009  0.1266826E+03  0.7561462E-02  0.1232463E+00
          1   -1    0    0  501    0  0.00000000000E+00  0.00000000000E+00  0.29740343839E+02  0.29740343839E+02  0.00000000000E+00 0. -1.
         -1   -1    0    0    0  501 -0.00000000000E+00 -0.00000000000E+00 -0.59544995469E+03  0.59544995469E+03  0.00000000000E+00 0.  1.
         25    2    1    2    0    0  0.96384025759E+00  0.70106524095E+02 -0.38134310651E+03  0.40740627856E+03  0.12506581155E+03 0.  0.
         23    2    1    2    0    0 -0.96384025759E+00 -0.70106524095E+02 -0.18436650434E+03  0.21778401997E+03  0.92320191302E+02 0.  0.
          5    1    3    3  502    0  0.61070554771E+02  0.40663437392E+02 -0.15883003753E+03  0.17500737420E+03  0.41800000000E+01 0.  1.
         -5    1    3    3    0  502 -0.60106714513E+02  0.29443086703E+02 -0.22251306897E+03  0.23239890436E+03  0.41800000000E+01 0.  1.
        -11    1    4    4    0    0  0.42342800718E+02 -0.20751963823E+02 -0.10259740445E+03  0.11291494221E+03  0.00000000000E+00 0.  1.
         11    1    4    4    0    0 -0.43306640976E+02 -0.49354560273E+02 -0.81769099895E+02  0.10486907776E+03  0.00000000000E+00 0. -1.
</event>
<event>
 8    1  0.6648599E-009  0.1135042E+03  0.7561462E-02  0.1254215E+00
         -1   -1    0    0    0  501 -0.00000000000E+00  0.00000000000E+00  0.14738155665E+02  0.14738155665E+02  0.00000000000E+00 0.  1.
          1   -1    0    0  501    0  0.00000000000E+00 -0.00000000000E+00 -0.10035328641E+04  0.10035328641E+04  0.00000000000E+00 0. -1.
         25    2    1    2    0    0 -0.29590380962E+02  0.22385405488E+02 -0.62249331280E+03  0.63602020086E+03  0.12508826641E+03 0.  0.
         23    2    1    2    0    0  0.29590380962E+02 -0.22385405488E+02 -0.36630139568E+03  0.38225081895E+03  0.10277294920E+03 0.  0.
          5    1    3    3  502    0 -0.11510700536E+02  0.71972600958E+02 -0.43945887249E+03  0.44548190146E+03  0.41800000000E+01 0.  1.
         -5    1    3    3    0  502 -0.18079680427E+02 -0.49587195469E+02 -0.18303444031E+03  0.19053829940E+03  0.41800000000E+01 0.  1.
        -11    1    4    4    0    0 -0.22875786996E+02 -0.39689164048E+02 -0.24093571264E+03  0.24525201120E+03  0.00000000000E+00 0. -1.
         11    1    4    4    0    0  0.52466167958E+02  0.17303758559E+02 -0.12536568303E+03  0.13699880774E+03  0.00000000000E+00 0.  1.
</event>
<event>
 8    1  0.6648599E-009  0.1334430E+03  0.7561462E-02  0.1222435E+00
         -2   -1    0    0    0  501 -0.00000000000E+00  0.00000000000E+00  0.52710697236E+02  0.52710697236E+02  0.00000000000E+00 0.  1.
          2   -1    0    0  501    0  0.00000000000E+00 -0.00000000000E+00 -0.42162046870E+03  0.42162046870E+03  0.00000000000E+00 0. -1.
         25    2    1    2    0    0  0.83964339816E+02  0.54792600910E+02 -0.22960227158E+03  0.28003043494E+03  0.12509037494E+03 0.  0.
         23    2    1    2    0    0 -0.83964339816E+02 -0.54792600910E+02 -0.13930749989E+03  0.19430073100E+03  0.91071153867E+02 0.  0.
          5    1    3    3  502    0 -0.21022017959E+02 -0.19749523749E+02 -0.25791035679E+02  0.38918104383E+02  0.41800000000E+01 0. -1.
         -5    1    3    3    0  502  0.10498635777E+03  0.74542124659E+02 -0.20381123590E+03  0.24111233055E+03  0.41800000000E+01 0. -1.
        -11    1    4    4    0    0  0.25113666073E+01 -0.12317318991E+02  0.10370240402E+02  0.16296171187E+02  0.00000000000E+00 0.  1.
         11    1    4    4    0    0 -0.86475706423E+02 -0.42475281919E+02 -0.14967774029E+03  0.17800455981E+03  0.00000000000E+00 0. -1.
</event>
<event>
 8    1  0.6648599E-009  0.2062164E+03  0.7561462E-02  0.1144598E+00
         -1   -1    0    0    0  501 -0.00000000000E+00  0.00000000000E+00  0.27832077696E+02  0.27832077696E+02  0.00000000000E+00 0.  1.
          1   -1    0    0  501    0  0.00000000000E+00 -0.00000000000E+00 -0.19111823536E+04  0.19111823536E+04  0.00000000000E+00 0. -1.
         25    2    1    2    0    0 -0.15809260418E+03  0.92351860781E+02 -0.13435760928E+04  0.13617512763E+04  0.12509070229E+03 0.  0.
         23    2    1    2    0    0  0.15809260418E+03 -0.92351860781E+02 -0.53977418317E+03  0.57726315502E+03  0.91402645656E+02 0.  0.
          5    1    3    3  502    0  0.96558557611E+01  0.26219920620E+02 -0.40617982820E+03  0.40716120275E+03  0.41800000000E+01 0. -1.
         -5    1    3    3    0  502 -0.16774845995E+03  0.66131940161E+02 -0.93739626455E+03  0.95459007355E+03  0.41800000000E+01 0. -1.
        -11    1    4    4    0    0  0.69267436728E+01  0.16263806739E+02 -0.63245246272E+02  0.65669264984E+02  0.00000000000E+00 0. -1.
         11    1    4    4    0    0  0.15116586051E+03 -0.10861566752E+03 -0.47652893690E+03  0.51159389003E+03  0.00000000000E+00 0.  1.
</event>
<event>
 8    1  0.6648599E-009  0.1302903E+03  0.7561462E-02  0.1227026E+00
         -2   -1    0    0    0  501 -0.00000000000E+00  0.00000000000E+00  0.37370049003E+03  0.37370049003E+03  0.00000000000E+00 0.  1.
          2   -1    0    0  501    0  0.00000000000E+00 -0.00000000000E+00 -0.93857462734E+02  0.93857462734E+02  0.00000000000E+00 0. -1.
         25    2    1    2    0    0 -0.18830574828E+02 -0.82336237960E+02  0.30510070458E+03  0.34038449354E+03  0.12506525047E+03 0.  0.
         23    2    1    2    0    0  0.18830574828E+02  0.82336237960E+02 -0.25257677283E+02  0.12717345923E+03  0.91658561199E+02 0.  0.
          5    1    3    3  502    0 -0.15499376908E+02  0.27227726109E+02  0.27498755401E+02  0.41895509332E+02  0.41800000000E+01 0. -1.
         -5    1    3    3    0  502 -0.33311979205E+01 -0.10956396407E+03  0.27760194918E+03  0.29848898420E+03  0.41800000000E+01 0. -1.
        -11    1    4    4    0    0  0.12948923712E+02  0.99910560378E+02 -0.67342390133E+01  0.10097100908E+03  0.00000000000E+00 0.  1.
         11    1    4    4    0    0  0.58816511162E+01 -0.17574322419E+02 -0.18523438270E+02  0.26202450146E+02  0.00000000000E+00 0. -1.
</event>
<event>
 8    1  0.6648599E-009  0.9471625E+02  0.7561462E-02  0.1291816E+00
          2   -1    0    0  501    0  0.00000000000E+00  0.00000000000E+00  0.10659652302E+03  0.10659652302E+03  0.00000000000E+00 0. -1.
         -2   -1    0    0    0  501 -0.00000000000E+00 -0.00000000000E+00 -0.22305595334E+03  0.22305595334E+03  0.00000000000E+00 0.  1.
         25    2    1    2    0    0  0.78462546154E+01 -0.53254058860E+01  0.54009806781E+02  0.13658183215E+03  0.12509042324E+03 0.  0.
         23    2    1    2    0    0 -0.78462546154E+01  0.53254058860E+01 -0.17046923710E+03  0.19307064421E+03  0.90147596733E+02 0.  0.
          5    1    3    3  502    0 -0.42114610122E+02  0.14701303485E+02 -0.16529112354E+02  0.47754085323E+02  0.41800000000E+01 0. -1.
         -5    1    3    3    0  502  0.49960864737E+02 -0.20026709371E+02  0.70538919134E+02  0.88827746826E+02  0.41800000000E+01 0. -1.
        -11    1    4    4    0    0  0.41710248074E+00 -0.42301974901E+02 -0.78914056839E+02  0.89538033381E+02  0.00000000000E+00 0.  1.
         11    1    4    4    0    0 -0.82633570961E+01  0.47627380787E+02 -0.91555180266E+02  0.10353261083E+03  0.00000000000E+00 0. -1.
</event>
<event>
 8    1  0.6648599E-009  0.1540385E+03  0.7561462E-02  0.1195597E+00
          1   -1    0    0  501    0  0.00000000000E+00  0.00000000000E+00  0.50524942133E+03  0.50524942133E+03  0.00000000000E+00 0. -1.
         -1   -1    0    0    0  501 -0.00000000000E+00 -0.00000000000E+00 -0.66204111934E+02  0.66204111934E+02  0.00000000000E+00 0.  1.
         25    2    1    2    0    0  0.11962118817E+03 -0.60089787217E+02  0.32392728030E+03  0.37215142403E+03  0.12509111998E+03 0.  0.
         23    2    1    2    0    0 -0.11962118817E+03  0.60089787217E+02  0.11511802910E+03  0.19930210924E+03  0.92461661981E+02 0.  0.
          5    1    3    3  502    0  0.17927846807E+02  0.10943935501E+02 -0.37623678301E+01  0.21744084875E+02  0.41800000000E+01 0. -1.
         -5    1    3    3    0  502  0.10169334136E+03 -0.71033722718E+02  0.32768964813E+03  0.35040733915E+03  0.41800000000E+01 0. -1.
        -11    1    4    4    0    0  0.12774165129E+02  0.20858415589E+02  0.14347619895E+02  0.28356780358E+02  0.00000000000E+00 0.  1.
         11    1    4    4    0    0 -0.13239535330E+03  0.39231371629E+02  0.10077040920E+03  0.17094532888E+03  0.00000000000E+00 0. -1.
</event>
<event>
 8    1  0.6648599E-009  0.2177287E+03  0.7561462E-02  0.1135588E+00
          1   -1    0    0  501    0  0.00000000000E+00  0.00000000000E+00  0.15465535993E+03  0.15465535993E+03  0.00000000000E+00 0. -1.
         -1   -1    0    0    0  501 -0.00000000000E+00 -0.00000000000E+00 -0.37550144443E+03  0.37550144443E+03  0.00000000000E+00 0.  1.
         25    2    1    2    0    0 -0.16355790867E+03  0.13710477739E+03 -0.13899649290E+03  0.28375454120E+03  0.12509078758E+03 0.  0.
         23    2    1    2    0    0  0.16355790867E+03 -0.13710477739E+03 -0.81849591599E+02  0.24640226315E+03  0.92009837348E+02 0.  0.
          5    1    3    3  502    0 -0.10183774947E+02 -0.56892723105E+01  0.18017880060E+02  0.21867635754E+02  0.41800000000E+01 0.  1.
         -5    1    3    3    0  502 -0.15337413372E+03  0.14279404970E+03 -0.15701437296E+03  0.26188690544E+03  0.41800000000E+01 0.  1.
        -11    1    4    4    0    0  0.82711233209E+02 -0.72231256863E+02 -0.90620700741E+02  0.14237490639E+03  0.00000000000E+00 0.  1.
         11    1    4    4    0    0  0.80846675462E+02 -0.64873520531E+02  0.87711091423E+01  0.10402735676E+03  0.00000000000E+00 0. -1.
</event>
<event>
 8    1  0.6648599E-009  0.1130396E+03  0.7561462E-02  0.1255042E+00
          2   -1    0    0  501    0  0.00000000000E+00  0.00000000000E+00  0.85270174709E+03  0.85270174709E+03  0.00000000000E+00 0. -1.
         -2   -1    0    0    0  501 -0.00000000000E+00 -0.00000000000E+00 -0.21138974099E+02  0.21138974099E+02  0.00000000000E+00 0.  1.
         25    2    1    2    0    0  0.25184215947E+02 -0.29932804072E+02  0.68311346931E+03  0.69557284029E+03  0.12508935487E+03 0.  0.
         23    2    1    2    0    0 -0.25184215947E+02  0.29932804072E+02  0.14844930368E+03  0.17826788090E+03  0.90620219073E+02 0.  0.
          5    1    3    3  502    0  0.49798648537E+01  0.47509701055E+02  0.33089088456E+03  0.33434745495E+03  0.41800000000E+01 0.  1.
         -5    1    3    3    0  502  0.20204351093E+02 -0.77442505127E+02  0.35222258474E+03  0.36122538533E+03  0.41800000000E+01 0.  1.
        -11    1    4    4    0    0  0.28607912036E+02  0.33523882650E+02  0.77569931964E+02  0.89215232353E+02  0.00000000000E+00 0.  1.
         11    1    4    4    0    0 -0.53792127983E+02 -0.35910785778E+01  0.70879371716E+02  0.89052648546E+02  0.00000000000E+00 0. -1.
</event>
<event>
 8    1  0.6648599E-009  0.1558015E+03  0.7561462E-02  0.1193520E+00
         -1   -1    0    0    0  501 -0.00000000000E+00  0.00000000000E+00  0.37422218462E+03  0.37422218462E+03  0.00000000000E+00 0.  1.
          1   -1    0    0  501    0  0.00000000000E+00 -0.00000000000E+00 -0.72134252750E+02  0.72134252750E+02  0.00000000000E+00 0. -1.
         25    2    1    2    0    0 -0.43995569633E+02  0.11416661514E+03  0.13493815310E+03  0.22097724074E+03  0.12511198826E+03 0.  0.
         23    2    1    2    0    0  0.43995569633E+02 -0.11416661514E+03  0.16714977877E+03  0.22537919663E+03  0.88809388965E+02 0.  0.
          5    1    3    3  502    0 -0.68824514256E+02  0.32449407332E+02  0.10631468786E+03  0.13080543969E+03  0.41800000000E+01 0. -1.
         -5    1    3    3    0  502  0.24828944622E+02  0.81717207804E+02  0.28623465234E+02  0.90171801048E+02  0.41800000000E+01 0. -1.
        -11    1    4    4    0    0  0.22721921383E+02  0.93381371400E+01  0.39325682715E+02  0.46368047593E+02  0.00000000000E+00 0.  1.
         11    1    4    4    0    0  0.21273648250E+02 -0.12350475228E+03  0.12782409606E+03  0.17901114903E+03  0.00000000000E+00 0. -1.
</event>
<event>
 8    1  0.6648599E-009  0.9626258E+02  0.7561462E-02  0.1288357E+00
          4   -1    0    0  501    0  0.00000000000E+00  0.00000000000E+00  0.65586228229E+02  0.65586228229E+02  0.00000000000E+00 0. -1.
         -4   -1    0    0    0  501 -0.00000000000E+00 -0.00000000000E+00 -0.20248951353E+03  0.20248951353E+03  0.00000000000E+00 0.  1.
         25    2    1    2    0    0  0.31647043326E+01  0.35588300607E+02 -0.70424577558E+02  0.14794859143E+03  0.12511043956E+03 0.  0.
         23    2    1    2    0    0 -0.31647043326E+01 -0.35588300607E+02 -0.66478707744E+02  0.12012715033E+03  0.93458927715E+02 0.  0.
          5    1    3    3  502    0  0.55231573094E+02  0.20479772928E+02 -0.72531786141E+02  0.93532241320E+02  0.41800000000E+01 0.  1.
         -5    1    3    3    0  502 -0.52066868761E+02  0.15108527679E+02  0.21072085824E+01  0.54416350110E+02  0.41800000000E+01 0.  1.
        -11    1    4    4    0    0  0.33694373991E+02 -0.15081374977E+02 -0.68591595497E+02  0.77894580573E+02  0.00000000000E+00 0.  1.
         11    1    4    4    0    0 -0.36859078324E+02 -0.20506925630E+02  0.21128877530E+01  0.42232569757E+02  0.00000000000E+00 0. -1.
</event>
<event>
 8    1  0.6648599E-009  0.2135535E+03  0.7561462E-02  0.1138783E+00
          2   -1    0    0  501    0  0.00000000000E+00  0.00000000000E+00  0.44686415533E+03  0.44686415533E+03  0.00000000000E+00 0. -1.
         -2   -1    0    0    0  501 -0.00000000000E+00 -0.00000000000E+00 -0.13348068969E+03  0.13348068969E+03  0.00000000000E+00 0.  1.
         25    2    1    2    0    0  0.64401707702E+02  0.19534012812E+03  0.24158605487E+03  0.34105164239E+03  0.12508818993E+03 0.  0.
         23    2    1    2    0    0 -0.64401707702E+02 -0.19534012812E+03  0.71797410765E+02  0.23929320263E+03  0.99000116272E+02 0.  0.
          5    1    3    3  502    0  0.12671272508E+01  0.99783311132E+02  0.36923393708E+02  0.10648532385E+03  0.41800000000E+01 0. -1.
         -5    1    3    3    0  502  0.63134580452E+02  0.95556816989E+02  0.20466266116E+03  0.23456631854E+03  0.41800000000E+01 0. -1.
        -11    1    4    4    0    0 -0.23123332189E+02 -0.14871375065E+02 -0.18678934690E+02  0.33237762996E+02  0.00000000000E+00 0.  1.
         11    1    4    4    0    0 -0.41278375514E+02 -0.18046875306E+03  0.90476345455E+02  0.20605543963E+03  0.00000000000E+00 0. -1.
</event>
<event>
 8    1  0.6648599E-009  0.1215219E+03  0.7561462E-02  0.1240607E+00
          1   -1    0    0  501    0  0.00000000000E+00  0.00000000000E+00  0.27483364806E+03  0.27483364806E+03  0.00000000000E+00 0. -1.
         -1   -1    0    0    0  501 -0.00000000000E+00 -0.00000000000E+00 -0.12121895942E+03  0.12121895942E+03  0.00000000000E+00 0.  1.
         25    2    1    2    0    0 -0.60461235127E+02 -0.85918723178E+02 -0.29351795523E+02  0.16597038703E+03  0.12508818299E+03 0.  0.
         23    2    1    2    0    0  0.60461235127E+02  0.85918723178E+02  0.18296648417E+03  0.23008222046E+03  0.91779659495E+02 0.  0.
          5    1    3    3  502    0 -0.62658832973E+02 -0.59778910588E+02  0.37176140862E+02  0.94335493586E+02  0.41800000000E+01 0.  1.
         -5    1    3    3    0  502  0.21975978457E+01 -0.26139812590E+02 -0.66527936385E+02  0.71634893440E+02  0.41800000000E+01 0.  1.
        -11    1    4    4    0    0  0.10018637605E+02  0.78093473647E+02  0.14973259688E+03  0.16917096174E+03  0.00000000000E+00 0. -1.
         11    1    4    4    0    0  0.50442597522E+02  0.78252495313E+01  0.33233887283E+02  0.60911258721E+02  0.00000000000E+00 0.  1.
</event>
<event>
 8    1  0.6648599E-009  0.8532393E+02  0.7561462E-02  0.1314588E+00
          4   -1    0    0  501    0  0.00000000000E+00  0.00000000000E+00  0.49556156886E+02  0.49556156886E+02  0.00000000000E+00 0. -1.
         -4   -1    0    0    0  501 -0.00000000000E+00 -0.00000000000E+00 -0.35311253661E+03  0.35311253661E+03  0.00000000000E+00 0.  1.
         25    2    1    2    0    0  0.57904712229E+02 -0.18765216641E+02 -0.24623780971E+03  0.28282311776E+03  0.12510302937E+03 0.  0.
         23    2    1    2    0    0 -0.57904712229E+02  0.18765216641E+02 -0.57318570017E+02  0.11984557573E+03  0.85862998434E+02 0.  0.
          5    1    3    3  502    0  0.16315254685E+02 -0.47373486783E+02 -0.25551120416E+02  0.56398288449E+02  0.41800000000E+01 0. -1.
         -5    1    3    3    0  502  0.41589457544E+02  0.28608270143E+02 -0.22068668929E+03  0.22642482931E+03  0.41800000000E+01 0. -1.
        -11    1    4    4    0    0 -0.21147832744E+02 -0.96625039839E+01 -0.68256918279E+02  0.72108263784E+02  0.00000000000E+00 0.  1.
         11    1    4    4    0    0 -0.36756879485E+02  0.28427720625E+02  0.10938348262E+02  0.47737311949E+02  0.00000000000E+00 0. -1.
</event>
<event>
 8    1  0.6648599E-009  0.1310550E+03  0.7561462E-02  0.1225899E+00
          1   -1    0    0  501    0  0.00000000000E+00  0.00000000000E+00  0.20851457799E+03  0.20851457799E+03  0.00000000000E+00 0. -1.
         -1   -1    0    0    0  501 -0.00000000000E+00 -0.00000000000E+00 -0.10200148524E+03  0.10200148524E+03  0.00000000000E+00 0.  1.
         25    2    1    2    0    0  0.65938974981E+02  0.68842368828E+02  0.70321584024E+02  0.17228121888E+03  0.12509385689E+03 0.  0.
         23    2    1    2    0    0 -0.65938974981E+02 -0.68842368828E+02  0.36191508730E+02  0.13823484435E+03  0.93337166882E+02 0.  0.
          5    1    3    3  502    0  0.65174735651E+02  0.89381159553E+02  0.13263613814E+02  0.11149050947E+03  0.41800000000E+01 0. -1.
         -5    1    3    3    0  502  0.76423932998E+00 -0.20538790725E+02  0.57057970210E+02  0.60790709411E+02  0.41800000000E+01 0. -1.
        -11    1    4    4    0    0 -0.66304321431E+02 -0.48902793965E+01  0.32944903667E+02  0.74199356807E+02  0.00000000000E+00 0. -1.
         11    1    4    4    0    0  0.36534644936E+00 -0.63952089432E+02  0.32466050629E+01  0.64035487545E+02  0.00000000000E+00 0.  1.
</event>
<event>
 8    1  0.6648599E-009  0.9679137E+02  0.7561462E-02  0.1287192E+00
         -2   -1    0    0    0  501 -0.00000000000E+00  0.00000000000E+00  0.10838734476E+03  0.10838734476E+03  0.00000000000E+00 0.  1.
          2   -1    0    0  501    0  0.00000000000E+00 -0.00000000000E+00 -0.12894065884E+03  0.12894065884E+03  0.00000000000E+00 0. -1.
         25    2    1    2    0    0 -0.23783476089E+01  0.44902895568E+02 -0.22713390293E+02  0.13485666220E+03  0.12509394339E+03 0.  0.
         23    2    1    2    0    0  0.23783476089E+01 -0.44902895568E+02  0.21600762149E+01  0.10247134140E+03  0.92053154814E+02 0.  0.
          5    1    3    3  502    0 -0.49599333982E+02  0.50512501593E+02 -0.43059642747E+02  0.82965125096E+02  0.41800000000E+01 0.  1.
         -5    1    3    3    0  502  0.47220986373E+02 -0.56096060258E+01  0.20346252454E+02  0.51891537101E+02  0.41800000000E+01 0.  1.
        -11    1    4    4    0    0  0.10129759277E+02  0.13017003232E+02  0.32634711340E+02  0.36566087847E+02  0.00000000000E+00 0.  1.
         11    1    4    4    0    0 -0.77514116685E+01 -0.57919898799E+02 -0.30474635125E+02  0.65905253552E+02  0.00000000000E+00 0. -1.
</event>
<event>
 8    1  0.6648599E-009  0.1266210E+03  0.7561462E-02  0.1232557E+00
          1   -1    0    0  501    0  0.00000000000E+00  0.00000000000E+00  0.20176632288E+03  0.20176632288E+03  0.00000000000E+00 0. -1.
         -1   -1    0    0    0  501 -0.00000000000E+00 -0.00000000000E+00 -0.12601006910E+03  0.12601006910E+03  0.00000000000E+00 0.  1.
         25    2    1    2    0    0 -0.93085536781E+01 -0.11624149134E+03  0.41955875761E+02  0.17608925565E+03  0.12509355284E+03 0.  0.
         23    2    1    2    0    0  0.93085536781E+01  0.11624149134E+03  0.33800378022E+02  0.15168713633E+03  0.90927379215E+02 0.  0.
          5    1    3    3  502    0 -0.26738158050E+02 -0.30141218615E+02  0.72450856419E+02  0.83006151286E+02  0.41800000000E+01 0.  1.
         -5    1    3    3    0  502  0.17429604372E+02 -0.86100272729E+02 -0.30494980658E+02  0.93083104363E+02  0.41800000000E+01 0.  1.
        -11    1    4    4    0    0 -0.16845707595E+02  0.66370098371E+02 -0.22481044286E+02  0.72070556917E+02  0.00000000000E+00 0.  1.
         11    1    4    4    0    0  0.26154261273E+02  0.49871392973E+02  0.56281422308E+02  0.79616579409E+02  0.00000000000E+00 0. -1.
</event>
<event>
 8    1  0.6648599E-009  0.8512885E+02  0.7561462E-02  0.1315096E+00
         -1   -1    0    0    0  501 -0.00000000000E+00  0.00000000000E+00  0.26953445534E+03  0.26953445534E+03  0.00000000000E+00 0.  1.
          1   -1    0    0  501    0  0.00000000000E+00 -0.00000000000E+00 -0.53272639760E+02  0.53272639760E+02  0.00000000000E+00 0. -1.
         25    2    1    2    0    0 -0.15476052483E+02 -0.45206468109E+02  0.10969606850E+03  0.17310398852E+03  0.12509448605E+03 0.  0.
         23    2    1    2    0    0  0.15476052483E+02  0.45206468109E+02  0.10656574708E+03  0.14970310658E+03  0.93656973623E+02 0.  0.
          5    1    3    3  502    0  0.36360833241E+02 -0.32656493126E+02  0.10908123597E+03  0.11960244637E+03  0.41800000000E+01 0.  1.
         -5    1    3    3    0  502 -0.51836885724E+02 -0.12549974983E+02  0.61483252857E+00  0.53501542152E+02  0.41800000000E+01 0.  1.
        -11    1    4    4    0    0 -0.14801963763E+02  0.19817764742E+01 -0.12494018308E+02  0.19471159768E+02  0.00000000000E+00 0. -1.
         11    1    4    4    0    0  0.30278016246E+02  0.43224691635E+02  0.11905976539E+03  0.13023194681E+03  0.00000000000E+00 0.  1.
</event>
<event>
 8    1  0.6648599E-009  0.1292167E+03  0.7561462E-02  0.1228623E+00
          2   -1    0    0  501    0  0.00000000000E+00  0.00000000000E+00  0.12168275520E+03  0.12168275520E+03  0.00000000000E+00 0. -1.
         -2   -1    0    0    0  501 -0.00000000000E+00 -0.00000000000E+00 -0.14114644797E+03  0.14114644797E+03  0.00000000000E+00 0.  1.
         25    2    1    2    0    0  0.44909685122E+02  0.58083668969E+02 -0.11799999702E+02  0.14552458740E+03  0.12509025992E+03 0.  0.
         23    2    1    2    0    0 -0.44909685122E+02 -0.58083668969E+02 -0.76636930670E+01  0.11730461577E+03  0.91164950891E+02 0.  0.
          5    1    3    3  502    0  0.72005034704E+02  0.81586186008E+02 -0.74247707864E+01  0.10914957806E+03  0.41800000000E+01 0.  1.
         -5    1    3    3    0  502 -0.27095349581E+02 -0.23502517040E+02 -0.43752289155E+01  0.36375009336E+02  0.41800000000E+01 0.  1.
        -11    1    4    4    0    0  0.22633207512E+02 -0.35701000991E+02 -0.16957346088E+02  0.45545308655E+02  0.00000000000E+00 0.  1.
         11    1    4    4    0    0 -0.67542892634E+02 -0.22382667977E+02  0.92936530212E+01  0.71759307115E+02  0.00000000000E+00 0. -1.
</event>
<event>
 8    1  0.6648599E-009  0.9746925E+02  0.7561462E-02  0.1285710E+00
         -1   -1    0    0    0  501 -0.00000000000E+00  0.00000000000E+00  0.39216541680E+02  0.39216541680E+02  0.00000000000E+00 0.  1.
          1   -1    0    0  501    0  0.00000000000E+00 -0.00000000000E+00 -0.44795743409E+03  0.44795743409E+03  0.00000000000E+00 0. -1.
         25    2    1    2    0    0  0.47823150143E+02  0.39423104973E+02 -0.13617251318E+03  0.19501704259E+03  0.12508980238E+03 0.  0.
         23    2    1    2    0    0 -0.47823150143E+02 -0.39423104973E+02 -0.27256837923E+03  0.29215693318E+03  0.84975981049E+02 0.  0.
          5    1    3    3  502    0  0.59305564275E+02  0.47910428767E+02 -0.21417488256E+02  0.79301578432E+02  0.41800000000E+01 0.  1.
         -5    1    3    3    0  502 -0.11482414131E+02 -0.84873237945E+01 -0.11475502492E+03  0.11571546415E+03  0.41800000000E+01 0.  1.
        -11    1    4    4    0    0 -0.53706817702E+02  0.94054462077E+01 -0.16742297925E+03  0.17607764954E+03  0.00000000000E+00 0.  1.
         11    1    4    4    0    0  0.58836675589E+01 -0.48828551181E+02 -0.10514539998E+03  0.11607928364E+03  0.00000000000E+00 0. -1.
</event>
<event>
 8    1  0.6648599E-009  0.1079622E+03  0.7561462E-02  0.1264391E+00
          2   -1    0    0  501    0  0.00000000000E+00  0.00000000000E+00  0.65919033800E+03  0.65919033800E+03  0.00000000000E+00 0. -1.
         -2   -1    0    0    0  501 -0.00000000000E+00 -0.00000000000E+00 -0.29773830282E+02  0.29773830282E+02  0.00000000000E+00 0.  1.
         25    2    1    2    0    0  0.19049866708E+00 -0.83769299281E+02  0.41487246924E+03  0.44133497281E+03  0.12506022830E+03 0.  0.
         23    2    1    2    0    0 -0.19049866708E+00  0.83769299281E+02  0.21454403847E+03  0.24762919547E+03  0.90960113292E+02 0.  0.
          5    1    3    3  502    0  0.15817175885E+02 -0.14985182961E+02  0.17958989051E+01  0.22258400981E+02  0.41800000000E+01 0.  1.
         -5    1    3    3    0  502 -0.15626677218E+02 -0.68784116320E+02  0.41307657034E+03  0.41907657183E+03  0.41800000000E+01 0.  1.
        -11    1    4    4    0    0 -0.59404830643E+01 -0.19123319188E+02  0.44452589559E+02  0.48754726892E+02  0.00000000000E+00 0. -1.
         11    1    4    4    0    0  0.57499843972E+01  0.10289261847E+03  0.17009144892E+03  0.19887446857E+03  0.00000000000E+00 0.  1.
</event>
<event>
 8    1  0.6648599E-009  0.2504238E+03  0.7561462E-02  0.1113037E+00
         -1   -1    0    0    0  501 -0.00000000000E+00  0.00000000000E+00  0.18357780623E+03  0.18357780623E+03  0.00000000000E+00 0.  1.
          1   -1    0    0  501    0  0.00000000000E+00 -0.00000000000E+00 -0.41994632531E+03  0.41994632531E+03  0.00000000000E+00 0. -1.
         25    2    1    2    0    0  0.16021703758E+03  0.17272368442E+03 -0.22754789321E+03  0.35061158525E+03  0.12508984657E+03 0.  0.
         23    2    1    2    0    0 -0.16021703758E+03 -0.17272368442E+03 -0.88206258766E+01  0.25291254629E+03  0.91564088685E+02 0.  0.
          5    1    3    3  502    0  0.38119867286E+02  0.13025031314E+03 -0.97212341399E+02  0.16699095807E+03  0.41800000000E+01 0. -1.
         -5    1    3    3    0  502  0.12209717030E+03  0.42473371281E+02 -0.13033555181E+03  0.18362062718E+03  0.41800000000E+01 0. -1.
        -11    1    4    4    0    0 -0.91244805406E+02 -0.10419214971E+03 -0.50102220858E+02  0.14728153689E+03  0.00000000000E+00 0. -1.
         11    1    4    4    0    0 -0.68972232175E+02 -0.68531534716E+02  0.41281594982E+02  0.10563100940E+03  0.00000000000E+00 0.  1.
</event>
<event>
 8    1  0.6648599E-009  0.2127290E+03  0.7561462E-02  0.1139423E+00
         -2   -1    0    0    0  501 -0.00000000000E+00  0.00000000000E+00  0.21112817308E+03  0.21112817308E+03  0.00000000000E+00 0.  1.
          2   -1    0    0  501    0  0.00000000000E+00 -0.00000000000E+00 -0.25386006996E+03  0.25386006996E+03  0.00000000000E+00 0. -1.
         25    2    1    2    0    0  0.18359940884E+03  0.85105374083E+02 -0.49279461279E+02  0.24294816935E+03  0.12507469794E+03 0.  0.
         23    2    1    2    0    0 -0.18359940884E+03 -0.85105374083E+02  0.65475644033E+01  0.22204007369E+03  0.91144150134E+02 0.  0.
          5    1    3    3  502    0  0.46334399495E+02  0.32559867390E+02  0.41330774883E+02  0.70233374498E+02  0.41800000000E+01 0. -1.
         -5    1    3    3    0  502  0.13726500934E+03  0.52545506693E+02 -0.90610236162E+02  0.17271479485E+03  0.41800000000E+01 0. -1.
        -11    1    4    4    0    0 -0.88374127307E+02  0.76460121093E+01  0.83533262968E+01  0.89096722379E+02  0.00000000000E+00 0.  1.
         11    1    4    4    0    0 -0.95225281530E+02 -0.92751386192E+02 -0.18057618935E+01  0.13294335132E+03  0.00000000000E+00 0. -1.
</event>
<event>
 8    1  0.6648599E-009  0.1136121E+03  0.7561462E-02  0.1254023E+00
         -1   -1    0    0    0  501 -0.00000000000E+00  0.00000000000E+00  0.20795387223E+03  0.20795387223E+03  0.00000000000E+00 0.  1.
          1   -1    0    0  501    0  0.00000000000E+00 -0.00000000000E+00 -0.94366273396E+02  0.94366273396E+02  0.00000000000E+00 0. -1.
         25    2    1    2    0    0  0.65060189266E+02  0.33855534944E+02  0.10244994595E+02  0.14536246530E+03  0.12508501482E+03 0.  0.
         23    2    1    2    0    0 -0.65060189266E+02 -0.33855534944E+02  0.10334260424E+03  0.15695768032E+03  0.92612062321E+02 0.  0.
          5    1    3    3  502    0  0.85551491727E+02  0.23909867851E+02 -0.34174664310E+02  0.95268670601E+02  0.41800000000E+01 0. -1.
         -5    1    3    3    0  502 -0.20491302461E+02  0.99456670929E+01  0.44419658906E+02  0.50093794703E+02  0.41800000000E+01 0. -1.
        -11    1    4    4    0    0 -0.75709734326E+02 -0.53560382870E+02  0.67544877851E+02  0.11473007020E+03  0.00000000000E+00 0.  1.
         11    1    4    4    0    0  0.10649545060E+02  0.19704847926E+02  0.35797726387E+02  0.42227610118E+02  0.00000000000E+00 0. -1.
</event>
<event>
 8    1  0.6648599E-009  0.1060250E+03  0.7561462E-02  0.1268113E+00
          3   -1    0    0  501    0  0.00000000000E+00  0.00000000000E+00  0.79594137450E+02  0.79594137450E+02  0.00000000000E+00 0. -1.
         -3   -1    0    0    0  501 -0.00000000000E+00 -0.00000000000E+00 -0.19360359455E+03  0.19360359455E+03  0.00000000000E+00 0.  1.
         25    2    1    2    0    0 -0.50004595329E+02 -0.31226600226E+02 -0.63592435721E+02  0.15220968284E+03  0.12509288370E+03 0.  0.
         23    2    1    2    0    0  0.50004595329E+02  0.31226600226E+02 -0.50417021378E+02  0.12098804916E+03  0.92847573360E+02 0.  0.
          5    1    3    3  502    0  0.16058730247E+02 -0.61073836126E+02 -0.15640499175E+02  0.65191977196E+02  0.41800000000E+01 0.  1.
         -5    1    3    3    0  502 -0.66063325576E+02  0.29847235900E+02 -0.47951936546E+02  0.87017705644E+02  0.41800000000E+01 0.  1.
        -11    1    4    4    0    0  0.67891760746E+01  0.32214407763E+02 -0.67030282560E+02  0.74678777169E+02  0.00000000000E+00 0.  1.
         11    1    4    4    0    0  0.43215419255E+02 -0.98780753631E+00  0.16613261183E+02  0.46309271989E+02  0.00000000000E+00 0. -1.
</event>
<event>
 8    1  0.6648599E-009  0.1658047E+03  0.7561462E-02  0.1182295E+00
          1   -1    0    0  501    0  0.00000000000E+00  0.00000000000E+00  0.11572123760E+03  0.11572123760E+03  0.00000000000E+00 0. -1.
         -1   -1    0    0    0  501 -0.00000000000E+00 -0.00000000000E+00 -0.27324185039E+03  0.27324185039E+03  0.00000000000E+00 0.  1.
         25    2    1    2    0    0  0.10897019347E+03  0.87141303723E+02 -0.10631609284E+03  0.21544998028E+03  0.12508985781E+03 0.  0.
         23    2    1    2    0    0 -0.10897019347E+03 -0.87141303723E+02 -0.51204519954E+02  0.17351310771E+03  0.89536505430E+02 0.  0.
          5    1    3    3  502    0 -0.24995945716E+02 -0.34891469971E+01 -0.13669096325E+02  0.29004965839E+02  0.41800000000E+01 0. -1.
         -5    1    3    3    0  502  0.13396613918E+03  0.90630450720E+02 -0.92646996511E+02  0.18644501444E+03  0.41800000000E+01 0. -1.
        -11    1    4    4    0    0 -0.53006803429E+02 -0.19595462583E+02  0.20604006062E+02  0.60151711775E+02  0.00000000000E+00 0. -1.
         11    1    4    4    0    0 -0.55963390038E+02 -0.67545841140E+02 -0.71808526016E+02  0.11336139594E+03  0.00000000000E+00 0.  1.
</event>
<event>
 8    1  0.6648599E-009  0.1356535E+03  0.7561462E-02  0.1219300E+00
          1   -1    0    0  501    0  0.00000000000E+00  0.00000000000E+00  0.18741374184E+03  0.18741374184E+03  0.00000000000E+00 0. -1.
         -1   -1    0    0    0  501 -0.00000000000E+00 -0.00000000000E+00 -0.13743838232E+03  0.13743838232E+03  0.00000000000E+00 0.  1.
         25    2    1    2    0    0 -0.81326894574E+02 -0.84651421539E+02  0.22030847124E+02  0.17295504934E+03  0.12509262136E+03 0.  0.
         23    2    1    2    0    0  0.81326894574E+02  0.84651421539E+02  0.27944512398E+02  0.15189707482E+03  0.92259951319E+02 0.  0.
          5    1    3    3  502    0 -0.30971317076E+02 -0.80698844960E+02 -0.37893050991E+02  0.94471592411E+02  0.41800000000E+01 0. -1.
         -5    1    3    3    0  502 -0.50355577498E+02 -0.39525765789E+01  0.59923898115E+02  0.78483456932E+02  0.41800000000E+01 0. -1.
        -11    1    4    4    0    0  0.65463743448E+02  0.21397213126E+02 -0.19117345561E+02  0.71475977343E+02  0.00000000000E+00 0.  1.
         11    1    4    4    0    0  0.15863151125E+02  0.63254208412E+02  0.47061857959E+02  0.80421097481E+02  0.00000000000E+00 0. -1.
</event>
<event>
 8    1  0.6648599E-009  0.8352915E+02  0.7561462E-02  0.1319324E+00
          4   -1    0    0  501    0  0.00000000000E+00  0.00000000000E+00  0.17252994439E+03  0.17252994439E+03  0.00000000000E+00 0. -1.
         -4   -1    0    0    0  501 -0.00000000000E+00 -0.00000000000E+00 -0.88487823016E+02  0.88487823016E+02  0.00000000000E+00 0.  1.
         25    2    1    2    0    0  0.72922992300E+02 -0.30901721156E+01  0.25659091037E+02  0.14708138484E+03  0.12508889976E+03 0.  0.
         23    2    1    2    0    0 -0.72922992300E+02  0.30901721156E+01  0.58383030335E+02  0.11393638257E+03  0.65158338466E+02 0.  0.
          5    1    3    3  502    0  0.29800668144E+02  0.17383051502E+02  0.72295822005E+02  0.80214765353E+02  0.41800000000E+01 0. -1.
         -5    1    3    3    0  502  0.43122324156E+02 -0.20473223617E+02 -0.46636730968E+02  0.66866619485E+02  0.41800000000E+01 0. -1.
        -11    1    4    4    0    0 -0.72920750735E+02  0.13345934062E+02  0.23790945556E+02  0.77856014117E+02  0.00000000000E+00 0.  1.
         11    1    4    4    0    0 -0.22415657963E-02 -0.10255761947E+02  0.34592084780E+02  0.36080368451E+02  0.00000000000E+00 0. -1.
</event>
<event>
 8    1  0.6648599E-009  0.1709115E+03  0.7561462E-02  0.1176901E+00
          1   -1    0    0  501    0  0.00000000000E+00  0.00000000000E+00  0.81344192584E+03  0.81344192584E+03  0.00000000000E+00 0. -1.
         -1   -1    0    0    0  501 -0.00000000000E+00 -0.00000000000E+00 -0.45370635796E+02  0.45370635796E+02  0.00000000000E+00 0.  1.
         25    2    1    2    0    0  0.12601890812E+03 -0.74076592847E+02  0.25706637230E+03  0.32108842864E+03  0.12508618001E+03 0.  0.
         23    2    1    2    0    0 -0.12601890812E+03  0.74076592847E+02  0.51100491775E+03  0.53772413300E+03  0.81566601194E+02 0.  0.
          5    1    3    3  502    0  0.41486405744E+02 -0.96100590933E+02  0.14701687112E+03  0.18052112961E+03  0.41800000000E+01 0. -1.
         -5    1    3    3    0  502  0.84532502378E+02  0.22023998086E+02  0.11004950118E+03  0.14056729904E+03  0.41800000000E+01 0. -1.
        -11    1    4    4    0    0 -0.26797801513E+02  0.18014873176E+01  0.25838005077E+02  0.37268888216E+02  0.00000000000E+00 0.  1.
         11    1    4    4    0    0 -0.99221106609E+02  0.72275105529E+02  0.48516691267E+03  0.50045524478E+03  0.00000000000E+00 0. -1.
</event>
<event>
 8    1  0.6648599E-009  0.3680097E+03  0.7561462E-02  0.1055457E+00
         -2   -1    0    0    0  501 -0.00000000000E+00  0.00000000000E+00  0.90931454663E+02  0.90931454663E+02  0.00000000000E+00 0.  1.
          2   -1    0    0  501    0  0.00000000000E+00 -0.00000000000E+00 -0.16125172997E+04  0.16125172997E+04  0.00000000000E+00 0. -1.
         25    2    1    2    0    0  0.32460179077E+03 -0.16849527841E+03 -0.71147511003E+03  0.80969220284E+03  0.12509056611E+03 0.  0.
         23    2    1    2    0    0 -0.32460179077E+03  0.16849527841E+03 -0.81011073500E+03  0.89375655151E+03  0.93618315500E+02 0.  0.
          5    1    3    3  502    0  0.25635189662E+03 -0.10633379615E+03 -0.62173863636E+03  0.68088146946E+03  0.41800000000E+01 0.  1.
         -5    1    3    3    0  502  0.68249894145E+02 -0.62161482263E+02 -0.89736473666E+02  0.12881073338E+03  0.41800000000E+01 0.  1.
        -11    1    4    4    0    0 -0.19504829777E+03  0.92771778917E+02 -0.58129025161E+03  0.62011998682E+03  0.00000000000E+00 0. -1.
         11    1    4    4    0    0 -0.12955349300E+03  0.75723499495E+02 -0.22882048338E+03  0.27363656469E+03  0.00000000000E+00 0.  1.
</event>
<event>
 8    1  0.6648599E-009  0.1307091E+03  0.7561462E-02  0.1226407E+00
         -2   -1    0    0    0  501 -0.00000000000E+00  0.00000000000E+00  0.21418223683E+03  0.21418223683E+03  0.00000000000E+00 0. -1.
          2   -1    0    0  501    0  0.00000000000E+00 -0.00000000000E+00 -0.24135381307E+03  0.24135381307E+03  0.00000000000E+00 0.  1.
         25    2    1    2    0    0  0.93670709105E+02 -0.32491157707E+02 -0.18806309729E+03  0.24666931489E+03  0.12509254682E+03 0.  0.
         23    2    1    2    0    0 -0.93670709105E+02  0.32491157707E+02  0.16089152105E+03  0.20886673501E+03  0.88934551079E+02 0.  0.
          5    1    3    3  502    0 -0.72952716313E+01  0.36275993080E+02 -0.48522635009E+02  0.61164427328E+02  0.41800000000E+01 0.  1.
         -5    1    3    3    0  502  0.10096598074E+03 -0.68767150787E+02 -0.13954046228E+03  0.18550488756E+03  0.41800000000E+01 0.  1.
        -11    1    4    4    0    0 -0.51339007510E+02  0.52432506058E+01  0.13830140760E+02  0.53427129461E+02  0.00000000000E+00 0.  1.
         11    1    4    4    0    0 -0.42331701596E+02  0.27247907101E+02  0.14706138029E+03  0.15543960555E+03  0.00000000000E+00 0. -1.
</event>
<event>
 8    1  0.6648599E-009  0.1037168E+03  0.7561462E-02  0.1272669E+00
         -2   -1    0    0    0  501 -0.00000000000E+00  0.00000000000E+00  0.39852046048E+02  0.39852046048E+02  0.00000000000E+00 0.  1.
          2   -1    0    0  501    0  0.00000000000E+00 -0.00000000000E+00 -0.34759314860E+03  0.34759314860E+03  0.00000000000E+00 0. -1.
         25    2    1    2    0    0  0.24822997794E+02  0.42046913031E+01 -0.10999331861E+03  0.16846208328E+03  0.12508829967E+03 0.  0.
         23    2    1    2    0    0 -0.24822997794E+02 -0.42046913031E+01 -0.19774778394E+03  0.21898311137E+03  0.90639706328E+02 0.  0.
          5    1    3    3  502    0  0.74681283751E+02  0.14703681062E+02 -0.70904629454E+02  0.10410778673E+03  0.41800000000E+01 0.  1.
         -5    1    3    3    0  502 -0.49858285957E+02 -0.10498989758E+02 -0.39088689158E+02  0.64354296551E+02  0.41800000000E+01 0.  1.
        -11    1    4    4    0    0  0.17670542268E+02  0.23463944021E+02 -0.23830967044E+02  0.37824855893E+02  0.00000000000E+00 0.  1.
         11    1    4    4    0    0 -0.42493540062E+02 -0.27668635324E+02 -0.17391681690E+03  0.18115825548E+03  0.00000000000E+00 0. -1.
</event>
<event>
 8    1  0.6648599E-009  0.8454716E+02  0.7561462E-02  0.1316621E+00
          1   -1    0    0  501    0  0.00000000000E+00  0.00000000000E+00  0.77261610217E+02  0.77261610217E+02  0.00000000000E+00 0. -1.
         -1   -1    0    0    0  501 -0.00000000000E+00 -0.00000000000E+00 -0.21864686308E+03  0.21864686308E+03  0.00000000000E+00 0.  1.
         25    2    1    2    0    0  0.39335510442E+02  0.17812818540E+02 -0.14393610780E+03  0.19552426125E+03  0.12509018635E+03 0.  0.
         23    2    1    2    0    0 -0.39335510442E+02 -0.17812818540E+02  0.25508549366E+01  0.10038421205E+03  0.90586446459E+02 0.  0.
          5    1    3    3  502    0  0.15040196355E+02 -0.47096868142E+02 -0.10448120658E+03  0.11566381207E+03  0.41800000000E+01 0. -1.
         -5    1    3    3    0  502  0.24295314087E+02  0.64909686683E+02 -0.39454901221E+02  0.79860449174E+02  0.41800000000E+01 0. -1.
        -11    1    4    4    0    0 -0.11518569204E+02 -0.18981370361E+02  0.44676505572E+02  0.49889477923E+02  0.00000000000E+00 0. -1.
         11    1    4    4    0    0 -0.27816941239E+02  0.11685518204E+01 -0.42125650635E+02  0.50494734128E+02  0.00000000000E+00 0.  1.
</event>
<event>
 8    1  0.6648599E-009  0.1457796E+03  0.7561462E-02  0.1205757E+00
         -1   -1    0    0    0  501 -0.00000000000E+00  0.00000000000E+00  0.41938509815E+02  0.41938509815E+02  0.00000000000E+00 0.  1.
          1   -1    0    0  501    0  0.00000000000E+00 -0.00000000000E+00 -0.78838638911E+03  0.78838638911E+03  0.00000000000E+00 0. -1.
         25    2    1    2    0    0  0.10886216642E+02  0.14355230302E+03 -0.43003181628E+03  0.47042611620E+03  0.12509034485E+03 0.  0.
         23    2    1    2    0    0 -0.10886216642E+02 -0.14355230302E+03 -0.31641606302E+03  0.35989878272E+03  0.93178513914E+02 0.  0.
          5    1    3    3  502    0 -0.10838808406E+02  0.57884801054E+02 -0.42048865512E+02  0.72482476858E+02  0.41800000000E+01 0. -1.
         -5    1    3    3    0  502  0.21725025047E+02  0.85667501970E+02 -0.38798295077E+03  0.39794363934E+03  0.41800000000E+01 0. -1.
        -11    1    4    4    0    0 -0.71117662143E+01 -0.62762575901E+02 -0.47353519393E+02  0.78943485807E+02  0.00000000000E+00 0.  1.
         11    1    4    4    0    0 -0.37744504272E+01 -0.80789727123E+02 -0.26906254362E+03  0.28095529692E+03  0.00000000000E+00 0. -1.
</event>
<event>
 8    1  0.6648599E-009  0.7703391E+02  0.7561462E-02  0.1337686E+00
          3   -1    0    0  501    0  0.00000000000E+00  0.00000000000E+00  0.85027414785E+02  0.85027414785E+02  0.00000000000E+00 0. -1.
         -3   -1    0    0    0  501 -0.00000000000E+00 -0.00000000000E+00 -0.11320613617E+03  0.11320613617E+03  0.00000000000E+00 0.  1.
         25    2    1    2    0    0 -0.40680935883E+01 -0.99749556454E+00 -0.20938738832E+02  0.12689715664E+03  0.12508762208E+03 0.  0.
         23    2    1    2    0    0  0.40680935883E+01  0.99749556454E+00 -0.72399825551E+01  0.71336394314E+02  0.70844332331E+02 0.  0.
          5    1    3    3  502    0  0.29586488526E+02 -0.27814232680E+02  0.36666837447E+02  0.54871861744E+02  0.41800000000E+01 0.  1.
         -5    1    3    3    0  502 -0.33654582114E+02  0.26816737115E+02 -0.57605576278E+02  0.72025294898E+02  0.41800000000E+01 0.  1.
        -11    1    4    4    0    0 -0.26073663845E+02 -0.20350060637E+02 -0.92558137359E+01  0.34345756683E+02  0.00000000000E+00 0. -1.
         11    1    4    4    0    0  0.30141757433E+02  0.21347556202E+02  0.20158311808E+01  0.36990637630E+02  0.00000000000E+00 0.  1.
</event>
<event>
 8    1  0.6648599E-009  0.1262469E+03  0.7561462E-02  0.1233133E+00
          1   -1    0    0  501    0  0.00000000000E+00  0.00000000000E+00  0.23933350840E+03  0.23933350840E+03  0.00000000000E+00 0. -1.
         -1   -1    0    0    0  501 -0.00000000000E+00 -0.00000000000E+00 -0.79414174538E+02  0.79414174538E+02  0.00000000000E+00 0.  1.
         25    2    1    2    0    0  0.29426590559E+01 -0.79276546397E+02  0.75007668344E+02  0.16603094391E+03  0.12508674580E+03 0.  0.
         23    2    1    2    0    0 -0.29426590559E+01  0.79276546397E+02  0.84911665517E+02  0.15271673903E+03  0.99090773472E+02 0.  0.
          5    1    3    3  502    0  0.66300784946E+01 -0.10676402199E+03  0.26956172730E+02  0.11039303411E+03  0.41800000000E+01 0. -1.
         -5    1    3    3    0  502 -0.36874194387E+01  0.27487475589E+02  0.48051495614E+02  0.55637909801E+02  0.41800000000E+01 0. -1.
        -11    1    4    4    0    0  0.20401201527E+02  0.89583712577E+02  0.38226033111E+02  0.99512211262E+02  0.00000000000E+00 0.  1.
         11    1    4    4    0    0 -0.23343860583E+02 -0.10307166180E+02  0.46685632407E+02  0.53204527766E+02  0.00000000000E+00 0. -1.
</event>
<event>
 8    1  0.6648599E-009  0.1560000E+03  0.7561462E-02  0.1193288E+00
          1   -1    0    0  501    0  0.00000000000E+00  0.00000000000E+00  0.13670222343E+04  0.13670222343E+04  0.00000000000E+00 0. -1.
         -1   -1    0    0    0  501 -0.00000000000E+00 -0.00000000000E+00 -0.26286741261E+02  0.26286741261E+02  0.00000000000E+00 0.  1.
         25    2    1    2    0    0  0.64090090138E+01 -0.13987619116E+03  0.94990746137E+03  0.96828829584E+03  0.12510641247E+03 0.  0.
         23    2    1    2    0    0 -0.64090090138E+01  0.13987619116E+03  0.39082803169E+03  0.42502067974E+03  0.91047260278E+02 0.  0.
          5    1    3    3  502    0 -0.38322041464E+02 -0.82945483050E+02  0.75143139527E+03  0.75697763918E+03  0.41800000000E+01 0.  1.
         -5    1    3    3    0  502  0.44731050477E+02 -0.56930708113E+02  0.19847606610E+03  0.21131065666E+03  0.41800000000E+01 0.  1.
        -11    1    4    4    0    0  0.19452955481E+02  0.87024707878E+02  0.32368785225E+03  0.33574624786E+03  0.00000000000E+00 0. -1.
         11    1    4    4    0    0 -0.25861964494E+02  0.52851483285E+02  0.67140179443E+02  0.89274431886E+02  0.00000000000E+00 0.  1.
</event>
<event>
 8    1  0.6648599E-009  0.1727637E+03  0.7561462E-02  0.1174996E+00
         -1   -1    0    0    0  501 -0.00000000000E+00  0.00000000000E+00  0.31609620063E+02  0.31609620063E+02  0.00000000000E+00 0.  1.
          1   -1    0    0  501    0  0.00000000000E+00 -0.00000000000E+00 -0.10285872009E+04  0.10285872009E+04  0.00000000000E+00 0. -1.
         25    2    1    2    0    0  0.12048298562E+03  0.75746636630E+02 -0.47049231456E+03  0.50721301757E+03  0.12509326262E+03 0.  0.
         23    2    1    2    0    0 -0.12048298562E+03 -0.75746636630E+02 -0.52648526623E+03  0.55298380334E+03  0.91381882334E+02 0.  0.
          5    1    3    3  502    0 -0.20669401193E+02  0.37043032657E+02 -0.12097728261E+03  0.12826685356E+03  0.41800000000E+01 0.  1.
         -5    1    3    3    0  502  0.14115238681E+03  0.38703603973E+02 -0.34951503195E+03  0.37894616402E+03  0.41800000000E+01 0.  1.
        -11    1    4    4    0    0 -0.63936802879E+02 -0.25523239101E+01 -0.11878281872E+03  0.13492141099E+03  0.00000000000E+00 0. -1.
         11    1    4    4    0    0 -0.56546182737E+02 -0.73194312719E+02 -0.40770244751E+03  0.41806239235E+03  0.00000000000E+00 0.  1.
</event>
<event>
 8    1  0.6648599E-009  0.1657728E+03  0.7561462E-02  0.1182329E+00
         -2   -1    0    0    0  501 -0.00000000000E+00  0.00000000000E+00  0.28498391313E+02  0.28498391313E+02  0.00000000000E+00 0.  1.
          2   -1    0    0  501    0  0.00000000000E+00 -0.00000000000E+00 -0.13635065688E+04  0.13635065688E+04  0.00000000000E+00 0. -1.
         25    2    1    2    0    0  0.12806737206E+03  0.14154066444E+02 -0.10578517162E+04  0.10729861324E+04  0.12508955772E+03 0.  0.
         23    2    1    2    0    0 -0.12806737206E+03 -0.14154066444E+02 -0.27715646128E+03  0.31901882771E+03  0.91409622160E+02 0.  0.
          5    1    3    3  502    0  0.11933050533E+03 -0.37859699904E+02 -0.67894896753E+03  0.69040734301E+03  0.41800000000E+01 0.  1.
         -5    1    3    3    0  502  0.87368667308E+01  0.52013766348E+02 -0.37890274867E+03  0.38257878937E+03  0.41800000000E+01 0.  1.
        -11    1    4    4    0    0 -0.21310423622E+02 -0.38384548685E+02 -0.11751453781E+03  0.12544789488E+03  0.00000000000E+00 0. -1.
         11    1    4    4    0    0 -0.10675694844E+03  0.24230482241E+02 -0.15964192347E+03  0.19357093284E+03  0.00000000000E+00 0.  1.
</event>
<event>
 8    1  0.6648599E-009  0.9792880E+02  0.7561462E-02  0.1284713E+00
         -1   -1    0    0    0  501 -0.00000000000E+00  0.00000000000E+00  0.20639332150E+03  0.20639332150E+03  0.00000000000E+00 0.  1.
          1   -1    0    0  501    0  0.00000000000E+00 -0.00000000000E+00 -0.11083857066E+03  0.11083857066E+03  0.00000000000E+00 0. -1.
         25    2    1    2    0    0  0.88717505194E+02  0.35199602701E+02  0.92016295347E+02  0.18227531209E+03  0.12508989979E+03 0.  0.
         23    2    1    2    0    0 -0.88717505194E+02 -0.35199602701E+02  0.35384554930E+01  0.13495658007E+03  0.95346473870E+02 0.  0.
          5    1    3    3  502    0  0.12989820833E+02  0.18089515428E+02 -0.29998520628E+02  0.37594542869E+02  0.41800000000E+01 0. -1.
         -5    1    3    3    0  502  0.75727684361E+02  0.17110087273E+02  0.12201481597E+03  0.14468076922E+03  0.41800000000E+01 0. -1.
        -11    1    4    4    0    0 -0.25175730426E+02 -0.10418595999E+02 -0.44047716170E+02  0.51793492303E+02  0.00000000000E+00 0. -1.
         11    1    4    4    0    0 -0.63541774768E+02 -0.24781006702E+02  0.47586171663E+02  0.83163087770E+02  0.00000000000E+00 0.  1.
</event>
<event>
 8    1  0.6648599E-009  0.2009555E+03  0.7561462E-02  0.1148935E+00
         -2   -1    0    0    0  501 -0.00000000000E+00  0.00000000000E+00  0.82370723539E+02  0.82370723539E+02  0.00000000000E+00 0.  1.
          2   -1    0    0  501    0  0.00000000000E+00 -0.00000000000E+00 -0.82498277789E+03  0.82498277789E+03  0.00000000000E+00 0. -1.
         25    2    1    2    0    0  0.61416984944E+02  0.16344734500E+03 -0.10300573322E+03  0.23820119308E+03  0.12507016704E+03 0.  0.
         23    2    1    2    0    0 -0.61416984944E+02 -0.16344734500E+03 -0.63960632113E+03  0.66915230835E+03  0.90451562213E+02 0.  0.
          5    1    3    3  502    0  0.21307970985E+02  0.16594437487E+03 -0.10530457951E+03  0.19773237480E+03  0.41800000000E+01 0. -1.
         -5    1    3    3    0  502  0.40109013960E+02 -0.24970298685E+01  0.22988462935E+01  0.40468818284E+02  0.41800000000E+01 0. -1.
        -11    1    4    4    0    0 -0.24455807975E+02  0.20806965920E+01 -0.12274967714E+03  0.12517946748E+03  0.00000000000E+00 0. -1.
         11    1    4    4    0    0 -0.36961176969E+02 -0.16552804159E+03 -0.51685664399E+03  0.54397284086E+03  0.00000000000E+00 0.  1.
</event>
<event>
 8    1  0.6648599E-009  0.1000840E+03  0.7561462E-02  0.1280119E+00
         -2   -1    0    0    0  501 -0.00000000000E+00  0.00000000000E+00  0.21769015719E+02  0.21769015719E+02  0.00000000000E+00 0.  1.
          2   -1    0    0  501    0  0.00000000000E+00 -0.00000000000E+00 -0.61615868615E+03  0.61615868615E+03  0.00000000000E+00 0. -1.
         25    2    1    2    0    0  0.15798596069E+02 -0.31213935795E+02 -0.39423770790E+03  0.41508371441E+03  0.12508882528E+03 0.  0.
         23    2    1    2    0    0 -0.15798596069E+02  0.31213935795E+02 -0.20015196252E+03  0.22284398745E+03  0.91513546630E+02 0.  0.
          5    1    3    3  502    0  0.59712971583E+02  0.16292124823E+02 -0.14847154049E+03  0.16091097862E+03  0.41800000000E+01 0.  1.
         -5    1    3    3    0  502 -0.43914375514E+02 -0.47506060618E+02 -0.24576616741E+03  0.25417273579E+03  0.41800000000E+01 0.  1.
        -11    1    4    4    0    0  0.25141494211E+02  0.88585346683E+01 -0.15716994963E+03  0.15941443295E+03  0.00000000000E+00 0. -1.
         11    1    4    4    0    0 -0.40940090280E+02  0.22355401127E+02 -0.42982012896E+02  0.63429554502E+02  0.00000000000E+00 0.  1.
</event>
<event>
 8    1  0.6648599E-009  0.8411214E+02  0.7561462E-02  0.1317771E+00
          2   -1    0    0  501    0  0.00000000000E+00  0.00000000000E+00  0.37807829668E+03  0.37807829668E+03  0.00000000000E+00 0. -1.
         -2   -1    0    0    0  501 -0.00000000000E+00 -0.00000000000E+00 -0.32446515999E+02  0.32446515999E+02  0.00000000000E+00 0.  1.
         25    2    1    2    0    0  0.17191243518E+02 -0.16339295271E+02  0.21236852267E+03  0.24760921325E+03  0.12508965443E+03 0.  0.
         23    2    1    2    0    0 -0.17191243518E+02  0.16339295271E+02  0.13326325802E+03  0.16291559943E+03  0.90663582409E+02 0.  0.
          5    1    3    3  502    0 -0.82902998388E+01 -0.40323592510E+02  0.20802465934E+03  0.21210010014E+03  0.41800000000E+01 0.  1.
         -5    1    3    3    0  502  0.25481543356E+02  0.23984297238E+02  0.43438633252E+01  0.35509113118E+02  0.41800000000E+01 0.  1.
        -11    1    4    4    0    0 -0.18405490603E+02  0.52391547214E+02  0.63336166733E+02  0.84232454080E+02  0.00000000000E+00 0.  1.
         11    1    4    4    0    0  0.12142470854E+01 -0.36052251942E+02  0.69927091285E+02  0.78683145347E+02  0.00000000000E+00 0. -1.
</event>
<event>
 8    1  0.6648599E-009  0.1832816E+03  0.7561462E-02  0.1164664E+00
          2   -1    0    0  501    0  0.00000000000E+00  0.00000000000E+00  0.13600643379E+04  0.13600643379E+04  0.00000000000E+00 0. -1.
         -2   -1    0    0    0  501 -0.00000000000E+00 -0.00000000000E+00 -0.25100581703E+02  0.25100581703E+02  0.00000000000E+00 0.  1.
         25    2    1    2    0    0 -0.91671701460E+02 -0.11663378634E+03  0.71400857310E+03  0.73990764755E+03  0.12509174028E+03 0.  0.
         23    2    1    2    0    0  0.91671701460E+02  0.11663378634E+03  0.62095518311E+03  0.64525727206E+03  0.93618730776E+02 0.  0.
          5    1    3    3  502    0  0.20511251501E+02 -0.65287022215E+02  0.30843588188E+03  0.31596403646E+03  0.41800000000E+01 0.  1.
         -5    1    3    3    0  502 -0.11218295296E+03 -0.51346764124E+02  0.40557269122E+03  0.42394361109E+03  0.41800000000E+01 0.  1.
        -11    1    4    4    0    0  0.27078240621E+02 -0.12761278814E+02  0.13266235761E+03  0.13599772968E+03  0.00000000000E+00 0. -1.
         11    1    4    4    0    0  0.64593460838E+02  0.12939506515E+03  0.48829282550E+03  0.50925954238E+03  0.00000000000E+00 0.  1.
</event>
<event>
 8    1  0.6648599E-009  0.9586810E+02  0.7561462E-02  0.1289233E+00
         -4   -1    0    0    0  501 -0.00000000000E+00  0.00000000000E+00  0.38020291273E+02  0.38020291273E+02  0.00000000000E+00 0.  1.
          4   -1    0    0  501    0  0.00000000000E+00 -0.00000000000E+00 -0.35337045102E+03  0.35337045102E+03  0.00000000000E+00 0. -1.
         25    2    1    2    0    0 -0.37431305148E+02 -0.16259966515E+02 -0.20210604325E+03  0.24116353198E+03  0.12508999689E+03 0.  0.
         23    2    1    2    0    0  0.37431305148E+02  0.16259966515E+02 -0.11324411650E+03  0.15022721032E+03  0.89880452166E+02 0.  0.
          5    1    3    3  502    0 -0.43675793138E+02 -0.50311898288E+02 -0.45658123839E+02  0.80876440872E+02  0.41800000000E+01 0. -1.
         -5    1    3    3    0  502  0.62444879894E+01  0.34051931773E+02 -0.15644791941E+03  0.16028709110E+03  0.41800000000E+01 0. -1.
        -11    1    4    4    0    0 -0.25457127043E+02  0.14379114023E+01 -0.79835159904E+01  0.26718335166E+02  0.00000000000E+00 0.  1.
         11    1    4    4    0    0  0.62888432191E+02  0.14822055113E+02 -0.10526060051E+03  0.12350887515E+03  0.00000000000E+00 0. -1.
</event>
<event>
 8    1  0.6648599E-009  0.1637958E+03  0.7561462E-02  0.1184477E+00
         -2   -1    0    0    0  501 -0.00000000000E+00  0.00000000000E+00  0.19402426150E+03  0.19402426150E+03  0.00000000000E+00 0.  1.
          2   -1    0    0  501    0  0.00000000000E+00 -0.00000000000E+00 -0.24392383443E+03  0.24392383443E+03  0.00000000000E+00 0. -1.
         25    2    1    2    0    0  0.22510263843E+02  0.15787279979E+03 -0.11536085449E+03  0.23321232319E+03  0.12509727434E+03 0.  0.
         23    2    1    2    0    0 -0.22510263843E+02 -0.15787279979E+03  0.65461281563E+02  0.20473577275E+03  0.11045824717E+03 0.  0.
          5    1    3    3  502    0  0.25268011645E+01  0.67364666149E+02 -0.12278279877E+03  0.14013376125E+03  0.41800000000E+01 0. -1.
         -5    1    3    3    0  502  0.19983462679E+02  0.90508133637E+02  0.74219442809E+01  0.93078561935E+02  0.41800000000E+01 0. -1.
        -11    1    4    4    0    0 -0.38059368748E+02 -0.91534032342E+02  0.88420258732E+02  0.13283499833E+03  0.00000000000E+00 0.  1.
         11    1    4    4    0    0  0.15549104904E+02 -0.66338767444E+02 -0.22958977170E+02  0.71900774419E+02  0.00000000000E+00 0. -1.
</event>
<event>
 8    1  0.6648599E-009  0.1147300E+03  0.7561462E-02  0.1252053E+00
          1   -1    0    0  501    0  0.00000000000E+00  0.00000000000E+00  0.89104855402E+02  0.89104855402E+02  0.00000000000E+00 0. -1.
         -1   -1    0    0    0  501 -0.00000000000E+00 -0.00000000000E+00 -0.23500661664E+03  0.23500661664E+03  0.00000000000E+00 0.  1.
         25    2    1    2    0    0  0.46368748649E+02  0.78972686330E+02 -0.96411055270E+02  0.18256601080E+03  0.12509400739E+03 0.  0.
         23    2    1    2    0    0 -0.46368748649E+02 -0.78972686330E+02 -0.49490705972E+02  0.14154546124E+03  0.95911634241E+02 0.  0.
          5    1    3    3  502    0  0.59873885857E+02  0.34936286193E+02 -0.11366579040E+03  0.13320214191E+03  0.41800000000E+01 0. -1.
         -5    1    3    3    0  502 -0.13505137208E+02  0.44036400136E+02  0.17254735134E+02  0.49363868898E+02  0.41800000000E+01 0. -1.
        -11    1    4    4    0    0  0.16643795961E+02 -0.28601234336E+02 -0.51075609590E+02  0.60858560980E+02  0.00000000000E+00 0.  1.
         11    1    4    4    0    0 -0.63012544610E+02 -0.50371451994E+02  0.15849036184E+01  0.80686900261E+02  0.00000000000E+00 0. -1.
</event>
<event>
 8    1  0.6648599E-009  0.1147507E+03  0.7561462E-02  0.1252017E+00
          1   -1    0    0  501    0  0.00000000000E+00  0.00000000000E+00  0.37618349218E+02  0.37618349218E+02  0.00000000000E+00 0. -1.
         -1   -1    0    0    0  501 -0.00000000000E+00 -0.00000000000E+00 -0.59139101156E+03  0.59139101156E+03  0.00000000000E+00 0.  1.
         25    2    1    2    0    0 -0.13967727492E+02 -0.77801557411E+02 -0.16355040152E+03  0.22055627238E+03  0.12509258851E+03 0.  0.
         23    2    1    2    0    0  0.13967727492E+02  0.77801557411E+02 -0.39022226082E+03  0.40845308840E+03  0.91171995908E+02 0.  0.
          5    1    3    3  502    0 -0.43091917426E+02 -0.78445789945E+02 -0.48667973413E+02  0.10196420619E+03  0.41800000000E+01 0.  1.
         -5    1    3    3    0  502  0.29124189933E+02  0.64423253378E+00 -0.11488242811E+03  0.11859206619E+03  0.41800000000E+01 0.  1.
        -11    1    4    4    0    0 -0.13521780620E+02  0.81607587705E+02 -0.34962142220E+03  0.35927395645E+03  0.00000000000E+00 0.  1.
         11    1    4    4    0    0  0.27489508112E+02 -0.38060302936E+01 -0.40600838623E+02  0.49179131953E+02  0.00000000000E+00 0. -1.
</event>
<event>
 8    1  0.6648599E-009  0.2302901E+03  0.7561462E-02  0.1126436E+00
         -2   -1    0    0    0  501 -0.00000000000E+00  0.00000000000E+00  0.45391366523E+03  0.45391366523E+03  0.00000000000E+00 0.  1.
          2   -1    0    0  501    0  0.00000000000E+00 -0.00000000000E+00 -0.19381332770E+03  0.19381332770E+03  0.00000000000E+00 0. -1.
         25    2    1    2    0    0 -0.14179099813E+02 -0.21023977728E+03  0.32706386822E+03  0.40868017126E+03  0.12508756002E+03 0.  0.
         23    2    1    2    0    0  0.14179099813E+02  0.21023977728E+03 -0.66963530686E+02  0.23904682166E+03  0.90870554556E+02 0.  0.
          5    1    3    3  502    0  0.91815826436E+01 -0.20803527867E+03  0.32325450434E+03  0.38454378893E+03  0.41800000000E+01 0.  1.
         -5    1    3    3    0  502 -0.23360682457E+02 -0.22044986094E+01  0.38093638760E+01  0.24136382332E+02  0.41800000000E+01 0.  1.
        -11    1    4    4    0    0  0.50712608147E+02  0.14610994738E+03 -0.55707556879E+02  0.16438739989E+03  0.00000000000E+00 0. -1.
         11    1    4    4    0    0 -0.36533508334E+02  0.64129829895E+02 -0.11255973807E+02  0.74659421776E+02  0.00000000000E+00 0.  1.
</event>
<event>
 8    1  0.6648599E-009  0.1382474E+03  0.7561462E-02  0.1215707E+00
          1   -1    0    0  501    0  0.00000000000E+00  0.00000000000E+00  0.13413443549E+03  0.13413443549E+03  0.00000000000E+00 0. -1.
         -1   -1    0    0    0  501 -0.00000000000E+00 -0.00000000000E+00 -0.20011212706E+03  0.20011212706E+03  0.00000000000E+00 0.  1.
         25    2    1    2    0    0 -0.51999501121E+02  0.93483111786E+02 -0.73096606708E+02  0.18008820906E+03  0.12508240814E+03 0.  0.
         23    2    1    2    0    0  0.51999501121E+02 -0.93483111786E+02  0.71189151378E+01  0.15415835348E+03  0.11077490099E+03 0.  0.
          5    1    3    3  502    0 -0.66173841674E+02  0.47505656626E+02  0.11800106085E+02  0.82416500999E+02  0.41800000000E+01 0. -1.
         -5    1    3    3    0  502  0.14174340553E+02  0.45977455160E+02 -0.84896712793E+02  0.97671708064E+02  0.41800000000E+01 0. -1.
        -11    1    4    4    0    0  0.35252291913E+02  0.13943097949E+02 -0.18907217171E+02  0.42362919242E+02  0.00000000000E+00 0. -1.
         11    1    4    4    0    0  0.16747209208E+02 -0.10742620974E+03  0.26026132309E+02  0.11179543424E+03  0.00000000000E+00 0.  1.
</event>
<event>
 8    1  0.6648599E-009  0.1827055E+03  0.7561462E-02  0.1165210E+00
          1   -1    0    0  501    0  0.00000000000E+00  0.00000000000E+00  0.23888830945E+04  0.23888830945E+04  0.00000000000E+00 0. -1.
         -1   -1    0    0    0  501 -0.00000000000E+00 -0.00000000000E+00 -0.23172714741E+02  0.23172714741E+02  0.00000000000E+00 0.  1.
         25    2    1    2    0    0 -0.12004779229E+03 -0.88314951566E+02  0.19695798314E+04  0.19791673406E+04  0.12509055411E+03 0.  0.
         23    2    1    2    0    0  0.12004779229E+03  0.88314951566E+02  0.39613054840E+03  0.43288846868E+03  0.90895609563E+02 0.  0.
          5    1    3    3  502    0  0.15595724285E+01  0.26720730161E+02  0.28728974323E+03  0.28856420196E+03  0.41800000000E+01 0. -1.
         -5    1    3    3    0  502 -0.12160736472E+03 -0.11503568173E+03  0.16822900882E+04  0.16906031386E+04  0.41800000000E+01 0. -1.
        -11    1    4    4    0    0  0.29222161197E+02 -0.15381443143E+02  0.46230020252E+02  0.56813187472E+02  0.00000000000E+00 0.  1.
         11    1    4    4    0    0  0.90825631098E+02  0.10369639471E+03  0.34990052814E+03  0.37607528121E+03  0.00000000000E+00 0. -1.
</event>
<event>
 8    1  0.6648599E-009  0.1201557E+03  0.7561462E-02  0.1242840E+00
         -2   -1    0    0    0  501 -0.00000000000E+00  0.00000000000E+00  0.20786612082E+02  0.20786612082E+02  0.00000000000E+00 0.  1.
          2   -1    0    0  501    0  0.00000000000E+00 -0.00000000000E+00 -0.97676070020E+03  0.97676070020E+03  0.00000000000E+00 0. -1.
         25    2    1    2    0    0 -0.16901531997E+02  0.65992856454E+02 -0.73303571449E+03  0.74674603300E+03  0.12509020819E+03 0.  0.
         23    2    1    2    0    0  0.16901531997E+02 -0.65992856454E+02 -0.22293837362E+03  0.25080127928E+03  0.92515103474E+02 0.  0.
          5    1    3    3  502    0 -0.53176900167E+02 -0.12018285124E+02 -0.34134043322E+03  0.34569203873E+03  0.41800000000E+01 0. -1.
         -5    1    3    3    0  502  0.36275368170E+02  0.78011141578E+02 -0.39169528127E+03  0.40105399427E+03  0.41800000000E+01 0. -1.
        -11    1    4    4    0    0  0.41857798329E+02 -0.61107794432E+02 -0.20914046335E+03  0.22186926608E+03  0.00000000000E+00 0. -1.
         11    1    4    4    0    0 -0.24956266332E+02 -0.48850620221E+01 -0.13797910274E+02  0.28932013206E+02  0.00000000000E+00 0.  1.
</event>
<event>
 8    1  0.6648599E-009  0.1373831E+03  0.7561462E-02  0.1216894E+00
          1   -1    0    0  501    0  0.00000000000E+00  0.00000000000E+00  0.66884524984E+03  0.66884524984E+03  0.00000000000E+00 0. -1.
         -1   -1    0    0    0  501 -0.00000000000E+00 -0.00000000000E+00 -0.30644384335E+02  0.30644384335E+02  0.00000000000E+00 0.  1.
         25    2    1    2    0    0 -0.32422637672E+02  0.83573176245E+02  0.28237405999E+03  0.32158616883E+03  0.12508737349E+03 0.  0.
         23    2    1    2    0    0  0.32422637672E+02 -0.83573176245E+02  0.35582680552E+03  0.37790346535E+03  0.90347165846E+02 0.  0.
          5    1    3    3  502    0 -0.65185962948E+02  0.81084361562E+01  0.16964326217E+03  0.18196501120E+03  0.41800000000E+01 0.  1.
         -5    1    3    3    0  502  0.32763325276E+02  0.75464740089E+02  0.11273079782E+03  0.13962115763E+03  0.41800000000E+01 0.  1.
        -11    1    4    4    0    0  0.49591956662E+02 -0.94513715666E+01  0.12288888046E+03  0.13285468577E+03  0.00000000000E+00 0.  1.
         11    1    4    4    0    0 -0.17169318990E+02 -0.74121804678E+02  0.23293792506E+03  0.24504877958E+03  0.00000000000E+00 0. -1.
</event>
<event>
 8    1  0.6648599E-009  0.1826141E+03  0.7561462E-02  0.1165297E+00
          1   -1    0    0  501    0  0.00000000000E+00  0.00000000000E+00  0.30725133247E+03  0.30725133247E+03  0.00000000000E+00 0. -1.
         -1   -1    0    0    0  501 -0.00000000000E+00 -0.00000000000E+00 -0.13277915114E+03  0.13277915114E+03  0.00000000000E+00 0.  1.
         25    2    1    2    0    0 -0.81127361502E+02  0.14715358267E+03  0.11848954681E+03  0.24067282629E+03  0.12509121046E+03 0.  0.
         23    2    1    2    0    0  0.81127361502E+02 -0.14715358267E+03  0.55982634525E+02  0.19935765732E+03  0.91507346619E+02 0.  0.
          5    1    3    3  502    0 -0.90058696536E+02  0.15502981995E+03  0.73275924773E+02  0.19373086344E+03  0.41800000000E+01 0.  1.
         -5    1    3    3    0  502  0.89313350339E+01 -0.78762372802E+01  0.45213622034E+02  0.46941962854E+02  0.41800000000E+01 0.  1.
        -11    1    4    4    0    0  0.75899088488E+02 -0.98571668751E+02  0.76846441710E+02  0.14622729265E+03  0.00000000000E+00 0.  1.
         11    1    4    4    0    0  0.52282730147E+01 -0.48581913920E+02 -0.20863807186E+02  0.53130364662E+02  0.00000000000E+00 0. -1.
</event>
<event>
 8    1  0.6648599E-009  0.9532731E+02  0.7561462E-02  0.1290441E+00
         -1   -1    0    0    0  501 -0.00000000000E+00  0.00000000000E+00  0.68101718079E+02  0.68101718079E+02  0.00000000000E+00 0.  1.
          1   -1    0    0  501    0  0.00000000000E+00 -0.00000000000E+00 -0.20171111731E+03  0.20171111731E+03  0.00000000000E+00 0. -1.
         25    2    1    2    0    0  0.24936833031E+02 -0.28766445692E+02 -0.10600420498E+03  0.16834804899E+03  0.12511922349E+03 0.  0.
         23    2    1    2    0    0 -0.24936833031E+02  0.28766445692E+02 -0.27605194248E+02  0.10146478640E+03  0.89909410461E+02 0.  0.
          5    1    3    3  502    0 -0.37342649128E+02 -0.50796624925E+02 -0.64100098199E+02  0.90005919454E+02  0.41800000000E+01 0. -1.
         -5    1    3    3    0  502  0.62279482159E+02  0.22030179234E+02 -0.41904106780E+02  0.78342129535E+02  0.41800000000E+01 0. -1.
        -11    1    4    4    0    0 -0.19196023193E+02 -0.10304416715E+02 -0.51074210363E+02  0.55526959889E+02  0.00000000000E+00 0. -1.
         11    1    4    4    0    0 -0.57408098373E+01  0.39070862406E+02  0.23469016115E+02  0.45937826507E+02  0.00000000000E+00 0.  1.
</event>
<event>
 8    1  0.6648599E-009  0.1896597E+03  0.7561462E-02  0.1158769E+00
         -2   -1    0    0    0  501 -0.00000000000E+00  0.00000000000E+00  0.10693124945E+03  0.10693124945E+03  0.00000000000E+00 0.  1.
          2   -1    0    0  501    0  0.00000000000E+00 -0.00000000000E+00 -0.34846023193E+03  0.34846023193E+03  0.00000000000E+00 0. -1.
         25    2    1    2    0    0 -0.13597838282E+03  0.79765479723E+02 -0.15558168342E+03  0.25437413934E+03  0.12509152728E+03 0.  0.
         23    2    1    2    0    0  0.13597838282E+03 -0.79765479723E+02 -0.85947299063E+02  0.20101734204E+03  0.90379097336E+02 0.  0.
          5    1    3    3  502    0 -0.87857553908E+02  0.11116227310E+03 -0.94227478585E+02  0.17021248738E+03  0.41800000000E+01 0.  1.
         -5    1    3    3    0  502 -0.48120828915E+02 -0.31396793372E+02 -0.61354204837E+02  0.84161651961E+02  0.41800000000E+01 0.  1.
        -11    1    4    4    0    0  0.50650590847E+00 -0.38270992211E+02 -0.30224634434E+02  0.48769395318E+02  0.00000000000E+00 0.  1.
         11    1    4    4    0    0  0.13547187691E+03 -0.41494487512E+02 -0.55722664629E+02  0.15224794673E+03  0.00000000000E+00 0. -1.
</event>
<event>
 8    1  0.6648599E-009  0.1075735E+03  0.7561462E-02  0.1265131E+00
         -1   -1    0    0    0  501 -0.00000000000E+00  0.00000000000E+00  0.50750288369E+02  0.50750288369E+02  0.00000000000E+00 0.  1.
          1   -1    0    0  501    0  0.00000000000E+00 -0.00000000000E+00 -0.23993107478E+03  0.23993107478E+03  0.00000000000E+00 0. -1.
         25    2    1    2    0    0  0.55229765396E+01 -0.10435960147E+02 -0.10821802424E+03  0.16582590286E+03  0.12509067413E+03 0.  0.
         23    2    1    2    0    0 -0.55229765396E+01  0.10435960147E+02 -0.80962762171E+02  0.12485546029E+03  0.94310681110E+02 0.  0.
          5    1    3    3  502    0  0.28843128637E+02 -0.60222230901E+02 -0.39394108153E+02  0.77640268685E+02  0.41800000000E+01 0. -1.
         -5    1    3    3    0  502 -0.23320152097E+02  0.49786270753E+02 -0.68823916084E+02  0.88185634173E+02  0.41800000000E+01 0. -1.
        -11    1    4    4    0    0 -0.46312655740E+02  0.21180478212E+02 -0.31635586506E+02  0.59952356689E+02  0.00000000000E+00 0.  1.
         11    1    4    4    0    0  0.40789679201E+02 -0.10744518064E+02 -0.49327175665E+02  0.64903103599E+02  0.00000000000E+00 0. -1.
</event>
<event>
 8    1  0.6648599E-009  0.7387850E+02  0.7561462E-02  0.1347380E+00
          2   -1    0    0  501    0  0.00000000000E+00  0.00000000000E+00  0.19864957960E+03  0.19864957960E+03  0.00000000000E+00 0. -1.
         -2   -1    0    0    0  501 -0.00000000000E+00 -0.00000000000E+00 -0.76996676999E+02  0.76996676999E+02  0.00000000000E+00 0.  1.
         25    2    1    2    0    0  0.58393240494E+02  0.29823682820E+01  0.61444348188E+02  0.15113816908E+03  0.12509465685E+03 0.  0.
         23    2    1    2    0    0 -0.58393240494E+02 -0.29823682820E+01  0.60208554419E+02  0.12450808752E+03  0.91970260288E+02 0.  0.
          5    1    3    3  502    0 -0.77860277370E+01  0.11456081467E+02 -0.32651111210E+02  0.35713183753E+02  0.41800000000E+01 0.  1.
         -5    1    3    3    0  502  0.66179268231E+02 -0.84737131848E+01  0.94095459398E+02  0.11542498533E+03  0.41800000000E+01 0.  1.
        -11    1    4    4    0    0 -0.37431640024E+02 -0.17113465015E+02  0.81599830516E+02  0.91392180737E+02  0.00000000000E+00 0. -1.
         11    1    4    4    0    0 -0.20961600470E+02  0.14131096733E+02 -0.21391276097E+02  0.33115906785E+02  0.00000000000E+00 0.  1.
</event>
<event>
 8    1  0.6648599E-009  0.2028878E+03  0.7561462E-02  0.1147325E+00
          2   -1    0    0  501    0  0.00000000000E+00  0.00000000000E+00  0.82988963008E+03  0.82988963008E+03  0.00000000000E+00 0. -1.
         -2   -1    0    0    0  501 -0.00000000000E+00 -0.00000000000E+00 -0.71849335599E+02  0.71849335599E+02  0.00000000000E+00 0.  1.
         25    2    1    2    0    0  0.14874328325E+03 -0.12135285659E+03  0.19657391829E+03  0.30189185101E+03  0.12508518792E+03 0.  0.
         23    2    1    2    0    0 -0.14874328325E+03  0.12135285659E+03  0.56146637619E+03  0.59984711467E+03  0.87869159993E+02 0.  0.
          5    1    3    3  502    0  0.54975611129E+02 -0.64957735800E+02  0.10306174554E+02  0.85822577992E+02  0.41800000000E+01 0.  1.
         -5    1    3    3    0  502  0.93767672121E+02 -0.56395120787E+02  0.18626774374E+03  0.21606927301E+03  0.41800000000E+01 0.  1.
        -11    1    4    4    0    0 -0.61804035491E+02  0.14046394733E-01  0.15869827407E+03  0.17030819474E+03  0.00000000000E+00 0. -1.
         11    1    4    4    0    0 -0.86939247759E+02  0.12133881019E+03  0.40276810211E+03  0.42953891994E+03  0.00000000000E+00 0.  1.
</event>
<event>
 8    1  0.6648599E-009  0.1175883E+03  0.7561462E-02  0.1247129E+00
         -2   -1    0    0    0  501 -0.00000000000E+00  0.00000000000E+00  0.18658641861E+02  0.18658641861E+02  0.00000000000E+00 0.  1.
          2   -1    0    0  501    0  0.00000000000E+00 -0.00000000000E+00 -0.85874733207E+03  0.85874733207E+03  0.00000000000E+00 0. -1.
         25    2    1    2    0    0  0.21993617801E+02 -0.59076789023E+02 -0.49752088247E+03  0.51686440554E+03  0.12509196216E+03 0.  0.
         23    2    1    2    0    0 -0.21993617801E+02  0.59076789023E+02 -0.34256780774E+03  0.36054156839E+03  0.93079178190E+02 0.  0.
          5    1    3    3  502    0 -0.42363937439E+01  0.31700730170E+02 -0.50315331684E+02  0.59766113540E+02  0.41800000000E+01 0.  1.
         -5    1    3    3    0  502  0.26230011545E+02 -0.90777519193E+02 -0.44720555079E+03  0.45709829200E+03  0.41800000000E+01 0.  1.
        -11    1    4    4    0    0  0.11725733704E+02  0.71461274349E+02 -0.17936380123E+03  0.19343107236E+03  0.00000000000E+00 0.  1.
         11    1    4    4    0    0 -0.33719351505E+02 -0.12384485327E+02 -0.16320400652E+03  0.16711049604E+03  0.00000000000E+00 0. -1.
</event>
<event>
 8    1  0.6648599E-009  0.7904299E+02  0.7561462E-02  0.1331789E+00
          1   -1    0    0  501    0  0.00000000000E+00  0.00000000000E+00  0.90398305292E+02  0.90398305292E+02  0.00000000000E+00 0. -1.
         -1   -1    0    0    0  501 -0.00000000000E+00 -0.00000000000E+00 -0.13136255769E+03  0.13136255769E+03  0.00000000000E+00 0.  1.
         25    2    1    2    0    0 -0.14549622094E+02  0.83357571316E-01 -0.12368234502E+02  0.12653551529E+03  0.12508623007E+03 0.  0.
         23    2    1    2    0    0  0.14549622094E+02 -0.83357571316E-01 -0.28596017896E+02  0.95225347690E+02  0.89657326257E+02 0.  0.
          5    1    3    3  502    0  0.25167673008E+02  0.17625242389E+02  0.44887901744E+02  0.54556915757E+02  0.41800000000E+01 0.  1.
         -5    1    3    3    0  502 -0.39717295101E+02 -0.17541884818E+02 -0.57256136246E+02  0.71978599535E+02  0.41800000000E+01 0.  1.
        -11    1    4    4    0    0  0.10408066295E+02  0.40931737556E+02 -0.33233053837E+02  0.53741704948E+02  0.00000000000E+00 0.  1.
         11    1    4    4    0    0  0.41415557990E+01 -0.41015095128E+02  0.46370359418E+01  0.41483642741E+02  0.00000000000E+00 0. -1.
</event>
<event>
 8    1  0.6648599E-009  0.1008060E+03  0.7561462E-02  0.1278610E+00
          1   -1    0    0  501    0  0.00000000000E+00  0.00000000000E+00  0.30580509700E+03  0.30580509700E+03  0.00000000000E+00 0. -1.
         -1   -1    0    0    0  501 -0.00000000000E+00 -0.00000000000E+00 -0.41160687728E+02  0.41160687728E+02  0.00000000000E+00 0.  1.
         25    2    1    2    0    0 -0.22032006180E+02 -0.14038776906E+02  0.17104039982E+03  0.21350826585E+03  0.12509382344E+03 0.  0.
         23    2    1    2    0    0  0.22032006180E+02  0.14038776906E+02  0.93604009449E+02  0.13345751887E+03  0.91469679159E+02 0.  0.
          5    1    3    3  502    0 -0.68128891050E+02 -0.46978728918E+01  0.14316863474E+03  0.15867686088E+03  0.41800000000E+01 0.  1.
         -5    1    3    3    0  502  0.46096884869E+02 -0.93409040141E+01  0.27871765080E+02  0.54831404972E+02  0.41800000000E+01 0.  1.
        -11    1    4    4    0    0 -0.19122214316E+02 -0.23482231709E+02  0.63026203576E+02  0.69924077567E+02  0.00000000000E+00 0. -1.
         11    1    4    4    0    0  0.41154220497E+02  0.37521008615E+02  0.30577805874E+02  0.63533441306E+02  0.00000000000E+00 0.  1.
</event>
<event>
 8    1  0.6648599E-009  0.1459914E+03  0.7561462E-02  0.1205487E+00
          2   -1    0    0  501    0  0.00000000000E+00  0.00000000000E+00  0.46768386809E+02  0.46768386809E+02  0.00000000000E+00 0. -1.
         -2   -1    0    0    0  501 -0.00000000000E+00 -0.00000000000E+00 -0.64213178142E+03  0.64213178142E+03  0.00000000000E+00 0.  1.
         25    2    1    2    0    0 -0.13035276596E+03  0.25209357333E+02 -0.36416228627E+03  0.40729252976E+03  0.12508268772E+03 0.  0.
         23    2    1    2    0    0  0.13035276596E+03 -0.25209357333E+02 -0.23120110835E+03  0.28160763848E+03  0.90672786738E+02 0.  0.
          5    1    3    3  502    0 -0.64837839072E+02  0.15804254740E+02 -0.32162974476E+03  0.32850705465E+03  0.41800000000E+01 0. -1.
         -5    1    3    3    0  502 -0.65514926891E+02  0.94051025934E+01 -0.42532541508E+02  0.78785475104E+02  0.41800000000E+01 0. -1.
        -11    1    4    4    0    0  0.19006089576E+02 -0.42086373059E+02 -0.88470922513E+02  0.99797787393E+02  0.00000000000E+00 0.  1.
         11    1    4    4    0    0  0.11134667639E+03  0.16877015726E+02 -0.14273018584E+03  0.18180985108E+03  0.00000000000E+00 0. -1.
</event>
<event>
 8    1  0.6648599E-009  0.1145644E+03  0.7561462E-02  0.1252343E+00
         -1   -1    0    0    0  501 -0.00000000000E+00  0.00000000000E+00  0.38674331520E+02  0.38674331520E+02  0.00000000000E+00 0.  1.
          1   -1    0    0  501    0  0.00000000000E+00 -0.00000000000E+00 -0.49100173840E+03  0.49100173840E+03  0.00000000000E+00 0. -1.
         25    2    1    2    0    0  0.23149999411E+02  0.65761640954E+02 -0.34274117151E+03  0.37145631338E+03  0.12509103169E+03 0.  0.
         23    2    1    2    0    0 -0.23149999411E+02 -0.65761640954E+02 -0.10958623538E+03  0.15821975655E+03  0.90353928988E+02 0.  0.
          5    1    3    3  502    0 -0.24091455761E+01 -0.36957559154E+02 -0.90101816977E+02  0.97506281765E+02  0.41800000000E+01 0. -1.
         -5    1    3    3    0  502  0.25559144987E+02  0.10271920011E+03 -0.25263935453E+03  0.27395003161E+03  0.41800000000E+01 0. -1.
        -11    1    4    4    0    0 -0.29454720254E+02 -0.12018740294E+02 -0.97794124624E+02  0.10283832688E+03  0.00000000000E+00 0. -1.
         11    1    4    4    0    0  0.63047208435E+01 -0.53742900660E+02 -0.11792110752E+02  0.55381429670E+02  0.00000000000E+00 0.  1.
</event>
<event>
 8    1  0.6648599E-009  0.1108187E+03  0.7561462E-02  0.1259061E+00
          1   -1    0    0  501    0  0.00000000000E+00  0.00000000000E+00  0.14968864879E+03  0.14968864879E+03  0.00000000000E+00 0. -1.
         -1   -1    0    0    0  501 -0.00000000000E+00 -0.00000000000E+00 -0.11381479025E+03  0.11381479025E+03  0.00000000000E+00 0.  1.
         25    2    1    2    0    0 -0.10569917624E+02  0.55916813272E+02  0.67875528511E+02  0.15326978405E+03  0.12508447612E+03 0.  0.
         23    2    1    2    0    0  0.10569917624E+02 -0.55916813272E+02 -0.32001669979E+02  0.11023365499E+03  0.88819697402E+02 0.  0.
          5    1    3    3  502    0  0.34627350667E+02  0.78603480763E+02  0.35226001924E+02  0.92929565875E+02  0.41800000000E+01 0. -1.
         -5    1    3    3    0  502 -0.45197268291E+02 -0.22686667490E+02  0.32649526588E+02  0.60340218173E+02  0.41800000000E+01 0. -1.
        -11    1    4    4    0    0 -0.25260359436E+02 -0.35778670298E+02  0.16371200972E+02  0.46756980532E+02  0.00000000000E+00 0. -1.
         11    1    4    4    0    0  0.35830277060E+02 -0.20138142974E+02 -0.48372870951E+02  0.63476674461E+02  0.00000000000E+00 0.  1.
</event>
<event>
 8    1  0.6648599E-009  0.1378960E+03  0.7561462E-02  0.1216188E+00
         -2   -1    0    0    0  501 -0.00000000000E+00  0.00000000000E+00  0.45348984570E+02  0.45348984570E+02  0.00000000000E+00 0.  1.
          2   -1    0    0  501    0  0.00000000000E+00 -0.00000000000E+00 -0.54625898226E+03  0.54625898226E+03  0.00000000000E+00 0. -1.
         25    2    1    2    0    0  0.11132064769E+03  0.16021802692E+02 -0.24466213343E+03  0.29691291259E+03  0.12509489743E+03 0.  0.
         23    2    1    2    0    0 -0.11132064769E+03 -0.16021802692E+02 -0.25624786425E+03  0.29469505423E+03  0.92375442035E+02 0.  0.
          5    1    3    3  502    0 -0.88594782964E+01 -0.30015728510E+01  0.10204258449E+02  0.14460258841E+02  0.41800000000E+01 0. -1.
         -5    1    3    3    0  502  0.12018012599E+03  0.19023375543E+02 -0.25486639188E+03  0.28245265375E+03  0.41800000000E+01 0. -1.
        -11    1    4    4    0    0 -0.13844575808E+02 -0.40914913111E+02 -0.57297521219E+02  0.71754500431E+02  0.00000000000E+00 0. -1.
         11    1    4    4    0    0 -0.97476071886E+02  0.24893110419E+02 -0.19895034303E+03  0.22294055380E+03  0.00000000000E+00 0.  1.
</event>
<event>
 8    1  0.6648599E-009  0.1262426E+03  0.7561462E-02  0.1233140E+00
         -1   -1    0    0    0  501 -0.00000000000E+00  0.00000000000E+00  0.40816993926E+02  0.40816993926E+02  0.00000000000E+00 0.  1.
          1   -1    0    0  501    0  0.00000000000E+00 -0.00000000000E+00 -0.54391142887E+03  0.54391142887E+03  0.00000000000E+00 0. -1.
         25    2    1    2    0    0  0.10802085496E+02 -0.84704788754E+02 -0.16991635664E+03  0.22761321374E+03  0.12507845749E+03 0.  0.
         23    2    1    2    0    0 -0.10802085496E+02  0.84704788754E+02 -0.33317807831E+03  0.35711520906E+03  0.96083580212E+02 0.  0.
          5    1    3    3  502    0 -0.31701783322E+02 -0.77261123579E+02 -0.44092017537E+02  0.94529692124E+02  0.41800000000E+01 0. -1.
         -5    1    3    3    0  502  0.42503868818E+02 -0.74436651751E+01 -0.12582433910E+03  0.13308352161E+03  0.41800000000E+01 0. -1.
        -11    1    4    4    0    0 -0.29361531698E+02 -0.84316048649E+01 -0.51727270273E+02  0.60074137481E+02  0.00000000000E+00 0.  1.
         11    1    4    4    0    0  0.18559446202E+02  0.93136393619E+02 -0.28145080803E+03  0.29704107158E+03  0.00000000000E+00 0. -1.
</event>
<event>
 8    1  0.6648599E-009  0.1261593E+03  0.7561462E-02  0.1233269E+00
         -2   -1    0    0    0  501 -0.00000000000E+00  0.00000000000E+00  0.13570326009E+02  0.13570326009E+02  0.00000000000E+00 0.  1.
          2   -1    0    0  501    0  0.00000000000E+00 -0.00000000000E+00 -0.19162344164E+04  0.19162344164E+04  0.00000000000E+00 0. -1.
         25    2    1    2    0    0 -0.65962764876E+02  0.76742390614E+02 -0.14004719770E+04  0.14096845752E+04  0.12509341398E+03 0.  0.
         23    2    1    2    0    0  0.65962764876E+02 -0.76742390614E+02 -0.50219211343E+03  0.52012016728E+03  0.89931022230E+02 0.  0.
          5    1    3    3  502    0  0.16198176861E+02  0.24620702241E+02 -0.75764296105E+02  0.81401848116E+02  0.41800000000E+01 0.  1.
         -5    1    3    3    0  502 -0.82160941737E+02  0.52121688372E+02 -0.13247076809E+04  0.13282827270E+04  0.41800000000E+01 0.  1.
        -11    1    4    4    0    0  0.77950191167E+02 -0.42285128291E+02 -0.43205226083E+03  0.44105942963E+03  0.00000000000E+00 0. -1.
         11    1    4    4    0    0 -0.11987426291E+02 -0.34457262323E+02 -0.70139852596E+02  0.79060737652E+02  0.00000000000E+00 0.  1.
</event>
<event>
 8    1  0.6648599E-009  0.1208029E+03  0.7561462E-02  0.1241778E+00
          1   -1    0    0  501    0  0.00000000000E+00  0.00000000000E+00  0.52843001381E+03  0.52843001381E+03  0.00000000000E+00 0. -1.
         -1   -1    0    0    0  501 -0.00000000000E+00 -0.00000000000E+00 -0.36726177652E+02  0.36726177652E+02  0.00000000000E+00 0.  1.
         25    2    1    2    0    0  0.66781198724E+02  0.56196152065E+02  0.25462421534E+03  0.29681218808E+03  0.12508496291E+03 0.  0.
         23    2    1    2    0    0 -0.66781198724E+02 -0.56196152065E+02  0.23707962081E+03  0.26834400338E+03  0.90465582040E+02 0.  0.
          5    1    3    3  502    0 -0.24467908429E+01  0.45770695975E+02  0.17018075565E+02  0.49071689306E+02  0.41800000000E+01 0.  1.
         -5    1    3    3    0  502  0.69227989567E+02  0.10425456091E+02  0.23760613978E+03  0.24774049878E+03  0.41800000000E+01 0.  1.
        -11    1    4    4    0    0 -0.77598402792E+02 -0.10283929994E+02  0.13947567535E+03  0.15993978663E+03  0.00000000000E+00 0.  1.
         11    1    4    4    0    0  0.10817204068E+02 -0.45912222071E+02  0.97603945457E+02  0.10840421675E+03  0.00000000000E+00 0. -1.
</event>
<event>
 8    1  0.6648599E-009  0.1253202E+03  0.7561462E-02  0.1234570E+00
          2   -1    0    0  501    0  0.00000000000E+00  0.00000000000E+00  0.41014214641E+03  0.41014214641E+03  0.00000000000E+00 0. -1.
         -2   -1    0    0    0  501 -0.00000000000E+00 -0.00000000000E+00 -0.51939312050E+02  0.51939312050E+02  0.00000000000E+00 0.  1.
         25    2    1    2    0    0  0.51161084852E+02  0.51895120518E+02  0.95144145068E+02  0.17323718192E+03  0.12509257661E+03 0.  0.
         23    2    1    2    0    0 -0.51161084852E+02 -0.51895120518E+02  0.26305868929E+03  0.28884427654E+03  0.94448832399E+02 0.  0.
          5    1    3    3  502    0  0.91821525084E+02  0.24077152745E+02  0.67899919723E+02  0.11678515852E+03  0.41800000000E+01 0.  1.
         -5    1    3    3    0  502 -0.40660440231E+02  0.27817967773E+02  0.27244225345E+02  0.56452023396E+02  0.41800000000E+01 0.  1.
        -11    1    4    4    0    0 -0.39515628139E+02  0.11948710945E+02  0.43825702961E+02  0.60207547704E+02  0.00000000000E+00 0.  1.
         11    1    4    4    0    0 -0.11645456713E+02 -0.63843831463E+02  0.21923298633E+03  0.22863672883E+03  0.00000000000E+00 0. -1.
</event>
<event>
 8    1  0.6648599E-009  0.1588537E+03  0.7561462E-02  0.1189997E+00
         -1   -1    0    0    0  501 -0.00000000000E+00  0.00000000000E+00  0.80408535642E+02  0.80408535642E+02  0.00000000000E+00 0.  1.
          1   -1    0    0  501    0  0.00000000000E+00 -0.00000000000E+00 -0.35692737504E+03  0.35692737504E+03  0.00000000000E+00 0. -1.
         25    2    1    2    0    0  0.15085924858E+02  0.12600915608E+03 -0.11397017664E+03  0.21152328446E+03  0.12508799367E+03 0.  0.
         23    2    1    2    0    0 -0.15085924858E+02 -0.12600915608E+03 -0.16254866276E+03  0.22581262622E+03  0.91996640435E+02 0.  0.
          5    1    3    3  502    0  0.48089434002E+02  0.11855055719E+03 -0.46968443536E+02  0.13634638008E+03  0.41800000000E+01 0. -1.
         -5    1    3    3    0  502 -0.33003509144E+02  0.74585988887E+01 -0.67001733106E+02  0.75176904382E+02  0.41800000000E+01 0. -1.
        -11    1    4    4    0    0  0.37990083936E+02 -0.58207069874E+02 -0.86202499504E+02  0.11073472979E+03  0.00000000000E+00 0. -1.
         11    1    4    4    0    0 -0.53076008794E+02 -0.67802086206E+02 -0.76346163253E+02  0.11507789643E+03  0.00000000000E+00 0.  1.
</event>
<event>
 8    1  0.6648599E-009  0.9276493E+02  0.7561462E-02  0.1296291E+00
         -1   -1    0    0    0  501 -0.00000000000E+00  0.00000000000E+00  0.20784543769E+03  0.20784543769E+03  0.00000000000E+00 0.  1.
          1   -1    0    0  501    0  0.00000000000E+00 -0.00000000000E+00 -0.92529128830E+02  0.92529128830E+02  0.00000000000E+00 0. -1.
         25    2    1    2    0    0 -0.42954270413E+01  0.42835513633E+02 -0.21346500844E+02  0.13400114833E+03  0.12508917913E+03 0.  0.
         23    2    1    2    0    0  0.42954270413E+01 -0.42835513633E+02  0.13666280971E+03  0.16637341819E+03  0.84558020325E+02 0.  0.
          5    1    3    3  502    0 -0.14996766344E+02  0.70754228128E+02  0.26739072789E+02  0.77223793046E+02  0.41800000000E+01 0. -1.
         -5    1    3    3    0  502  0.10701339303E+02 -0.27918714495E+02 -0.48085573633E+02  0.56777355289E+02  0.41800000000E+01 0. -1.
        -11    1    4    4    0    0  0.37216630460E+02 -0.29005626353E+02  0.35366934866E+02  0.58967991526E+02  0.00000000000E+00 0. -1.
         11    1    4    4    0    0 -0.32921203418E+02 -0.13829887280E+02  0.10129587484E+03  0.10740542666E+03  0.00000000000E+00 0.  1.
</event>
<event>
 8    1  0.6648599E-009  0.1045814E+03  0.7561462E-02  0.1270947E+00
          1   -1    0    0  501    0  0.00000000000E+00  0.00000000000E+00  0.82443439387E+02  0.82443439387E+02  0.00000000000E+00 0. -1.
         -1   -1    0    0    0  501 -0.00000000000E+00 -0.00000000000E+00 -0.22042061948E+03  0.22042061948E+03  0.00000000000E+00 0.  1.
         25    2    1    2    0    0  0.69944392101E+02 -0.21554374366E+02 -0.39123574573E+02  0.15011507766E+03  0.12508826249E+03 0.  0.
         23    2    1    2    0    0 -0.69944392101E+02  0.21554374366E+02 -0.98853605522E+02  0.15274898121E+03  0.90572660863E+02 0.  0.
          5    1    3    3  502    0  0.58797599407E+02 -0.46483043501E+02 -0.74143277600E+02  0.10551080060E+03  0.41800000000E+01 0. -1.
         -5    1    3    3    0  502  0.11146792694E+02  0.24928669135E+02  0.35019703026E+02  0.44604277063E+02  0.41800000000E+01 0. -1.
        -11    1    4    4    0    0  0.12645669222E+02 -0.11896148438E+02  0.27816821402E+01  0.17583203726E+02  0.00000000000E+00 0. -1.
         11    1    4    4    0    0 -0.82590061322E+02  0.33450522804E+02 -0.10163528766E+03  0.13516577749E+03  0.00000000000E+00 0.  1.
</event>
<event>
 8    1  0.6648599E-009  0.3164372E+03  0.7561462E-02  0.1077301E+00
          2   -1    0    0  501    0  0.00000000000E+00  0.00000000000E+00  0.15693286751E+04  0.15693286751E+04  0.00000000000E+00 0. -1.
         -2   -1    0    0    0  501 -0.00000000000E+00 -0.00000000000E+00 -0.84478227427E+02  0.84478227427E+02  0.00000000000E+00 0.  1.
         25    2    1    2    0    0  0.87645805548E+02 -0.28646802616E+03  0.11542636757E+04  0.11990500169E+04  0.12510232929E+03 0.  0.
         23    2    1    2    0    0 -0.87645805548E+02  0.28646802616E+03  0.33058677198E+03  0.45475688561E+03  0.88150405320E+02 0.  0.
          5    1    3    3  502    0  0.11794900449E+03 -0.22074153506E+03  0.83812968399E+03  0.87471002769E+03  0.41800000000E+01 0. -1.
         -5    1    3    3    0  502 -0.30303198942E+02 -0.65726491108E+02  0.31613399167E+03  0.32433998919E+03  0.41800000000E+01 0. -1.
        -11    1    4    4    0    0 -0.52938478827E+02  0.26274621585E+03  0.26542908783E+03  0.37721433848E+03  0.00000000000E+00 0. -1.
         11    1    4    4    0    0 -0.34707326721E+02  0.23721810313E+02  0.65157684149E+02  0.77542547136E+02  0.00000000000E+00 0.  1.
</event>
<event>
 8    1  0.6648599E-009  0.6453706E+02  0.7561462E-02  0.1379721E+00
          2   -1    0    0  501    0  0.00000000000E+00  0.00000000000E+00  0.75855785455E+02  0.75855785455E+02  0.00000000000E+00 0.  1.
         -2   -1    0    0    0  501 -0.00000000000E+00 -0.00000000000E+00 -0.16251339200E+03  0.16251339200E+03  0.00000000000E+00 0. -1.
         25    2    1    2    0    0  0.12643538022E+02  0.18238658494E+02 -0.50966696152E+02  0.13688768740E+03  0.12509247431E+03 0.  0.
         23    2    1    2    0    0 -0.12643538022E+02 -0.18238658494E+02 -0.35690910395E+02  0.10148149006E+03  0.92369605507E+02 0.  0.
          5    1    3    3  502    0  0.19849826219E+02  0.15335685172E+02  0.38962471657E+02  0.46526824932E+02  0.41800000000E+01 0.  1.
         -5    1    3    3    0  502 -0.72062881966E+01  0.29029733224E+01 -0.89929167809E+02  0.90360862471E+02  0.41800000000E+01 0.  1.
        -11    1    4    4    0    0 -0.16361633166E+02 -0.55251464847E+02 -0.24689461890E+02  0.62689687637E+02  0.00000000000E+00 0.  1.
         11    1    4    4    0    0  0.37180951439E+01  0.37012806353E+02 -0.11001448505E+02  0.38791802418E+02  0.00000000000E+00 0. -1.
</event>
<event>
 8    1  0.6648599E-009  0.8362007E+02  0.7561462E-02  0.1319081E+00
          1   -1    0    0  501    0  0.00000000000E+00  0.00000000000E+00  0.26337734960E+03  0.26337734960E+03  0.00000000000E+00 0. -1.
         -1   -1    0    0    0  501 -0.00000000000E+00 -0.00000000000E+00 -0.51476176766E+02  0.51476176766E+02  0.00000000000E+00 0.  1.
         25    2    1    2    0    0 -0.35847839963E+02  0.22873664811E+02  0.11258349792E+03  0.17358135426E+03  0.12508865004E+03 0.  0.
         23    2    1    2    0    0  0.35847839963E+02 -0.22873664811E+02  0.99317674916E+02  0.14127217211E+03  0.91025017939E+02 0.  0.
          5    1    3    3  502    0 -0.55077944696E+02 -0.14334957685E+02  0.11806565502E+03  0.13113368103E+03  0.41800000000E+01 0.  1.
         -5    1    3    3    0  502  0.19230104733E+02  0.37208622496E+02 -0.54821571015E+01  0.42447673229E+02  0.41800000000E+01 0.  1.
        -11    1    4    4    0    0  0.47539833894E+02 -0.65294191896E+01  0.90973438589E+01  0.48840872094E+02  0.00000000000E+00 0.  1.
         11    1    4    4    0    0 -0.11691993931E+02 -0.16344245622E+02  0.90220331057E+02  0.92431300019E+02  0.00000000000E+00 0. -1.
</event>
<event>
 8    1  0.6648599E-009  0.1758806E+03  0.7561462E-02  0.1171850E+00
         -2   -1    0    0    0  501 -0.00000000000E+00  0.00000000000E+00  0.34105700781E+02  0.34105700781E+02  0.00000000000E+00 0.  1.
          2   -1    0    0  501    0  0.00000000000E+00 -0.00000000000E+00 -0.12763887372E+04  0.12763887372E+04  0.00000000000E+00 0. -1.
         25    2    1    2    0    0 -0.14337551183E+03 -0.81193249454E+01 -0.97815944415E+03  0.99652694828E+03  0.12509036589E+03 0.  0.
         23    2    1    2    0    0  0.14337551183E+03  0.81193249454E+01 -0.26412359224E+03  0.31396748967E+03  0.90508849084E+02 0.  0.
          5    1    3    3  502    0  0.32044389797E+01  0.36722193827E+02 -0.19383737122E+03  0.19735548340E+03  0.41800000000E+01 0.  1.
         -5    1    3    3    0  502 -0.14657995081E+03 -0.44841518772E+02 -0.78432207293E+03  0.79917146487E+03  0.41800000000E+01 0.  1.
        -11    1    4    4    0    0  0.10460967879E+03  0.39118539558E+02 -0.13247040097E+03  0.17326815105E+03  0.00000000000E+00 0.  1.
         11    1    4    4    0    0  0.38765833040E+02 -0.30999214613E+02 -0.13165319127E+03  0.14069933863E+03  0.00000000000E+00 0. -1.
</event>
<event>
 8    1  0.6648599E-009  0.2047052E+03  0.7561462E-02  0.1145829E+00
         -1   -1    0    0    0  501 -0.00000000000E+00  0.00000000000E+00  0.26857514650E+02  0.26857514650E+02  0.00000000000E+00 0.  1.
          1   -1    0    0  501    0  0.00000000000E+00 -0.00000000000E+00 -0.22426375873E+04  0.22426375873E+04  0.00000000000E+00 0. -1.
         25    2    1    2    0    0 -0.18588704364E+03 -0.57178689649E+02 -0.16178321349E+04  0.16342739326E+04  0.12508826597E+03 0.  0.
         23    2    1    2    0    0  0.18588704364E+03  0.57178689649E+02 -0.59794793768E+03  0.63522116935E+03  0.90226394549E+02 0.  0.
          5    1    3    3  502    0 -0.46426846919E+02 -0.19788518615E+02 -0.13109170240E+03  0.14053307234E+03  0.41800000000E+01 0.  1.
         -5    1    3    3    0  502 -0.13946019672E+03 -0.37390171034E+02 -0.14867404325E+04  0.14937408602E+04  0.41800000000E+01 0.  1.
        -11    1    4    4    0    0  0.18975103052E+03  0.68984222371E+02 -0.55934672049E+03  0.59467052243E+03  0.00000000000E+00 0.  1.
         11    1    4    4    0    0 -0.38639868825E+01 -0.11805532721E+02 -0.38601217191E+02  0.40550646925E+02  0.00000000000E+00 0. -1.
</event>
<event>
 8    1  0.6648599E-009  0.2394635E+03  0.7561462E-02  0.1120151E+00
          2   -1    0    0  501    0  0.00000000000E+00  0.00000000000E+00  0.22528575508E+04  0.22528575508E+04  0.00000000000E+00 0. -1.
         -2   -1    0    0    0  501 -0.00000000000E+00 -0.00000000000E+00 -0.38155317006E+02  0.38155317006E+02  0.00000000000E+00 0.  1.
         25    2    1    2    0    0 -0.23307342859E+03  0.24596942569E+02  0.16666563036E+04  0.16876963780E+04  0.12509035545E+03 0.  0.
         23    2    1    2    0    0  0.23307342859E+03 -0.24596942569E+02  0.54804593011E+03  0.60331648980E+03  0.93317804616E+02 0.  0.
          5    1    3    3  502    0 -0.19908129143E+03  0.12549274519E+02  0.98124162139E+03  0.10013208461E+04  0.41800000000E+01 0.  1.
         -5    1    3    3    0  502 -0.33992137158E+02  0.12047668051E+02  0.68541468226E+03  0.68637553187E+03  0.41800000000E+01 0.  1.
        -11    1    4    4    0    0  0.14493599429E+03 -0.46628669316E+02  0.26016588922E+03  0.30144147883E+03  0.00000000000E+00 0.  1.
         11    1    4    4    0    0  0.88137434292E+02  0.22031726747E+02  0.28788004089E+03  0.30187501098E+03  0.00000000000E+00 0. -1.
</event>
<event>
 8    1  0.6648599E-009  0.1091175E+03  0.7561462E-02  0.1262213E+00
          3   -1    0    0  501    0  0.00000000000E+00  0.00000000000E+00  0.70737760116E+02  0.70737760116E+02  0.00000000000E+00 0. -1.
         -3   -1    0    0    0  501 -0.00000000000E+00 -0.00000000000E+00 -0.25141570735E+03  0.25141570735E+03  0.00000000000E+00 0.  1.
         25    2    1    2    0    0  0.71488680842E+02  0.14454012205E+02 -0.13566875615E+03  0.19842344602E+03  0.12508518130E+03 0.  0.
         23    2    1    2    0    0 -0.71488680842E+02 -0.14454012205E+02 -0.45009191089E+02  0.12373002144E+03  0.89239794748E+02 0.  0.
          5    1    3    3  502    0  0.57262865708E+02 -0.30719871037E+02 -0.12378172170E+02  0.66283012996E+02  0.41800000000E+01 0. -1.
         -5    1    3    3    0  502  0.14225815134E+02  0.45173883243E+02 -0.12329058398E+03  0.13214043303E+03  0.41800000000E+01 0. -1.
        -11    1    4    4    0    0  0.12554309251E+02  0.12098646523E+02 -0.29457727983E+02  0.34230770754E+02  0.00000000000E+00 0.  1.
         11    1    4    4    0    0 -0.84042990093E+02 -0.26552658728E+02 -0.15551463106E+02  0.89499250690E+02  0.00000000000E+00 0. -1.
</event>
<event>
 8    1  0.6648599E-009  0.1064235E+03  0.7561462E-02  0.1267340E+00
          1   -1    0    0  501    0  0.00000000000E+00  0.00000000000E+00  0.12169317877E+03  0.12169317877E+03  0.00000000000E+00 0. -1.
         -1   -1    0    0    0  501 -0.00000000000E+00 -0.00000000000E+00 -0.11000540275E+03  0.11000540275E+03  0.00000000000E+00 0.  1.
         25    2    1    2    0    0 -0.62550892682E+00 -0.90411273201E+01  0.45986412482E+02  0.13358629619E+03  0.12509362555E+03 0.  0.
         23    2    1    2    0    0  0.62550892682E+00  0.90411273201E+01 -0.34298636455E+02  0.98112285330E+02  0.91473989884E+02 0.  0.
          5    1    3    3  502    0 -0.46890883257E+02  0.35202137815E+02  0.35251986887E+02  0.68542836379E+02  0.41800000000E+01 0. -1.
         -5    1    3    3    0  502  0.46265374330E+02 -0.44243265136E+02  0.10734425594E+02  0.65043459814E+02  0.41800000000E+01 0. -1.
        -11    1    4    4    0    0  0.32040101461E+02 -0.27144758642E+02 -0.58883335941E+01  0.42403755681E+02  0.00000000000E+00 0. -1.
         11    1    4    4    0    0 -0.31414592534E+02  0.36185885962E+02 -0.28410302861E+02  0.55708529649E+02  0.00000000000E+00 0.  1.
</event>
<event>
 8    1  0.6648599E-009  0.2098007E+03  0.7561462E-02  0.1141724E+00
         -2   -1    0    0    0  501 -0.00000000000E+00  0.00000000000E+00  0.15302214568E+03  0.15302214568E+03  0.00000000000E+00 0. -1.
          2   -1    0    0  501    0  0.00000000000E+00 -0.00000000000E+00 -0.35849561078E+03  0.35849561078E+03  0.00000000000E+00 0.  1.
         25    2    1    2    0    0  0.16217639166E+03 -0.10243069358E+03 -0.46036360120E+02  0.23358196041E+03  0.12509179340E+03 0.  0.
         23    2    1    2    0    0 -0.16217639166E+03  0.10243069358E+03 -0.15943710498E+03  0.27793579604E+03  0.12261683114E+03 0.  0.
          5    1    3    3  502    0 -0.45077802344E+01 -0.53726726593E+02 -0.21319196097E+02  0.58127977389E+02  0.41800000000E+01 0.  1.
         -5    1    3    3    0  502  0.16668417190E+03 -0.48703966983E+02 -0.24717164023E+02  0.17545398302E+03  0.41800000000E+01 0.  1.
        -11    1    4    4    0    0 -0.87162447389E+02  0.54294155995E+02 -0.90078159609E+01  0.10308388991E+03  0.00000000000E+00 0. -1.
         11    1    4    4    0    0 -0.75013944275E+02  0.48136537582E+02 -0.15042928902E+03  0.17485190614E+03  0.00000000000E+00 0.  1.
</event>
<event>
 8    1  0.6648599E-009  0.1508884E+03  0.7561462E-02  0.1199386E+00
         -2   -1    0    0    0  501 -0.00000000000E+00  0.00000000000E+00  0.96868111702E+03  0.96868111702E+03  0.00000000000E+00 0.  1.
          2   -1    0    0  501    0  0.00000000000E+00 -0.00000000000E+00 -0.32506807261E+02  0.32506807261E+02  0.00000000000E+00 0. -1.
         25    2    1    2    0    0  0.12456787645E+03  0.48878822081E+02  0.37837879310E+03  0.42038566172E+03  0.12508916188E+03 0.  0.
         23    2    1    2    0    0 -0.12456787645E+03 -0.48878822081E+02  0.55779551666E+03  0.58080226256E+03  0.91044685174E+02 0.  0.
          5    1    3    3  502    0  0.17572543973E+01  0.20793810883E+02  0.20460618770E+03  0.20571007501E+03  0.41800000000E+01 0.  1.
         -5    1    3    3    0  502  0.12281062205E+03  0.28085011198E+02  0.17377260540E+03  0.21467558671E+03  0.41800000000E+01 0.  1.
        -11    1    4    4    0    0 -0.11630382106E+03 -0.67216473230E+02  0.52823599970E+03  0.54504853403E+03  0.00000000000E+00 0.  1.
         11    1    4    4    0    0 -0.82640553933E+01  0.18337651148E+02  0.29559516960E+02  0.35753728534E+02  0.00000000000E+00 0. -1.
</event>
<event>
 8    1  0.6648599E-009  0.7690255E+02  0.7561462E-02  0.1338079E+00
         -4   -1    0    0    0  501 -0.00000000000E+00  0.00000000000E+00  0.16106125977E+03  0.16106125977E+03  0.00000000000E+00 0.  1.
          4   -1    0    0  501    0  0.00000000000E+00 -0.00000000000E+00 -0.85747518182E+02  0.85747518182E+02  0.00000000000E+00 0. -1.
         25    2    1    2    0    0  0.12287994998E+02 -0.22903075673E+01  0.89812701689E+02  0.15450130438E+03  0.12509233127E+03 0.  0.
         23    2    1    2    0    0 -0.12287994998E+02  0.22903075673E+01 -0.14498960102E+02  0.92307473566E+02  0.90300661694E+02 0.  0.
          5    1    3    3  502    0  0.35748397830E+02  0.27846924232E+02 -0.10827170181E+02  0.46777122087E+02  0.41800000000E+01 0. -1.
         -5    1    3    3    0  502 -0.23460402832E+02 -0.30137231800E+02  0.10063987187E+03  0.10772418230E+03  0.41800000000E+01 0. -1.
        -11    1    4    4    0    0  0.28725013042E+02 -0.91836265885E+00  0.22871281556E+02  0.36729624069E+02  0.00000000000E+00 0.  1.
         11    1    4    4    0    0 -0.41013008041E+02  0.32086702261E+01 -0.37370241658E+02  0.55577849497E+02  0.00000000000E+00 0. -1.
</event>
<event>
 8    1  0.6648599E-009  0.1324450E+03  0.7561462E-02  0.1223872E+00
         -3   -1    0    0    0  501 -0.00000000000E+00  0.00000000000E+00  0.10719044859E+03  0.10719044859E+03  0.00000000000E+00 0.  1.
          3   -1    0    0  501    0  0.00000000000E+00 -0.00000000000E+00 -0.16416265136E+03  0.16416265136E+03  0.00000000000E+00 0. -1.
         25    2    1    2    0    0  0.75308501172E+02  0.10720112573E+02 -0.26094938754E+02  0.14871216896E+03  0.12509225478E+03 0.  0.
         23    2    1    2    0    0 -0.75308501172E+02 -0.10720112573E+02 -0.30877264013E+02  0.12264093099E+03  0.91110380083E+02 0.  0.
          5    1    3    3  502    0  0.52235970632E+02 -0.55295578715E+02 -0.10048897491E+02  0.76841723003E+02  0.41800000000E+01 0.  1.
         -5    1    3    3    0  502  0.23072530541E+02  0.66015691288E+02 -0.16046041263E+02  0.71870445957E+02  0.41800000000E+01 0.  1.
        -11    1    4    4    0    0 -0.83002462250E+01  0.36012751379E+02 -0.11067040164E+02  0.38578384198E+02  0.00000000000E+00 0.  1.
         11    1    4    4    0    0 -0.67008254947E+02 -0.46732863953E+02 -0.19810223848E+02  0.84062546792E+02  0.00000000000E+00 0. -1.
</event>
<event>
 8    1  0.6648599E-009  0.2936131E+03  0.7561462E-02  0.1088478E+00
         -1   -1    0    0    0  501 -0.00000000000E+00  0.00000000000E+00  0.38346692818E+03  0.38346692818E+03  0.00000000000E+00 0.  1.
          1   -1    0    0  501    0  0.00000000000E+00 -0.00000000000E+00 -0.24951235601E+03  0.24951235601E+03  0.00000000000E+00 0. -1.
         25    2    1    2    0    0 -0.37817926909E+02  0.28612884538E+03  0.36773932735E+02  0.31670016641E+03  0.12508701580E+03 0.  0.
         23    2    1    2    0    0  0.37817926909E+02 -0.28612884538E+03  0.97180639443E+02  0.31627911778E+03  0.85372664856E+02 0.  0.
          5    1    3    3  502    0  0.95379067911E+01  0.90386684038E+02 -0.42256969820E+02  0.10031873312E+03  0.41800000000E+01 0. -1.
         -5    1    3    3    0  502 -0.47355833700E+02  0.19574216134E+03  0.79030902556E+02  0.21638143329E+03  0.41800000000E+01 0.  1.
        -11    1    4    4    0    0 -0.89273626821E+01 -0.16078201263E+03  0.21174347294E+02  0.16241584397E+03  0.00000000000E+00 0.  1.
         11    1    4    4    0    0  0.46745289591E+02 -0.12534683275E+03  0.76006292149E+02  0.15386327380E+03  0.00000000000E+00 0. -1.
</event>
<event>
 8    1  0.6648599E-009  0.1033620E+03  0.7561462E-02  0.1273381E+00
          3   -1    0    0  501    0  0.00000000000E+00  0.00000000000E+00  0.70035320259E+02  0.70035320259E+02  0.00000000000E+00 0. -1.
         -3   -1    0    0    0  501 -0.00000000000E+00 -0.00000000000E+00 -0.17153947005E+03  0.17153947005E+03  0.00000000000E+00 0.  1.
         25    2    1    2    0    0  0.13027503863E+02  0.79693883062E+01 -0.48219835480E+02  0.13492652960E+03  0.12508712504E+03 0.  0.
         23    2    1    2    0    0 -0.13027503863E+02 -0.79693883062E+01 -0.53284314311E+02  0.10664826071E+03  0.91112053831E+02 0.  0.
          5    1    3    3  502    0  0.37292158642E+01  0.61577442961E+02 -0.51197311967E+02  0.80276557508E+02  0.41800000000E+01 0. -1.
         -5    1    3    3    0  502  0.92982879984E+01 -0.53608054655E+02  0.29774764874E+01  0.54649972094E+02  0.41800000000E+01 0. -1.
        -11    1    4    4    0    0 -0.17058644494E+02 -0.47560728826E+02 -0.40789179465E+02  0.64936718733E+02  0.00000000000E+00 0.  1.
         11    1    4    4    0    0  0.40311406313E+01  0.39591340520E+02 -0.12495134846E+02  0.41711541973E+02  0.00000000000E+00 0. -1.
</event>
<event>
 8    1  0.6648599E-009  0.1395852E+03  0.7561462E-02  0.1213888E+00
         -1   -1    0    0    0  501 -0.00000000000E+00  0.00000000000E+00  0.93719392712E+02  0.93719392712E+02  0.00000000000E+00 0.  1.
          1   -1    0    0  501    0  0.00000000000E+00 -0.00000000000E+00 -0.24670652811E+03  0.24670652811E+03  0.00000000000E+00 0. -1.
         25    2    1    2    0    0 -0.75279006852E+02 -0.56137390915E+02 -0.27501154448E+02  0.15881513754E+03  0.12509036287E+03 0.  0.
         23    2    1    2    0    0  0.75279006852E+02  0.56137390915E+02 -0.12548598095E+03  0.18161078329E+03  0.91746442216E+02 0.  0.
          5    1    3    3  502    0 -0.36244348326E+02  0.38086501993E+02 -0.20205048399E+02  0.56479649437E+02  0.41800000000E+01 0. -1.
         -5    1    3    3    0  502 -0.39034658526E+02 -0.94223892908E+02 -0.72961060496E+01  0.10233548810E+03  0.41800000000E+01 0. -1.
        -11    1    4    4    0    0  0.90436059825E+02  0.32154353828E+02 -0.68391483844E+02  0.11785575272E+03  0.00000000000E+00 0. -1.
         11    1    4    4    0    0 -0.15157052973E+02  0.23983037087E+02 -0.57094497105E+02  0.63755030565E+02  0.00000000000E+00 0.  1.
</event>
<event>
 7    1  0.6648599E-009  0.1236598E+03  0.7561462E-02  0.1237179E+00
          2   -1    0    0  501    0  0.00000000000E+00  0.00000000000E+00  0.13024644212E+04  0.13024644212E+04  0.00000000000E+00 0.  1.
         -2   -1    0    0    0  501 -0.00000000000E+00 -0.00000000000E+00 -0.20977155082E+02  0.20977155082E+02  0.00000000000E+00 0. -1.
         25    2    1    2    0    0  0.12783453668E+02 -0.23417888098E+02  0.69910147481E+03  0.71070548494E+03  0.12509036761E+03 0.  0.
          5    1    3    3  502    0 -0.26887977377E+02 -0.42211018282E+02  0.60164056116E+03  0.60373302926E+03  0.41800000000E+01 0. -1.
         -5    1    3    3    0  502  0.39671431045E+02  0.18793130184E+02  0.97460913656E+02  0.10697245568E+03  0.41800000000E+01 0. -1.
        -11    1    1    2    0    0 -0.25783487979E+02  0.85639487089E+02  0.50372076765E+03  0.51159898530E+03  0.00000000000E+00 0.  1.
         11    1    1    2    0    0  0.13000034312E+02 -0.62221598991E+02  0.78665023695E+02  0.10113710608E+03  0.00000000000E+00 0. -1.
</event>
<event>
 8    1  0.6648599E-009  0.1092124E+03  0.7561462E-02  0.1262035E+00
          2   -1    0    0  501    0  0.00000000000E+00  0.00000000000E+00  0.27905919361E+03  0.27905919361E+03  0.00000000000E+00 0. -1.
         -2   -1    0    0    0  501 -0.00000000000E+00 -0.00000000000E+00 -0.52826451045E+02  0.52826451045E+02  0.00000000000E+00 0.  1.
         25    2    1    2    0    0  0.24939749743E+02 -0.33475677777E+02  0.79144707974E+02  0.15379732652E+03  0.12508845160E+03 0.  0.
         23    2    1    2    0    0 -0.24939749743E+02  0.33475677777E+02  0.14708803459E+03  0.17808831813E+03  0.91312359605E+02 0.  0.
          5    1    3    3  502    0  0.25617312820E+02  0.42661778349E+02  0.53886943729E+02  0.73468014486E+02  0.41800000000E+01 0.  1.
         -5    1    3    3    0  502 -0.67756307670E+00 -0.76137456126E+02  0.25257764245E+02  0.80329312033E+02  0.41800000000E+01 0.  1.
        -11    1    4    4    0    0 -0.50536511917E+02  0.41515622803E+02  0.67016258068E+02  0.93641149176E+02  0.00000000000E+00 0.  1.
         11    1    4    4    0    0  0.25596762174E+02 -0.80399450269E+01  0.80071776521E+02  0.84447168958E+02  0.00000000000E+00 0. -1.
</event>
<event>
 8    1  0.6648599E-009  0.1025631E+03  0.7561462E-02  0.1274997E+00
          2   -1    0    0  501    0  0.00000000000E+00  0.00000000000E+00  0.41344377670E+03  0.41344377670E+03  0.00000000000E+00 0. -1.
         -2   -1    0    0    0  501 -0.00000000000E+00 -0.00000000000E+00 -0.30332060994E+02  0.30332060994E+02  0.00000000000E+00 0.  1.
         25    2    1    2    0    0 -0.83979061717E+01  0.10161506711E+01  0.16634639610E+03  0.20830936882E+03  0.12510040868E+03 0.  0.
         23    2    1    2    0    0  0.83979061717E+01 -0.10161506711E+01  0.21676531960E+03  0.23546646887E+03  0.91573450240E+02 0.  0.
          5    1    3    3  502    0 -0.59650698191E+02 -0.20372257737E+02  0.12096695990E+03  0.13646872341E+03  0.41800000000E+01 0.  1.
         -5    1    3    3    0  502  0.51252792019E+02  0.21388408408E+02  0.45379436194E+02  0.71840645413E+02  0.41800000000E+01 0.  1.
        -11    1    4    4    0    0  0.35545400346E+02  0.28937488310E+02  0.15510689692E+03  0.16173745141E+03  0.00000000000E+00 0. -1.
         11    1    4    4    0    0 -0.27147494175E+02 -0.29953638981E+02  0.61658422685E+02  0.73729017464E+02  0.00000000000E+00 0.  1.
</event>
<event>
 8    1  0.6648599E-009  0.2765207E+03  0.7561462E-02  0.1097605E+00
         -2   -1    0    0    0  501 -0.00000000000E+00  0.00000000000E+00  0.14482354992E+04  0.14482354992E+04  0.00000000000E+00 0.  1.
          2   -1    0    0  501    0  0.00000000000E+00 -0.00000000000E+00 -0.12279928597E+03  0.12279928597E+03  0.00000000000E+00 0. -1.
         25    2    1    2    0    0  0.11938957611E+03 -0.23564856157E+03  0.12475673703E+04  0.12813491799E+04  0.12508901660E+03 0.  0.
         23    2    1    2    0    0 -0.11938957611E+03  0.23564856157E+03  0.77868842928E+02  0.28968560521E+03  0.89833611253E+02 0.  0.
          5    1    3    3  502    0 -0.14277186886E+02 -0.23655609409E+01  0.17277721434E+03  0.17343261556E+03  0.41800000000E+01 0.  1.
         -5    1    3    3    0  502  0.13366676300E+03 -0.23328300063E+03  0.10747901559E+04  0.11079165644E+04  0.41800000000E+01 0.  1.
        -11    1    4    4    0    0 -0.13920666151E+02  0.38913784941E+01  0.26120359570E+02  0.29852989076E+02  0.00000000000E+00 0.  1.
         11    1    4    4    0    0 -0.10546890996E+03  0.23175718308E+03  0.51748483358E+02  0.25983261613E+03  0.00000000000E+00 0. -1.
</event>
<event>
 8    1  0.6648599E-009  0.7139936E+02  0.7561462E-02  0.1355398E+00
          1   -1    0    0  501    0  0.00000000000E+00  0.00000000000E+00  0.22619950003E+04  0.22619950003E+04  0.00000000000E+00 0. -1.
         -1   -1    0    0    0  501 -0.00000000000E+00 -0.00000000000E+00 -0.18161281202E+02  0.18161281202E+02  0.00000000000E+00 0.  1.
         25    2    1    2    0    0  0.11686592822E+02  0.15227418864E+02  0.21292493632E+04  0.21330070572E+04  0.12509118478E+03 0.  0.
         23    2    1    2    0    0 -0.11686592822E+02 -0.15227418864E+02  0.11458435587E+03  0.14714922430E+03  0.90304312555E+02 0.  0.
          5    1    3    3  502    0 -0.19409140153E+02  0.12540780438E+02  0.19940711240E+04  0.19942093937E+04  0.41800000000E+01 0. -1.
         -5    1    3    3    0  502  0.31095732975E+02  0.26866384258E+01  0.13517823921E+03  0.13879766350E+03  0.41800000000E+01 0. -1.
        -11    1    4    4    0    0 -0.45601026645E+02  0.85637487425E+01  0.82875542130E+02  0.94979718398E+02  0.00000000000E+00 0.  1.
         11    1    4    4    0    0  0.33914433824E+02 -0.23791167607E+02  0.31708813739E+02  0.52169505905E+02  0.00000000000E+00 0. -1.
</event>
<event>
 8    1  0.6648599E-009  0.8815852E+02  0.7561462E-02  0.1307373E+00
          1   -1    0    0  501    0  0.00000000000E+00  0.00000000000E+00  0.39559872234E+02  0.39559872234E+02  0.00000000000E+00 0. -1.
         -1   -1    0    0    0  501 -0.00000000000E+00 -0.00000000000E+00 -0.32389345774E+03  0.32389345774E+03  0.00000000000E+00 0.  1.
         25    2    1    2    0    0  0.35294607246E+01  0.29229814193E+02 -0.14126716077E+03  0.19097299969E+03  0.12508971488E+03 0.  0.
         23    2    1    2    0    0 -0.35294607246E+01 -0.29229814193E+02 -0.14306642473E+03  0.17248033028E+03  0.91731255945E+02 0.  0.
          5    1    3    3  502    0 -0.60424409827E+01  0.74093532242E+02 -0.52949773652E+02  0.91364728112E+02  0.41800000000E+01 0. -1.
         -5    1    3    3    0  502  0.95719017073E+01 -0.44863718048E+02 -0.88317387119E+02  0.99608271579E+02  0.41800000000E+01 0. -1.
        -11    1    4    4    0    0  0.14990277775E+02 -0.33578967995E+02 -0.14826665080E+03  0.15275881401E+03  0.00000000000E+00 0.  1.
         11    1    4    4    0    0 -0.18519738500E+02  0.43491538014E+01  0.52002260639E+01  0.19721516271E+02  0.00000000000E+00 0. -1.
</event>
<event>
 8    1  0.6648599E-009  0.2034687E+03  0.7561462E-02  0.1146845E+00
          2   -1    0    0  501    0  0.00000000000E+00  0.00000000000E+00  0.27700228922E+03  0.27700228922E+03  0.00000000000E+00 0. -1.
         -2   -1    0    0    0  501 -0.00000000000E+00 -0.00000000000E+00 -0.19229595083E+03  0.19229595083E+03  0.00000000000E+00 0.  1.
         25    2    1    2    0    0 -0.17371393900E+03 -0.61003492064E+02  0.13123719207E+03  0.25839246698E+03  0.12508200415E+03 0.  0.
         23    2    1    2    0    0  0.17371393900E+03  0.61003492064E+02 -0.46530853684E+02  0.21090577307E+03  0.91750564692E+02 0.  0.
          5    1    3    3  502    0 -0.39879647247E+02  0.34720374621E+02  0.10026055879E+02  0.53980411955E+02  0.41800000000E+01 0. -1.
         -5    1    3    3    0  502 -0.13383429176E+03 -0.95723866685E+02  0.12121113619E+03  0.20441205502E+03  0.41800000000E+01 0. -1.
        -11    1    4    4    0    0  0.10764802975E+03  0.59969755812E+02  0.10433759419E+02  0.12366621712E+03  0.00000000000E+00 0. -1.
         11    1    4    4    0    0  0.66065909253E+02  0.10337362519E+01 -0.56964613104E+02  0.87239555949E+02  0.00000000000E+00 0.  1.
</event>
<event>
 7    1  0.6648599E-009  0.1068983E+03  0.7561462E-02  0.1266424E+00
         -1   -1    0    0    0  501 -0.00000000000E+00  0.00000000000E+00  0.33606749115E+02  0.33606749115E+02  0.00000000000E+00 0.  1.
          1   -1    0    0  501    0  0.00000000000E+00 -0.00000000000E+00 -0.36899181887E+03  0.36899181887E+03  0.00000000000E+00 0. -1.
         25    2    1    2    0    0 -0.61340492513E+02 -0.32734183149E+02 -0.17509238888E+03  0.22613953160E+03  0.12509020881E+03 0.  0.
          5    1    3    3  502    0 -0.28997596301E+02 -0.78618303873E+02 -0.12639313739E+03  0.15170496325E+03  0.41800000000E+01 0.  1.
         -5    1    3    3    0  502 -0.32342896212E+02  0.45884120724E+02 -0.48699251489E+02  0.74434568351E+02  0.41800000000E+01 0.  1.
        -11    1    1    2    0    0  0.10945900308E+02 -0.35487392488E+01 -0.29807838746E+02  0.31951737582E+02  0.00000000000E+00 0.  1.
         11    1    1    2    0    0  0.50394592205E+02  0.36282922398E+02 -0.13048484213E+03  0.14450729880E+03  0.00000000000E+00 0. -1.
</event>
<event>
 8    1  0.6648599E-009  0.8976109E+02  0.7561462E-02  0.1303431E+00
         -1   -1    0    0    0  501 -0.00000000000E+00  0.00000000000E+00  0.17747866294E+03  0.17747866294E+03  0.00000000000E+00 0.  1.
          1   -1    0    0  501    0  0.00000000000E+00 -0.00000000000E+00 -0.89430146415E+02  0.89430146415E+02  0.00000000000E+00 0. -1.
         25    2    1    2    0    0  0.40118870467E+02 -0.25215854307E+02  0.94515607029E+02  0.16378702068E+03  0.12509046765E+03 0.  0.
         23    2    1    2    0    0 -0.40118870467E+02  0.25215854307E+02 -0.64670905085E+01  0.10312178867E+03  0.91361463221E+02 0.  0.
          5    1    3    3  502    0 -0.15485114332E+02 -0.41619386880E+02 -0.85939535550E+01  0.45423458343E+02  0.41800000000E+01 0. -1.
         -5    1    3    3    0  502  0.55603984799E+02  0.16403532572E+02  0.10310956058E+03  0.11836356234E+03  0.41800000000E+01 0. -1.
        -11    1    4    4    0    0  0.14338503690E+02  0.16136314171E+02  0.29997849442E+02  0.36957330724E+02  0.00000000000E+00 0.  1.
         11    1    4    4    0    0 -0.54457374157E+02  0.90795401364E+01 -0.36464939950E+02  0.66164457942E+02  0.00000000000E+00 0. -1.
</event>
<event>
 8    1  0.6648599E-009  0.1068361E+03  0.7561462E-02  0.1266544E+00
         -1   -1    0    0    0  501 -0.00000000000E+00  0.00000000000E+00  0.58449257595E+03  0.58449257595E+03  0.00000000000E+00 0.  1.
          1   -1    0    0  501    0  0.00000000000E+00 -0.00000000000E+00 -0.35331893296E+02  0.35331893296E+02  0.00000000000E+00 0. -1.
         25    2    1    2    0    0  0.82618887050E+02  0.46698506530E+02  0.30128932759E+03  0.33974803572E+03  0.12508732090E+03 0.  0.
         23    2    1    2    0    0 -0.82618887050E+02 -0.46698506530E+02  0.24787135507E+03  0.28007643352E+03  0.89420181964E+02 0.  0.
          5    1    3    3  502    0  0.60773719018E+02 -0.40357642245E+01  0.26854813518E+03  0.27540026439E+03  0.41800000000E+01 0. -1.
         -5    1    3    3    0  502  0.21845168032E+02  0.50734270755E+02  0.32741192403E+02  0.64347771332E+02  0.41800000000E+01 0. -1.
        -11    1    4    4    0    0 -0.52442578065E+02 -0.40880482170E+02  0.23901759839E+03  0.24809443798E+03  0.00000000000E+00 0.  1.
         11    1    4    4    0    0 -0.30176308985E+02 -0.58180243605E+01  0.88537566729E+01  0.31981995539E+02  0.00000000000E+00 0. -1.
</event>
<event>
 8    1  0.6648599E-009  0.1087970E+03  0.7561462E-02  0.1262814E+00
          2   -1    0    0  501    0  0.00000000000E+00  0.00000000000E+00  0.10998085685E+03  0.10998085685E+03  0.00000000000E+00 0. -1.
         -2   -1    0    0    0  501 -0.00000000000E+00 -0.00000000000E+00 -0.15683237789E+03  0.15683237789E+03  0.00000000000E+00 0.  1.
         25    2    1    2    0    0  0.23173783860E+02  0.69465236729E+02 -0.23611329891E+02  0.14685884381E+03  0.12509029433E+03 0.  0.
         23    2    1    2    0    0 -0.23173783860E+02 -0.69465236729E+02 -0.23240191153E+02  0.11995439093E+03  0.92122234268E+02 0.  0.
          5    1    3    3  502    0  0.33116952144E+02 -0.29266404480E+02  0.14864907352E+01  0.44417755517E+02  0.41800000000E+01 0.  1.
         -5    1    3    3    0  502 -0.99431682831E+01  0.98731641209E+02 -0.25097820626E+02  0.10244108830E+03  0.41800000000E+01 0.  1.
        -11    1    4    4    0    0 -0.69878357413E+01 -0.36435656824E+02  0.35044168853E+02  0.51034113170E+02  0.00000000000E+00 0. -1.
         11    1    4    4    0    0 -0.16185948119E+02 -0.33029579905E+02 -0.58284360006E+02  0.68920277760E+02  0.00000000000E+00 0.  1.
</event>
<event>
 8    1  0.6648599E-009  0.1021162E+03  0.7561462E-02  0.1275908E+00
          2   -1    0    0  501    0  0.00000000000E+00  0.00000000000E+00  0.11560549327E+03  0.11560549327E+03  0.00000000000E+00 0. -1.
         -2   -1    0    0    0  501 -0.00000000000E+00 -0.00000000000E+00 -0.11227533215E+03  0.11227533215E+03  0.00000000000E+00 0.  1.
         25    2    1    2    0    0  0.26853335111E+02  0.65857117919E+01  0.13404429735E+02  0.12880660021E+03  0.12508792234E+03 0.  0.
         23    2    1    2    0    0 -0.26853335111E+02 -0.65857117919E+01 -0.10074268612E+02  0.99074225217E+02  0.94603054960E+02 0.  0.
          5    1    3    3  502    0 -0.33535114077E+02 -0.30309798578E+02 -0.20989077890E+02  0.50013013873E+02  0.41800000000E+01 0. -1.
         -5    1    3    3    0  502  0.60388449188E+02  0.36895510370E+02  0.34393507624E+02  0.78793586335E+02  0.41800000000E+01 0. -1.
        -11    1    4    4    0    0  0.79816476033E+01 -0.39333409646E+02 -0.26982034066E+02  0.48361699465E+02  0.00000000000E+00 0.  1.
         11    1    4    4    0    0 -0.34834982715E+02  0.32747697854E+02  0.16907765454E+02  0.50712525752E+02  0.00000000000E+00 0. -1.
</event>
<event>
 8    1  0.6648599E-009  0.8190871E+02  0.7561462E-02  0.1323720E+00
         -1   -1    0    0    0  501 -0.00000000000E+00  0.00000000000E+00  0.84370155805E+02  0.84370155805E+02  0.00000000000E+00 0.  1.
          1   -1    0    0  501    0  0.00000000000E+00 -0.00000000000E+00 -0.15501042727E+03  0.15501042727E+03  0.00000000000E+00 0. -1.
         25    2    1    2    0    0 -0.21825637833E+02 -0.29078619755E+02 -0.44809492515E+02  0.13775752685E+03  0.12508925210E+03 0.  0.
         23    2    1    2    0    0  0.21825637833E+02  0.29078619755E+02 -0.25830778953E+02  0.10162305623E+03  0.91313152519E+02 0.  0.
          5    1    3    3  502    0 -0.35066504336E+02 -0.44775080823E+02 -0.79134548992E+02  0.97540846999E+02  0.41800000000E+01 0.  1.
         -5    1    3    3    0  502  0.13240866504E+02  0.15696461068E+02  0.34325056477E+02  0.40216679848E+02  0.41800000000E+01 0.  1.
        -11    1    4    4    0    0 -0.16421992599E+02  0.42292838574E+02  0.11243193790E+02  0.46741581511E+02  0.00000000000E+00 0.  1.
         11    1    4    4    0    0  0.38247630431E+02 -0.13214218819E+02 -0.37073972742E+02  0.54881474721E+02  0.00000000000E+00 0. -1.
</event>
<event>
 8    1  0.6648599E-009  0.7260061E+02  0.7561462E-02  0.1351466E+00
          2   -1    0    0  501    0  0.00000000000E+00  0.00000000000E+00  0.11614949402E+03  0.11614949402E+03  0.00000000000E+00 0. -1.
         -2   -1    0    0    0  501 -0.00000000000E+00 -0.00000000000E+00 -0.13186727830E+03  0.13186727830E+03  0.00000000000E+00 0.  1.
         25    2    1    2    0    0  0.32417257663E+02  0.21931017609E+02 -0.56579570515E+02  0.14275683607E+03  0.12508564393E+03 0.  0.
         23    2    1    2    0    0 -0.32417257663E+02 -0.21931017609E+02  0.40861786243E+02  0.10525993625E+03  0.88758776896E+02 0.  0.
          5    1    3    3  502    0  0.67289381971E+02  0.66043293166E+01 -0.74293052917E+02  0.10054057988E+03  0.41800000000E+01 0.  1.
         -5    1    3    3    0  502 -0.34872124308E+02  0.15326688292E+02  0.17713482402E+02  0.42216256189E+02  0.41800000000E+01 0.  1.
        -11    1    4    4    0    0 -0.96309601362E+01 -0.66014445207E+01 -0.28424582873E+02  0.30729324340E+02  0.00000000000E+00 0.  1.
         11    1    4    4    0    0 -0.22786297527E+02 -0.15329573088E+02  0.69286369115E+02  0.74530611907E+02  0.00000000000E+00 0. -1.
</event>
<event>
 8    1  0.6648599E-009  0.2048201E+03  0.7561462E-02  0.1145735E+00
         -2   -1    0    0    0  501 -0.00000000000E+00  0.00000000000E+00  0.23263217653E+02  0.23263217653E+02  0.00000000000E+00 0.  1.
          2   -1    0    0  501    0  0.00000000000E+00 -0.00000000000E+00 -0.27788912624E+04  0.27788912624E+04  0.00000000000E+00 0. -1.
         25    2    1    2    0    0 -0.19992591066E+03 -0.11767035916E+02 -0.20372099092E+04  0.20508485836E+04  0.12508743301E+03 0.  0.
         23    2    1    2    0    0  0.19992591066E+03  0.11767035916E+02 -0.71841813554E+03  0.75130589643E+03  0.90703360709E+02 0.  0.
          5    1    3    3  502    0 -0.87697017400E+01 -0.25393904515E+01 -0.85817790155E+01  0.13208917577E+02  0.41800000000E+01 0. -1.
         -5    1    3    3    0  502 -0.19115620892E+03 -0.92276454648E+01 -0.20286281302E+04  0.20376396660E+04  0.41800000000E+01 0. -1.
        -11    1    4    4    0    0  0.10999698097E+03  0.34749209241E+02 -0.27389858448E+03  0.29719905441E+03  0.00000000000E+00 0.  1.
         11    1    4    4    0    0  0.89928929694E+02 -0.22982173325E+02 -0.44451955106E+03  0.45410684201E+03  0.00000000000E+00 0. -1.
</event>
<event>
 8    1  0.6648599E-009  0.1592620E+03  0.7561462E-02  0.1189533E+00
         -1   -1    0    0    0  501 -0.00000000000E+00  0.00000000000E+00  0.63430352948E+02  0.63430352948E+02  0.00000000000E+00 0.  1.
          1   -1    0    0  501    0  0.00000000000E+00 -0.00000000000E+00 -0.52014964436E+03  0.52014964436E+03  0.00000000000E+00 0. -1.
         25    2    1    2    0    0  0.14504438918E+03  0.97566173705E+01 -0.23208044261E+03  0.30106779602E+03  0.12508964601E+03 0.  0.
         23    2    1    2    0    0 -0.14504438918E+03 -0.97566173705E+01 -0.22463884880E+03  0.28251220129E+03  0.90650234815E+02 0.  0.
          5    1    3    3  502    0  0.64432941593E+02 -0.69526439664E+01 -0.11979400810E+02  0.66037274809E+02  0.41800000000E+01 0. -1.
         -5    1    3    3    0  502  0.80611447591E+02  0.16709261337E+02 -0.22010104180E+03  0.23503052121E+03  0.41800000000E+01 0. -1.
        -11    1    4    4    0    0 -0.12005573918E+03  0.30408814846E+02 -0.16805922644E+03  0.20876297593E+03  0.00000000000E+00 0. -1.
         11    1    4    4    0    0 -0.24988650009E+02 -0.40165432216E+02 -0.56579622360E+02  0.73749225357E+02  0.00000000000E+00 0.  1.
</event>
<event>
 8    1  0.6648599E-009  0.1478994E+03  0.7561462E-02  0.1203078E+00
          2   -1    0    0  501    0  0.00000000000E+00  0.00000000000E+00  0.36899469295E+03  0.36899469295E+03  0.00000000000E+00 0. -1.
         -2   -1    0    0    0  501 -0.00000000000E+00 -0.00000000000E+00 -0.13156285556E+03  0.13156285556E+03  0.00000000000E+00 0.  1.
         25    2    1    2    0    0  0.94984142301E+02 -0.91251565753E+02  0.28021222375E+03  0.33393968234E+03  0.12509190845E+03 0.  0.
         23    2    1    2    0    0 -0.94984142301E+02  0.91251565753E+02 -0.42780386362E+02  0.16661786616E+03  0.92641871347E+02 0.  0.
          5    1    3    3  502    0  0.54741224279E+02 -0.10589497518E+03  0.12460932115E+03  0.17249725424E+03  0.41800000000E+01 0. -1.
         -5    1    3    3    0  502  0.40242918022E+02  0.14643409432E+02  0.15560290260E+03  0.16144242810E+03  0.41800000000E+01 0. -1.
        -11    1    4    4    0    0 -0.23971135378E+02  0.11131841681E+02 -0.52844245421E+02  0.59085086990E+02  0.00000000000E+00 0.  1.
         11    1    4    4    0    0 -0.71013006923E+02  0.80119724072E+02  0.10063859059E+02  0.10753277917E+03  0.00000000000E+00 0. -1.
</event>
<event>
 8    1  0.6648599E-009  0.9893587E+02  0.7561462E-02  0.1282550E+00
          3   -1    0    0  501    0  0.00000000000E+00  0.00000000000E+00  0.59525196794E+02  0.59525196794E+02  0.00000000000E+00 0. -1.
         -3   -1    0    0    0  501 -0.00000000000E+00 -0.00000000000E+00 -0.23196620163E+03  0.23196620163E+03  0.00000000000E+00 0.  1.
         25    2    1    2    0    0 -0.25904456671E+02  0.37697225082E+02 -0.89361580258E+02  0.16038378803E+03  0.12508135666E+03 0.  0.
         23    2    1    2    0    0  0.25904456671E+02 -0.37697225082E+02 -0.83079424581E+02  0.13110761039E+03  0.90525648631E+02 0.  0.
          5    1    3    3  502    0 -0.15210206872E+02 -0.29797552916E+02 -0.85389030719E+02  0.91804158511E+02  0.41800000000E+01 0.  1.
         -5    1    3    3    0  502 -0.10694249799E+02  0.67494777997E+02 -0.39725495393E+01  0.68579629523E+02  0.41800000000E+01 0.  1.
        -11    1    4    4    0    0 -0.18433060836E+02  0.17141657553E+02 -0.43450860345E+02  0.50215450014E+02  0.00000000000E+00 0.  1.
         11    1    4    4    0    0  0.44337517507E+02 -0.54838882635E+02 -0.39628564236E+02  0.80892160379E+02  0.00000000000E+00 0. -1.
</event>
<event>
 8    1  0.6648599E-009  0.1092803E+03  0.7561462E-02  0.1261909E+00
          2   -1    0    0  501    0  0.00000000000E+00  0.00000000000E+00  0.23626313425E+03  0.23626313425E+03  0.00000000000E+00 0.  1.
         -2   -1    0    0    0  501 -0.00000000000E+00 -0.00000000000E+00 -0.76100651007E+02  0.76100651007E+02  0.00000000000E+00 0. -1.
         25    2    1    2    0    0 -0.46401778829E+02  0.60417773389E+02  0.66706928459E+02  0.16093781577E+03  0.12509090223E+03 0.  0.
         23    2    1    2    0    0  0.46401778829E+02 -0.60417773389E+02  0.93455554789E+02  0.15142596950E+03  0.91610322000E+02 0.  0.
          5    1    3    3  502    0 -0.55418507523E+01 -0.36436346485E+02  0.14115041180E+01  0.37118515580E+02  0.41800000000E+01 0. -1.
         -5    1    3    3    0  502 -0.40859928077E+02  0.96854119874E+02  0.65295424341E+02  0.12381930019E+03  0.41800000000E+01 0. -1.
        -11    1    4    4    0    0  0.18754676267E+02 -0.27354829757E+02  0.10220159303E+03  0.10744854680E+03  0.00000000000E+00 0.  1.
         11    1    4    4    0    0  0.27647102562E+02 -0.33062943632E+02 -0.87460382389E+01  0.43977422691E+02  0.00000000000E+00 0. -1.
</event>
<event>
 8    1  0.6648599E-009  0.1291132E+03  0.7561462E-02  0.1228778E+00
         -1   -1    0    0    0  501 -0.00000000000E+00  0.00000000000E+00  0.21202670412E+03  0.21202670412E+03  0.00000000000E+00 0.  1.
          1   -1    0    0  501    0  0.00000000000E+00 -0.00000000000E+00 -0.79631211725E+02  0.79631211725E+02  0.00000000000E+00 0. -1.
         25    2    1    2    0    0 -0.69555267740E+02 -0.11152767494E+02  0.77084879841E+02  0.16294774376E+03  0.12509024344E+03 0.  0.
         23    2    1    2    0    0  0.69555267740E+02  0.11152767494E+02  0.55310612558E+02  0.12871017209E+03  0.92437681953E+02 0.  0.
          5    1    3    3  502    0 -0.84433517355E+00 -0.59362619341E+02  0.32632361814E+02  0.67874714839E+02  0.41800000000E+01 0. -1.
         -5    1    3    3    0  502 -0.68710932567E+02  0.48209851846E+02  0.44452518027E+02  0.95073028921E+02  0.41800000000E+01 0. -1.
        -11    1    4    4    0    0  0.60740763440E+02 -0.33355952691E+02  0.23021892114E+02  0.73021006838E+02  0.00000000000E+00 0.  1.
         11    1    4    4    0    0  0.88145043009E+01  0.44508720185E+02  0.32288720444E+02  0.55689165253E+02  0.00000000000E+00 0. -1.
</event>
<event>
 8    1  0.6648599E-009  0.1439716E+03  0.7561462E-02  0.1208083E+00
         -2   -1    0    0    0  501 -0.00000000000E+00  0.00000000000E+00  0.11420512246E+03  0.11420512246E+03  0.00000000000E+00 0.  1.
          2   -1    0    0  501    0  0.00000000000E+00 -0.00000000000E+00 -0.29926171394E+03  0.29926171394E+03  0.00000000000E+00 0. -1.
         25    2    1    2    0    0  0.29033197857E+02  0.12339495786E+03 -0.91779418714E+01  0.17832613929E+03  0.12508691032E+03 0.  0.
         23    2    1    2    0    0 -0.29033197857E+02 -0.12339495786E+03 -0.17587864961E+03  0.23514069711E+03  0.91041780761E+02 0.  0.
          5    1    3    3  502    0  0.45037243190E+01 -0.14830334476E+02 -0.32223635295E+02  0.36000797561E+02  0.41800000000E+01 0. -1.
         -5    1    3    3    0  502  0.24529473538E+02  0.13822529233E+03  0.23045693423E+02  0.14232534173E+03  0.41800000000E+01 0. -1.
        -11    1    4    4    0    0 -0.32487035377E+02 -0.62398922362E+02 -0.15560874861E+03  0.17077211606E+03  0.00000000000E+00 0. -1.
         11    1    4    4    0    0  0.34538375202E+01 -0.60996035496E+02 -0.20269901007E+02  0.64368581052E+02  0.00000000000E+00 0.  1.
</event>
<event>
 8    1  0.6648599E-009  0.8759744E+02  0.7561462E-02  0.1308776E+00
         -2   -1    0    0    0  501 -0.00000000000E+00  0.00000000000E+00  0.67234213183E+02  0.67234213183E+02  0.00000000000E+00 0.  1.
          2   -1    0    0  501    0  0.00000000000E+00 -0.00000000000E+00 -0.18870682023E+03  0.18870682023E+03  0.00000000000E+00 0. -1.
         25    2    1    2    0    0 -0.36376504336E+01 -0.19957127414E+02 -0.98063015471E+02  0.16023083406E+03  0.12508415465E+03 0.  0.
         23    2    1    2    0    0  0.36376504336E+01  0.19957127414E+02 -0.23409591579E+02  0.95710199357E+02  0.90558897121E+02 0.  0.
          5    1    3    3  502    0  0.50938746439E+02 -0.20099938434E+02 -0.89243346757E+02  0.10478840945E+03  0.41800000000E+01 0. -1.
         -5    1    3    3    0  502 -0.54576396873E+02  0.14281102059E+00 -0.88196687133E+01  0.55442424612E+02  0.41800000000E+01 0. -1.
        -11    1    4    4    0    0 -0.10057639774E+02 -0.20495435528E+02  0.23161082799E+02  0.32521604385E+02  0.00000000000E+00 0.  1.
         11    1    4    4    0    0  0.13695290207E+02  0.40452562942E+02 -0.46570674379E+02  0.63188594972E+02  0.00000000000E+00 0. -1.
</event>
<event>
 8    1  0.6648599E-009  0.1078066E+03  0.7561462E-02  0.1264686E+00
          1   -1    0    0  501    0  0.00000000000E+00  0.00000000000E+00  0.76145452675E+03  0.76145452675E+03  0.00000000000E+00 0. -1.
         -1   -1    0    0    0  501 -0.00000000000E+00 -0.00000000000E+00 -0.36815803057E+02  0.36815803057E+02  0.00000000000E+00 0.  1.
         25    2    1    2    0    0 -0.56171768507E+02 -0.61425723353E+02  0.61452685707E+03  0.63262802395E+03  0.12508625646E+03 0.  0.
         23    2    1    2    0    0  0.56171768507E+02  0.61425723353E+02  0.11011186662E+03  0.16564230586E+03  0.91566168714E+02 0.  0.
          5    1    3    3  502    0 -0.60644708912E+02 -0.60821984156E+02  0.19573974253E+03  0.21379572887E+03  0.41800000000E+01 0.  1.
         -5    1    3    3    0  502  0.44729404048E+01 -0.60373919704E+00  0.41878711454E+03  0.41883229508E+03  0.41800000000E+01 0.  1.
        -11    1    4    4    0    0 -0.19512477579E+02 -0.76922183646E+01  0.23017163645E+02  0.31139955474E+02  0.00000000000E+00 0.  1.
         11    1    4    4    0    0  0.75684246086E+02  0.69117941717E+02  0.87094702976E+02  0.13450235039E+03  0.00000000000E+00 0. -1.
</event>
<event>
 8    1  0.6648599E-009  0.1521626E+03  0.7561462E-02  0.1197841E+00
          2   -1    0    0  501    0  0.00000000000E+00  0.00000000000E+00  0.70139149997E+02  0.70139149997E+02  0.00000000000E+00 0.  1.
         -2   -1    0    0    0  501 -0.00000000000E+00 -0.00000000000E+00 -0.45094861957E+03  0.45094861957E+03  0.00000000000E+00 0. -1.
         25    2    1    2    0    0  0.10337602900E+03  0.74690032184E+02 -0.11166254097E+03  0.21067029814E+03  0.12509295417E+03 0.  0.
         23    2    1    2    0    0 -0.10337602900E+03 -0.74690032184E+02 -0.26914692860E+03  0.31041747143E+03  0.87485616614E+02 0.  0.
          5    1    3    3  502    0  0.67930971996E+02 -0.10103088409E+02 -0.38103542776E+01  0.68910670810E+02  0.41800000000E+01 0.  1.
         -5    1    3    3    0  502  0.35445057002E+02  0.84793120594E+02 -0.10785218670E+03  0.14175962733E+03  0.41800000000E+01 0.  1.
        -11    1    4    4    0    0 -0.10422264230E+03 -0.44509188383E+02 -0.15294128379E+03  0.19035352192E+03  0.00000000000E+00 0. -1.
         11    1    4    4    0    0  0.84661330320E+00 -0.30180843801E+02 -0.11620564481E+03  0.12006394951E+03  0.00000000000E+00 0.  1.
</event>
<event>
 7    1  0.6648599E-009  0.2122839E+03  0.7561462E-02  0.1139770E+00
         -1   -1    0    0    0  501 -0.00000000000E+00  0.00000000000E+00  0.44056696478E+02  0.44056696478E+02  0.00000000000E+00 0.  1.
          1   -1    0    0  501    0  0.00000000000E+00 -0.00000000000E+00 -0.11100974322E+04  0.11100974322E+04  0.00000000000E+00 0. -1.
         25    2    1    2    0    0  0.78842840729E+02  0.70710380087E+02 -0.47422054193E+03  0.50174478506E+03  0.12508619252E+03 0.  0.
          5    1    3    3  502    0  0.38682429446E+02  0.95503564449E+02 -0.21776348552E+03  0.24094744074E+03  0.41800000000E+01 0.  1.
         -5    1    3    3    0  502  0.40160411283E+02 -0.24793184362E+02 -0.25645705641E+03  0.26079734432E+03  0.41800000000E+01 0.  1.
        -11    1    1    2    0    0 -0.22573351427E+02  0.95735725423E+02 -0.19373029613E+03  0.21727013820E+03  0.00000000000E+00 0. -1.
         11    1    1    2    0    0 -0.56269489303E+02 -0.16644610551E+03 -0.39808989765E+03  0.43513920540E+03  0.00000000000E+00 0.  1.
</event>
<event>
 8    1  0.6648599E-009  0.1971757E+03  0.7561462E-02  0.1152144E+00
          1   -1    0    0  501    0  0.00000000000E+00  0.00000000000E+00  0.23602281686E+04  0.23602281686E+04  0.00000000000E+00 0. -1.
         -1   -1    0    0    0  501 -0.00000000000E+00 -0.00000000000E+00 -0.20258489222E+02  0.20258489222E+02  0.00000000000E+00 0.  1.
         25    2    1    2    0    0 -0.53115518395E+01  0.17616134299E+03  0.16060394102E+04  0.16205149830E+04  0.12508074051E+03 0.  0.
         23    2    1    2    0    0  0.53115518395E+01 -0.17616134299E+03  0.73393026917E+03  0.75997167482E+03  0.88556621292E+02 0.  0.
          5    1    3    3  502    0  0.45123893691E+02  0.10945698273E+03  0.12061446211E+04  0.12119485617E+04  0.41800000000E+01 0.  1.
         -5    1    3    3    0  502 -0.50435445531E+02  0.66704360263E+02  0.39989478919E+03  0.40856642136E+03  0.41800000000E+01 0.  1.
        -11    1    4    4    0    0 -0.33969923332E+02 -0.53655821511E+02  0.16797454890E+03  0.17957826135E+03  0.00000000000E+00 0. -1.
         11    1    4    4    0    0  0.39281475172E+02 -0.12250552148E+03  0.56595572028E+03  0.58039341347E+03  0.00000000000E+00 0.  1.
</event>
<event>
 8    1  0.6648599E-009  0.3597146E+03  0.7561462E-02  0.1058697E+00
          2   -1    0    0  501    0  0.00000000000E+00  0.00000000000E+00  0.43212585381E+03  0.43212585381E+03  0.00000000000E+00 0. -1.
         -2   -1    0    0    0  501 -0.00000000000E+00 -0.00000000000E+00 -0.40203184833E+03  0.40203184833E+03  0.00000000000E+00 0.  1.
         25    2    1    2    0    0  0.12447783706E+03  0.33369015024E+03  0.20201177147E+03  0.42813441914E+03  0.12508587750E+03 0.  0.
         23    2    1    2    0    0 -0.12447783706E+03 -0.33369015024E+03 -0.17191776599E+03  0.40602328300E+03  0.91952921579E+02 0.  0.
          5    1    3    3  502    0  0.10345955589E+03  0.21015526427E+03  0.19100221435E+03  0.30227211762E+03  0.41800000000E+01 0.  1.
         -5    1    3    3    0  502  0.21018281165E+02  0.12353488597E+03  0.11009557125E+02  0.12586230151E+03  0.41800000000E+01 0.  1.
        -11    1    4    4    0    0 -0.30843088075E+02 -0.34530539900E+02 -0.53941789111E+02  0.71087065492E+02  0.00000000000E+00 0. -1.
         11    1    4    4    0    0 -0.93634748983E+02 -0.29915961034E+03 -0.11797597688E+03  0.33493621750E+03  0.00000000000E+00 0.  1.
</event>
<event>
 8    1  0.6648599E-009  0.1884190E+03  0.7561462E-02  0.1159895E+00
          1   -1    0    0  501    0  0.00000000000E+00  0.00000000000E+00  0.82711320277E+03  0.82711320277E+03  0.00000000000E+00 0. -1.
         -1   -1    0    0    0  501 -0.00000000000E+00 -0.00000000000E+00 -0.57630194059E+02  0.57630194059E+02  0.00000000000E+00 0.  1.
         25    2    1    2    0    0  0.11983802886E+03  0.11753305863E+03  0.22487901275E+03  0.30723484562E+03  0.12508999542E+03 0.  0.
         23    2    1    2    0    0 -0.11983802886E+03 -0.11753305863E+03  0.54460399596E+03  0.57750855122E+03  0.93527756715E+02 0.  0.
          5    1    3    3  502    0 -0.23286534389E+01  0.57216962508E+02  0.12714592086E+03  0.13950899977E+03  0.41800000000E+01 0. -1.
         -5    1    3    3    0  502  0.12216668230E+03  0.60316096118E+02  0.97733091892E+02  0.16772584585E+03  0.41800000000E+01 0. -1.
        -11    1    4    4    0    0 -0.58820263820E+02 -0.10569048424E+03  0.43503615702E+03  0.45153821522E+03  0.00000000000E+00 0. -1.
         11    1    4    4    0    0 -0.61017765040E+02 -0.11842574387E+02  0.10956783894E+03  0.12597033599E+03  0.00000000000E+00 0.  1.
</event>
<event>
 8    1  0.6648599E-009  0.1026659E+03  0.7561462E-02  0.1274788E+00
         -1   -1    0    0    0  501 -0.00000000000E+00  0.00000000000E+00  0.21786951746E+03  0.21786951746E+03  0.00000000000E+00 0.  1.
          1   -1    0    0  501    0  0.00000000000E+00 -0.00000000000E+00 -0.65047002840E+02  0.65047002840E+02  0.00000000000E+00 0. -1.
         25    2    1    2    0    0 -0.46893760716E+02  0.47344870202E+01  0.10075036085E+03  0.16738961650E+03  0.12508880181E+03 0.  0.
         23    2    1    2    0    0  0.46893760716E+02 -0.47344870202E+01  0.52072153768E+02  0.11552690380E+03  0.91725220865E+02 0.  0.
          5    1    3    3  502    0 -0.59902079656E+02  0.44001635956E+02  0.20832477503E+02  0.77303736216E+02  0.41800000000E+01 0.  1.
         -5    1    3    3    0  502  0.13008318941E+02 -0.39267148936E+02  0.79917883348E+02  0.90085880281E+02  0.41800000000E+01 0.  1.
        -11    1    4    4    0    0  0.45230059096E+02 -0.36119549422E+02  0.59733621856E+02  0.83177434899E+02  0.00000000000E+00 0.  1.
         11    1    4    4    0    0  0.16637016198E+01  0.31385062402E+02 -0.76614680878E+01  0.32349468903E+02  0.00000000000E+00 0. -1.
</event>
<event>
 8    1  0.6648599E-009  0.1938839E+03  0.7561462E-02  0.1155004E+00
         -1   -1    0    0    0  501 -0.00000000000E+00  0.00000000000E+00  0.18825896983E+02  0.18825896983E+02  0.00000000000E+00 0.  1.
          1   -1    0    0  501    0  0.00000000000E+00 -0.00000000000E+00 -0.21215719799E+04  0.21215719799E+04  0.00000000000E+00 0. -1.
         25    2    1    2    0    0 -0.75710650010E+02  0.14314159633E+03 -0.13033681569E+04  0.13193327270E+04  0.12509465597E+03 0.  0.
         23    2    1    2    0    0  0.75710650010E+02 -0.14314159633E+03 -0.79937792599E+03  0.82106514987E+03  0.94452594708E+02 0.  0.
          5    1    3    3  502    0 -0.89000738562E+00  0.12793391288E+03 -0.79109195171E+03  0.80138119933E+03  0.41800000000E+01 0.  1.
         -5    1    3    3    0  502 -0.74820642625E+02  0.15207683452E+02 -0.51227620523E+03  0.51795152770E+03  0.41800000000E+01 0.  1.
        -11    1    4    4    0    0  0.91499313082E+02 -0.91917680631E+02 -0.63698527648E+03  0.65005478751E+03  0.00000000000E+00 0. -1.
         11    1    4    4    0    0 -0.15788663072E+02 -0.51223915700E+02 -0.16239264950E+03  0.17101036236E+03  0.00000000000E+00 0.  1.
</event>
<event>
 8    1  0.6648599E-009  0.2117464E+03  0.7561462E-02  0.1140190E+00
         -1   -1    0    0    0  501 -0.00000000000E+00  0.00000000000E+00  0.45005202197E+03  0.45005202197E+03  0.00000000000E+00 0.  1.
          1   -1    0    0  501    0  0.00000000000E+00 -0.00000000000E+00 -0.11313419944E+03  0.11313419944E+03  0.00000000000E+00 0. -1.
         25    2    1    2    0    0 -0.15117010417E+03 -0.12164426625E+03  0.22180128624E+03  0.32014521390E+03  0.12508964585E+03 0.  0.
         23    2    1    2    0    0  0.15117010417E+03  0.12164426625E+03  0.11511653629E+03  0.24304100751E+03  0.90373594033E+02 0.  0.
          5    1    3    3  502    0 -0.16393824633E+03 -0.13035131887E+03  0.22040086010E+03  0.30407437655E+03  0.41800000000E+01 0. -1.
         -5    1    3    3    0  502  0.12768142161E+02  0.87070526240E+01  0.14004261381E+01  0.16070837346E+02  0.41800000000E+01 0. -1.
        -11    1    4    4    0    0  0.13133141411E+03  0.85334349556E+02  0.12513287095E+03  0.20046976565E+03  0.00000000000E+00 0.  1.
         11    1    4    4    0    0  0.19838690059E+02  0.36309916690E+02 -0.10016334665E+02  0.42571241859E+02  0.00000000000E+00 0. -1.
</event>
<event>
 8    1  0.6648599E-009  0.9225905E+02  0.7561462E-02  0.1297471E+00
         -4   -1    0    0    0  501 -0.00000000000E+00  0.00000000000E+00  0.29286470676E+03  0.29286470676E+03  0.00000000000E+00 0.  1.
          4   -1    0    0  501    0  0.00000000000E+00 -0.00000000000E+00 -0.76609516735E+02  0.76609516735E+02  0.00000000000E+00 0. -1.
         25    2    1    2    0    0 -0.64949435520E+02 -0.38658559561E+02  0.20114681623E+03  0.24863515583E+03  0.12508591301E+03 0.  0.
         23    2    1    2    0    0  0.64949435520E+02  0.38658559561E+02  0.15108373791E+02  0.12083906766E+03  0.93063977522E+02 0.  0.
          5    1    3    3  502    0 -0.45879185503E+02 -0.39425096781E+02  0.16340702901E+02  0.62799115359E+02  0.41800000000E+01 0.  1.
         -5    1    3    3    0  502 -0.19070250018E+02  0.76653722001E+00  0.18480611333E+03  0.18583604047E+03  0.41800000000E+01 0.  1.
        -11    1    4    4    0    0  0.79188457386E+02  0.42115864416E+02  0.34875485914E+02  0.96233348359E+02  0.00000000000E+00 0.  1.
         11    1    4    4    0    0 -0.14239021865E+02 -0.34573048555E+01 -0.19767112123E+02  0.24605719299E+02  0.00000000000E+00 0. -1.
</event>
<event>
 8    1  0.6648599E-009  0.2164507E+03  0.7561462E-02  0.1136557E+00
         -1   -1    0    0    0  501 -0.00000000000E+00  0.00000000000E+00  0.69318608602E+03  0.69318608602E+03  0.00000000000E+00 0.  1.
          1   -1    0    0  501    0  0.00000000000E+00 -0.00000000000E+00 -0.68491209963E+02  0.68491209963E+02  0.00000000000E+00 0. -1.
         25    2    1    2    0    0 -0.47306508349E+02 -0.18219040463E+03  0.34704699672E+03  0.41415031293E+03  0.12509042528E+03 0.  0.
         23    2    1    2    0    0  0.47306508349E+02  0.18219040463E+03  0.27764787934E+03  0.34752698305E+03  0.90859285590E+02 0.  0.
          5    1    3    3  502    0 -0.43154710224E+02 -0.20126854714E+03  0.31182883398E+03  0.37366569442E+03  0.41800000000E+01 0.  1.
         -5    1    3    3    0  502 -0.41517981253E+01  0.19078142511E+02  0.35218162739E+02  0.40484618511E+02  0.41800000000E+01 0.  1.
        -11    1    4    4    0    0  0.31630424199E+02  0.18776530618E+03  0.26636493621E+03  0.32742414874E+03  0.00000000000E+00 0.  1.
         11    1    4    4    0    0  0.15676084150E+02 -0.55749015505E+01  0.11282943131E+02  0.20102834310E+02  0.00000000000E+00 0. -1.
</event>
<event>
 8    1  0.6648599E-009  0.9207647E+02  0.7561462E-02  0.1297900E+00
         -1   -1    0    0    0  501 -0.00000000000E+00  0.00000000000E+00  0.74771885545E+03  0.74771885545E+03  0.00000000000E+00 0.  1.
          1   -1    0    0  501    0  0.00000000000E+00 -0.00000000000E+00 -0.17615810669E+02  0.17615810669E+02  0.00000000000E+00 0. -1.
         25    2    1    2    0    0 -0.84068127039E+01  0.86684565988E+01  0.47539371769E+03  0.49172400799E+03  0.12508995393E+03 0.  0.
         23    2    1    2    0    0  0.84068127039E+01 -0.86684565988E+01  0.25470932708E+03  0.27361065812E+03  0.99197451056E+02 0.  0.
          5    1    3    3  502    0  0.34935381635E+02 -0.19207963136E+02  0.38886394209E+03  0.39092462777E+03  0.41800000000E+01 0.  1.
         -5    1    3    3    0  502 -0.43342194339E+02  0.27876419735E+02  0.86529775603E+02  0.10079938022E+03  0.41800000000E+01 0.  1.
        -11    1    4    4    0    0  0.21517790319E+02  0.38120039548E+02  0.17383530656E+03  0.17926200524E+03  0.00000000000E+00 0.  1.
         11    1    4    4    0    0 -0.13110977615E+02 -0.46788496147E+02  0.80874020526E+02  0.94348652888E+02  0.00000000000E+00 0. -1.
</event>
<event>
 8    1  0.6648599E-009  0.1081718E+03  0.7561462E-02  0.1263993E+00
         -2   -1    0    0    0  501 -0.00000000000E+00  0.00000000000E+00  0.20291267545E+02  0.20291267545E+02  0.00000000000E+00 0.  1.
          2   -1    0    0  501    0  0.00000000000E+00 -0.00000000000E+00 -0.69248401161E+03  0.69248401161E+03  0.00000000000E+00 0. -1.
         25    2    1    2    0    0  0.27609860539E+02  0.23897512604E+02 -0.28598394723E+03  0.31427330932E+03  0.12508996512E+03 0.  0.
         23    2    1    2    0    0 -0.27609860539E+02 -0.23897512604E+02 -0.38620879684E+03  0.39850196983E+03  0.91176694928E+02 0.  0.
          5    1    3    3  502    0  0.31405898264E+02  0.70855404011E+02 -0.13135332635E+03  0.15257125374E+03  0.41800000000E+01 0.  1.
         -5    1    3    3    0  502 -0.37960377243E+01 -0.46957891407E+02 -0.15463062088E+03  0.16170205559E+03  0.41800000000E+01 0.  1.
        -11    1    4    4    0    0 -0.54849511149E+02  0.51646057470E+00 -0.29805396997E+03  0.30305924276E+03  0.00000000000E+00 0. -1.
         11    1    4    4    0    0  0.27239650610E+02 -0.24413973179E+02 -0.88154826864E+02  0.95442727073E+02  0.00000000000E+00 0.  1.
</event>
<event>
 8    1  0.6648599E-009  0.9479875E+02  0.7561462E-02  0.1291630E+00
         -2   -1    0    0    0  501 -0.00000000000E+00  0.00000000000E+00  0.74895184409E+02  0.74895184409E+02  0.00000000000E+00 0.  1.
          2   -1    0    0  501    0  0.00000000000E+00 -0.00000000000E+00 -0.19891287603E+03  0.19891287603E+03  0.00000000000E+00 0. -1.
         25    2    1    2    0    0  0.85658008081E+01  0.31838681738E+02 -0.20907534040E+02  0.13104205197E+03  0.12509124592E+03 0.  0.
         23    2    1    2    0    0 -0.85658008081E+01 -0.31838681738E+02 -0.10311015758E+03  0.14276600847E+03  0.93077139943E+02 0.  0.
          5    1    3    3  502    0  0.30613604968E+02  0.64490634827E+02 -0.45171877310E+02  0.84582537732E+02  0.41800000000E+01 0. -1.
         -5    1    3    3    0  502 -0.22047804160E+02 -0.32651953090E+02  0.24264343270E+02  0.46459514237E+02  0.41800000000E+01 0. -1.
        -11    1    4    4    0    0 -0.82337401440E+01 -0.54844593040E+02 -0.10594582497E+03  0.11958361799E+03  0.00000000000E+00 0. -1.
         11    1    4    4    0    0 -0.33206066410E+00  0.23005911303E+02  0.28356673843E+01  0.23182390486E+02  0.00000000000E+00 0.  1.
</event>
<event>
 8    1  0.6648599E-009  0.1085275E+03  0.7561462E-02  0.1263321E+00
         -2   -1    0    0    0  501 -0.00000000000E+00  0.00000000000E+00  0.47634652236E+02  0.47634652236E+02  0.00000000000E+00 0.  1.
          2   -1    0    0  501    0  0.00000000000E+00 -0.00000000000E+00 -0.29061822672E+03  0.29061822672E+03  0.00000000000E+00 0. -1.
         25    2    1    2    0    0  0.44833951466E+01  0.45757307509E+02 -0.14348850296E+03  0.19583367766E+03  0.12509215324E+03 0.  0.
         23    2    1    2    0    0 -0.44833951466E+01 -0.45757307509E+02 -0.99495071528E+02  0.14241920130E+03  0.90940242012E+02 0.  0.
          5    1    3    3  502    0 -0.81502128915E+01 -0.39135340422E+02 -0.78166838884E+02  0.87894982457E+02  0.41800000000E+01 0. -1.
         -5    1    3    3    0  502  0.12633608038E+02  0.84892647931E+02 -0.65321664075E+02  0.10793869520E+03  0.41800000000E+01 0. -1.
        -11    1    4    4    0    0 -0.25880713429E+01  0.22500361741E+02 -0.11309069201E+01  0.22676934145E+02  0.00000000000E+00 0.  1.
         11    1    4    4    0    0 -0.18953238038E+01 -0.68257669250E+02 -0.98364164608E+02  0.11974226715E+03  0.00000000000E+00 0. -1.
</event>
<event>
 8    1  0.6648599E-009  0.1039057E+03  0.7561462E-02  0.1272291E+00
          2   -1    0    0  501    0  0.00000000000E+00  0.00000000000E+00  0.28609373682E+03  0.28609373682E+03  0.00000000000E+00 0. -1.
         -2   -1    0    0    0  501 -0.00000000000E+00 -0.00000000000E+00 -0.45830471453E+02  0.45830471453E+02  0.00000000000E+00 0.  1.
         25    2    1    2    0    0 -0.26677298744E+02  0.22846607027E+02  0.15146123560E+03  0.19955317424E+03  0.12508923910E+03 0.  0.
         23    2    1    2    0    0  0.26677298744E+02 -0.22846607027E+02  0.88802029763E+02  0.13237103403E+03  0.91665939366E+02 0.  0.
          5    1    3    3  502    0 -0.72245118627E+02  0.34925658621E+02  0.11251736653E+03  0.13826347662E+03  0.41800000000E+01 0.  1.
         -5    1    3    3    0  502  0.45567819882E+02 -0.12079051594E+02  0.38943869069E+02  0.61289697620E+02  0.41800000000E+01 0.  1.
        -11    1    4    4    0    0 -0.24978850229E+02 -0.49602182626E+01  0.70120530050E+02  0.74601846214E+02  0.00000000000E+00 0. -1.
         11    1    4    4    0    0  0.51656148973E+02 -0.17886388764E+02  0.18681499713E+02  0.57769187819E+02  0.00000000000E+00 0.  1.
</event>
<event>
 8    1  0.6648599E-009  0.1334480E+03  0.7561462E-02  0.1222427E+00
          2   -1    0    0  501    0  0.00000000000E+00  0.00000000000E+00  0.13774717612E+04  0.13774717612E+04  0.00000000000E+00 0. -1.
         -2   -1    0    0    0  501 -0.00000000000E+00 -0.00000000000E+00 -0.14884968509E+02  0.14884968509E+02  0.00000000000E+00 0.  1.
         25    2    1    2    0    0  0.25756312934E+02 -0.73573007851E+02  0.99104936992E+03  0.10019554858E+04  0.12513819098E+03 0.  0.
         23    2    1    2    0    0 -0.25756312934E+02  0.73573007851E+02  0.37153742274E+03  0.39040124384E+03  0.91086220451E+02 0.  0.
          5    1    3    3  502    0  0.76075961950E+02 -0.51105649989E+02  0.58107408028E+03  0.58827195974E+03  0.41800000000E+01 0.  1.
         -5    1    3    3    0  502 -0.50319649016E+02 -0.22467357862E+02  0.40997528964E+03  0.41368352609E+03  0.41800000000E+01 0.  1.
        -11    1    4    4    0    0 -0.56062498623E+02  0.22315983664E+02  0.18772340220E+03  0.19718286592E+03  0.00000000000E+00 0.  1.
         11    1    4    4    0    0  0.30306185689E+02  0.51257024186E+02  0.18381402053E+03  0.19321837792E+03  0.00000000000E+00 0. -1.
</event>
<event>
 8    1  0.6648599E-009  0.8402177E+02  0.7561462E-02  0.1318011E+00
          2   -1    0    0  501    0  0.00000000000E+00  0.00000000000E+00  0.45966752186E+03  0.45966752186E+03  0.00000000000E+00 0. -1.
         -2   -1    0    0    0  501 -0.00000000000E+00 -0.00000000000E+00 -0.27886778434E+02  0.27886778434E+02  0.00000000000E+00 0.  1.
         25    2    1    2    0    0 -0.44393789653E+01 -0.23721144572E+01  0.31734020792E+03  0.34114206349E+03  0.12509102648E+03 0.  0.
         23    2    1    2    0    0  0.44393789653E+01  0.23721144572E+01  0.11444053551E+03  0.14641223680E+03  0.91184274449E+02 0.  0.
          5    1    3    3  502    0 -0.49824247666E+02 -0.25366179775E+02  0.25233317503E+03  0.25848675469E+03  0.41800000000E+01 0.  1.
         -5    1    3    3    0  502  0.45384868701E+02  0.22994065317E+02  0.65007032893E+02  0.82655308797E+02  0.41800000000E+01 0.  1.
        -11    1    4    4    0    0  0.11075099467E+02 -0.27858160605E+02  0.22863936133E+01  0.30065969737E+02  0.00000000000E+00 0.  1.
         11    1    4    4    0    0 -0.66357205017E+01  0.30230275062E+02  0.11215414189E+03  0.11634626707E+03  0.00000000000E+00 0. -1.
</event>
<event>
 8    1  0.6648599E-009  0.1197473E+03  0.7561462E-02  0.1243515E+00
         -2   -1    0    0    0  501 -0.00000000000E+00  0.00000000000E+00  0.11200527382E+04  0.11200527382E+04  0.00000000000E+00 0.  1.
          2   -1    0    0  501    0  0.00000000000E+00 -0.00000000000E+00 -0.14853958568E+02  0.14853958568E+02  0.00000000000E+00 0. -1.
         25    2    1    2    0    0 -0.62646939629E+02 -0.71704917783E+01  0.73302517535E+03  0.74629009496E+03  0.12508774178E+03 0.  0.
         23    2    1    2    0    0  0.62646939629E+02  0.71704917783E+01  0.37217360427E+03  0.38861660179E+03  0.92377575618E+02 0.  0.
          5    1    3    3  502    0 -0.95088806863E+02 -0.95537189949E+01  0.65034734800E+03  0.65734488679E+03  0.41800000000E+01 0. -1.
         -5    1    3    3    0  502  0.32441867234E+02  0.23832272166E+01  0.82677827349E+02  0.88945208172E+02  0.41800000000E+01 0. -1.
        -11    1    4    4    0    0  0.39982983948E+02  0.49133772262E+02  0.23502435375E+03  0.24341161319E+03  0.00000000000E+00 0.  1.
         11    1    4    4    0    0  0.22663955682E+02 -0.41963280484E+02  0.13714925052E+03  0.14520498860E+03  0.00000000000E+00 0. -1.
</event>
<event>
 8    1  0.6648599E-009  0.9303531E+02  0.7561462E-02  0.1295663E+00
          4   -1    0    0  501    0  0.00000000000E+00  0.00000000000E+00  0.94241359402E+02  0.94241359402E+02  0.00000000000E+00 0. -1.
         -4   -1    0    0    0  501 -0.00000000000E+00 -0.00000000000E+00 -0.17366090815E+03  0.17366090815E+03  0.00000000000E+00 0.  1.
         25    2    1    2    0    0  0.62858342632E+02  0.41601968071E+01 -0.51879913371E+02  0.14935811915E+03  0.12509134210E+03 0.  0.
         23    2    1    2    0    0 -0.62858342632E+02 -0.41601968071E+01 -0.27539635381E+02  0.11854414840E+03  0.96570208284E+02 0.  0.
          5    1    3    3  502    0  0.70270543227E+02  0.10412870115E+02  0.22189251153E+02  0.74540005207E+02  0.41800000000E+01 0. -1.
         -5    1    3    3    0  502 -0.74122005949E+01 -0.62526733075E+01 -0.74069164524E+02  0.74818113946E+02  0.41800000000E+01 0. -1.
        -11    1    4    4    0    0  0.41189113666E+01 -0.31674809229E+02 -0.33004130825E+02  0.45929637731E+02  0.00000000000E+00 0.  1.
         11    1    4    4    0    0 -0.66977253999E+02  0.27514612422E+02  0.54644954440E+01  0.72614510674E+02  0.00000000000E+00 0. -1.
</event>
<event>
 8    1  0.6648599E-009  0.1006691E+03  0.7561462E-02  0.1278895E+00
          2   -1    0    0  501    0  0.00000000000E+00  0.00000000000E+00  0.50265556443E+02  0.50265556443E+02  0.00000000000E+00 0.  1.
         -2   -1    0    0    0  501 -0.00000000000E+00 -0.00000000000E+00 -0.25637196544E+03  0.25637196544E+03  0.00000000000E+00 0. -1.
         25    2    1    2    0    0  0.16224397654E+02 -0.10139901810E+02 -0.15693161429E+03  0.20159704026E+03  0.12509111236E+03 0.  0.
         23    2    1    2    0    0 -0.16224397654E+02  0.10139901810E+02 -0.49174794711E+02  0.10504048162E+03  0.90825622249E+02 0.  0.
          5    1    3    3  502    0  0.64019266708E+02 -0.23491847069E+02 -0.12495777734E+03  0.14241577127E+03  0.41800000000E+01 0.  1.
         -5    1    3    3    0  502 -0.47794869054E+02  0.13351945259E+02 -0.31973836945E+02  0.59181268988E+02  0.41800000000E+01 0.  1.
        -11    1    4    4    0    0 -0.13221318375E+02 -0.35290933277E+02  0.45626002096E+00  0.37689009066E+02  0.00000000000E+00 0.  1.
         11    1    4    4    0    0 -0.30030792793E+01  0.45430835087E+02 -0.49631054732E+02  0.67351472558E+02  0.00000000000E+00 0. -1.
</event>
<event>
 8    1  0.6648599E-009  0.6358408E+02  0.7561462E-02  0.1383378E+00
         -1   -1    0    0    0  501 -0.00000000000E+00  0.00000000000E+00  0.50346918599E+02  0.50346918599E+02  0.00000000000E+00 0.  1.
          1   -1    0    0  501    0  0.00000000000E+00 -0.00000000000E+00 -0.28014288588E+03  0.28014288588E+03  0.00000000000E+00 0. -1.
         25    2    1    2    0    0  0.76204858188E+01 -0.21896585955E+02 -0.21114351238E+03  0.24650755023E+03  0.12508739833E+03 0.  0.
         23    2    1    2    0    0 -0.76204858188E+01  0.21896585955E+02 -0.18652454904E+02  0.83982254252E+02  0.78533895069E+02 0.  0.
          5    1    3    3  502    0  0.25489983815E+02 -0.40309766933E+02 -0.17264755781E+02  0.50893622167E+02  0.41800000000E+01 0.  1.
         -5    1    3    3    0  502 -0.17869497996E+02  0.18413180978E+02 -0.19387875660E+03  0.19561392806E+03  0.41800000000E+01 0.  1.
        -11    1    4    4    0    0  0.10999189129E+02 -0.10961478799E+02  0.23003656377E+02  0.27754357958E+02  0.00000000000E+00 0.  1.
         11    1    4    4    0    0 -0.18619674948E+02  0.32858064754E+02 -0.41656111281E+02  0.56227896293E+02  0.00000000000E+00 0. -1.
</event>
<event>
 8    1  0.6648599E-009  0.1269085E+03  0.7561462E-02  0.1232116E+00
          2   -1    0    0  501    0  0.00000000000E+00  0.00000000000E+00  0.10883444615E+04  0.10883444615E+04  0.00000000000E+00 0. -1.
         -2   -1    0    0    0  501 -0.00000000000E+00 -0.00000000000E+00 -0.42107431993E+02  0.42107431993E+02  0.00000000000E+00 0.  1.
         25    2    1    2    0    0  0.69971836367E+02  0.10521301481E+03  0.90031899377E+03  0.91770766757E+03  0.12508891316E+03 0.  0.
         23    2    1    2    0    0 -0.69971836367E+02 -0.10521301481E+03  0.14591803574E+03  0.21274422593E+03  0.89454995068E+02 0.  0.
          5    1    3    3  502    0  0.54573325977E+01  0.65370621510E+01  0.50675439247E+03  0.50684317333E+03  0.41800000000E+01 0. -1.
         -5    1    3    3    0  502  0.64514503770E+02  0.98675952660E+02  0.39356460130E+03  0.41086449424E+03  0.41800000000E+01 0. -1.
        -11    1    4    4    0    0 -0.41363579580E+02 -0.61065292655E+02  0.14197502042E+03  0.15999006877E+03  0.00000000000E+00 0. -1.
         11    1    4    4    0    0 -0.28608256787E+02 -0.44147722156E+02  0.39430153241E+01  0.52754157161E+02  0.00000000000E+00 0.  1.
</event>
<event>
 8    1  0.6648599E-009  0.7827625E+02  0.7561462E-02  0.1334016E+00
          1   -1    0    0  501    0  0.00000000000E+00  0.00000000000E+00  0.10984096417E+03  0.10984096417E+03  0.00000000000E+00 0. -1.
         -1   -1    0    0    0  501 -0.00000000000E+00 -0.00000000000E+00 -0.13170902661E+03  0.13170902661E+03  0.00000000000E+00 0.  1.
         25    2    1    2    0    0 -0.22555484751E+02 -0.33710552496E+02  0.14747093910E+02  0.13232530640E+03  0.12508940280E+03 0.  0.
         23    2    1    2    0    0  0.22555484751E+02  0.33710552496E+02 -0.36615156358E+02  0.10922468438E+03  0.94573837611E+02 0.  0.
          5    1    3    3  502    0 -0.13094065446E+02 -0.70548667649E+02 -0.25996309254E+02  0.76431992986E+02  0.41800000000E+01 0.  1.
         -5    1    3    3    0  502 -0.94614193044E+01  0.36838115154E+02  0.40743403164E+02  0.55893313417E+02  0.41800000000E+01 0.  1.
        -11    1    4    4    0    0  0.11695775350E+02  0.33575257007E+02 -0.67606535355E+02  0.76385421821E+02  0.00000000000E+00 0.  1.
         11    1    4    4    0    0  0.10859709400E+02  0.13529548867E+00  0.30991378997E+02  0.32839262557E+02  0.00000000000E+00 0. -1.
</event>
<event>
 8    1  0.6648599E-009  0.9408822E+02  0.7561462E-02  0.1293243E+00
          1   -1    0    0  501    0  0.00000000000E+00  0.00000000000E+00  0.81432463239E+02  0.81432463239E+02  0.00000000000E+00 0. -1.
         -1   -1    0    0    0  501 -0.00000000000E+00 -0.00000000000E+00 -0.30095232821E+03  0.30095232821E+03  0.00000000000E+00 0.  1.
         25    2    1    2    0    0 -0.26014563641E+02  0.54929269697E+02 -0.23140990721E+03  0.26998627993E+03  0.12509222201E+03 0.  0.
         23    2    1    2    0    0  0.26014563641E+02 -0.54929269697E+02  0.11890042239E+02  0.11239851151E+03  0.93798028205E+02 0.  0.
          5    1    3    3  502    0 -0.21958169169E+02  0.62787761211E+02 -0.38782020254E+02  0.77110191584E+02  0.41800000000E+01 0.  1.
         -5    1    3    3    0  502 -0.40563944717E+01 -0.78584915134E+01 -0.19262788695E+03  0.19287608835E+03  0.41800000000E+01 0.  1.
        -11    1    4    4    0    0 -0.47300432825E+01 -0.74923451480E+02  0.69634623416E+01  0.75394871834E+02  0.00000000000E+00 0.  1.
         11    1    4    4    0    0  0.30744606923E+02  0.19994181783E+02  0.49265798973E+01  0.37003639679E+02  0.00000000000E+00 0. -1.
</event>
<event>
 8    1  0.6648599E-009  0.2495658E+03  0.7561462E-02  0.1113580E+00
         -2   -1    0    0    0  501 -0.00000000000E+00  0.00000000000E+00  0.12937932176E+03  0.12937932176E+03  0.00000000000E+00 0.  1.
          2   -1    0    0  501    0  0.00000000000E+00 -0.00000000000E+00 -0.50425476353E+03  0.50425476353E+03  0.00000000000E+00 0. -1.
         25    2    1    2    0    0 -0.21729656497E+03  0.74707922023E+02 -0.22355354660E+03  0.34413173039E+03  0.12510551108E+03 0.  0.
         23    2    1    2    0    0  0.21729656497E+03 -0.74707922023E+02 -0.15132189518E+03  0.28950235490E+03  0.90079002945E+02 0.  0.
          5    1    3    3  502    0 -0.75949454717E+02 -0.25380782730E+02 -0.33325847925E+02  0.86836561100E+02  0.41800000000E+01 0.  1.
         -5    1    3    3    0  502 -0.14134711026E+03  0.10008870475E+03 -0.19022769867E+03  0.25729516929E+03  0.41800000000E+01 0.  1.
        -11    1    4    4    0    0  0.26063213928E+02 -0.45236114935E+02 -0.43776620847E+02  0.68132149147E+02  0.00000000000E+00 0. -1.
         11    1    4    4    0    0  0.19123335105E+03 -0.29471807088E+02 -0.10754527433E+03  0.22137020575E+03  0.00000000000E+00 0.  1.
</event>
<event>
 8    1  0.6648599E-009  0.1514415E+03  0.7561462E-02  0.1198713E+00
          2   -1    0    0  501    0  0.00000000000E+00  0.00000000000E+00  0.90292061920E+02  0.90292061920E+02  0.00000000000E+00 0.  1.
         -2   -1    0    0    0  501 -0.00000000000E+00 -0.00000000000E+00 -0.44105941100E+03  0.44105941100E+03  0.00000000000E+00 0. -1.
         25    2    1    2    0    0  0.36921182378E+02  0.12974253209E+03 -0.31473688586E+03  0.36456015273E+03  0.12509396187E+03 0.  0.
         23    2    1    2    0    0 -0.36921182378E+02 -0.12974253209E+03 -0.36030463218E+02  0.16679132019E+03  0.91240626208E+02 0.  0.
          5    1    3    3  502    0  0.42722610195E+02  0.90791082069E+02 -0.85399637656E+02  0.13182872417E+03  0.41800000000E+01 0.  1.
         -5    1    3    3    0  502 -0.58014278168E+01  0.38951450017E+02 -0.22933724821E+03  0.23273142856E+03  0.41800000000E+01 0.  1.
        -11    1    4    4    0    0  0.30751693861E+02 -0.39946382553E+02 -0.11240892915E+02  0.51650148382E+02  0.00000000000E+00 0. -1.
         11    1    4    4    0    0 -0.67672876239E+02 -0.89796149533E+02 -0.24789570303E+02  0.11514117181E+03  0.00000000000E+00 0.  1.
</event>
<event>
 8    1  0.6648599E-009  0.1330025E+03  0.7561462E-02  0.1223067E+00
          4   -1    0    0  501    0  0.00000000000E+00  0.00000000000E+00  0.13106040177E+03  0.13106040177E+03  0.00000000000E+00 0. -1.
         -4   -1    0    0    0  501 -0.00000000000E+00 -0.00000000000E+00 -0.15530943790E+03  0.15530943790E+03  0.00000000000E+00 0.  1.
         25    2    1    2    0    0 -0.16676626624E+02  0.73842309787E+02 -0.63892972043E+02  0.15956261075E+03  0.12508844184E+03 0.  0.
         23    2    1    2    0    0  0.16676626624E+02 -0.73842309787E+02  0.39643935916E+02  0.12680722891E+03  0.93689033827E+02 0.  0.
          5    1    3    3  502    0  0.18570408964E+02 -0.30212469591E+02 -0.21804938593E+02  0.41839946880E+02  0.41800000000E+01 0. -1.
         -5    1    3    3    0  502 -0.35247035588E+02  0.10405477938E+03 -0.42088033450E+02  0.11772266387E+03  0.41800000000E+01 0. -1.
        -11    1    4    4    0    0 -0.96975964054E+01 -0.89272593399E+02  0.31775802606E+02  0.95254086209E+02  0.00000000000E+00 0.  1.
         11    1    4    4    0    0  0.26374223029E+02  0.15430283612E+02  0.78681333095E+01  0.31553142704E+02  0.00000000000E+00 0. -1.
</event>
<event>
 8    1  0.6648599E-009  0.1274434E+03  0.7561462E-02  0.1231299E+00
         -2   -1    0    0    0  501 -0.00000000000E+00  0.00000000000E+00  0.28420713352E+02  0.28420713352E+02  0.00000000000E+00 0.  1.
          2   -1    0    0  501    0  0.00000000000E+00 -0.00000000000E+00 -0.67288683731E+03  0.67288683731E+03  0.00000000000E+00 0. -1.
         25    2    1    2    0    0  0.86253647147E+02  0.79220609555E+01 -0.42386411126E+03  0.45034633193E+03  0.12509429714E+03 0.  0.
         23    2    1    2    0    0 -0.86253647147E+02 -0.79220609555E+01 -0.22060201271E+03  0.25096121874E+03  0.82545954494E+02 0.  0.
          5    1    3    3  502    0  0.61117756930E+02  0.62083775336E+02 -0.19202205654E+03  0.21090215260E+03  0.41800000000E+01 0.  1.
         -5    1    3    3    0  502  0.25135890217E+02 -0.54161714380E+02 -0.23184205471E+03  0.23944417933E+03  0.41800000000E+01 0.  1.
        -11    1    4    4    0    0 -0.33010048635E+02 -0.34971683436E+02 -0.46474834982E+02  0.66877441936E+02  0.00000000000E+00 0.  1.
         11    1    4    4    0    0 -0.53243598512E+02  0.27049622481E+02 -0.17412717772E+03  0.18408377680E+03  0.00000000000E+00 0. -1.
</event>
<event>
 8    1  0.6648599E-009  0.1565507E+03  0.7561462E-02  0.1192647E+00
          4   -1    0    0  501    0  0.00000000000E+00  0.00000000000E+00  0.46026402732E+02  0.46026402732E+02  0.00000000000E+00 0. -1.
         -4   -1    0    0    0  501 -0.00000000000E+00 -0.00000000000E+00 -0.70800565139E+03  0.70800565139E+03  0.00000000000E+00 0.  1.
         25    2    1    2    0    0  0.85749358536E+01  0.13414695071E+03 -0.45284755522E+03  0.48865932824E+03  0.12509235347E+03 0.  0.
         23    2    1    2    0    0 -0.85749358536E+01 -0.13414695071E+03 -0.20913169344E+03  0.26537272589E+03  0.92831484612E+02 0.  0.
          5    1    3    3  502    0  0.15637460380E+02  0.14953831387E+03 -0.30799444940E+03  0.34275981495E+03  0.41800000000E+01 0. -1.
         -5    1    3    3    0  502 -0.70625245260E+01 -0.15391363164E+02 -0.14485310581E+03  0.14589951329E+03  0.41800000000E+01 0. -1.
        -11    1    4    4    0    0  0.18384165507E+02 -0.10032342308E+03 -0.81331061943E+02  0.13045117246E+03  0.00000000000E+00 0. -1.
         11    1    4    4    0    0 -0.26959101361E+02 -0.33823527623E+02 -0.12780063150E+03  0.13492155343E+03  0.00000000000E+00 0.  1.
</event>
<event>
 8    1  0.6648599E-009  0.1474472E+03  0.7561462E-02  0.1203645E+00
          2   -1    0    0  501    0  0.00000000000E+00  0.00000000000E+00  0.12751274238E+04  0.12751274238E+04  0.00000000000E+00 0. -1.
         -2   -1    0    0    0  501 -0.00000000000E+00 -0.00000000000E+00 -0.22828904457E+02  0.22828904457E+02  0.00000000000E+00 0.  1.
         25    2    1    2    0    0  0.65927541262E+02 -0.11378793656E+03  0.74229210728E+03  0.76415902995E+03  0.12508922945E+03 0.  0.
         23    2    1    2    0    0 -0.65927541262E+02  0.11378793656E+03  0.51000641204E+03  0.53379729828E+03  0.86826724730E+02 0.  0.
          5    1    3    3  502    0  0.16610935056E+02 -0.76942360643E+02  0.63898007644E+03  0.64382378063E+03  0.41800000000E+01 0.  1.
         -5    1    3    3    0  502  0.49316606206E+02 -0.36845575914E+02  0.10331203084E+03  0.12033524932E+03  0.41800000000E+01 0.  1.
        -11    1    4    4    0    0  0.77259809902E+01 -0.85775056132E+01  0.17220151588E+02  0.20731570262E+02  0.00000000000E+00 0.  1.
         11    1    4    4    0    0 -0.73653522252E+02  0.12236544217E+03  0.49278626045E+03  0.51306572802E+03  0.00000000000E+00 0. -1.
</event>
<event>
 8    1  0.6648599E-009  0.1272226E+03  0.7561462E-02  0.1231636E+00
         -1   -1    0    0    0  501 -0.00000000000E+00  0.00000000000E+00  0.38828682526E+02  0.38828682526E+02  0.00000000000E+00 0.  1.
          1   -1    0    0  501    0  0.00000000000E+00 -0.00000000000E+00 -0.61380353083E+03  0.61380353083E+03  0.00000000000E+00 0. -1.
         25    2    1    2    0    0 -0.39257515712E+02 -0.10236841711E+03 -0.29937377462E+03  0.34248060399E+03  0.12509141387E+03 0.  0.
         23    2    1    2    0    0  0.39257515712E+02  0.10236841711E+03 -0.27560107368E+03  0.31015160936E+03  0.90651109262E+02 0.  0.
          5    1    3    3  502    0  0.76038137554E+01 -0.28464405886E+02  0.81525772125E+00  0.29768732442E+02  0.41800000000E+01 0. -1.
         -5    1    3    3    0  502 -0.46861329467E+02 -0.73904011221E+02 -0.30018903234E+03  0.31271187155E+03  0.41800000000E+01 0. -1.
        -11    1    4    4    0    0  0.64775177174E+02  0.64469235442E+02 -0.21972997181E+03  0.23797765947E+03  0.00000000000E+00 0.  1.
         11    1    4    4    0    0 -0.25517661463E+02  0.37899181665E+02 -0.55871101875E+02  0.72173949886E+02  0.00000000000E+00 0. -1.
</event>
<event>
 8    1  0.6648599E-009  0.2049311E+03  0.7561462E-02  0.1145644E+00
         -2   -1    0    0    0  501 -0.00000000000E+00  0.00000000000E+00  0.10035652807E+03  0.10035652807E+03  0.00000000000E+00 0.  1.
          2   -1    0    0  501    0  0.00000000000E+00 -0.00000000000E+00 -0.57769683009E+03  0.57769683009E+03  0.00000000000E+00 0. -1.
         25    2    1    2    0    0  0.14300180520E+03  0.12402716100E+03 -0.38771585479E+03  0.44922966478E+03  0.12510577407E+03 0.  0.
         23    2    1    2    0    0 -0.14300180520E+03 -0.12402716100E+03 -0.89624447219E+02  0.22882369338E+03  0.92170972415E+02 0.  0.
          5    1    3    3  502    0  0.13542888241E+03  0.13824099096E+03 -0.38684080804E+03  0.43256772526E+03  0.41800000000E+01 0. -1.
         -5    1    3    3    0  502  0.75729227890E+01 -0.14213829964E+02 -0.87504675765E+00  0.16661939522E+02  0.41800000000E+01 0. -1.
        -11    1    4    4    0    0 -0.99523462049E+02 -0.44502988531E+02 -0.12346444517E+02  0.10971722827E+03  0.00000000000E+00 0.  1.
         11    1    4    4    0    0 -0.43478343155E+02 -0.79524172467E+02 -0.77278002702E+02  0.11910646511E+03  0.00000000000E+00 0. -1.
</event>
<event>
 8    1  0.6648599E-009  0.1413938E+03  0.7561462E-02  0.1211466E+00
         -1   -1    0    0    0  501 -0.00000000000E+00  0.00000000000E+00  0.29444684686E+03  0.29444684686E+03  0.00000000000E+00 0.  1.
          1   -1    0    0  501    0  0.00000000000E+00 -0.00000000000E+00 -0.69812717148E+02  0.69812717148E+02  0.00000000000E+00 0. -1.
         25    2    1    2    0    0 -0.50645734964E+02  0.78704866580E+02  0.12004082686E+03  0.19701896456E+03  0.12508887157E+03 0.  0.
         23    2    1    2    0    0  0.50645734964E+02 -0.78704866580E+02  0.10459330286E+03  0.16724059945E+03  0.90940709298E+02 0.  0.
          5    1    3    3  502    0  0.23240826118E+02 -0.20623669176E+02  0.33710128293E+02  0.46036038909E+02  0.41800000000E+01 0.  1.
         -5    1    3    3    0  502 -0.73886561083E+02  0.99328535756E+02  0.86330698565E+02  0.15098292565E+03  0.41800000000E+01 0.  1.
        -11    1    4    4    0    0  0.11490157624E+02 -0.86823971601E+02  0.87342977057E+02  0.12369002146E+03  0.00000000000E+00 0.  1.
         11    1    4    4    0    0  0.39155577340E+02  0.81191050203E+01  0.17250325800E+02  0.43550577991E+02  0.00000000000E+00 0. -1.
</event>
<event>
 8    1  0.6648599E-009  0.1050815E+03  0.7561462E-02  0.1269959E+00
         -1   -1    0    0    0  501 -0.00000000000E+00  0.00000000000E+00  0.13527795442E+03  0.13527795442E+03  0.00000000000E+00 0.  1.
          1   -1    0    0  501    0  0.00000000000E+00 -0.00000000000E+00 -0.10160755331E+03  0.10160755331E+03  0.00000000000E+00 0. -1.
         25    2    1    2    0    0 -0.39712216175E+02 -0.18453609954E+02  0.20116214439E+02  0.13404678958E+03  0.12508510654E+03 0.  0.
         23    2    1    2    0    0  0.39712216175E+02  0.18453609954E+02  0.13554186663E+02  0.10283871816E+03  0.92056993987E+02 0.  0.
          5    1    3    3  502    0  0.44390901407E+02 -0.77721963610E+01 -0.49802098004E+01  0.45532779990E+02  0.41800000000E+01 0.  1.
         -5    1    3    3    0  502 -0.84103117581E+02 -0.10681413593E+02  0.25096424239E+02  0.88514009585E+02  0.41800000000E+01 0.  1.
        -11    1    4    4    0    0  0.50389316677E+02 -0.84353414917E+01  0.39027397094E+02  0.64291336471E+02  0.00000000000E+00 0.  1.
         11    1    4    4    0    0 -0.10677100503E+02  0.26888951446E+02 -0.25473210432E+02  0.38547381684E+02  0.00000000000E+00 0. -1.
</event>
<event>
 8    1  0.6648599E-009  0.8599194E+02  0.7561462E-02  0.1312859E+00
          1   -1    0    0  501    0  0.00000000000E+00  0.00000000000E+00  0.28317970056E+03  0.28317970056E+03  0.00000000000E+00 0. -1.
         -1   -1    0    0    0  501 -0.00000000000E+00 -0.00000000000E+00 -0.46155737952E+02  0.46155737952E+02  0.00000000000E+00 0.  1.
         25    2    1    2    0    0 -0.11811049050E+02 -0.10520324699E+02  0.17502641865E+03  0.21571376614E+03  0.12509198042E+03 0.  0.
         23    2    1    2    0    0  0.11811049050E+02  0.10520324699E+02  0.61997543964E+02  0.11362167238E+03  0.93893614611E+02 0.  0.
          5    1    3    3  502    0  0.29850540704E+02  0.44191596033E+02  0.51392129283E+02  0.74179345457E+02  0.41800000000E+01 0. -1.
         -5    1    3    3    0  502 -0.41661589754E+02 -0.54711920732E+02  0.12363428937E+03  0.14153442068E+03  0.41800000000E+01 0. -1.
        -11    1    4    4    0    0  0.14801281221E+02  0.28102317555E+02 -0.14613290087E+02  0.34962357256E+02  0.00000000000E+00 0.  1.
         11    1    4    4    0    0 -0.29902321714E+01 -0.17581992855E+02  0.76610834051E+02  0.78659315121E+02  0.00000000000E+00 0. -1.
</event>
<event>
 7    1  0.6648599E-009  0.9546855E+02  0.7561462E-02  0.1290124E+00
          2   -1    0    0  501    0  0.00000000000E+00  0.00000000000E+00  0.57192043637E+03  0.57192043637E+03  0.00000000000E+00 0. -1.
         -2   -1    0    0    0  501 -0.00000000000E+00 -0.00000000000E+00 -0.26497064550E+02  0.26497064550E+02  0.00000000000E+00 0.  1.
         23    2    1    2    0    0  0.39132885364E+01 -0.36254639780E+01  0.99292595257E+02  0.13499895997E+03  0.91308498528E+02 0.  0.
          5    1    1    2  502    0 -0.43384793832E+02 -0.43828453387E+02  0.18473811399E+03  0.19480456058E+03  0.41800000000E+01 0. -1.
         -5    1    1    2    0  502  0.39471505295E+02  0.47453917365E+02  0.26139266258E+03  0.26861398037E+03  0.41800000000E+01 0. -1.
        -11    1    3    3    0    0 -0.23447603567E+02  0.20223582178E+02  0.93182306054E+02  0.98192288652E+02  0.00000000000E+00 0. -1.
         11    1    3    3    0    0  0.27360892104E+02 -0.23849046156E+02  0.61102892029E+01  0.36806671317E+02  0.00000000000E+00 0.  1.
</event>
<event>
 8    1  0.6648599E-009  0.1964793E+03  0.7561462E-02  0.1152744E+00
         -1   -1    0    0    0  501 -0.00000000000E+00  0.00000000000E+00  0.65925816292E+02  0.65925816292E+02  0.00000000000E+00 0.  1.
          1   -1    0    0  501    0  0.00000000000E+00 -0.00000000000E+00 -0.60578218273E+03  0.60578218273E+03  0.00000000000E+00 0. -1.
         25    2    1    2    0    0 -0.77056039775E+02  0.14471092427E+03 -0.22814404687E+03  0.30753318295E+03  0.12509223648E+03 0.  0.
         23    2    1    2    0    0  0.77056039775E+02 -0.14471092427E+03 -0.31171231957E+03  0.36417481607E+03  0.92627434496E+02 0.  0.
          5    1    3    3  502    0  0.20891800426E+02  0.91656543277E+02 -0.11663282232E+03  0.14986019115E+03  0.41800000000E+01 0.  1.
         -5    1    3    3    0  502 -0.97947840202E+02  0.53054380988E+02 -0.11151122455E+03  0.15767299180E+03  0.41800000000E+01 0.  1.
        -11    1    4    4    0    0  0.79783510162E+02 -0.53333164063E+02 -0.14164538309E+03  0.17109427060E+03  0.00000000000E+00 0. -1.
         11    1    4    4    0    0 -0.27274703865E+01 -0.91377760202E+02 -0.17006693648E+03  0.19308054547E+03  0.00000000000E+00 0.  1.
</event>
<event>
 8    1  0.6648599E-009  0.1527241E+03  0.7561462E-02  0.1197165E+00
         -1   -1    0    0    0  501 -0.00000000000E+00  0.00000000000E+00  0.33293315477E+02  0.33293315477E+02  0.00000000000E+00 0.  1.
          1   -1    0    0  501    0  0.00000000000E+00 -0.00000000000E+00 -0.87588699326E+03  0.87588699326E+03  0.00000000000E+00 0. -1.
         25    2    1    2    0    0 -0.10347595169E+03 -0.43440968719E+02 -0.65134968312E+03  0.67267983657E+03  0.12508941797E+03 0.  0.
         23    2    1    2    0    0  0.10347595169E+03  0.43440968719E+02 -0.19124399466E+03  0.23650047216E+03  0.82242431246E+02 0.  0.
          5    1    3    3  502    0 -0.12614100151E+03 -0.59896355873E+02 -0.54641379896E+03  0.56398992704E+03  0.41800000000E+01 0. -1.
         -5    1    3    3    0  502  0.22665049820E+02  0.16455387154E+02 -0.10493588416E+03  0.10868990953E+03  0.41800000000E+01 0. -1.
        -11    1    4    4    0    0  0.33955013990E+02  0.57237150700E+02 -0.74232645811E+02  0.99697141881E+02  0.00000000000E+00 0. -1.
         11    1    4    4    0    0  0.69520937701E+02 -0.13796181980E+02 -0.11701134885E+03  0.13680333028E+03  0.00000000000E+00 0.  1.
</event>
<event>
 8    1  0.6648599E-009  0.1188056E+03  0.7561462E-02  0.1245080E+00
         -1   -1    0    0    0  501 -0.00000000000E+00  0.00000000000E+00  0.20862951973E+02  0.20862951973E+02  0.00000000000E+00 0.  1.
          1   -1    0    0  501    0  0.00000000000E+00 -0.00000000000E+00 -0.82952849549E+03  0.82952849549E+03  0.00000000000E+00 0. -1.
         25    2    1    2    0    0 -0.54594668044E+02 -0.40129084651E+02 -0.52989158780E+03  0.54865576152E+03  0.12508848317E+03 0.  0.
         23    2    1    2    0    0  0.54594668044E+02  0.40129084651E+02 -0.27877395572E+03  0.30173568594E+03  0.93480396704E+02 0.  0.
          5    1    3    3  502    0  0.15983208585E+01  0.32491582069E+02 -0.48381334808E+02  0.58450692834E+02  0.41800000000E+01 0.  1.
         -5    1    3    3    0  502 -0.56192988902E+02 -0.72620666720E+02 -0.48151025299E+03  0.49020506869E+03  0.41800000000E+01 0.  1.
        -11    1    4    4    0    0  0.32315860640E+00  0.56272592572E+02 -0.10739219672E+03  0.12124270296E+03  0.00000000000E+00 0. -1.
         11    1    4    4    0    0  0.54271509438E+02 -0.16143507921E+02 -0.17138175900E+03  0.18049298297E+03  0.00000000000E+00 0.  1.
</event>
<event>
 8    1  0.6648599E-009  0.2473006E+03  0.7561462E-02  0.1115023E+00
         -2   -1    0    0    0  501 -0.00000000000E+00  0.00000000000E+00  0.11025929749E+03  0.11025929749E+03  0.00000000000E+00 0.  1.
          2   -1    0    0  501    0  0.00000000000E+00 -0.00000000000E+00 -0.56582690824E+03  0.56582690824E+03  0.00000000000E+00 0. -1.
         25    2    1    2    0    0  0.10194070626E+03 -0.19871130934E+03 -0.26483098773E+03  0.36832664600E+03  0.12510385301E+03 0.  0.
         23    2    1    2    0    0 -0.10194070626E+03  0.19871130934E+03 -0.19073662302E+03  0.30775955974E+03  0.91964097328E+02 0.  0.
          5    1    3    3  502    0  0.10790606059E+03 -0.21301609908E+03 -0.25558806883E+03  0.34980324427E+03  0.41800000000E+01 0. -1.
         -5    1    3    3    0  502 -0.59653543270E+01  0.14304789738E+02 -0.92429189082E+01  0.18523401730E+02  0.41800000000E+01 0. -1.
        -11    1    4    4    0    0 -0.12092784549E+02  0.11900255622E+03 -0.11394291203E+03  0.16519936751E+03  0.00000000000E+00 0. -1.
         11    1    4    4    0    0 -0.89847921710E+02  0.79708753121E+02 -0.76793710983E+02  0.14256019222E+03  0.00000000000E+00 0.  1.
</event>
<event>
 8    1  0.6648599E-009  0.1139524E+03  0.7561462E-02  0.1253421E+00
         -2   -1    0    0    0  501 -0.00000000000E+00  0.00000000000E+00  0.33386037359E+02  0.33386037359E+02  0.00000000000E+00 0.  1.
          2   -1    0    0  501    0  0.00000000000E+00 -0.00000000000E+00 -0.41028018163E+03  0.41028018163E+03  0.00000000000E+00 0. -1.
         25    2    1    2    0    0 -0.38854751594E+00 -0.43350234375E+02 -0.23616580468E+03  0.27074220964E+03  0.12509061911E+03 0.  0.
         23    2    1    2    0    0  0.38854751594E+00  0.43350234375E+02 -0.14072833959E+03  0.17292400935E+03  0.90657893515E+02 0.  0.
          5    1    3    3  502    0  0.34120523358E+01 -0.87337085891E+02 -0.16794418685E+03  0.18937299430E+03  0.41800000000E+01 0.  1.
         -5    1    3    3    0  502 -0.38005998517E+01  0.43986851517E+02 -0.68221617829E+02  0.81369215339E+02  0.41800000000E+01 0.  1.
        -11    1    4    4    0    0 -0.28965831943E+02 -0.13587068484E+02 -0.24823346314E+02  0.40494769691E+02  0.00000000000E+00 0.  1.
         11    1    4    4    0    0  0.29354379459E+02  0.56937302858E+02 -0.11590499328E+03  0.13242923966E+03  0.00000000000E+00 0. -1.
</event>
<event>
 8    1  0.6648599E-009  0.9182302E+02  0.7561462E-02  0.1298496E+00
          1   -1    0    0  501    0  0.00000000000E+00  0.00000000000E+00  0.37226784989E+03  0.37226784989E+03  0.00000000000E+00 0. -1.
         -1   -1    0    0    0  501 -0.00000000000E+00 -0.00000000000E+00 -0.84066193721E+02  0.84066193721E+02  0.00000000000E+00 0.  1.
         25    2    1    2    0    0  0.29678669006E+02 -0.33691042897E+01  0.32506877311E+03  0.34958351595E+03  0.12508698220E+03 0.  0.
         23    2    1    2    0    0 -0.29678669006E+02  0.33691042897E+01 -0.36867116939E+02  0.10675052766E+03  0.95625920059E+02 0.  0.
          5    1    3    3  502    0 -0.25404993732E+02  0.47147784416E+02  0.13933617364E+03  0.14933308061E+03  0.41800000000E+01 0. -1.
         -5    1    3    3    0  502  0.55083662738E+02 -0.50516888705E+02  0.18573259947E+03  0.20025043533E+03  0.41800000000E+01 0. -1.
        -11    1    4    4    0    0 -0.27181976653E+02  0.22800086730E+02 -0.64064323429E+02  0.73232105979E+02  0.00000000000E+00 0.  1.
         11    1    4    4    0    0 -0.24966923533E+01 -0.19430982441E+02  0.27197206490E+02  0.33518421683E+02  0.00000000000E+00 0. -1.
</event>
<event>
 8    1  0.6648599E-009  0.7527346E+02  0.7561462E-02  0.1343026E+00
          2   -1    0    0  501    0  0.00000000000E+00  0.00000000000E+00  0.74476788550E+02  0.74476788550E+02  0.00000000000E+00 0. -1.
         -2   -1    0    0    0  501 -0.00000000000E+00 -0.00000000000E+00 -0.17420158270E+03  0.17420158270E+03  0.00000000000E+00 0.  1.
         25    2    1    2    0    0  0.45263166165E+02 -0.68920051764E+00 -0.58568401949E+02  0.14535187336E+03  0.12509068780E+03 0.  0.
         23    2    1    2    0    0 -0.45263166165E+02  0.68920051764E+00 -0.41156392199E+02  0.10332649788E+03  0.83266363783E+02 0.  0.
          5    1    3    3  502    0  0.49458470074E+02 -0.17353178832E+02  0.26208092082E+02  0.58750400580E+02  0.41800000000E+01 0. -1.
         -5    1    3    3    0  502 -0.41953039090E+01  0.16663978314E+02 -0.84776494032E+02  0.86601472785E+02  0.41800000000E+01 0.  1.
        -11    1    4    4    0    0 -0.14447526317E+02 -0.32150294771E+02  0.85338339791E+01  0.36265669619E+02  0.00000000000E+00 0. -1.
         11    1    4    4    0    0 -0.30815639848E+02  0.32839495289E+02 -0.49690226178E+02  0.67060828266E+02  0.00000000000E+00 0.  1.
</event>
<event>
 8    1  0.6648599E-009  0.1054249E+03  0.7561462E-02  0.1269285E+00
          2   -1    0    0  501    0  0.00000000000E+00  0.00000000000E+00  0.60161705101E+03  0.60161705101E+03  0.00000000000E+00 0. -1.
         -2   -1    0    0    0  501 -0.00000000000E+00 -0.00000000000E+00 -0.23058249008E+02  0.23058249008E+02  0.00000000000E+00 0.  1.
         25    2    1    2    0    0 -0.13707802215E+02 -0.44764349591E+02  0.37262073993E+03  0.39583508701E+03  0.12508976553E+03 0.  0.
         23    2    1    2    0    0  0.13707802215E+02  0.44764349591E+02  0.20593806206E+03  0.22884021301E+03  0.88122680666E+02 0.  0.
          5    1    3    3  502    0 -0.39470637130E+02  0.26286067386E+02  0.22453037849E+03  0.22952178937E+03  0.41800000000E+01 0. -1.
         -5    1    3    3    0  502  0.25762834915E+02 -0.71050416977E+02  0.14809036145E+03  0.16631329763E+03  0.41800000000E+01 0. -1.
        -11    1    4    4    0    0 -0.30626906384E+02  0.14608852687E+02  0.31327378307E+02  0.46182578999E+02  0.00000000000E+00 0.  1.
         11    1    4    4    0    0  0.44334708599E+02  0.30155496903E+02  0.17461068376E+03  0.18265763401E+03  0.00000000000E+00 0. -1.
</event>
<event>
 8    1  0.6648599E-009  0.1101086E+03  0.7561462E-02  0.1260369E+00
         -3   -1    0    0    0  501 -0.00000000000E+00  0.00000000000E+00  0.12134780963E+03  0.12134780963E+03  0.00000000000E+00 0.  1.
          3   -1    0    0  501    0  0.00000000000E+00 -0.00000000000E+00 -0.19651430529E+03  0.19651430529E+03  0.00000000000E+00 0. -1.
         25    2    1    2    0    0  0.71978086783E+02  0.28476057744E+02 -0.12073846186E+03  0.19030732911E+03  0.12508945798E+03 0.  0.
         23    2    1    2    0    0 -0.71978086783E+02 -0.28476057744E+02  0.45571966207E+02  0.12755478582E+03  0.90563173747E+02 0.  0.
          5    1    3    3  502    0  0.15516996571E+02 -0.21340136863E+02 -0.11111795419E+03  0.11428407923E+03  0.41800000000E+01 0. -1.
         -5    1    3    3    0  502  0.56461090212E+02  0.49816194607E+02 -0.96205076756E+01  0.76023249872E+02  0.41800000000E+01 0. -1.
        -11    1    4    4    0    0 -0.61843952384E+02 -0.59277597417E+02  0.25338147559E+02  0.89333810642E+02  0.00000000000E+00 0.  1.
         11    1    4    4    0    0 -0.10134134399E+02  0.30801539673E+02  0.20233818648E+02  0.38220975175E+02  0.00000000000E+00 0. -1.
</event>
<event>
 8    1  0.6648599E-009  0.8420596E+02  0.7561462E-02  0.1317522E+00
         -1   -1    0    0    0  501 -0.00000000000E+00  0.00000000000E+00  0.19159396631E+02  0.19159396631E+02  0.00000000000E+00 0.  1.
          1   -1    0    0  501    0  0.00000000000E+00 -0.00000000000E+00 -0.82192701203E+03  0.82192701203E+03  0.00000000000E+00 0. -1.
         25    2    1    2    0    0 -0.33440162604E+02 -0.51276896739E+02 -0.45656022710E+03  0.47732869652E+03  0.12509148228E+03 0.  0.
         23    2    1    2    0    0  0.33440162604E+02  0.51276896739E+02 -0.34620738829E+03  0.36375771213E+03  0.93341056424E+02 0.  0.
          5    1    3    3  502    0 -0.23458820725E+02 -0.51825610969E+02 -0.46178850794E+03  0.46529808584E+03  0.41800000000E+01 0.  1.
         -5    1    3    3    0  502 -0.99813418786E+01  0.54871422960E+00  0.52282808341E+01  0.12030610686E+02  0.41800000000E+01 0.  1.
        -11    1    4    4    0    0  0.59939262220E+02  0.36917074679E+02 -0.30304331347E+03  0.31111225530E+03  0.00000000000E+00 0. -1.
         11    1    4    4    0    0 -0.26499099616E+02  0.14359822060E+02 -0.43164074820E+02  0.52645456832E+02  0.00000000000E+00 0.  1.
</event>
<event>
 8    1  0.6648599E-009  0.1334883E+03  0.7561462E-02  0.1222370E+00
          2   -1    0    0  501    0  0.00000000000E+00  0.00000000000E+00  0.31393678366E+03  0.31393678366E+03  0.00000000000E+00 0. -1.
         -2   -1    0    0    0  501 -0.00000000000E+00 -0.00000000000E+00 -0.88358701462E+02  0.88358701462E+02  0.00000000000E+00 0.  1.
         25    2    1    2    0    0 -0.35553459101E+02 -0.12087032015E+03  0.12241712772E+03  0.21565461245E+03  0.12508907211E+03 0.  0.
         23    2    1    2    0    0  0.35553459101E+02  0.12087032015E+03  0.10316095447E+03  0.18664087268E+03  0.91208278569E+02 0.  0.
          5    1    3    3  502    0 -0.97367651968E+01  0.27782398369E+01 -0.21494733402E+02  0.24125073619E+02  0.41800000000E+01 0.  1.
         -5    1    3    3    0  502 -0.25816693904E+02 -0.12364855998E+03  0.14391186113E+03  0.19152953883E+03  0.41800000000E+01 0.  1.
        -11    1    4    4    0    0  0.24976403221E+02  0.34332140102E+02 -0.10169022072E+02  0.43656907492E+02  0.00000000000E+00 0.  1.
         11    1    4    4    0    0  0.10577055880E+02  0.86538180044E+02  0.11332997654E+03  0.14298396518E+03  0.00000000000E+00 0. -1.
</event>
<event>
 8    1  0.6648599E-009  0.1981849E+03  0.7561462E-02  0.1151280E+00
          2   -1    0    0  501    0  0.00000000000E+00  0.00000000000E+00  0.17204641523E+04  0.17204641523E+04  0.00000000000E+00 0. -1.
         -2   -1    0    0    0  501 -0.00000000000E+00 -0.00000000000E+00 -0.35050139019E+02  0.35050139019E+02  0.00000000000E+00 0.  1.
         25    2    1    2    0    0 -0.14444251139E+03 -0.11175834971E+03  0.13047628223E+04  0.13234074062E+04  0.12509025754E+03 0.  0.
         23    2    1    2    0    0  0.14444251139E+03  0.11175834971E+03  0.38065119100E+03  0.43210688513E+03  0.92018819473E+02 0.  0.
          5    1    3    3  502    0 -0.12131600348E+03 -0.11949830137E+03  0.12660868280E+04  0.12774939315E+04  0.41800000000E+01 0. -1.
         -5    1    3    3    0  502 -0.23126507918E+02  0.77399516601E+01  0.38675994329E+02  0.45913474684E+02  0.41800000000E+01 0. -1.
        -11    1    4    4    0    0  0.47427475974E+02  0.90198417567E+02  0.15449614358E+03  0.18507884371E+03  0.00000000000E+00 0.  1.
         11    1    4    4    0    0  0.97015035420E+02  0.21559932142E+02  0.22615504743E+03  0.24702804142E+03  0.00000000000E+00 0. -1.
</event>
<event>
 8    1  0.6648599E-009  0.1537632E+03  0.7561462E-02  0.1195924E+00
         -3   -1    0    0    0  501 -0.00000000000E+00  0.00000000000E+00  0.54236708186E+03  0.54236708186E+03  0.00000000000E+00 0.  1.
          3   -1    0    0  501    0  0.00000000000E+00 -0.00000000000E+00 -0.61116896740E+02  0.61116896740E+02  0.00000000000E+00 0. -1.
         25    2    1    2    0    0 -0.14060211309E+03  0.27789250021E+02  0.21003251538E+03  0.28337674566E+03  0.12509007092E+03 0.  0.
         23    2    1    2    0    0  0.14060211309E+03 -0.27789250021E+02  0.27121766974E+03  0.32010723294E+03  0.91479066342E+02 0.  0.
          5    1    3    3  502    0 -0.93651996220E+01  0.13187522218E+02  0.12533903659E+03  0.12644747605E+03  0.41800000000E+01 0.  1.
         -5    1    3    3    0  502 -0.13123691347E+03  0.14601727803E+02  0.84693478795E+02  0.15692926961E+03  0.41800000000E+01 0.  1.
        -11    1    4    4    0    0  0.48907381361E+02  0.22824658543E+02  0.15262238061E+03  0.16188418098E+03  0.00000000000E+00 0.  1.
         11    1    4    4    0    0  0.91694731729E+02 -0.50613908563E+02  0.11859528913E+03  0.15822305196E+03  0.00000000000E+00 0. -1.
</event>
<event>
 8    1  0.6648599E-009  0.1392433E+03  0.7561462E-02  0.1214351E+00
          2   -1    0    0  501    0  0.00000000000E+00  0.00000000000E+00  0.31068906076E+03  0.31068906076E+03  0.00000000000E+00 0.  1.
         -2   -1    0    0    0  501 -0.00000000000E+00 -0.00000000000E+00 -0.91935371115E+02  0.91935371115E+02  0.00000000000E+00 0. -1.
         25    2    1    2    0    0  0.27018108440E+02  0.10969377393E+03  0.11679991575E+03  0.20507425147E+03  0.12510206262E+03 0.  0.
         23    2    1    2    0    0 -0.27018108440E+02 -0.10969377393E+03  0.10195377389E+03  0.19755018041E+03  0.12597142352E+03 0.  0.
          5    1    3    3  502    0 -0.29531930378E+02  0.72759840584E+02  0.11250988518E+03  0.13726644155E+03  0.41800000000E+01 0.  1.
         -5    1    3    3    0  502  0.56550038818E+02  0.36933933350E+02  0.42900305726E+01  0.67807809914E+02  0.41800000000E+01 0.  1.
        -11    1    4    4    0    0 -0.50234164805E+02 -0.69357477930E+02  0.12017773875E+03  0.14756903452E+03  0.00000000000E+00 0.  1.
         11    1    4    4    0    0  0.23216056365E+02 -0.40336296004E+02 -0.18223964861E+02  0.49981145882E+02  0.00000000000E+00 0. -1.
</event>
<event>
 8    1  0.6648599E-009  0.1006397E+03  0.7561462E-02  0.1278956E+00
         -2   -1    0    0    0  501 -0.00000000000E+00  0.00000000000E+00  0.17083391086E+03  0.17083391086E+03  0.00000000000E+00 0.  1.
          2   -1    0    0  501    0  0.00000000000E+00 -0.00000000000E+00 -0.61824403186E+02  0.61824403186E+02  0.00000000000E+00 0. -1.
         25    2    1    2    0    0  0.17016989538E+02 -0.22218397222E+02  0.63955902437E+02  0.14325329476E+03  0.12509162200E+03 0.  0.
         23    2    1    2    0    0 -0.17016989538E+02  0.22218397222E+02  0.45053605233E+02  0.89405019285E+02  0.71973571683E+02 0.  0.
          5    1    3    3  502    0 -0.50224736540E+02  0.11930564570E+02  0.34238916180E+02  0.62085733568E+02  0.41800000000E+01 0. -1.
         -5    1    3    3    0  502  0.67241726077E+02 -0.34148961792E+02  0.29716986257E+02  0.81167561190E+02  0.41800000000E+01 0. -1.
        -11    1    4    4    0    0 -0.27209381291E+02 -0.17896068580E+02  0.32842904135E+02  0.46252308622E+02  0.00000000000E+00 0.  1.
         11    1    4    4    0    0  0.10192391753E+02  0.40114465802E+02  0.12210701098E+02  0.43152710663E+02  0.00000000000E+00 0. -1.
</event>
<event>
 8    1  0.6648599E-009  0.1078559E+03  0.7561462E-02  0.1264593E+00
          1   -1    0    0  501    0  0.00000000000E+00  0.00000000000E+00  0.48275347558E+03  0.48275347558E+03  0.00000000000E+00 0. -1.
         -1   -1    0    0    0  501 -0.00000000000E+00 -0.00000000000E+00 -0.28857098773E+02  0.28857098773E+02  0.00000000000E+00 0.  1.
         25    2    1    2    0    0 -0.19761545267E+02  0.41785048796E+02  0.30086313878E+03  0.32909363158E+03  0.12508989207E+03 0.  0.
         23    2    1    2    0    0  0.19761545267E+02 -0.41785048796E+02  0.15303323803E+03  0.18251694277E+03  0.88072433157E+02 0.  0.
          5    1    3    3  502    0 -0.57336802889E+01 -0.42258716092E+02  0.61280139788E+02  0.74775678585E+02  0.41800000000E+01 0. -1.
         -5    1    3    3    0  502 -0.14027864978E+02  0.84043764887E+02  0.23958299899E+03  0.25431795300E+03  0.41800000000E+01 0. -1.
        -11    1    4    4    0    0 -0.58229757964E+01 -0.57323971537E+02  0.13685769268E+03  0.14849233248E+03  0.00000000000E+00 0.  1.
         11    1    4    4    0    0  0.25584521063E+02  0.15538922741E+02  0.16175545348E+02  0.34024610288E+02  0.00000000000E+00 0. -1.
</event>
<event>
 8    1  0.6648599E-009  0.1935519E+03  0.7561462E-02  0.1155296E+00
         -2   -1    0    0    0  501 -0.00000000000E+00  0.00000000000E+00  0.30898609395E+03  0.30898609395E+03  0.00000000000E+00 0.  1.
          2   -1    0    0  501    0  0.00000000000E+00 -0.00000000000E+00 -0.18088272170E+03  0.18088272170E+03  0.00000000000E+00 0. -1.
         25    2    1    2    0    0  0.44125559760E+02  0.16452976566E+03 -0.60442138880E+02  0.21981382371E+03  0.12509099140E+03 0.  0.
         23    2    1    2    0    0 -0.44125559760E+02 -0.16452976566E+03  0.18854551113E+03  0.27005499194E+03  0.91450424229E+02 0.  0.
          5    1    3    3  502    0  0.52512903663E+01  0.17134060558E+03 -0.52609786754E+02  0.17936120326E+03  0.41800000000E+01 0.  1.
         -5    1    3    3    0  502  0.38874269393E+02 -0.68108399243E+01 -0.78323521257E+01  0.40452620448E+02  0.41800000000E+01 0.  1.
        -11    1    4    4    0    0 -0.52616840765E+02 -0.12703795941E+03  0.90160257393E+02  0.16442641843E+03  0.00000000000E+00 0. -1.
         11    1    4    4    0    0  0.84912810054E+01 -0.37491806246E+02  0.98385253741E+02  0.10562857351E+03  0.00000000000E+00 0.  1.
</event>
<event>
 8    1  0.6648599E-009  0.8804266E+02  0.7561462E-02  0.1307662E+00
         -2   -1    0    0    0  501 -0.00000000000E+00  0.00000000000E+00  0.74743842833E+02  0.74743842833E+02  0.00000000000E+00 0.  1.
          2   -1    0    0  501    0  0.00000000000E+00 -0.00000000000E+00 -0.21372595095E+03  0.21372595095E+03  0.00000000000E+00 0. -1.
         25    2    1    2    0    0  0.14175011815E+02  0.40460421972E+02 -0.20586666925E+02  0.13382656687E+03  0.12509101662E+03 0.  0.
         23    2    1    2    0    0 -0.14175011815E+02 -0.40460421972E+02 -0.11839544119E+03  0.15464322692E+03  0.89772325522E+02 0.  0.
          5    1    3    3  502    0 -0.31667617164E+02  0.68281416915E+02  0.21916302559E+01  0.75415287018E+02  0.41800000000E+01 0. -1.
         -5    1    3    3    0  502  0.45842628979E+02 -0.27820994943E+02 -0.22778297181E+02  0.58411279851E+02  0.41800000000E+01 0. -1.
        -11    1    4    4    0    0 -0.25572572665E+01 -0.33020097102E+02 -0.13150535027E+03  0.13561166442E+03  0.00000000000E+00 0. -1.
         11    1    4    4    0    0 -0.11617754548E+02 -0.74403248703E+01  0.13109909078E+02  0.19031562494E+02  0.00000000000E+00 0.  1.
</event>
<event>
 8    1  0.6648599E-009  0.1626123E+03  0.7561462E-02  0.1185779E+00
         -2   -1    0    0    0  501 -0.00000000000E+00  0.00000000000E+00  0.31960978472E+02  0.31960978472E+02  0.00000000000E+00 0.  1.
          2   -1    0    0  501    0  0.00000000000E+00 -0.00000000000E+00 -0.11507219146E+04  0.11507219146E+04  0.00000000000E+00 0. -1.
         25    2    1    2    0    0  0.10650407347E+03  0.10195209283E+03 -0.77175598577E+03  0.79560752191E+03  0.12508669176E+03 0.  0.
         23    2    1    2    0    0 -0.10650407347E+03 -0.10195209283E+03 -0.34700495040E+03  0.38707537120E+03  0.87621689609E+02 0.  0.
          5    1    3    3  502    0  0.39649664511E+02 -0.15086322750E+02 -0.78208240401E+02  0.89071287722E+02  0.41800000000E+01 0.  1.
         -5    1    3    3    0  502  0.66854408962E+02  0.11703841558E+03 -0.69354774536E+03  0.70653623419E+03  0.41800000000E+01 0.  1.
        -11    1    4    4    0    0 -0.95292296583E+02 -0.86823464876E+02 -0.34480618510E+03  0.36811715679E+03  0.00000000000E+00 0. -1.
         11    1    4    4    0    0 -0.11211776889E+02 -0.15128627951E+02 -0.21987652989E+01  0.18958214408E+02  0.00000000000E+00 0.  1.
</event>
<event>
 8    1  0.6648599E-009  0.1330033E+03  0.7561462E-02  0.1223066E+00
         -2   -1    0    0    0  501 -0.00000000000E+00  0.00000000000E+00  0.19175655684E+03  0.19175655684E+03  0.00000000000E+00 0.  1.
          2   -1    0    0  501    0  0.00000000000E+00 -0.00000000000E+00 -0.12526525833E+03  0.12526525833E+03  0.00000000000E+00 0. -1.
         25    2    1    2    0    0 -0.74828146806E+02  0.36993959756E+02  0.10945414983E+03  0.18599879169E+03  0.12509010746E+03 0.  0.
         23    2    1    2    0    0  0.74828146806E+02 -0.36993959756E+02 -0.42962851324E+02  0.13102302348E+03  0.91397053970E+02 0.  0.
          5    1    3    3  502    0  0.19869389034E+02 -0.22552734421E+02  0.13451569706E+01  0.30375982251E+02  0.41800000000E+01 0.  1.
         -5    1    3    3    0  502 -0.94697535840E+02  0.59546694177E+02  0.10810899286E+03  0.15562280944E+03  0.41800000000E+01 0.  1.
        -11    1    4    4    0    0  0.37345226452E+02  0.29363608808E+02 -0.18486896048E+02  0.50976982909E+02  0.00000000000E+00 0. -1.
         11    1    4    4    0    0  0.37482920354E+02 -0.66357568564E+02 -0.24475955276E+02  0.80046040569E+02  0.00000000000E+00 0.  1.
</event>
<event>
 8    1  0.6648599E-009  0.9461209E+02  0.7561462E-02  0.1292052E+00
          2   -1    0    0  501    0  0.00000000000E+00  0.00000000000E+00  0.62385402409E+02  0.62385402409E+02  0.00000000000E+00 0. -1.
         -2   -1    0    0    0  501 -0.00000000000E+00 -0.00000000000E+00 -0.23567706356E+03  0.23567706356E+03  0.00000000000E+00 0.  1.
         25    2    1    2    0    0  0.42482130518E+02  0.31428964057E+02 -0.77873471779E+02  0.15654201513E+03  0.12509441913E+03 0.  0.
         23    2    1    2    0    0 -0.42482130518E+02 -0.31428964057E+02 -0.95418189375E+02  0.14152045085E+03  0.90171480795E+02 0.  0.
          5    1    3    3  502    0 -0.13075697705E+02  0.52565096992E+02 -0.80244374741E+02  0.96905600302E+02  0.41800000000E+01 0. -1.
         -5    1    3    3    0  502  0.55557828224E+02 -0.21136132936E+02  0.23709029614E+01  0.59636414826E+02  0.41800000000E+01 0. -1.
        -11    1    4    4    0    0  0.12969884728E+02 -0.65383148551E+01 -0.76493536976E+02  0.77860315117E+02  0.00000000000E+00 0.  1.
         11    1    4    4    0    0 -0.55452015246E+02 -0.24890649202E+02 -0.18924652399E+02  0.63660135728E+02  0.00000000000E+00 0. -1.
</event>
<event>
 8    1  0.6648599E-009  0.8990547E+02  0.7561462E-02  0.1303081E+00
          1   -1    0    0  501    0  0.00000000000E+00  0.00000000000E+00  0.19881755591E+03  0.19881755591E+03  0.00000000000E+00 0. -1.
         -1   -1    0    0    0  501 -0.00000000000E+00 -0.00000000000E+00 -0.65082064791E+02  0.65082064791E+02  0.00000000000E+00 0.  1.
         25    2    1    2    0    0  0.21384345853E+02 -0.50545950370E+00  0.10076944563E+03  0.16204698895E+03  0.12508876736E+03 0.  0.
         23    2    1    2    0    0 -0.21384345853E+02  0.50545950370E+00  0.32966045493E+02  0.10185263175E+03  0.93966231710E+02 0.  0.
          5    1    3    3  502    0 -0.43834681651E+02  0.28475515368E+02  0.25753527213E+02  0.58421321919E+02  0.41800000000E+01 0.  1.
         -5    1    3    3    0  502  0.65219027503E+02 -0.28980974872E+02  0.75015918414E+02  0.10362566704E+03  0.41800000000E+01 0.  1.
        -11    1    4    4    0    0  0.12937196036E+02  0.13945789156E+02 -0.26059404551E+02  0.32263735711E+02  0.00000000000E+00 0.  1.
         11    1    4    4    0    0 -0.34321541888E+02 -0.13440329653E+02  0.59025450044E+02  0.69588896037E+02  0.00000000000E+00 0. -1.
</event>
<event>
 8    1  0.6648599E-009  0.1053792E+03  0.7561462E-02  0.1269374E+00
          2   -1    0    0  501    0  0.00000000000E+00  0.00000000000E+00  0.41315363051E+03  0.41315363051E+03  0.00000000000E+00 0. -1.
         -2   -1    0    0    0  501 -0.00000000000E+00 -0.00000000000E+00 -0.48999021048E+02  0.48999021048E+02  0.00000000000E+00 0.  1.
         25    2    1    2    0    0  0.16316655211E+02  0.36471344058E+02  0.65817499532E+02  0.14688201365E+03  0.12508393388E+03 0.  0.
         23    2    1    2    0    0 -0.16316655211E+02 -0.36471344058E+02  0.29833710993E+03  0.31527063790E+03  0.93777138939E+02 0.  0.
          5    1    3    3  502    0  0.66054820585E+02  0.29811412304E+02  0.12707563032E+02  0.73694736476E+02  0.41800000000E+01 0. -1.
         -5    1    3    3    0  502 -0.49738165374E+02  0.66599317546E+01  0.53109936500E+02  0.73187277178E+02  0.41800000000E+01 0. -1.
        -11    1    4    4    0    0 -0.27036099931E+01  0.24850476323E+02  0.27155230484E+02  0.36908836654E+02  0.00000000000E+00 0.  1.
         11    1    4    4    0    0 -0.13613045218E+02 -0.61321820381E+02  0.27118187944E+03  0.27836180125E+03  0.00000000000E+00 0. -1.
</event>
<event>
 8    1  0.6648599E-009  0.1110723E+03  0.7561462E-02  0.1258597E+00
          4   -1    0    0  501    0  0.00000000000E+00  0.00000000000E+00  0.96348225316E+02  0.96348225316E+02  0.00000000000E+00 0. -1.
         -4   -1    0    0    0  501 -0.00000000000E+00 -0.00000000000E+00 -0.15725139350E+03  0.15725139350E+03  0.00000000000E+00 0.  1.
         25    2    1    2    0    0 -0.58826778412E+02  0.23604947010E+02 -0.37818136949E+02  0.14526382527E+03  0.12511428403E+03 0.  0.
         23    2    1    2    0    0  0.58826778412E+02 -0.23604947010E+02 -0.23085031232E+02  0.10833579354E+03  0.84769936381E+02 0.  0.
          5    1    3    3  502    0  0.29856442870E+02 -0.18048087307E+02 -0.31172686664E+02  0.46971793984E+02  0.41800000000E+01 0. -1.
         -5    1    3    3    0  502 -0.88683221281E+02  0.41653034317E+02 -0.66454502852E+01  0.98292031285E+02  0.41800000000E+01 0. -1.
        -11    1    4    4    0    0  0.43214447121E+02 -0.45042419667E+02  0.12795392190E+02  0.63718365254E+02  0.00000000000E+00 0. -1.
         11    1    4    4    0    0  0.15612331291E+02  0.21437472657E+02 -0.35880423422E+02  0.44617428290E+02  0.00000000000E+00 0.  1.
</event>
<event>
 8    1  0.6648599E-009  0.1579322E+03  0.7561462E-02  0.1191051E+00
          2   -1    0    0  501    0  0.00000000000E+00  0.00000000000E+00  0.22544671353E+04  0.22544671353E+04  0.00000000000E+00 0. -1.
         -2   -1    0    0    0  501 -0.00000000000E+00 -0.00000000000E+00 -0.27403355870E+02  0.27403355870E+02  0.00000000000E+00 0.  1.
         25    2    1    2    0    0 -0.86088031435E+01  0.14353589745E+03  0.19348200840E+04  0.19441845865E+04  0.12509309971E+03 0.  0.
         23    2    1    2    0    0  0.86088031435E+01 -0.14353589745E+03  0.29224369535E+03  0.33768590459E+03  0.89155635477E+02 0.  0.
          5    1    3    3  502    0 -0.49031745950E+02  0.71412620864E+02  0.54090957555E+03  0.54781795868E+03  0.41800000000E+01 0. -1.
         -5    1    3    3    0  502  0.40422942807E+02  0.72123276585E+02  0.13939105085E+04  0.13963666279E+04  0.41800000000E+01 0. -1.
        -11    1    4    4    0    0 -0.95739397664E+01 -0.67438100504E+02  0.53996156222E+02  0.86920323337E+02  0.00000000000E+00 0.  1.
         11    1    4    4    0    0  0.18182742910E+02 -0.76097796945E+02  0.23824753913E+03  0.25076558125E+03  0.00000000000E+00 0. -1.
</event>
<event>
 8    1  0.6648599E-009  0.1046456E+03  0.7561462E-02  0.1270819E+00
          2   -1    0    0  501    0  0.00000000000E+00  0.00000000000E+00  0.27570208554E+03  0.27570208554E+03  0.00000000000E+00 0. -1.
         -2   -1    0    0    0  501 -0.00000000000E+00 -0.00000000000E+00 -0.59967848327E+02  0.59967848327E+02  0.00000000000E+00 0.  1.
         25    2    1    2    0    0 -0.35115279237E+02  0.34674141121E+02  0.17330131235E+03  0.21935330065E+03  0.12508855562E+03 0.  0.
         23    2    1    2    0    0  0.35115279237E+02 -0.34674141121E+02  0.42432924866E+02  0.11631663321E+03  0.96403460265E+02 0.  0.
          5    1    3    3  502    0  0.37536015211E+02 -0.53914570091E+01  0.15812410384E+02  0.41298001995E+02  0.41800000000E+01 0. -1.
         -5    1    3    3    0  502 -0.72651294449E+02  0.40065598130E+02  0.15748890196E+03  0.17805529866E+03  0.41800000000E+01 0. -1.
        -11    1    4    4    0    0  0.37056910795E+02 -0.55728690427E+02  0.59185049462E+02  0.89340761438E+02  0.00000000000E+00 0. -1.
         11    1    4    4    0    0 -0.19416315572E+01  0.21054549306E+02 -0.16752124596E+02  0.26975871776E+02  0.00000000000E+00 0.  1.
</event>
<event>
 8    1  0.6648599E-009  0.1760826E+03  0.7561462E-02  0.1171649E+00
          2   -1    0    0  501    0  0.00000000000E+00  0.00000000000E+00  0.10531779452E+04  0.10531779452E+04  0.00000000000E+00 0. -1.
         -2   -1    0    0    0  501 -0.00000000000E+00 -0.00000000000E+00 -0.40198728060E+02  0.40198728060E+02  0.00000000000E+00 0.  1.
         25    2    1    2    0    0 -0.13776104229E+02 -0.17372103141E+03  0.54596815754E+03  0.58659807619E+03  0.12508915278E+03 0.  0.
         23    2    1    2    0    0  0.13776104229E+02  0.17372103141E+03  0.46701105964E+03  0.50677859711E+03  0.91413559490E+02 0.  0.
          5    1    3    3  502    0  0.89780857609E+01 -0.81637258523E+02  0.42467221577E+03  0.43256122255E+03  0.41800000000E+01 0.  1.
         -5    1    3    3    0  502 -0.22754189990E+02 -0.92083772888E+02  0.12129594177E+03  0.15403685364E+03  0.41800000000E+01 0.  1.
        -11    1    4    4    0    0 -0.68340595635E+00  0.91410903330E+02  0.35761702270E+03  0.36911563935E+03  0.00000000000E+00 0. -1.
         11    1    4    4    0    0  0.14459510186E+02  0.82310128081E+02  0.10939403694E+03  0.13766295775E+03  0.00000000000E+00 0.  1.
</event>
<event>
 8    1  0.6648599E-009  0.1851519E+03  0.7561462E-02  0.1162908E+00
          2   -1    0    0  501    0  0.00000000000E+00  0.00000000000E+00  0.60596026612E+03  0.60596026612E+03  0.00000000000E+00 0. -1.
         -2   -1    0    0    0  501 -0.00000000000E+00 -0.00000000000E+00 -0.65729222674E+02  0.65729222674E+02  0.00000000000E+00 0.  1.
         25    2    1    2    0    0  0.14787133062E+03 -0.38866551570E+02  0.16206328377E+03  0.25551503929E+03  0.12508752179E+03 0.  0.
         23    2    1    2    0    0 -0.14787133062E+03  0.38866551570E+02  0.37816775968E+03  0.41617444950E+03  0.82545615940E+02 0.  0.
          5    1    3    3  502    0  0.36521727298E+02 -0.71648147829E+02  0.54734242601E+02  0.97368389969E+02  0.41800000000E+01 0. -1.
         -5    1    3    3    0  502  0.11134960332E+03  0.32781596259E+02  0.10732904117E+03  0.15814664932E+03  0.41800000000E+01 0. -1.
        -11    1    4    4    0    0 -0.65755685545E+02 -0.24219966739E+02  0.16051211139E+03  0.17514152812E+03  0.00000000000E+00 0.  1.
         11    1    4    4    0    0 -0.82115645074E+02  0.63086518309E+02  0.21765564829E+03  0.24103292138E+03  0.00000000000E+00 0. -1.
</event>
<event>
 8    1  0.6648599E-009  0.2282069E+03  0.7561462E-02  0.1127908E+00
          2   -1    0    0  501    0  0.00000000000E+00  0.00000000000E+00  0.43040453717E+03  0.43040453717E+03  0.00000000000E+00 0. -1.
         -2   -1    0    0    0  501 -0.00000000000E+00 -0.00000000000E+00 -0.13844033775E+03  0.13844033775E+03  0.00000000000E+00 0.  1.
         25    2    1    2    0    0  0.12229819549E+03  0.16667413825E+03  0.68285458950E+02  0.25109028784E+03  0.12508521799E+03 0.  0.
         23    2    1    2    0    0 -0.12229819549E+03 -0.16667413825E+03  0.22367874047E+03  0.31775458708E+03  0.90546571957E+02 0.  0.
          5    1    3    3  502    0  0.14664144460E+03  0.15652627961E+03  0.65165575006E+02  0.22420574045E+03  0.41800000000E+01 0.  1.
         -5    1    3    3    0  502 -0.24343249113E+02  0.10147858641E+02  0.31198839448E+01  0.26884547388E+02  0.41800000000E+01 0.  1.
        -11    1    4    4    0    0 -0.39955190805E+02 -0.10488112584E+03  0.68357664971E+02  0.13141247349E+03  0.00000000000E+00 0.  1.
         11    1    4    4    0    0 -0.82343004685E+02 -0.61793012414E+02  0.15532107550E+03  0.18634211359E+03  0.00000000000E+00 0. -1.
</event>
<event>
 8    1  0.6648599E-009  0.9426576E+02  0.7561462E-02  0.1292838E+00
         -2   -1    0    0    0  501 -0.00000000000E+00  0.00000000000E+00  0.85088222815E+02  0.85088222815E+02  0.00000000000E+00 0.  1.
          2   -1    0    0  501    0  0.00000000000E+00 -0.00000000000E+00 -0.21338490155E+03  0.21338490155E+03  0.00000000000E+00 0. -1.
         25    2    1    2    0    0  0.23614959275E+02 -0.59726607637E+02 -0.12393084031E+03  0.18743446240E+03  0.12509152871E+03 0.  0.
         23    2    1    2    0    0 -0.23614959275E+02  0.59726607637E+02 -0.43658384270E+01  0.11103866196E+03  0.90474250171E+02 0.  0.
          5    1    3    3  502    0  0.37012095104E+02 -0.65691791803E+02 -0.14437658106E+02  0.76884491713E+02  0.41800000000E+01 0.  1.
         -5    1    3    3    0  502 -0.13397135829E+02  0.59651841663E+01 -0.10949318220E+03  0.11054997069E+03  0.41800000000E+01 0.  1.
        -11    1    4    4    0    0 -0.41025690370E+02  0.67268216345E+02  0.18890212978E+02  0.81024442898E+02  0.00000000000E+00 0.  1.
         11    1    4    4    0    0  0.17410731095E+02 -0.75416087081E+01 -0.23256051405E+02  0.30014219065E+02  0.00000000000E+00 0. -1.
</event>
<event>
 8    1  0.6648599E-009  0.1133725E+03  0.7561462E-02  0.1254449E+00
         -2   -1    0    0    0  501 -0.00000000000E+00  0.00000000000E+00  0.68659049341E+03  0.68659049341E+03  0.00000000000E+00 0.  1.
          2   -1    0    0  501    0  0.00000000000E+00 -0.00000000000E+00 -0.34411220057E+02  0.34411220057E+02  0.00000000000E+00 0. -1.
         25    2    1    2    0    0  0.38347487855E+02  0.67407247928E+02  0.53170405266E+03  0.55169664876E+03  0.12508287548E+03 0.  0.
         23    2    1    2    0    0 -0.38347487855E+02 -0.67407247928E+02  0.12047522070E+03  0.16930506471E+03  0.90197889319E+02 0.  0.
          5    1    3    3  502    0 -0.86257405236E+01  0.63029023526E+02  0.46796404684E+03  0.47228686488E+03  0.41800000000E+01 0. -1.
         -5    1    3    3    0  502  0.46973228378E+02  0.43782244014E+01  0.63740005822E+02  0.79409783877E+02  0.41800000000E+01 0. -1.
        -11    1    4    4    0    0  0.15043028101E+02  0.12478407403E+02  0.37772811272E+02  0.42529855597E+02  0.00000000000E+00 0.  1.
         11    1    4    4    0    0 -0.53390515956E+02 -0.79885655331E+02  0.82702409427E+02  0.12677520912E+03  0.00000000000E+00 0. -1.
</event>
<event>
 8    1  0.6648599E-009  0.9205439E+02  0.7561462E-02  0.1297952E+00
          1   -1    0    0  501    0  0.00000000000E+00  0.00000000000E+00  0.55893614057E+03  0.55893614057E+03  0.00000000000E+00 0. -1.
         -1   -1    0    0    0  501 -0.00000000000E+00 -0.00000000000E+00 -0.23484581922E+02  0.23484581922E+02  0.00000000000E+00 0.  1.
         25    2    1    2    0    0 -0.25828830606E+02  0.21011315336E+01  0.42407204817E+03  0.44289527501E+03  0.12509028475E+03 0.  0.
         23    2    1    2    0    0  0.25828830606E+02 -0.21011315336E+01  0.11137951048E+03  0.13952544749E+03  0.79940051901E+02 0.  0.
          5    1    3    3  502    0  0.42106104950E+02  0.40762921113E+01  0.66701329502E+02  0.79095385382E+02  0.41800000000E+01 0. -1.
         -5    1    3    3    0  502 -0.67934935556E+02 -0.19751605778E+01  0.35737071867E+03  0.36379988962E+03  0.41800000000E+01 0. -1.
        -11    1    4    4    0    0  0.41949672708E+02  0.19739560782E+02  0.33915935357E+02  0.57443154260E+02  0.00000000000E+00 0.  1.
         11    1    4    4    0    0 -0.16120842102E+02 -0.21840692315E+02  0.77463575123E+02  0.82082293229E+02  0.00000000000E+00 0. -1.
</event>
<event>
 8    1  0.6648599E-009  0.1084917E+03  0.7561462E-02  0.1263389E+00
         -1   -1    0    0    0  501 -0.00000000000E+00  0.00000000000E+00  0.61156722220E+03  0.61156722220E+03  0.00000000000E+00 0.  1.
          1   -1    0    0  501    0  0.00000000000E+00 -0.00000000000E+00 -0.22387832039E+02  0.22387832039E+02  0.00000000000E+00 0. -1.
         25    2    1    2    0    0 -0.30895645480E+01  0.28636141743E+02  0.23965790650E+03  0.27189197682E+03  0.12513896631E+03 0.  0.
         23    2    1    2    0    0  0.30895645480E+01 -0.28636141743E+02  0.34952148366E+03  0.36206307741E+03  0.89971275781E+02 0.  0.
          5    1    3    3  502    0 -0.53581361201E+02 -0.15030762849E+02  0.14991900130E+03  0.15996895152E+03  0.41800000000E+01 0. -1.
         -5    1    3    3    0  502  0.50491796653E+02  0.43666904592E+02  0.89738905202E+02  0.11192302530E+03  0.41800000000E+01 0. -1.
        -11    1    4    4    0    0  0.32748215980E+02  0.19233392826E+02  0.13001819062E+03  0.13545146341E+03  0.00000000000E+00 0.  1.
         11    1    4    4    0    0 -0.29658651432E+02 -0.47869534570E+02  0.21950329304E+03  0.22661161400E+03  0.00000000000E+00 0. -1.
</event>
<event>
 8    1  0.6648599E-009  0.1081285E+03  0.7561462E-02  0.1264075E+00
          1   -1    0    0  501    0  0.00000000000E+00  0.00000000000E+00  0.12247942053E+03  0.12247942053E+03  0.00000000000E+00 0. -1.
         -1   -1    0    0    0  501 -0.00000000000E+00 -0.00000000000E+00 -0.14376953354E+03  0.14376953354E+03  0.00000000000E+00 0.  1.
         25    2    1    2    0    0 -0.30376336402E+02  0.49981758301E+02  0.40142714932E+02  0.14380563130E+03  0.12509086320E+03 0.  0.
         23    2    1    2    0    0  0.30376336402E+02 -0.49981758301E+02 -0.61432827941E+02  0.12244332277E+03  0.88303323648E+02 0.  0.
          5    1    3    3  502    0 -0.54726533543E+02 -0.22201017301E+02  0.38819104129E+01  0.59333129627E+02  0.41800000000E+01 0.  1.
         -5    1    3    3    0  502  0.24350197141E+02  0.72182775602E+02  0.36260804519E+02  0.84472501673E+02  0.41800000000E+01 0.  1.
        -11    1    4    4    0    0  0.45191774597E+02 -0.24823789188E+02 -0.74381225639E+02  0.90504606117E+02  0.00000000000E+00 0.  1.
         11    1    4    4    0    0 -0.14815438195E+02 -0.25157969113E+02  0.12948397698E+02  0.31938716658E+02  0.00000000000E+00 0. -1.
</event>
<event>
 8    1  0.6648599E-009  0.1411222E+03  0.7561462E-02  0.1211827E+00
          1   -1    0    0  501    0  0.00000000000E+00  0.00000000000E+00  0.23690044781E+04  0.23690044781E+04  0.00000000000E+00 0. -1.
         -1   -1    0    0    0  501 -0.00000000000E+00 -0.00000000000E+00 -0.18726031127E+02  0.18726031127E+02  0.00000000000E+00 0.  1.
         25    2    1    2    0    0  0.13903553989E+03  0.35136770964E+01  0.18720383978E+04  0.18813607537E+04  0.12508915053E+03 0.  0.
         23    2    1    2    0    0 -0.13903553989E+03 -0.35136770964E+01  0.47824004921E+03  0.50636975553E+03  0.91397797374E+02 0.  0.
          5    1    3    3  502    0  0.91393936609E+02  0.45724230132E+00  0.17084389167E+04  0.17108869236E+04  0.41800000000E+01 0.  1.
         -5    1    3    3    0  502  0.47641603284E+02  0.30564347950E+01  0.16359948103E+03  0.17047383010E+03  0.41800000000E+01 0.  1.
        -11    1    4    4    0    0 -0.54327537569E+02 -0.17285899477E+02  0.75610184745E+02  0.94695214748E+02  0.00000000000E+00 0.  1.
         11    1    4    4    0    0 -0.84708002324E+02  0.13772222380E+02  0.40262986447E+03  0.41167454078E+03  0.00000000000E+00 0. -1.
</event>
<event>
 8    1  0.6648599E-009  0.1151955E+03  0.7561462E-02  0.1251240E+00
          3   -1    0    0  501    0  0.00000000000E+00  0.00000000000E+00  0.33549308933E+03  0.33549308933E+03  0.00000000000E+00 0. -1.
         -3   -1    0    0    0  501 -0.00000000000E+00 -0.00000000000E+00 -0.49483607772E+02  0.49483607772E+02  0.00000000000E+00 0.  1.
         25    2    1    2    0    0  0.93435875792E+01 -0.67603932946E+02  0.15475059853E+03  0.21036202059E+03  0.12508731984E+03 0.  0.
         23    2    1    2    0    0 -0.93435875792E+01  0.67603932946E+02  0.13125888303E+03  0.17461467651E+03  0.92756652047E+02 0.  0.
          5    1    3    3  502    0 -0.48903555881E-01  0.36569655921E+02  0.29809503780E+02  0.47364765821E+02  0.41800000000E+01 0.  1.
         -5    1    3    3    0  502  0.93924911351E+01 -0.10417358887E+03  0.12494109475E+03  0.16299725477E+03  0.41800000000E+01 0.  1.
        -11    1    4    4    0    0  0.15029199209E+02  0.62132277470E+02  0.30540730137E+02  0.70845133424E+02  0.00000000000E+00 0.  1.
         11    1    4    4    0    0 -0.24372786788E+02  0.54716554751E+01  0.10071815290E+03  0.10376954309E+03  0.00000000000E+00 0. -1.
</event>
<event>
 8    1  0.6648599E-009  0.1521119E+03  0.7561462E-02  0.1197902E+00
          2   -1    0    0  501    0  0.00000000000E+00  0.00000000000E+00  0.42215931756E+03  0.42215931756E+03  0.00000000000E+00 0. -1.
         -2   -1    0    0    0  501 -0.00000000000E+00 -0.00000000000E+00 -0.75267045929E+02  0.75267045929E+02  0.00000000000E+00 0.  1.
         25    2    1    2    0    0  0.14003884332E+03 -0.18829122311E+02  0.18616416943E+03  0.26508541922E+03  0.12509103893E+03 0.  0.
         23    2    1    2    0    0 -0.14003884332E+03  0.18829122311E+02  0.16072810220E+03  0.23234094427E+03  0.90462025503E+02 0.  0.
          5    1    3    3  502    0  0.79913554176E+02 -0.50710561738E+02  0.17061302160E+03  0.19515125608E+03  0.41800000000E+01 0. -1.
         -5    1    3    3    0  502  0.60125289147E+02  0.31881439427E+02  0.15551147829E+02  0.69934163138E+02  0.41800000000E+01 0. -1.
        -11    1    4    4    0    0 -0.86602297691E+02  0.11117238774E+02  0.15519198127E+03  0.17806768942E+03  0.00000000000E+00 0. -1.
         11    1    4    4    0    0 -0.53436545632E+02  0.77118835374E+01  0.55361209308E+01  0.54273254848E+02  0.00000000000E+00 0.  1.
</event>
<event>
 8    1  0.6648599E-009  0.1300988E+03  0.7561462E-02  0.1227309E+00
         -1   -1    0    0    0  501 -0.00000000000E+00  0.00000000000E+00  0.26894647356E+02  0.26894647356E+02  0.00000000000E+00 0.  1.
          1   -1    0    0  501    0  0.00000000000E+00 -0.00000000000E+00 -0.88661063900E+03  0.88661063900E+03  0.00000000000E+00 0. -1.
         25    2    1    2    0    0  0.98080158044E+01 -0.55935183438E+02 -0.20442758246E+03  0.24629940992E+03  0.12509125044E+03 0.  0.
         23    2    1    2    0    0 -0.98080158044E+01  0.55935183438E+02 -0.65528840919E+03  0.66720587644E+03  0.11196356738E+03 0.  0.
          5    1    3    3  502    0  0.49235620748E+02 -0.77191364275E+02 -0.12475005939E+03  0.15479891081E+03  0.41800000000E+01 0.  1.
         -5    1    3    3    0  502 -0.39427604943E+02  0.21256180837E+02 -0.79677523070E+02  0.91500499113E+02  0.41800000000E+01 0.  1.
        -11    1    4    4    0    0 -0.44168912057E+02  0.72900682713E+02 -0.50294246431E+03  0.51011422715E+03  0.00000000000E+00 0.  1.
         11    1    4    4    0    0  0.34360896253E+02 -0.16965499274E+02 -0.15234594487E+03  0.15709164929E+03  0.00000000000E+00 0. -1.
</event>
<event>
 8    1  0.6648599E-009  0.1402769E+03  0.7561462E-02  0.1212957E+00
         -3   -1    0    0    0  501 -0.00000000000E+00  0.00000000000E+00  0.26797168586E+03  0.26797168586E+03  0.00000000000E+00 0.  1.
          3   -1    0    0  501    0  0.00000000000E+00 -0.00000000000E+00 -0.80328959417E+02  0.80328959417E+02  0.00000000000E+00 0. -1.
         25    2    1    2    0    0  0.84539524315E+02  0.50621642093E+02  0.10492147144E+03  0.19069683030E+03  0.12508910463E+03 0.  0.
         23    2    1    2    0    0 -0.84539524315E+02 -0.50621642093E+02  0.82721254999E+02  0.15760381497E+03  0.91031174035E+02 0.  0.
          5    1    3    3  502    0 -0.24116611045E+01 -0.30308870567E+02  0.52451305127E+02  0.60770515497E+02  0.41800000000E+01 0. -1.
         -5    1    3    3    0  502  0.86951185419E+02  0.80930512660E+02  0.52470166313E+02  0.12992631480E+03  0.41800000000E+01 0. -1.
        -11    1    4    4    0    0 -0.95220673239E+02 -0.63363746111E+02  0.82412306533E+02  0.14097421467E+03  0.00000000000E+00 0.  1.
         11    1    4    4    0    0  0.10681148925E+02  0.12742104018E+02  0.30894846619E+00  0.16629600305E+02  0.00000000000E+00 0. -1.
</event>
<event>
 7    1  0.6648599E-009  0.1565728E+03  0.7561462E-02  0.1192621E+00
         -1   -1    0    0    0  501 -0.00000000000E+00  0.00000000000E+00  0.78383130409E+02  0.78383130409E+02  0.00000000000E+00 0.  1.
          1   -1    0    0  501    0  0.00000000000E+00 -0.00000000000E+00 -0.47200597357E+03  0.47200597357E+03  0.00000000000E+00 0. -1.
         23    2    1    2    0    0 -0.18206052689E+02 -0.14170531578E+03 -0.95848903636E+02  0.19726257803E+03  0.96507282042E+02 0.  0.
          5    1    1    2  502    0  0.17629181036E+01  0.33553964298E+02  0.20704382820E+01  0.33922492760E+02  0.41800000000E+01 0. -1.
         -5    1    1    2    0  502  0.16443134586E+02  0.10815135148E+03 -0.29984437781E+03  0.31920403320E+03  0.41800000000E+01 0. -1.
        -11    1    3    3    0    0  0.30662916001E+02 -0.15256619692E+02 -0.63831492241E+01  0.34838534070E+02  0.00000000000E+00 0. -1.
         11    1    3    3    0    0 -0.48868968690E+02 -0.12644869609E+03 -0.89465754411E+02  0.16242404396E+03  0.00000000000E+00 0.  1.
</event>
<event>
 8    1  0.6648599E-009  0.1056023E+03  0.7561462E-02  0.1268937E+00
         -2   -1    0    0    0  501 -0.00000000000E+00  0.00000000000E+00  0.10536252226E+03  0.10536252226E+03  0.00000000000E+00 0.  1.
          2   -1    0    0  501    0  0.00000000000E+00 -0.00000000000E+00 -0.14955972050E+03  0.14955972050E+03  0.00000000000E+00 0. -1.
         25    2    1    2    0    0  0.47051342255E+02  0.15963307199E+02 -0.62873460050E+02  0.14855374918E+03  0.12508592420E+03 0.  0.
         23    2    1    2    0    0 -0.47051342255E+02 -0.15963307199E+02  0.18676261812E+02  0.10636849358E+03  0.92178075953E+02 0.  0.
          5    1    3    3  502    0  0.36532182300E+02 -0.37131527697E+02  0.14318375307E+02  0.54183382731E+02  0.41800000000E+01 0. -1.
         -5    1    3    3    0  502  0.10519159956E+02  0.53094834896E+02 -0.77191835358E+02  0.94370366454E+02  0.41800000000E+01 0. -1.
        -11    1    4    4    0    0 -0.19724538262E+02  0.38761242184E+02  0.60373261214E+01  0.43908320533E+02  0.00000000000E+00 0. -1.
         11    1    4    4    0    0 -0.27326803993E+02 -0.54724549383E+02  0.12638935691E+02  0.62460173047E+02  0.00000000000E+00 0.  1.
</event>
<event>
 8    1  0.6648599E-009  0.2713624E+03  0.7561462E-02  0.1100502E+00
         -2   -1    0    0    0  501 -0.00000000000E+00  0.00000000000E+00  0.48837038874E+03  0.48837038874E+03  0.00000000000E+00 0.  1.
          2   -1    0    0  501    0  0.00000000000E+00 -0.00000000000E+00 -0.16629268231E+03  0.16629268231E+03  0.00000000000E+00 0. -1.
         25    2    1    2    0    0 -0.25484477753E+03  0.60753198031E+02  0.13710868863E+03  0.32106493793E+03  0.12508832944E+03 0.  0.
         23    2    1    2    0    0  0.25484477753E+03 -0.60753198031E+02  0.18496901780E+03  0.33359813312E+03  0.91855131450E+02 0.  0.
          5    1    3    3  502    0 -0.19283175949E+03 -0.11755663277E+01  0.54202883788E+02  0.20035192646E+03  0.41800000000E+01 0. -1.
         -5    1    3    3    0  502 -0.62013018038E+02  0.61928764358E+02  0.82905804840E+02  0.12071301147E+03  0.41800000000E+01 0. -1.
        -11    1    4    4    0    0  0.31806893518E+02 -0.10280349715E+02  0.70164761460E+02  0.77720382245E+02  0.00000000000E+00 0.  1.
         11    1    4    4    0    0  0.22303788401E+03 -0.50472848315E+02  0.11480425633E+03  0.25587775088E+03  0.00000000000E+00 0. -1.
</event>
<event>
 8    1  0.6648599E-009  0.1114110E+03  0.7561462E-02  0.1257979E+00
          2   -1    0    0  501    0  0.00000000000E+00  0.00000000000E+00  0.10254402936E+04  0.10254402936E+04  0.00000000000E+00 0. -1.
         -2   -1    0    0    0  501 -0.00000000000E+00 -0.00000000000E+00 -0.19289015679E+02  0.19289015679E+02  0.00000000000E+00 0.  1.
         25    2    1    2    0    0 -0.29074926913E+02  0.25018236563E+02  0.84728827671E+03  0.85733056385E+03  0.12508800236E+03 0.  0.
         23    2    1    2    0    0  0.29074926913E+02 -0.25018236563E+02  0.15886300118E+03  0.18739874539E+03  0.91703724541E+02 0.  0.
          5    1    3    3  502    0  0.39655278706E+01  0.68952702691E+02  0.33411967016E+03  0.34120906643E+03  0.41800000000E+01 0.  1.
         -5    1    3    3    0  502 -0.33040454783E+02 -0.43934466128E+02  0.51316860654E+03  0.51612149743E+03  0.41800000000E+01 0.  1.
        -11    1    4    4    0    0  0.33801961369E+02  0.28839900790E+02  0.84353281807E+02  0.95340382953E+02  0.00000000000E+00 0. -1.
         11    1    4    4    0    0 -0.47270344560E+01 -0.53858137353E+02  0.74509719370E+02  0.92058362437E+02  0.00000000000E+00 0.  1.
</event>
<event>
 8    1  0.6648599E-009  0.1397181E+03  0.7561462E-02  0.1213709E+00
          3   -1    0    0  501    0  0.00000000000E+00  0.00000000000E+00  0.13825268558E+03  0.13825268558E+03  0.00000000000E+00 0. -1.
         -3   -1    0    0    0  501 -0.00000000000E+00 -0.00000000000E+00 -0.21381991333E+03  0.21381991333E+03  0.00000000000E+00 0.  1.
         25    2    1    2    0    0  0.96419696326E+02  0.63361008930E+02 -0.10771279341E+03  0.20139864769E+03  0.12509194272E+03 0.  0.
         23    2    1    2    0    0 -0.96419696326E+02 -0.63361008930E+02  0.32145565658E+02  0.15067395123E+03  0.91421698161E+02 0.  0.
          5    1    3    3  502    0  0.90770070175E+02  0.15345759316E+02 -0.10502867359E+02  0.92749558443E+02  0.41800000000E+01 0. -1.
         -5    1    3    3    0  502  0.56496261507E+01  0.48015249614E+02 -0.97209926049E+02  0.10864908924E+03  0.41800000000E+01 0. -1.
        -11    1    4    4    0    0 -0.50815607694E+02 -0.76008961892E+02  0.44611962047E+02  0.10173404263E+03  0.00000000000E+00 0. -1.
         11    1    4    4    0    0 -0.45604088632E+02  0.12647952962E+02 -0.12466396388E+02  0.48939908592E+02  0.00000000000E+00 0.  1.
</event>
<event>
 8    1  0.6648599E-009  0.2778205E+03  0.7561462E-02  0.1096885E+00
          3   -1    0    0  501    0  0.00000000000E+00  0.00000000000E+00  0.50285407276E+03  0.50285407276E+03  0.00000000000E+00 0. -1.
         -3   -1    0    0    0  501 -0.00000000000E+00 -0.00000000000E+00 -0.17487366636E+03  0.17487366636E+03  0.00000000000E+00 0.  1.
         25    2    1    2    0    0  0.20661395622E+03  0.17567484091E+03  0.22325049754E+03  0.37288018608E+03  0.12509145407E+03 0.  0.
         23    2    1    2    0    0 -0.20661395622E+03 -0.17567484091E+03  0.10472990886E+03  0.30484755305E+03  0.91720772748E+02 0.  0.
          5    1    3    3  502    0  0.15518410573E+03  0.10289727333E+03  0.76933029515E+02  0.20150960017E+03  0.41800000000E+01 0. -1.
         -5    1    3    3    0  502  0.51429850491E+02  0.72777567585E+02  0.14631746803E+03  0.17137058591E+03  0.41800000000E+01 0. -1.
        -11    1    4    4    0    0 -0.13473106033E+03 -0.68531279391E+02  0.87559177316E+02  0.17468716153E+03  0.00000000000E+00 0. -1.
         11    1    4    4    0    0 -0.71882895899E+02 -0.10714356152E+03  0.17170731543E+02  0.13016039152E+03  0.00000000000E+00 0.  1.
</event>
<event>
 8    1  0.6648599E-009  0.1004822E+03  0.7561462E-02  0.1279285E+00
         -1   -1    0    0    0  501 -0.00000000000E+00  0.00000000000E+00  0.12864602946E+03  0.12864602946E+03  0.00000000000E+00 0.  1.
          1   -1    0    0  501    0  0.00000000000E+00 -0.00000000000E+00 -0.12865378828E+03  0.12865378828E+03  0.00000000000E+00 0. -1.
         25    2    1    2    0    0  0.28892709972E+02  0.53003853623E+02 -0.33760606352E+02  0.14294647908E+03  0.12509884153E+03 0.  0.
         23    2    1    2    0    0 -0.28892709972E+02 -0.53003853623E+02  0.33752847529E+02  0.11435333865E+03  0.91067195831E+02 0.  0.
          5    1    3    3  502    0  0.67031217243E+02  0.69889436798E+02 -0.21707914114E+02  0.99329871621E+02  0.41800000000E+01 0. -1.
         -5    1    3    3    0  502 -0.38138507271E+02 -0.16885583176E+02 -0.12052692238E+02  0.43616607459E+02  0.41800000000E+01 0. -1.
        -11    1    4    4    0    0 -0.20528013082E+02 -0.22367079479E+02 -0.30279431950E+02  0.42878077904E+02  0.00000000000E+00 0. -1.
         11    1    4    4    0    0 -0.83646968898E+01 -0.30636774144E+02  0.64032279479E+02  0.71475260750E+02  0.00000000000E+00 0.  1.
</event>
<event>
 8    1  0.6648599E-009  0.1226669E+03  0.7561462E-02  0.1238761E+00
          1   -1    0    0  501    0  0.00000000000E+00  0.00000000000E+00  0.18688456480E+03  0.18688456480E+03  0.00000000000E+00 0. -1.
         -1   -1    0    0    0  501 -0.00000000000E+00 -0.00000000000E+00 -0.92238341070E+02  0.92238341070E+02  0.00000000000E+00 0.  1.
         25    2    1    2    0    0  0.41513921552E+02  0.57631183101E+02  0.52421325208E+02  0.15310705949E+03  0.12509603263E+03 0.  0.
         23    2    1    2    0    0 -0.41513921552E+02 -0.57631183101E+02  0.42224898526E+02  0.12601584638E+03  0.95143536491E+02 0.  0.
          5    1    3    3  502    0  0.15947220875E+01 -0.30191618046E+02  0.47450629529E+02  0.56419071079E+02  0.41800000000E+01 0. -1.
         -5    1    3    3    0  502  0.39919199465E+02  0.87822801148E+02  0.49706956790E+01  0.96687988410E+02  0.41800000000E+01 0. -1.
        -11    1    4    4    0    0 -0.65768083748E+02 -0.12397462184E+02  0.18272123737E+02  0.69375848927E+02  0.00000000000E+00 0.  1.
         11    1    4    4    0    0  0.24254162195E+02 -0.45233720917E+02  0.23952774789E+02  0.56639997457E+02  0.00000000000E+00 0. -1.
</event>
<event>
 8    1  0.6648599E-009  0.1131917E+03  0.7561462E-02  0.1254771E+00
          2   -1    0    0  501    0  0.00000000000E+00  0.00000000000E+00  0.69329216784E+03  0.69329216784E+03  0.00000000000E+00 0.  1.
         -2   -1    0    0    0  501 -0.00000000000E+00 -0.00000000000E+00 -0.25513807413E+02  0.25513807413E+02  0.00000000000E+00 0. -1.
         25    2    1    2    0    0 -0.47451973694E+02 -0.46928642873E+02  0.46964442477E+03  0.49057815645E+03  0.12508818707E+03 0.  0.
         23    2    1    2    0    0  0.47451973694E+02  0.46928642873E+02  0.19813393566E+03  0.22822781880E+03  0.91525370720E+02 0.  0.
          5    1    3    3  502    0  0.42527685075E+02 -0.23100338600E+02  0.16545188198E+03  0.17243557432E+03  0.41800000000E+01 0. -1.
         -5    1    3    3    0  502 -0.89979658769E+02 -0.23828304273E+02  0.30419254279E+03  0.31814258213E+03  0.41800000000E+01 0. -1.
        -11    1    4    4    0    0  0.49817677643E+02  0.14178379595E+02  0.36679357229E+02  0.63468123499E+02  0.00000000000E+00 0. -1.
         11    1    4    4    0    0 -0.23657039499E+01  0.32750263278E+02  0.16145457843E+03  0.16475969530E+03  0.00000000000E+00 0.  1.
</event>
<event>
 8    1  0.6648599E-009  0.1729539E+03  0.7561462E-02  0.1174802E+00
         -1   -1    0    0    0  501 -0.00000000000E+00  0.00000000000E+00  0.97988443499E+02  0.97988443499E+02  0.00000000000E+00 0.  1.
          1   -1    0    0  501    0  0.00000000000E+00 -0.00000000000E+00 -0.45097671749E+03  0.45097671749E+03  0.00000000000E+00 0. -1.
         25    2    1    2    0    0  0.88665702603E+01  0.13506035983E+03 -0.29656871344E+02  0.18667290883E+03  0.12508928014E+03 0.  0.
         23    2    1    2    0    0 -0.88665702603E+01 -0.13506035983E+03 -0.32333140265E+03  0.36229225216E+03  0.91610933710E+02 0.  0.
          5    1    3    3  502    0 -0.54980533872E+02  0.36986403333E+02 -0.19153702160E+02  0.69102748446E+02  0.41800000000E+01 0. -1.
         -5    1    3    3    0  502  0.63847104132E+02  0.98073956495E+02 -0.10503169184E+02  0.11757016038E+03  0.41800000000E+01 0. -1.
        -11    1    4    4    0    0 -0.36788719277E+02 -0.15992536518E+02 -0.63358673888E+02  0.74989950308E+02  0.00000000000E+00 0. -1.
         11    1    4    4    0    0  0.27922149016E+02 -0.11906782331E+03 -0.25997272876E+03  0.28730230186E+03  0.00000000000E+00 0.  1.
</event>
<event>
 8    1  0.6648599E-009  0.1260774E+03  0.7561462E-02  0.1233395E+00
          1   -1    0    0  501    0  0.00000000000E+00  0.00000000000E+00  0.11359506422E+04  0.11359506422E+04  0.00000000000E+00 0. -1.
         -1   -1    0    0    0  501 -0.00000000000E+00 -0.00000000000E+00 -0.16759608543E+02  0.16759608543E+02  0.00000000000E+00 0.  1.
         25    2    1    2    0    0 -0.21890217138E+01 -0.84295255853E+02  0.59666095726E+03  0.61543828440E+03  0.12509796965E+03 0.  0.
         23    2    1    2    0    0  0.21890217138E+01  0.84295255853E+02  0.52253007638E+03  0.53727196633E+03  0.92265936852E+02 0.  0.
          5    1    3    3  502    0  0.11716784047E+02  0.19511388095E+02  0.29839329669E+03  0.29928917322E+03  0.41800000000E+01 0. -1.
         -5    1    3    3    0  502 -0.13905805761E+02 -0.10380664395E+03  0.29826766056E+03  0.31614911118E+03  0.41800000000E+01 0. -1.
        -11    1    4    4    0    0 -0.34818511230E+02  0.79614653271E+02  0.33647867334E+03  0.34751794105E+03  0.00000000000E+00 0.  1.
         11    1    4    4    0    0  0.37007532943E+02  0.46806025821E+01  0.18605140304E+03  0.18975402528E+03  0.00000000000E+00 0. -1.
</event>
<event>
 8    1  0.6648599E-009  0.1834917E+03  0.7561462E-02  0.1164466E+00
          2   -1    0    0  501    0  0.00000000000E+00  0.00000000000E+00  0.58921706124E+03  0.58921706124E+03  0.00000000000E+00 0. -1.
         -2   -1    0    0    0  501 -0.00000000000E+00 -0.00000000000E+00 -0.73938844302E+02  0.73938844302E+02  0.00000000000E+00 0.  1.
         25    2    1    2    0    0  0.38669448461E+02 -0.16902102376E+03  0.20747015606E+03  0.29791798582E+03  0.12509127828E+03 0.  0.
         23    2    1    2    0    0 -0.38669448461E+02  0.16902102376E+03  0.30780806087E+03  0.36523791972E+03  0.92679571331E+02 0.  0.
          5    1    3    3  502    0 -0.44789871360E+01 -0.10052664450E+02  0.10112308406E+03  0.10180603086E+03  0.41800000000E+01 0.  1.
         -5    1    3    3    0  502  0.43148435597E+02 -0.15896835932E+03  0.10634707200E+03  0.19611195497E+03  0.41800000000E+01 0.  1.
        -11    1    4    4    0    0 -0.43385429205E+02  0.33446058313E+02  0.51219661430E+02  0.74995919895E+02  0.00000000000E+00 0.  1.
         11    1    4    4    0    0  0.47159807442E+01  0.13557496545E+03  0.25658839944E+03  0.29024199982E+03  0.00000000000E+00 0. -1.
</event>
<event>
 8    1  0.6648599E-009  0.9780659E+02  0.7561462E-02  0.1284977E+00
         -1   -1    0    0    0  501 -0.00000000000E+00  0.00000000000E+00  0.15684765453E+03  0.15684765453E+03  0.00000000000E+00 0.  1.
          1   -1    0    0  501    0  0.00000000000E+00 -0.00000000000E+00 -0.96506323145E+02  0.96506323145E+02  0.00000000000E+00 0. -1.
         25    2    1    2    0    0 -0.63125838100E+00 -0.24273591323E+02  0.71717767422E+02  0.14622667176E+03  0.12509674515E+03 0.  0.
         23    2    1    2    0    0  0.63125838100E+00  0.24273591323E+02 -0.11376436038E+02  0.10712730591E+03  0.10371707021E+03 0.  0.
          5    1    3    3  502    0 -0.33307410937E+02 -0.54275629906E+02  0.78487612803E+02  0.10115831843E+03  0.41800000000E+01 0. -1.
         -5    1    3    3    0  502  0.32676152556E+02  0.30002038583E+02 -0.67698453814E+01  0.45068353325E+02  0.41800000000E+01 0. -1.
        -11    1    4    4    0    0  0.28198558840E+02  0.44753417677E+02  0.23766871917E+02  0.57990441584E+02  0.00000000000E+00 0.  1.
         11    1    4    4    0    0 -0.27567300459E+02 -0.20479826354E+02 -0.35143307956E+02  0.49136864330E+02  0.00000000000E+00 0. -1.
</event>
<event>
 8    1  0.6648599E-009  0.1226205E+03  0.7561462E-02  0.1238836E+00
         -2   -1    0    0    0  501 -0.00000000000E+00  0.00000000000E+00  0.55077914711E+02  0.55077914711E+02  0.00000000000E+00 0.  1.
          2   -1    0    0  501    0  0.00000000000E+00 -0.00000000000E+00 -0.49266113526E+03  0.49266113526E+03  0.00000000000E+00 0. -1.
         25    2    1    2    0    0 -0.11463044619E+03  0.99395688391E+01 -0.30378979266E+03  0.34810229942E+03  0.12509212012E+03 0.  0.
         23    2    1    2    0    0  0.11463044619E+03 -0.99395688391E+01 -0.13379342789E+03  0.19963675055E+03  0.93355324442E+02 0.  0.
          5    1    3    3  502    0 -0.84179847390E+02 -0.19490571026E+02 -0.29112140635E+03  0.30370260898E+03  0.41800000000E+01 0. -1.
         -5    1    3    3    0  502 -0.30450598796E+02  0.29430139865E+02 -0.12668386306E+02  0.44399690440E+02  0.41800000000E+01 0. -1.
        -11    1    4    4    0    0  0.89648865211E+02 -0.10252416293E+01 -0.33198929904E+02  0.95604074708E+02  0.00000000000E+00 0.  1.
         11    1    4    4    0    0  0.24981580975E+02 -0.89143272098E+01 -0.10059449798E+03  0.10403267584E+03  0.00000000000E+00 0. -1.
</event>
<event>
 8    1  0.6648599E-009  0.1035110E+03  0.7561462E-02  0.1273081E+00
          2   -1    0    0  501    0  0.00000000000E+00  0.00000000000E+00  0.31335725543E+03  0.31335725543E+03  0.00000000000E+00 0. -1.
         -2   -1    0    0    0  501 -0.00000000000E+00 -0.00000000000E+00 -0.59779998869E+02  0.59779998869E+02  0.00000000000E+00 0.  1.
         25    2    1    2    0    0 -0.15490112376E+02  0.27003946649E+02  0.33986370269E+02  0.13330743566E+03  0.12508653933E+03 0.  0.
         23    2    1    2    0    0  0.15490112376E+02 -0.27003946649E+02  0.21959088629E+03  0.23982981864E+03  0.91263507775E+02 0.  0.
          5    1    3    3  502    0  0.51129590316E+02  0.28752239701E+01  0.35264308440E+02  0.62318101452E+02  0.41800000000E+01 0. -1.
         -5    1    3    3    0  502 -0.66619702692E+02  0.24128722679E+02 -0.12779381713E+01  0.70989334205E+02  0.41800000000E+01 0. -1.
        -11    1    4    4    0    0  0.20951308403E+01  0.27986657149E+02  0.26442676970E+02  0.38559794047E+02  0.00000000000E+00 0.  1.
         11    1    4    4    0    0  0.13394981535E+02 -0.54990603798E+02  0.19314820932E+03  0.20127002460E+03  0.00000000000E+00 0. -1.
</event>
<event>
 8    1  0.6648599E-009  0.2343666E+03  0.7561462E-02  0.1123604E+00
         -1   -1    0    0    0  501 -0.00000000000E+00  0.00000000000E+00  0.51420075430E+03  0.51420075430E+03  0.00000000000E+00 0.  1.
          1   -1    0    0  501    0  0.00000000000E+00 -0.00000000000E+00 -0.13297275113E+03  0.13297275113E+03  0.00000000000E+00 0. -1.
         25    2    1    2    0    0  0.20004543538E+03  0.98231445150E+02  0.92430978364E+02  0.27177265366E+03  0.12509714820E+03 0.  0.
         23    2    1    2    0    0 -0.20004543538E+03 -0.98231445150E+02  0.28879702481E+03  0.37540085176E+03  0.88625532056E+02 0.  0.
          5    1    3    3  502    0  0.46833197149E+02 -0.11745717027E+02 -0.19704648019E+02  0.52316878512E+02  0.41800000000E+01 0. -1.
         -5    1    3    3    0  502  0.15321223823E+03  0.10997716218E+03  0.11213562638E+03  0.21945577515E+03  0.41800000000E+01 0. -1.
        -11    1    4    4    0    0 -0.17867636985E+03 -0.10729173892E+03  0.28302677058E+03  0.35148387623E+03  0.00000000000E+00 0.  1.
         11    1    4    4    0    0 -0.21369065524E+02  0.90602937711E+01  0.57702542266E+01  0.23916975528E+02  0.00000000000E+00 0. -1.
</event>
<event>
 8    1  0.6648599E-009  0.1199936E+03  0.7561462E-02  0.1243108E+00
         -1   -1    0    0    0  501 -0.00000000000E+00  0.00000000000E+00  0.12857416385E+02  0.12857416385E+02  0.00000000000E+00 0.  1.
          1   -1    0    0  501    0  0.00000000000E+00 -0.00000000000E+00 -0.11446268417E+04  0.11446268417E+04  0.00000000000E+00 0. -1.
         25    2    1    2    0    0  0.40385827838E+02  0.28066889526E+02 -0.55005221709E+03  0.56623584844E+03  0.12508728615E+03 0.  0.
         23    2    1    2    0    0 -0.40385827838E+02 -0.28066889526E+02 -0.58171720821E+03  0.59124840963E+03  0.93600246702E+02 0.  0.
          5    1    3    3  502    0  0.82744837583E+02  0.37286143038E+02 -0.37014806594E+03  0.38113518301E+03  0.41800000000E+01 0. -1.
         -5    1    3    3    0  502 -0.42359009745E+02 -0.92192535118E+01 -0.17990415114E+03  0.18510066542E+03  0.41800000000E+01 0. -1.
        -11    1    4    4    0    0  0.30370179545E+02 -0.30065483937E+01 -0.15408644656E+03  0.15707966180E+03  0.00000000000E+00 0. -1.
         11    1    4    4    0    0 -0.70756007383E+02 -0.25060341132E+02 -0.42763076165E+03  0.43416874783E+03  0.00000000000E+00 0.  1.
</event>
<event>
 8    1  0.6648599E-009  0.1299736E+03  0.7561462E-02  0.1227495E+00
         -2   -1    0    0    0  501 -0.00000000000E+00  0.00000000000E+00  0.40939052708E+03  0.40939052708E+03  0.00000000000E+00 0.  1.
          2   -1    0    0  501    0  0.00000000000E+00 -0.00000000000E+00 -0.47032785413E+02  0.47032785413E+02  0.00000000000E+00 0. -1.
         25    2    1    2    0    0  0.83533760781E+02 -0.20119424173E+02  0.17925245095E+03  0.23486532140E+03  0.12509035777E+03 0.  0.
         23    2    1    2    0    0 -0.83533760781E+02  0.20119424173E+02  0.18310529072E+03  0.22155799109E+03  0.90430722150E+02 0.  0.
          5    1    3    3  502    0  0.99598807419E+02  0.19371597762E+02  0.89286307789E+02  0.13522092441E+03  0.41800000000E+01 0.  1.
         -5    1    3    3    0  502 -0.16065046638E+02 -0.39491021935E+02  0.89966143158E+02  0.99644396991E+02  0.41800000000E+01 0.  1.
        -11    1    4    4    0    0 -0.36400251426E+02  0.48423426486E+02  0.13703630326E+03  0.14982908578E+03  0.00000000000E+00 0.  1.
         11    1    4    4    0    0 -0.47133509355E+02 -0.28304002313E+02  0.46068987462E+02  0.71728905309E+02  0.00000000000E+00 0. -1.
</event>
<event>
 8    1  0.6648599E-009  0.1141261E+03  0.7561462E-02  0.1253114E+00
         -2   -1    0    0    0  501 -0.00000000000E+00  0.00000000000E+00  0.29569478648E+02  0.29569478648E+02  0.00000000000E+00 0. -1.
          2   -1    0    0  501    0  0.00000000000E+00 -0.00000000000E+00 -0.56826034241E+03  0.56826034241E+03  0.00000000000E+00 0.  1.
         25    2    1    2    0    0 -0.39877960463E+01  0.43999966843E+02 -0.42234952346E+03  0.44269343072E+03  0.12508578669E+03 0.  0.
         23    2    1    2    0    0  0.39877960463E+01 -0.43999966843E+02 -0.11634134030E+03  0.15513639034E+03  0.92628788969E+02 0.  0.
          5    1    3    3  502    0  0.47193963584E+02 -0.12797555094E+02 -0.10025362187E+03  0.11162127357E+03  0.41800000000E+01 0. -1.
         -5    1    3    3    0  502 -0.51181759630E+02  0.56797521937E+02 -0.32209590159E+03  0.33107215715E+03  0.41800000000E+01 0. -1.
        -11    1    4    4    0    0  0.91242152628E+01  0.28499280549E+02 -0.32538089424E+02  0.44206193676E+02  0.00000000000E+00 0. -1.
         11    1    4    4    0    0 -0.51364192166E+01 -0.72499247392E+02 -0.83803250877E+02  0.11093019667E+03  0.00000000000E+00 0.  1.
</event>
<event>
 8    1  0.6648599E-009  0.9246278E+02  0.7561462E-02  0.1296995E+00
         -1   -1    0    0    0  501 -0.00000000000E+00  0.00000000000E+00  0.27749493168E+02  0.27749493168E+02  0.00000000000E+00 0.  1.
          1   -1    0    0  501    0  0.00000000000E+00 -0.00000000000E+00 -0.56464691593E+03  0.56464691593E+03  0.00000000000E+00 0. -1.
         25    2    1    2    0    0  0.35080907663E+02 -0.52051324260E+02 -0.30939364916E+03  0.33957639448E+03  0.12509071552E+03 0.  0.
         23    2    1    2    0    0 -0.35080907663E+02  0.52051324260E+02 -0.22750377361E+03  0.25282001462E+03  0.90664118305E+02 0.  0.
          5    1    3    3  502    0  0.39900317922E+02  0.27874413251E+01 -0.19907907380E+02  0.44873181029E+02  0.41800000000E+01 0.  1.
         -5    1    3    3    0  502 -0.48194102589E+01 -0.54838765585E+02 -0.28948574178E+03  0.29470321345E+03  0.41800000000E+01 0.  1.
        -11    1    4    4    0    0 -0.47013431269E+02  0.13159567176E+02 -0.46924769709E+02  0.67715367091E+02  0.00000000000E+00 0. -1.
         11    1    4    4    0    0  0.11932523606E+02  0.38891757083E+02 -0.18057900390E+03  0.18510464753E+03  0.00000000000E+00 0.  1.
</event>
<event>
 8    1  0.6648599E-009  0.1486721E+03  0.7561462E-02  0.1202114E+00
         -1   -1    0    0    0  501 -0.00000000000E+00  0.00000000000E+00  0.13014608113E+03  0.13014608113E+03  0.00000000000E+00 0.  1.
          1   -1    0    0  501    0  0.00000000000E+00 -0.00000000000E+00 -0.22672174953E+03  0.22672174953E+03  0.00000000000E+00 0. -1.
         25    2    1    2    0    0  0.89096595969E+02  0.91735643769E+02 -0.91699170223E+02  0.20101328686E+03  0.12507586468E+03 0.  0.
         23    2    1    2    0    0 -0.89096595969E+02 -0.91735643769E+02 -0.48764981758E+01  0.15585454380E+03  0.88956319836E+02 0.  0.
          5    1    3    3  502    0  0.14169900983E+01 -0.23809576150E+02 -0.40408666769E+02  0.47108773360E+02  0.41800000000E+01 0. -1.
         -5    1    3    3    0  502  0.87679605871E+02  0.11554521992E+03 -0.51290503454E+02  0.15390451350E+03  0.41800000000E+01 0. -1.
        -11    1    4    4    0    0 -0.58788549899E+02 -0.56379575669E+02  0.40383629111E+02  0.90915277330E+02  0.00000000000E+00 0.  1.
         11    1    4    4    0    0 -0.30308046070E+02 -0.35356068100E+02 -0.45260127287E+02  0.64939266473E+02  0.00000000000E+00 0. -1.
</event>
<event>
 8    1  0.6648599E-009  0.1036247E+03  0.7561462E-02  0.1272853E+00
         -2   -1    0    0    0  501 -0.00000000000E+00  0.00000000000E+00  0.54414728618E+02  0.54414728618E+02  0.00000000000E+00 0. -1.
          2   -1    0    0  501    0  0.00000000000E+00 -0.00000000000E+00 -0.52567128008E+03  0.52567128008E+03  0.00000000000E+00 0.  1.
         25    2    1    2    0    0 -0.54828171912E+02  0.34090306420E+02 -0.44423654695E+03  0.46600602660E+03  0.12508888741E+03 0.  0.
         23    2    1    2    0    0  0.54828171912E+02 -0.34090306420E+02 -0.27020004517E+02  0.11407998210E+03  0.90088202588E+02 0.  0.
          5    1    3    3  502    0 -0.75371265625E+02  0.64128416757E+02 -0.37269126759E+03  0.38562875263E+03  0.41800000000E+01 0.  1.
         -5    1    3    3    0  502  0.20543093713E+02 -0.30038110337E+02 -0.71545279360E+02  0.80377273969E+02  0.41800000000E+01 0.  1.
        -11    1    4    4    0    0  0.18005206290E+02  0.41557267756E+01 -0.52160576891E+02  0.55336997571E+02  0.00000000000E+00 0.  1.
         11    1    4    4    0    0  0.36822965622E+02 -0.38246033196E+02  0.25140572374E+02  0.58742984532E+02  0.00000000000E+00 0. -1.
</event>
<event>
 8    1  0.6648599E-009  0.1612740E+03  0.7561462E-02  0.1187266E+00
         -1   -1    0    0    0  501 -0.00000000000E+00  0.00000000000E+00  0.79320454447E+02  0.79320454447E+02  0.00000000000E+00 0.  1.
          1   -1    0    0  501    0  0.00000000000E+00 -0.00000000000E+00 -0.51929096383E+03  0.51929096383E+03  0.00000000000E+00 0. -1.
         25    2    1    2    0    0 -0.13745921934E+03 -0.45004299735E+02 -0.36635697930E+03  0.41326150874E+03  0.12508882585E+03 0.  0.
         23    2    1    2    0    0  0.13745921934E+03  0.45004299735E+02 -0.73613530089E+02  0.18534990954E+03  0.89527722959E+02 0.  0.
          5    1    3    3  502    0 -0.43732146636E+02  0.22892820703E+02 -0.30922511799E+02  0.58397397418E+02  0.41800000000E+01 0. -1.
         -5    1    3    3    0  502 -0.93727072700E+02 -0.67897120438E+02 -0.33543446750E+03  0.35486411133E+03  0.41800000000E+01 0. -1.
        -11    1    4    4    0    0  0.11313618518E+02 -0.13946054004E+02 -0.37383873747E+02  0.41473418024E+02  0.00000000000E+00 0.  1.
         11    1    4    4    0    0  0.12614560082E+03  0.58950353738E+02 -0.36229656342E+02  0.14387649151E+03  0.00000000000E+00 0. -1.
</event>
<event>
 8    1  0.6648599E-009  0.9657028E+02  0.7561462E-02  0.1287678E+00
          1   -1    0    0  501    0  0.00000000000E+00  0.00000000000E+00  0.54716550062E+02  0.54716550062E+02  0.00000000000E+00 0. -1.
         -1   -1    0    0    0  501 -0.00000000000E+00 -0.00000000000E+00 -0.47006970544E+03  0.47006970544E+03  0.00000000000E+00 0.  1.
         25    2    1    2    0    0  0.36108601996E+02  0.31476285589E+02 -0.39581197275E+03  0.41786253985E+03  0.12508955493E+03 0.  0.
         23    2    1    2    0    0 -0.36108601996E+02 -0.31476285589E+02 -0.19541182636E+02  0.10692371565E+03  0.93574758655E+02 0.  0.
          5    1    3    3  502    0 -0.26156489574E+02 -0.34175045045E+02 -0.13665265331E+03  0.14333009352E+03  0.41800000000E+01 0.  1.
         -5    1    3    3    0  502  0.62265091571E+02  0.65651330634E+02 -0.25915931943E+03  0.27453244634E+03  0.41800000000E+01 0.  1.
        -11    1    4    4    0    0 -0.24861302733E+02  0.10741333221E+01 -0.53222434887E+02  0.58752580465E+02  0.00000000000E+00 0.  1.
         11    1    4    4    0    0 -0.11247299263E+02 -0.32550418911E+02  0.33681252251E+02  0.48171135187E+02  0.00000000000E+00 0. -1.
</event>
<event>
 8    1  0.6648599E-009  0.1388392E+03  0.7561462E-02  0.1214899E+00
         -1   -1    0    0    0  501 -0.00000000000E+00  0.00000000000E+00  0.11596246072E+03  0.11596246072E+03  0.00000000000E+00 0.  1.
          1   -1    0    0  501    0  0.00000000000E+00 -0.00000000000E+00 -0.22293372963E+03  0.22293372963E+03  0.00000000000E+00 0. -1.
         25    2    1    2    0    0 -0.18415234216E+02 -0.11535456425E+03 -0.74897069115E+02  0.18682311798E+03  0.12509000801E+03 0.  0.
         23    2    1    2    0    0  0.18415234216E+02  0.11535456425E+03 -0.32074199790E+02  0.15207307237E+03  0.91932957665E+02 0.  0.
          5    1    3    3  502    0 -0.58043669386E+02 -0.59380186098E+02  0.26902604683E+01  0.83185238824E+02  0.41800000000E+01 0.  1.
         -5    1    3    3    0  502  0.39628435171E+02 -0.55974378150E+02 -0.77587329584E+02  0.10363787915E+03  0.41800000000E+01 0.  1.
        -11    1    4    4    0    0 -0.14007456999E+02  0.60557537372E+02 -0.56383422790E+02  0.83919691072E+02  0.00000000000E+00 0. -1.
         11    1    4    4    0    0  0.32422691215E+02  0.54797026875E+02  0.24309222999E+02  0.68153381302E+02  0.00000000000E+00 0.  1.
</event>
<event>
 8    1  0.6648599E-009  0.1149805E+03  0.7561462E-02  0.1251615E+00
          1   -1    0    0  501    0  0.00000000000E+00  0.00000000000E+00  0.70262966916E+03  0.70262966916E+03  0.00000000000E+00 0.  1.
         -1   -1    0    0    0  501 -0.00000000000E+00 -0.00000000000E+00 -0.19711962621E+02  0.19711962621E+02  0.00000000000E+00 0. -1.
         25    2    1    2    0    0  0.34295453752E+02 -0.35788497415E+02  0.40172722685E+03  0.42366009278E+03  0.12508443040E+03 0.  0.
         23    2    1    2    0    0 -0.34295453752E+02  0.35788497415E+02  0.28119047969E+03  0.29868153900E+03  0.87667446506E+02 0.  0.
          5    1    3    3  502    0 -0.66254098821E+00 -0.76936886087E+02  0.18797866011E+03  0.20315799875E+03  0.41800000000E+01 0.  1.
         -5    1    3    3    0  502  0.34957994740E+02  0.41148388672E+02  0.21374856674E+03  0.22050209403E+03  0.41800000000E+01 0.  1.
        -11    1    4    4    0    0  0.25786348664E+02 -0.48229474736E+01  0.10325446070E+03  0.10653487811E+03  0.00000000000E+00 0.  1.
         11    1    4    4    0    0 -0.60081802416E+02  0.40611444889E+02  0.17793601899E+03  0.19214666089E+03  0.00000000000E+00 0. -1.
</event>
<event>
 8    1  0.6648599E-009  0.1277062E+03  0.7561462E-02  0.1230900E+00
         -2   -1    0    0    0  501 -0.00000000000E+00  0.00000000000E+00  0.21846124945E+03  0.21846124945E+03  0.00000000000E+00 0.  1.
          2   -1    0    0  501    0  0.00000000000E+00 -0.00000000000E+00 -0.98544577191E+02  0.98544577191E+02  0.00000000000E+00 0. -1.
         25    2    1    2    0    0 -0.35440180923E+01  0.93868707687E+02  0.10250174004E+03  0.18702156068E+03  0.12508622266E+03 0.  0.
         23    2    1    2    0    0  0.35440180923E+01 -0.93868707687E+02  0.17414932211E+02  0.12998426596E+03  0.88140428782E+02 0.  0.
          5    1    3    3  502    0 -0.44296195810E+02  0.87297630100E+02  0.28264939326E+02  0.10197748957E+03  0.41800000000E+01 0. -1.
         -5    1    3    3    0  502  0.40752177718E+02  0.65710775876E+01  0.74236800718E+02  0.85044071106E+02  0.41800000000E+01 0. -1.
        -11    1    4    4    0    0 -0.31970552737E+02 -0.51958776580E+02 -0.19211050625E+02  0.63960106099E+02  0.00000000000E+00 0.  1.
         11    1    4    4    0    0  0.35514570830E+02 -0.41909931107E+02  0.36625982836E+02  0.66024159861E+02  0.00000000000E+00 0. -1.
</event>
<event>
 8    1  0.6648599E-009  0.1298620E+03  0.7561462E-02  0.1227661E+00
         -2   -1    0    0    0  501 -0.00000000000E+00  0.00000000000E+00  0.11237920482E+03  0.11237920482E+03  0.00000000000E+00 0.  1.
          2   -1    0    0  501    0  0.00000000000E+00 -0.00000000000E+00 -0.22614114708E+03  0.22614114708E+03  0.00000000000E+00 0. -1.
         25    2    1    2    0    0 -0.29263662397E+02 -0.11027515457E+03 -0.85117926462E+02  0.18950228585E+03  0.12509629605E+03 0.  0.
         23    2    1    2    0    0  0.29263662397E+02  0.11027515457E+03 -0.28644015796E+02  0.14901806605E+03  0.91481870979E+02 0.  0.
          5    1    3    3  502    0 -0.50190333096E+01 -0.20177627125E+02  0.32811410110E+02  0.39069020529E+02  0.41800000000E+01 0. -1.
         -5    1    3    3    0  502 -0.24244629088E+02 -0.90097527443E+02 -0.11792933657E+03  0.15043326532E+03  0.41800000000E+01 0. -1.
        -11    1    4    4    0    0  0.59008056521E+02  0.94606588738E+02 -0.29680244677E+02  0.11538316294E+03  0.00000000000E+00 0.  1.
         11    1    4    4    0    0 -0.29744394123E+02  0.15668565830E+02  0.10362288810E+01  0.33634903110E+02  0.00000000000E+00 0. -1.
</event>
<event>
 8    1  0.6648599E-009  0.1218603E+03  0.7561462E-02  0.1240059E+00
         -2   -1    0    0    0  501 -0.00000000000E+00  0.00000000000E+00  0.20327395376E+02  0.20327395376E+02  0.00000000000E+00 0. -1.
          2   -1    0    0  501    0  0.00000000000E+00 -0.00000000000E+00 -0.97013211426E+03  0.97013211426E+03  0.00000000000E+00 0.  1.
         25    2    1    2    0    0  0.75739637828E+02  0.34424323186E+02 -0.41141919265E+03  0.43798958632E+03  0.12509036286E+03 0.  0.
         23    2    1    2    0    0 -0.75739637828E+02 -0.34424323186E+02 -0.53838552624E+03  0.55246992332E+03  0.91883157023E+02 0.  0.
          5    1    3    3  502    0  0.90508961820E+02  0.50777248470E+02 -0.39911479154E+03  0.41240791743E+03  0.41800000000E+01 0. -1.
         -5    1    3    3    0  502 -0.14769323992E+02 -0.16352925283E+02 -0.12304401103E+02  0.25581668886E+02  0.41800000000E+01 0. -1.
        -11    1    4    4    0    0 -0.68697935526E+02 -0.59809054692E+02 -0.47780692270E+03  0.48641133287E+03  0.00000000000E+00 0.  1.
         11    1    4    4    0    0 -0.70417023020E+01  0.25384731506E+02 -0.60578603540E+02  0.66058590446E+02  0.00000000000E+00 0. -1.
</event>
<event>
 8    1  0.6648599E-009  0.1051094E+03  0.7561462E-02  0.1269904E+00
         -3   -1    0    0    0  501 -0.00000000000E+00  0.00000000000E+00  0.59989255137E+03  0.59989255137E+03  0.00000000000E+00 0.  1.
          3   -1    0    0  501    0  0.00000000000E+00 -0.00000000000E+00 -0.24715041630E+02  0.24715041630E+02  0.00000000000E+00 0. -1.
         25    2    1    2    0    0 -0.43290505673E+02 -0.23470778995E+02  0.38942746195E+03  0.41197887760E+03  0.12509157493E+03 0.  0.
         23    2    1    2    0    0  0.43290505673E+02  0.23470778995E+02  0.18575004779E+03  0.21262871540E+03  0.91010686247E+02 0.  0.
          5    1    3    3  502    0 -0.76711514886E+02 -0.24979114556E+02  0.15166773293E+03  0.17184058395E+03  0.41800000000E+01 0.  1.
         -5    1    3    3    0  502  0.33421009213E+02  0.15083355605E+01  0.23775972901E+03  0.24013829364E+03  0.41800000000E+01 0.  1.
        -11    1    4    4    0    0  0.56796642231E+02  0.43514588580E+02  0.96301652531E+02  0.11997243962E+03  0.00000000000E+00 0. -1.
         11    1    4    4    0    0 -0.13506136558E+02 -0.20043809584E+02  0.89448395259E+02  0.92656275782E+02  0.00000000000E+00 0.  1.
</event>
<event>
 8    1  0.6648599E-009  0.9355885E+02  0.7561462E-02  0.1294455E+00
         -3   -1    0    0    0  501 -0.00000000000E+00  0.00000000000E+00  0.13448282387E+03  0.13448282387E+03  0.00000000000E+00 0.  1.
          3   -1    0    0  501    0  0.00000000000E+00 -0.00000000000E+00 -0.11149470587E+03  0.11149470587E+03  0.00000000000E+00 0. -1.
         25    2    1    2    0    0 -0.23792439404E+02 -0.28500346555E+02  0.55305876559E+02  0.14172274876E+03  0.12509295586E+03 0.  0.
         23    2    1    2    0    0  0.23792439404E+02  0.28500346555E+02 -0.32317758563E+02  0.10425478098E+03  0.91903601190E+02 0.  0.
          5    1    3    3  502    0 -0.21096542360E+02 -0.58802547088E+02  0.80513635273E+02  0.10199373269E+03  0.41800000000E+01 0. -1.
         -5    1    3    3    0  502 -0.26958970438E+01  0.30302200533E+02 -0.25207758714E+02  0.39729016064E+02  0.41800000000E+01 0. -1.
        -11    1    4    4    0    0  0.20105640188E+01  0.57496601409E+02 -0.35897370443E+02  0.67812408496E+02  0.00000000000E+00 0.  1.
         11    1    4    4    0    0  0.21781875385E+02 -0.28996254854E+02  0.35796118805E+01  0.36442372482E+02  0.00000000000E+00 0. -1.
</event>
<event>
 8    1  0.6648599E-009  0.3338460E+03  0.7561462E-02  0.1069448E+00
          2   -1    0    0  501    0  0.00000000000E+00  0.00000000000E+00  0.14703753004E+04  0.14703753004E+04  0.00000000000E+00 0. -1.
         -2   -1    0    0    0  501 -0.00000000000E+00 -0.00000000000E+00 -0.84605476474E+02  0.84605476474E+02  0.00000000000E+00 0.  1.
         25    2    1    2    0    0 -0.43205801592E+02  0.32934471882E+03  0.80620563020E+03  0.88088043062E+03  0.12509248489E+03 0.  0.
         23    2    1    2    0    0  0.43205801592E+02 -0.32934471882E+03  0.57956419371E+03  0.67410034624E+03  0.90454060523E+02 0.  0.
          5    1    3    3  502    0 -0.51867185366E+02  0.28334889834E+03  0.76820635139E+03  0.82044821520E+03  0.41800000000E+01 0. -1.
         -5    1    3    3    0  502  0.86613837746E+01  0.45995820480E+02  0.37999278810E+02  0.60432215421E+02  0.41800000000E+01 0. -1.
        -11    1    4    4    0    0  0.37528737082E+02 -0.31432547426E+03  0.57658731475E+03  0.65777035613E+03  0.00000000000E+00 0. -1.
         11    1    4    4    0    0  0.56770645102E+01 -0.15019244557E+02  0.29768789586E+01  0.16329990106E+02  0.00000000000E+00 0.  1.
</event>
<event>
 8    1  0.6648599E-009  0.1624320E+03  0.7561462E-02  0.1185978E+00
          2   -1    0    0  501    0  0.00000000000E+00  0.00000000000E+00  0.25671715978E+03  0.25671715978E+03  0.00000000000E+00 0. -1.
         -2   -1    0    0    0  501 -0.00000000000E+00 -0.00000000000E+00 -0.12045239628E+03  0.12045239628E+03  0.00000000000E+00 0.  1.
         25    2    1    2    0    0  0.10132456026E+03 -0.89489692991E+02  0.39675506808E+02  0.18840538964E+03  0.12508946135E+03 0.  0.
         23    2    1    2    0    0 -0.10132456026E+03  0.89489692991E+02  0.96589256695E+02  0.18876416642E+03  0.89595504086E+02 0.  0.
          5    1    3    3  502    0  0.11995294575E+03 -0.84126915270E+02  0.28736023091E+01  0.14660074031E+03  0.41800000000E+01 0.  1.
         -5    1    3    3    0  502 -0.18628385493E+02 -0.53627777212E+01  0.36801904499E+02  0.41804649332E+02  0.41800000000E+01 0.  1.
        -11    1    4    4    0    0 -0.83008749193E+02  0.18365380892E+02  0.71707240074E+02  0.11121900888E+03  0.00000000000E+00 0. -1.
         11    1    4    4    0    0 -0.18315811068E+02  0.71124312099E+02  0.24882016621E+02  0.77545157539E+02  0.00000000000E+00 0.  1.
</event>
<event>
 8    1  0.6648599E-009  0.2160704E+03  0.7561462E-02  0.1136847E+00
          2   -1    0    0  501    0  0.00000000000E+00  0.00000000000E+00  0.27764642519E+04  0.27764642519E+04  0.00000000000E+00 0.  1.
         -2   -1    0    0    0  501 -0.00000000000E+00 -0.00000000000E+00 -0.44249354597E+02  0.44249354597E+02  0.00000000000E+00 0. -1.
         25    2    1    2    0    0 -0.19914379655E+03  0.72112653878E+01  0.24579045063E+04  0.24691406940E+04  0.12510376067E+03 0.  0.
         23    2    1    2    0    0  0.19914379655E+03 -0.72112653878E+01  0.27431039098E+03  0.35157291241E+03  0.92989612802E+02 0.  0.
          5    1    3    3  502    0 -0.16117894718E+01  0.30491307469E+02  0.55756378610E+03  0.55841486878E+03  0.41800000000E+01 0. -1.
         -5    1    3    3    0  502 -0.19753200708E+03 -0.23280042081E+02  0.19003407202E+04  0.19107258253E+04  0.41800000000E+01 0. -1.
        -11    1    4    4    0    0  0.56872454499E+02  0.13909101605E+02  0.24819218926E+02  0.63591924144E+02  0.00000000000E+00 0. -1.
         11    1    4    4    0    0  0.14227134205E+03 -0.21120366992E+02  0.24949117205E+03  0.28798098827E+03  0.00000000000E+00 0.  1.
</event>
<event>
 8    1  0.6648599E-009  0.1715624E+03  0.7561462E-02  0.1176228E+00
          1   -1    0    0  501    0  0.00000000000E+00  0.00000000000E+00  0.77894948507E+03  0.77894948507E+03  0.00000000000E+00 0. -1.
         -1   -1    0    0    0  501 -0.00000000000E+00 -0.00000000000E+00 -0.48880046627E+02  0.48880046627E+02  0.00000000000E+00 0.  1.
         25    2    1    2    0    0  0.64028042298E+02  0.13071462435E+03  0.53374359883E+03  0.56720064604E+03  0.12509372626E+03 0.  0.
         23    2    1    2    0    0 -0.64028042298E+02 -0.13071462435E+03  0.19632583961E+03  0.26062888565E+03  0.90541026723E+02 0.  0.
          5    1    3    3  502    0  0.20176305538E+01 -0.24341458519E+02  0.75111237898E+02  0.79093286026E+02  0.41800000000E+01 0. -1.
         -5    1    3    3    0  502  0.62010411744E+02  0.15505608287E+03  0.45863236094E+03  0.48810736001E+03  0.41800000000E+01 0. -1.
        -11    1    4    4    0    0  0.18861878641E+01 -0.35173968933E+02  0.32827192856E+01  0.35377140092E+02  0.00000000000E+00 0.  1.
         11    1    4    4    0    0 -0.65914230162E+02 -0.95540655421E+02  0.19304312032E+03  0.22525174556E+03  0.00000000000E+00 0. -1.
</event>
<event>
 8    1  0.6648599E-009  0.1183150E+03  0.7561462E-02  0.1245903E+00
          2   -1    0    0  501    0  0.00000000000E+00  0.00000000000E+00  0.44822465010E+03  0.44822465010E+03  0.00000000000E+00 0.  1.
         -2   -1    0    0    0  501 -0.00000000000E+00 -0.00000000000E+00 -0.51448869016E+02  0.51448869016E+02  0.00000000000E+00 0. -1.
         25    2    1    2    0    0  0.31163610430E+01  0.67086155000E+02  0.92172836507E+02  0.16927179169E+03  0.12508734458E+03 0.  0.
         23    2    1    2    0    0 -0.31163610430E+01 -0.67086155000E+02  0.30460294458E+03  0.33040172742E+03  0.10895909205E+03 0.  0.
          5    1    3    3  502    0 -0.48078232632E+02  0.57072827123E+02  0.15323332516E+02  0.76296139930E+02  0.41800000000E+01 0. -1.
         -5    1    3    3    0  502  0.51194593675E+02  0.10013327877E+02  0.76849503991E+02  0.92975651761E+02  0.41800000000E+01 0. -1.
        -11    1    4    4    0    0  0.39876201601E+02 -0.48313055175E+02  0.25309402301E+03  0.26073136988E+03  0.00000000000E+00 0.  1.
         11    1    4    4    0    0 -0.42992562644E+02 -0.18773099825E+02  0.51508921563E+02  0.69670357544E+02  0.00000000000E+00 0. -1.
</event>
<event>
 8    1  0.6648599E-009  0.1185844E+03  0.7561462E-02  0.1245451E+00
         -4   -1    0    0    0  501 -0.00000000000E+00  0.00000000000E+00  0.94991048922E+02  0.94991048922E+02  0.00000000000E+00 0.  1.
          4   -1    0    0  501    0  0.00000000000E+00 -0.00000000000E+00 -0.18807355878E+03  0.18807355878E+03  0.00000000000E+00 0. -1.
         25    2    1    2    0    0  0.51767810557E+02  0.57812528224E+02 -0.38144820597E+02  0.15206878039E+03  0.12509073507E+03 0.  0.
         23    2    1    2    0    0 -0.51767810557E+02 -0.57812528224E+02 -0.54937689256E+02  0.13099582731E+03  0.90108614694E+02 0.  0.
          5    1    3    3  502    0 -0.26128319028E+02 -0.27692116255E+01  0.23619919864E+02  0.35577107845E+02  0.41800000000E+01 0. -1.
         -5    1    3    3    0  502  0.77896129586E+02  0.60581739850E+02 -0.61764740461E+02  0.11649167254E+03  0.41800000000E+01 0. -1.
        -11    1    4    4    0    0  0.93597011241E+01 -0.49176894605E+02 -0.47156553495E+02  0.68772898046E+02  0.00000000000E+00 0. -1.
         11    1    4    4    0    0 -0.61127511681E+02 -0.86356336189E+01 -0.77811357612E+01  0.62222929263E+02  0.00000000000E+00 0.  1.
</event>
<event>
 8    1  0.6648599E-009  0.1064224E+03  0.7561462E-02  0.1267342E+00
          2   -1    0    0  501    0  0.00000000000E+00  0.00000000000E+00  0.70646000443E+03  0.70646000443E+03  0.00000000000E+00 0. -1.
         -2   -1    0    0    0  501 -0.00000000000E+00 -0.00000000000E+00 -0.20565646407E+02  0.20565646407E+02  0.00000000000E+00 0.  1.
         25    2    1    2    0    0 -0.34419815546E+02 -0.26602598854E+02  0.30137651220E+03  0.32919224101E+03  0.12508919804E+03 0.  0.
         23    2    1    2    0    0  0.34419815546E+02  0.26602598854E+02  0.38451784582E+03  0.39783340983E+03  0.92331068721E+02 0.  0.
          5    1    3    3  502    0 -0.63000691023E+02  0.10819601736E+02  0.25516873791E+03  0.26308688309E+03  0.41800000000E+01 0.  1.
         -5    1    3    3    0  502  0.28580875478E+02 -0.37422200590E+02  0.46207774292E+02  0.66105357915E+02  0.41800000000E+01 0.  1.
        -11    1    4    4    0    0 -0.27428408612E+02  0.28606495889E+02  0.17077183835E+03  0.17531021071E+03  0.00000000000E+00 0.  1.
         11    1    4    4    0    0  0.61848224157E+02 -0.20038970348E+01  0.21374600747E+03  0.22252319912E+03  0.00000000000E+00 0. -1.
</event>
<event>
 8    1  0.6648599E-009  0.9581953E+02  0.7561462E-02  0.1289341E+00
          2   -1    0    0  501    0  0.00000000000E+00  0.00000000000E+00  0.12711337672E+03  0.12711337672E+03  0.00000000000E+00 0. -1.
         -2   -1    0    0    0  501 -0.00000000000E+00 -0.00000000000E+00 -0.11905319456E+03  0.11905319456E+03  0.00000000000E+00 0.  1.
         25    2    1    2    0    0  0.33964478245E+02 -0.13439752734E+02  0.50902700332E+02  0.13990314430E+03  0.12509033595E+03 0.  0.
         23    2    1    2    0    0 -0.33964478245E+02  0.13439752734E+02 -0.42842518178E+02  0.10626342698E+03  0.90123369962E+02 0.  0.
          5    1    3    3  502    0 -0.32055295963E+02 -0.41099270391E+02  0.55846438421E+00  0.52292220343E+02  0.41800000000E+01 0.  1.
         -5    1    3    3    0  502  0.66019774208E+02  0.27659517657E+02  0.50344235947E+02  0.87610923957E+02  0.41800000000E+01 0.  1.
        -11    1    4    4    0    0 -0.49979552491E+02  0.73633515914E+01  0.93102085421E+01  0.51369782917E+02  0.00000000000E+00 0.  1.
         11    1    4    4    0    0  0.16015074246E+02  0.60764011429E+01 -0.52152726720E+02  0.54893644061E+02  0.00000000000E+00 0. -1.
</event>
<event>
 8    1  0.6648599E-009  0.1083529E+03  0.7561462E-02  0.1263651E+00
         -4   -1    0    0    0  501 -0.00000000000E+00  0.00000000000E+00  0.83108642499E+02  0.83108642499E+02  0.00000000000E+00 0.  1.
          4   -1    0    0  501    0  0.00000000000E+00 -0.00000000000E+00 -0.14337278517E+03  0.14337278517E+03  0.00000000000E+00 0. -1.
         25    2    1    2    0    0 -0.47239157218E+01  0.91302504882E+01 -0.47979711377E+02  0.13437070143E+03  0.12509099026E+03 0.  0.
         23    2    1    2    0    0  0.47239157218E+01 -0.91302504882E+01 -0.12284431294E+02  0.92110726239E+02  0.90707231147E+02 0.  0.
          5    1    3    3  502    0 -0.30436906813E+02  0.60508779407E+02 -0.27756564635E+02  0.73318599018E+02  0.41800000000E+01 0. -1.
         -5    1    3    3    0  502  0.25712991092E+02 -0.51378528918E+02 -0.20223146742E+02  0.61052102411E+02  0.41800000000E+01 0. -1.
        -11    1    4    4    0    0 -0.22975679098E+02  0.33366454151E+02 -0.39552064882E+01  0.40704370171E+02  0.00000000000E+00 0. -1.
         11    1    4    4    0    0  0.27699594820E+02 -0.42496704639E+02 -0.83292248063E+01  0.51406356069E+02  0.00000000000E+00 0.  1.
</event>
<event>
 8    1  0.6648599E-009  0.7618101E+02  0.7561462E-02  0.1340252E+00
         -3   -1    0    0    0  501 -0.00000000000E+00  0.00000000000E+00  0.92622845965E+02  0.92622845965E+02  0.00000000000E+00 0.  1.
          3   -1    0    0  501    0  0.00000000000E+00 -0.00000000000E+00 -0.14362365519E+03  0.14362365519E+03  0.00000000000E+00 0. -1.
         25    2    1    2    0    0  0.29216386221E+02 -0.17666888425E+01 -0.13939320284E+02  0.12922338354E+03  0.12509060633E+03 0.  0.
         23    2    1    2    0    0 -0.29216386221E+02  0.17666888425E+01 -0.37061488942E+02  0.10702311761E+03  0.96039967343E+02 0.  0.
          5    1    3    3  502    0 -0.26205328782E+02  0.41522774020E+01  0.42187994701E+02  0.50012598024E+02  0.41800000000E+01 0.  1.
         -5    1    3    3    0  502  0.55421715003E+02 -0.59189662445E+01 -0.56127314986E+02  0.79210785521E+02  0.41800000000E+01 0.  1.
        -11    1    4    4    0    0 -0.33233096681E+02  0.27763287020E+02 -0.58711785465E+02  0.72954181331E+02  0.00000000000E+00 0. -1.
         11    1    4    4    0    0  0.40167104604E+01 -0.25996598178E+02  0.21650296523E+02  0.34068936280E+02  0.00000000000E+00 0.  1.
</event>
<event>
 8    1  0.6648599E-009  0.1035097E+03  0.7561462E-02  0.1273084E+00
          3   -1    0    0  501    0  0.00000000000E+00  0.00000000000E+00  0.83385656977E+02  0.83385656977E+02  0.00000000000E+00 0. -1.
         -3   -1    0    0    0  501 -0.00000000000E+00 -0.00000000000E+00 -0.16549133010E+03  0.16549133010E+03  0.00000000000E+00 0.  1.
         25    2    1    2    0    0  0.33297665817E+02 -0.30009303214E+02 -0.37485951903E+02  0.13806781548E+03  0.12509289450E+03 0.  0.
         23    2    1    2    0    0 -0.33297665817E+02  0.30009303214E+02 -0.44619721217E+02  0.11080917159E+03  0.90986043759E+02 0.  0.
          5    1    3    3  502    0  0.50431952102E+02 -0.70205322405E+02 -0.37129422894E+02  0.94171309491E+02  0.41800000000E+01 0. -1.
         -5    1    3    3    0  502 -0.17134286286E+02  0.40196019191E+02 -0.35652900924E+00  0.43896505992E+02  0.41800000000E+01 0. -1.
        -11    1    4    4    0    0 -0.16080932996E+02  0.48630863430E+02  0.85232083867E+01  0.51924968610E+02  0.00000000000E+00 0. -1.
         11    1    4    4    0    0 -0.17216732821E+02 -0.18621560216E+02 -0.53142929603E+02  0.58884202981E+02  0.00000000000E+00 0.  1.
</event>
<event>
 8    1  0.6648599E-009  0.2250559E+03  0.7561462E-02  0.1130169E+00
         -4   -1    0    0    0  501 -0.00000000000E+00  0.00000000000E+00  0.10147943019E+04  0.10147943019E+04  0.00000000000E+00 0.  1.
          4   -1    0    0  501    0  0.00000000000E+00 -0.00000000000E+00 -0.56470034125E+02  0.56470034125E+02  0.00000000000E+00 0. -1.
         25    2    1    2    0    0 -0.10237049293E+03 -0.18159268899E+03  0.59181631091E+03  0.63980483167E+03  0.12509218304E+03 0.  0.
         23    2    1    2    0    0  0.10237049293E+03  0.18159268899E+03  0.36650795689E+03  0.43145950438E+03  0.91507370923E+02 0.  0.
          5    1    3    3  502    0 -0.10678147970E+03 -0.89854271493E+02  0.44673868005E+03  0.46804806929E+03  0.41800000000E+01 0. -1.
         -5    1    3    3    0  502  0.44109867710E+01 -0.91738417498E+02  0.14507763086E+03  0.17175676238E+03  0.41800000000E+01 0. -1.
        -11    1    4    4    0    0  0.57265577790E+02  0.39744483145E+02  0.17873821444E+03  0.19184973193E+03  0.00000000000E+00 0.  1.
         11    1    4    4    0    0  0.45104915140E+02  0.14184820585E+03  0.18776974246E+03  0.23960977245E+03  0.00000000000E+00 0. -1.
</event>
<event>
 8    1  0.6648599E-009  0.1560920E+03  0.7561462E-02  0.1193181E+00
          1   -1    0    0  501    0  0.00000000000E+00  0.00000000000E+00  0.14279483052E+03  0.14279483052E+03  0.00000000000E+00 0. -1.
         -1   -1    0    0    0  501 -0.00000000000E+00 -0.00000000000E+00 -0.19424535589E+03  0.19424535589E+03  0.00000000000E+00 0.  1.
         25    2    1    2    0    0 -0.11891560894E+03 -0.11705773755E+02  0.13542932599E+02  0.17352594570E+03  0.12509954284E+03 0.  0.
         23    2    1    2    0    0  0.11891560894E+03  0.11705773755E+02 -0.64993457968E+02  0.16351424072E+03  0.90745854731E+02 0.  0.
          5    1    3    3  502    0 -0.12943370213E+03  0.23090926186E+02  0.27456841237E+02  0.13437866144E+03  0.41800000000E+01 0. -1.
         -5    1    3    3    0  502  0.10518093192E+02 -0.34796699940E+02 -0.13913908638E+02  0.39147284257E+02  0.41800000000E+01 0. -1.
        -11    1    4    4    0    0  0.89702395125E+02  0.44497048358E+02 -0.65395837985E+02  0.11959566309E+03  0.00000000000E+00 0.  1.
         11    1    4    4    0    0  0.29213213815E+02 -0.32791274604E+02  0.40238001676E+00  0.43918577632E+02  0.00000000000E+00 0. -1.
</event>
<event>
 8    1  0.6648599E-009  0.1023960E+03  0.7561462E-02  0.1275337E+00
          1   -1    0    0  501    0  0.00000000000E+00  0.00000000000E+00  0.62600553768E+02  0.62600553768E+02  0.00000000000E+00 0. -1.
         -1   -1    0    0    0  501 -0.00000000000E+00 -0.00000000000E+00 -0.21450480509E+03  0.21450480509E+03  0.00000000000E+00 0.  1.
         25    2    1    2    0    0 -0.24484541134E+02  0.18249319151E+02 -0.12012667235E+03  0.17609989644E+03  0.12509286835E+03 0.  0.
         23    2    1    2    0    0  0.24484541134E+02 -0.18249319151E+02 -0.31777578968E+02  0.10100546241E+03  0.90883213566E+02 0.  0.
          5    1    3    3  502    0  0.42791291029E+00  0.60129299540E+02 -0.18065154707E+02  0.62924859851E+02  0.41800000000E+01 0.  1.
         -5    1    3    3    0  502 -0.24912454045E+02 -0.41879980389E+02 -0.10206151764E+03  0.11317503659E+03  0.41800000000E+01 0.  1.
        -11    1    4    4    0    0  0.56523758391E+02 -0.26641320348E+02 -0.24339545839E+02  0.67060485415E+02  0.00000000000E+00 0.  1.
         11    1    4    4    0    0 -0.32039217256E+02  0.83920011973E+01 -0.74380331294E+01  0.33944976997E+02  0.00000000000E+00 0. -1.
</event>
<event>
 8    1  0.6648599E-009  0.1056105E+03  0.7561462E-02  0.1268921E+00
          2   -1    0    0  501    0  0.00000000000E+00  0.00000000000E+00  0.38743595058E+02  0.38743595058E+02  0.00000000000E+00 0. -1.
         -2   -1    0    0    0  501 -0.00000000000E+00 -0.00000000000E+00 -0.36376709343E+03  0.36376709343E+03  0.00000000000E+00 0.  1.
         25    2    1    2    0    0 -0.15224212518E+01  0.35990066371E+02 -0.24282092809E+03  0.27551231757E+03  0.12508969330E+03 0.  0.
         23    2    1    2    0    0  0.15224212518E+01 -0.35990066371E+02 -0.82202570281E+02  0.12699837092E+03  0.89853887011E+02 0.  0.
          5    1    3    3  502    0  0.47045672338E+02  0.44993395337E+02 -0.69827954338E+02  0.95556875821E+02  0.41800000000E+01 0. -1.
         -5    1    3    3    0  502 -0.48568093589E+02 -0.90033289664E+01 -0.17299297375E+03  0.17995544175E+03  0.41800000000E+01 0. -1.
        -11    1    4    4    0    0 -0.27649569679E+02  0.19426130400E+02 -0.34332966805E+02  0.48172874685E+02  0.00000000000E+00 0.  1.
         11    1    4    4    0    0  0.29171990930E+02 -0.55416196771E+02 -0.47869603475E+02  0.78825496232E+02  0.00000000000E+00 0. -1.
</event>
<event>
 8    1  0.6648599E-009  0.1091058E+03  0.7561462E-02  0.1262235E+00
          2   -1    0    0  501    0  0.00000000000E+00  0.00000000000E+00  0.28720063761E+03  0.28720063761E+03  0.00000000000E+00 0. -1.
         -2   -1    0    0    0  501 -0.00000000000E+00 -0.00000000000E+00 -0.45584211898E+02  0.45584211898E+02  0.00000000000E+00 0.  1.
         25    2    1    2    0    0 -0.60689287284E+01 -0.32324585669E+02  0.16100288850E+03  0.20652037518E+03  0.12508806708E+03 0.  0.
         23    2    1    2    0    0  0.60689287284E+01  0.32324585669E+02  0.80613537205E+02  0.12626447432E+03  0.91446510925E+02 0.  0.
          5    1    3    3  502    0  0.53723222796E+02 -0.36498650321E+02  0.57513508059E+02  0.86853970273E+02  0.41800000000E+01 0.  1.
         -5    1    3    3    0  502 -0.59792151524E+02  0.41740646520E+01  0.10348938044E+03  0.11966640491E+03  0.41800000000E+01 0.  1.
        -11    1    4    4    0    0 -0.38257415761E+01 -0.29847044250E+02  0.10108554677E+02  0.31743743111E+02  0.00000000000E+00 0. -1.
         11    1    4    4    0    0  0.98946703045E+01  0.62171629919E+02  0.70504982528E+02  0.94520731210E+02  0.00000000000E+00 0.  1.
</event>
<event>
 8    1  0.6648599E-009  0.9687394E+02  0.7561462E-02  0.1287010E+00
          4   -1    0    0  501    0  0.00000000000E+00  0.00000000000E+00  0.18520361094E+04  0.18520361094E+04  0.00000000000E+00 0. -1.
         -4   -1    0    0    0  501 -0.00000000000E+00 -0.00000000000E+00 -0.98736732361E+01  0.98736732361E+01  0.00000000000E+00 0.  1.
         25    2    1    2    0    0  0.13319087480E+01 -0.37361173405E+02  0.14962406428E+04  0.15019256143E+04  0.12508740317E+03 0.  0.
         23    2    1    2    0    0 -0.13319087480E+01  0.37361173405E+02  0.34592179342E+03  0.35998416840E+03  0.92353035027E+02 0.  0.
          5    1    3    3  502    0  0.16021100543E+02  0.24997340463E+02  0.11085219802E+04  0.11089274078E+04  0.41800000000E+01 0. -1.
         -5    1    3    3    0  502 -0.14689191795E+02 -0.62358513867E+02  0.38771866257E+03  0.39299820650E+03  0.41800000000E+01 0. -1.
        -11    1    4    4    0    0  0.45021207925E+02  0.25396913688E+02  0.17284007409E+03  0.18040400106E+03  0.00000000000E+00 0. -1.
         11    1    4    4    0    0 -0.46353116672E+02  0.11964259717E+02  0.17308171933E+03  0.17958016734E+03  0.00000000000E+00 0.  1.
</event>
<event>
 8    1  0.6648599E-009  0.1423978E+03  0.7561462E-02  0.1210139E+00
         -2   -1    0    0    0  501 -0.00000000000E+00  0.00000000000E+00  0.40424701502E+03  0.40424701502E+03  0.00000000000E+00 0. -1.
          2   -1    0    0  501    0  0.00000000000E+00 -0.00000000000E+00 -0.80742661863E+02  0.80742661863E+02  0.00000000000E+00 0.  1.
         25    2    1    2    0    0 -0.11458264801E+03  0.80232341965E+02  0.12589236413E+03  0.22597390779E+03  0.12509559437E+03 0.  0.
         23    2    1    2    0    0  0.11458264801E+03 -0.80232341965E+02  0.19761198903E+03  0.25901576910E+03  0.92044872278E+02 0.  0.
          5    1    3    3  502    0 -0.32361395228E+02  0.11761428202E+02  0.11290112961E+03  0.11810896902E+03  0.41800000000E+01 0. -1.
         -5    1    3    3    0  502 -0.82221252783E+02  0.68470913764E+02  0.12991234518E+02  0.10786493877E+03  0.41800000000E+01 0. -1.
        -11    1    4    4    0    0  0.81357879978E+02 -0.39421960653E+02  0.18345301657E+03  0.20451944872E+03  0.00000000000E+00 0. -1.
         11    1    4    4    0    0  0.33224768033E+02 -0.40810381312E+02  0.14158972455E+02  0.54496320378E+02  0.00000000000E+00 0.  1.
</event>
<event>
 8    1  0.6648599E-009  0.1264674E+03  0.7561462E-02  0.1232794E+00
          1   -1    0    0  501    0  0.00000000000E+00  0.00000000000E+00  0.18273424240E+02  0.18273424240E+02  0.00000000000E+00 0. -1.
         -1   -1    0    0    0  501 -0.00000000000E+00 -0.00000000000E+00 -0.10942396460E+04  0.10942396460E+04  0.00000000000E+00 0.  1.
         25    2    1    2    0    0  0.49154230630E+02 -0.49502163827E+02 -0.80610592916E+03  0.81873105304E+03  0.12508863083E+03 0.  0.
         23    2    1    2    0    0 -0.49154230630E+02  0.49502163827E+02 -0.26986029264E+03  0.29378201724E+03  0.92826146642E+02 0.  0.
          5    1    3    3  502    0  0.91182574797E+02 -0.41187783364E+02 -0.55488923893E+03  0.56385302636E+03  0.41800000000E+01 0.  1.
         -5    1    3    3    0  502 -0.42028344167E+02 -0.83143804632E+01 -0.25121669023E+03  0.25487802668E+03  0.41800000000E+01 0.  1.
        -11    1    4    4    0    0  0.20781949871E+02  0.31145885834E+02 -0.50872701949E+02  0.63166347436E+02  0.00000000000E+00 0.  1.
         11    1    4    4    0    0 -0.69936180501E+02  0.18356277993E+02 -0.21898759069E+03  0.23061566981E+03  0.00000000000E+00 0. -1.
</event>
<event>
 8    1  0.6648599E-009  0.1557553E+03  0.7561462E-02  0.1193574E+00
         -2   -1    0    0    0  501 -0.00000000000E+00  0.00000000000E+00  0.29397915569E+02  0.29397915569E+02  0.00000000000E+00 0.  1.
          2   -1    0    0  501    0  0.00000000000E+00 -0.00000000000E+00 -0.12555029754E+04  0.12555029754E+04  0.00000000000E+00 0. -1.
         25    2    1    2    0    0 -0.65280180361E+02  0.11706421784E+03 -0.90317809073E+03  0.92159840699E+03  0.12508967639E+03 0.  0.
         23    2    1    2    0    0  0.65280180361E+02 -0.11706421784E+03 -0.32292696908E+03  0.36330248396E+03  0.98698198795E+02 0.  0.
          5    1    3    3  502    0 -0.87168745288E+02  0.40098161093E+02 -0.61638568727E+03  0.62382292403E+03  0.41800000000E+01 0. -1.
         -5    1    3    3    0  502  0.21888564927E+02  0.76966056752E+02 -0.28679240346E+03  0.29777548295E+03  0.41800000000E+01 0. -1.
        -11    1    4    4    0    0  0.57723853230E+02 -0.87472979248E+02 -0.31467227549E+03  0.33166580513E+03  0.00000000000E+00 0. -1.
         11    1    4    4    0    0  0.75563271317E+01 -0.29591238596E+02 -0.82546935943E+01  0.31636678835E+02  0.00000000000E+00 0.  1.
</event>
<event>
 8    1  0.6648599E-009  0.1789401E+03  0.7561462E-02  0.1168833E+00
         -1   -1    0    0    0  501 -0.00000000000E+00  0.00000000000E+00  0.12248193324E+04  0.12248193324E+04  0.00000000000E+00 0.  1.
          1   -1    0    0  501    0  0.00000000000E+00 -0.00000000000E+00 -0.30959015848E+02  0.30959015848E+02  0.00000000000E+00 0. -1.
         25    2    1    2    0    0 -0.15901506250E+03  0.28092350277E+02  0.60851998029E+03  0.64188603355E+03  0.12508454505E+03 0.  0.
         23    2    1    2    0    0  0.15901506250E+03 -0.28092350277E+02  0.58534033622E+03  0.61389231465E+03  0.90363125996E+02 0.  0.
          5    1    3    3  502    0  0.67128408753E+00  0.11969053687E+02  0.23474025783E+03  0.23508332547E+03  0.41800000000E+01 0. -1.
         -5    1    3    3    0  502 -0.15968634659E+03  0.16123296590E+02  0.37377972246E+03  0.40680270808E+03  0.41800000000E+01 0. -1.
        -11    1    4    4    0    0  0.68030498881E+02  0.32421217945E+02  0.25923395262E+03  0.26996578736E+03  0.00000000000E+00 0.  1.
         11    1    4    4    0    0  0.90984563618E+02 -0.60513568221E+02  0.32610638359E+03  0.34392652729E+03  0.00000000000E+00 0. -1.
</event>
<event>
 8    1  0.6648599E-009  0.1007310E+03  0.7561462E-02  0.1278766E+00
         -2   -1    0    0    0  501 -0.00000000000E+00  0.00000000000E+00  0.64838622385E+02  0.64838622385E+02  0.00000000000E+00 0.  1.
          2   -1    0    0  501    0  0.00000000000E+00 -0.00000000000E+00 -0.30975484718E+03  0.30975484718E+03  0.00000000000E+00 0. -1.
         25    2    1    2    0    0 -0.47373249096E+02 -0.46555023519E+02 -0.51797886752E+02  0.15080814616E+03  0.12509388846E+03 0.  0.
         23    2    1    2    0    0  0.47373249096E+02  0.46555023519E+02 -0.19311833805E+03  0.22378532341E+03  0.91507286812E+02 0.  0.
          5    1    3    3  502    0  0.12670452512E+02  0.30680212911E+02  0.10123256000E+02  0.34953805846E+02  0.41800000000E+01 0.  1.
         -5    1    3    3    0  502 -0.60043701608E+02 -0.77235236430E+02 -0.61921142751E+02  0.11585434031E+03  0.41800000000E+01 0.  1.
        -11    1    4    4    0    0  0.12902154112E+02  0.97253649143E+00  0.76571348485E+01  0.15034730528E+02  0.00000000000E+00 0.  1.
         11    1    4    4    0    0  0.34471094984E+02  0.45582487028E+02 -0.20077547289E+03  0.20875059288E+03  0.00000000000E+00 0. -1.
</event>
<event>
 8    1  0.6648599E-009  0.8394836E+02  0.7561462E-02  0.1318206E+00
          1   -1    0    0  501    0  0.00000000000E+00  0.00000000000E+00  0.14224453405E+03  0.14224453405E+03  0.00000000000E+00 0. -1.
         -1   -1    0    0    0  501 -0.00000000000E+00 -0.00000000000E+00 -0.12422195490E+03  0.12422195490E+03  0.00000000000E+00 0.  1.
         25    2    1    2    0    0  0.59441992988E+02 -0.16018905140E+02  0.19960316205E+02  0.14084094611E+03  0.12509117486E+03 0.  0.
         23    2    1    2    0    0 -0.59441992988E+02  0.16018905140E+02 -0.19377370589E+01  0.12562554283E+03  0.10949002847E+03 0.  0.
          5    1    3    3  502    0  0.49007470452E+02 -0.19007333643E+01  0.71176416767E+02  0.86538428754E+02  0.41800000000E+01 0. -1.
         -5    1    3    3    0  502  0.10434522536E+02 -0.14118171776E+02 -0.51216100562E+02  0.54302517360E+02  0.41800000000E+01 0. -1.
        -11    1    4    4    0    0 -0.78860973009E+00 -0.27551277752E+02 -0.35728612740E+02  0.45124589520E+02  0.00000000000E+00 0.  1.
         11    1    4    4    0    0 -0.58653383258E+02  0.43570182892E+02  0.33790875681E+02  0.80500953312E+02  0.00000000000E+00 0. -1.
</event>
<event>
 8    1  0.6648599E-009  0.8598677E+02  0.7561462E-02  0.1312872E+00
          1   -1    0    0  501    0  0.00000000000E+00  0.00000000000E+00  0.42923573371E+03  0.42923573371E+03  0.00000000000E+00 0. -1.
         -1   -1    0    0    0  501 -0.00000000000E+00 -0.00000000000E+00 -0.45727388929E+02  0.45727388929E+02  0.00000000000E+00 0.  1.
         25    2    1    2    0    0 -0.44653235924E+02 -0.52898674980E+02  0.11586560404E+03  0.18402404477E+03  0.12509128492E+03 0.  0.
         23    2    1    2    0    0  0.44653235924E+02  0.52898674980E+02  0.26764274074E+03  0.29093907787E+03  0.90668236250E+02 0.  0.
          5    1    3    3  502    0 -0.26629620955E+02 -0.23964624183E+02  0.13835028599E+03  0.14297452206E+03  0.41800000000E+01 0.  1.
         -5    1    3    3    0  502 -0.18023614969E+02 -0.28934050796E+02 -0.22484681956E+02  0.41049522710E+02  0.41800000000E+01 0.  1.
        -11    1    4    4    0    0 -0.10197082875E+02 -0.12548273267E+02  0.88726246127E+01  0.18443511831E+02  0.00000000000E+00 0.  1.
         11    1    4    4    0    0  0.54850318799E+02  0.65446948247E+02  0.25877011613E+03  0.27249556604E+03  0.00000000000E+00 0. -1.
</event>
<event>
 8    1  0.6648599E-009  0.1217912E+03  0.7561462E-02  0.1240171E+00
          2   -1    0    0  501    0  0.00000000000E+00  0.00000000000E+00  0.53018813850E+02  0.53018813850E+02  0.00000000000E+00 0.  1.
         -2   -1    0    0    0  501 -0.00000000000E+00 -0.00000000000E+00 -0.41089446248E+03  0.41089446248E+03  0.00000000000E+00 0. -1.
         25    2    1    2    0    0 -0.76494136389E+02  0.22439933397E+02 -0.90505144789E+02  0.17375919057E+03  0.12508465758E+03 0.  0.
         23    2    1    2    0    0  0.76494136389E+02 -0.22439933397E+02 -0.26737050384E+03  0.29015408576E+03  0.79671222203E+02 0.  0.
          5    1    3    3  502    0  0.34755077215E+02  0.93341018819E+01 -0.21675042351E+02  0.42217540324E+02  0.41800000000E+01 0.  1.
         -5    1    3    3    0  502 -0.11124921360E+03  0.13105831515E+02 -0.68830102439E+02  0.13154165024E+03  0.41800000000E+01 0.  1.
        -11    1    4    4    0    0  0.78138709359E+02 -0.56019908532E+01 -0.26027386313E+03  0.27180788074E+03  0.00000000000E+00 0. -1.
         11    1    4    4    0    0 -0.16445729700E+01 -0.16837942544E+02 -0.70966407068E+01  0.18346205021E+02  0.00000000000E+00 0.  1.
</event>
<event>
 8    1  0.6648599E-009  0.1706207E+03  0.7561462E-02  0.1177202E+00
         -2   -1    0    0    0  501 -0.00000000000E+00  0.00000000000E+00  0.20975994445E+03  0.20975994445E+03  0.00000000000E+00 0.  1.
          2   -1    0    0  501    0  0.00000000000E+00 -0.00000000000E+00 -0.16084116524E+03  0.16084116524E+03  0.00000000000E+00 0. -1.
         25    2    1    2    0    0  0.11128116200E+03  0.82519535411E+02 -0.26158335777E+02  0.18847872906E+03  0.12508797720E+03 0.  0.
         23    2    1    2    0    0 -0.11128116200E+03 -0.82519535411E+02  0.75077114992E+02  0.18212238062E+03  0.91318221551E+02 0.  0.
          5    1    3    3  502    0  0.13334125008E+03  0.91990795378E+02 -0.25925439494E+02  0.16410909853E+03  0.41800000000E+01 0. -1.
         -5    1    3    3    0  502 -0.22060088084E+02 -0.94712599671E+01 -0.23289628328E+00  0.24369630533E+02  0.41800000000E+01 0. -1.
        -11    1    4    4    0    0 -0.76677024330E+02 -0.13834626379E+02  0.70501030680E+02  0.10507691599E+03  0.00000000000E+00 0.  1.
         11    1    4    4    0    0 -0.34604137669E+02 -0.68684909031E+02  0.45760843118E+01  0.77045464630E+02  0.00000000000E+00 0. -1.
</event>
<event>
 8    1  0.6648599E-009  0.1149883E+03  0.7561462E-02  0.1251602E+00
         -2   -1    0    0    0  501 -0.00000000000E+00  0.00000000000E+00  0.15459248901E+03  0.15459248901E+03  0.00000000000E+00 0.  1.
          2   -1    0    0  501    0  0.00000000000E+00 -0.00000000000E+00 -0.15752886294E+03  0.15752886294E+03  0.00000000000E+00 0. -1.
         25    2    1    2    0    0  0.10142747110E+03 -0.67161659423E+01 -0.47582159534E+02  0.16805933291E+03  0.12508892315E+03 0.  0.
         23    2    1    2    0    0 -0.10142747110E+03  0.67161659423E+01  0.44645785613E+02  0.14406201904E+03  0.91804032474E+02 0.  0.
          5    1    3    3  502    0  0.85609851189E+02  0.10541398569E+02  0.26437322707E+02  0.90313742787E+02  0.41800000000E+01 0.  1.
         -5    1    3    3    0  502  0.15817619906E+02 -0.17257564511E+02 -0.74019482241E+02  0.77745590123E+02  0.41800000000E+01 0.  1.
        -11    1    4    4    0    0 -0.39728539483E+02 -0.28410225224E+02  0.53584994508E+02  0.72504133559E+02  0.00000000000E+00 0.  1.
         11    1    4    4    0    0 -0.61698931613E+02  0.35126391167E+02 -0.89392088951E+01  0.71557885479E+02  0.00000000000E+00 0. -1.
</event>
<event>
 8    1  0.6648599E-009  0.1038625E+03  0.7561462E-02  0.1272377E+00
         -1   -1    0    0    0  501 -0.00000000000E+00  0.00000000000E+00  0.53340555970E+02  0.53340555970E+02  0.00000000000E+00 0.  1.
          1   -1    0    0  501    0  0.00000000000E+00 -0.00000000000E+00 -0.29433716799E+03  0.29433716799E+03  0.00000000000E+00 0. -1.
         25    2    1    2    0    0  0.24526311836E+01 -0.23735572785E+02 -0.21571858181E+03  0.25049985123E+03  0.12508507550E+03 0.  0.
         23    2    1    2    0    0 -0.24526311836E+01  0.23735572785E+02 -0.25278030211E+02  0.97177872732E+02  0.90747822686E+02 0.  0.
          5    1    3    3  502    0 -0.54118375342E+02 -0.67623919830E+01 -0.16039562556E+03  0.16946609571E+03  0.41800000000E+01 0.  1.
         -5    1    3    3    0  502  0.56571006525E+02 -0.16973180802E+02 -0.55322956247E+02  0.81033755520E+02  0.41800000000E+01 0.  1.
        -11    1    4    4    0    0 -0.92028413042E-01 -0.35016311156E+02 -0.10328061234E+02  0.36507798688E+02  0.00000000000E+00 0. -1.
         11    1    4    4    0    0 -0.23606027705E+01  0.58751883941E+02 -0.14949968977E+02  0.60670074043E+02  0.00000000000E+00 0.  1.
</event>
<event>
 8    1  0.6648599E-009  0.1705417E+03  0.7561462E-02  0.1177284E+00
         -1   -1    0    0    0  501 -0.00000000000E+00  0.00000000000E+00  0.14063586146E+03  0.14063586146E+03  0.00000000000E+00 0.  1.
          1   -1    0    0  501    0  0.00000000000E+00 -0.00000000000E+00 -0.26812521270E+03  0.26812521270E+03  0.00000000000E+00 0. -1.
         25    2    1    2    0    0  0.18945146615E+02 -0.15860081966E+03 -0.47806618406E+02  0.20843717116E+03  0.12508973971E+03 0.  0.
         23    2    1    2    0    0 -0.18945146615E+02  0.15860081966E+03 -0.79682732838E+02  0.20032390300E+03  0.90924087153E+02 0.  0.
          5    1    3    3  502    0 -0.20983534347E+01 -0.15979835860E+03 -0.72641422446E+02  0.17559660348E+03  0.41800000000E+01 0.  1.
         -5    1    3    3    0  502  0.21043500050E+02  0.11975389392E+01  0.24834804040E+02  0.32840567680E+02  0.41800000000E+01 0.  1.
        -11    1    4    4    0    0 -0.71438642741E+01  0.60898452970E+02  0.15677854360E+02  0.63288636328E+02  0.00000000000E+00 0.  1.
         11    1    4    4    0    0 -0.11801282341E+02  0.97702366687E+02 -0.95360587198E+02  0.13703526667E+03  0.00000000000E+00 0. -1.
</event>
<event>
 8    1  0.6648599E-009  0.1098461E+03  0.7561462E-02  0.1260855E+00
          2   -1    0    0  501    0  0.00000000000E+00  0.00000000000E+00  0.70205949582E+02  0.70205949582E+02  0.00000000000E+00 0. -1.
         -2   -1    0    0    0  501 -0.00000000000E+00 -0.00000000000E+00 -0.20007789198E+03  0.20007789198E+03  0.00000000000E+00 0.  1.
         25    2    1    2    0    0 -0.28229963160E+02  0.17571816523E+02 -0.11171665752E+03  0.17097826375E+03  0.12508899052E+03 0.  0.
         23    2    1    2    0    0  0.28229963160E+02 -0.17571816523E+02 -0.18155284877E+02  0.99305577815E+02  0.91794792119E+02 0.  0.
          5    1    3    3  502    0  0.41909263406E+02 -0.14919575962E+02 -0.69989598070E+02  0.83036114698E+02  0.41800000000E+01 0.  1.
         -5    1    3    3    0  502 -0.70139226567E+02  0.32491392485E+02 -0.41727059451E+02  0.87942149050E+02  0.41800000000E+01 0.  1.
        -11    1    4    4    0    0 -0.32506939071E+02  0.48257616636E+01 -0.73477515662E+01  0.33674597496E+02  0.00000000000E+00 0.  1.
         11    1    4    4    0    0  0.60736902232E+02 -0.22397578187E+02 -0.10807533311E+02  0.65630980319E+02  0.00000000000E+00 0. -1.
</event>
<event>
 8    1  0.6648599E-009  0.1041838E+03  0.7561462E-02  0.1271736E+00
         -2   -1    0    0    0  501 -0.00000000000E+00  0.00000000000E+00  0.11379063127E+03  0.11379063127E+03  0.00000000000E+00 0. -1.
          2   -1    0    0  501    0  0.00000000000E+00 -0.00000000000E+00 -0.17189177062E+03  0.17189177062E+03  0.00000000000E+00 0.  1.
         25    2    1    2    0    0 -0.67364710824E+02  0.37679688381E+02  0.11308477866E+02  0.14742184247E+03  0.12509018661E+03 0.  0.
         23    2    1    2    0    0  0.67364710824E+02 -0.37679688381E+02 -0.69409617218E+02  0.13826055941E+03  0.91326470126E+02 0.  0.
          5    1    3    3  502    0 -0.64887420590E+02  0.56610154741E+02  0.53123169076E+02  0.10126514930E+03  0.41800000000E+01 0.  1.
         -5    1    3    3    0  502 -0.24772902346E+01 -0.18930466361E+02 -0.41814691210E+02  0.46156693171E+02  0.41800000000E+01 0.  1.
        -11    1    4    4    0    0  0.72916205408E+02 -0.90818938153E+01 -0.78712408168E+02  0.10767960348E+03  0.00000000000E+00 0.  1.
         11    1    4    4    0    0 -0.55514945842E+01 -0.28597794565E+02  0.93027909502E+01  0.30580955930E+02  0.00000000000E+00 0. -1.
</event>
<event>
 8    1  0.6648599E-009  0.1987249E+03  0.7561462E-02  0.1150819E+00
          1   -1    0    0  501    0  0.00000000000E+00  0.00000000000E+00  0.10820329592E+04  0.10820329592E+04  0.00000000000E+00 0. -1.
         -1   -1    0    0    0  501 -0.00000000000E+00 -0.00000000000E+00 -0.37183827321E+02  0.37183827321E+02  0.00000000000E+00 0.  1.
         25    2    1    2    0    0  0.15788790982E+03  0.58681271215E+02  0.55823613353E+03  0.59636140722E+03  0.12508902264E+03 0.  0.
         23    2    1    2    0    0 -0.15788790982E+03 -0.58681271215E+02  0.48661299831E+03  0.52285537926E+03  0.90628107332E+02 0.  0.
          5    1    3    3  502    0  0.16134905052E+03  0.85281563792E+02  0.49226661781E+03  0.52502414863E+03  0.41800000000E+01 0.  1.
         -5    1    3    3    0  502 -0.34611406997E+01 -0.26600292577E+02  0.65969515717E+02  0.71337258596E+02  0.41800000000E+01 0.  1.
        -11    1    4    4    0    0 -0.15078236902E+03 -0.24400874583E+02  0.35096556942E+03  0.38276305517E+03  0.00000000000E+00 0.  1.
         11    1    4    4    0    0 -0.71055407987E+01 -0.34280396632E+02  0.13564742889E+03  0.14009232409E+03  0.00000000000E+00 0. -1.
</event>
<event>
 7    1  0.6648599E-009  0.1334911E+03  0.7561462E-02  0.1222366E+00
         -1   -1    0    0    0  501 -0.00000000000E+00  0.00000000000E+00  0.33138461106E+02  0.33138461106E+02  0.00000000000E+00 0.  1.
          1   -1    0    0  501    0  0.00000000000E+00 -0.00000000000E+00 -0.75404870042E+03  0.75404870042E+03  0.00000000000E+00 0. -1.
         23    2    1    2    0    0 -0.14339725098E+02  0.11017989491E+03 -0.40509167698E+03  0.42976302730E+03  0.90839176150E+02 0.  0.
          5    1    1    2  502    0 -0.29411800166E+02 -0.41923221822E+02 -0.24298513962E+03  0.24835833183E+03  0.41800000000E+01 0. -1.
         -5    1    1    2    0  502  0.43751525264E+02 -0.68256673093E+02 -0.72833422716E+02  0.10906580238E+03  0.41800000000E+01 0. -1.
        -11    1    3    3    0    0 -0.12696946575E+02 -0.87860127132E+01 -0.13547216674E+02  0.20541021186E+02  0.00000000000E+00 0.  1.
         11    1    3    3    0    0 -0.16427785225E+01  0.11896590763E+03 -0.39154446030E+03  0.40922200612E+03  0.00000000000E+00 0. -1.
</event>
<event>
 8    1  0.6648599E-009  0.9891410E+02  0.7561462E-02  0.1282596E+00
         -1   -1    0    0    0  501 -0.00000000000E+00  0.00000000000E+00  0.52538858511E+02  0.52538858511E+02  0.00000000000E+00 0.  1.
          1   -1    0    0  501    0  0.00000000000E+00 -0.00000000000E+00 -0.24548753080E+03  0.24548753080E+03  0.00000000000E+00 0. -1.
         25    2    1    2    0    0  0.94765124019E+01  0.25335579627E+02 -0.88591362730E+02  0.15565370712E+03  0.12509177074E+03 0.  0.
         23    2    1    2    0    0 -0.94765124019E+01 -0.25335579627E+02 -0.10435730956E+03  0.14237268219E+03  0.92993745452E+02 0.  0.
          5    1    3    3  502    0 -0.28438681906E+02 -0.40840194978E+02 -0.23041479691E+02  0.55000566731E+02  0.41800000000E+01 0. -1.
         -5    1    3    3    0  502  0.37915194308E+02  0.66175774605E+02 -0.65549883038E+02  0.10065314039E+03  0.41800000000E+01 0. -1.
        -11    1    4    4    0    0  0.12511967614E+02 -0.42057881611E+02 -0.11313510853E+02  0.45314570140E+02  0.00000000000E+00 0.  1.
         11    1    4    4    0    0 -0.21988480016E+02  0.16722301984E+02 -0.93043798704E+02  0.97058112048E+02  0.00000000000E+00 0. -1.
</event>
<event>
 8    1  0.6648599E-009  0.1164743E+03  0.7561462E-02  0.1249029E+00
         -1   -1    0    0    0  501 -0.00000000000E+00  0.00000000000E+00  0.14435073606E+03  0.14435073606E+03  0.00000000000E+00 0.  1.
          1   -1    0    0  501    0  0.00000000000E+00 -0.00000000000E+00 -0.14122045847E+03  0.14122045847E+03  0.00000000000E+00 0. -1.
         25    2    1    2    0    0  0.16235234024E+02  0.80673619405E+02  0.40492279068E+02  0.15511136574E+03  0.12509234759E+03 0.  0.
         23    2    1    2    0    0 -0.16235234024E+02 -0.80673619405E+02 -0.37362001480E+02  0.13045982879E+03  0.94085238385E+02 0.  0.
          5    1    3    3  502    0 -0.34458609903E+02  0.63790350444E+02 -0.18970913516E+02  0.75059793271E+02  0.41800000000E+01 0.  1.
         -5    1    3    3    0  502  0.50693843927E+02  0.16883268961E+02  0.59463192584E+02  0.80051572472E+02  0.41800000000E+01 0.  1.
        -11    1    4    4    0    0  0.26819972833E+02 -0.31607663426E+02 -0.48968353571E+02  0.64158046896E+02  0.00000000000E+00 0. -1.
         11    1    4    4    0    0 -0.43055206857E+02 -0.49065955978E+02  0.11606352091E+02  0.66301781895E+02  0.00000000000E+00 0.  1.
</event>
<event>
 8    1  0.6648599E-009  0.1096056E+03  0.7561462E-02  0.1261302E+00
         -2   -1    0    0    0  501 -0.00000000000E+00  0.00000000000E+00  0.18287590427E+02  0.18287590427E+02  0.00000000000E+00 0.  1.
          2   -1    0    0  501    0  0.00000000000E+00 -0.00000000000E+00 -0.68265935624E+03  0.68265935624E+03  0.00000000000E+00 0. -1.
         25    2    1    2    0    0 -0.20765674654E+02 -0.28567377082E+01 -0.44551557203E+03  0.46321838863E+03  0.12509107261E+03 0.  0.
         23    2    1    2    0    0  0.20765674654E+02  0.28567377082E+01 -0.21885619379E+03  0.23772855804E+03  0.90429306958E+02 0.  0.
          5    1    3    3  502    0  0.46104300704E+02  0.26517651218E+02 -0.17162263081E+03  0.17972365502E+03  0.41800000000E+01 0.  1.
         -5    1    3    3    0  502 -0.66869975358E+02 -0.29374388926E+02 -0.27389294122E+03  0.28349473360E+03  0.41800000000E+01 0.  1.
        -11    1    4    4    0    0  0.10145950219E+02  0.46599182700E+02 -0.10646942780E+03  0.11666260408E+03  0.00000000000E+00 0.  1.
         11    1    4    4    0    0  0.10619724435E+02 -0.43742444991E+02 -0.11238676599E+03  0.12106595397E+03  0.00000000000E+00 0. -1.
</event>
<event>
 8    1  0.6648599E-009  0.1068501E+03  0.7561462E-02  0.1266517E+00
         -2   -1    0    0    0  501 -0.00000000000E+00  0.00000000000E+00  0.24774022052E+03  0.24774022052E+03  0.00000000000E+00 0.  1.
          2   -1    0    0  501    0  0.00000000000E+00 -0.00000000000E+00 -0.52787958372E+02  0.52787958372E+02  0.00000000000E+00 0. -1.
         25    2    1    2    0    0  0.19005459578E+02  0.31651175138E+02  0.98364878212E+02  0.16336091996E+03  0.12509251186E+03 0.  0.
         23    2    1    2    0    0 -0.19005459578E+02 -0.31651175138E+02  0.96587383934E+02  0.13716725893E+03  0.90126188229E+02 0.  0.
          5    1    3    3  502    0 -0.46008827565E+02  0.57311769104E+00  0.66959280904E+01  0.46684564159E+02  0.41800000000E+01 0.  1.
         -5    1    3    3    0  502  0.65014287143E+02  0.31078057447E+02  0.91668950122E+02  0.11667635580E+03  0.41800000000E+01 0.  1.
        -11    1    4    4    0    0  0.11664660533E+02  0.26843977968E+02  0.17397648070E+02  0.34049105962E+02  0.00000000000E+00 0.  1.
         11    1    4    4    0    0 -0.30670120111E+02 -0.58495153106E+02  0.79189735863E+02  0.10311815296E+03  0.00000000000E+00 0. -1.
</event>
<event>
 8    1  0.6648599E-009  0.1403111E+03  0.7561462E-02  0.1212911E+00
          1   -1    0    0  501    0  0.00000000000E+00  0.00000000000E+00  0.45554393012E+03  0.45554393012E+03  0.00000000000E+00 0. -1.
         -1   -1    0    0    0  501 -0.00000000000E+00 -0.00000000000E+00 -0.53453294556E+02  0.53453294556E+02  0.00000000000E+00 0.  1.
         25    2    1    2    0    0  0.45002167174E+02  0.95303161879E+02  0.19920327861E+03  0.25775441059E+03  0.12508997663E+03 0.  0.
         23    2    1    2    0    0 -0.45002167174E+02 -0.95303161879E+02  0.20288735695E+03  0.25124281409E+03  0.10417189786E+03 0.  0.
          5    1    3    3  502    0  0.50234681496E+02  0.12294703895E+03  0.17870789872E+03  0.22269594311E+03  0.41800000000E+01 0.  1.
         -5    1    3    3    0  502 -0.52325143215E+01 -0.27643877067E+02  0.20495379886E+02  0.35058467480E+02  0.41800000000E+01 0.  1.
        -11    1    4    4    0    0  0.12044347488E+02 -0.63250306862E+01 -0.76907597426E+01  0.15627543153E+02  0.00000000000E+00 0.  1.
         11    1    4    4    0    0 -0.57046514662E+02 -0.88978131193E+02  0.21057811670E+03  0.23561527093E+03  0.00000000000E+00 0. -1.
</event>
<event>
 8    1  0.6648599E-009  0.9140307E+02  0.7561462E-02  0.1299489E+00
          1   -1    0    0  501    0  0.00000000000E+00  0.00000000000E+00  0.22971494958E+03  0.22971494958E+03  0.00000000000E+00 0. -1.
         -1   -1    0    0    0  501 -0.00000000000E+00 -0.00000000000E+00 -0.60004828143E+02  0.60004828143E+02  0.00000000000E+00 0.  1.
         25    2    1    2    0    0  0.32443753137E+02 -0.23165499095E+02  0.12313552634E+03  0.17999845234E+03  0.12509135674E+03 0.  0.
         23    2    1    2    0    0 -0.32443753137E+02  0.23165499095E+02  0.46574595096E+02  0.10972132538E+03  0.90996367343E+02 0.  0.
          5    1    3    3  502    0  0.90051358082E+01 -0.50491616540E+02 -0.18882209512E+00  0.51458758881E+02  0.41800000000E+01 0.  1.
         -5    1    3    3    0  502  0.23438617329E+02  0.27326117445E+02  0.12332434843E+03  0.12853969345E+03  0.41800000000E+01 0.  1.
        -11    1    4    4    0    0 -0.55226649208E+02  0.38781890249E+02  0.17706771778E+02  0.69767811782E+02  0.00000000000E+00 0.  1.
         11    1    4    4    0    0  0.22782896070E+02 -0.15616391154E+02  0.28867823318E+02  0.39953513602E+02  0.00000000000E+00 0. -1.
</event>
<event>
 8    1  0.6648599E-009  0.1303458E+03  0.7561462E-02  0.1226944E+00
          2   -1    0    0  501    0  0.00000000000E+00  0.00000000000E+00  0.16579274769E+03  0.16579274769E+03  0.00000000000E+00 0. -1.
         -2   -1    0    0    0  501 -0.00000000000E+00 -0.00000000000E+00 -0.14707901915E+03  0.14707901915E+03  0.00000000000E+00 0.  1.
         25    2    1    2    0    0  0.80305565193E+02 -0.59015025661E+02 -0.22018372304E+02  0.16144543933E+03  0.12509222241E+03 0.  0.
         23    2    1    2    0    0 -0.80305565193E+02  0.59015025661E+02  0.40732100845E+02  0.15142632750E+03  0.10648507674E+03 0.  0.
          5    1    3    3  502    0  0.33651598843E+02 -0.77378040695E+02 -0.55436132256E+02  0.10104666469E+03  0.41800000000E+01 0. -1.
         -5    1    3    3    0  502  0.46653966350E+02  0.18363015034E+02  0.33417759952E+02  0.60398774636E+02  0.41800000000E+01 0. -1.
        -11    1    4    4    0    0 -0.22910890546E+02 -0.18499529708E+02  0.46238323324E+02  0.54819011747E+02  0.00000000000E+00 0. -1.
         11    1    4    4    0    0 -0.57394674647E+02  0.77514555369E+02 -0.55062224799E+01  0.96607315758E+02  0.00000000000E+00 0.  1.
</event>
<event>
 8    1  0.6648599E-009  0.1917131E+03  0.7561462E-02  0.1156925E+00
          2   -1    0    0  501    0  0.00000000000E+00  0.00000000000E+00  0.10030638911E+03  0.10030638911E+03  0.00000000000E+00 0.  1.
         -2   -1    0    0    0  501 -0.00000000000E+00 -0.00000000000E+00 -0.49366320805E+03  0.49366320805E+03  0.00000000000E+00 0. -1.
         25    2    1    2    0    0  0.16165979943E+03 -0.58345005370E+02 -0.86356828738E+02  0.22944106210E+03  0.12509064195E+03 0.  0.
         23    2    1    2    0    0 -0.16165979943E+03  0.58345005370E+02 -0.30699999020E+03  0.36452853506E+03  0.95362615756E+02 0.  0.
          5    1    3    3  502    0  0.74233635864E+02  0.26119328824E+02  0.24386938166E+01  0.78843336175E+02  0.41800000000E+01 0.  1.
         -5    1    3    3    0  502  0.87426163566E+02 -0.84464334193E+02 -0.88795522555E+02  0.15059772592E+03  0.41800000000E+01 0.  1.
        -11    1    4    4    0    0 -0.42486275341E+02 -0.12572626793E+02 -0.14325107348E+03  0.14994673918E+03  0.00000000000E+00 0. -1.
         11    1    4    4    0    0 -0.11917352409E+03  0.70917632163E+02 -0.16374891672E+03  0.21458179588E+03  0.00000000000E+00 0.  1.
</event>
<event>
 8    1  0.6648599E-009  0.1499651E+03  0.7561462E-02  0.1200516E+00
          1   -1    0    0  501    0  0.00000000000E+00  0.00000000000E+00  0.92851197418E+03  0.92851197418E+03  0.00000000000E+00 0. -1.
         -1   -1    0    0    0  501 -0.00000000000E+00 -0.00000000000E+00 -0.26092418088E+02  0.26092418088E+02  0.00000000000E+00 0.  1.
         25    2    1    2    0    0 -0.11492604143E+03 -0.92294770846E+01  0.52164706939E+03  0.54868558750E+03  0.12508809171E+03 0.  0.
         23    2    1    2    0    0  0.11492604143E+03  0.92294770846E+01  0.38077248671E+03  0.40591880477E+03  0.80555640312E+02 0.  0.
          5    1    3    3  502    0 -0.13802624374E+03 -0.98122997593E+01  0.36655690107E+03  0.39182771637E+03  0.41800000000E+01 0.  1.
         -5    1    3    3    0  502  0.23100202318E+02  0.58282267471E+00  0.15509016832E+03  0.15685787114E+03  0.41800000000E+01 0.  1.
        -11    1    4    4    0    0  0.99669598320E+02 -0.23055762130E+02  0.31330924899E+03  0.32958804969E+03  0.00000000000E+00 0. -1.
         11    1    4    4    0    0  0.15256443107E+02  0.32285239214E+02  0.67463237720E+02  0.76330755080E+02  0.00000000000E+00 0.  1.
</event>
<event>
 8    1  0.6648599E-009  0.1114485E+03  0.7561462E-02  0.1257911E+00
         -2   -1    0    0    0  501 -0.00000000000E+00  0.00000000000E+00  0.31516559802E+03  0.31516559802E+03  0.00000000000E+00 0.  1.
          2   -1    0    0  501    0  0.00000000000E+00 -0.00000000000E+00 -0.70754936224E+02  0.70754936224E+02  0.00000000000E+00 0. -1.
         25    2    1    2    0    0  0.56955758052E+02 -0.46449209878E+02  0.22306693327E+03  0.26609771020E+03  0.12509055594E+03 0.  0.
         23    2    1    2    0    0 -0.56955758052E+02  0.46449209878E+02  0.21343728534E+02  0.11982282405E+03  0.92197976882E+02 0.  0.
          5    1    3    3  502    0  0.95487924408E+02 -0.19310303945E+02  0.15748774968E+03  0.18523146398E+03  0.41800000000E+01 0. -1.
         -5    1    3    3    0  502 -0.38532166356E+02 -0.27138905933E+02  0.65579183582E+02  0.80866246226E+02  0.41800000000E+01 0. -1.
        -11    1    4    4    0    0 -0.35181534601E+02  0.43734155529E+02  0.55688241111E+02  0.79067040761E+02  0.00000000000E+00 0.  1.
         11    1    4    4    0    0 -0.21774223450E+02  0.27150543494E+01 -0.34344512577E+02  0.40755783285E+02  0.00000000000E+00 0. -1.
</event>
<event>
 8    1  0.6648599E-009  0.8497734E+02  0.7561462E-02  0.1315492E+00
          1   -1    0    0  501    0  0.00000000000E+00  0.00000000000E+00  0.14725772372E+03  0.14725772372E+03  0.00000000000E+00 0. -1.
         -1   -1    0    0    0  501 -0.00000000000E+00 -0.00000000000E+00 -0.79481403404E+02  0.79481403404E+02  0.00000000000E+00 0.  1.
         25    2    1    2    0    0  0.46671949737E+01 -0.73923586458E+00  0.26677311300E+02  0.12798481440E+03  0.12508438992E+03 0.  0.
         23    2    1    2    0    0 -0.46671949737E+01  0.73923586458E+00  0.41099009012E+02  0.98754312717E+02  0.89671380941E+02 0.  0.
          5    1    3    3  502    0  0.13250823870E+02  0.43211001966E+02 -0.30910509111E+02  0.54915453177E+02  0.41800000000E+01 0.  1.
         -5    1    3    3    0  502 -0.85836288962E+01 -0.43950237831E+02  0.57587820411E+02  0.73069361227E+02  0.41800000000E+01 0.  1.
        -11    1    4    4    0    0  0.28139436774E+02  0.25900667768E+02 -0.29290979354E+01  0.38356904300E+02  0.00000000000E+00 0.  1.
         11    1    4    4    0    0 -0.32806631748E+02 -0.25161431903E+02  0.44028106948E+02  0.60397408417E+02  0.00000000000E+00 0. -1.
</event>
<event>
 8    1  0.6648599E-009  0.1635693E+03  0.7561462E-02  0.1184725E+00
          1   -1    0    0  501    0  0.00000000000E+00  0.00000000000E+00  0.12810163124E+03  0.12810163124E+03  0.00000000000E+00 0. -1.
         -1   -1    0    0    0  501 -0.00000000000E+00 -0.00000000000E+00 -0.24771085974E+03  0.24771085974E+03  0.00000000000E+00 0.  1.
         25    2    1    2    0    0  0.12811303907E+03 -0.58724882174E+02 -0.52217203733E+02  0.19552907075E+03  0.12507365261E+03 0.  0.
         23    2    1    2    0    0 -0.12811303907E+03  0.58724882174E+02 -0.67392024765E+02  0.18028342022E+03  0.89993688887E+02 0.  0.
          5    1    3    3  502    0  0.17025161398E+02  0.27059497844E+02 -0.44430347605E+02  0.54896272482E+02  0.41800000000E+01 0. -1.
         -5    1    3    3    0  502  0.11108787767E+03 -0.85784380018E+02 -0.77868561281E+01  0.14063279827E+03  0.41800000000E+01 0. -1.
        -11    1    4    4    0    0 -0.10875077371E+03  0.19152783375E+02 -0.77720952860E+02  0.13503372322E+03  0.00000000000E+00 0.  1.
         11    1    4    4    0    0 -0.19362265361E+02  0.39572098799E+02  0.10328928095E+02  0.45249697003E+02  0.00000000000E+00 0. -1.
</event>
