<event>
 8    1  0.7168478E-009  0.2338462E+03  0.7561462E-02  0.1123962E+00
         -1   -1    0    0    0  501 -0.00000000000E+00  0.00000000000E+00  0.11800215692E+03  0.11800215692E+03  0.00000000000E+00 0.  1.
          1   -1    0    0  501    0  0.00000000000E+00 -0.00000000000E+00 -0.70424297962E+03  0.70424297962E+03  0.00000000000E+00 0. -1.
         25    2    1    2    0    0  0.12751824176E+03 -0.19494908228E+03 -0.11432091412E+03  0.28806813584E+03  0.12509169765E+03 0.  0.
         23    2    1    2    0    0 -0.12751824176E+03  0.19494908228E+03 -0.47191990858E+03  0.53417700070E+03  0.91491099540E+02 0.  0.
          5    1    3    3  502    0  0.10085702021E+03 -0.17144218173E+03 -0.36308880949E+02  0.20223839259E+03  0.41800000000E+01 0.  1.
         -5    1    3    3    0  502  0.26661221554E+02 -0.23506900551E+02 -0.78012033170E+02  0.85829743257E+02  0.41800000000E+01 0.  1.
        -11    1    4    4    0    0 -0.37670769737E+02  0.57798817085E+02 -0.24295537280E+03  0.25256108830E+03  0.00000000000E+00 0.  1.
         11    1    4    4    0    0 -0.89847472023E+02  0.13715026519E+03 -0.22896453578E+03  0.28161591240E+03  0.00000000000E+00 0. -1.
</event>
<event>
 8    1  0.7168478E-009  0.8156407E+02  0.7561462E-02  0.1324671E+00
          3   -1    0    0  501    0  0.00000000000E+00  0.00000000000E+00  0.53747418586E+02  0.53747418586E+02  0.00000000000E+00 0. -1.
         -3   -1    0    0    0  501 -0.00000000000E+00 -0.00000000000E+00 -0.55589916357E+03  0.55589916357E+03  0.00000000000E+00 0.  1.
         25    2    1    2    0    0 -0.30482595069E+02  0.10818011521E+02 -0.49532617853E+03  0.51189991084E+03  0.12508907867E+03 0.  0.
         23    2    1    2    0    0  0.30482595069E+02 -0.10818011521E+02 -0.68255664537E+01  0.97746671317E+02  0.91986985062E+02 0.  0.
          5    1    3    3  502    0  0.25128596846E+02  0.35676706006E+02 -0.72762352717E+02  0.84947666853E+02  0.41800000000E+01 0. -1.
         -5    1    3    3    0  502 -0.55611191915E+02 -0.24858694485E+02 -0.42256382582E+03  0.42695224399E+03  0.41800000000E+01 0. -1.
        -11    1    4    4    0    0  0.10173731282E+02 -0.29149681622E+02 -0.42661338710E+02  0.52661167547E+02  0.00000000000E+00 0.  1.
         11    1    4    4    0    0  0.20308863787E+02  0.18331670101E+02  0.35835772257E+02  0.45085503770E+02  0.00000000000E+00 0. -1.
</event>
<event>
 8    1  0.7168478E-009  0.1161738E+03  0.7561462E-02  0.1249546E+00
          1   -1    0    0  501    0  0.00000000000E+00  0.00000000000E+00  0.63578151904E+03  0.63578151904E+03  0.00000000000E+00 0. -1.
         -1   -1    0    0    0  501 -0.00000000000E+00 -0.00000000000E+00 -0.28393701595E+02  0.28393701595E+02  0.00000000000E+00 0.  1.
         25    2    1    2    0    0 -0.18732591634E+02 -0.56432839511E+02  0.20633517038E+03  0.24850995342E+03  0.12508964405E+03 0.  0.
         23    2    1    2    0    0  0.18732591634E+02  0.56432839511E+02  0.40105264706E+03  0.41566526721E+03  0.91645039604E+02 0.  0.
          5    1    3    3  502    0 -0.45616591363E+02 -0.78170812236E+02  0.18903130790E+03  0.20962313102E+03  0.41800000000E+01 0. -1.
         -5    1    3    3    0  502  0.26883999730E+02  0.21737972725E+02  0.17303862481E+02  0.38886822400E+02  0.41800000000E+01 0. -1.
        -11    1    4    4    0    0  0.13800845151E+02 -0.23274984366E+02  0.14300933503E+03  0.14554675582E+03  0.00000000000E+00 0.  1.
         11    1    4    4    0    0  0.49317464830E+01  0.79707823877E+02  0.25804331203E+03  0.27011851139E+03  0.00000000000E+00 0. -1.
</event>
<event>
 8    1  0.7168478E-009  0.1040610E+03  0.7561462E-02  0.1271981E+00
         -2   -1    0    0    0  501 -0.00000000000E+00  0.00000000000E+00  0.34608638419E+03  0.34608638419E+03  0.00000000000E+00 0.  1.
          2   -1    0    0  501    0  0.00000000000E+00 -0.00000000000E+00 -0.49545548809E+02  0.49545548809E+02  0.00000000000E+00 0. -1.
         25    2    1    2    0    0  0.29445796246E+02 -0.46729929437E+02  0.23763636466E+03  0.27416934537E+03  0.12508815657E+03 0.  0.
         23    2    1    2    0    0 -0.29445796246E+02  0.46729929437E+02  0.58904470728E+02  0.12146258763E+03  0.90734129743E+02 0.  0.
          5    1    3    3  502    0  0.19756480464E+02 -0.85215096057E+02  0.11095968643E+03  0.14135577642E+03  0.41800000000E+01 0. -1.
         -5    1    3    3    0  502  0.96893157819E+01  0.38485166620E+02  0.12667667823E+03  0.13281356895E+03  0.41800000000E+01 0. -1.
        -11    1    4    4    0    0 -0.38642034464E+02  0.62675604205E+01  0.68478297520E+02  0.78878174246E+02  0.00000000000E+00 0.  1.
         11    1    4    4    0    0  0.91962382179E+01  0.40462369016E+02 -0.95738267919E+01  0.42584413383E+02  0.00000000000E+00 0. -1.
</event>
<event>
 8    1  0.7168478E-009  0.3662680E+03  0.7561462E-02  0.1056129E+00
          4   -1    0    0  501    0  0.00000000000E+00  0.00000000000E+00  0.22041130240E+03  0.22041130240E+03  0.00000000000E+00 0.  1.
         -4   -1    0    0    0  501 -0.00000000000E+00 -0.00000000000E+00 -0.65989484250E+03  0.65989484250E+03  0.00000000000E+00 0. -1.
         25    2    1    2    0    0  0.29238763212E+03  0.19268043896E+03 -0.10258060303E+03  0.38572943697E+03  0.12509252357E+03 0.  0.
         23    2    1    2    0    0 -0.29238763212E+03 -0.19268043896E+03 -0.33690293708E+03  0.49457670793E+03  0.92120855612E+02 0.  0.
          5    1    3    3  502    0  0.13563449067E+03  0.16314223027E+03 -0.54823000467E+02  0.21916919523E+03  0.41800000000E+01 0. -1.
         -5    1    3    3    0  502  0.15675314145E+03  0.29538208688E+02 -0.47757602560E+02  0.16656024174E+03  0.41800000000E+01 0. -1.
        -11    1    4    4    0    0 -0.47690126693E+02  0.25098860940E+01 -0.59817313659E+02  0.76542528868E+02  0.00000000000E+00 0. -1.
         11    1    4    4    0    0 -0.24469750543E+03 -0.19519032505E+03 -0.27708562342E+03  0.41803417906E+03  0.00000000000E+00 0.  1.
</event>
<event>
 8    1  0.7168478E-009  0.1094485E+03  0.7561462E-02  0.1261595E+00
          2   -1    0    0  501    0  0.00000000000E+00  0.00000000000E+00  0.40141291571E+03  0.40141291571E+03  0.00000000000E+00 0. -1.
         -2   -1    0    0    0  501 -0.00000000000E+00 -0.00000000000E+00 -0.53413818751E+02  0.53413818751E+02  0.00000000000E+00 0.  1.
         25    2    1    2    0    0  0.79513417683E+02  0.17230477768E+02  0.10507321947E+03  0.18250134285E+03  0.12508831175E+03 0.  0.
         23    2    1    2    0    0 -0.79513417683E+02 -0.17230477768E+02  0.24292587750E+03  0.27232539162E+03  0.92351848954E+02 0.  0.
          5    1    3    3  502    0  0.79934930513E+02  0.32263130894E+02  0.10834898096E+02  0.86979136280E+02  0.41800000000E+01 0.  1.
         -5    1    3    3    0  502 -0.42151283014E+00 -0.15032653126E+02  0.94238321369E+02  0.95522206568E+02  0.41800000000E+01 0.  1.
        -11    1    4    4    0    0 -0.88412778335E+02  0.93976778669E+01  0.21530398886E+03  0.23293978480E+03  0.00000000000E+00 0.  1.
         11    1    4    4    0    0  0.88993606520E+01 -0.26628155635E+02  0.27621888632E+02  0.39385606814E+02  0.00000000000E+00 0. -1.
</event>
<event>
 8    1  0.7168478E-009  0.1579895E+03  0.7561462E-02  0.1190985E+00
         -2   -1    0    0    0  501 -0.00000000000E+00  0.00000000000E+00  0.38500515947E+02  0.38500515947E+02  0.00000000000E+00 0.  1.
          2   -1    0    0  501    0  0.00000000000E+00 -0.00000000000E+00 -0.76572754552E+03  0.76572754552E+03  0.00000000000E+00 0. -1.
         25    2    1    2    0    0  0.92305158885E+02  0.87559348036E+02 -0.29582237787E+03  0.34546412872E+03  0.12509077983E+03 0.  0.
         23    2    1    2    0    0 -0.92305158885E+02 -0.87559348036E+02 -0.43140465170E+03  0.45876393274E+03  0.90374170505E+02 0.  0.
          5    1    3    3  502    0  0.16643613892E+01  0.69357167686E+02 -0.20224260881E+03  0.21385212654E+03  0.41800000000E+01 0.  1.
         -5    1    3    3    0  502  0.90640797496E+02  0.18202180350E+02 -0.93579769067E+02  0.13161200218E+03  0.41800000000E+01 0.  1.
        -11    1    4    4    0    0 -0.35455203669E+02  0.13533127171E+02 -0.76629195379E+02  0.85511698514E+02  0.00000000000E+00 0.  1.
         11    1    4    4    0    0 -0.56849955216E+02 -0.10109247521E+03 -0.35477545632E+03  0.37325223423E+03  0.00000000000E+00 0. -1.
</event>
<event>
 8    1  0.7168478E-009  0.1045940E+03  0.7561462E-02  0.1270922E+00
         -1   -1    0    0    0  501 -0.00000000000E+00  0.00000000000E+00  0.37138690873E+02  0.37138690873E+02  0.00000000000E+00 0.  1.
          1   -1    0    0  501    0  0.00000000000E+00 -0.00000000000E+00 -0.37000990825E+03  0.37000990825E+03  0.00000000000E+00 0. -1.
         25    2    1    2    0    0 -0.38866883159E+02  0.13394916479E+02 -0.15698052924E+03  0.20489051186E+03  0.12508867613E+03 0.  0.
         23    2    1    2    0    0  0.38866883159E+02 -0.13394916479E+02 -0.17589068814E+03  0.20225808726E+03  0.90998578533E+02 0.  0.
          5    1    3    3  502    0 -0.62021845244E+02 -0.24243249090E+02 -0.35551712152E+02  0.75603181486E+02  0.41800000000E+01 0. -1.
         -5    1    3    3    0  502  0.23154962085E+02  0.37638165569E+02 -0.12142881709E+03  0.12928733038E+03  0.41800000000E+01 0. -1.
        -11    1    4    4    0    0  0.65622889345E+02  0.46784329299E+01 -0.99037397667E+02  0.11889767650E+03  0.00000000000E+00 0.  1.
         11    1    4    4    0    0 -0.26756006187E+02 -0.18073349409E+02 -0.76853290470E+02  0.83360410759E+02  0.00000000000E+00 0. -1.
</event>
<event>
 8    1  0.7168478E-009  0.1218305E+03  0.7561462E-02  0.1240107E+00
         -2   -1    0    0    0  501 -0.00000000000E+00  0.00000000000E+00  0.67757046029E+02  0.67757046029E+02  0.00000000000E+00 0.  1.
          2   -1    0    0  501    0  0.00000000000E+00 -0.00000000000E+00 -0.31420337728E+03  0.31420337728E+03  0.00000000000E+00 0. -1.
         25    2    1    2    0    0 -0.55956929197E+02  0.20382776939E+01 -0.31039174268E+02  0.14052442764E+03  0.12509337282E+03 0.  0.
         23    2    1    2    0    0  0.55956929197E+02 -0.20382776939E+01 -0.21540715699E+03  0.24143599567E+03  0.93572240675E+02 0.  0.
          5    1    3    3  502    0  0.23791368432E+02  0.39663261429E+02  0.14382456494E+01  0.46462290834E+02  0.41800000000E+01 0.  1.
         -5    1    3    3    0  502 -0.79748297628E+02 -0.37624983735E+02 -0.32477419917E+02  0.94062136804E+02  0.41800000000E+01 0.  1.
        -11    1    4    4    0    0 -0.26375842469E+02 -0.34381195936E+01 -0.48195318162E+02  0.55048110095E+02  0.00000000000E+00 0.  1.
         11    1    4    4    0    0  0.82332771666E+02  0.13998418997E+01 -0.16721183882E+03  0.18638788558E+03  0.00000000000E+00 0. -1.
</event>
<event>
 8    1  0.7168478E-009  0.1252427E+03  0.7561462E-02  0.1234691E+00
          1   -1    0    0  501    0  0.00000000000E+00  0.00000000000E+00  0.73514364215E+03  0.73514364215E+03  0.00000000000E+00 0. -1.
         -1   -1    0    0    0  501 -0.00000000000E+00 -0.00000000000E+00 -0.24226285091E+02  0.24226285091E+02  0.00000000000E+00 0.  1.
         25    2    1    2    0    0  0.44765892705E+02  0.61953652924E+02  0.43554418769E+03  0.45955168618E+03  0.12508706000E+03 0.  0.
         23    2    1    2    0    0 -0.44765892705E+02 -0.61953652924E+02  0.27537316937E+03  0.29981824107E+03  0.90655143288E+02 0.  0.
          5    1    3    3  502    0  0.69419960678E+02 -0.56266153566E+01  0.15641515843E+03  0.17127160864E+03  0.41800000000E+01 0. -1.
         -5    1    3    3    0  502 -0.24654067974E+02  0.67580268281E+02  0.27912902926E+03  0.28828007753E+03  0.41800000000E+01 0. -1.
        -11    1    4    4    0    0 -0.57020600979E+01 -0.68764948770E+02  0.11074722395E+03  0.13048401926E+03  0.00000000000E+00 0.  1.
         11    1    4    4    0    0 -0.39063832607E+02  0.68112958460E+01  0.16462594542E+03  0.16933422181E+03  0.00000000000E+00 0. -1.
</event>
<event>
 8    1  0.7168478E-009  0.2099626E+03  0.7561462E-02  0.1141596E+00
         -1   -1    0    0    0  501 -0.00000000000E+00  0.00000000000E+00  0.94639094563E+02  0.94639094563E+02  0.00000000000E+00 0.  1.
          1   -1    0    0  501    0  0.00000000000E+00 -0.00000000000E+00 -0.67854010458E+03  0.67854010458E+03  0.00000000000E+00 0. -1.
         25    2    1    2    0    0 -0.17418636890E+03  0.80799049559E+02 -0.48718400506E+03  0.53839150801E+03  0.12509110117E+03 0.  0.
         23    2    1    2    0    0  0.17418636890E+03 -0.80799049559E+02 -0.96717004955E+02  0.23478769113E+03  0.94348838573E+02 0.  0.
          5    1    3    3  502    0 -0.97366520690E+02 -0.12883397096E+01 -0.33656818671E+03  0.35039622697E+03  0.41800000000E+01 0.  1.
         -5    1    3    3    0  502 -0.76819848208E+02  0.82087389268E+02 -0.15061581835E+03  0.18799528104E+03  0.41800000000E+01 0.  1.
        -11    1    4    4    0    0  0.12398234438E+03 -0.11683272702E+02 -0.34860405160E+02  0.12931886338E+03  0.00000000000E+00 0.  1.
         11    1    4    4    0    0  0.50204024518E+02 -0.69115776857E+02 -0.61856599795E+02  0.10546882775E+03  0.00000000000E+00 0. -1.
</event>
<event>
 8    1  0.7168478E-009  0.1151145E+03  0.7561462E-02  0.1251381E+00
          2   -1    0    0  501    0  0.00000000000E+00  0.00000000000E+00  0.42265207187E+03  0.42265207187E+03  0.00000000000E+00 0. -1.
         -2   -1    0    0    0  501 -0.00000000000E+00 -0.00000000000E+00 -0.34995163661E+02  0.34995163661E+02  0.00000000000E+00 0.  1.
         25    2    1    2    0    0 -0.12231335864E+02  0.54392428781E+02  0.20735762676E+03  0.24850192176E+03  0.12509147795E+03 0.  0.
         23    2    1    2    0    0  0.12231335864E+02 -0.54392428781E+02  0.18029928144E+03  0.20914531376E+03  0.90143161115E+02 0.  0.
          5    1    3    3  502    0 -0.18997551922E+02  0.91575996031E+02  0.17544437953E+03  0.19885993246E+03  0.41800000000E+01 0. -1.
         -5    1    3    3    0  502  0.67662160578E+01 -0.37183567250E+02  0.31913247235E+02  0.49641989306E+02  0.41800000000E+01 0. -1.
        -11    1    4    4    0    0 -0.14670089271E+02  0.16904271783E+02  0.14489255073E+02  0.26662791232E+02  0.00000000000E+00 0.  1.
         11    1    4    4    0    0  0.26901425135E+02 -0.71296700564E+02  0.16581002637E+03  0.18248252253E+03  0.00000000000E+00 0. -1.
</event>
<event>
 8    1  0.7168478E-009  0.2752717E+03  0.7561462E-02  0.1098300E+00
          1   -1    0    0  501    0  0.00000000000E+00  0.00000000000E+00  0.39901323145E+03  0.39901323145E+03  0.00000000000E+00 0. -1.
         -1   -1    0    0    0  501 -0.00000000000E+00 -0.00000000000E+00 -0.20872999962E+03  0.20872999962E+03  0.00000000000E+00 0.  1.
         25    2    1    2    0    0  0.20808914747E+03  0.16464709386E+03  0.62230786225E+02  0.29988035634E+03  0.12508316656E+03 0.  0.
         23    2    1    2    0    0 -0.20808914747E+03 -0.16464709386E+03  0.12805244561E+03  0.30786287473E+03  0.89288084306E+02 0.  0.
          5    1    3    3  502    0  0.55644055712E+02  0.78830553510E+02 -0.31218132340E+02  0.10150153343E+03  0.41800000000E+01 0. -1.
         -5    1    3    3    0  502  0.15244509175E+03  0.85816540345E+02  0.93448918565E+02  0.19837882291E+03  0.41800000000E+01 0. -1.
        -11    1    4    4    0    0 -0.17090365601E+03 -0.17040660070E+03  0.10154863464E+03  0.26183696149E+03  0.00000000000E+00 0.  1.
         11    1    4    4    0    0 -0.37185491454E+02  0.57595068495E+01  0.26503810964E+02  0.46025913238E+02  0.00000000000E+00 0. -1.
</event>
<event>
 8    1  0.7168478E-009  0.1638599E+03  0.7561462E-02  0.1184407E+00
          2   -1    0    0  501    0  0.00000000000E+00  0.00000000000E+00  0.27854741008E+03  0.27854741008E+03  0.00000000000E+00 0. -1.
         -2   -1    0    0    0  501 -0.00000000000E+00 -0.00000000000E+00 -0.20676074572E+03  0.20676074572E+03  0.00000000000E+00 0.  1.
         25    2    1    2    0    0  0.98718270313E+02 -0.89770564119E+02  0.20570350313E+03  0.27525579902E+03  0.12509105732E+03 0.  0.
         23    2    1    2    0    0 -0.98718270313E+02  0.89770564119E+02 -0.13391683877E+03  0.21005235678E+03  0.91565396329E+02 0.  0.
          5    1    3    3  502    0 -0.29910360885E+02 -0.18566041450E+02  0.47094789635E+02  0.58946748801E+02  0.41800000000E+01 0.  1.
         -5    1    3    3    0  502  0.12862863120E+03 -0.71204522668E+02  0.15860871349E+03  0.21630905022E+03  0.41800000000E+01 0.  1.
        -11    1    4    4    0    0 -0.33619436824E+02  0.69168652669E+02 -0.11648269928E+03  0.13958075897E+03  0.00000000000E+00 0.  1.
         11    1    4    4    0    0 -0.65098833489E+02  0.20601911449E+02 -0.17434139493E+02  0.70471597802E+02  0.00000000000E+00 0. -1.
</event>
<event>
 8    1  0.7168478E-009  0.1171077E+03  0.7561462E-02  0.1247946E+00
          2   -1    0    0  501    0  0.00000000000E+00  0.00000000000E+00  0.13608504844E+03  0.13608504844E+03  0.00000000000E+00 0.  1.
         -2   -1    0    0    0  501 -0.00000000000E+00 -0.00000000000E+00 -0.14167929415E+03  0.14167929415E+03  0.00000000000E+00 0. -1.
         25    2    1    2    0    0 -0.33458241060E+02  0.64589264555E+02  0.44041458820E+02  0.15125442136E+03  0.12508806056E+03 0.  0.
         23    2    1    2    0    0  0.33458241060E+02 -0.64589264555E+02 -0.49635704530E+02  0.12650992122E+03  0.90828574873E+02 0.  0.
          5    1    3    3  502    0 -0.74422500140E+02  0.18123986822E+02  0.28831685577E+01  0.76765698631E+02  0.41800000000E+01 0.  1.
         -5    1    3    3    0  502  0.40964259079E+02  0.46465277733E+02  0.41158290262E+02  0.74488722730E+02  0.41800000000E+01 0.  1.
        -11    1    4    4    0    0  0.23583180778E+02  0.58441286935E+01 -0.49774038141E+02  0.55387499751E+02  0.00000000000E+00 0. -1.
         11    1    4    4    0    0  0.98750602818E+01 -0.70433393248E+02  0.13833361161E+00  0.71122421473E+02  0.00000000000E+00 0.  1.
</event>
<event>
 8    1  0.7168478E-009  0.1116278E+03  0.7561462E-02  0.1257585E+00
          2   -1    0    0  501    0  0.00000000000E+00  0.00000000000E+00  0.56073272227E+03  0.56073272227E+03  0.00000000000E+00 0. -1.
         -2   -1    0    0    0  501 -0.00000000000E+00 -0.00000000000E+00 -0.25084201989E+02  0.25084201989E+02  0.00000000000E+00 0.  1.
         25    2    1    2    0    0  0.13858592759E+02 -0.44062034245E+02  0.26315783862E+03  0.29501310426E+03  0.12508860940E+03 0.  0.
         23    2    1    2    0    0 -0.13858592759E+02  0.44062034245E+02  0.27249068166E+03  0.29080382000E+03  0.90455329745E+02 0.  0.
          5    1    3    3  502    0 -0.25434174515E+02  0.29031539502E+02  0.14800647842E+03  0.15301345553E+03  0.41800000000E+01 0. -1.
         -5    1    3    3    0  502  0.39292767274E+02 -0.73093573747E+02  0.11515136020E+03  0.14199964873E+03  0.41800000000E+01 0. -1.
        -11    1    4    4    0    0  0.38603459511E+02  0.15405906110E+02  0.12135851682E+03  0.12827883159E+03  0.00000000000E+00 0.  1.
         11    1    4    4    0    0 -0.52462052270E+02  0.28656128135E+02  0.15113216484E+03  0.16252498841E+03  0.00000000000E+00 0. -1.
</event>
<event>
 8    1  0.7168478E-009  0.1259691E+03  0.7561462E-02  0.1233563E+00
         -1   -1    0    0    0  501 -0.00000000000E+00  0.00000000000E+00  0.36114727920E+02  0.36114727920E+02  0.00000000000E+00 0.  1.
          1   -1    0    0  501    0  0.00000000000E+00 -0.00000000000E+00 -0.50077740674E+03  0.50077740674E+03  0.00000000000E+00 0. -1.
         25    2    1    2    0    0 -0.57684376058E+02 -0.42376986212E+02 -0.32942749481E+03  0.35957466122E+03  0.12509263150E+03 0.  0.
         23    2    1    2    0    0  0.57684376058E+02  0.42376986212E+02 -0.13523518401E+03  0.17731747343E+03  0.89608231708E+02 0.  0.
          5    1    3    3  502    0  0.30101927657E+02  0.19144545103E+02 -0.10135829913E+03  0.10753425900E+03  0.41800000000E+01 0. -1.
         -5    1    3    3    0  502 -0.87786303716E+02 -0.61521531315E+02 -0.22806919568E+03  0.25204040222E+03  0.41800000000E+01 0. -1.
        -11    1    4    4    0    0  0.84756111170E+01 -0.24377690714E+02 -0.60116186370E+02  0.65422195408E+02  0.00000000000E+00 0.  1.
         11    1    4    4    0    0  0.49208764941E+02  0.66754676926E+02 -0.75118997639E+02  0.11189527803E+03  0.00000000000E+00 0. -1.
</event>
<event>
 8    1  0.7168478E-009  0.9554093E+02  0.7561462E-02  0.1289962E+00
         -1   -1    0    0    0  501 -0.00000000000E+00  0.00000000000E+00  0.69327872292E+02  0.69327872292E+02  0.00000000000E+00 0.  1.
          1   -1    0    0  501    0  0.00000000000E+00 -0.00000000000E+00 -0.22245768845E+03  0.22245768845E+03  0.00000000000E+00 0. -1.
         25    2    1    2    0    0 -0.46191117297E+02  0.24199098003E+02 -0.48664242916E+02  0.14399708364E+03  0.12509091053E+03 0.  0.
         23    2    1    2    0    0  0.46191117297E+02 -0.24199098003E+02 -0.10446557324E+03  0.14778847710E+03  0.90604427647E+02 0.  0.
          5    1    3    3  502    0  0.22729535245E+02 -0.11862371480E+02 -0.59903290085E+02  0.65293370204E+02  0.41800000000E+01 0.  1.
         -5    1    3    3    0  502 -0.68920652542E+02  0.36061469482E+02  0.11239047169E+02  0.78703713441E+02  0.41800000000E+01 0.  1.
        -11    1    4    4    0    0  0.13653172172E+02 -0.46038103150E+02 -0.96517236665E+02  0.10780302883E+03  0.00000000000E+00 0. -1.
         11    1    4    4    0    0  0.32537945126E+02  0.21839005147E+02 -0.79483365784E+01  0.39985448268E+02  0.00000000000E+00 0.  1.
</event>
<event>
 8    1  0.7168478E-009  0.7668792E+02  0.7561462E-02  0.1338722E+00
          1   -1    0    0  501    0  0.00000000000E+00  0.00000000000E+00  0.28107640634E+03  0.28107640634E+03  0.00000000000E+00 0. -1.
         -1   -1    0    0    0  501 -0.00000000000E+00 -0.00000000000E+00 -0.52010900807E+02  0.52010900807E+02  0.00000000000E+00 0.  1.
         25    2    1    2    0    0  0.21804927292E+02 -0.30677053959E+02  0.81494955688E+02  0.15396396300E+03  0.12508771965E+03 0.  0.
         23    2    1    2    0    0 -0.21804927292E+02  0.30677053959E+02  0.14757054984E+03  0.17912334414E+03  0.94295115155E+02 0.  0.
          5    1    3    3  502    0  0.23752646612E+02 -0.40027136569E+02 -0.20791192756E+02  0.51147883429E+02  0.41800000000E+01 0.  1.
         -5    1    3    3    0  502 -0.19477193200E+01  0.93500826105E+01  0.10228614844E+03  0.10281607957E+03  0.41800000000E+01 0.  1.
        -11    1    4    4    0    0  0.24527411012E+02 -0.16918003849E+02  0.75219262649E+02  0.80905810784E+02  0.00000000000E+00 0. -1.
         11    1    4    4    0    0 -0.46332338304E+02  0.47595057808E+02  0.72351287195E+02  0.98217533359E+02  0.00000000000E+00 0.  1.
</event>
<event>
 8    1  0.7168478E-009  0.1244274E+03  0.7561462E-02  0.1235967E+00
         -1   -1    0    0    0  501 -0.00000000000E+00  0.00000000000E+00  0.14642897937E+02  0.14642897937E+02  0.00000000000E+00 0. -1.
          1   -1    0    0  501    0  0.00000000000E+00 -0.00000000000E+00 -0.12592885234E+04  0.12592885234E+04  0.00000000000E+00 0.  1.
         25    2    1    2    0    0  0.32651423873E+02 -0.52719486302E+02 -0.90001702793E+03  0.91078138430E+03  0.12508644890E+03 0.  0.
         23    2    1    2    0    0 -0.32651423873E+02  0.52719486302E+02 -0.34462859755E+03  0.36315003705E+03  0.96247698405E+02 0.  0.
          5    1    3    3  502    0  0.11053260593E+02 -0.92561299204E+02 -0.64865267180E+03  0.65533009218E+03  0.41800000000E+01 0.  1.
         -5    1    3    3    0  502  0.21598163280E+02  0.39841812902E+02 -0.25136435613E+03  0.25545129212E+03  0.41800000000E+01 0.  1.
        -11    1    4    4    0    0 -0.52279623579E+02 -0.15684616960E+01 -0.21462205284E+03  0.22090324733E+03  0.00000000000E+00 0.  1.
         11    1    4    4    0    0  0.19628199705E+02  0.54287947998E+02 -0.13000654470E+03  0.14224678973E+03  0.00000000000E+00 0. -1.
</event>
<event>
 8    1  0.7168478E-009  0.9940680E+02  0.7561462E-02  0.1281548E+00
          1   -1    0    0  501    0  0.00000000000E+00  0.00000000000E+00  0.27445915836E+03  0.27445915836E+03  0.00000000000E+00 0. -1.
         -1   -1    0    0    0  501 -0.00000000000E+00 -0.00000000000E+00 -0.52459151390E+02  0.52459151390E+02  0.00000000000E+00 0.  1.
         25    2    1    2    0    0  0.40764802652E+02  0.30131449067E+02  0.11150118251E+03  0.17507054756E+03  0.12509000585E+03 0.  0.
         23    2    1    2    0    0 -0.40764802652E+02 -0.30131449067E+02  0.11049882446E+03  0.15184776219E+03  0.90983950874E+02 0.  0.
          5    1    3    3  502    0  0.56798768729E+02 -0.19637790824E+02  0.10347839450E+02  0.61125225062E+02  0.41800000000E+01 0. -1.
         -5    1    3    3    0  502 -0.16033966076E+02  0.49769239891E+02  0.10115334306E+03  0.11394532250E+03  0.41800000000E+01 0. -1.
        -11    1    4    4    0    0 -0.33782560747E+02 -0.52640588262E+02  0.11194731458E+03  0.12823608768E+03  0.00000000000E+00 0. -1.
         11    1    4    4    0    0 -0.69822419048E+01  0.22509139195E+02 -0.14484901187E+01  0.23611674505E+02  0.00000000000E+00 0.  1.
</event>
<event>
 8    1  0.7168478E-009  0.1811280E+03  0.7561462E-02  0.1166716E+00
          4   -1    0    0  501    0  0.00000000000E+00  0.00000000000E+00  0.27790827879E+02  0.27790827879E+02  0.00000000000E+00 0. -1.
         -4   -1    0    0    0  501 -0.00000000000E+00 -0.00000000000E+00 -0.18525004382E+04  0.18525004382E+04  0.00000000000E+00 0.  1.
         25    2    1    2    0    0  0.58015076798E+02  0.13501668655E+03 -0.14990555721E+04  0.15114268250E+04  0.12509270208E+03 0.  0.
         23    2    1    2    0    0 -0.58015076798E+02 -0.13501668655E+03 -0.32565403822E+03  0.36886444114E+03  0.91734227772E+02 0.  0.
          5    1    3    3  502    0 -0.34582599181E+02  0.69165835254E+02 -0.71232913353E+03  0.71652643762E+03  0.41800000000E+01 0. -1.
         -5    1    3    3    0  502  0.92597675979E+02  0.65850851300E+02 -0.78672643861E+03  0.79490038736E+03  0.41800000000E+01 0. -1.
        -11    1    4    4    0    0 -0.39176860800E+02 -0.14471453372E+03 -0.30160934142E+03  0.33681644486E+03  0.00000000000E+00 0.  1.
         11    1    4    4    0    0 -0.18838215998E+02  0.96978471698E+01 -0.24044696801E+02  0.32047996286E+02  0.00000000000E+00 0. -1.
</event>
<event>
 8    1  0.7168478E-009  0.1114989E+03  0.7561462E-02  0.1257819E+00
         -1   -1    0    0    0  501 -0.00000000000E+00  0.00000000000E+00  0.34286183308E+03  0.34286183308E+03  0.00000000000E+00 0. -1.
          1   -1    0    0  501    0  0.00000000000E+00 -0.00000000000E+00 -0.51323554801E+02  0.51323554801E+02  0.00000000000E+00 0.  1.
         25    2    1    2    0    0  0.21259343948E+01  0.32244304193E+02  0.26286602112E+03  0.29290017633E+03  0.12509098083E+03 0.  0.
         23    2    1    2    0    0 -0.21259343948E+01 -0.32244304193E+02  0.28672257160E+02  0.10128521155E+03  0.91609939406E+02 0.  0.
          5    1    3    3  502    0 -0.31496898868E+02 -0.38713344538E+02  0.11483963590E+03  0.12528524277E+03  0.41800000000E+01 0.  1.
         -5    1    3    3    0  502  0.33622833262E+02  0.70957648732E+02  0.14802638522E+03  0.16761493356E+03  0.41800000000E+01 0.  1.
        -11    1    4    4    0    0  0.28727108812E+02  0.19018657918E+02  0.22472184578E+02  0.41133383151E+02  0.00000000000E+00 0. -1.
         11    1    4    4    0    0 -0.30853043207E+02 -0.51262962112E+02  0.62000725826E+01  0.60151828398E+02  0.00000000000E+00 0.  1.
</event>
<event>
 8    1  0.7168478E-009  0.7696650E+02  0.7561462E-02  0.1337887E+00
          2   -1    0    0  501    0  0.00000000000E+00  0.00000000000E+00  0.42703114430E+03  0.42703114430E+03  0.00000000000E+00 0. -1.
         -2   -1    0    0    0  501 -0.00000000000E+00 -0.00000000000E+00 -0.35075167157E+02  0.35075167157E+02  0.00000000000E+00 0.  1.
         25    2    1    2    0    0 -0.37285680779E+02 -0.47064808762E+01  0.30465763561E+03  0.33147577484E+03  0.12509013319E+03 0.  0.
         23    2    1    2    0    0  0.37285680779E+02  0.47064808762E+01  0.87298341534E+02  0.13063053661E+03  0.89615644324E+02 0.  0.
          5    1    3    3  502    0 -0.51313424034E+02 -0.12846456611E+02  0.30952037655E+03  0.31403572223E+03  0.41800000000E+01 0. -1.
         -5    1    3    3    0  502  0.14027743255E+02  0.81399757349E+01 -0.48627409446E+01  0.17440052617E+02  0.41800000000E+01 0. -1.
        -11    1    4    4    0    0 -0.11057935867E+02 -0.25031217397E+02  0.10535663169E+01  0.27385211191E+02  0.00000000000E+00 0.  1.
         11    1    4    4    0    0  0.48343616646E+02  0.29737698273E+02  0.86244775218E+02  0.10324532542E+03  0.00000000000E+00 0. -1.
</event>
<event>
 8    1  0.7168478E-009  0.9747327E+02  0.7561462E-02  0.1285701E+00
         -4   -1    0    0    0  501 -0.00000000000E+00  0.00000000000E+00  0.12565806144E+03  0.12565806144E+03  0.00000000000E+00 0. -1.
          4   -1    0    0  501    0  0.00000000000E+00 -0.00000000000E+00 -0.10023018625E+03  0.10023018625E+03  0.00000000000E+00 0.  1.
         25    2    1    2    0    0 -0.37036563042E+02  0.11839320203E+01  0.85015118656E+01  0.13074691657E+03  0.12509744918E+03 0.  0.
         23    2    1    2    0    0  0.37036563042E+02 -0.11839320203E+01  0.16926363320E+02  0.95141331113E+02  0.85978267101E+02 0.  0.
          5    1    3    3  502    0 -0.72080074218E+01  0.50320186845E+02  0.40226080550E+02  0.64959114307E+02  0.41800000000E+01 0.  1.
         -5    1    3    3    0  502 -0.29828555621E+02 -0.49136254825E+02 -0.31724568685E+02  0.65787802265E+02  0.41800000000E+01 0.  1.
        -11    1    4    4    0    0 -0.91854652727E+01 -0.30312241500E+02 -0.11321791303E+02  0.33636107316E+02  0.00000000000E+00 0.  1.
         11    1    4    4    0    0  0.46222028315E+02  0.29128309480E+02  0.28248154623E+02  0.61505223797E+02  0.00000000000E+00 0. -1.
</event>
<event>
 8    1  0.7168478E-009  0.6188518E+02  0.7561462E-02  0.1390087E+00
         -2   -1    0    0    0  501 -0.00000000000E+00  0.00000000000E+00  0.67735350713E+02  0.67735350713E+02  0.00000000000E+00 0.  1.
          2   -1    0    0  501    0  0.00000000000E+00 -0.00000000000E+00 -0.24566545537E+03  0.24566545537E+03  0.00000000000E+00 0. -1.
         25    2    1    2    0    0 -0.80752108674E+00 -0.80111139197E+01 -0.14954595671E+02  0.12623686340E+03  0.12508907112E+03 0.  0.
         23    2    1    2    0    0  0.80752108674E+00  0.80111139197E+01 -0.16297550899E+03  0.18716394269E+03  0.91676032175E+02 0.  0.
          5    1    3    3  502    0 -0.15585813987E+02  0.17212720421E+02 -0.64432205022E+02  0.68616155430E+02  0.41800000000E+01 0. -1.
         -5    1    3    3    0  502  0.14778292901E+02 -0.25223834340E+02  0.49477609351E+02  0.57620707970E+02  0.41800000000E+01 0. -1.
        -11    1    4    4    0    0  0.30108862013E+02  0.22852653649E+02 -0.24966681514E+02  0.45300359119E+02  0.00000000000E+00 0.  1.
         11    1    4    4    0    0 -0.29301340926E+02 -0.14841539729E+02 -0.13800882748E+03  0.14186358357E+03  0.00000000000E+00 0. -1.
</event>
<event>
 8    1  0.7168478E-009  0.8560979E+02  0.7561462E-02  0.1313846E+00
         -1   -1    0    0    0  501 -0.00000000000E+00  0.00000000000E+00  0.77781976238E+03  0.77781976238E+03  0.00000000000E+00 0.  1.
          1   -1    0    0  501    0  0.00000000000E+00 -0.00000000000E+00 -0.21273637622E+02  0.21273637622E+02  0.00000000000E+00 0. -1.
         25    2    1    2    0    0  0.11573136431E+02  0.56273020887E+02  0.30191623964E+03  0.33181354913E+03  0.12508487223E+03 0.  0.
         23    2    1    2    0    0 -0.11573136431E+02 -0.56273020887E+02  0.45462988512E+03  0.46727985088E+03  0.91441436018E+02 0.  0.
          5    1    3    3  502    0  0.12637802483E+01  0.59187799726E+02  0.31133960867E+03  0.31694576367E+03  0.41800000000E+01 0. -1.
         -5    1    3    3    0  502  0.10309356182E+02 -0.29147788394E+01 -0.94233690355E+01  0.14867785463E+02  0.41800000000E+01 0. -1.
        -11    1    4    4    0    0  0.11675512267E+02 -0.71586250463E+02  0.39323375333E+03  0.39986709493E+03  0.00000000000E+00 0.  1.
         11    1    4    4    0    0 -0.23248648698E+02  0.15313229576E+02  0.61396131788E+02  0.67412755951E+02  0.00000000000E+00 0. -1.
</event>
<event>
 8    1  0.7168478E-009  0.1264402E+03  0.7561462E-02  0.1232836E+00
         -2   -1    0    0    0  501 -0.00000000000E+00  0.00000000000E+00  0.62054350315E+02  0.62054350315E+02  0.00000000000E+00 0. -1.
          2   -1    0    0  501    0  0.00000000000E+00 -0.00000000000E+00 -0.30319279087E+03  0.30319279087E+03  0.00000000000E+00 0.  1.
         25    2    1    2    0    0 -0.59278950347E+02 -0.40576139745E+02 -0.73381835766E+02  0.16184317074E+03  0.12509157056E+03 0.  0.
         23    2    1    2    0    0  0.59278950347E+02  0.40576139745E+02 -0.16775660479E+03  0.20340397044E+03  0.89835848468E+02 0.  0.
          5    1    3    3  502    0  0.18548836039E+02  0.32192953738E+02 -0.23132355223E+02  0.43966167071E+02  0.41800000000E+01 0. -1.
         -5    1    3    3    0  502 -0.77827786386E+02 -0.72769093483E+02 -0.50249480543E+02  0.11787700367E+03  0.41800000000E+01 0. -1.
        -11    1    4    4    0    0  0.43606335862E+00  0.49364081145E+02 -0.10960620416E+03  0.12021032672E+03  0.00000000000E+00 0. -1.
         11    1    4    4    0    0  0.58842886988E+02 -0.87879413993E+01 -0.58150400633E+02  0.83193643729E+02  0.00000000000E+00 0.  1.
</event>
<event>
 8    1  0.7168478E-009  0.1411984E+03  0.7561462E-02  0.1211725E+00
          2   -1    0    0  501    0  0.00000000000E+00  0.00000000000E+00  0.31931518989E+03  0.31931518989E+03  0.00000000000E+00 0. -1.
         -2   -1    0    0    0  501 -0.00000000000E+00 -0.00000000000E+00 -0.65507033372E+02  0.65507033372E+02  0.00000000000E+00 0.  1.
         25    2    1    2    0    0 -0.10298324009E+02 -0.94209948576E+02  0.12707990680E+03  0.20193558790E+03  0.12508840497E+03 0.  0.
         23    2    1    2    0    0  0.10298324009E+02  0.94209948576E+02  0.12672824972E+03  0.18288663536E+03  0.91683707548E+02 0.  0.
          5    1    3    3  502    0  0.50521253398E+02 -0.67436561745E+02  0.43021684434E+02  0.94701766807E+02  0.41800000000E+01 0. -1.
         -5    1    3    3    0  502 -0.60819577407E+02 -0.26773386831E+02  0.84058222363E+02  0.10723382109E+03  0.41800000000E+01 0. -1.
        -11    1    4    4    0    0  0.37726440054E+02  0.49266701861E+01  0.43415243186E+02  0.57727287301E+02  0.00000000000E+00 0.  1.
         11    1    4    4    0    0 -0.27428116045E+02  0.89283278390E+02  0.83313006532E+02  0.12515934806E+03  0.00000000000E+00 0. -1.
</event>
<event>
 8    1  0.7168478E-009  0.8407839E+02  0.7561462E-02  0.1317860E+00
         -1   -1    0    0    0  501 -0.00000000000E+00  0.00000000000E+00  0.20354577571E+03  0.20354577571E+03  0.00000000000E+00 0.  1.
          1   -1    0    0  501    0  0.00000000000E+00 -0.00000000000E+00 -0.62040763029E+02  0.62040763029E+02  0.00000000000E+00 0. -1.
         25    2    1    2    0    0  0.12658905418E+02  0.23548933278E+02  0.99263941102E+02  0.16191277522E+03  0.12509043381E+03 0.  0.
         23    2    1    2    0    0 -0.12658905418E+02 -0.23548933278E+02  0.42241071577E+02  0.10367376352E+03  0.90824781691E+02 0.  0.
          5    1    3    3  502    0  0.40725056476E+02  0.62609521205E+01  0.11709507462E+03  0.12420329564E+03  0.41800000000E+01 0.  1.
         -5    1    3    3    0  502 -0.28066151058E+02  0.17287981158E+02 -0.17831133520E+02  0.37709479582E+02  0.41800000000E+01 0.  1.
        -11    1    4    4    0    0 -0.51458462524E+02 -0.16806197822E+02  0.32374155623E+02  0.63075412031E+02  0.00000000000E+00 0.  1.
         11    1    4    4    0    0  0.38799557106E+02 -0.67427354563E+01  0.98669159539E+01  0.40598351487E+02  0.00000000000E+00 0. -1.
</event>
<event>
 8    1  0.7168478E-009  0.1004375E+03  0.7561462E-02  0.1279379E+00
         -2   -1    0    0    0  501 -0.00000000000E+00  0.00000000000E+00  0.22954045526E+02  0.22954045526E+02  0.00000000000E+00 0.  1.
          2   -1    0    0  501    0  0.00000000000E+00 -0.00000000000E+00 -0.81137943314E+03  0.81137943314E+03  0.00000000000E+00 0. -1.
         25    2    1    2    0    0 -0.62693554354E+02  0.30978988526E+02 -0.57672581997E+03  0.59426429391E+03  0.12508876891E+03 0.  0.
         23    2    1    2    0    0  0.62693554354E+02 -0.30978988526E+02 -0.21169956764E+03  0.24006918476E+03  0.89029922171E+02 0.  0.
          5    1    3    3  502    0 -0.52539420691E+02 -0.42887611869E+01 -0.53856422873E+03  0.54115403081E+03  0.41800000000E+01 0. -1.
         -5    1    3    3    0  502 -0.10154133663E+02  0.35267749713E+02 -0.38161591247E+02  0.53110263101E+02  0.41800000000E+01 0. -1.
        -11    1    4    4    0    0 -0.21847563446E+02 -0.32670883591E+01 -0.63305995184E+02  0.67049525882E+02  0.00000000000E+00 0. -1.
         11    1    4    4    0    0  0.84541117799E+02 -0.27711900167E+02 -0.14839357246E+03  0.17301965888E+03  0.00000000000E+00 0.  1.
</event>
<event>
 8    1  0.7168478E-009  0.7410124E+02  0.7561462E-02  0.1346677E+00
          1   -1    0    0  501    0  0.00000000000E+00  0.00000000000E+00  0.37667435692E+02  0.37667435692E+02  0.00000000000E+00 0. -1.
         -1   -1    0    0    0  501 -0.00000000000E+00 -0.00000000000E+00 -0.36469859117E+03  0.36469859117E+03  0.00000000000E+00 0.  1.
         25    2    1    2    0    0 -0.35054032820E+02  0.16045078811E+02 -0.22239720247E+03  0.25805814108E+03  0.12508900327E+03 0.  0.
         23    2    1    2    0    0  0.35054032820E+02 -0.16045078811E+02 -0.10463395301E+03  0.14430788578E+03  0.91598427972E+02 0.  0.
          5    1    3    3  502    0 -0.17005765549E+02 -0.17702524288E+02  0.66697999291E+01  0.25778558128E+02  0.41800000000E+01 0.  1.
         -5    1    3    3    0  502 -0.18048267271E+02  0.33747603099E+02 -0.22906700240E+03  0.23227958295E+03  0.41800000000E+01 0.  1.
        -11    1    4    4    0    0 -0.48143581935E+01  0.26245320124E+02 -0.25067410109E+01  0.26800720582E+02  0.00000000000E+00 0. -1.
         11    1    4    4    0    0  0.39868391013E+02 -0.42290398935E+02 -0.10212721200E+03  0.11750716520E+03  0.00000000000E+00 0.  1.
</event>
<event>
 8    1  0.7168478E-009  0.3651274E+03  0.7561462E-02  0.1056572E+00
          2   -1    0    0  501    0  0.00000000000E+00  0.00000000000E+00  0.36008477596E+04  0.36008477596E+04  0.00000000000E+00 0. -1.
         -2   -1    0    0    0  501 -0.00000000000E+00 -0.00000000000E+00 -0.45133244280E+02  0.45133244280E+02  0.00000000000E+00 0.  1.
         25    2    1    2    0    0  0.71904087411E+02  0.35189135151E+03  0.24664163742E+04  0.24955668910E+04  0.12508659229E+03 0.  0.
         23    2    1    2    0    0 -0.71904087411E+02 -0.35189135151E+03  0.10892981411E+04  0.11504141129E+04  0.88794536849E+02 0.  0.
          5    1    3    3  502    0  0.32274268040E+02  0.27106093671E+02  0.53075697114E+03  0.53244417876E+03  0.41800000000E+01 0. -1.
         -5    1    3    3    0  502  0.39629819370E+02  0.32478525784E+03  0.19356594031E+04  0.19631227123E+04  0.41800000000E+01 0. -1.
        -11    1    4    4    0    0 -0.27975666089E+02 -0.69943074338E+02  0.13775905006E+03  0.15701027805E+03  0.00000000000E+00 0.  1.
         11    1    4    4    0    0 -0.43928421321E+02 -0.28194827717E+03  0.95153909106E+03  0.99340383481E+03  0.00000000000E+00 0. -1.
</event>
<event>
 8    1  0.7168478E-009  0.1386223E+03  0.7561462E-02  0.1215195E+00
         -1   -1    0    0    0  501 -0.00000000000E+00  0.00000000000E+00  0.22560804137E+02  0.22560804137E+02  0.00000000000E+00 0.  1.
          1   -1    0    0  501    0  0.00000000000E+00 -0.00000000000E+00 -0.13429750018E+04  0.13429750018E+04  0.00000000000E+00 0. -1.
         25    2    1    2    0    0  0.10265732637E+03 -0.76822573758E+02 -0.52332205462E+03  0.55313063353E+03  0.12508912983E+03 0.  0.
         23    2    1    2    0    0 -0.10265732637E+03  0.76822573758E+02 -0.79709214306E+03  0.81240517242E+03  0.90587224028E+02 0.  0.
          5    1    3    3  502    0  0.11138741046E+02  0.25973311406E+01  0.33924961022E+01  0.12641167310E+02  0.41800000000E+01 0.  1.
         -5    1    3    3    0  502  0.91518585323E+02 -0.79419904899E+02 -0.52671455073E+03  0.54048946622E+03  0.41800000000E+01 0.  1.
        -11    1    4    4    0    0  0.92054819170E+01  0.96634851295E+01 -0.17702451173E+02  0.22169813254E+02  0.00000000000E+00 0.  1.
         11    1    4    4    0    0 -0.11186280829E+03  0.67159088629E+02 -0.77938969189E+03  0.79023535917E+03  0.00000000000E+00 0. -1.
</event>
<event>
 8    1  0.7168478E-009  0.1716476E+03  0.7561462E-02  0.1176140E+00
         -2   -1    0    0    0  501 -0.00000000000E+00  0.00000000000E+00  0.50355787935E+02  0.50355787935E+02  0.00000000000E+00 0. -1.
          2   -1    0    0  501    0  0.00000000000E+00 -0.00000000000E+00 -0.70400478072E+03  0.70400478072E+03  0.00000000000E+00 0.  1.
         25    2    1    2    0    0 -0.12406939595E+02 -0.15337758325E+03 -0.36097586862E+03  0.41185771136E+03  0.12507830144E+03 0.  0.
         23    2    1    2    0    0  0.12406939595E+02  0.15337758325E+03 -0.29267312416E+03  0.34250285729E+03  0.89286250072E+02 0.  0.
          5    1    3    3  502    0  0.45041940218E+02 -0.33087301650E+02 -0.16939062135E+03  0.17842141382E+03  0.41800000000E+01 0.  1.
         -5    1    3    3    0  502 -0.57448879813E+02 -0.12029028160E+03 -0.19158524727E+03  0.23343629754E+03  0.41800000000E+01 0.  1.
        -11    1    4    4    0    0  0.25486074140E+01  0.28077554459E+02 -0.14886233811E+03  0.15150854818E+03  0.00000000000E+00 0. -1.
         11    1    4    4    0    0  0.98583321809E+01  0.12530002879E+03 -0.14381078606E+03  0.19099430911E+03  0.00000000000E+00 0.  1.
</event>
<event>
 8    1  0.7168478E-009  0.1277775E+03  0.7561462E-02  0.1230791E+00
         -1   -1    0    0    0  501 -0.00000000000E+00  0.00000000000E+00  0.45922444209E+03  0.45922444209E+03  0.00000000000E+00 0.  1.
          1   -1    0    0  501    0  0.00000000000E+00 -0.00000000000E+00 -0.47644325861E+02  0.47644325861E+02  0.00000000000E+00 0. -1.
         25    2    1    2    0    0 -0.31240428186E+02  0.80387016966E+02  0.13433781061E+03  0.20281294694E+03  0.12509359391E+03 0.  0.
         23    2    1    2    0    0  0.31240428186E+02 -0.80387016966E+02  0.27724230562E+03  0.30405582101E+03  0.90269648355E+02 0.  0.
          5    1    3    3  502    0  0.21046398722E+02  0.93344865265E+02  0.10164380845E+03  0.13966084264E+03  0.41800000000E+01 0.  1.
         -5    1    3    3    0  502 -0.52286826908E+02 -0.12957848299E+02  0.32694002157E+02  0.63152104301E+02  0.41800000000E+01 0.  1.
        -11    1    4    4    0    0  0.44401047501E+02 -0.29799740934E+02  0.22056513030E+03  0.22695474060E+03  0.00000000000E+00 0.  1.
         11    1    4    4    0    0 -0.13160619315E+02 -0.50587276032E+02  0.56677175317E+02  0.77101080401E+02  0.00000000000E+00 0. -1.
</event>
<event>
 8    1  0.7168478E-009  0.9872612E+02  0.7561462E-02  0.1282998E+00
          1   -1    0    0  501    0  0.00000000000E+00  0.00000000000E+00  0.50183985320E+03  0.50183985320E+03  0.00000000000E+00 0. -1.
         -1   -1    0    0    0  501 -0.00000000000E+00 -0.00000000000E+00 -0.26825205382E+02  0.26825205382E+02  0.00000000000E+00 0.  1.
         25    2    1    2    0    0 -0.14059522947E+02 -0.24921374345E+02  0.32806453134E+03  0.35226789369E+03  0.12509031586E+03 0.  0.
         23    2    1    2    0    0  0.14059522947E+02  0.24921374345E+02  0.14695011648E+03  0.17639716488E+03  0.93289216747E+02 0.  0.
          5    1    3    3  502    0  0.14091661989E+02  0.47164489047E+02  0.10302454038E+03  0.11425669470E+03  0.41800000000E+01 0.  1.
         -5    1    3    3    0  502 -0.28151184937E+02 -0.72085863392E+02  0.22503999096E+03  0.23801119899E+03  0.41800000000E+01 0.  1.
        -11    1    4    4    0    0  0.32566974135E+02 -0.73151654228E+01  0.13229541517E+03  0.13644118265E+03  0.00000000000E+00 0. -1.
         11    1    4    4    0    0 -0.18507451187E+02  0.32236539768E+02  0.14654701314E+02  0.39955982234E+02  0.00000000000E+00 0.  1.
</event>
<event>
 8    1  0.7168478E-009  0.7573223E+02  0.7561462E-02  0.1341618E+00
         -1   -1    0    0    0  501 -0.00000000000E+00  0.00000000000E+00  0.32586421309E+03  0.32586421309E+03  0.00000000000E+00 0.  1.
          1   -1    0    0  501    0  0.00000000000E+00 -0.00000000000E+00 -0.50027506661E+02  0.50027506661E+02  0.00000000000E+00 0. -1.
         25    2    1    2    0    0  0.39374439367E+02  0.57107790393E+02  0.17137274652E+03  0.22322201489E+03  0.12509118067E+03 0.  0.
         23    2    1    2    0    0 -0.39374439367E+02 -0.57107790393E+02  0.10446395991E+03  0.15266970487E+03  0.87084290570E+02 0.  0.
          5    1    3    3  502    0  0.19980303266E+02  0.71586340004E+01  0.16798318873E+03  0.16937025316E+03  0.41800000000E+01 0.  1.
         -5    1    3    3    0  502  0.19394136101E+02  0.49949156392E+02  0.33895577903E+01  0.53851761730E+02  0.41800000000E+01 0.  1.
        -11    1    4    4    0    0 -0.24450267465E+02 -0.56020840142E+02  0.11774314504E+03  0.13266347770E+03  0.00000000000E+00 0.  1.
         11    1    4    4    0    0 -0.14924171902E+02 -0.10869502504E+01 -0.13279185132E+02  0.20006227170E+02  0.00000000000E+00 0. -1.
</event>
<event>
 8    1  0.7168478E-009  0.1067547E+03  0.7561462E-02  0.1266701E+00
          1   -1    0    0  501    0  0.00000000000E+00  0.00000000000E+00  0.14192123658E+04  0.14192123658E+04  0.00000000000E+00 0. -1.
         -1   -1    0    0    0  501 -0.00000000000E+00 -0.00000000000E+00 -0.14036084636E+02  0.14036084636E+02  0.00000000000E+00 0.  1.
         25    2    1    2    0    0  0.21593216107E+02  0.60224839055E+01  0.12114712223E+04  0.12181184525E+04  0.12508998613E+03 0.  0.
         23    2    1    2    0    0 -0.21593216107E+02 -0.60224839055E+01  0.19370505889E+03  0.21512999794E+03  0.90866544330E+02 0.  0.
          5    1    3    3  502    0  0.70894603490E+01 -0.55769673337E+02  0.77358043388E+03  0.77563179215E+03  0.41800000000E+01 0. -1.
         -5    1    3    3    0  502  0.14503755758E+02  0.61792157242E+02  0.43789078843E+03  0.44248666038E+03  0.41800000000E+01 0. -1.
        -11    1    4    4    0    0  0.30738607332E+02  0.18348363674E+02  0.70299740655E+02  0.78889656904E+02  0.00000000000E+00 0. -1.
         11    1    4    4    0    0 -0.52331823438E+02 -0.24370847580E+02  0.12340531824E+03  0.13624034103E+03  0.00000000000E+00 0.  1.
</event>
<event>
 8    1  0.7168478E-009  0.7540085E+02  0.7561462E-02  0.1342634E+00
         -2   -1    0    0    0  501 -0.00000000000E+00  0.00000000000E+00  0.11026579112E+02  0.11026579112E+02  0.00000000000E+00 0.  1.
          2   -1    0    0  501    0  0.00000000000E+00 -0.00000000000E+00 -0.11644041351E+04  0.11644041351E+04  0.00000000000E+00 0. -1.
         25    2    1    2    0    0 -0.70168240439E+01  0.10177802745E+02 -0.80417800971E+03  0.81394227403E+03  0.12508769192E+03 0.  0.
         23    2    1    2    0    0  0.70168240439E+01 -0.10177802745E+02 -0.34919954632E+03  0.36148844022E+03  0.92632314958E+02 0.  0.
          5    1    3    3  502    0 -0.10414457947E+02  0.32597459422E+02 -0.58462703632E+02  0.67870578391E+02  0.41800000000E+01 0. -1.
         -5    1    3    3    0  502  0.33976339029E+01 -0.22419656678E+02 -0.74571530608E+03  0.74607169564E+03  0.41800000000E+01 0. -1.
        -11    1    4    4    0    0 -0.57823175184E+01  0.40545513519E+02 -0.14215194605E+03  0.14793427469E+03  0.00000000000E+00 0. -1.
         11    1    4    4    0    0  0.12799141562E+02 -0.50723316264E+02 -0.20704760028E+03  0.21355416554E+03  0.00000000000E+00 0.  1.
</event>
<event>
 8    1  0.7168478E-009  0.1217457E+03  0.7561462E-02  0.1240245E+00
          4   -1    0    0  501    0  0.00000000000E+00  0.00000000000E+00  0.60058446879E+02  0.60058446879E+02  0.00000000000E+00 0. -1.
         -4   -1    0    0    0  501 -0.00000000000E+00 -0.00000000000E+00 -0.56447505812E+03  0.56447505812E+03  0.00000000000E+00 0.  1.
         25    2    1    2    0    0  0.91173119725E+02 -0.79209081128E+02 -0.41064273507E+03  0.44593513473E+03  0.12507626564E+03 0.  0.
         23    2    1    2    0    0 -0.91173119725E+02  0.79209081128E+02 -0.93773876163E+02  0.17859837026E+03  0.92288795184E+02 0.  0.
          5    1    3    3  502    0  0.83480619505E+02 -0.72809736504E+02 -0.41824900364E+03  0.43268923376E+03  0.41800000000E+01 0.  1.
         -5    1    3    3    0  502  0.76925002191E+01 -0.63993446234E+01  0.76062685643E+01  0.13245900977E+02  0.41800000000E+01 0.  1.
        -11    1    4    4    0    0 -0.71330167071E+02  0.52711851558E+02 -0.10903964824E+02  0.89361224689E+02  0.00000000000E+00 0. -1.
         11    1    4    4    0    0 -0.19842952654E+02  0.26497229570E+02 -0.82869911339E+02  0.89237145574E+02  0.00000000000E+00 0.  1.
</event>
<event>
 8    1  0.7168478E-009  0.1027779E+03  0.7561462E-02  0.1274561E+00
          4   -1    0    0  501    0  0.00000000000E+00  0.00000000000E+00  0.58401027525E+02  0.58401027525E+02  0.00000000000E+00 0.  1.
         -4   -1    0    0    0  501 -0.00000000000E+00 -0.00000000000E+00 -0.37475295927E+03  0.37475295927E+03  0.00000000000E+00 0. -1.
         25    2    1    2    0    0 -0.27867831258E+02 -0.29420334340E+02 -0.37296939730E+02  0.13667473654E+03  0.12508696896E+03 0.  0.
         23    2    1    2    0    0  0.27867831258E+02  0.29420334340E+02 -0.27905499201E+03  0.29647925025E+03  0.91575570810E+02 0.  0.
          5    1    3    3  502    0 -0.75343921798E+02 -0.25328680919E+02 -0.39356040210E+02  0.88795376738E+02  0.41800000000E+01 0.  1.
         -5    1    3    3    0  502  0.47476090539E+02 -0.40916534206E+01  0.20591004795E+01  0.47879359806E+02  0.41800000000E+01 0.  1.
        -11    1    4    4    0    0  0.23022310235E+02 -0.18761371948E+02 -0.28068212367E+02  0.40863680590E+02  0.00000000000E+00 0.  1.
         11    1    4    4    0    0  0.48455210239E+01  0.48181706288E+02 -0.25098677965E+03  0.25561556966E+03  0.00000000000E+00 0. -1.
</event>
<event>
 8    1  0.7168478E-009  0.8621502E+02  0.7561462E-02  0.1312285E+00
         -3   -1    0    0    0  501 -0.00000000000E+00  0.00000000000E+00  0.15702437654E+03  0.15702437654E+03  0.00000000000E+00 0.  1.
          3   -1    0    0  501    0  0.00000000000E+00 -0.00000000000E+00 -0.12126013724E+03  0.12126013724E+03  0.00000000000E+00 0. -1.
         25    2    1    2    0    0  0.76615786440E+01 -0.50153297454E+02 -0.49702315546E+02  0.14384970380E+03  0.12509342141E+03 0.  0.
         23    2    1    2    0    0 -0.76615786440E+01  0.50153297454E+02  0.85466554847E+02  0.13443480999E+03  0.90521451082E+02 0.  0.
          5    1    3    3  502    0  0.36646521905E+02 -0.18562416551E+02 -0.80787578687E+02  0.90728364617E+02  0.41800000000E+01 0. -1.
         -5    1    3    3    0  502 -0.28984943260E+02 -0.31590880903E+02  0.31085263141E+02  0.53121339183E+02  0.41800000000E+01 0. -1.
        -11    1    4    4    0    0  0.94822456320E+01  0.64814179600E+02  0.25372414806E+02  0.70246354301E+02  0.00000000000E+00 0. -1.
         11    1    4    4    0    0 -0.17143824276E+02 -0.14660882146E+02  0.60094140041E+02  0.64188455686E+02  0.00000000000E+00 0.  1.
</event>
<event>
 8    1  0.7168478E-009  0.7216896E+02  0.7561462E-02  0.1352869E+00
          1   -1    0    0  501    0  0.00000000000E+00  0.00000000000E+00  0.17561204192E+03  0.17561204192E+03  0.00000000000E+00 0. -1.
         -1   -1    0    0    0  501 -0.00000000000E+00 -0.00000000000E+00 -0.67960140760E+02  0.67960140760E+02  0.00000000000E+00 0.  1.
         25    2    1    2    0    0  0.79816962523E+01  0.81058755288E+01  0.27954702849E+02  0.12867686418E+03  0.12508739853E+03 0.  0.
         23    2    1    2    0    0 -0.79816962523E+01 -0.81058755288E+01  0.79697198314E+02  0.11489531850E+03  0.81974862614E+02 0.  0.
          5    1    3    3  502    0  0.94641793565E+01 -0.27215730122E+02 -0.41462184337E+02  0.50664107482E+02  0.41800000000E+01 0.  1.
         -5    1    3    3    0  502 -0.14824831041E+01  0.35321605651E+02  0.69416887185E+02  0.78012756703E+02  0.41800000000E+01 0.  1.
        -11    1    4    4    0    0 -0.37894691709E+02  0.16070534007E+02  0.56758834678E+02  0.70113016174E+02  0.00000000000E+00 0.  1.
         11    1    4    4    0    0  0.29912995456E+02 -0.24176409536E+02  0.22938363636E+02  0.44782302325E+02  0.00000000000E+00 0. -1.
</event>
<event>
 8    1  0.7168478E-009  0.1939264E+03  0.7561462E-02  0.1154967E+00
          2   -1    0    0  501    0  0.00000000000E+00  0.00000000000E+00  0.53496228174E+03  0.53496228174E+03  0.00000000000E+00 0.  1.
         -2   -1    0    0    0  501 -0.00000000000E+00 -0.00000000000E+00 -0.11499285490E+03  0.11499285490E+03  0.00000000000E+00 0. -1.
         25    2    1    2    0    0 -0.14217595905E+03 -0.92960822225E+02  0.25788289569E+02  0.21252870453E+03  0.12509075333E+03 0.  0.
         23    2    1    2    0    0  0.14217595905E+03  0.92960822225E+02  0.39418113727E+03  0.43742643212E+03  0.84305377862E+02 0.  0.
          5    1    3    3  502    0 -0.11352407172E+03 -0.12257884691E+03  0.33360480261E+02  0.17042207197E+03  0.41800000000E+01 0.  1.
         -5    1    3    3    0  502 -0.28651887329E+02  0.29618024685E+02 -0.75721906928E+01  0.42106632561E+02  0.41800000000E+01 0.  1.
        -11    1    4    4    0    0 -0.26390136273E-01  0.19039650426E+02  0.10583072453E+03  0.10752976909E+03  0.00000000000E+00 0.  1.
         11    1    4    4    0    0  0.14220234918E+03  0.73921171798E+02  0.28835041274E+03  0.32989666303E+03  0.00000000000E+00 0. -1.
</event>
<event>
 8    1  0.7168478E-009  0.1620814E+03  0.7561462E-02  0.1186367E+00
         -2   -1    0    0    0  501 -0.00000000000E+00  0.00000000000E+00  0.63548219430E+02  0.63548219430E+02  0.00000000000E+00 0.  1.
          2   -1    0    0  501    0  0.00000000000E+00 -0.00000000000E+00 -0.44404032489E+03  0.44404032489E+03  0.00000000000E+00 0. -1.
         25    2    1    2    0    0 -0.10422424704E+03 -0.72289193167E+02 -0.17713710911E+03  0.25122388360E+03  0.12508982031E+03 0.  0.
         23    2    1    2    0    0  0.10422424704E+03  0.72289193167E+02 -0.20335499635E+03  0.25636466073E+03  0.91000898951E+02 0.  0.
          5    1    3    3  502    0 -0.58756731585E+02 -0.10297494524E+03 -0.93192875322E+02  0.15085946197E+03  0.41800000000E+01 0.  1.
         -5    1    3    3    0  502 -0.45467515453E+02  0.30685752075E+02 -0.83944233792E+02  0.10036442163E+03  0.41800000000E+01 0.  1.
        -11    1    4    4    0    0  0.80191359042E+02  0.64744262302E+01 -0.74281284564E+02  0.10950014382E+03  0.00000000000E+00 0.  1.
         11    1    4    4    0    0  0.24032887996E+02  0.65814766937E+02 -0.12907371178E+03  0.14686451691E+03  0.00000000000E+00 0. -1.
</event>
<event>
 8    1  0.7168478E-009  0.1053412E+03  0.7561462E-02  0.1269449E+00
         -2   -1    0    0    0  501 -0.00000000000E+00  0.00000000000E+00  0.23621154502E+03  0.23621154502E+03  0.00000000000E+00 0.  1.
          2   -1    0    0  501    0  0.00000000000E+00 -0.00000000000E+00 -0.75622913927E+02  0.75622913927E+02  0.00000000000E+00 0. -1.
         25    2    1    2    0    0  0.41397176198E+02  0.18262487557E+02  0.13978711988E+02  0.13375966701E+03  0.12509596109E+03 0.  0.
         23    2    1    2    0    0 -0.41397176198E+02 -0.18262487557E+02  0.14660991911E+03  0.17807479194E+03  0.90382069549E+02 0.  0.
          5    1    3    3  502    0 -0.20177441490E+02 -0.26354942818E+02 -0.30750838934E+02  0.45440055581E+02  0.41800000000E+01 0. -1.
         -5    1    3    3    0  502  0.61574617688E+02  0.44617430374E+02  0.44729550922E+02  0.88319611425E+02  0.41800000000E+01 0. -1.
        -11    1    4    4    0    0 -0.69856338114E+02 -0.19689327807E+02  0.10578606020E+03  0.12828978188E+03  0.00000000000E+00 0.  1.
         11    1    4    4    0    0  0.28459161916E+02  0.14268402501E+01  0.40823858912E+02  0.49785010059E+02  0.00000000000E+00 0. -1.
</event>
<event>
 8    1  0.7168478E-009  0.1350356E+03  0.7561462E-02  0.1220169E+00
          1   -1    0    0  501    0  0.00000000000E+00  0.00000000000E+00  0.20789664669E+03  0.20789664669E+03  0.00000000000E+00 0. -1.
         -1   -1    0    0    0  501 -0.00000000000E+00 -0.00000000000E+00 -0.10931434688E+03  0.10931434688E+03  0.00000000000E+00 0.  1.
         25    2    1    2    0    0  0.28072230046E+02  0.82001749453E+02 -0.67776755630E+01  0.15233385988E+03  0.12508929198E+03 0.  0.
         23    2    1    2    0    0 -0.28072230046E+02 -0.82001749453E+02  0.10535997537E+03  0.16487713370E+03  0.92581897752E+02 0.  0.
          5    1    3    3  502    0  0.13288656265E+01  0.11128021450E+03 -0.12443597393E+02  0.11205966062E+03  0.41800000000E+01 0.  1.
         -5    1    3    3    0  502  0.26743364419E+02 -0.29278465045E+02  0.56659218295E+01  0.40274199260E+02  0.41800000000E+01 0.  1.
        -11    1    4    4    0    0  0.17496167873E+02  0.69979813664E+01 -0.10355559893E+01  0.18872202035E+02  0.00000000000E+00 0.  1.
         11    1    4    4    0    0 -0.45568397919E+02 -0.88999730820E+02  0.10639553136E+03  0.14600493166E+03  0.00000000000E+00 0. -1.
</event>
<event>
 8    1  0.7168478E-009  0.1507690E+03  0.7561462E-02  0.1199531E+00
         -2   -1    0    0    0  501 -0.00000000000E+00  0.00000000000E+00  0.19974000223E+03  0.19974000223E+03  0.00000000000E+00 0.  1.
          2   -1    0    0  501    0  0.00000000000E+00 -0.00000000000E+00 -0.15344875855E+03  0.15344875855E+03  0.00000000000E+00 0. -1.
         25    2    1    2    0    0  0.10743095219E+03  0.85711740425E+02  0.26141581093E+02  0.18766692249E+03  0.12509028579E+03 0.  0.
         23    2    1    2    0    0 -0.10743095219E+03 -0.85711740425E+02  0.20149662590E+02  0.16552183830E+03  0.90019765140E+02 0.  0.
          5    1    3    3  502    0  0.57925180961E+02  0.39250601062E+02 -0.49596282339E+02  0.85867338930E+02  0.41800000000E+01 0. -1.
         -5    1    3    3    0  502  0.49505771226E+02  0.46461139363E+02  0.75737863432E+02  0.10179958356E+03  0.41800000000E+01 0. -1.
        -11    1    4    4    0    0 -0.69707547489E+02 -0.10099773984E+03  0.77069883188E+01  0.12295968159E+03  0.00000000000E+00 0. -1.
         11    1    4    4    0    0 -0.37723404698E+02  0.15285999411E+02  0.12442674271E+02  0.42562156701E+02  0.00000000000E+00 0.  1.
</event>
<event>
 8    1  0.7168478E-009  0.1052872E+03  0.7561462E-02  0.1269555E+00
          2   -1    0    0  501    0  0.00000000000E+00  0.00000000000E+00  0.26713234335E+03  0.26713234335E+03  0.00000000000E+00 0. -1.
         -2   -1    0    0    0  501 -0.00000000000E+00 -0.00000000000E+00 -0.44955861716E+02  0.44955861716E+02  0.00000000000E+00 0.  1.
         25    2    1    2    0    0  0.38475370101E+00  0.15317527983E+01  0.97549894915E+02  0.15864881664E+03  0.12510383975E+03 0.  0.
         23    2    1    2    0    0 -0.38475370101E+00 -0.15317527983E+01  0.12462658672E+03  0.15343938843E+03  0.89495058539E+02 0.  0.
          5    1    3    3  502    0 -0.34518890215E+02 -0.48652287419E+02  0.68219211717E+02  0.90718973209E+02  0.41800000000E+01 0.  1.
         -5    1    3    3    0  502  0.34903643916E+02  0.50184040217E+02  0.29330683198E+02  0.67929843427E+02  0.41800000000E+01 0.  1.
        -11    1    4    4    0    0 -0.44228602311E+02  0.71639236767E+01  0.61491629556E+02  0.76083582791E+02  0.00000000000E+00 0. -1.
         11    1    4    4    0    0  0.43843848610E+02 -0.86956764750E+01  0.63134957164E+02  0.77355805642E+02  0.00000000000E+00 0.  1.
</event>
<event>
 8    1  0.7168478E-009  0.1100382E+03  0.7561462E-02  0.1260499E+00
          4   -1    0    0  501    0  0.00000000000E+00  0.00000000000E+00  0.15315707507E+03  0.15315707507E+03  0.00000000000E+00 0. -1.
         -4   -1    0    0    0  501 -0.00000000000E+00 -0.00000000000E+00 -0.13950409444E+03  0.13950409444E+03  0.00000000000E+00 0.  1.
         25    2    1    2    0    0  0.40788271842E+02  0.20015922542E+01 -0.80783378631E+02  0.15440448022E+03  0.12508836780E+03 0.  0.
         23    2    1    2    0    0 -0.40788271842E+02 -0.20015922542E+01  0.94436359254E+02  0.13825668928E+03  0.92352567323E+02 0.  0.
          5    1    3    3  502    0 -0.38503811809E+02 -0.75687151250E+01  0.17194626023E+01  0.39500100305E+02  0.41800000000E+01 0.  1.
         -5    1    3    3    0  502  0.79292083651E+02  0.95703073792E+01 -0.82502841234E+02  0.11490437992E+03  0.41800000000E+01 0.  1.
        -11    1    4    4    0    0 -0.66660407735E+02  0.16691436405E+02  0.69658946378E+02  0.97849797237E+02  0.00000000000E+00 0.  1.
         11    1    4    4    0    0  0.25872135893E+02 -0.18693028659E+02  0.24777412876E+02  0.40406892048E+02  0.00000000000E+00 0. -1.
</event>
<event>
 8    1  0.7168478E-009  0.1737424E+03  0.7561462E-02  0.1174000E+00
         -2   -1    0    0    0  501 -0.00000000000E+00  0.00000000000E+00  0.10190016976E+03  0.10190016976E+03  0.00000000000E+00 0.  1.
          2   -1    0    0  501    0  0.00000000000E+00 -0.00000000000E+00 -0.38274862093E+03  0.38274862093E+03  0.00000000000E+00 0. -1.
         25    2    1    2    0    0  0.12974017962E+03 -0.85174229556E+02 -0.20663082520E+03  0.28710683663E+03  0.12508746589E+03 0.  0.
         23    2    1    2    0    0 -0.12974017962E+03  0.85174229556E+02 -0.74217625967E+02  0.19754195406E+03  0.97094819734E+02 0.  0.
          5    1    3    3  502    0  0.10485426824E+02 -0.62171334190E+02 -0.12689982915E+03  0.14176127119E+03  0.41800000000E+01 0.  1.
         -5    1    3    3    0  502  0.11925475280E+03 -0.23002895366E+02 -0.79730996056E+02  0.14534556544E+03  0.41800000000E+01 0.  1.
        -11    1    4    4    0    0 -0.67660239131E+02  0.15422936383E+02 -0.77600997700E+02  0.10410422551E+03  0.00000000000E+00 0.  1.
         11    1    4    4    0    0 -0.62079940493E+02  0.69751293173E+02  0.33833717329E+01  0.93437728542E+02  0.00000000000E+00 0. -1.
</event>
<event>
 8    1  0.7168478E-009  0.2107084E+03  0.7561462E-02  0.1141006E+00
         -2   -1    0    0    0  501 -0.00000000000E+00  0.00000000000E+00  0.25710327285E+02  0.25710327285E+02  0.00000000000E+00 0.  1.
          2   -1    0    0  501    0  0.00000000000E+00 -0.00000000000E+00 -0.17586568017E+04  0.17586568017E+04  0.00000000000E+00 0. -1.
         25    2    1    2    0    0  0.23486259656E+02 -0.18387646781E+03 -0.91504344723E+03  0.94197364500E+03  0.12509067817E+03 0.  0.
         23    2    1    2    0    0 -0.23486259656E+02  0.18387646781E+03 -0.81790302719E+03  0.84239348398E+03  0.79367878663E+02 0.  0.
          5    1    3    3  502    0 -0.45128892380E+02 -0.31173388159E+02 -0.27002251605E+03  0.27556855523E+03  0.41800000000E+01 0. -1.
         -5    1    3    3    0  502  0.68615152035E+02 -0.15270307965E+03 -0.64502093118E+03  0.66640508977E+03  0.41800000000E+01 0. -1.
        -11    1    4    4    0    0  0.18386494624E+02  0.12697040410E+03 -0.59012537835E+03  0.60391018279E+03  0.00000000000E+00 0. -1.
         11    1    4    4    0    0 -0.41872754280E+02  0.56906063708E+02 -0.22777764884E+03  0.23848330119E+03  0.00000000000E+00 0.  1.
</event>
<event>
 8    1  0.7168478E-009  0.7981170E+02  0.7561462E-02  0.1329587E+00
          2   -1    0    0  501    0  0.00000000000E+00  0.00000000000E+00  0.11877945031E+03  0.11877945031E+03  0.00000000000E+00 0. -1.
         -2   -1    0    0    0  501 -0.00000000000E+00 -0.00000000000E+00 -0.15270350038E+03  0.15270350038E+03  0.00000000000E+00 0.  1.
         25    2    1    2    0    0  0.13298054630E+02 -0.76119799599E+02 -0.65033423107E+01  0.14717400866E+03  0.12508730237E+03 0.  0.
         23    2    1    2    0    0 -0.13298054630E+02  0.76119799599E+02 -0.27420707758E+02  0.12430894204E+03  0.93433161724E+02 0.  0.
          5    1    3    3  502    0  0.29213277387E+01 -0.66809688418E+02  0.53304500607E+02  0.85620738184E+02  0.41800000000E+01 0. -1.
         -5    1    3    3    0  502  0.10376726892E+02 -0.93101111816E+01 -0.59807842918E+02  0.61553270471E+02  0.41800000000E+01 0. -1.
        -11    1    4    4    0    0 -0.73326655753E+01  0.65294443122E+02 -0.60301425524E+02  0.89181804239E+02  0.00000000000E+00 0.  1.
         11    1    4    4    0    0 -0.59653890552E+01  0.10825356477E+02  0.32880717766E+02  0.35127137803E+02  0.00000000000E+00 0. -1.
</event>
<event>
 8    1  0.7168478E-009  0.7687943E+02  0.7561462E-02  0.1338148E+00
          2   -1    0    0  501    0  0.00000000000E+00  0.00000000000E+00  0.73595710687E+03  0.73595710687E+03  0.00000000000E+00 0. -1.
         -2   -1    0    0    0  501 -0.00000000000E+00 -0.00000000000E+00 -0.18157324020E+02  0.18157324020E+02  0.00000000000E+00 0.  1.
         25    2    1    2    0    0 -0.12465843236E+02 -0.37885101597E+02  0.42223379861E+03  0.44217577016E+03  0.12508937946E+03 0.  0.
         23    2    1    2    0    0  0.12465843236E+02  0.37885101597E+02  0.29556598424E+03  0.31193866073E+03  0.91410058798E+02 0.  0.
          5    1    3    3  502    0  0.12614313586E+02  0.42378006518E+01  0.37056748401E+03  0.37082989694E+03  0.41800000000E+01 0. -1.
         -5    1    3    3    0  502 -0.25080156823E+02 -0.42122902249E+02  0.51666314600E+02  0.71345873213E+02  0.41800000000E+01 0. -1.
        -11    1    4    4    0    0  0.47349410044E+02  0.23725208159E+02  0.10400113510E+03  0.11670941794E+03  0.00000000000E+00 0.  1.
         11    1    4    4    0    0 -0.34883566808E+02  0.14159893438E+02  0.19156484914E+03  0.19522924280E+03  0.00000000000E+00 0. -1.
</event>
<event>
 8    1  0.7168478E-009  0.1219633E+03  0.7561462E-02  0.1239893E+00
          2   -1    0    0  501    0  0.00000000000E+00  0.00000000000E+00  0.11880770354E+04  0.11880770354E+04  0.00000000000E+00 0. -1.
         -2   -1    0    0    0  501 -0.00000000000E+00 -0.00000000000E+00 -0.21217029936E+02  0.21217029936E+02  0.00000000000E+00 0.  1.
         25    2    1    2    0    0  0.58315992561E+02  0.89674654995E+02  0.79451330992E+03  0.81138161732E+03  0.12508569282E+03 0.  0.
         23    2    1    2    0    0 -0.58315992561E+02 -0.89674654995E+02  0.37234669558E+03  0.39791244806E+03  0.90829267688E+02 0.  0.
          5    1    3    3  502    0  0.48434004237E+02  0.31602955996E+02  0.11018781210E+03  0.12451275409E+03  0.41800000000E+01 0.  1.
         -5    1    3    3    0  502  0.98819883241E+01  0.58071698998E+02  0.68432549782E+03  0.68686886323E+03  0.41800000000E+01 0.  1.
        -11    1    4    4    0    0 -0.72513883535E+02 -0.60481327873E+02  0.33674081587E+03  0.34972936880E+03  0.00000000000E+00 0. -1.
         11    1    4    4    0    0  0.14197890974E+02 -0.29193327122E+02  0.35605879711E+02  0.48183079255E+02  0.00000000000E+00 0.  1.
</event>
<event>
 8    1  0.7168478E-009  0.9338123E+02  0.7561462E-02  0.1294864E+00
         -1   -1    0    0    0  501 -0.00000000000E+00  0.00000000000E+00  0.57467682450E+02  0.57467682450E+02  0.00000000000E+00 0.  1.
          1   -1    0    0  501    0  0.00000000000E+00 -0.00000000000E+00 -0.24679988050E+03  0.24679988050E+03  0.00000000000E+00 0. -1.
         25    2    1    2    0    0 -0.60432153593E+01  0.40718590156E+02 -0.73638763839E+02  0.15087784638E+03  0.12508770105E+03 0.  0.
         23    2    1    2    0    0  0.60432153593E+01 -0.40718590156E+02 -0.11569343421E+03  0.15338971656E+03  0.91917954682E+02 0.  0.
          5    1    3    3  502    0  0.43788159118E+02 -0.12028407638E+02  0.24300564988E+01  0.45666870309E+02  0.41800000000E+01 0. -1.
         -5    1    3    3    0  502 -0.49831374477E+02  0.52746997794E+02 -0.76068820337E+02  0.10521097607E+03  0.41800000000E+01 0. -1.
        -11    1    4    4    0    0  0.30541468702E+02 -0.21786953688E+02 -0.42858534569E+01  0.37760047687E+02  0.00000000000E+00 0.  1.
         11    1    4    4    0    0 -0.24498253342E+02 -0.18931636468E+02 -0.11140758075E+03  0.11562966888E+03  0.00000000000E+00 0. -1.
</event>
<event>
 8    1  0.7168478E-009  0.1573794E+03  0.7561462E-02  0.1191688E+00
          1   -1    0    0  501    0  0.00000000000E+00  0.00000000000E+00  0.52952964983E+03  0.52952964983E+03  0.00000000000E+00 0. -1.
         -1   -1    0    0    0  501 -0.00000000000E+00 -0.00000000000E+00 -0.61196115354E+02  0.61196115354E+02  0.00000000000E+00 0.  1.
         25    2    1    2    0    0 -0.35354281566E+02  0.12831609812E+03  0.33469819761E+03  0.38129598569E+03  0.12509515960E+03 0.  0.
         23    2    1    2    0    0  0.35354281566E+02 -0.12831609812E+03  0.13363533687E+03  0.20942977950E+03  0.91035614017E+02 0.  0.
          5    1    3    3  502    0  0.44699828424E+02  0.52205805880E+02  0.94910414155E+02  0.11725604438E+03  0.41800000000E+01 0.  1.
         -5    1    3    3    0  502 -0.80054109990E+02  0.76110292239E+02  0.23978778345E+03  0.26403994130E+03  0.41800000000E+01 0.  1.
        -11    1    4    4    0    0  0.17706054040E+02 -0.25496699726E+02 -0.93619237588E+01  0.32422702895E+02  0.00000000000E+00 0.  1.
         11    1    4    4    0    0  0.17648227526E+02 -0.10281939839E+03  0.14299726063E+03  0.17700707660E+03  0.00000000000E+00 0. -1.
</event>
<event>
 8    1  0.7168478E-009  0.1621986E+03  0.7561462E-02  0.1186237E+00
         -1   -1    0    0    0  501 -0.00000000000E+00  0.00000000000E+00  0.40083302754E+02  0.40083302754E+02  0.00000000000E+00 0.  1.
          1   -1    0    0  501    0  0.00000000000E+00 -0.00000000000E+00 -0.76779751802E+03  0.76779751802E+03  0.00000000000E+00 0. -1.
         25    2    1    2    0    0  0.46511751770E+02  0.11668224462E+03 -0.51128673805E+03  0.54114651387E+03  0.12508929491E+03 0.  0.
         23    2    1    2    0    0 -0.46511751770E+02 -0.11668224462E+03 -0.21642747721E+03  0.26673430690E+03  0.92348515560E+02 0.  0.
          5    1    3    3  502    0 -0.22379249873E+02 -0.10378769724E+02 -0.32583023708E+02  0.41081328117E+02  0.41800000000E+01 0.  1.
         -5    1    3    3    0  502  0.68891001643E+02  0.12706101434E+03 -0.47870371434E+03  0.50006518575E+03  0.41800000000E+01 0.  1.
        -11    1    4    4    0    0 -0.72988101698E+02 -0.98781292306E+02 -0.15783629901E+03  0.19999325985E+03  0.00000000000E+00 0. -1.
         11    1    4    4    0    0  0.26476349929E+02 -0.17900952310E+02 -0.58591178204E+02  0.66741047059E+02  0.00000000000E+00 0.  1.
</event>
<event>
 8    1  0.7168478E-009  0.1158091E+03  0.7561462E-02  0.1250175E+00
          2   -1    0    0  501    0  0.00000000000E+00  0.00000000000E+00  0.59850937717E+03  0.59850937717E+03  0.00000000000E+00 0. -1.
         -2   -1    0    0    0  501 -0.00000000000E+00 -0.00000000000E+00 -0.31890511504E+02  0.31890511504E+02  0.00000000000E+00 0.  1.
         25    2    1    2    0    0  0.39086447827E+02  0.67589051293E+02  0.39642301713E+03  0.42296029447E+03  0.12509265335E+03 0.  0.
         23    2    1    2    0    0 -0.39086447827E+02 -0.67589051293E+02  0.17019584853E+03  0.20743959421E+03  0.89266612624E+02 0.  0.
          5    1    3    3  502    0 -0.24519987037E+02  0.39582803436E+02  0.30225149111E+03  0.30584549100E+03  0.41800000000E+01 0.  1.
         -5    1    3    3    0  502  0.63606434864E+02  0.28006247857E+02  0.94171526029E+02  0.11711480346E+03  0.41800000000E+01 0.  1.
        -11    1    4    4    0    0 -0.42718878262E+02  0.45981816907E+01  0.88376644130E+02  0.98267375372E+02  0.00000000000E+00 0. -1.
         11    1    4    4    0    0  0.36324304349E+01 -0.72187232984E+02  0.81819204402E+02  0.10917221884E+03  0.00000000000E+00 0.  1.
</event>
<event>
 8    1  0.7168478E-009  0.7028374E+02  0.7561462E-02  0.1359131E+00
          3   -1    0    0  501    0  0.00000000000E+00  0.00000000000E+00  0.23245164572E+03  0.23245164572E+03  0.00000000000E+00 0. -1.
         -3   -1    0    0    0  501 -0.00000000000E+00 -0.00000000000E+00 -0.58300118955E+02  0.58300118955E+02  0.00000000000E+00 0.  1.
         25    2    1    2    0    0 -0.95093145555E+01 -0.40840595633E+02  0.10876315272E+03  0.17098242867E+03  0.12508871335E+03 0.  0.
         23    2    1    2    0    0  0.95093145555E+01  0.40840595633E+02  0.65388374040E+02  0.11976933601E+03  0.91162893069E+02 0.  0.
          5    1    3    3  502    0  0.43662470324E-01 -0.53466337005E+01  0.12875390827E+03  0.12893265565E+03  0.41800000000E+01 0.  1.
         -5    1    3    3    0  502 -0.95529770258E+01 -0.35493961933E+02 -0.19990755544E+02  0.42049773019E+02  0.41800000000E+01 0.  1.
        -11    1    4    4    0    0  0.11124830657E+02  0.68340160597E+02  0.60173163528E+02  0.91733031218E+02  0.00000000000E+00 0. -1.
         11    1    4    4    0    0 -0.16155161018E+01 -0.27499564963E+02  0.52152105119E+01  0.28036304788E+02  0.00000000000E+00 0.  1.
</event>
<event>
 8    1  0.7168478E-009  0.1159537E+03  0.7561462E-02  0.1249925E+00
         -1   -1    0    0    0  501 -0.00000000000E+00  0.00000000000E+00  0.91356056317E+02  0.91356056317E+02  0.00000000000E+00 0.  1.
          1   -1    0    0  501    0  0.00000000000E+00 -0.00000000000E+00 -0.32639078147E+03  0.32639078147E+03  0.00000000000E+00 0. -1.
         25    2    1    2    0    0 -0.26499992078E+02  0.98389104601E+02 -0.23016004998E+03  0.28107626617E+03  0.12509018071E+03 0.  0.
         23    2    1    2    0    0  0.26499992078E+02 -0.98389104601E+02 -0.48746751695E+01  0.13667057162E+03  0.90952829554E+02 0.  0.
          5    1    3    3  502    0  0.85362557854E+01  0.58210384011E+02 -0.17102289787E+02  0.61410725329E+02  0.41800000000E+01 0. -1.
         -5    1    3    3    0  502 -0.35036247864E+02  0.40178720591E+02 -0.21305776019E+03  0.21966554084E+03  0.41800000000E+01 0. -1.
        -11    1    4    4    0    0  0.46183695021E+02 -0.80742408560E+02 -0.32407236410E+02  0.98501264954E+02  0.00000000000E+00 0. -1.
         11    1    4    4    0    0 -0.19683702943E+02 -0.17646696042E+02  0.27532561241E+02  0.38169306664E+02  0.00000000000E+00 0.  1.
</event>
<event>
 8    1  0.7168478E-009  0.1710108E+03  0.7561462E-02  0.1176798E+00
         -2   -1    0    0    0  501 -0.00000000000E+00  0.00000000000E+00  0.49931736601E+02  0.49931736601E+02  0.00000000000E+00 0.  1.
          2   -1    0    0  501    0  0.00000000000E+00 -0.00000000000E+00 -0.78909715936E+03  0.78909715936E+03  0.00000000000E+00 0. -1.
         25    2    1    2    0    0  0.26480096360E+02  0.16447554639E+03 -0.36884769391E+03  0.42361419660E+03  0.12508783072E+03 0.  0.
         23    2    1    2    0    0 -0.26480096360E+02 -0.16447554639E+03 -0.37031772885E+03  0.41541469936E+03  0.87639895497E+02 0.  0.
          5    1    3    3  502    0  0.24375877263E+02  0.15009622404E+03 -0.18663969798E+03  0.24077979384E+03  0.41800000000E+01 0. -1.
         -5    1    3    3    0  502  0.21042190977E+01  0.14379322352E+02 -0.18220799594E+03  0.18283440276E+03  0.41800000000E+01 0. -1.
        -11    1    4    4    0    0  0.15263641412E+02 -0.67451459403E+02 -0.76185368938E+02  0.10289260695E+03  0.00000000000E+00 0.  1.
         11    1    4    4    0    0 -0.41743737772E+02 -0.97024086986E+02 -0.29413235991E+03  0.31252209241E+03  0.00000000000E+00 0. -1.
</event>
<event>
 8    1  0.7168478E-009  0.9906639E+02  0.7561462E-02  0.1282272E+00
         -1   -1    0    0    0  501 -0.00000000000E+00  0.00000000000E+00  0.13428653347E+03  0.13428653347E+03  0.00000000000E+00 0.  1.
          1   -1    0    0  501    0  0.00000000000E+00 -0.00000000000E+00 -0.10880708826E+03  0.10880708826E+03  0.00000000000E+00 0. -1.
         25    2    1    2    0    0 -0.40345616608E+02  0.34615466138E+02 -0.58718951550E+00  0.13591984058E+03  0.12509140257E+03 0.  0.
         23    2    1    2    0    0  0.40345616608E+02 -0.34615466138E+02  0.26066634728E+02  0.10717378115E+03  0.89335047125E+02 0.  0.
          5    1    3    3  502    0 -0.13544783591E+02  0.57488017924E+02  0.47675585684E+02  0.76018203331E+02  0.41800000000E+01 0. -1.
         -5    1    3    3    0  502 -0.26800833017E+02 -0.22872551786E+02 -0.48262775199E+02  0.59901637253E+02  0.41800000000E+01 0. -1.
        -11    1    4    4    0    0 -0.26610333319E+02 -0.23635814181E+02  0.14066976035E+02  0.38270633208E+02  0.00000000000E+00 0. -1.
         11    1    4    4    0    0  0.66955949927E+02 -0.10979651956E+02  0.11999658693E+02  0.68903147943E+02  0.00000000000E+00 0.  1.
</event>
<event>
 8    1  0.7168478E-009  0.1254104E+03  0.7561462E-02  0.1234429E+00
         -1   -1    0    0    0  501 -0.00000000000E+00  0.00000000000E+00  0.11133889168E+02  0.11133889168E+02  0.00000000000E+00 0.  1.
          1   -1    0    0  501    0  0.00000000000E+00 -0.00000000000E+00 -0.19215211541E+04  0.19215211541E+04  0.00000000000E+00 0. -1.
         25    2    1    2    0    0 -0.16115398334E+02 -0.74934187484E+02 -0.14180522365E+04  0.14256210136E+04  0.12509312799E+03 0.  0.
         23    2    1    2    0    0  0.16115398334E+02  0.74934187484E+02 -0.49233502842E+03  0.50703402958E+03  0.93887637241E+02 0.  0.
          5    1    3    3  502    0 -0.15895447536E+02 -0.10149349957E+03 -0.13184733720E+04  0.13224761248E+04  0.41800000000E+01 0.  1.
         -5    1    3    3    0  502 -0.21995079758E+00  0.26559312086E+02 -0.99578864488E+02  0.10314488882E+03  0.41800000000E+01 0.  1.
        -11    1    4    4    0    0  0.54554462297E+02  0.56316628493E+02 -0.30964479742E+03  0.31941767730E+03  0.00000000000E+00 0.  1.
         11    1    4    4    0    0 -0.38439063963E+02  0.18617558992E+02 -0.18269023100E+03  0.18761635228E+03  0.00000000000E+00 0. -1.
</event>
<event>
 8    1  0.7168478E-009  0.1623458E+03  0.7561462E-02  0.1186074E+00
          1   -1    0    0  501    0  0.00000000000E+00  0.00000000000E+00  0.37067197222E+03  0.37067197222E+03  0.00000000000E+00 0. -1.
         -1   -1    0    0    0  501 -0.00000000000E+00 -0.00000000000E+00 -0.87329061176E+02  0.87329061176E+02  0.00000000000E+00 0.  1.
         25    2    1    2    0    0  0.17097558793E+02  0.13560887456E+03  0.20259397662E+03  0.27454252046E+03  0.12508869973E+03 0.  0.
         23    2    1    2    0    0 -0.17097558793E+02 -0.13560887456E+03  0.80748934419E+02  0.18345851293E+03  0.91948584447E+02 0.  0.
          5    1    3    3  502    0  0.25453092759E+02  0.15846426057E+03  0.17360455950E+03  0.23646309921E+03  0.41800000000E+01 0. -1.
         -5    1    3    3    0  502 -0.83555339660E+01 -0.22855386011E+02  0.28989417124E+02  0.38079421250E+02  0.41800000000E+01 0. -1.
        -11    1    4    4    0    0  0.17718223094E+01 -0.90971431092E+02  0.96373840495E+02  0.13254002324E+03  0.00000000000E+00 0. -1.
         11    1    4    4    0    0 -0.18869381102E+02 -0.44637443469E+02 -0.15624906076E+02  0.50918489692E+02  0.00000000000E+00 0.  1.
</event>
<event>
 8    1  0.7168478E-009  0.1202882E+03  0.7561462E-02  0.1242622E+00
          2   -1    0    0  501    0  0.00000000000E+00  0.00000000000E+00  0.68863891050E+03  0.68863891050E+03  0.00000000000E+00 0. -1.
         -2   -1    0    0    0  501 -0.00000000000E+00 -0.00000000000E+00 -0.40976675500E+02  0.40976675500E+02  0.00000000000E+00 0.  1.
         25    2    1    2    0    0 -0.93845544665E+02  0.18205006109E+02  0.16032696340E+03  0.22469687003E+03  0.12508213185E+03 0.  0.
         23    2    1    2    0    0  0.93845544665E+02 -0.18205006109E+02  0.48733527160E+03  0.50491871597E+03  0.91152807364E+02 0.  0.
          5    1    3    3  502    0 -0.18617317498E+02  0.27176705224E+02  0.14308283987E+03  0.14688549719E+03  0.41800000000E+01 0.  1.
         -5    1    3    3    0  502 -0.75228227167E+02 -0.89716991149E+01  0.17244123529E+02  0.77811372845E+02  0.41800000000E+01 0.  1.
        -11    1    4    4    0    0  0.78754731242E+02 -0.52074488023E+02  0.32740720214E+03  0.34074849377E+03  0.00000000000E+00 0.  1.
         11    1    4    4    0    0  0.15090813424E+02  0.33869481913E+02  0.15992806946E+03  0.16417022219E+03  0.00000000000E+00 0. -1.
</event>
<event>
 8    1  0.7168478E-009  0.1185388E+03  0.7561462E-02  0.1245527E+00
         -2   -1    0    0    0  501 -0.00000000000E+00  0.00000000000E+00  0.20601904769E+02  0.20601904769E+02  0.00000000000E+00 0. -1.
          2   -1    0    0  501    0  0.00000000000E+00 -0.00000000000E+00 -0.76426314412E+03  0.76426314412E+03  0.00000000000E+00 0.  1.
         25    2    1    2    0    0 -0.39600016119E+00  0.62154334952E+02 -0.46681897907E+03  0.48726847680E+03  0.12508913257E+03 0.  0.
         23    2    1    2    0    0  0.39600016119E+00 -0.62154334952E+02 -0.27684226027E+03  0.29759657209E+03  0.89770621448E+02 0.  0.
          5    1    3    3  502    0 -0.56349555404E+02  0.33140186939E+02 -0.33179388953E+03  0.33819846527E+03  0.41800000000E+01 0.  1.
         -5    1    3    3    0  502  0.55953555243E+02  0.29014148014E+02 -0.13502508955E+03  0.14907001152E+03  0.41800000000E+01 0.  1.
        -11    1    4    4    0    0 -0.37240581004E+02 -0.60111704615E+02 -0.19694426013E+03  0.20925419830E+03  0.00000000000E+00 0.  1.
         11    1    4    4    0    0  0.37636581166E+02 -0.20426303376E+01 -0.79898000140E+02  0.88342373790E+02  0.00000000000E+00 0. -1.
</event>
<event>
 8    1  0.7168478E-009  0.1573440E+03  0.7561462E-02  0.1191728E+00
         -2   -1    0    0    0  501 -0.00000000000E+00  0.00000000000E+00  0.11066268095E+03  0.11066268095E+03  0.00000000000E+00 0. -1.
          2   -1    0    0  501    0  0.00000000000E+00 -0.00000000000E+00 -0.37374128884E+03  0.37374128884E+03  0.00000000000E+00 0.  1.
         25    2    1    2    0    0  0.59852331801E+02 -0.13811906616E+03 -0.23659427879E+03  0.30705601214E+03  0.12508942311E+03 0.  0.
         23    2    1    2    0    0 -0.59852331801E+02  0.13811906616E+03 -0.26484329096E+02  0.17734795766E+03  0.89953878955E+02 0.  0.
          5    1    3    3  502    0  0.33714824644E+02 -0.14370255258E+02  0.20400010053E+01  0.36943573745E+02  0.41800000000E+01 0. -1.
         -5    1    3    3    0  502  0.26137507156E+02 -0.12374881090E+03 -0.23863427979E+03  0.27011243839E+03  0.41800000000E+01 0. -1.
        -11    1    4    4    0    0 -0.29925957012E+02  0.50938811683E+02  0.32976660663E+02  0.67659334812E+02  0.00000000000E+00 0. -1.
         11    1    4    4    0    0 -0.29926374789E+02  0.87180254478E+02 -0.59460989759E+02  0.10968862285E+03  0.00000000000E+00 0.  1.
</event>
<event>
 8    1  0.7168478E-009  0.1914593E+03  0.7561462E-02  0.1157152E+00
         -1   -1    0    0    0  501 -0.00000000000E+00  0.00000000000E+00  0.77408772680E+02  0.77408772680E+02  0.00000000000E+00 0.  1.
          1   -1    0    0  501    0  0.00000000000E+00 -0.00000000000E+00 -0.65803871135E+03  0.65803871135E+03  0.00000000000E+00 0. -1.
         25    2    1    2    0    0  0.16444794180E+03  0.47292228711E+02 -0.13935912765E+03  0.25366832690E+03  0.12508786173E+03 0.  0.
         23    2    1    2    0    0 -0.16444794180E+03 -0.47292228711E+02 -0.44127081102E+03  0.48177915713E+03  0.90064127876E+02 0.  0.
          5    1    3    3  502    0  0.17386516334E+03  0.13511536363E+02 -0.10118045380E+03  0.20165964710E+03  0.41800000000E+01 0. -1.
         -5    1    3    3    0  502 -0.94172215367E+01  0.33780692347E+02 -0.38178673850E+02  0.52008679794E+02  0.41800000000E+01 0. -1.
        -11    1    4    4    0    0 -0.86664307660E+02 -0.38675509808E+02 -0.13083037914E+03  0.16162637590E+03  0.00000000000E+00 0.  1.
         11    1    4    4    0    0 -0.77783634145E+02 -0.86167189025E+01 -0.31044043188E+03  0.32015278123E+03  0.00000000000E+00 0. -1.
</event>
<event>
 8    1  0.7168478E-009  0.1163598E+03  0.7561462E-02  0.1249226E+00
         -2   -1    0    0    0  501 -0.00000000000E+00  0.00000000000E+00  0.30530792503E+02  0.30530792503E+02  0.00000000000E+00 0.  1.
          2   -1    0    0  501    0  0.00000000000E+00 -0.00000000000E+00 -0.58537743587E+03  0.58537743587E+03  0.00000000000E+00 0. -1.
         25    2    1    2    0    0 -0.11987364557E+02  0.71754250327E+02 -0.24735528073E+03  0.28657344276E+03  0.12508930346E+03 0.  0.
         23    2    1    2    0    0  0.11987364557E+02 -0.71754250327E+02 -0.30749136263E+03  0.32933478561E+03  0.92833687696E+02 0.  0.
          5    1    3    3  502    0 -0.27516717015E+02 -0.26808885335E+02 -0.36010373577E+02  0.52821448800E+02  0.41800000000E+01 0. -1.
         -5    1    3    3    0  502  0.15529352458E+02  0.98563135662E+02 -0.21134490715E+03  0.23375199396E+03  0.41800000000E+01 0. -1.
        -11    1    4    4    0    0 -0.99091896431E+01  0.72167226760E+01 -0.12548190375E+01  0.12322649731E+02  0.00000000000E+00 0.  1.
         11    1    4    4    0    0  0.21896554200E+02 -0.78970973003E+02 -0.30623654360E+03  0.31701213588E+03  0.00000000000E+00 0. -1.
</event>
<event>
 8    1  0.7168478E-009  0.9473839E+02  0.7561462E-02  0.1291766E+00
          2   -1    0    0  501    0  0.00000000000E+00  0.00000000000E+00  0.10578028766E+03  0.10578028766E+03  0.00000000000E+00 0. -1.
         -2   -1    0    0    0  501 -0.00000000000E+00 -0.00000000000E+00 -0.11736024912E+03  0.11736024912E+03  0.00000000000E+00 0.  1.
         25    2    1    2    0    0  0.17772719010E+02 -0.44323536669E+00 -0.25974140942E+02  0.12898965129E+03  0.12509039989E+03 0.  0.
         23    2    1    2    0    0 -0.17772719010E+02  0.44323536669E+00  0.14394179481E+02  0.94150885496E+02  0.91329791625E+02 0.  0.
          5    1    3    3  502    0 -0.41748689048E+02  0.34186910300E+02 -0.25901207853E+02  0.60000357009E+02  0.41800000000E+01 0. -1.
         -5    1    3    3    0  502  0.59521408057E+02 -0.34630145666E+02 -0.72933089683E-01  0.68989294280E+02  0.41800000000E+01 0. -1.
        -11    1    4    4    0    0  0.23908725079E+02  0.50317198037E+01 -0.26174159202E+02  0.35805473730E+02  0.00000000000E+00 0.  1.
         11    1    4    4    0    0 -0.41681444089E+02 -0.45884844370E+01  0.40568338683E+02  0.58345411767E+02  0.00000000000E+00 0. -1.
</event>
<event>
 8    1  0.7168478E-009  0.1833701E+03  0.7561462E-02  0.1164581E+00
         -2   -1    0    0    0  501 -0.00000000000E+00  0.00000000000E+00  0.39235304264E+03  0.39235304264E+03  0.00000000000E+00 0.  1.
          2   -1    0    0  501    0  0.00000000000E+00 -0.00000000000E+00 -0.12907611648E+03  0.12907611648E+03  0.00000000000E+00 0. -1.
         25    2    1    2    0    0 -0.99688661504E+02 -0.13480810404E+03  0.15194296783E+02  0.20973590440E+03  0.12508888357E+03 0.  0.
         23    2    1    2    0    0  0.99688661504E+02  0.13480810404E+03  0.24808262938E+03  0.31169325472E+03  0.86583138601E+02 0.  0.
          5    1    3    3  502    0 -0.52270641438E+02 -0.12789165512E+03 -0.32503787025E+02  0.14199459137E+03  0.41800000000E+01 0.  1.
         -5    1    3    3    0  502 -0.47418020066E+02 -0.69164489173E+01  0.47698083808E+02  0.67741313034E+02  0.41800000000E+01 0.  1.
        -11    1    4    4    0    0  0.95382839778E+02  0.77376009283E+02  0.20789501289E+03  0.24146484075E+03  0.00000000000E+00 0.  1.
         11    1    4    4    0    0  0.43058217259E+01  0.57432094757E+02  0.40187616496E+02  0.70228413968E+02  0.00000000000E+00 0. -1.
</event>
<event>
 8    1  0.7168478E-009  0.2558403E+03  0.7561462E-02  0.1109669E+00
          1   -1    0    0  501    0  0.00000000000E+00  0.00000000000E+00  0.11590695542E+04  0.11590695542E+04  0.00000000000E+00 0. -1.
         -1   -1    0    0    0  501 -0.00000000000E+00 -0.00000000000E+00 -0.60113857171E+02  0.60113857171E+02  0.00000000000E+00 0.  1.
         25    2    1    2    0    0 -0.10959055767E+03  0.20597672008E+03  0.42760623415E+03  0.50291823961E+03  0.12507263770E+03 0.  0.
         23    2    1    2    0    0  0.10959055767E+03 -0.20597672008E+03  0.67134946283E+03  0.71626517172E+03  0.88821142918E+02 0.  0.
          5    1    3    3  502    0 -0.92470178415E+02  0.46277085909E+02  0.15163829209E+03  0.18358634645E+03  0.41800000000E+01 0. -1.
         -5    1    3    3    0  502 -0.17120379252E+02  0.15969963417E+03  0.27596794207E+03  0.31933189316E+03  0.41800000000E+01 0. -1.
        -11    1    4    4    0    0  0.70917516349E+01 -0.99414131192E+02  0.22565180696E+03  0.24668238771E+03  0.00000000000E+00 0.  1.
         11    1    4    4    0    0  0.10249880603E+03 -0.10656258889E+03  0.44569765587E+03  0.46958278401E+03  0.00000000000E+00 0. -1.
</event>
<event>
 8    1  0.7168478E-009  0.1950121E+03  0.7561462E-02  0.1154017E+00
         -1   -1    0    0    0  501 -0.00000000000E+00  0.00000000000E+00  0.42662415155E+02  0.42662415155E+02  0.00000000000E+00 0.  1.
          1   -1    0    0  501    0  0.00000000000E+00 -0.00000000000E+00 -0.92334373218E+03  0.92334373218E+03  0.00000000000E+00 0. -1.
         25    2    1    2    0    0  0.11913299692E+03 -0.11452149299E+03 -0.52636235866E+03  0.56569622631E+03  0.12508814709E+03 0.  0.
         23    2    1    2    0    0 -0.11913299692E+03  0.11452149299E+03 -0.35431895837E+03  0.40030992103E+03  0.86013169347E+02 0.  0.
          5    1    3    3  502    0  0.29326209562E+02 -0.11200186173E+03 -0.26256663576E+03  0.28698981552E+03  0.41800000000E+01 0.  1.
         -5    1    3    3    0  502  0.89806787356E+02 -0.25196312543E+01 -0.26379572290E+03  0.27870641079E+03  0.41800000000E+01 0.  1.
        -11    1    4    4    0    0 -0.10658369318E+03  0.12749780505E+03 -0.29844406348E+03  0.34159132449E+03  0.00000000000E+00 0.  1.
         11    1    4    4    0    0 -0.12549303735E+02 -0.12976312069E+02 -0.55874894896E+02  0.58718596532E+02  0.00000000000E+00 0. -1.
</event>
<event>
 8    1  0.7168478E-009  0.8663164E+02  0.7561462E-02  0.1311220E+00
          2   -1    0    0  501    0  0.00000000000E+00  0.00000000000E+00  0.15759724486E+03  0.15759724486E+03  0.00000000000E+00 0. -1.
         -2   -1    0    0    0  501 -0.00000000000E+00 -0.00000000000E+00 -0.73549261823E+02  0.73549261823E+02  0.00000000000E+00 0.  1.
         25    2    1    2    0    0 -0.99165009849E+00 -0.12250073442E+02  0.39087941312E+02  0.13162951879E+03  0.12508962943E+03 0.  0.
         23    2    1    2    0    0  0.99165009849E+00  0.12250073442E+02  0.44960041725E+02  0.99516987891E+02  0.87927116738E+02 0.  0.
          5    1    3    3  502    0  0.15755016982E+02 -0.60218882622E+02  0.49450205309E+02  0.79607346329E+02  0.41800000000E+01 0. -1.
         -5    1    3    3    0  502 -0.16746667080E+02  0.47968809180E+02 -0.10362263998E+02  0.52022172462E+02  0.41800000000E+01 0. -1.
        -11    1    4    4    0    0 -0.19959562253E+02  0.27502960899E+02 -0.12718142537E+02  0.36284268398E+02  0.00000000000E+00 0.  1.
         11    1    4    4    0    0  0.20951212352E+02 -0.15252887457E+02  0.57678184262E+02  0.63232719494E+02  0.00000000000E+00 0. -1.
</event>
<event>
 8    1  0.7168478E-009  0.9202084E+02  0.7561462E-02  0.1298030E+00
         -2   -1    0    0    0  501 -0.00000000000E+00  0.00000000000E+00  0.25620917639E+02  0.25620917639E+02  0.00000000000E+00 0.  1.
          2   -1    0    0  501    0  0.00000000000E+00 -0.00000000000E+00 -0.58453258146E+03  0.58453258146E+03  0.00000000000E+00 0. -1.
         25    2    1    2    0    0  0.51915601452E+02 -0.60535229623E+01 -0.40548862466E+03  0.42755159098E+03  0.12508982137E+03 0.  0.
         23    2    1    2    0    0 -0.51915601452E+02  0.60535229623E+01 -0.15342303917E+03  0.18260190812E+03  0.84100850694E+02 0.  0.
          5    1    3    3  502    0  0.51599867230E+02  0.23183461234E+02 -0.67042273668E+02  0.87818893363E+02  0.41800000000E+01 0. -1.
         -5    1    3    3    0  502  0.31573422206E+00 -0.29236984197E+02 -0.33844635099E+03  0.33973269762E+03  0.41800000000E+01 0. -1.
        -11    1    4    4    0    0 -0.25582517317E+02 -0.38384490742E+02 -0.86845549250E+02  0.98336075508E+02  0.00000000000E+00 0. -1.
         11    1    4    4    0    0 -0.26333084135E+02  0.44438013705E+02 -0.66577489915E+02  0.84265832610E+02  0.00000000000E+00 0.  1.
</event>
<event>
 8    1  0.7168478E-009  0.1488811E+03  0.7561462E-02  0.1201855E+00
          1   -1    0    0  501    0  0.00000000000E+00  0.00000000000E+00  0.76647267219E+02  0.76647267219E+02  0.00000000000E+00 0. -1.
         -1   -1    0    0    0  501 -0.00000000000E+00 -0.00000000000E+00 -0.37107193037E+03  0.37107193037E+03  0.00000000000E+00 0.  1.
         25    2    1    2    0    0  0.49555708711E+02 -0.10455717421E+03 -0.22301310115E+03  0.28066035236E+03  0.12508964448E+03 0.  0.
         23    2    1    2    0    0 -0.49555708711E+02  0.10455717421E+03 -0.71411561999E+02  0.16705884523E+03  0.97062225598E+02 0.  0.
          5    1    3    3  502    0  0.49786655951E+02 -0.12046177879E+03 -0.12287285801E+03  0.17917857823E+03  0.41800000000E+01 0.  1.
         -5    1    3    3    0  502 -0.23094723996E+00  0.15904604586E+02 -0.10014024314E+03  0.10148177413E+03  0.41800000000E+01 0.  1.
        -11    1    4    4    0    0 -0.78371819878E+02  0.87291995057E+02 -0.58281781623E+02  0.13099160516E+03  0.00000000000E+00 0. -1.
         11    1    4    4    0    0  0.28816111166E+02  0.17265179151E+02 -0.13129780377E+02  0.36067240075E+02  0.00000000000E+00 0.  1.
</event>
<event>
 8    1  0.7168478E-009  0.1326741E+03  0.7561462E-02  0.1223541E+00
          2   -1    0    0  501    0  0.00000000000E+00  0.00000000000E+00  0.12231291705E+04  0.12231291705E+04  0.00000000000E+00 0. -1.
         -2   -1    0    0    0  501 -0.00000000000E+00 -0.00000000000E+00 -0.24052330898E+02  0.24052330898E+02  0.00000000000E+00 0.  1.
         25    2    1    2    0    0  0.57666285125E+02  0.52318987606E+02  0.10288772651E+04  0.10393740774E+04  0.12508944484E+03 0.  0.
         23    2    1    2    0    0 -0.57666285125E+02 -0.52318987606E+02  0.17019957455E+03  0.20780742406E+03  0.90295921340E+02 0.  0.
          5    1    3    3  502    0  0.73342396188E+02  0.83779802185E+02  0.81631916027E+03  0.82388870981E+03  0.41800000000E+01 0. -1.
         -5    1    3    3    0  502 -0.15676111063E+02 -0.31460814578E+02  0.21255810480E+03  0.21548536755E+03  0.41800000000E+01 0. -1.
        -11    1    4    4    0    0 -0.19701893626E+02  0.25331156682E+02  0.36493363185E+02  0.48596272160E+02  0.00000000000E+00 0.  1.
         11    1    4    4    0    0 -0.37964391499E+02 -0.77650144288E+02  0.13370621137E+03  0.15921115190E+03  0.00000000000E+00 0. -1.
</event>
<event>
 8    1  0.7168478E-009  0.1276535E+03  0.7561462E-02  0.1230980E+00
         -2   -1    0    0    0  501 -0.00000000000E+00  0.00000000000E+00  0.12368993277E+02  0.12368993277E+02  0.00000000000E+00 0.  1.
          2   -1    0    0  501    0  0.00000000000E+00 -0.00000000000E+00 -0.21358422843E+04  0.21358422843E+04  0.00000000000E+00 0. -1.
         25    2    1    2    0    0 -0.10850723208E+03  0.23459863625E+02 -0.14609375909E+04  0.14704795543E+04  0.12508912986E+03 0.  0.
         23    2    1    2    0    0  0.10850723208E+03 -0.23459863625E+02 -0.66253570014E+03  0.67773172332E+03  0.89680266638E+02 0.  0.
          5    1    3    3  502    0 -0.89348132523E+02  0.30327936841E+02 -0.47372646434E+03  0.48304979863E+03  0.41800000000E+01 0.  1.
         -5    1    3    3    0  502 -0.19159099556E+02 -0.68680732167E+01 -0.98721112658E+03  0.98742975566E+03  0.41800000000E+01 0.  1.
        -11    1    4    4    0    0  0.73159020940E+02 -0.55925724885E+02 -0.49332113345E+03  0.50184227577E+03  0.00000000000E+00 0.  1.
         11    1    4    4    0    0  0.35348211138E+02  0.32465861260E+02 -0.16921456669E+03  0.17588944755E+03  0.00000000000E+00 0. -1.
</event>
<event>
 8    1  0.7168478E-009  0.1179710E+03  0.7561462E-02  0.1246482E+00
          1   -1    0    0  501    0  0.00000000000E+00  0.00000000000E+00  0.47589829795E+03  0.47589829795E+03  0.00000000000E+00 0. -1.
         -1   -1    0    0    0  501 -0.00000000000E+00 -0.00000000000E+00 -0.38577891433E+02  0.38577891433E+02  0.00000000000E+00 0.  1.
         25    2    1    2    0    0 -0.39025796842E+02 -0.42849987637E+02  0.34709528586E+03  0.37347223619E+03  0.12508892630E+03 0.  0.
         23    2    1    2    0    0  0.39025796842E+02  0.42849987637E+02  0.90225120656E+02  0.14100395319E+03  0.91555492231E+02 0.  0.
          5    1    3    3  502    0 -0.48939999558E+02  0.29555986066E+02  0.94916951285E+02  0.11088453413E+03  0.41800000000E+01 0.  1.
         -5    1    3    3    0  502  0.99142027163E+01 -0.72405973704E+02  0.25217833458E+03  0.26258770206E+03  0.41800000000E+01 0.  1.
        -11    1    4    4    0    0 -0.19577723233E+02 -0.13764675310E+02  0.79766943887E+01  0.25226596813E+02  0.00000000000E+00 0. -1.
         11    1    4    4    0    0  0.58603520075E+02  0.56614662947E+02  0.82248426267E+02  0.11577735638E+03  0.00000000000E+00 0.  1.
</event>
<event>
 8    1  0.7168478E-009  0.1369811E+03  0.7561462E-02  0.1217450E+00
          3   -1    0    0  501    0  0.00000000000E+00  0.00000000000E+00  0.31274855894E+03  0.31274855894E+03  0.00000000000E+00 0. -1.
         -3   -1    0    0    0  501 -0.00000000000E+00 -0.00000000000E+00 -0.87731030817E+02  0.87731030817E+02  0.00000000000E+00 0.  1.
         25    2    1    2    0    0  0.21623037717E+02 -0.12170078062E+03  0.11284880838E+03  0.20895325646E+03  0.12509186252E+03 0.  0.
         23    2    1    2    0    0 -0.21623037717E+02  0.12170078062E+03  0.11216871974E+03  0.19152633330E+03  0.93924857712E+02 0.  0.
          5    1    3    3  502    0 -0.29877787128E+02 -0.50679222961E+02 -0.80433522346E+01  0.59525067986E+02  0.41800000000E+01 0.  1.
         -5    1    3    3    0  502  0.51500824845E+02 -0.71021557654E+02  0.12089216062E+03  0.14942818847E+03  0.41800000000E+01 0.  1.
        -11    1    4    4    0    0  0.73096423755E+01  0.16479291523E+02 -0.15357553614E+02  0.23682321967E+02  0.00000000000E+00 0.  1.
         11    1    4    4    0    0 -0.28932680092E+02  0.10522148909E+03  0.12752627336E+03  0.16784401133E+03  0.00000000000E+00 0. -1.
</event>
<event>
 8    1  0.7168478E-009  0.1073412E+03  0.7561462E-02  0.1265574E+00
         -2   -1    0    0    0  501 -0.00000000000E+00  0.00000000000E+00  0.34176426299E+02  0.34176426299E+02  0.00000000000E+00 0.  1.
          2   -1    0    0  501    0  0.00000000000E+00 -0.00000000000E+00 -0.43867296360E+03  0.43867296360E+03  0.00000000000E+00 0. -1.
         25    2    1    2    0    0  0.48439405676E+02  0.25414140617E+02 -0.20384369400E+03  0.24533899011E+03  0.12508682551E+03 0.  0.
         23    2    1    2    0    0 -0.48439405676E+02 -0.25414140617E+02 -0.20065284330E+03  0.22751039979E+03  0.92234288224E+02 0.  0.
          5    1    3    3  502    0  0.79635836200E+02  0.23959623178E+02 -0.19587379963E+03  0.21283784375E+03  0.41800000000E+01 0. -1.
         -5    1    3    3    0  502 -0.31196430523E+02  0.14545174394E+01 -0.79698943742E+01  0.32501146360E+02  0.41800000000E+01 0. -1.
        -11    1    4    4    0    0 -0.23266864175E+02 -0.55795069636E+02 -0.15916038254E+03  0.17025411635E+03  0.00000000000E+00 0. -1.
         11    1    4    4    0    0 -0.25172541501E+02  0.30380929018E+02 -0.41492460758E+02  0.57256283440E+02  0.00000000000E+00 0.  1.
</event>
<event>
 8    1  0.7168478E-009  0.1108445E+03  0.7561462E-02  0.1259014E+00
         -1   -1    0    0    0  501 -0.00000000000E+00  0.00000000000E+00  0.70324069922E+02  0.70324069922E+02  0.00000000000E+00 0.  1.
          1   -1    0    0  501    0  0.00000000000E+00 -0.00000000000E+00 -0.25378766245E+03  0.25378766245E+03  0.00000000000E+00 0. -1.
         25    2    1    2    0    0  0.28369579608E+02  0.34604340170E+02 -0.17659922283E+03  0.22099309995E+03  0.12509345033E+03 0.  0.
         23    2    1    2    0    0 -0.28369579608E+02 -0.34604340170E+02 -0.68643696962E+01  0.10311863242E+03  0.92650091071E+02 0.  0.
          5    1    3    3  502    0 -0.43880694071E+02  0.20602977233E+02 -0.11521534344E+03  0.12506816441E+03  0.41800000000E+01 0.  1.
         -5    1    3    3    0  502  0.72250273679E+02  0.14001362937E+02 -0.61383879391E+02  0.95924935548E+02  0.41800000000E+01 0.  1.
        -11    1    4    4    0    0 -0.60608636400E+02 -0.19108135314E+02  0.86381331826E+01  0.64133805331E+02  0.00000000000E+00 0.  1.
         11    1    4    4    0    0  0.32239056792E+02 -0.15496204856E+02 -0.15502502879E+02  0.38984827090E+02  0.00000000000E+00 0. -1.
</event>
<event>
 8    1  0.7168478E-009  0.1117572E+03  0.7561462E-02  0.1257350E+00
          1   -1    0    0  501    0  0.00000000000E+00  0.00000000000E+00  0.11271315968E+03  0.11271315968E+03  0.00000000000E+00 0. -1.
         -1   -1    0    0    0  501 -0.00000000000E+00 -0.00000000000E+00 -0.12189200022E+03  0.12189200022E+03  0.00000000000E+00 0.  1.
         25    2    1    2    0    0  0.15911951280E+02 -0.38969470714E+02 -0.28543711537E+02  0.13504575197E+03  0.12510316469E+03 0.  0.
         23    2    1    2    0    0 -0.15911951280E+02  0.38969470714E+02  0.19364870997E+02  0.99559407926E+02  0.88120755992E+02 0.  0.
          5    1    3    3  502    0  0.50329831251E+02 -0.66625967943E+02 -0.25568560824E+01  0.83642820560E+02  0.41800000000E+01 0. -1.
         -5    1    3    3    0  502 -0.34417879972E+02  0.27656497229E+02 -0.25986855455E+02  0.51402931406E+02  0.41800000000E+01 0. -1.
        -11    1    4    4    0    0  0.31370826390E+02 -0.40560991552E+01 -0.31350660173E+01  0.31786936432E+02  0.00000000000E+00 0.  1.
         11    1    4    4    0    0 -0.47282777670E+02  0.43025569869E+02  0.22499937014E+02  0.67772471494E+02  0.00000000000E+00 0. -1.
</event>
<event>
 8    1  0.7168478E-009  0.2872578E+03  0.7561462E-02  0.1091790E+00
         -1   -1    0    0    0  501 -0.00000000000E+00  0.00000000000E+00  0.34095077790E+03  0.34095077790E+03  0.00000000000E+00 0.  1.
          1   -1    0    0  501    0  0.00000000000E+00 -0.00000000000E+00 -0.29177797653E+03  0.29177797653E+03  0.00000000000E+00 0. -1.
         25    2    1    2    0    0  0.12600670197E+03  0.24251754535E+03 -0.88615891851E+02  0.31335550039E+03  0.12508574896E+03 0.  0.
         23    2    1    2    0    0 -0.12600670197E+03 -0.24251754535E+03  0.13778869322E+03  0.31937325404E+03  0.91220078229E+02 0.  0.
          5    1    3    3  502    0 -0.14355283061E+02  0.68283107512E+02  0.64991099479E+01  0.70202334387E+02  0.41800000000E+01 0. -1.
         -5    1    3    3    0  502  0.14036198503E+03  0.17423443784E+03 -0.95115001799E+02  0.24315316601E+03  0.41800000000E+01 0. -1.
        -11    1    4    4    0    0  0.77590672906E+01 -0.15702660850E+02 -0.70096518482E+01  0.18865627528E+02  0.00000000000E+00 0.  1.
         11    1    4    4    0    0 -0.13376576926E+03 -0.22681488450E+03  0.14479834507E+03  0.30050762651E+03  0.00000000000E+00 0. -1.
</event>
<event>
 8    1  0.7168478E-009  0.7692530E+02  0.7561462E-02  0.1338011E+00
         -2   -1    0    0    0  501 -0.00000000000E+00  0.00000000000E+00  0.45075727536E+02  0.45075727536E+02  0.00000000000E+00 0.  1.
          2   -1    0    0  501    0  0.00000000000E+00 -0.00000000000E+00 -0.43709974952E+03  0.43709974952E+03  0.00000000000E+00 0. -1.
         25    2    1    2    0    0 -0.52348368966E+02 -0.51877936116E+02 -0.12911066816E+03  0.19430276711E+03  0.12510926698E+03 0.  0.
         23    2    1    2    0    0  0.52348368966E+02  0.51877936116E+02 -0.26291335382E+03  0.28787270994E+03  0.91189876218E+02 0.  0.
          5    1    3    3  502    0 -0.38504508917E+02 -0.42915363403E+02 -0.15380787563E+03  0.16431269163E+03  0.41800000000E+01 0.  1.
         -5    1    3    3    0  502 -0.13843860049E+02 -0.89625727129E+01  0.24697207470E+02  0.29990075483E+02  0.41800000000E+01 0.  1.
        -11    1    4    4    0    0  0.59127115605E+01  0.24327077678E+02 -0.65401259265E+01  0.25875473203E+02  0.00000000000E+00 0.  1.
         11    1    4    4    0    0  0.46435657406E+02  0.27550858438E+02 -0.25637322789E+03  0.26199723674E+03  0.00000000000E+00 0. -1.
</event>
<event>
 8    1  0.7168478E-009  0.1036662E+03  0.7561462E-02  0.1272770E+00
         -2   -1    0    0    0  501 -0.00000000000E+00  0.00000000000E+00  0.22135509024E+02  0.22135509024E+02  0.00000000000E+00 0.  1.
          2   -1    0    0  501    0  0.00000000000E+00 -0.00000000000E+00 -0.62594243724E+03  0.62594243724E+03  0.00000000000E+00 0. -1.
         25    2    1    2    0    0  0.32358744902E+02 -0.16451318254E+02 -0.26706596061E+03  0.29712914075E+03  0.12507503637E+03 0.  0.
         23    2    1    2    0    0 -0.32358744902E+02  0.16451318254E+02 -0.33674096761E+03  0.35094880552E+03  0.91939385384E+02 0.  0.
          5    1    3    3  502    0  0.62803632857E+02 -0.52827672621E+02 -0.15703472617E+03  0.17723554078E+03  0.41800000000E+01 0. -1.
         -5    1    3    3    0  502 -0.30444887954E+02  0.36376354367E+02 -0.11003123445E+03  0.11989359997E+03  0.41800000000E+01 0. -1.
        -11    1    4    4    0    0  0.17169082209E+02 -0.11503629531E+02 -0.18726530850E+02  0.27888955412E+02  0.00000000000E+00 0.  1.
         11    1    4    4    0    0 -0.49527827111E+02  0.27954947784E+02 -0.31801443676E+03  0.32305985010E+03  0.00000000000E+00 0. -1.
</event>
<event>
 8    1  0.7168478E-009  0.9957312E+02  0.7561462E-02  0.1281196E+00
          2   -1    0    0  501    0  0.00000000000E+00  0.00000000000E+00  0.62616062266E+03  0.62616062266E+03  0.00000000000E+00 0. -1.
         -2   -1    0    0    0  501 -0.00000000000E+00 -0.00000000000E+00 -0.27319908112E+02  0.27319908112E+02  0.00000000000E+00 0.  1.
         25    2    1    2    0    0  0.58611756936E+02  0.16955975268E+02  0.42806633153E+03  0.45011942838E+03  0.12507546710E+03 0.  0.
         23    2    1    2    0    0 -0.58611756936E+02 -0.16955975268E+02  0.17077438302E+03  0.20336110239E+03  0.92027196637E+02 0.  0.
          5    1    3    3  502    0 -0.33592077105E+02  0.39884955537E+01  0.21321561587E+03  0.21592291910E+03  0.41800000000E+01 0.  1.
         -5    1    3    3    0  502  0.92203834041E+02  0.12967479715E+02  0.21485071566E+03  0.23419650928E+03  0.41800000000E+01 0.  1.
        -11    1    4    4    0    0 -0.14607460691E+02 -0.23195103387E+02  0.53598718410E+00  0.27416746912E+02  0.00000000000E+00 0.  1.
         11    1    4    4    0    0 -0.44004296245E+02  0.62391281182E+01  0.17023839584E+03  0.17594435548E+03  0.00000000000E+00 0. -1.
</event>
<event>
 8    1  0.7168478E-009  0.7592261E+02  0.7561462E-02  0.1341038E+00
         -2   -1    0    0    0  501 -0.00000000000E+00  0.00000000000E+00  0.22695123695E+02  0.22695123695E+02  0.00000000000E+00 0.  1.
          2   -1    0    0  501    0  0.00000000000E+00 -0.00000000000E+00 -0.56194998895E+03  0.56194998895E+03  0.00000000000E+00 0. -1.
         25    2    1    2    0    0  0.16970949923E+01  0.24262852777E+02 -0.36561686039E+03  0.38718788661E+03  0.12508878760E+03 0.  0.
         23    2    1    2    0    0 -0.16970949923E+01 -0.24262852777E+02 -0.17363800486E+03  0.19745722603E+03  0.90816481000E+02 0.  0.
          5    1    3    3  502    0 -0.32317900956E+02  0.58065210719E+00 -0.18293405095E+02  0.37375191625E+02  0.41800000000E+01 0.  1.
         -5    1    3    3    0  502  0.34014995948E+02  0.23682200670E+02 -0.34732345530E+03  0.34981269499E+03  0.41800000000E+01 0.  1.
        -11    1    4    4    0    0 -0.37105244445E+02 -0.54606603589E+01 -0.14057364281E+03  0.14549077988E+03  0.00000000000E+00 0. -1.
         11    1    4    4    0    0  0.35408149453E+02 -0.18802192418E+02 -0.33064362057E+02  0.51966446152E+02  0.00000000000E+00 0.  1.
</event>
<event>
 8    1  0.7168478E-009  0.1026287E+03  0.7561462E-02  0.1274863E+00
         -2   -1    0    0    0  501 -0.00000000000E+00  0.00000000000E+00  0.18292437986E+03  0.18292437986E+03  0.00000000000E+00 0.  1.
          2   -1    0    0  501    0  0.00000000000E+00 -0.00000000000E+00 -0.69807194137E+02  0.69807194137E+02  0.00000000000E+00 0. -1.
         25    2    1    2    0    0  0.88137420873E+01  0.25580655996E+02  0.87985427542E+02  0.15531552905E+03  0.12509766622E+03 0.  0.
         23    2    1    2    0    0 -0.88137420873E+01 -0.25580655996E+02  0.25131758183E+02  0.97416044950E+02  0.90145596307E+02 0.  0.
          5    1    3    3  502    0 -0.20818595650E+02 -0.43110671247E+02  0.56146906610E+02  0.73904610290E+02  0.41800000000E+01 0.  1.
         -5    1    3    3    0  502  0.29632337737E+02  0.68691327243E+02  0.31838520932E+02  0.81410918760E+02  0.41800000000E+01 0.  1.
        -11    1    4    4    0    0  0.28943207922E+02  0.97734888478E+01  0.33142782105E+02  0.45074098712E+02  0.00000000000E+00 0. -1.
         11    1    4    4    0    0 -0.37756950009E+02 -0.35354144844E+02 -0.80110239219E+01  0.52341946237E+02  0.00000000000E+00 0.  1.
</event>
<event>
 8    1  0.7168478E-009  0.1053694E+03  0.7561462E-02  0.1269393E+00
         -1   -1    0    0    0  501 -0.00000000000E+00  0.00000000000E+00  0.81499077948E+02  0.81499077948E+02  0.00000000000E+00 0.  1.
          1   -1    0    0  501    0  0.00000000000E+00 -0.00000000000E+00 -0.27197734882E+03  0.27197734882E+03  0.00000000000E+00 0. -1.
         25    2    1    2    0    0  0.10030002559E+02  0.46940895255E+02  0.28112800435E+01  0.13401340199E+03  0.12509052730E+03 0.  0.
         23    2    1    2    0    0 -0.10030002559E+02 -0.46940895255E+02 -0.19328955091E+03  0.21946302477E+03  0.92190672804E+02 0.  0.
          5    1    3    3  502    0  0.34830345569E+02  0.82014714388E+02 -0.78807833338E+01  0.89549681711E+02  0.41800000000E+01 0. -1.
         -5    1    3    3    0  502 -0.24800343010E+02 -0.35073819132E+02  0.10692063377E+02  0.44463720280E+02  0.41800000000E+01 0. -1.
        -11    1    4    4    0    0  0.26056138435E+02 -0.25198361222E+02 -0.16447452725E+03  0.16842134624E+03  0.00000000000E+00 0. -1.
         11    1    4    4    0    0 -0.36086140995E+02 -0.21742534034E+02 -0.28815023667E+02  0.51041678529E+02  0.00000000000E+00 0.  1.
</event>
<event>
 8    1  0.7168478E-009  0.1418917E+03  0.7561462E-02  0.1210806E+00
         -2   -1    0    0    0  501 -0.00000000000E+00  0.00000000000E+00  0.37378544613E+02  0.37378544613E+02  0.00000000000E+00 0.  1.
          2   -1    0    0  501    0  0.00000000000E+00 -0.00000000000E+00 -0.67410392498E+03  0.67410392498E+03  0.00000000000E+00 0. -1.
         25    2    1    2    0    0 -0.94181991017E+02 -0.64993831853E+02 -0.31123899245E+03  0.35441742948E+03  0.12509020063E+03 0.  0.
         23    2    1    2    0    0  0.94181991017E+02  0.64993831853E+02 -0.32548638792E+03  0.35706504011E+03  0.91976130249E+02 0.  0.
          5    1    3    3  502    0 -0.53382913655E+02 -0.98600202123E+02 -0.24576688567E+03  0.27016766983E+03  0.41800000000E+01 0. -1.
         -5    1    3    3    0  502 -0.40799077362E+02  0.33606370269E+02 -0.65472106776E+02  0.84249759655E+02  0.41800000000E+01 0. -1.
        -11    1    4    4    0    0  0.55082555621E+02  0.19174308944E+02 -0.55744162286E+02  0.80679326263E+02  0.00000000000E+00 0.  1.
         11    1    4    4    0    0  0.39099435395E+02  0.45819522910E+02 -0.26974222564E+03  0.27638571385E+03  0.00000000000E+00 0. -1.
</event>
<event>
 8    1  0.7168478E-009  0.3251975E+03  0.7561462E-02  0.1073282E+00
          2   -1    0    0  501    0  0.00000000000E+00  0.00000000000E+00  0.46838248450E+03  0.46838248450E+03  0.00000000000E+00 0. -1.
         -2   -1    0    0    0  501 -0.00000000000E+00 -0.00000000000E+00 -0.23248003617E+03  0.23248003617E+03  0.00000000000E+00 0.  1.
         25    2    1    2    0    0  0.28688542928E+03  0.11376499492E+03  0.76968304527E+02  0.34178829530E+03  0.12509754314E+03 0.  0.
         23    2    1    2    0    0 -0.28688542928E+03 -0.11376499492E+03  0.15893414380E+03  0.35907422536E+03  0.91806936834E+02 0.  0.
          5    1    3    3  502    0  0.10924781692E+01  0.31169735413E+02 -0.78188275907E+01  0.32424564441E+02  0.41800000000E+01 0.  1.
         -5    1    3    3    0  502  0.28579295111E+03  0.82595259509E+02  0.84787132117E+02  0.30936373086E+03  0.41800000000E+01 0.  1.
        -11    1    4    4    0    0 -0.87081487910E+02  0.79629070211E+01  0.33813991952E+02  0.93754890414E+02  0.00000000000E+00 0.  1.
         11    1    4    4    0    0 -0.19980394137E+03 -0.12172790194E+03  0.12512015185E+03  0.26531933495E+03  0.00000000000E+00 0. -1.
</event>
<event>
 8    1  0.7168478E-009  0.1319782E+03  0.7561462E-02  0.1224550E+00
         -1   -1    0    0    0  501 -0.00000000000E+00  0.00000000000E+00  0.35362047077E+03  0.35362047077E+03  0.00000000000E+00 0.  1.
          1   -1    0    0  501    0  0.00000000000E+00 -0.00000000000E+00 -0.11382674775E+03  0.11382674775E+03  0.00000000000E+00 0. -1.
         25    2    1    2    0    0  0.77395765024E+02  0.45040823242E+02  0.29186671727E+03  0.32992480770E+03  0.12508164487E+03 0.  0.
         23    2    1    2    0    0 -0.77395765024E+02 -0.45040823242E+02 -0.52072994253E+02  0.13752241083E+03  0.90454610422E+02 0.  0.
          5    1    3    3  502    0  0.20983535656E+02  0.82973652472E+02  0.16614102112E+03  0.18693647871E+03  0.41800000000E+01 0. -1.
         -5    1    3    3    0  502  0.56412229368E+02 -0.37932829230E+02  0.12572569616E+03  0.14298832900E+03  0.41800000000E+01 0. -1.
        -11    1    4    4    0    0 -0.21931828941E+02 -0.49877132614E+02 -0.60270018769E+02  0.81247822377E+02  0.00000000000E+00 0. -1.
         11    1    4    4    0    0 -0.55463936083E+02  0.48363093715E+01  0.81970245160E+01  0.56274588448E+02  0.00000000000E+00 0.  1.
</event>
<event>
 8    1  0.7168478E-009  0.1625039E+03  0.7561462E-02  0.1185899E+00
          1   -1    0    0  501    0  0.00000000000E+00  0.00000000000E+00  0.73611111558E+02  0.73611111558E+02  0.00000000000E+00 0. -1.
         -1   -1    0    0    0  501 -0.00000000000E+00 -0.00000000000E+00 -0.41977909143E+03  0.41977909143E+03  0.00000000000E+00 0.  1.
         25    2    1    2    0    0  0.12787356515E+03 -0.48663672739E+02 -0.15544911838E+03  0.24192860412E+03  0.12508085137E+03 0.  0.
         23    2    1    2    0    0 -0.12787356515E+03  0.48663672739E+02 -0.19071886149E+03  0.25146159886E+03  0.90218899725E+02 0.  0.
          5    1    3    3  502    0  0.10852211880E+03 -0.86772634311E+02 -0.13704692220E+03  0.19520725298E+03  0.41800000000E+01 0.  1.
         -5    1    3    3    0  502  0.19351446347E+02  0.38108961571E+02 -0.18402196184E+02  0.46721351138E+02  0.41800000000E+01 0.  1.
        -11    1    4    4    0    0 -0.47937176971E+02 -0.27386658499E+01 -0.12705885182E+02  0.49668025377E+02  0.00000000000E+00 0. -1.
         11    1    4    4    0    0 -0.79936388175E+02  0.51402338589E+02 -0.17801297630E+03  0.20179357348E+03  0.00000000000E+00 0.  1.
</event>
<event>
 8    1  0.7168478E-009  0.1171412E+03  0.7561462E-02  0.1247889E+00
         -1   -1    0    0    0  501 -0.00000000000E+00  0.00000000000E+00  0.35736622534E+02  0.35736622534E+02  0.00000000000E+00 0.  1.
          1   -1    0    0  501    0  0.00000000000E+00 -0.00000000000E+00 -0.44278479686E+03  0.44278479686E+03  0.00000000000E+00 0. -1.
         25    2    1    2    0    0 -0.11385765290E+02 -0.62513837036E+02 -0.22746918956E+03  0.26725775541E+03  0.12508741006E+03 0.  0.
         23    2    1    2    0    0  0.11385765290E+02  0.62513837036E+02 -0.17957898476E+03  0.21126366398E+03  0.91357038474E+02 0.  0.
          5    1    3    3  502    0 -0.17680137208E+02 -0.95153201919E+02 -0.20551788874E+03  0.22720430031E+03  0.41800000000E+01 0. -1.
         -5    1    3    3    0  502  0.62943719180E+01  0.32639364883E+02 -0.21951300824E+02  0.40053455103E+02  0.41800000000E+01 0. -1.
        -11    1    4    4    0    0  0.47019546272E+02  0.40219237304E+02 -0.67530031469E+02  0.91590009997E+02  0.00000000000E+00 0.  1.
         11    1    4    4    0    0 -0.35633780981E+02  0.22294599732E+02 -0.11204895329E+03  0.11967365399E+03  0.00000000000E+00 0. -1.
</event>
<event>
 8    1  0.7168478E-009  0.9225780E+02  0.7561462E-02  0.1297474E+00
          1   -1    0    0  501    0  0.00000000000E+00  0.00000000000E+00  0.34663685992E+02  0.34663685992E+02  0.00000000000E+00 0. -1.
         -1   -1    0    0    0  501 -0.00000000000E+00 -0.00000000000E+00 -0.65673573958E+03  0.65673573958E+03  0.00000000000E+00 0.  1.
         25    2    1    2    0    0 -0.77305576758E+02 -0.64575708284E+00 -0.49641106583E+03  0.51773485513E+03  0.12509542253E+03 0.  0.
         23    2    1    2    0    0  0.77305576758E+02  0.64575708284E+00 -0.12566098776E+03  0.17366457044E+03  0.91608569370E+02 0.  0.
          5    1    3    3  502    0 -0.15971005333E+02 -0.62632777343E+01 -0.15905198755E+00  0.17657841228E+02  0.41800000000E+01 0.  1.
         -5    1    3    3    0  502 -0.61334571425E+02  0.56175206515E+01 -0.49625201384E+03  0.50007701390E+03  0.41800000000E+01 0.  1.
        -11    1    4    4    0    0 -0.11363072773E+02 -0.10854352267E+02 -0.61858158391E+02  0.63822943723E+02  0.00000000000E+00 0.  1.
         11    1    4    4    0    0  0.88668649531E+02  0.11500109349E+02 -0.63802829366E+02  0.10984162672E+03  0.00000000000E+00 0. -1.
</event>
<event>
 8    1  0.7168478E-009  0.1048061E+03  0.7561462E-02  0.1270502E+00
         -2   -1    0    0    0  501 -0.00000000000E+00  0.00000000000E+00  0.32601933993E+02  0.32601933993E+02  0.00000000000E+00 0.  1.
          2   -1    0    0  501    0  0.00000000000E+00 -0.00000000000E+00 -0.47453401383E+03  0.47453401383E+03  0.00000000000E+00 0. -1.
         25    2    1    2    0    0  0.41242088325E+02  0.41056439890E+02 -0.27600823621E+03  0.30857242157E+03  0.12509936767E+03 0.  0.
         23    2    1    2    0    0 -0.41242088325E+02 -0.41056439890E+02 -0.16592384363E+03  0.19856352626E+03  0.92250804704E+02 0.  0.
          5    1    3    3  502    0  0.49394310863E+02 -0.34426153886E+02 -0.14565248421E+03  0.15766127163E+03  0.41800000000E+01 0.  1.
         -5    1    3    3    0  502 -0.81522225387E+01  0.75482593776E+02 -0.13035575200E+03  0.15091114993E+03  0.41800000000E+01 0.  1.
        -11    1    4    4    0    0  0.79880796160E+01 -0.16225596557E+02  0.51657392899E+01  0.18808622012E+02  0.00000000000E+00 0.  1.
         11    1    4    4    0    0 -0.49230167941E+02 -0.24830843333E+02 -0.17108958292E+03  0.17975490425E+03  0.00000000000E+00 0. -1.
</event>
<event>
 8    1  0.7168478E-009  0.9959303E+02  0.7561462E-02  0.1281154E+00
          2   -1    0    0  501    0  0.00000000000E+00  0.00000000000E+00  0.21386589919E+03  0.21386589919E+03  0.00000000000E+00 0. -1.
         -2   -1    0    0    0  501 -0.00000000000E+00 -0.00000000000E+00 -0.60575181115E+02  0.60575181115E+02  0.00000000000E+00 0.  1.
         25    2    1    2    0    0 -0.32628153362E+02  0.95808308058E+01  0.74701846599E+02  0.14961340716E+03  0.12508963589E+03 0.  0.
         23    2    1    2    0    0  0.32628153362E+02 -0.95808308058E+01  0.78588871475E+02  0.12482767314E+03  0.90825924448E+02 0.  0.
          5    1    3    3  502    0  0.16081743814E+02  0.49279187920E+02  0.12799363978E+00  0.52005284621E+02  0.41800000000E+01 0. -1.
         -5    1    3    3    0  502 -0.48709897176E+02 -0.39698357114E+02  0.74573852960E+02  0.97608122540E+02  0.41800000000E+01 0. -1.
        -11    1    4    4    0    0  0.53647971681E+02 -0.23940723889E+02  0.21920111871E+02  0.62703703481E+02  0.00000000000E+00 0.  1.
         11    1    4    4    0    0 -0.21019818319E+02  0.14359893083E+02  0.56668759605E+02  0.62123969662E+02  0.00000000000E+00 0. -1.
</event>
<event>
 8    1  0.7168478E-009  0.1300937E+03  0.7561462E-02  0.1227317E+00
         -1   -1    0    0    0  501 -0.00000000000E+00  0.00000000000E+00  0.10244796507E+03  0.10244796507E+03  0.00000000000E+00 0.  1.
          1   -1    0    0  501    0  0.00000000000E+00 -0.00000000000E+00 -0.32131776506E+03  0.32131776506E+03  0.00000000000E+00 0. -1.
         25    2    1    2    0    0  0.11629303288E+03  0.31435998080E+02 -0.21003039883E+03  0.27252820136E+03  0.12508621280E+03 0.  0.
         23    2    1    2    0    0 -0.11629303288E+03 -0.31435998080E+02 -0.88394011578E+01  0.15123752877E+03  0.91007492127E+02 0.  0.
          5    1    3    3  502    0  0.49251504041E+02  0.26543456834E+02 -0.45466392326E+01  0.56288631883E+02  0.41800000000E+01 0. -1.
         -5    1    3    3    0  502  0.67041528836E+02  0.48925412455E+01 -0.20548375960E+03  0.21623956948E+03  0.41800000000E+01 0. -1.
        -11    1    4    4    0    0  0.77466801907E+01 -0.67190834854E+01  0.19128489004E+02  0.21703829810E+02  0.00000000000E+00 0.  1.
         11    1    4    4    0    0 -0.12403971307E+03 -0.24716914594E+02 -0.27967890162E+02  0.12953369896E+03  0.00000000000E+00 0. -1.
</event>
<event>
 8    1  0.7168478E-009  0.9174265E+02  0.7561462E-02  0.1298686E+00
          2   -1    0    0  501    0  0.00000000000E+00  0.00000000000E+00  0.52071374038E+03  0.52071374038E+03  0.00000000000E+00 0. -1.
         -2   -1    0    0    0  501 -0.00000000000E+00 -0.00000000000E+00 -0.28263764324E+02  0.28263764324E+02  0.00000000000E+00 0.  1.
         25    2    1    2    0    0  0.26082045024E+01 -0.14451405383E+02  0.16002198697E+03  0.20364183709E+03  0.12508923076E+03 0.  0.
         23    2    1    2    0    0 -0.26082045024E+01  0.14451405383E+02  0.33242798908E+03  0.34533566761E+03  0.92372666687E+02 0.  0.
          5    1    3    3  502    0  0.43983803579E+02  0.12049294126E+02  0.11599234233E+02  0.47241667001E+02  0.41800000000E+01 0.  1.
         -5    1    3    3    0  502 -0.41375599077E+02 -0.26500699510E+02  0.14842275274E+03  0.15640017009E+03  0.41800000000E+01 0.  1.
        -11    1    4    4    0    0  0.40466116607E+02 -0.56232756729E+01  0.98629704055E+02  0.10675648151E+03  0.00000000000E+00 0.  1.
         11    1    4    4    0    0 -0.43074321110E+02  0.20074681056E+02  0.23379828503E+03  0.23857918610E+03  0.00000000000E+00 0. -1.
</event>
<event>
 8    1  0.7168478E-009  0.1240148E+03  0.7561462E-02  0.1236617E+00
          2   -1    0    0  501    0  0.00000000000E+00  0.00000000000E+00  0.39868448434E+03  0.39868448434E+03  0.00000000000E+00 0. -1.
         -2   -1    0    0    0  501 -0.00000000000E+00 -0.00000000000E+00 -0.64848066814E+02  0.64848066814E+02  0.00000000000E+00 0.  1.
         25    2    1    2    0    0 -0.97523932358E+02  0.11512847436E+02  0.85483976431E+02  0.18055176782E+03  0.12509183666E+03 0.  0.
         23    2    1    2    0    0  0.97523932358E+02 -0.11512847436E+02  0.24835244109E+03  0.28298078333E+03  0.93572034812E+02 0.  0.
          5    1    3    3  502    0  0.11689487800E+02 -0.30287633306E+02 -0.43632211719E+01  0.33022643070E+02  0.41800000000E+01 0. -1.
         -5    1    3    3    0  502 -0.10921342016E+03  0.41800480743E+02  0.89847197603E+02  0.14752912475E+03  0.41800000000E+01 0. -1.
        -11    1    4    4    0    0  0.50322923922E+02 -0.79490520301E+01  0.22405370961E+03  0.22977303778E+03  0.00000000000E+00 0. -1.
         11    1    4    4    0    0  0.47201008435E+02 -0.35637954062E+01  0.24298731483E+02  0.53207745552E+02  0.00000000000E+00 0.  1.
</event>
<event>
 8    1  0.7168478E-009  0.8658251E+02  0.7561462E-02  0.1311345E+00
         -1   -1    0    0    0  501 -0.00000000000E+00  0.00000000000E+00  0.40616152109E+02  0.40616152109E+02  0.00000000000E+00 0.  1.
          1   -1    0    0  501    0  0.00000000000E+00 -0.00000000000E+00 -0.30062473260E+03  0.30062473260E+03  0.00000000000E+00 0. -1.
         25    2    1    2    0    0  0.53454446617E+01 -0.19218963947E+02 -0.12828521113E+03  0.18029409052E+03  0.12510364235E+03 0.  0.
         23    2    1    2    0    0 -0.53454446617E+01  0.19218963947E+02 -0.13172336937E+03  0.16094679419E+03  0.90304386207E+02 0.  0.
          5    1    3    3  502    0 -0.58717214744E+02 -0.20890489132E+02 -0.63554343844E+02  0.89110890833E+02  0.41800000000E+01 0.  1.
         -5    1    3    3    0  502  0.64062659406E+02  0.16715251845E+01 -0.64730867283E+02  0.91183199690E+02  0.41800000000E+01 0.  1.
        -11    1    4    4    0    0 -0.59715886069E+01 -0.12974128763E+02  0.88038566258E+01  0.16777835949E+02  0.00000000000E+00 0.  1.
         11    1    4    4    0    0  0.62614394524E+00  0.32193092711E+02 -0.14052722599E+03  0.14416895824E+03  0.00000000000E+00 0. -1.
</event>
<event>
 8    1  0.7168478E-009  0.1119007E+03  0.7561462E-02  0.1257090E+00
          1   -1    0    0  501    0  0.00000000000E+00  0.00000000000E+00  0.45154957086E+03  0.45154957086E+03  0.00000000000E+00 0. -1.
         -1   -1    0    0    0  501 -0.00000000000E+00 -0.00000000000E+00 -0.39369687414E+02  0.39369687414E+02  0.00000000000E+00 0.  1.
         25    2    1    2    0    0  0.51716165096E+02  0.11888264823E+02  0.33006877970E+03  0.35693721021E+03  0.12507150009E+03 0.  0.
         23    2    1    2    0    0 -0.51716165096E+02 -0.11888264823E+02  0.82111103751E+02  0.13398204806E+03  0.91613663119E+02 0.  0.
          5    1    3    3  502    0 -0.32272544478E+02  0.29285621341E+02  0.16695563444E+03  0.17260017675E+03  0.41800000000E+01 0. -1.
         -5    1    3    3    0  502  0.83988709575E+02 -0.17397356518E+02  0.16311314526E+03  0.18433703346E+03  0.41800000000E+01 0. -1.
        -11    1    4    4    0    0  0.12645708068E+02  0.18948632865E+02 -0.29232725558E+01  0.22967588955E+02  0.00000000000E+00 0.  1.
         11    1    4    4    0    0 -0.64361873164E+02 -0.30836897688E+02  0.85034376307E+02  0.11101445910E+03  0.00000000000E+00 0. -1.
</event>
<event>
 8    1  0.7168478E-009  0.7468195E+02  0.7561462E-02  0.1344859E+00
         -1   -1    0    0    0  501 -0.00000000000E+00  0.00000000000E+00  0.10960361891E+02  0.10960361891E+02  0.00000000000E+00 0.  1.
          1   -1    0    0  501    0  0.00000000000E+00 -0.00000000000E+00 -0.13410124889E+04  0.13410124889E+04  0.00000000000E+00 0. -1.
         25    2    1    2    0    0 -0.29038554882E+02  0.27895743106E+02 -0.92483661355E+03  0.93412684022E+03  0.12509509065E+03 0.  0.
         23    2    1    2    0    0  0.29038554882E+02 -0.27895743106E+02 -0.40521551341E+03  0.41784601052E+03  0.93671052343E+02 0.  0.
          5    1    3    3  502    0 -0.32122423390E+02  0.26935273406E+02 -0.92732927138E+03  0.92828573672E+03  0.41800000000E+01 0.  1.
         -5    1    3    3    0  502  0.30838685075E+01  0.96046970000E+00  0.24926578323E+01  0.58411034989E+01  0.41800000000E+01 0.  1.
        -11    1    4    4    0    0 -0.31087805080E+02 -0.27981759413E+02 -0.16857873718E+03  0.17369001444E+03  0.00000000000E+00 0. -1.
         11    1    4    4    0    0  0.60126359962E+02  0.86016307088E-01 -0.23663677623E+03  0.24415599609E+03  0.00000000000E+00 0.  1.
</event>
<event>
 8    1  0.7168478E-009  0.1905254E+03  0.7561462E-02  0.1157988E+00
         -1   -1    0    0    0  501 -0.00000000000E+00  0.00000000000E+00  0.47336977795E+02  0.47336977795E+02  0.00000000000E+00 0.  1.
          1   -1    0    0  501    0  0.00000000000E+00 -0.00000000000E+00 -0.98999757824E+03  0.98999757824E+03  0.00000000000E+00 0. -1.
         25    2    1    2    0    0 -0.15840757055E+03  0.95539719604E+02 -0.42250293254E+03  0.47788729645E+03  0.12508694446E+03 0.  0.
         23    2    1    2    0    0  0.15840757055E+03 -0.95539719604E+02 -0.52015766790E+03  0.55944725958E+03  0.90534194352E+02 0.  0.
          5    1    3    3  502    0 -0.51306823290E+02  0.54646545164E+02 -0.55468613758E+02  0.93342779724E+02  0.41800000000E+01 0.  1.
         -5    1    3    3    0  502 -0.10710074726E+03  0.40893174440E+02 -0.36703431879E+03  0.38454451673E+03  0.41800000000E+01 0.  1.
        -11    1    4    4    0    0  0.11800359688E+03 -0.44391817632E+02 -0.43062059829E+03  0.44869765101E+03  0.00000000000E+00 0. -1.
         11    1    4    4    0    0  0.40403973673E+02 -0.51147901972E+02 -0.89537069615E+02  0.11074960858E+03  0.00000000000E+00 0.  1.
</event>
<event>
 8    1  0.7168478E-009  0.8490870E+02  0.7561462E-02  0.1315671E+00
          1   -1    0    0  501    0  0.00000000000E+00  0.00000000000E+00  0.35005500321E+02  0.35005500321E+02  0.00000000000E+00 0. -1.
         -1   -1    0    0    0  501 -0.00000000000E+00 -0.00000000000E+00 -0.35711771952E+03  0.35711771952E+03  0.00000000000E+00 0.  1.
         25    2    1    2    0    0  0.39580703460E+01 -0.15677695133E+02 -0.14060088148E+03  0.18888757475E+03  0.12509377114E+03 0.  0.
         23    2    1    2    0    0 -0.39580703460E+01  0.15677695133E+02 -0.18151133772E+03  0.20323564508E+03  0.89982805397E+02 0.  0.
          5    1    3    3  502    0  0.17529107211E+02 -0.64852682533E+02 -0.46638478574E+02  0.81888705662E+02  0.41800000000E+01 0.  1.
         -5    1    3    3    0  502 -0.13571036865E+02  0.49174987400E+02 -0.93962402903E+02  0.10699886909E+03  0.41800000000E+01 0.  1.
        -11    1    4    4    0    0  0.18086663540E+02 -0.72785960799E+01 -0.55758874214E+00  0.19504262716E+02  0.00000000000E+00 0. -1.
         11    1    4    4    0    0 -0.22044733886E+02  0.22956291213E+02 -0.18095374898E+03  0.18373138237E+03  0.00000000000E+00 0.  1.
</event>
<event>
 8    1  0.7168478E-009  0.1720039E+03  0.7561462E-02  0.1175774E+00
          2   -1    0    0  501    0  0.00000000000E+00  0.00000000000E+00  0.90320796155E+03  0.90320796155E+03  0.00000000000E+00 0. -1.
         -2   -1    0    0    0  501 -0.00000000000E+00 -0.00000000000E+00 -0.34065417823E+02  0.34065417823E+02  0.00000000000E+00 0.  1.
         25    2    1    2    0    0 -0.97711103335E+02  0.96927719585E+02  0.47875252476E+03  0.51360920181E+03  0.12509192495E+03 0.  0.
         23    2    1    2    0    0  0.97711103335E+02 -0.96927719585E+02  0.39039001897E+03  0.42366417756E+03  0.90247027082E+02 0.  0.
          5    1    3    3  502    0  0.68409734220E+01  0.75859504865E+02  0.24588061483E+03  0.25744166823E+03  0.41800000000E+01 0.  1.
         -5    1    3    3    0  502 -0.10455207676E+03  0.21068214720E+02  0.23287190993E+03  0.25616753358E+03  0.41800000000E+01 0.  1.
        -11    1    4    4    0    0 -0.15122338105E+02 -0.68051933786E+01  0.74623601256E+02  0.76443950912E+02  0.00000000000E+00 0. -1.
         11    1    4    4    0    0  0.11283344144E+03 -0.90122526207E+02  0.31576641772E+03  0.34722022665E+03  0.00000000000E+00 0.  1.
</event>
<event>
 8    1  0.7168478E-009  0.1153995E+03  0.7561462E-02  0.1250885E+00
          1   -1    0    0  501    0  0.00000000000E+00  0.00000000000E+00  0.23757378156E+03  0.23757378156E+03  0.00000000000E+00 0. -1.
         -1   -1    0    0    0  501 -0.00000000000E+00 -0.00000000000E+00 -0.11905690933E+03  0.11905690933E+03  0.00000000000E+00 0.  1.
         25    2    1    2    0    0  0.15002427338E+02  0.10205654387E+03  0.14405640065E+03  0.21689638521E+03  0.12510469366E+03 0.  0.
         23    2    1    2    0    0 -0.15002427338E+02 -0.10205654387E+03 -0.25539528426E+02  0.13973430568E+03  0.90734765662E+02 0.  0.
          5    1    3    3  502    0  0.33013595283E+02  0.99968388589E+02  0.42435848115E+02  0.11358630990E+03  0.41800000000E+01 0.  1.
         -5    1    3    3    0  502 -0.18011167945E+02  0.20881552791E+01  0.10162055254E+03  0.10331007531E+03  0.41800000000E+01 0.  1.
        -11    1    4    4    0    0  0.77620202377E+01 -0.39615429842E+02 -0.54011923902E+02  0.67430847269E+02  0.00000000000E+00 0.  1.
         11    1    4    4    0    0 -0.22764447575E+02 -0.62441114026E+02  0.28472395477E+02  0.72303458413E+02  0.00000000000E+00 0. -1.
</event>
<event>
 8    1  0.7168478E-009  0.2265138E+03  0.7561462E-02  0.1129118E+00
          1   -1    0    0  501    0  0.00000000000E+00  0.00000000000E+00  0.75494820200E+03  0.75494820200E+03  0.00000000000E+00 0. -1.
         -1   -1    0    0    0  501 -0.00000000000E+00 -0.00000000000E+00 -0.13338624634E+03  0.13338624634E+03  0.00000000000E+00 0.  1.
         25    2    1    2    0    0 -0.20293521155E+03 -0.79296500145E+02  0.60083707327E+03  0.65124780636E+03  0.12509149310E+03 0.  0.
         23    2    1    2    0    0  0.20293521155E+03  0.79296500145E+02  0.20724882393E+02  0.23708664198E+03  0.91158762781E+02 0.  0.
          5    1    3    3  502    0 -0.10159697645E+02 -0.24476750144E+02  0.12312744671E+02  0.29519600864E+02  0.41800000000E+01 0. -1.
         -5    1    3    3    0  502 -0.19277551391E+03 -0.54819750000E+02  0.58852432860E+03  0.62172820550E+03  0.41800000000E+01 0. -1.
        -11    1    4    4    0    0  0.31896322365E+02  0.38319268569E+02  0.34560266927E+02  0.60664270985E+02  0.00000000000E+00 0. -1.
         11    1    4    4    0    0  0.17103888919E+03  0.40977231576E+02 -0.13835384534E+02  0.17642237100E+03  0.00000000000E+00 0.  1.
</event>
<event>
 8    1  0.7168478E-009  0.9817479E+02  0.7561462E-02  0.1284182E+00
          2   -1    0    0  501    0  0.00000000000E+00  0.00000000000E+00  0.79118033938E+03  0.79118033938E+03  0.00000000000E+00 0. -1.
         -2   -1    0    0    0  501 -0.00000000000E+00 -0.00000000000E+00 -0.19018922549E+02  0.19018922549E+02  0.00000000000E+00 0.  1.
         25    2    1    2    0    0 -0.35467085285E+02 -0.43034016270E+02  0.41808341611E+03  0.43994326755E+03  0.12508595103E+03 0.  0.
         23    2    1    2    0    0  0.35467085285E+02  0.43034016270E+02  0.35407800072E+03  0.37025599438E+03  0.92781625774E+02 0.  0.
          5    1    3    3  502    0 -0.57535437165E+02 -0.56450191521E+02  0.14784680763E+03  0.16844317018E+03  0.41800000000E+01 0. -1.
         -5    1    3    3    0  502  0.22068351880E+02  0.13416175252E+02  0.27023660848E+03  0.27150009738E+03  0.41800000000E+01 0. -1.
        -11    1    4    4    0    0  0.50408695927E+02  0.75466582923E+01  0.29739810752E+03  0.30173435839E+03  0.00000000000E+00 0. -1.
         11    1    4    4    0    0 -0.14941610642E+02  0.35487357977E+02  0.56679893199E+02  0.68521635984E+02  0.00000000000E+00 0.  1.
</event>
<event>
 8    1  0.7168478E-009  0.9676106E+02  0.7561462E-02  0.1287258E+00
         -1   -1    0    0    0  501 -0.00000000000E+00  0.00000000000E+00  0.28671054847E+03  0.28671054847E+03  0.00000000000E+00 0.  1.
          1   -1    0    0  501    0  0.00000000000E+00 -0.00000000000E+00 -0.46019983824E+02  0.46019983824E+02  0.00000000000E+00 0. -1.
         25    2    1    2    0    0 -0.75873739952E+01  0.37418495068E+02  0.15410295543E+03  0.20212307355E+03  0.12509318115E+03 0.  0.
         23    2    1    2    0    0  0.75873739952E+01 -0.37418495068E+02  0.86587609213E+02  0.13060745874E+03  0.90017677112E+02 0.  0.
          5    1    3    3  502    0 -0.31979390390E+02 -0.19186718744E+02  0.15764192371E+01  0.37560206116E+02  0.41800000000E+01 0. -1.
         -5    1    3    3    0  502  0.24392016395E+02  0.56605213812E+02  0.15252653620E+03  0.16456286743E+03  0.41800000000E+01 0. -1.
        -11    1    4    4    0    0 -0.21789864448E+02 -0.55566201021E+02  0.70906815459E+02  0.92683209737E+02  0.00000000000E+00 0. -1.
         11    1    4    4    0    0  0.29377238443E+02  0.18147705954E+02  0.15680793755E+02  0.37924249006E+02  0.00000000000E+00 0.  1.
</event>
<event>
 8    1  0.7168478E-009  0.8965078E+02  0.7561462E-02  0.1303700E+00
          1   -1    0    0  501    0  0.00000000000E+00  0.00000000000E+00  0.27539864741E+03  0.27539864741E+03  0.00000000000E+00 0. -1.
         -1   -1    0    0    0  501 -0.00000000000E+00 -0.00000000000E+00 -0.54694477687E+02  0.54694477687E+02  0.00000000000E+00 0.  1.
         25    2    1    2    0    0 -0.42986027174E+02 -0.25250934307E+02  0.91709832230E+02  0.16291064660E+03  0.12507508638E+03 0.  0.
         23    2    1    2    0    0  0.42986027174E+02  0.25250934307E+02  0.12899433749E+03  0.16718247849E+03  0.93941651009E+02 0.  0.
          5    1    3    3  502    0  0.11593341517E+02 -0.10963009808E+02  0.10376459644E+03  0.10506739278E+03  0.41800000000E+01 0.  1.
         -5    1    3    3    0  502 -0.54579368691E+02 -0.14287924499E+02 -0.12054764206E+02  0.57843253827E+02  0.41800000000E+01 0.  1.
        -11    1    4    4    0    0  0.65753432705E+02 -0.76784507077E+01  0.84141469240E+02  0.10706194171E+03  0.00000000000E+00 0.  1.
         11    1    4    4    0    0 -0.22767405531E+02  0.32929385015E+02  0.44852868255E+02  0.60120536780E+02  0.00000000000E+00 0. -1.
</event>
<event>
 8    1  0.7168478E-009  0.3013583E+03  0.7561462E-02  0.1084564E+00
         -1   -1    0    0    0  501 -0.00000000000E+00  0.00000000000E+00  0.21835165936E+03  0.21835165936E+03  0.00000000000E+00 0.  1.
          1   -1    0    0  501    0  0.00000000000E+00 -0.00000000000E+00 -0.44079900684E+03  0.44079900684E+03  0.00000000000E+00 0. -1.
         25    2    1    2    0    0 -0.26341500308E+03 -0.12138026787E+03 -0.10049226310E+03  0.33146486008E+03  0.12509846223E+03 0.  0.
         23    2    1    2    0    0  0.26341500308E+03  0.12138026787E+03 -0.12195508438E+03  0.32768580612E+03  0.91565886930E+02 0.  0.
          5    1    3    3  502    0 -0.23661855184E+03 -0.59721544842E+02 -0.10088845566E+03  0.26410406070E+03  0.41800000000E+01 0. -1.
         -5    1    3    3    0  502 -0.26796451233E+02 -0.61658723030E+02  0.39619256262E+00  0.67360799378E+02  0.41800000000E+01 0. -1.
        -11    1    4    4    0    0  0.18252455807E+03  0.97536680995E+02 -0.41376202789E+02  0.21104646075E+03  0.00000000000E+00 0.  1.
         11    1    4    4    0    0  0.80890445008E+02  0.23843586877E+02 -0.80578881595E+02  0.11663934537E+03  0.00000000000E+00 0. -1.
</event>
<event>
 8    1  0.7168478E-009  0.1397164E+03  0.7561462E-02  0.1213711E+00
          1   -1    0    0  501    0  0.00000000000E+00  0.00000000000E+00  0.74799639054E+03  0.74799639054E+03  0.00000000000E+00 0. -1.
         -1   -1    0    0    0  501 -0.00000000000E+00 -0.00000000000E+00 -0.32859801897E+02  0.32859801897E+02  0.00000000000E+00 0.  1.
         25    2    1    2    0    0  0.89290873893E+02  0.37427885339E+02  0.53129005407E+03  0.55433798075E+03  0.12509104119E+03 0.  0.
         23    2    1    2    0    0 -0.89290873893E+02 -0.37427885339E+02  0.18384653457E+03  0.22651821169E+03  0.90206680409E+02 0.  0.
          5    1    3    3  502    0 -0.81047954827E+01  0.52120903505E+02  0.11586594117E+03  0.12737607709E+03  0.41800000000E+01 0. -1.
         -5    1    3    3    0  502  0.97395669376E+02 -0.14693018166E+02  0.41542411290E+03  0.42696190366E+03  0.41800000000E+01 0. -1.
        -11    1    4    4    0    0 -0.50328086696E+02 -0.63519928247E+02  0.86889831095E+02  0.11881725608E+03  0.00000000000E+00 0.  1.
         11    1    4    4    0    0 -0.38962787197E+02  0.26092042909E+02  0.96956703477E+02  0.10770095561E+03  0.00000000000E+00 0. -1.
</event>
<event>
 8    1  0.7168478E-009  0.1233649E+03  0.7561462E-02  0.1237647E+00
         -2   -1    0    0    0  501 -0.00000000000E+00  0.00000000000E+00  0.36211917131E+02  0.36211917131E+02  0.00000000000E+00 0.  1.
          2   -1    0    0  501    0  0.00000000000E+00 -0.00000000000E+00 -0.49925881255E+03  0.49925881255E+03  0.00000000000E+00 0. -1.
         25    2    1    2    0    0 -0.51220790754E+02 -0.42146184367E+02 -0.19440011679E+03  0.24049789053E+03  0.12509180501E+03 0.  0.
         23    2    1    2    0    0  0.51220790754E+02  0.42146184367E+02 -0.26864677863E+03  0.29497283915E+03  0.10216659878E+03 0.  0.
          5    1    3    3  502    0 -0.67324763151E+02 -0.72179857531E+02 -0.10234402929E+03  0.14224741930E+03  0.41800000000E+01 0. -1.
         -5    1    3    3    0  502  0.16103972398E+02  0.30033673164E+02 -0.92056087504E+02  0.98250471232E+02  0.41800000000E+01 0. -1.
        -11    1    4    4    0    0  0.59140344162E+02 -0.10756554852E+02 -0.19427442601E+03  0.20336134436E+03  0.00000000000E+00 0.  1.
         11    1    4    4    0    0 -0.79195534078E+01  0.52902739219E+02 -0.74372352620E+02  0.91611494788E+02  0.00000000000E+00 0. -1.
</event>
<event>
 8    1  0.7168478E-009  0.3213366E+03  0.7561462E-02  0.1075036E+00
          2   -1    0    0  501    0  0.00000000000E+00  0.00000000000E+00  0.12542143151E+04  0.12542143151E+04  0.00000000000E+00 0.  1.
         -2   -1    0    0    0  501 -0.00000000000E+00 -0.00000000000E+00 -0.91834390059E+02  0.91834390059E+02  0.00000000000E+00 0. -1.
         25    2    1    2    0    0  0.13976213710E+03 -0.28703908484E+03  0.62398799445E+03  0.71199206499E+03  0.12508713843E+03 0.  0.
         23    2    1    2    0    0 -0.13976213710E+03  0.28703908484E+03  0.53839193056E+03  0.63405664013E+03  0.10117836140E+03 0.  0.
          5    1    3    3  502    0  0.10398064538E+03 -0.22982705014E+03  0.57674747839E+03  0.62951375983E+03  0.41800000000E+01 0. -1.
         -5    1    3    3    0  502  0.35781491719E+02 -0.57212034702E+02  0.47240516059E+02  0.82478305159E+02  0.41800000000E+01 0. -1.
        -11    1    4    4    0    0 -0.83067789438E+02  0.21891495256E+03  0.45808028556E+03  0.51445268210E+03  0.00000000000E+00 0.  1.
         11    1    4    4    0    0 -0.56694347665E+02  0.68124132279E+02  0.80311644993E+02  0.11960395803E+03  0.00000000000E+00 0. -1.
</event>
<event>
 8    1  0.7168478E-009  0.1002455E+03  0.7561462E-02  0.1279781E+00
         -2   -1    0    0    0  501 -0.00000000000E+00  0.00000000000E+00  0.14890190146E+02  0.14890190146E+02  0.00000000000E+00 0.  1.
          2   -1    0    0  501    0  0.00000000000E+00 -0.00000000000E+00 -0.86770264390E+03  0.86770264390E+03  0.00000000000E+00 0. -1.
         25    2    1    2    0    0 -0.86397333077E+01  0.70752369116E+01 -0.60648660546E+03  0.61935292637E+03  0.12508933141E+03 0.  0.
         23    2    1    2    0    0  0.86397333077E+01 -0.70752369116E+01 -0.24632584830E+03  0.26323990768E+03  0.92163558343E+02 0.  0.
          5    1    3    3  502    0  0.48820649580E+02  0.16432420055E+02 -0.14010214148E+03  0.14933038104E+03  0.41800000000E+01 0. -1.
         -5    1    3    3    0  502 -0.57460382888E+02 -0.93571831430E+01 -0.46638446398E+03  0.47002254533E+03  0.41800000000E+01 0. -1.
        -11    1    4    4    0    0 -0.40762516457E+02 -0.33694427591E+01 -0.14157194267E+03  0.14736197217E+03  0.00000000000E+00 0.  1.
         11    1    4    4    0    0  0.49402249765E+02 -0.37057941525E+01 -0.10475390563E+03  0.11587793550E+03  0.00000000000E+00 0. -1.
</event>
<event>
 8    1  0.7168478E-009  0.1068579E+03  0.7561462E-02  0.1266502E+00
         -4   -1    0    0    0  501 -0.00000000000E+00  0.00000000000E+00  0.30155108199E+03  0.30155108199E+03  0.00000000000E+00 0.  1.
          4   -1    0    0  501    0  0.00000000000E+00 -0.00000000000E+00 -0.43892432948E+02  0.43892432948E+02  0.00000000000E+00 0. -1.
         25    2    1    2    0    0  0.19035685006E+02  0.25191237400E+02  0.11574565465E+03  0.17332285660E+03  0.12508717083E+03 0.  0.
         23    2    1    2    0    0 -0.19035685006E+02 -0.25191237400E+02  0.14191299439E+03  0.17212065833E+03  0.92137219962E+02 0.  0.
          5    1    3    3  502    0 -0.37813987920E+02 -0.20628449389E+02  0.94489936700E+01  0.44296574224E+02  0.41800000000E+01 0. -1.
         -5    1    3    3    0  502  0.56849672926E+02  0.45819686789E+02  0.10629666098E+03  0.12902628238E+03  0.41800000000E+01 0. -1.
        -11    1    4    4    0    0  0.15429507348E+02 -0.51616643936E+02  0.74800166569E+02  0.92181411070E+02  0.00000000000E+00 0. -1.
         11    1    4    4    0    0 -0.34465192354E+02  0.26425406535E+02  0.67112827822E+02  0.79939247262E+02  0.00000000000E+00 0.  1.
</event>
<event>
 8    1  0.7168478E-009  0.1400490E+03  0.7561462E-02  0.1213263E+00
         -1   -1    0    0    0  501 -0.00000000000E+00  0.00000000000E+00  0.28777500667E+02  0.28777500667E+02  0.00000000000E+00 0.  1.
          1   -1    0    0  501    0  0.00000000000E+00 -0.00000000000E+00 -0.87820364064E+03  0.87820364064E+03  0.00000000000E+00 0. -1.
         25    2    1    2    0    0  0.90843409484E+02 -0.52778644360E+02 -0.31262949301E+03  0.35273610180E+03  0.12508975683E+03 0.  0.
         23    2    1    2    0    0 -0.90843409484E+02  0.52778644360E+02 -0.53679664696E+03  0.55424503951E+03  0.89436084908E+02 0.  0.
          5    1    3    3  502    0  0.11639516311E+03 -0.31681217420E+02 -0.28458742072E+03  0.30912619747E+03  0.41800000000E+01 0. -1.
         -5    1    3    3    0  502 -0.25551753627E+02 -0.21097426940E+02 -0.28042072295E+02  0.43609904328E+02  0.41800000000E+01 0. -1.
        -11    1    4    4    0    0 -0.43693003017E+02  0.64035386237E+02 -0.43040057923E+03  0.43732627157E+03  0.00000000000E+00 0. -1.
         11    1    4    4    0    0 -0.47150406467E+02 -0.11256741877E+02 -0.10639606773E+03  0.11691876794E+03  0.00000000000E+00 0.  1.
</event>
<event>
 8    1  0.7168478E-009  0.1112092E+03  0.7561462E-02  0.1258347E+00
         -1   -1    0    0    0  501 -0.00000000000E+00  0.00000000000E+00  0.20012906187E+03  0.20012906187E+03  0.00000000000E+00 0.  1.
          1   -1    0    0  501    0  0.00000000000E+00 -0.00000000000E+00 -0.83062290452E+02  0.83062290452E+02  0.00000000000E+00 0. -1.
         25    2    1    2    0    0  0.64909406486E+02  0.95459561603E+01  0.39394215587E+02  0.14664194465E+03  0.12509036485E+03 0.  0.
         23    2    1    2    0    0 -0.64909406486E+02 -0.95459561603E+01  0.77672555830E+02  0.13654940767E+03  0.91150197351E+02 0.  0.
          5    1    3    3  502    0  0.30534244999E+02 -0.57676016260E+02  0.22542030556E+02  0.69169924902E+02  0.41800000000E+01 0. -1.
         -5    1    3    3    0  502  0.34375161487E+02  0.67221972420E+02  0.16852185031E+02  0.77472019747E+02  0.41800000000E+01 0. -1.
        -11    1    4    4    0    0 -0.28957147189E+02 -0.28615941354E+02  0.85873099133E+02  0.95034612788E+02  0.00000000000E+00 0. -1.
         11    1    4    4    0    0 -0.35952259297E+02  0.19069985194E+02 -0.82005433036E+01  0.41514794885E+02  0.00000000000E+00 0.  1.
</event>
<event>
 8    1  0.7168478E-009  0.1059578E+03  0.7561462E-02  0.1268244E+00
          2   -1    0    0  501    0  0.00000000000E+00  0.00000000000E+00  0.77210594723E+02  0.77210594723E+02  0.00000000000E+00 0. -1.
         -2   -1    0    0    0  501 -0.00000000000E+00 -0.00000000000E+00 -0.18593861712E+03  0.18593861712E+03  0.00000000000E+00 0.  1.
         25    2    1    2    0    0  0.38389868568E+02  0.27243760305E+02 -0.84789018806E+02  0.15828002926E+03  0.12508950983E+03 0.  0.
         23    2    1    2    0    0 -0.38389868568E+02 -0.27243760305E+02 -0.23939003588E+02  0.10486918258E+03  0.90600579893E+02 0.  0.
          5    1    3    3  502    0 -0.18712962338E+02  0.59614407929E+02 -0.63409985861E+02  0.89119870395E+02  0.41800000000E+01 0. -1.
         -5    1    3    3    0  502  0.57102830907E+02 -0.32370647624E+02 -0.21379032944E+02  0.69160158869E+02  0.41800000000E+01 0. -1.
        -11    1    4    4    0    0 -0.58228389555E+02 -0.25621169552E+02 -0.43417067325E+02  0.77019681994E+02  0.00000000000E+00 0.  1.
         11    1    4    4    0    0  0.19838520986E+02 -0.16225907537E+01  0.19478063737E+02  0.27849500581E+02  0.00000000000E+00 0. -1.
</event>
<event>
 8    1  0.7168478E-009  0.8999714E+02  0.7561462E-02  0.1302859E+00
         -3   -1    0    0    0  501 -0.00000000000E+00  0.00000000000E+00  0.56097753111E+02  0.56097753111E+02  0.00000000000E+00 0.  1.
          3   -1    0    0  501    0  0.00000000000E+00 -0.00000000000E+00 -0.40059161035E+03  0.40059161035E+03  0.00000000000E+00 0. -1.
         25    2    1    2    0    0 -0.21393787640E+02 -0.76043815641E+02 -0.85667267762E+02  0.17095714396E+03  0.12508840177E+03 0.  0.
         23    2    1    2    0    0  0.21393787640E+02  0.76043815641E+02 -0.25882658948E+03  0.28573221951E+03  0.91713367590E+02 0.  0.
          5    1    3    3  502    0 -0.30273268203E+02 -0.54486016465E+02 -0.11643049011E+03  0.13213148067E+03  0.41800000000E+01 0. -1.
         -5    1    3    3    0  502  0.88794805625E+01 -0.21557799177E+02  0.30763222347E+02  0.38825663286E+02  0.41800000000E+01 0. -1.
        -11    1    4    4    0    0  0.20710360594E+01  0.74416321732E+02 -0.25541523534E+03  0.26604326823E+03  0.00000000000E+00 0.  1.
         11    1    4    4    0    0  0.19322751581E+02  0.16274939093E+01 -0.34113541438E+01  0.19688951272E+02  0.00000000000E+00 0. -1.
</event>
<event>
 8    1  0.7168478E-009  0.2168689E+03  0.7561462E-02  0.1136239E+00
          2   -1    0    0  501    0  0.00000000000E+00  0.00000000000E+00  0.10005661100E+04  0.10005661100E+04  0.00000000000E+00 0. -1.
         -2   -1    0    0    0  501 -0.00000000000E+00 -0.00000000000E+00 -0.88966082998E+02  0.88966082998E+02  0.00000000000E+00 0.  1.
         25    2    1    2    0    0  0.19430546113E+03  0.58206311428E+01  0.82669602501E+03  0.85840643744E+03  0.12508717804E+03 0.  0.
         23    2    1    2    0    0 -0.19430546113E+03 -0.58206311428E+01  0.84904002022E+02  0.23112575558E+03  0.91771092197E+02 0.  0.
          5    1    3    3  502    0  0.85443897628E+02 -0.57939661159E+02  0.42301292968E+03  0.43544813130E+03  0.41800000000E+01 0.  1.
         -5    1    3    3    0  502  0.10886156350E+03  0.63760292301E+02  0.40368309533E+03  0.42295830614E+03  0.41800000000E+01 0.  1.
        -11    1    4    4    0    0 -0.43598748777E+02 -0.28062496401E+02 -0.83394053536E+01  0.52515714608E+02  0.00000000000E+00 0. -1.
         11    1    4    4    0    0 -0.15070671235E+03  0.22241865258E+02  0.93243407375E+02  0.17861004097E+03  0.00000000000E+00 0.  1.
</event>
<event>
 8    1  0.7168478E-009  0.1393188E+03  0.7561462E-02  0.1214248E+00
         -2   -1    0    0    0  501 -0.00000000000E+00  0.00000000000E+00  0.27034921491E+02  0.27034921491E+02  0.00000000000E+00 0.  1.
          2   -1    0    0  501    0  0.00000000000E+00 -0.00000000000E+00 -0.80646874580E+03  0.80646874580E+03  0.00000000000E+00 0. -1.
         25    2    1    2    0    0 -0.10452321554E+02  0.99424756645E+02 -0.40849547265E+03  0.43876071876E+03  0.12509150208E+03 0.  0.
         23    2    1    2    0    0  0.10452321554E+02 -0.99424756645E+02 -0.37093835166E+03  0.39474294853E+03  0.90731479778E+02 0.  0.
          5    1    3    3  502    0 -0.59911070226E+02  0.60506460914E+02 -0.14856839159E+03  0.17129041867E+03  0.41800000000E+01 0.  1.
         -5    1    3    3    0  502  0.49458748672E+02  0.38918295730E+02 -0.25992708106E+03  0.26747030009E+03  0.41800000000E+01 0.  1.
        -11    1    4    4    0    0 -0.34373174564E+02 -0.65939524277E+02 -0.15876994966E+03  0.17532094258E+03  0.00000000000E+00 0.  1.
         11    1    4    4    0    0  0.44825496118E+02 -0.33485232368E+02 -0.21216840200E+03  0.21942200595E+03  0.00000000000E+00 0. -1.
</event>
<event>
 8    1  0.7168478E-009  0.9901437E+02  0.7561462E-02  0.1282382E+00
         -2   -1    0    0    0  501 -0.00000000000E+00  0.00000000000E+00  0.77686714701E+02  0.77686714701E+02  0.00000000000E+00 0.  1.
          2   -1    0    0  501    0  0.00000000000E+00 -0.00000000000E+00 -0.24706942105E+03  0.24706942105E+03  0.00000000000E+00 0. -1.
         25    2    1    2    0    0 -0.21986270621E+02  0.72935219015E+02 -0.46433692516E+02  0.15364259094E+03  0.12508803173E+03 0.  0.
         23    2    1    2    0    0  0.21986270621E+02 -0.72935219015E+02 -0.12294901383E+03  0.17111354481E+03  0.91435457821E+02 0.  0.
          5    1    3    3  502    0 -0.56398320900E+02  0.51446519553E+02  0.16913849999E+02  0.78301121935E+02  0.41800000000E+01 0.  1.
         -5    1    3    3    0  502  0.34412050280E+02  0.21488699462E+02 -0.63347542515E+02  0.75341469004E+02  0.41800000000E+01 0.  1.
        -11    1    4    4    0    0 -0.42633933251E+01 -0.31181127381E+02  0.68954339683E+01  0.32217793795E+02  0.00000000000E+00 0.  1.
         11    1    4    4    0    0  0.26249663946E+02 -0.41754091633E+02 -0.12984444780E+03  0.13889575102E+03  0.00000000000E+00 0. -1.
</event>
<event>
 8    1  0.7168478E-009  0.1622378E+03  0.7561462E-02  0.1186193E+00
          1   -1    0    0  501    0  0.00000000000E+00  0.00000000000E+00  0.78826402343E+02  0.78826402343E+02  0.00000000000E+00 0. -1.
         -1   -1    0    0    0  501 -0.00000000000E+00 -0.00000000000E+00 -0.34057170496E+03  0.34057170496E+03  0.00000000000E+00 0.  1.
         25    2    1    2    0    0  0.12594897409E+03  0.82120722801E+01 -0.15558146775E+03  0.23618533444E+03  0.12508931567E+03 0.  0.
         23    2    1    2    0    0 -0.12594897409E+03 -0.82120722801E+01 -0.10616383487E+03  0.18321277286E+03  0.79784573074E+02 0.  0.
          5    1    3    3  502    0  0.14428336545E+03 -0.15916682222E+02 -0.11430363183E+03  0.18480752952E+03  0.41800000000E+01 0.  1.
         -5    1    3    3    0  502 -0.18334391363E+02  0.24128754502E+02 -0.41277835922E+02  0.51377804925E+02  0.41800000000E+01 0.  1.
        -11    1    4    4    0    0 -0.11167125331E+03  0.23294413355E+02 -0.88461196150E+02  0.14435540077E+03  0.00000000000E+00 0. -1.
         11    1    4    4    0    0 -0.14277720780E+02 -0.31506485635E+02 -0.17702638717E+02  0.38857372084E+02  0.00000000000E+00 0.  1.
</event>
<event>
 8    1  0.7168478E-009  0.7236828E+02  0.7561462E-02  0.1352220E+00
          2   -1    0    0  501    0  0.00000000000E+00  0.00000000000E+00  0.16569434679E+03  0.16569434679E+03  0.00000000000E+00 0. -1.
         -2   -1    0    0    0  501 -0.00000000000E+00 -0.00000000000E+00 -0.93567012382E+02  0.93567012382E+02  0.00000000000E+00 0.  1.
         25    2    1    2    0    0 -0.29398529947E+02 -0.39392273118E+02  0.77536270539E+02  0.15516285401E+03  0.12509042038E+03 0.  0.
         23    2    1    2    0    0  0.29398529947E+02  0.39392273118E+02 -0.54089361349E+01  0.10409850516E+03  0.91603588583E+02 0.  0.
          5    1    3    3  502    0 -0.17930451322E+02 -0.13381655786E+02 -0.33482648673E+02  0.40486169964E+02  0.41800000000E+01 0. -1.
         -5    1    3    3    0  502 -0.11468078626E+02 -0.26010617332E+02  0.11101891921E+03  0.11467668405E+03  0.41800000000E+01 0. -1.
        -11    1    4    4    0    0 -0.27748295092E+01  0.56661021662E+02 -0.25750788050E+02  0.62299872711E+02  0.00000000000E+00 0.  1.
         11    1    4    4    0    0  0.32173359456E+02 -0.17268748544E+02  0.20341851915E+02  0.41798632446E+02  0.00000000000E+00 0. -1.
</event>
<event>
 8    1  0.7168478E-009  0.2471082E+03  0.7561462E-02  0.1115146E+00
         -2   -1    0    0    0  501 -0.00000000000E+00  0.00000000000E+00  0.63892207497E+03  0.63892207497E+03  0.00000000000E+00 0.  1.
          2   -1    0    0  501    0  0.00000000000E+00 -0.00000000000E+00 -0.11000172915E+03  0.11000172915E+03  0.00000000000E+00 0. -1.
         25    2    1    2    0    0 -0.16602018867E+03  0.15798241823E+03  0.37927154812E+03  0.46045272454E+03  0.12509459144E+03 0.  0.
         23    2    1    2    0    0  0.16602018867E+03 -0.15798241823E+03  0.14964879770E+03  0.28847107958E+03  0.91102434558E+02 0.  0.
          5    1    3    3  502    0 -0.41611659372E+02  0.12467892760E+03  0.17434398303E+03  0.21837962817E+03  0.41800000000E+01 0. -1.
         -5    1    3    3    0  502 -0.12440852930E+03  0.33303490633E+02  0.20492756509E+03  0.24207309637E+03  0.41800000000E+01 0. -1.
        -11    1    4    4    0    0  0.84376338012E+02 -0.48636768216E+02  0.10880771363E+03  0.14602746380E+03  0.00000000000E+00 0.  1.
         11    1    4    4    0    0  0.81643850659E+02 -0.10934565002E+03  0.40841084077E+02  0.14244361578E+03  0.00000000000E+00 0. -1.
</event>
<event>
 8    1  0.7168478E-009  0.9164274E+02  0.7561462E-02  0.1298922E+00
          1   -1    0    0  501    0  0.00000000000E+00  0.00000000000E+00  0.67016467744E+03  0.67016467744E+03  0.00000000000E+00 0. -1.
         -1   -1    0    0    0  501 -0.00000000000E+00 -0.00000000000E+00 -0.20099959467E+02  0.20099959467E+02  0.00000000000E+00 0.  1.
         25    2    1    2    0    0  0.97817072094E+01  0.35088945564E+02  0.32297457577E+03  0.34826310850E+03  0.12509076804E+03 0.  0.
         23    2    1    2    0    0 -0.97817072094E+01 -0.35088945564E+02  0.32709014221E+03  0.34200152841E+03  0.93006281577E+02 0.  0.
          5    1    3    3  502    0  0.41932907913E+02  0.34831207665E+02  0.52319342593E+02  0.75672767908E+02  0.41800000000E+01 0.  1.
         -5    1    3    3    0  502 -0.32151200703E+02  0.25773789966E+00  0.27065523318E+03  0.27259034059E+03  0.41800000000E+01 0.  1.
        -11    1    4    4    0    0 -0.49125159750E+02 -0.11989586924E+02  0.12531679751E+03  0.13513449320E+03  0.00000000000E+00 0.  1.
         11    1    4    4    0    0  0.39343452541E+02 -0.23099358641E+02  0.20177334469E+03  0.20686703521E+03  0.00000000000E+00 0. -1.
</event>
<event>
 8    1  0.7168478E-009  0.7487839E+02  0.7561462E-02  0.1344248E+00
         -1   -1    0    0    0  501 -0.00000000000E+00  0.00000000000E+00  0.96569787675E+02  0.96569787675E+02  0.00000000000E+00 0.  1.
          1   -1    0    0  501    0  0.00000000000E+00 -0.00000000000E+00 -0.17131944039E+03  0.17131944039E+03  0.00000000000E+00 0. -1.
         25    2    1    2    0    0  0.15034124487E+02 -0.61567086708E+02 -0.18782462896E+02  0.14147877333E+03  0.12508769455E+03 0.  0.
         23    2    1    2    0    0 -0.15034124487E+02  0.61567086708E+02 -0.55967189824E+02  0.12641045473E+03  0.93972047250E+02 0.  0.
          5    1    3    3  502    0 -0.11167019552E+02 -0.99186401709E+01 -0.65276066948E+02  0.67093360810E+02  0.41800000000E+01 0. -1.
         -5    1    3    3    0  502  0.26201144039E+02 -0.51648446538E+02  0.46493604053E+02  0.74385412525E+02  0.41800000000E+01 0. -1.
        -11    1    4    4    0    0 -0.29666116124E+02  0.46672377378E+02 -0.78285024392E+02  0.95848496598E+02  0.00000000000E+00 0. -1.
         11    1    4    4    0    0  0.14631991637E+02  0.14894709330E+02  0.22317834568E+02  0.30561958136E+02  0.00000000000E+00 0.  1.
</event>
<event>
 8    1  0.7168478E-009  0.8679147E+02  0.7561462E-02  0.1310813E+00
         -3   -1    0    0    0  501 -0.00000000000E+00  0.00000000000E+00  0.14283493672E+03  0.14283493672E+03  0.00000000000E+00 0.  1.
          3   -1    0    0  501    0  0.00000000000E+00 -0.00000000000E+00 -0.14759721925E+03  0.14759721925E+03  0.00000000000E+00 0. -1.
         25    2    1    2    0    0  0.50382927730E+02 -0.31176552915E+02  0.76024303581E+02  0.15791708389E+03  0.12509074222E+03 0.  0.
         23    2    1    2    0    0 -0.50382927730E+02  0.31176552915E+02 -0.80786586113E+02  0.13251507208E+03  0.86737275570E+02 0.  0.
          5    1    3    3  502    0 -0.10893717023E+02 -0.48739672169E+02 -0.96613421298E+01  0.51039618390E+02  0.41800000000E+01 0. -1.
         -5    1    3    3    0  502  0.61276644753E+02  0.17563119254E+02  0.85685645710E+02  0.10687746550E+03  0.41800000000E+01 0. -1.
        -11    1    4    4    0    0 -0.27576647853E+02  0.13347824620E+02 -0.95320673393E+02  0.10012325756E+03  0.00000000000E+00 0. -1.
         11    1    4    4    0    0 -0.22806279876E+02  0.17828728295E+02  0.14534087280E+02  0.32391814514E+02  0.00000000000E+00 0.  1.
</event>
<event>
 8    1  0.7168478E-009  0.1243606E+03  0.7561462E-02  0.1236072E+00
         -2   -1    0    0    0  501 -0.00000000000E+00  0.00000000000E+00  0.16988656468E+03  0.16988656468E+03  0.00000000000E+00 0. -1.
          2   -1    0    0  501    0  0.00000000000E+00 -0.00000000000E+00 -0.11645684373E+03  0.11645684373E+03  0.00000000000E+00 0.  1.
         25    2    1    2    0    0  0.41549611866E+02  0.71873569411E+02 -0.48628078021E+01  0.15021262414E+03  0.12509198745E+03 0.  0.
         23    2    1    2    0    0 -0.41549611866E+02 -0.71873569411E+02  0.58292528750E+02  0.13613078426E+03  0.90782108867E+02 0.  0.
          5    1    3    3  502    0 -0.28893588859E+02 -0.15965723495E+02  0.13764010609E+02  0.36009223706E+02  0.41800000000E+01 0.  1.
         -5    1    3    3    0  502  0.70443200725E+02  0.87839292906E+02 -0.18626818411E+02  0.11420340043E+03  0.41800000000E+01 0.  1.
        -11    1    4    4    0    0 -0.23385356517E+02  0.48880752780E+01 -0.15202050443E+02  0.28317318323E+02  0.00000000000E+00 0.  1.
         11    1    4    4    0    0 -0.18164255350E+02 -0.76761644689E+02  0.73494579193E+02  0.10781346594E+03  0.00000000000E+00 0. -1.
</event>
<event>
 8    1  0.7168478E-009  0.1731739E+03  0.7561462E-02  0.1174578E+00
          1   -1    0    0  501    0  0.00000000000E+00  0.00000000000E+00  0.44320899852E+02  0.44320899852E+02  0.00000000000E+00 0. -1.
         -1   -1    0    0    0  501 -0.00000000000E+00 -0.00000000000E+00 -0.11079989720E+04  0.11079989720E+04  0.00000000000E+00 0.  1.
         25    2    1    2    0    0 -0.83057545518E+02  0.13628603220E+03 -0.82924841320E+03  0.85368089458E+03  0.12508277477E+03 0.  0.
         23    2    1    2    0    0  0.83057545518E+02 -0.13628603220E+03 -0.23442965891E+03  0.29863897723E+03  0.93571017435E+02 0.  0.
          5    1    3    3  502    0 -0.10312820017E+03  0.10522005632E+03 -0.47147498509E+03  0.49397653779E+03  0.41800000000E+01 0. -1.
         -5    1    3    3    0  502  0.20070654647E+02  0.31065975877E+02 -0.35777342811E+03  0.35970435679E+03  0.41800000000E+01 0. -1.
        -11    1    4    4    0    0  0.42278949469E+01 -0.25021922948E+02 -0.11375312303E+03  0.11654932314E+03  0.00000000000E+00 0.  1.
         11    1    4    4    0    0  0.78829650572E+02 -0.11126410925E+03 -0.12067653588E+03  0.18208965410E+03  0.00000000000E+00 0. -1.
</event>
<event>
 8    1  0.7168478E-009  0.1308919E+03  0.7561462E-02  0.1226138E+00
          1   -1    0    0  501    0  0.00000000000E+00  0.00000000000E+00  0.10496947807E+03  0.10496947807E+03  0.00000000000E+00 0. -1.
         -1   -1    0    0    0  501 -0.00000000000E+00 -0.00000000000E+00 -0.21902078550E+03  0.21902078550E+03  0.00000000000E+00 0.  1.
         25    2    1    2    0    0 -0.90327014275E+02  0.54094367284E+02 -0.70664448825E+02  0.17812108735E+03  0.12509391413E+03 0.  0.
         23    2    1    2    0    0  0.90327014275E+02 -0.54094367284E+02 -0.43386858605E+02  0.14586917621E+03  0.91160446404E+02 0.  0.
          5    1    3    3  502    0 -0.10385968768E+03  0.15470275774E+02 -0.84362367267E+02  0.13476143947E+03  0.41800000000E+01 0. -1.
         -5    1    3    3    0  502  0.13532673409E+02  0.38624091511E+02  0.13697918442E+02  0.43359647880E+02  0.41800000000E+01 0. -1.
        -11    1    4    4    0    0  0.80793689383E+01 -0.28190847060E+02 -0.51493549893E+02  0.59258634316E+02  0.00000000000E+00 0.  1.
         11    1    4    4    0    0  0.82247645337E+02 -0.25903520224E+02  0.81066912879E+01  0.86610541893E+02  0.00000000000E+00 0. -1.
</event>
<event>
 8    1  0.7168478E-009  0.1384235E+03  0.7561462E-02  0.1215466E+00
         -2   -1    0    0    0  501 -0.00000000000E+00  0.00000000000E+00  0.35050630389E+02  0.35050630389E+02  0.00000000000E+00 0. -1.
          2   -1    0    0  501    0  0.00000000000E+00 -0.00000000000E+00 -0.71006394341E+03  0.71006394341E+03  0.00000000000E+00 0.  1.
         25    2    1    2    0    0  0.35903101620E+02 -0.10545871113E+03 -0.43149933895E+03  0.46287174649E+03  0.12509197304E+03 0.  0.
         23    2    1    2    0    0 -0.35903101620E+02  0.10545871113E+03 -0.24351397407E+03  0.28224282731E+03  0.89170541899E+02 0.  0.
          5    1    3    3  502    0  0.29883016751E+02  0.68314837076E+01 -0.21409875422E+02  0.37623384024E+02  0.41800000000E+01 0. -1.
         -5    1    3    3    0  502  0.60200848689E+01 -0.11229019484E+03 -0.41008946353E+03  0.42524836246E+03  0.41800000000E+01 0. -1.
        -11    1    4    4    0    0 -0.17614462768E+02 -0.73588582479E+01 -0.83187844235E+02  0.85350099718E+02  0.00000000000E+00 0.  1.
         11    1    4    4    0    0 -0.18288638852E+02  0.11281756938E+03 -0.16032612983E+03  0.19689272759E+03  0.00000000000E+00 0. -1.
</event>
<event>
 8    1  0.7168478E-009  0.1236861E+03  0.7561462E-02  0.1237137E+00
         -2   -1    0    0    0  501 -0.00000000000E+00  0.00000000000E+00  0.13581354650E+03  0.13581354650E+03  0.00000000000E+00 0.  1.
          2   -1    0    0  501    0  0.00000000000E+00 -0.00000000000E+00 -0.31666541719E+03  0.31666541719E+03  0.00000000000E+00 0. -1.
         25    2    1    2    0    0  0.85800872657E+02 -0.43248545456E+02 -0.25600818513E+03  0.30069673654E+03  0.12508441182E+03 0.  0.
         23    2    1    2    0    0 -0.85800872657E+02  0.43248545456E+02  0.75156314434E+02  0.15178222715E+03  0.90316922252E+02 0.  0.
          5    1    3    3  502    0  0.32079452204E+02 -0.72837760110E+02 -0.20784867199E+03  0.22260497164E+03  0.41800000000E+01 0. -1.
         -5    1    3    3    0  502  0.53721420453E+02  0.29589214655E+02 -0.48159513144E+02  0.78091764903E+02  0.41800000000E+01 0. -1.
        -11    1    4    4    0    0 -0.23253659952E+02 -0.87658135877E+01 -0.16038335327E+02  0.29577024683E+02  0.00000000000E+00 0. -1.
         11    1    4    4    0    0 -0.62547212705E+02  0.52014359043E+02  0.91194649761E+02  0.12220520246E+03  0.00000000000E+00 0.  1.
</event>
<event>
 8    1  0.7168478E-009  0.1146761E+03  0.7561462E-02  0.1252148E+00
          2   -1    0    0  501    0  0.00000000000E+00  0.00000000000E+00  0.16753553167E+03  0.16753553167E+03  0.00000000000E+00 0. -1.
         -2   -1    0    0    0  501 -0.00000000000E+00 -0.00000000000E+00 -0.11770922762E+03  0.11770922762E+03  0.00000000000E+00 0.  1.
         25    2    1    2    0    0 -0.90813393598E+02  0.33618163846E+01  0.30188600151E+02  0.15753171670E+03  0.12508603407E+03 0.  0.
         23    2    1    2    0    0  0.90813393598E+02 -0.33618163846E+01  0.19637703903E+02  0.12771304260E+03  0.87559166102E+02 0.  0.
          5    1    3    3  502    0 -0.19164831419E+01 -0.39443814381E+02 -0.22456961520E+02  0.45620992111E+02  0.41800000000E+01 0.  1.
         -5    1    3    3    0  502 -0.88896910456E+02  0.42805630765E+02  0.52645561671E+02  0.11191072459E+03  0.41800000000E+01 0.  1.
        -11    1    4    4    0    0  0.20587979114E+02 -0.16528069589E+00 -0.33685597057E+02  0.39479255955E+02  0.00000000000E+00 0.  1.
         11    1    4    4    0    0  0.70225414484E+02 -0.31965356887E+01  0.53323300960E+02  0.88233786642E+02  0.00000000000E+00 0. -1.
</event>
<event>
 8    1  0.7168478E-009  0.1342243E+03  0.7561462E-02  0.1221319E+00
          2   -1    0    0  501    0  0.00000000000E+00  0.00000000000E+00  0.74991404977E+03  0.74991404977E+03  0.00000000000E+00 0. -1.
         -2   -1    0    0    0  501 -0.00000000000E+00 -0.00000000000E+00 -0.25994459725E+02  0.25994459725E+02  0.00000000000E+00 0.  1.
         25    2    1    2    0    0 -0.75366103626E+02  0.31926201363E+02  0.48227489988E+03  0.50491201966E+03  0.12509091348E+03 0.  0.
         23    2    1    2    0    0  0.75366103626E+02 -0.31926201363E+02  0.24164469017E+03  0.27099648984E+03  0.91365252189E+02 0.  0.
          5    1    3    3  502    0 -0.44558837646E+02 -0.45182326948E+02  0.16237351626E+03  0.17438338185E+03  0.41800000000E+01 0. -1.
         -5    1    3    3    0  502 -0.30807265979E+02  0.77108528312E+02  0.31990138362E+03  0.33052863782E+03  0.41800000000E+01 0. -1.
        -11    1    4    4    0    0 -0.19985773400E+02 -0.14718370749E+02  0.64028079448E+02  0.68670638075E+02  0.00000000000E+00 0. -1.
         11    1    4    4    0    0  0.95351877026E+02 -0.17207830615E+02  0.17761661072E+03  0.20232585176E+03  0.00000000000E+00 0.  1.
</event>
<event>
 8    1  0.7168478E-009  0.1437173E+03  0.7561462E-02  0.1208413E+00
         -1   -1    0    0    0  501 -0.00000000000E+00  0.00000000000E+00  0.40713527814E+02  0.40713527814E+02  0.00000000000E+00 0.  1.
          1   -1    0    0  501    0  0.00000000000E+00 -0.00000000000E+00 -0.76018631747E+03  0.76018631747E+03  0.00000000000E+00 0. -1.
         25    2    1    2    0    0  0.12685283038E+03  0.35659154661E+02 -0.48176099703E+03  0.51488313355E+03  0.12509103515E+03 0.  0.
         23    2    1    2    0    0 -0.12685283038E+03 -0.35659154661E+02 -0.23771179263E+03  0.28601671173E+03  0.89081126786E+02 0.  0.
          5    1    3    3  502    0 -0.72777865421E+01  0.44929125851E+01  0.37293503931E+01  0.10224132961E+02  0.41800000000E+01 0. -1.
         -5    1    3    3    0  502  0.13413061692E+03  0.31166242076E+02 -0.48549034742E+03  0.50465900059E+03  0.41800000000E+01 0. -1.
        -11    1    4    4    0    0 -0.60930312287E+01 -0.16867652957E+02  0.86899990434E+00  0.17955442257E+02  0.00000000000E+00 0.  1.
         11    1    4    4    0    0 -0.12075979915E+03 -0.18791501704E+02 -0.23858079253E+03  0.26806126947E+03  0.00000000000E+00 0. -1.
</event>
<event>
 8    1  0.7168478E-009  0.1145671E+03  0.7561462E-02  0.1252339E+00
         -2   -1    0    0    0  501 -0.00000000000E+00  0.00000000000E+00  0.20223994449E+03  0.20223994449E+03  0.00000000000E+00 0.  1.
          2   -1    0    0  501    0  0.00000000000E+00 -0.00000000000E+00 -0.16438569080E+03  0.16438569080E+03  0.00000000000E+00 0. -1.
         25    2    1    2    0    0  0.38531920694E+02  0.32369263245E+02 -0.11866091264E+03  0.17961332416E+03  0.12509218964E+03 0.  0.
         23    2    1    2    0    0 -0.38531920694E+02 -0.32369263245E+02  0.15651516633E+03  0.18701231113E+03  0.89129844098E+02 0.  0.
          5    1    3    3  502    0  0.71770675389E+02 -0.18206339510E+02 -0.66297573202E+02  0.99475329889E+02  0.41800000000E+01 0. -1.
         -5    1    3    3    0  502 -0.33238754696E+02  0.50575602755E+02 -0.52363339440E+02  0.80137994266E+02  0.41800000000E+01 0. -1.
        -11    1    4    4    0    0 -0.98390021284E+01  0.26799741269E+02  0.85900951991E+02  0.90520747058E+02  0.00000000000E+00 0. -1.
         11    1    4    4    0    0 -0.28692918565E+02 -0.59169004514E+02  0.70614214334E+02  0.96491564072E+02  0.00000000000E+00 0.  1.
</event>
<event>
 8    1  0.7168478E-009  0.1321124E+03  0.7561462E-02  0.1224355E+00
          1   -1    0    0  501    0  0.00000000000E+00  0.00000000000E+00  0.12271858684E+03  0.12271858684E+03  0.00000000000E+00 0. -1.
         -1   -1    0    0    0  501 -0.00000000000E+00 -0.00000000000E+00 -0.25573300824E+03  0.25573300824E+03  0.00000000000E+00 0.  1.
         25    2    1    2    0    0 -0.66872973188E+02 -0.10518259108E+03 -0.14097574909E+03  0.22595775787E+03  0.12508946600E+03 0.  0.
         23    2    1    2    0    0  0.66872973188E+02  0.10518259108E+03  0.79613276901E+01  0.15249383720E+03  0.87496375003E+02 0.  0.
          5    1    3    3  502    0 -0.35609159791E+02 -0.27757841030E+02  0.16019716271E+02  0.48089642430E+02  0.41800000000E+01 0. -1.
         -5    1    3    3    0  502 -0.31263813397E+02 -0.77424750045E+02 -0.15699546536E+03  0.17786811544E+03  0.41800000000E+01 0. -1.
        -11    1    4    4    0    0  0.48743708230E+02  0.10647652643E+03 -0.20342161926E+02  0.11885707099E+03  0.00000000000E+00 0.  1.
         11    1    4    4    0    0  0.18129264958E+02 -0.12939353593E+01  0.28303489616E+02  0.33636766210E+02  0.00000000000E+00 0. -1.
</event>
<event>
 8    1  0.7168478E-009  0.9540071E+02  0.7561462E-02  0.1290276E+00
          1   -1    0    0  501    0  0.00000000000E+00  0.00000000000E+00  0.56730769297E+02  0.56730769297E+02  0.00000000000E+00 0. -1.
         -1   -1    0    0    0  501 -0.00000000000E+00 -0.00000000000E+00 -0.21414612674E+03  0.21414612674E+03  0.00000000000E+00 0.  1.
         25    2    1    2    0    0 -0.10763743568E+02 -0.13505682833E+00 -0.67087973751E+02  0.14235674561E+03  0.12509504539E+03 0.  0.
         23    2    1    2    0    0  0.10763743568E+02  0.13505682833E+00 -0.90327383686E+02  0.12852015043E+03  0.90788305446E+02 0.  0.
          5    1    3    3  502    0 -0.47149487521E+02  0.41950792027E+02 -0.12838102549E+02  0.64538611716E+02  0.41800000000E+01 0.  1.
         -5    1    3    3    0  502  0.36385743952E+02 -0.42085848855E+02 -0.54249871202E+02  0.77818133891E+02  0.41800000000E+01 0.  1.
        -11    1    4    4    0    0  0.31511188634E+02 -0.24237450786E+02 -0.87838829434E+02  0.96416124098E+02  0.00000000000E+00 0.  1.
         11    1    4    4    0    0 -0.20747445066E+02  0.24372507615E+02 -0.24885542527E+01  0.32104026328E+02  0.00000000000E+00 0. -1.
</event>
<event>
 8    1  0.7168478E-009  0.1251216E+03  0.7561462E-02  0.1234879E+00
          2   -1    0    0  501    0  0.00000000000E+00  0.00000000000E+00  0.12412815159E+03  0.12412815159E+03  0.00000000000E+00 0.  1.
         -2   -1    0    0    0  501 -0.00000000000E+00 -0.00000000000E+00 -0.14707039982E+03  0.14707039982E+03  0.00000000000E+00 0. -1.
         25    2    1    2    0    0  0.37068647002E+02 -0.64566534002E+02 -0.41377052458E+02  0.15132796691E+03  0.12508065876E+03 0.  0.
         23    2    1    2    0    0 -0.37068647002E+02  0.64566534002E+02  0.18434804226E+02  0.11987058451E+03  0.92120535822E+02 0.  0.
          5    1    3    3  502    0 -0.37141104792E+02 -0.59524052210E+02 -0.27900224348E+02  0.75620561856E+02  0.41800000000E+01 0. -1.
         -5    1    3    3    0  502  0.74209751793E+02 -0.50424817915E+01 -0.13476828110E+02  0.75707405052E+02  0.41800000000E+01 0. -1.
        -11    1    4    4    0    0  0.22389597596E+02  0.91720258708E+01  0.29172141974E+02  0.37900316707E+02  0.00000000000E+00 0.  1.
         11    1    4    4    0    0 -0.59458244598E+02  0.55394508131E+02 -0.10737337749E+02  0.81970267802E+02  0.00000000000E+00 0. -1.
</event>
<event>
 8    1  0.7168478E-009  0.1039842E+03  0.7561462E-02  0.1272134E+00
          4   -1    0    0  501    0  0.00000000000E+00  0.00000000000E+00  0.11618558872E+03  0.11618558872E+03  0.00000000000E+00 0. -1.
         -4   -1    0    0    0  501 -0.00000000000E+00 -0.00000000000E+00 -0.13067400614E+03  0.13067400614E+03  0.00000000000E+00 0.  1.
         25    2    1    2    0    0  0.43646865715E+02 -0.36458319390E+02  0.24186502072E+01  0.13743073027E+03  0.12508836003E+03 0.  0.
         23    2    1    2    0    0 -0.43646865715E+02  0.36458319390E+02 -0.16907067623E+02  0.10942886458E+03  0.91948733153E+02 0.  0.
          5    1    3    3  502    0 -0.35678922120E+02 -0.28431084772E+02 -0.26008662910E+02  0.52680499346E+02  0.41800000000E+01 0. -1.
         -5    1    3    3    0  502  0.79325787835E+02 -0.80272346186E+01  0.28427313117E+02  0.84750230928E+02  0.41800000000E+01 0. -1.
        -11    1    4    4    0    0 -0.28269216006E+02  0.52790539392E+02  0.22593048133E+02  0.64003401837E+02  0.00000000000E+00 0. -1.
         11    1    4    4    0    0 -0.15377649710E+02 -0.16332220001E+02 -0.39500115756E+02  0.45425462744E+02  0.00000000000E+00 0.  1.
</event>
<event>
 8    1  0.7168478E-009  0.1629798E+03  0.7561462E-02  0.1185373E+00
         -2   -1    0    0    0  501 -0.00000000000E+00  0.00000000000E+00  0.10659991402E+04  0.10659991402E+04  0.00000000000E+00 0.  1.
          2   -1    0    0  501    0  0.00000000000E+00 -0.00000000000E+00 -0.34975884522E+02  0.34975884522E+02  0.00000000000E+00 0. -1.
         25    2    1    2    0    0  0.11128441657E+03  0.87753250367E+02  0.74403595852E+03  0.76767183204E+03  0.12508269189E+03 0.  0.
         23    2    1    2    0    0 -0.11128441657E+03 -0.87753250367E+02  0.28698729719E+03  0.33330319272E+03  0.92975562414E+02 0.  0.
          5    1    3    3  502    0 -0.87209975279E+01  0.49458134718E+02  0.10681856799E+03  0.11810944820E+03  0.41800000000E+01 0.  1.
         -5    1    3    3    0  502  0.12000541410E+03  0.38295115649E+02  0.63721739053E+03  0.64956238383E+03  0.41800000000E+01 0.  1.
        -11    1    4    4    0    0 -0.10227672306E+03 -0.56171064477E+02  0.27431518095E+03  0.29810155159E+03  0.00000000000E+00 0. -1.
         11    1    4    4    0    0 -0.90076935079E+01 -0.31582185890E+02  0.12672116249E+02  0.35201641129E+02  0.00000000000E+00 0.  1.
</event>
<event>
 8    1  0.7168478E-009  0.1194032E+03  0.7561462E-02  0.1244085E+00
         -3   -1    0    0    0  501 -0.00000000000E+00  0.00000000000E+00  0.20666645414E+02  0.20666645414E+02  0.00000000000E+00 0.  1.
          3   -1    0    0  501    0  0.00000000000E+00 -0.00000000000E+00 -0.75776011670E+03  0.75776011670E+03  0.00000000000E+00 0. -1.
         25    2    1    2    0    0 -0.37936246894E+02  0.41520327478E+02 -0.32686548801E+03  0.35447299334E+03  0.12508780650E+03 0.  0.
         23    2    1    2    0    0  0.37936246894E+02 -0.41520327478E+02 -0.41022798328E+03  0.42395376878E+03  0.91031331813E+02 0.  0.
          5    1    3    3  502    0  0.19288250943E+02 -0.35783297759E+02 -0.95066002943E+02  0.10347704257E+03  0.41800000000E+01 0.  1.
         -5    1    3    3    0  502 -0.57224497836E+02  0.77303625237E+02 -0.23179948506E+03  0.25099595077E+03  0.41800000000E+01 0.  1.
        -11    1    4    4    0    0  0.29801538789E+02 -0.67853726446E+02 -0.34939927118E+03  0.35717238220E+03  0.00000000000E+00 0. -1.
         11    1    4    4    0    0  0.81347081053E+01  0.26333398967E+02 -0.60828712102E+02  0.66781386577E+02  0.00000000000E+00 0.  1.
</event>
<event>
 8    1  0.7168478E-009  0.1852767E+03  0.7561462E-02  0.1162792E+00
          1   -1    0    0  501    0  0.00000000000E+00  0.00000000000E+00  0.30622175977E+03  0.30622175977E+03  0.00000000000E+00 0. -1.
         -1   -1    0    0    0  501 -0.00000000000E+00 -0.00000000000E+00 -0.26714373773E+03  0.26714373773E+03  0.00000000000E+00 0.  1.
         25    2    1    2    0    0  0.12382508612E+02  0.16284198772E+03 -0.18793155113E+03  0.27863781317E+03  0.12509965440E+03 0.  0.
         23    2    1    2    0    0 -0.12382508612E+02 -0.16284198772E+03  0.22700957317E+03  0.29472768434E+03  0.93060314408E+02 0.  0.
          5    1    3    3  502    0  0.65635794139E+02  0.65959738589E+02 -0.67028361065E+02  0.11475634263E+03  0.41800000000E+01 0. -1.
         -5    1    3    3    0  502 -0.53253285527E+02  0.96882249132E+02 -0.12090319007E+03  0.16388147054E+03  0.41800000000E+01 0. -1.
        -11    1    4    4    0    0 -0.22777136711E+02 -0.13766000979E+03  0.11915504226E+03  0.18348569521E+03  0.00000000000E+00 0.  1.
         11    1    4    4    0    0  0.10394628099E+02 -0.25181977935E+02  0.10785453092E+03  0.11124198913E+03  0.00000000000E+00 0. -1.
</event>
<event>
 8    1  0.7168478E-009  0.9713899E+02  0.7561462E-02  0.1286430E+00
         -2   -1    0    0    0  501 -0.00000000000E+00  0.00000000000E+00  0.20406909454E+02  0.20406909454E+02  0.00000000000E+00 0.  1.
          2   -1    0    0  501    0  0.00000000000E+00 -0.00000000000E+00 -0.74081863994E+03  0.74081863994E+03  0.00000000000E+00 0. -1.
         25    2    1    2    0    0  0.35162411780E+02 -0.17313201461E+02 -0.54438911436E+03  0.55994842497E+03  0.12508632475E+03 0.  0.
         23    2    1    2    0    0 -0.35162411780E+02  0.17313201461E+02 -0.17602261612E+03  0.20127712443E+03  0.89400096666E+02 0.  0.
          5    1    3    3  502    0 -0.44751273230E+02 -0.22243368989E+02 -0.18091585332E+03  0.18773774874E+03  0.41800000000E+01 0. -1.
         -5    1    3    3    0  502  0.79913685010E+02  0.49301675283E+01 -0.36347326104E+03  0.37221067622E+03  0.41800000000E+01 0. -1.
        -11    1    4    4    0    0  0.22443651678E+00  0.27208996493E+02 -0.67125026100E+01  0.28025658836E+02  0.00000000000E+00 0.  1.
         11    1    4    4    0    0 -0.35386848297E+02 -0.98957950325E+01 -0.16931011351E+03  0.17325146559E+03  0.00000000000E+00 0. -1.
</event>
<event>
 8    1  0.7168478E-009  0.1712395E+03  0.7561462E-02  0.1176561E+00
          2   -1    0    0  501    0  0.00000000000E+00  0.00000000000E+00  0.10700985768E+04  0.10700985768E+04  0.00000000000E+00 0. -1.
         -2   -1    0    0    0  501 -0.00000000000E+00 -0.00000000000E+00 -0.32586239953E+02  0.32586239953E+02  0.00000000000E+00 0.  1.
         25    2    1    2    0    0 -0.13415693992E+03  0.57442489341E+02  0.66597700751E+03  0.69316230799E+03  0.12510350341E+03 0.  0.
         23    2    1    2    0    0  0.13415693992E+03 -0.57442489341E+02  0.37153532928E+03  0.40952250872E+03  0.91501148254E+02 0.  0.
          5    1    3    3  502    0  0.12707117202E+02 -0.13503352070E+02  0.16953070391E+03  0.17059291695E+03  0.41800000000E+01 0. -1.
         -5    1    3    3    0  502 -0.14686405712E+03  0.70945841411E+02  0.49644630361E+03  0.52256939104E+03  0.41800000000E+01 0. -1.
        -11    1    4    4    0    0  0.93044031222E+02 -0.70984508324E+02  0.19210732709E+03  0.22494714333E+03  0.00000000000E+00 0.  1.
         11    1    4    4    0    0  0.41112908695E+02  0.13542018983E+02  0.17942800219E+03  0.18457536539E+03  0.00000000000E+00 0. -1.
</event>
<event>
 8    1  0.7168478E-009  0.1267017E+03  0.7561462E-02  0.1232434E+00
         -3   -1    0    0    0  501 -0.00000000000E+00  0.00000000000E+00  0.37254135047E+02  0.37254135047E+02  0.00000000000E+00 0.  1.
          3   -1    0    0  501    0  0.00000000000E+00 -0.00000000000E+00 -0.43924989962E+03  0.43924989962E+03  0.00000000000E+00 0. -1.
         25    2    1    2    0    0  0.61786511204E+02  0.37952673302E+02 -0.20548485055E+03  0.25125623622E+03  0.12509074329E+03 0.  0.
         23    2    1    2    0    0 -0.61786511204E+02 -0.37952673302E+02 -0.19651091402E+03  0.22524779845E+03  0.82837509603E+02 0.  0.
          5    1    3    3  502    0 -0.31251107964E+02 -0.16931662970E+02 -0.40920862344E+02  0.54362692491E+02  0.41800000000E+01 0.  1.
         -5    1    3    3    0  502  0.93037619168E+02  0.54884336272E+02 -0.16456398821E+03  0.19689354373E+03  0.41800000000E+01 0.  1.
        -11    1    4    4    0    0  0.78069324525E+01 -0.39140049932E+02 -0.60810754243E+02  0.72738157350E+02  0.00000000000E+00 0.  1.
         11    1    4    4    0    0 -0.69593443657E+02  0.11873766297E+01 -0.13570015978E+03  0.15250964110E+03  0.00000000000E+00 0. -1.
</event>
<event>
 8    1  0.7168478E-009  0.1461818E+03  0.7561462E-02  0.1205245E+00
          1   -1    0    0  501    0  0.00000000000E+00  0.00000000000E+00  0.23783816420E+03  0.23783816420E+03  0.00000000000E+00 0. -1.
         -1   -1    0    0    0  501 -0.00000000000E+00 -0.00000000000E+00 -0.11188276684E+03  0.11188276684E+03  0.00000000000E+00 0.  1.
         25    2    1    2    0    0  0.35322126655E+02 -0.11624426567E+03  0.75734459706E+02  0.19011515259E+03  0.12509069080E+03 0.  0.
         23    2    1    2    0    0 -0.35322126655E+02  0.11624426567E+03  0.50220937656E+02  0.15960577844E+03  0.90506795329E+02 0.  0.
          5    1    3    3  502    0 -0.69168754001E+01  0.19472393046E+02 -0.10766448678E+02  0.23672897444E+02  0.41800000000E+01 0. -1.
         -5    1    3    3    0  502  0.42239002055E+02 -0.13571665872E+03  0.86500908384E+02  0.16644225515E+03  0.41800000000E+01 0. -1.
        -11    1    4    4    0    0 -0.44019903631E+02  0.75295363595E+02 -0.83443510261E+01  0.87617189459E+02  0.00000000000E+00 0.  1.
         11    1    4    4    0    0  0.86977769763E+01  0.40948902074E+02  0.58565288683E+02  0.71988588984E+02  0.00000000000E+00 0. -1.
</event>
<event>
 8    1  0.7168478E-009  0.9840814E+02  0.7561462E-02  0.1283679E+00
          4   -1    0    0  501    0  0.00000000000E+00  0.00000000000E+00  0.56267681215E+02  0.56267681215E+02  0.00000000000E+00 0. -1.
         -4   -1    0    0    0  501 -0.00000000000E+00 -0.00000000000E+00 -0.29152039460E+03  0.29152039460E+03  0.00000000000E+00 0.  1.
         25    2    1    2    0    0 -0.70772975584E+01 -0.50941051158E+02 -0.69740951397E+02  0.15217105536E+03  0.12508857244E+03 0.  0.
         23    2    1    2    0    0  0.70772975584E+01  0.50941051158E+02 -0.16551176198E+03  0.19561702045E+03  0.90701689622E+02 0.  0.
          5    1    3    3  502    0 -0.50575095429E+02 -0.19631995046E+02  0.10667338308E+02  0.55448354473E+02  0.41800000000E+01 0.  1.
         -5    1    3    3    0  502  0.43497797871E+02 -0.31309056112E+02 -0.80408289705E+02  0.96722700890E+02  0.41800000000E+01 0.  1.
        -11    1    4    4    0    0 -0.32714028497E+02  0.21464955197E+02 -0.24504728734E+02  0.46167452740E+02  0.00000000000E+00 0. -1.
         11    1    4    4    0    0  0.39791326056E+02  0.29476095961E+02 -0.14100703325E+03  0.14944956771E+03  0.00000000000E+00 0.  1.
</event>
<event>
 8    1  0.7168478E-009  0.1385795E+03  0.7561462E-02  0.1215253E+00
         -2   -1    0    0    0  501 -0.00000000000E+00  0.00000000000E+00  0.66200728810E+02  0.66200728810E+02  0.00000000000E+00 0.  1.
          2   -1    0    0  501    0  0.00000000000E+00 -0.00000000000E+00 -0.35516671287E+03  0.35516671287E+03  0.00000000000E+00 0. -1.
         25    2    1    2    0    0 -0.72515264488E+02 -0.79685694227E+02 -0.16399086621E+03  0.23269463620E+03  0.12508203735E+03 0.  0.
         23    2    1    2    0    0  0.72515264488E+02  0.79685694227E+02 -0.12497511785E+03  0.18867280548E+03  0.91489748041E+02 0.  0.
          5    1    3    3  502    0 -0.89983689244E+02 -0.30976817942E+02 -0.50325423270E+02  0.10773461935E+03  0.41800000000E+01 0.  1.
         -5    1    3    3    0  502  0.17468424756E+02 -0.48708876285E+02 -0.11366544294E+03  0.12496001685E+03  0.41800000000E+01 0.  1.
        -11    1    4    4    0    0  0.81476050043E+02  0.42812222732E+02 -0.50246322839E+02  0.10486146149E+03  0.00000000000E+00 0.  1.
         11    1    4    4    0    0 -0.89607855552E+01  0.36873471495E+02 -0.74728795013E+02  0.83811343993E+02  0.00000000000E+00 0. -1.
</event>
<event>
 8    1  0.7168478E-009  0.8519485E+02  0.7561462E-02  0.1314924E+00
          2   -1    0    0  501    0  0.00000000000E+00  0.00000000000E+00  0.29658380859E+03  0.29658380859E+03  0.00000000000E+00 0. -1.
         -2   -1    0    0    0  501 -0.00000000000E+00 -0.00000000000E+00 -0.45030329872E+02  0.45030329872E+02  0.00000000000E+00 0.  1.
         25    2    1    2    0    0  0.23213062892E+02 -0.31782248441E+02  0.11995921183E+03  0.17772570399E+03  0.12508899132E+03 0.  0.
         23    2    1    2    0    0 -0.23213062892E+02  0.31782248441E+02  0.13159426689E+03  0.16388843448E+03  0.89405873816E+02 0.  0.
          5    1    3    3  502    0 -0.33528281968E+01 -0.61941696897E+02  0.12235660340E+03  0.13724658855E+03  0.41800000000E+01 0.  1.
         -5    1    3    3    0  502  0.26565891089E+02  0.30159448456E+02 -0.23973915718E+01  0.40479115440E+02  0.41800000000E+01 0.  1.
        -11    1    4    4    0    0  0.53890628817E+00  0.41963172432E+02  0.13151271201E+03  0.13804633889E+03  0.00000000000E+00 0. -1.
         11    1    4    4    0    0 -0.23751969180E+02 -0.10180923991E+02  0.81554880560E-01  0.25842095590E+02  0.00000000000E+00 0.  1.
</event>
<event>
 8    1  0.7168478E-009  0.1424438E+03  0.7561462E-02  0.1210078E+00
          2   -1    0    0  501    0  0.00000000000E+00  0.00000000000E+00  0.34319346530E+02  0.34319346530E+02  0.00000000000E+00 0. -1.
         -2   -1    0    0    0  501 -0.00000000000E+00 -0.00000000000E+00 -0.74788980695E+03  0.74788980695E+03  0.00000000000E+00 0.  1.
         25    2    1    2    0    0  0.80548703820E+02  0.54905599383E+02 -0.22156410168E+03  0.27247093811E+03  0.12508813865E+03 0.  0.
         23    2    1    2    0    0 -0.80548703820E+02 -0.54905599383E+02 -0.49200635874E+03  0.50973821537E+03  0.90884941761E+02 0.  0.
          5    1    3    3  502    0  0.65079696857E+02  0.91178173952E+02 -0.19439903358E+03  0.22440428473E+03  0.41800000000E+01 0. -1.
         -5    1    3    3    0  502  0.15469006962E+02 -0.36272574569E+02 -0.27165068102E+02  0.48066653381E+02  0.41800000000E+01 0. -1.
        -11    1    4    4    0    0 -0.86711714045E+02 -0.73420557919E+02 -0.41114809295E+03  0.42655861732E+03  0.00000000000E+00 0. -1.
         11    1    4    4    0    0  0.61630102251E+01  0.18514958536E+02 -0.80858265792E+02  0.83179598048E+02  0.00000000000E+00 0.  1.
</event>
<event>
 8    1  0.7168478E-009  0.1410791E+03  0.7561462E-02  0.1211884E+00
         -3   -1    0    0    0  501 -0.00000000000E+00  0.00000000000E+00  0.86512566182E+02  0.86512566182E+02  0.00000000000E+00 0. -1.
          3   -1    0    0  501    0  0.00000000000E+00 -0.00000000000E+00 -0.34439694736E+03  0.34439694736E+03  0.00000000000E+00 0.  1.
         25    2    1    2    0    0 -0.10523209800E+03 -0.82025803721E+02 -0.15327337305E+03  0.23862520591E+03  0.12508890873E+03 0.  0.
         23    2    1    2    0    0  0.10523209800E+03  0.82025803721E+02 -0.10461100814E+03  0.19228430763E+03  0.90707028464E+02 0.  0.
          5    1    3    3  502    0 -0.21485745325E+02 -0.41616553327E+02 -0.13607452989E+03  0.14396987479E+03  0.41800000000E+01 0.  1.
         -5    1    3    3    0  502 -0.83746352676E+02 -0.40409250395E+02 -0.17198843158E+02  0.94655331123E+02  0.41800000000E+01 0.  1.
        -11    1    4    4    0    0  0.66052887175E+02  0.20583338543E+02 -0.56884992586E+01  0.69419138237E+02  0.00000000000E+00 0. -1.
         11    1    4    4    0    0  0.39179210826E+02  0.61442465178E+02 -0.98922508877E+02  0.12286516940E+03  0.00000000000E+00 0.  1.
</event>
<event>
 8    1  0.7168478E-009  0.2005571E+03  0.7561462E-02  0.1149270E+00
          1   -1    0    0  501    0  0.00000000000E+00  0.00000000000E+00  0.86166774729E+03  0.86166774729E+03  0.00000000000E+00 0. -1.
         -1   -1    0    0    0  501 -0.00000000000E+00 -0.00000000000E+00 -0.53524324006E+02  0.53524324006E+02  0.00000000000E+00 0.  1.
         25    2    1    2    0    0  0.10241814806E+03 -0.15390652550E+03  0.47694211489E+03  0.52659056369E+03  0.12508854930E+03 0.  0.
         23    2    1    2    0    0 -0.10241814806E+03  0.15390652550E+03  0.33120130839E+03  0.38860150760E+03  0.84499286308E+02 0.  0.
          5    1    3    3  502    0  0.50710021470E+02 -0.14218274512E+03  0.23850170156E+03  0.28229058315E+03  0.41800000000E+01 0. -1.
         -5    1    3    3    0  502  0.51708126595E+02 -0.11723780379E+02  0.23844041333E+03  0.24429998054E+03  0.41800000000E+01 0. -1.
        -11    1    4    4    0    0 -0.68141385977E+02  0.42389621112E+02  0.89455746624E+02  0.12017678255E+03  0.00000000000E+00 0.  1.
         11    1    4    4    0    0 -0.34276762088E+02  0.11151690439E+03  0.24174556177E+03  0.26842472505E+03  0.00000000000E+00 0. -1.
</event>
<event>
 8    1  0.7168478E-009  0.1101405E+03  0.7561462E-02  0.1260310E+00
          1   -1    0    0  501    0  0.00000000000E+00  0.00000000000E+00  0.78150792734E+03  0.78150792734E+03  0.00000000000E+00 0. -1.
         -1   -1    0    0    0  501 -0.00000000000E+00 -0.00000000000E+00 -0.26096161756E+02  0.26096161756E+02  0.00000000000E+00 0.  1.
         25    2    1    2    0    0  0.25513489391E+02 -0.67880584687E+02  0.57042672916E+03  0.58846583449E+03  0.12508666238E+03 0.  0.
         23    2    1    2    0    0 -0.25513489391E+02  0.67880584687E+02  0.18498503643E+03  0.21913825461E+03  0.92430509097E+02 0.  0.
          5    1    3    3  502    0  0.50760165720E+02  0.18610277814E+02  0.20075822455E+03  0.20795257630E+03  0.41800000000E+01 0.  1.
         -5    1    3    3    0  502 -0.25246676329E+02 -0.86490862500E+02  0.36966850461E+03  0.38051325819E+03  0.41800000000E+01 0.  1.
        -11    1    4    4    0    0 -0.12652643991E+02  0.88442768361E+01 -0.76649896212E+01  0.17235506915E+02  0.00000000000E+00 0.  1.
         11    1    4    4    0    0 -0.12860845400E+02  0.59036307851E+02  0.19265002605E+03  0.20190274769E+03  0.00000000000E+00 0. -1.
</event>
<event>
 8    1  0.7168478E-009  0.1347541E+03  0.7561462E-02  0.1220567E+00
         -3   -1    0    0    0  501 -0.00000000000E+00  0.00000000000E+00  0.16087896876E+03  0.16087896876E+03  0.00000000000E+00 0.  1.
          3   -1    0    0  501    0  0.00000000000E+00 -0.00000000000E+00 -0.24142757346E+03  0.24142757346E+03  0.00000000000E+00 0. -1.
         25    2    1    2    0    0  0.10471494490E+03  0.58568160116E+02 -0.15832930069E+03  0.23475484433E+03  0.12508485286E+03 0.  0.
         23    2    1    2    0    0 -0.10471494490E+03 -0.58568160116E+02  0.77780695984E+02  0.16755169790E+03  0.87340058024E+02 0.  0.
          5    1    3    3  502    0  0.56122781921E+02  0.56440261509E+02 -0.12131818198E+02  0.80622101079E+02  0.41800000000E+01 0.  1.
         -5    1    3    3    0  502  0.48592162977E+02  0.21278986072E+01 -0.14619748249E+03  0.15413274325E+03  0.41800000000E+01 0.  1.
        -11    1    4    4    0    0  0.69933350661E+01 -0.22557885341E+02  0.35825027882E+02  0.42909177913E+02  0.00000000000E+00 0.  1.
         11    1    4    4    0    0 -0.11170827996E+03 -0.36010274775E+02  0.41955668103E+02  0.12464251998E+03  0.00000000000E+00 0. -1.
</event>
<event>
 8    1  0.7168478E-009  0.8372024E+02  0.7561462E-02  0.1318814E+00
         -4   -1    0    0    0  501 -0.00000000000E+00  0.00000000000E+00  0.33386463046E+03  0.33386463046E+03  0.00000000000E+00 0.  1.
          4   -1    0    0  501    0  0.00000000000E+00 -0.00000000000E+00 -0.39335832869E+02  0.39335832869E+02  0.00000000000E+00 0. -1.
         25    2    1    2    0    0 -0.13803656864E+02 -0.18684305912E+02  0.22219927203E+03  0.25604560847E+03  0.12508874008E+03 0.  0.
         23    2    1    2    0    0  0.13803656864E+02  0.18684305912E+02  0.72329525568E+02  0.11715485487E+03  0.89185511826E+02 0.  0.
          5    1    3    3  502    0  0.22913118288E+02  0.19349926129E+02  0.28923725998E+01  0.30418232199E+02  0.41800000000E+01 0.  1.
         -5    1    3    3    0  502 -0.36716775153E+02 -0.38034232041E+02  0.21930689943E+03  0.22562737627E+03  0.41800000000E+01 0.  1.
        -11    1    4    4    0    0  0.11435661011E+02  0.50726911946E+02  0.19928721391E+02  0.55687950893E+02  0.00000000000E+00 0. -1.
         11    1    4    4    0    0  0.23679958528E+01 -0.32042606034E+02  0.52400804176E+02  0.61466903974E+02  0.00000000000E+00 0.  1.
</event>
<event>
 8    1  0.7168478E-009  0.1581113E+03  0.7561462E-02  0.1190846E+00
          1   -1    0    0  501    0  0.00000000000E+00  0.00000000000E+00  0.14157946691E+03  0.14157946691E+03  0.00000000000E+00 0. -1.
         -1   -1    0    0    0  501 -0.00000000000E+00 -0.00000000000E+00 -0.18690330927E+03  0.18690330927E+03  0.00000000000E+00 0.  1.
         25    2    1    2    0    0 -0.55189447834E+02 -0.10717350143E+03 -0.35754433125E+02  0.17736387233E+03  0.12509008417E+03 0.  0.
         23    2    1    2    0    0  0.55189447834E+02  0.10717350143E+03 -0.95694092264E+01  0.15111890385E+03  0.90627341051E+02 0.  0.
          5    1    3    3  502    0 -0.78214145194E+02 -0.28532252422E+02  0.90977435037E+01  0.83855728925E+02  0.41800000000E+01 0.  1.
         -5    1    3    3    0  502  0.23024697359E+02 -0.78641249013E+02 -0.44852176629E+02  0.93508143405E+02  0.41800000000E+01 0.  1.
        -11    1    4    4    0    0 -0.16189437003E+02 -0.57847343347E+01 -0.13920816003E+01  0.17248156800E+02  0.00000000000E+00 0. -1.
         11    1    4    4    0    0  0.71378884838E+02  0.11295823577E+03 -0.81773276261E+01  0.13387074705E+03  0.00000000000E+00 0.  1.
</event>
<event>
 8    1  0.7168478E-009  0.7600575E+02  0.7561462E-02  0.1340785E+00
         -3   -1    0    0    0  501 -0.00000000000E+00  0.00000000000E+00  0.13019812532E+03  0.13019812532E+03  0.00000000000E+00 0. -1.
          3   -1    0    0  501    0  0.00000000000E+00 -0.00000000000E+00 -0.98998674330E+02  0.98998674330E+02  0.00000000000E+00 0.  1.
         25    2    1    2    0    0  0.11489515208E+01  0.30558127155E+02  0.21523845316E+02  0.13055880611E+03  0.12508879530E+03 0.  0.
         23    2    1    2    0    0 -0.11489515208E+01 -0.30558127155E+02  0.96756056694E+01  0.98637993537E+02  0.93277635043E+02 0.  0.
          5    1    3    3  502    0  0.20225044785E+02  0.74867742962E+00 -0.48096134608E+02  0.52348099476E+02  0.41800000000E+01 0.  1.
         -5    1    3    3    0  502 -0.19076093264E+02  0.29809449725E+02  0.69619979925E+02  0.78210706632E+02  0.41800000000E+01 0.  1.
        -11    1    4    4    0    0  0.14497774106E+02  0.29915700262E+02  0.13894578086E+02  0.36030457621E+02  0.00000000000E+00 0. -1.
         11    1    4    4    0    0 -0.15646725627E+02 -0.60473827417E+02 -0.42189724171E+01  0.62607535916E+02  0.00000000000E+00 0.  1.
</event>
<event>
 8    1  0.7168478E-009  0.1401215E+03  0.7561462E-02  0.1213166E+00
         -2   -1    0    0    0  501 -0.00000000000E+00  0.00000000000E+00  0.48747871756E+02  0.48747871756E+02  0.00000000000E+00 0.  1.
          2   -1    0    0  501    0  0.00000000000E+00 -0.00000000000E+00 -0.41545260718E+03  0.41545260718E+03  0.00000000000E+00 0. -1.
         25    2    1    2    0    0 -0.53858593276E+02 -0.71093901703E+02 -0.23880867221E+03  0.28395514718E+03  0.12508338322E+03 0.  0.
         23    2    1    2    0    0  0.53858593276E+02  0.71093901703E+02 -0.12789606321E+03  0.18024533175E+03  0.90420604424E+02 0.  0.
          5    1    3    3  502    0  0.25435474609E+02 -0.69546546711E+02 -0.11843731938E+03  0.13974461188E+03  0.41800000000E+01 0.  1.
         -5    1    3    3    0  502 -0.79294067885E+02 -0.15473549921E+01 -0.12037135283E+03  0.14421053530E+03  0.41800000000E+01 0.  1.
        -11    1    4    4    0    0  0.68868204993E+02  0.17582455080E+02 -0.78403740410E+02  0.10582588953E+03  0.00000000000E+00 0. -1.
         11    1    4    4    0    0 -0.15009611717E+02  0.53511446623E+02 -0.49492322800E+02  0.74419442216E+02  0.00000000000E+00 0.  1.
</event>
<event>
 8    1  0.7168478E-009  0.9112017E+02  0.7561462E-02  0.1300162E+00
         -1   -1    0    0    0  501 -0.00000000000E+00  0.00000000000E+00  0.57449179243E+02  0.57449179243E+02  0.00000000000E+00 0.  1.
          1   -1    0    0  501    0  0.00000000000E+00 -0.00000000000E+00 -0.33994440094E+03  0.33994440094E+03  0.00000000000E+00 0. -1.
         25    2    1    2    0    0 -0.18527249205E+02 -0.71921974104E+02 -0.88206204289E+02  0.17012784439E+03  0.12508844727E+03 0.  0.
         23    2    1    2    0    0  0.18527249205E+02  0.71921974104E+02 -0.19428901741E+03  0.22726573579E+03  0.91572174031E+02 0.  0.
          5    1    3    3  502    0 -0.19993318592E+02 -0.50130764671E+02 -0.11981778445E+03  0.13147851622E+03  0.41800000000E+01 0.  1.
         -5    1    3    3    0  502  0.14660693871E+01 -0.21791209433E+02  0.31611580166E+02  0.38649328177E+02  0.41800000000E+01 0.  1.
        -11    1    4    4    0    0 -0.67403082430E+01  0.79270681276E+02 -0.91912571063E+02  0.12156147985E+03  0.00000000000E+00 0.  1.
         11    1    4    4    0    0  0.25267557448E+02 -0.73487071717E+01 -0.10237644635E+03  0.10570425594E+03  0.00000000000E+00 0. -1.
</event>
<event>
 8    1  0.7168478E-009  0.1849647E+03  0.7561462E-02  0.1163083E+00
          1   -1    0    0  501    0  0.00000000000E+00  0.00000000000E+00  0.95791768337E+03  0.95791768337E+03  0.00000000000E+00 0. -1.
         -1   -1    0    0    0  501 -0.00000000000E+00 -0.00000000000E+00 -0.91701140573E+02  0.91701140573E+02  0.00000000000E+00 0.  1.
         25    2    1    2    0    0 -0.10782508676E+03  0.14483415906E+03  0.81015311273E+03  0.83940529508E+03  0.12509996151E+03 0.  0.
         23    2    1    2    0    0  0.10782508676E+03 -0.14483415906E+03  0.56063430062E+02  0.21021352886E+03  0.91888174217E+02 0.  0.
          5    1    3    3  502    0 -0.33177794423E+02  0.61547209200E+02  0.11031379264E+03  0.13067298975E+03  0.41800000000E+01 0.  1.
         -5    1    3    3    0  502 -0.74647292339E+02  0.83286949859E+02  0.69983932009E+03  0.70873230533E+03  0.41800000000E+01 0.  1.
        -11    1    4    4    0    0  0.18189920561E+02 -0.66432315774E+02 -0.16414285399E+02  0.70806458422E+02  0.00000000000E+00 0.  1.
         11    1    4    4    0    0  0.89635166200E+02 -0.78401843285E+02  0.72477715461E+02  0.13940707044E+03  0.00000000000E+00 0. -1.
</event>
<event>
 8    1  0.7168478E-009  0.9435116E+02  0.7561462E-02  0.1292644E+00
          2   -1    0    0  501    0  0.00000000000E+00  0.00000000000E+00  0.77164515991E+03  0.77164515991E+03  0.00000000000E+00 0. -1.
         -2   -1    0    0    0  501 -0.00000000000E+00 -0.00000000000E+00 -0.22931609015E+02  0.22931609015E+02  0.00000000000E+00 0.  1.
         25    2    1    2    0    0 -0.32718871602E+02  0.17329704450E+02  0.61763458040E+03  0.63126132519E+03  0.12509013772E+03 0.  0.
         23    2    1    2    0    0  0.32718871602E+02 -0.17329704450E+02  0.13107897049E+03  0.16331544373E+03  0.90107682480E+02 0.  0.
          5    1    3    3  502    0  0.29799148215E+02  0.17940898276E+02  0.55412702484E+02  0.65558409543E+02  0.41800000000E+01 0. -1.
         -5    1    3    3    0  502 -0.62518019817E+02 -0.61119382605E+00  0.56222187792E+03  0.56570291565E+03  0.41800000000E+01 0. -1.
        -11    1    4    4    0    0 -0.13445544148E+02  0.24992629455E+02  0.16743578658E+02  0.32950896965E+02  0.00000000000E+00 0.  1.
         11    1    4    4    0    0  0.46164415751E+02 -0.42322333905E+02  0.11433539183E+03  0.13036454677E+03  0.00000000000E+00 0. -1.
</event>
<event>
 8    1  0.7168478E-009  0.1001700E+03  0.7561462E-02  0.1279939E+00
          2   -1    0    0  501    0  0.00000000000E+00  0.00000000000E+00  0.40855185983E+02  0.40855185983E+02  0.00000000000E+00 0. -1.
         -2   -1    0    0    0  501 -0.00000000000E+00 -0.00000000000E+00 -0.45226467280E+03  0.45226467280E+03  0.00000000000E+00 0.  1.
         25    2    1    2    0    0 -0.30010616467E+02  0.75180358200E+02 -0.20672651467E+03  0.25482317846E+03  0.12508507927E+03 0.  0.
         23    2    1    2    0    0  0.30010616467E+02 -0.75180358200E+02 -0.20468297215E+03  0.23829668031E+03  0.91309722387E+02 0.  0.
          5    1    3    3  502    0 -0.14995340504E+02  0.31867020573E+02 -0.20574599719E+03  0.20878039897E+03  0.41800000000E+01 0.  1.
         -5    1    3    3    0  502 -0.15015275963E+02  0.43313337628E+02 -0.98051747928E+00  0.46042779491E+02  0.41800000000E+01 0.  1.
        -11    1    4    4    0    0  0.92642329465E+01  0.19673451125E+02 -0.19526472108E+02  0.29225909811E+02  0.00000000000E+00 0. -1.
         11    1    4    4    0    0  0.20746383520E+02 -0.94853809326E+02 -0.18515650004E+03  0.20907077050E+03  0.00000000000E+00 0.  1.
</event>
<event>
 8    1  0.7168478E-009  0.1003738E+03  0.7561462E-02  0.1279512E+00
         -1   -1    0    0    0  501 -0.00000000000E+00  0.00000000000E+00  0.88617130472E+02  0.88617130472E+02  0.00000000000E+00 0.  1.
          1   -1    0    0  501    0  0.00000000000E+00 -0.00000000000E+00 -0.21741599150E+03  0.21741599150E+03  0.00000000000E+00 0. -1.
         25    2    1    2    0    0  0.34828232734E+02  0.69315964664E+02 -0.87177531354E+02  0.17107062857E+03  0.12509008447E+03 0.  0.
         23    2    1    2    0    0 -0.34828232734E+02 -0.69315964664E+02 -0.41621329669E+02  0.13496249340E+03  0.10229775554E+03 0.  0.
          5    1    3    3  502    0  0.48778039827E+02  0.23160313761E+02 -0.10608499092E+03  0.11911001218E+03  0.41800000000E+01 0. -1.
         -5    1    3    3    0  502 -0.13949807093E+02  0.46155650903E+02  0.18907459567E+02  0.51960616389E+02  0.41800000000E+01 0. -1.
        -11    1    4    4    0    0 -0.19152423639E+02  0.69163739236E+01  0.25190078171E+02  0.32391227173E+02  0.00000000000E+00 0.  1.
         11    1    4    4    0    0 -0.15675809094E+02 -0.76232338588E+02 -0.66811407841E+02  0.10257126622E+03  0.00000000000E+00 0. -1.
</event>
<event>
 8    1  0.7168478E-009  0.9327366E+02  0.7561462E-02  0.1295112E+00
          2   -1    0    0  501    0  0.00000000000E+00  0.00000000000E+00  0.12315483709E+03  0.12315483709E+03  0.00000000000E+00 0. -1.
         -2   -1    0    0    0  501 -0.00000000000E+00 -0.00000000000E+00 -0.14447690133E+03  0.14447690133E+03  0.00000000000E+00 0.  1.
         25    2    1    2    0    0  0.31306721962E+01 -0.55095425282E+02 -0.68769204494E+02  0.15304110908E+03  0.12508825120E+03 0.  0.
         23    2    1    2    0    0 -0.31306721962E+01  0.55095425282E+02  0.47447140257E+02  0.11459062933E+03  0.88512565306E+02 0.  0.
          5    1    3    3  502    0 -0.56573985077E+01  0.17817094102E+02  0.26487648579E+02  0.32688268956E+02  0.41800000000E+01 0.  1.
         -5    1    3    3    0  502  0.87880707039E+01 -0.72912519385E+02 -0.95256853072E+02  0.12035284013E+03  0.41800000000E+01 0.  1.
        -11    1    4    4    0    0 -0.34848611124E+02  0.59677261497E+01  0.43393193941E+02  0.55973285888E+02  0.00000000000E+00 0. -1.
         11    1    4    4    0    0  0.31717938928E+02  0.49127699133E+02  0.40539463161E+01  0.58617343446E+02  0.00000000000E+00 0.  1.
</event>
<event>
 8    1  0.7168478E-009  0.1869552E+03  0.7561462E-02  0.1161237E+00
         -1   -1    0    0    0  501 -0.00000000000E+00  0.00000000000E+00  0.25726272898E+02  0.25726272898E+02  0.00000000000E+00 0.  1.
          1   -1    0    0  501    0  0.00000000000E+00 -0.00000000000E+00 -0.14158320759E+04  0.14158320759E+04  0.00000000000E+00 0. -1.
         25    2    1    2    0    0  0.10162785545E+03  0.11749280556E+03 -0.77706281396E+03  0.80224948245E+03  0.12507931436E+03 0.  0.
         23    2    1    2    0    0 -0.10162785545E+03 -0.11749280556E+03 -0.61304298903E+03  0.63930886634E+03  0.93602028953E+02 0.  0.
          5    1    3    3  502    0 -0.24072067776E+02  0.45920406642E+02 -0.26886897094E+03  0.27385423884E+03  0.41800000000E+01 0. -1.
         -5    1    3    3    0  502  0.12569992323E+03  0.71572398915E+02 -0.50819384302E+03  0.52839524361E+03  0.41800000000E+01 0. -1.
        -11    1    4    4    0    0 -0.10537674911E+03 -0.63431309163E+02 -0.35698468831E+03  0.37757894264E+03  0.00000000000E+00 0.  1.
         11    1    4    4    0    0  0.37488936542E+01 -0.54061496394E+02 -0.25605830072E+03  0.26172992370E+03  0.00000000000E+00 0. -1.
</event>
<event>
 8    1  0.7168478E-009  0.9461683E+02  0.7561462E-02  0.1292041E+00
          2   -1    0    0  501    0  0.00000000000E+00  0.00000000000E+00  0.14865122080E+03  0.14865122080E+03  0.00000000000E+00 0. -1.
         -2   -1    0    0    0  501 -0.00000000000E+00 -0.00000000000E+00 -0.91481687675E+02  0.91481687675E+02  0.00000000000E+00 0.  1.
         25    2    1    2    0    0  0.18780986445E+00  0.35910359262E+02  0.37626111068E+02  0.13547174265E+03  0.12508908685E+03 0.  0.
         23    2    1    2    0    0 -0.18780986445E+00 -0.35910359262E+02  0.19543422052E+02  0.10466116582E+03  0.96345342959E+02 0.  0.
          5    1    3    3  502    0 -0.52905747195E+02  0.49567672833E+02  0.34512736260E+02  0.80402572350E+02  0.41800000000E+01 0. -1.
         -5    1    3    3    0  502  0.53093557060E+02 -0.13657313571E+02  0.31133748076E+01  0.55069170303E+02  0.41800000000E+01 0. -1.
        -11    1    4    4    0    0  0.25809287533E+01 -0.48588567993E+02 -0.27479449645E+02  0.55880500048E+02  0.00000000000E+00 0.  1.
         11    1    4    4    0    0 -0.27687386178E+01  0.12678208731E+02  0.47022871698E+02  0.48780665769E+02  0.00000000000E+00 0. -1.
</event>
<event>
 8    1  0.7168478E-009  0.1156730E+03  0.7561462E-02  0.1250411E+00
         -2   -1    0    0    0  501 -0.00000000000E+00  0.00000000000E+00  0.14235658317E+02  0.14235658317E+02  0.00000000000E+00 0. -1.
          2   -1    0    0  501    0  0.00000000000E+00 -0.00000000000E+00 -0.98082991854E+03  0.98082991854E+03  0.00000000000E+00 0.  1.
         25    2    1    2    0    0 -0.12716494241E+02 -0.45202452853E+02 -0.53451979751E+03  0.55096552993E+03  0.12508649113E+03 0.  0.
         23    2    1    2    0    0  0.12716494241E+02  0.45202452853E+02 -0.43207446271E+03  0.44410004694E+03  0.91277266553E+02 0.  0.
          5    1    3    3  502    0 -0.35230452566E+02  0.32405364812E+02 -0.27359623443E+03  0.27778348467E+03  0.41800000000E+01 0. -1.
         -5    1    3    3    0  502  0.22513958326E+02 -0.77607817666E+02 -0.26092356308E+03  0.27318204526E+03  0.41800000000E+01 0. -1.
        -11    1    4    4    0    0 -0.30583655550E+02  0.50210886309E+02 -0.26377164058E+03  0.27024428109E+03  0.00000000000E+00 0.  1.
         11    1    4    4    0    0  0.43300149791E+02 -0.50084334560E+01 -0.16830282213E+03  0.17385576584E+03  0.00000000000E+00 0. -1.
</event>
<event>
 8    1  0.7168478E-009  0.1110349E+03  0.7561462E-02  0.1258665E+00
         -1   -1    0    0    0  501 -0.00000000000E+00  0.00000000000E+00  0.97477049350E+02  0.97477049350E+02  0.00000000000E+00 0.  1.
          1   -1    0    0  501    0  0.00000000000E+00 -0.00000000000E+00 -0.14432567328E+03  0.14432567328E+03  0.00000000000E+00 0. -1.
         25    2    1    2    0    0 -0.32778274802E+02  0.25213259323E+02 -0.49439109511E+02  0.14072140430E+03  0.12509262302E+03 0.  0.
         23    2    1    2    0    0  0.32778274802E+02 -0.25213259323E+02  0.25904855779E+01  0.10108131833E+03  0.92198690637E+02 0.  0.
          5    1    3    3  502    0  0.46760134412E+02  0.13862511031E+02 -0.60750357423E+01  0.49326036143E+02  0.41800000000E+01 0.  1.
         -5    1    3    3    0  502 -0.79538409215E+02  0.11350748292E+02 -0.43364073769E+02  0.91395368160E+02  0.41800000000E+01 0.  1.
        -11    1    4    4    0    0 -0.25389062496E+02 -0.23311799006E+02 -0.18573991129E+02  0.39154024235E+02  0.00000000000E+00 0. -1.
         11    1    4    4    0    0  0.58167337298E+02 -0.19014603172E+01  0.21164476707E+02  0.61927294095E+02  0.00000000000E+00 0.  1.
</event>
<event>
 8    1  0.7168478E-009  0.1137199E+03  0.7561462E-02  0.1253832E+00
          1   -1    0    0  501    0  0.00000000000E+00  0.00000000000E+00  0.67195763992E+03  0.67195763992E+03  0.00000000000E+00 0. -1.
         -1   -1    0    0    0  501 -0.00000000000E+00 -0.00000000000E+00 -0.25142709261E+02  0.25142709261E+02  0.00000000000E+00 0.  1.
         25    2    1    2    0    0 -0.30493230195E+02 -0.34498781180E+02  0.50406499228E+03  0.52139109814E+03  0.12508859977E+03 0.  0.
         23    2    1    2    0    0  0.30493230195E+02  0.34498781180E+02  0.14274993839E+03  0.17570925104E+03  0.91521543921E+02 0.  0.
          5    1    3    3  502    0 -0.28952667464E+02 -0.77145228333E+02  0.23804482488E+03  0.25193740147E+03  0.41800000000E+01 0. -1.
         -5    1    3    3    0  502 -0.15405627309E+01  0.42646447153E+02  0.26602016739E+03  0.26945369667E+03  0.41800000000E+01 0. -1.
        -11    1    4    4    0    0  0.31398391372E+02  0.64660561204E+02  0.10735612606E+03  0.12919823899E+03  0.00000000000E+00 0. -1.
         11    1    4    4    0    0 -0.90516117735E+00 -0.30161780024E+02  0.35393812330E+02  0.46511012053E+02  0.00000000000E+00 0.  1.
</event>
<event>
 8    1  0.7168478E-009  0.1364579E+03  0.7561462E-02  0.1218176E+00
          1   -1    0    0  501    0  0.00000000000E+00  0.00000000000E+00  0.17769045055E+02  0.17769045055E+02  0.00000000000E+00 0. -1.
         -1   -1    0    0    0  501 -0.00000000000E+00 -0.00000000000E+00 -0.11691310460E+04  0.11691310460E+04  0.00000000000E+00 0.  1.
         25    2    1    2    0    0 -0.22843175388E+02  0.89566497634E+02 -0.56769537752E+03  0.58861489194E+03  0.12508189795E+03 0.  0.
         23    2    1    2    0    0  0.22843175388E+02 -0.89566497634E+02 -0.58366662341E+03  0.59828519910E+03  0.93458461468E+02 0.  0.
          5    1    3    3  502    0 -0.72323803934E+02  0.52150485500E+02 -0.26594765096E+03  0.28052812908E+03  0.41800000000E+01 0. -1.
         -5    1    3    3    0  502  0.49480628546E+02  0.37416012133E+02 -0.30174772657E+03  0.30808676287E+03  0.41800000000E+01 0. -1.
        -11    1    4    4    0    0 -0.27107713964E+01 -0.95258667792E+02 -0.53085108922E+03  0.53933703841E+03  0.00000000000E+00 0.  1.
         11    1    4    4    0    0  0.25553946784E+02  0.56921701587E+01 -0.52815534182E+02  0.58948160686E+02  0.00000000000E+00 0. -1.
</event>
<event>
 8    1  0.7168478E-009  0.2343823E+03  0.7561462E-02  0.1123593E+00
         -1   -1    0    0    0  501 -0.00000000000E+00  0.00000000000E+00  0.59748777940E+02  0.59748777940E+02  0.00000000000E+00 0.  1.
          1   -1    0    0  501    0  0.00000000000E+00 -0.00000000000E+00 -0.11529279803E+04  0.11529279803E+04  0.00000000000E+00 0. -1.
         25    2    1    2    0    0 -0.18414486804E+03 -0.11931017784E+03 -0.77430841218E+03  0.81446029547E+03  0.12509118577E+03 0.  0.
         23    2    1    2    0    0  0.18414486804E+03  0.11931017784E+03 -0.31887079014E+03  0.39821646273E+03  0.93560244886E+02 0.  0.
          5    1    3    3  502    0 -0.27893049034E+02  0.21181359567E+02 -0.57311959276E+02  0.67296398518E+02  0.41800000000E+01 0.  1.
         -5    1    3    3    0  502 -0.15625181901E+03 -0.14049153741E+03 -0.71699645291E+03  0.74716389695E+03  0.41800000000E+01 0.  1.
        -11    1    4    4    0    0  0.95371658018E+02  0.37101481360E+02 -0.78019571304E+02  0.12868304698E+03  0.00000000000E+00 0.  1.
         11    1    4    4    0    0  0.88773210026E+02  0.82208696479E+02 -0.24085121883E+03  0.26953341575E+03  0.00000000000E+00 0. -1.
</event>
<event>
 8    1  0.7168478E-009  0.1094197E+03  0.7561462E-02  0.1261648E+00
         -4   -1    0    0    0  501 -0.00000000000E+00  0.00000000000E+00  0.95992360587E+03  0.95992360587E+03  0.00000000000E+00 0.  1.
          4   -1    0    0  501    0  0.00000000000E+00 -0.00000000000E+00 -0.50830429463E+02  0.50830429463E+02  0.00000000000E+00 0. -1.
         25    2    1    2    0    0  0.87390511203E+02  0.32850463570E+02  0.85397655906E+03  0.86812417822E+03  0.12508945198E+03 0.  0.
         23    2    1    2    0    0 -0.87390511203E+02 -0.32850463570E+02  0.55116617355E+02  0.14262985711E+03  0.92677830283E+02 0.  0.
          5    1    3    3  502    0  0.55376549766E+02  0.42415025034E+01  0.78361516283E+03  0.78559197324E+03  0.41800000000E+01 0.  1.
         -5    1    3    3    0  502  0.32013961438E+02  0.28608961066E+02  0.70361396227E+02  0.82532204983E+02  0.41800000000E+01 0.  1.
        -11    1    4    4    0    0 -0.27852605887E+02 -0.50702775271E+02 -0.24628622730E+01  0.57901681888E+02  0.00000000000E+00 0. -1.
         11    1    4    4    0    0 -0.59537905317E+02  0.17852311702E+02  0.57579479628E+02  0.84728175224E+02  0.00000000000E+00 0.  1.
</event>
<event>
 8    1  0.7168478E-009  0.9907077E+02  0.7561462E-02  0.1282262E+00
         -4   -1    0    0    0  501 -0.00000000000E+00  0.00000000000E+00  0.13687331553E+03  0.13687331553E+03  0.00000000000E+00 0.  1.
          4   -1    0    0  501    0  0.00000000000E+00 -0.00000000000E+00 -0.12626606231E+03  0.12626606231E+03  0.00000000000E+00 0. -1.
         25    2    1    2    0    0  0.53843754248E+02 -0.50099021135E+01 -0.45181785884E+02  0.14357154057E+03  0.12508854662E+03 0.  0.
         23    2    1    2    0    0 -0.53843754248E+02  0.50099021135E+01  0.55789039105E+02  0.11956783727E+03  0.90883451925E+02 0.  0.
          5    1    3    3  502    0  0.48510052214E+01  0.41573933287E+02 -0.60922255100E+02  0.74033220564E+02  0.41800000000E+01 0. -1.
         -5    1    3    3    0  502  0.48992749027E+02 -0.46583835400E+02  0.15740469217E+02  0.69538320004E+02  0.41800000000E+01 0. -1.
        -11    1    4    4    0    0 -0.10768146415E+02 -0.30609885425E+02 -0.93166875576E+01  0.33759720526E+02  0.00000000000E+00 0. -1.
         11    1    4    4    0    0 -0.43075607834E+02  0.35619787538E+02  0.65105726663E+02  0.85808116742E+02  0.00000000000E+00 0.  1.
</event>
<event>
 8    1  0.7168478E-009  0.1114274E+03  0.7561462E-02  0.1257949E+00
         -3   -1    0    0    0  501 -0.00000000000E+00  0.00000000000E+00  0.57386557785E+02  0.57386557785E+02  0.00000000000E+00 0.  1.
          3   -1    0    0  501    0  0.00000000000E+00 -0.00000000000E+00 -0.31571420332E+03  0.31571420332E+03  0.00000000000E+00 0. -1.
         25    2    1    2    0    0 -0.64583645814E+02 -0.47535079492E+02 -0.14899015957E+03  0.21042084364E+03  0.12509289629E+03 0.  0.
         23    2    1    2    0    0  0.64583645814E+02  0.47535079492E+02 -0.10933748597E+03  0.16267991746E+03  0.89885697521E+02 0.  0.
          5    1    3    3  502    0  0.12824292576E+02 -0.54818955649E+01  0.17044791768E+02  0.22416756801E+02  0.41800000000E+01 0. -1.
         -5    1    3    3    0  502 -0.77407938390E+02 -0.42053183927E+02 -0.16603495134E+03  0.18800408684E+03  0.41800000000E+01 0. -1.
        -11    1    4    4    0    0  0.67253185220E+02  0.70237539463E+02 -0.93238685849E+02  0.13472102809E+03  0.00000000000E+00 0. -1.
         11    1    4    4    0    0 -0.26695394062E+01 -0.22702459971E+02 -0.16098800120E+02  0.27958889368E+02  0.00000000000E+00 0.  1.
</event>
<event>
 8    1  0.7168478E-009  0.3388775E+03  0.7561462E-02  0.1067275E+00
          1   -1    0    0  501    0  0.00000000000E+00  0.00000000000E+00  0.19153439723E+04  0.19153439723E+04  0.00000000000E+00 0. -1.
         -1   -1    0    0    0  501 -0.00000000000E+00 -0.00000000000E+00 -0.65587556293E+02  0.65587556293E+02  0.00000000000E+00 0.  1.
         25    2    1    2    0    0 -0.33279844201E+03  0.13788534174E+02  0.10946317898E+04  0.11510041631E+04  0.12508757511E+03 0.  0.
         23    2    1    2    0    0  0.33279844201E+03 -0.13788534174E+02  0.75512462615E+03  0.82992736548E+03  0.87300081797E+02 0.  0.
          5    1    3    3  502    0 -0.16633540338E+03 -0.11438977108E+01  0.74637229747E+03  0.76469461470E+03  0.41800000000E+01 0. -1.
         -5    1    3    3    0  502 -0.16646303863E+03  0.14932431885E+02  0.34825949235E+03  0.38630954837E+03  0.41800000000E+01 0. -1.
        -11    1    4    4    0    0  0.20846494174E+03  0.33533801100E+02  0.45104817760E+03  0.49802269654E+03  0.00000000000E+00 0.  1.
         11    1    4    4    0    0  0.12433350027E+03 -0.47322335274E+02  0.30407644855E+03  0.33190466894E+03  0.00000000000E+00 0. -1.
</event>
<event>
 8    1  0.7168478E-009  0.1286658E+03  0.7561462E-02  0.1229449E+00
         -4   -1    0    0    0  501 -0.00000000000E+00  0.00000000000E+00  0.52273471619E+03  0.52273471619E+03  0.00000000000E+00 0.  1.
          4   -1    0    0  501    0  0.00000000000E+00 -0.00000000000E+00 -0.54977195346E+02  0.54977195346E+02  0.00000000000E+00 0. -1.
         25    2    1    2    0    0  0.39723371197E+02  0.64692397648E+02  0.42892026413E+03  0.45319166275E+03  0.12508811964E+03 0.  0.
         23    2    1    2    0    0 -0.39723371197E+02 -0.64692397648E+02  0.38837256716E+02  0.12452024878E+03  0.90740880067E+02 0.  0.
          5    1    3    3  502    0  0.38930521730E+01 -0.34495078665E+02  0.17051928245E+03  0.17406712611E+03  0.41800000000E+01 0. -1.
         -5    1    3    3    0  502  0.35830319024E+02  0.99187476314E+02  0.25840098168E+03  0.27912453663E+03  0.41800000000E+01 0. -1.
        -11    1    4    4    0    0 -0.40869584475E+02  0.10037773274E+02  0.46726702363E+01  0.42342811369E+02  0.00000000000E+00 0.  1.
         11    1    4    4    0    0  0.11462132784E+01 -0.74730170922E+02  0.34164586480E+02  0.82177437416E+02  0.00000000000E+00 0. -1.
</event>
<event>
 8    1  0.7168478E-009  0.9745160E+02  0.7561462E-02  0.1285748E+00
          2   -1    0    0  501    0  0.00000000000E+00  0.00000000000E+00  0.11676712576E+04  0.11676712576E+04  0.00000000000E+00 0. -1.
         -2   -1    0    0    0  501 -0.00000000000E+00 -0.00000000000E+00 -0.27266204358E+02  0.27266204358E+02  0.00000000000E+00 0.  1.
         25    2    1    2    0    0 -0.68618345678E+02  0.48962667613E+02  0.98077335992E+03  0.99230512677E+03  0.12508901195E+03 0.  0.
         23    2    1    2    0    0  0.68618345678E+02 -0.48962667613E+02  0.15963169328E+03  0.20263233514E+03  0.92042194464E+02 0.  0.
          5    1    3    3  502    0 -0.70976761867E+02  0.48351088307E+02  0.98315833452E+03  0.98691099477E+03  0.41800000000E+01 0. -1.
         -5    1    3    3    0  502  0.23584161890E+01  0.61157930599E+00 -0.23849746031E+01  0.53941319993E+01  0.41800000000E+01 0. -1.
        -11    1    4    4    0    0  0.74403452025E+02 -0.57316869291E+02  0.16593727377E+03  0.19067321785E+03  0.00000000000E+00 0. -1.
         11    1    4    4    0    0 -0.57851063463E+01  0.83542016777E+01 -0.63055804897E+01  0.11959117293E+02  0.00000000000E+00 0.  1.
</event>
<event>
 8    1  0.7168478E-009  0.1376366E+03  0.7561462E-02  0.1216545E+00
          1   -1    0    0  501    0  0.00000000000E+00  0.00000000000E+00  0.55626188595E+02  0.55626188595E+02  0.00000000000E+00 0. -1.
         -1   -1    0    0    0  501 -0.00000000000E+00 -0.00000000000E+00 -0.51857926115E+03  0.51857926115E+03  0.00000000000E+00 0.  1.
         25    2    1    2    0    0 -0.63087749376E+02 -0.10841774347E+03 -0.18461790559E+03  0.25586293411E+03  0.12509036241E+03 0.  0.
         23    2    1    2    0    0  0.63087749376E+02  0.10841774347E+03 -0.27833516697E+03  0.31834251563E+03  0.90205437023E+02 0.  0.
          5    1    3    3  502    0 -0.34753681344E+02 -0.88770028120E+02 -0.19707764356E+03  0.21896348154E+03  0.41800000000E+01 0. -1.
         -5    1    3    3    0  502 -0.28334068033E+02 -0.19647715351E+02  0.12459737967E+02  0.36899452570E+02  0.41800000000E+01 0. -1.
        -11    1    4    4    0    0  0.79035756555E+02  0.98693109826E+02 -0.19118584957E+03  0.22921389534E+03  0.00000000000E+00 0. -1.
         11    1    4    4    0    0 -0.15948007179E+02  0.97246336454E+01 -0.87149317401E+02  0.89128620297E+02  0.00000000000E+00 0.  1.
</event>
<event>
 8    1  0.7168478E-009  0.8159062E+02  0.7561462E-02  0.1324597E+00
         -2   -1    0    0    0  501 -0.00000000000E+00  0.00000000000E+00  0.37946162217E+02  0.37946162217E+02  0.00000000000E+00 0. -1.
          2   -1    0    0  501    0  0.00000000000E+00 -0.00000000000E+00 -0.32072775084E+03  0.32072775084E+03  0.00000000000E+00 0.  1.
         25    2    1    2    0    0  0.15588154673E+02 -0.18705303366E+02 -0.18709115045E+03  0.22636515462E+03  0.12508079673E+03 0.  0.
         23    2    1    2    0    0 -0.15588154673E+02  0.18705303366E+02 -0.95690438169E+02  0.13230875843E+03  0.88068545243E+02 0.  0.
          5    1    3    3  502    0 -0.45604501351E+02 -0.89793211454E+00 -0.13918184957E+03  0.14652520765E+03  0.41800000000E+01 0. -1.
         -5    1    3    3    0  502  0.61192656024E+02 -0.17807371251E+02 -0.47909300879E+02  0.79839946974E+02  0.41800000000E+01 0. -1.
        -11    1    4    4    0    0 -0.18075886888E+02  0.33736109483E+02 -0.10680144085E+03  0.11345223901E+03  0.00000000000E+00 0.  1.
         11    1    4    4    0    0  0.24877322156E+01 -0.15030806117E+02  0.11111002680E+02  0.18856519420E+02  0.00000000000E+00 0. -1.
</event>
<event>
 8    1  0.7168478E-009  0.8781501E+02  0.7561462E-02  0.1308231E+00
         -2   -1    0    0    0  501 -0.00000000000E+00  0.00000000000E+00  0.37331212905E+02  0.37331212905E+02  0.00000000000E+00 0.  1.
          2   -1    0    0  501    0  0.00000000000E+00 -0.00000000000E+00 -0.38137318987E+03  0.38137318987E+03  0.00000000000E+00 0. -1.
         25    2    1    2    0    0 -0.65742361416E+00  0.49839601683E+02 -0.20840595141E+03  0.24812341094E+03  0.12509104034E+03 0.  0.
         23    2    1    2    0    0  0.65742361416E+00 -0.49839601683E+02 -0.13563602556E+03  0.17058099183E+03  0.90643947641E+02 0.  0.
          5    1    3    3  502    0  0.24100664808E+02  0.47915328494E+02 -0.21537699335E+03  0.22199423959E+03  0.41800000000E+01 0.  1.
         -5    1    3    3    0  502 -0.24758088422E+02  0.19242731888E+01  0.69710419408E+01  0.26129171349E+02  0.41800000000E+01 0.  1.
        -11    1    4    4    0    0  0.41250727229E+02 -0.17760873874E+02 -0.33302271031E+02  0.55911648102E+02  0.00000000000E+00 0.  1.
         11    1    4    4    0    0 -0.40593303615E+02 -0.32078727809E+02 -0.10233375453E+03  0.11466934373E+03  0.00000000000E+00 0. -1.
</event>
<event>
 8    1  0.7168478E-009  0.2158983E+03  0.7561462E-02  0.1136979E+00
         -2   -1    0    0    0  501 -0.00000000000E+00  0.00000000000E+00  0.19930882874E+03  0.19930882874E+03  0.00000000000E+00 0.  1.
          2   -1    0    0  501    0  0.00000000000E+00 -0.00000000000E+00 -0.26607447504E+03  0.26607447504E+03  0.00000000000E+00 0. -1.
         25    2    1    2    0    0 -0.39294450079E+02 -0.19765430978E+03 -0.12835667054E+02  0.23753557680E+03  0.12508843237E+03 0.  0.
         23    2    1    2    0    0  0.39294450079E+02  0.19765430978E+03 -0.53929979241E+02  0.22784772698E+03  0.91623490679E+02 0.  0.
          5    1    3    3  502    0  0.45905953732E+01 -0.12695922538E+03  0.46394783017E+02  0.13531321726E+03  0.41800000000E+01 0. -1.
         -5    1    3    3    0  502 -0.43885045452E+02 -0.70695084406E+02 -0.59230450071E+02  0.10222235954E+03  0.41800000000E+01 0. -1.
        -11    1    4    4    0    0 -0.29929798145E+02  0.70627620867E+02 -0.19068993863E+02  0.79042268270E+02  0.00000000000E+00 0. -1.
         11    1    4    4    0    0  0.69224248224E+02  0.12702668892E+03 -0.34860985378E+02  0.14880545871E+03  0.00000000000E+00 0.  1.
</event>
<event>
 8    1  0.7168478E-009  0.1537775E+03  0.7561462E-02  0.1195907E+00
         -1   -1    0    0    0  501 -0.00000000000E+00  0.00000000000E+00  0.46388287249E+02  0.46388287249E+02  0.00000000000E+00 0.  1.
          1   -1    0    0  501    0  0.00000000000E+00 -0.00000000000E+00 -0.55998111230E+03  0.55998111230E+03  0.00000000000E+00 0. -1.
         25    2    1    2    0    0  0.10242602525E+03  0.58540082177E+02 -0.23091769720E+03  0.28790324884E+03  0.12508903208E+03 0.  0.
         23    2    1    2    0    0 -0.10242602525E+03 -0.58540082177E+02 -0.28267512785E+03  0.31846615070E+03  0.87163234050E+02 0.  0.
          5    1    3    3  502    0  0.14828502413E+02 -0.38308333434E+02 -0.55979281215E+02  0.69559796001E+02  0.41800000000E+01 0.  1.
         -5    1    3    3    0  502  0.87597522832E+02  0.96848415611E+02 -0.17493841598E+03  0.21834345284E+03  0.41800000000E+01 0.  1.
        -11    1    4    4    0    0 -0.58819360664E+02  0.44635598001E+01 -0.65382030095E+02  0.88059357335E+02  0.00000000000E+00 0.  1.
         11    1    4    4    0    0 -0.43606664582E+02 -0.63003641977E+02 -0.21729309775E+03  0.23040679337E+03  0.00000000000E+00 0. -1.
</event>
<event>
 8    1  0.7168478E-009  0.8146059E+02  0.7561462E-02  0.1324957E+00
          3   -1    0    0  501    0  0.00000000000E+00  0.00000000000E+00  0.67081712318E+02  0.67081712318E+02  0.00000000000E+00 0. -1.
         -3   -1    0    0    0  501 -0.00000000000E+00 -0.00000000000E+00 -0.18357429668E+03  0.18357429668E+03  0.00000000000E+00 0.  1.
         25    2    1    2    0    0  0.33683229363E+01  0.13014739848E+02 -0.94109555341E+02  0.15711347809E+03  0.12508919833E+03 0.  0.
         23    2    1    2    0    0 -0.33683229363E+01 -0.13014739848E+02 -0.22383029019E+02  0.93542530904E+02  0.89824696199E+02 0.  0.
          5    1    3    3  502    0 -0.10979582942E+02  0.44473483136E+02 -0.10970110707E+03  0.11895481174E+03  0.41800000000E+01 0. -1.
         -5    1    3    3    0  502  0.14347905878E+02 -0.31458743288E+02  0.15591551730E+02  0.38158666351E+02  0.41800000000E+01 0. -1.
        -11    1    4    4    0    0  0.25308652022E+02  0.24264343785E+02 -0.29692634947E+02  0.45944954201E+02  0.00000000000E+00 0.  1.
         11    1    4    4    0    0 -0.28676974958E+02 -0.37279083632E+02  0.73096059278E+01  0.47597576703E+02  0.00000000000E+00 0. -1.
</event>
<event>
 8    1  0.7168478E-009  0.1480878E+03  0.7561462E-02  0.1202843E+00
         -2   -1    0    0    0  501 -0.00000000000E+00  0.00000000000E+00  0.42426002838E+02  0.42426002838E+02  0.00000000000E+00 0. -1.
          2   -1    0    0  501    0  0.00000000000E+00 -0.00000000000E+00 -0.64985729274E+03  0.64985729274E+03  0.00000000000E+00 0.  1.
         25    2    1    2    0    0 -0.96104321410E+02 -0.75149403978E+02 -0.38496832465E+03  0.42276639920E+03  0.12508934326E+03 0.  0.
         23    2    1    2    0    0  0.96104321410E+02  0.75149403978E+02 -0.22246296525E+03  0.26951689637E+03  0.90918166566E+02 0.  0.
          5    1    3    3  502    0  0.34765692888E+01  0.14197447507E+02 -0.12012811385E-01  0.15202848221E+02  0.41800000000E+01 0.  1.
         -5    1    3    3    0  502 -0.99580890699E+02 -0.89346851484E+02 -0.38495631184E+03  0.40756355098E+03  0.41800000000E+01 0.  1.
        -11    1    4    4    0    0 -0.15126293978E+02  0.11143454316E+02 -0.99460626976E+01  0.21258069216E+02  0.00000000000E+00 0. -1.
         11    1    4    4    0    0  0.11123061539E+03  0.64005949661E+02 -0.21251690255E+03  0.24825882715E+03  0.00000000000E+00 0.  1.
</event>
<event>
 8    1  0.7168478E-009  0.2030353E+03  0.7561462E-02  0.1147203E+00
          2   -1    0    0  501    0  0.00000000000E+00  0.00000000000E+00  0.14350357285E+03  0.14350357285E+03  0.00000000000E+00 0. -1.
         -2   -1    0    0    0  501 -0.00000000000E+00 -0.00000000000E+00 -0.37942756732E+03  0.37942756732E+03  0.00000000000E+00 0.  1.
         25    2    1    2    0    0  0.15278522769E+03  0.11760448323E+03 -0.40148041465E+02  0.23331114574E+03  0.12509230678E+03 0.  0.
         23    2    1    2    0    0 -0.15278522769E+03 -0.11760448323E+03 -0.19577595301E+03  0.28961999443E+03  0.91528012767E+02 0.  0.
          5    1    3    3  502    0  0.13945130532E+03  0.10238895092E+03 -0.78285755947E+02  0.18993761031E+03  0.41800000000E+01 0. -1.
         -5    1    3    3    0  502  0.13333922363E+02  0.15215532309E+02  0.38137714482E+02  0.43373535421E+02  0.41800000000E+01 0. -1.
        -11    1    4    4    0    0 -0.20524433589E+01 -0.45006985992E+02 -0.53969338030E+02  0.70303134775E+02  0.00000000000E+00 0.  1.
         11    1    4    4    0    0 -0.15073278433E+03 -0.72597497242E+02 -0.14180661498E+03  0.21931685966E+03  0.00000000000E+00 0. -1.
</event>
<event>
 8    1  0.7168478E-009  0.9276318E+02  0.7561462E-02  0.1296295E+00
          2   -1    0    0  501    0  0.00000000000E+00  0.00000000000E+00  0.15449801289E+04  0.15449801289E+04  0.00000000000E+00 0. -1.
         -2   -1    0    0    0  501 -0.00000000000E+00 -0.00000000000E+00 -0.10905412556E+02  0.10905412556E+02  0.00000000000E+00 0.  1.
         25    2    1    2    0    0 -0.24455162773E+02 -0.64235959728E+02  0.89221067759E+03  0.90355290753E+03  0.12507457772E+03 0.  0.
         23    2    1    2    0    0  0.24455162773E+02  0.64235959728E+02  0.64186403872E+03  0.65233263389E+03  0.93936720889E+02 0.  0.
          5    1    3    3  502    0 -0.12820503310E+02 -0.26498593061E+02  0.37206587589E+02  0.47627127767E+02  0.41800000000E+01 0.  1.
         -5    1    3    3    0  502 -0.11634659463E+02 -0.37737366668E+02  0.85500409000E+03  0.85592577976E+03  0.41800000000E+01 0.  1.
        -11    1    4    4    0    0 -0.28695139288E+02  0.55140673950E+02  0.36748238275E+03  0.37270257120E+03  0.00000000000E+00 0.  1.
         11    1    4    4    0    0  0.53150302061E+02  0.90952857781E+01  0.27438165597E+03  0.27963006270E+03  0.00000000000E+00 0. -1.
</event>
<event>
 8    1  0.7168478E-009  0.2055035E+03  0.7561462E-02  0.1145177E+00
         -2   -1    0    0    0  501 -0.00000000000E+00  0.00000000000E+00  0.72187926342E+02  0.72187926342E+02  0.00000000000E+00 0.  1.
          2   -1    0    0  501    0  0.00000000000E+00 -0.00000000000E+00 -0.64056649566E+03  0.64056649566E+03  0.00000000000E+00 0. -1.
         25    2    1    2    0    0 -0.15324282658E+03  0.10334566046E+03 -0.27482495319E+03  0.35403602301E+03  0.12509620803E+03 0.  0.
         23    2    1    2    0    0  0.15324282658E+03 -0.10334566046E+03 -0.29355361613E+03  0.35871839898E+03  0.91331674637E+02 0.  0.
          5    1    3    3  502    0 -0.12098230020E+01  0.40348623221E+02 -0.12507272065E+03  0.13149195001E+03  0.41800000000E+01 0. -1.
         -5    1    3    3    0  502 -0.15203300358E+03  0.62997037243E+02 -0.14975223254E+03  0.22254407300E+03  0.41800000000E+01 0. -1.
        -11    1    4    4    0    0  0.60000699046E+02  0.80455329943E+01 -0.76844380871E+02  0.97825729533E+02  0.00000000000E+00 0. -1.
         11    1    4    4    0    0  0.93242127536E+02 -0.11139119346E+03 -0.21670923526E+03  0.26089266945E+03  0.00000000000E+00 0.  1.
</event>
<event>
 8    1  0.7168478E-009  0.6837316E+02  0.7561462E-02  0.1365714E+00
         -1   -1    0    0    0  501 -0.00000000000E+00  0.00000000000E+00  0.71116329984E+02  0.71116329984E+02  0.00000000000E+00 0.  1.
          1   -1    0    0  501    0  0.00000000000E+00 -0.00000000000E+00 -0.23004091497E+03  0.23004091497E+03  0.00000000000E+00 0. -1.
         25    2    1    2    0    0  0.13230966252E+02 -0.58667835438E+01 -0.16427260716E+03  0.20698485529E+03  0.12509101981E+03 0.  0.
         23    2    1    2    0    0 -0.13230966252E+02  0.58667835438E+01  0.53480221770E+01  0.94172389665E+02  0.92899730984E+02 0.  0.
          5    1    3    3  502    0 -0.36075539403E+02 -0.18533184067E+02 -0.66736076915E+01  0.41315044409E+02  0.41800000000E+01 0. -1.
         -5    1    3    3    0  502  0.49306505656E+02  0.12666400523E+02 -0.15759899947E+03  0.16566981088E+03  0.41800000000E+01 0. -1.
        -11    1    4    4    0    0  0.13160451367E+02 -0.76721157508E+01  0.43359383203E+02  0.45957534225E+02  0.00000000000E+00 0.  1.
         11    1    4    4    0    0 -0.26391417619E+02  0.13538899295E+02 -0.38011361026E+02  0.48214855440E+02  0.00000000000E+00 0. -1.
</event>
<event>
 8    1  0.7168478E-009  0.7994203E+02  0.7561462E-02  0.1329216E+00
          1   -1    0    0  501    0  0.00000000000E+00  0.00000000000E+00  0.84388882018E+02  0.84388882018E+02  0.00000000000E+00 0. -1.
         -1   -1    0    0    0  501 -0.00000000000E+00 -0.00000000000E+00 -0.17902506074E+03  0.17902506074E+03  0.00000000000E+00 0.  1.
         25    2    1    2    0    0  0.30448643092E+02 -0.20143548853E+02 -0.88283825102E+01  0.13060544527E+03  0.12508780744E+03 0.  0.
         23    2    1    2    0    0 -0.30448643092E+02  0.20143548853E+02 -0.85807796208E+02  0.13280849748E+03  0.94563400359E+02 0.  0.
          5    1    3    3  502    0  0.24588338162E+01  0.27345481576E+02  0.45364883492E+02  0.53190847715E+02  0.41800000000E+01 0.  1.
         -5    1    3    3    0  502  0.27989809276E+02 -0.47489030429E+02 -0.54193266003E+02  0.77414597554E+02  0.41800000000E+01 0.  1.
        -11    1    4    4    0    0  0.13598347157E+02  0.28883137540E+02 -0.81699608832E+02  0.87715316581E+02  0.00000000000E+00 0.  1.
         11    1    4    4    0    0 -0.44046990249E+02 -0.87395886873E+01 -0.41081873752E+01  0.45093180903E+02  0.00000000000E+00 0. -1.
</event>
<event>
 8    1  0.7168478E-009  0.9824727E+02  0.7561462E-02  0.1284025E+00
         -4   -1    0    0    0  501 -0.00000000000E+00  0.00000000000E+00  0.19541442143E+02  0.19541442143E+02  0.00000000000E+00 0.  1.
          4   -1    0    0  501    0  0.00000000000E+00 -0.00000000000E+00 -0.66035695995E+03  0.66035695995E+03  0.00000000000E+00 0. -1.
         25    2    1    2    0    0 -0.24337335020E+02 -0.28658951303E+02 -0.38095138968E+03  0.40272259591E+03  0.12509151285E+03 0.  0.
         23    2    1    2    0    0  0.24337335020E+02  0.28658951303E+02 -0.25986412813E+03  0.27717580619E+03  0.88788631498E+02 0.  0.
          5    1    3    3  502    0  0.39424472180E+02 -0.47568096350E+02 -0.14812225708E+03  0.16054497264E+03  0.41800000000E+01 0.  1.
         -5    1    3    3    0  502 -0.63761807200E+02  0.18909145047E+02 -0.23282913260E+03  0.24217762327E+03  0.41800000000E+01 0.  1.
        -11    1    4    4    0    0 -0.18598629935E+02  0.73207628513E+01 -0.92636390834E+01  0.22029925403E+02  0.00000000000E+00 0.  1.
         11    1    4    4    0    0  0.42935964955E+02  0.21338188452E+02 -0.25060048904E+03  0.25514588079E+03  0.00000000000E+00 0. -1.
</event>
<event>
 8    1  0.7168478E-009  0.2254135E+03  0.7561462E-02  0.1129910E+00
          1   -1    0    0  501    0  0.00000000000E+00  0.00000000000E+00  0.21009146156E+03  0.21009146156E+03  0.00000000000E+00 0. -1.
         -1   -1    0    0    0  501 -0.00000000000E+00 -0.00000000000E+00 -0.31758375474E+03  0.31758375474E+03  0.00000000000E+00 0.  1.
         25    2    1    2    0    0  0.16711868717E+03  0.13483231361E+03  0.40019547152E+02  0.25171268598E+03  0.12509717716E+03 0.  0.
         23    2    1    2    0    0 -0.16711868717E+03 -0.13483231361E+03 -0.14751184033E+03  0.27596253033E+03  0.91033876735E+02 0.  0.
          5    1    3    3  502    0  0.15504153472E+03  0.14197324744E+03  0.67281915629E+02  0.22076822472E+03  0.41800000000E+01 0.  1.
         -5    1    3    3    0  502  0.12077152453E+02 -0.71409338358E+01 -0.27262368477E+02  0.30944461255E+02  0.41800000000E+01 0.  1.
        -11    1    4    4    0    0 -0.16821269227E+03 -0.10982624484E+03 -0.15013650902E+03  0.25079530545E+03  0.00000000000E+00 0. -1.
         11    1    4    4    0    0  0.10940051000E+01 -0.25006068762E+02  0.26246686896E+01  0.25167224873E+02  0.00000000000E+00 0.  1.
</event>
<event>
 8    1  0.7168478E-009  0.1306683E+03  0.7561462E-02  0.1226468E+00
         -1   -1    0    0    0  501 -0.00000000000E+00  0.00000000000E+00  0.26155875657E+02  0.26155875657E+02  0.00000000000E+00 0.  1.
          1   -1    0    0  501    0  0.00000000000E+00 -0.00000000000E+00 -0.71392728110E+03  0.71392728110E+03  0.00000000000E+00 0. -1.
         25    2    1    2    0    0  0.51525145486E+02  0.62281323411E+02 -0.33745609552E+03  0.36886065218E+03  0.12509100872E+03 0.  0.
         23    2    1    2    0    0 -0.51525145486E+02 -0.62281323411E+02 -0.35031530993E+03  0.37122250458E+03  0.92474470383E+02 0.  0.
          5    1    3    3  502    0  0.78376483156E+02  0.74960979085E+02 -0.30905574456E+03  0.32755907428E+03  0.41800000000E+01 0.  1.
         -5    1    3    3    0  502 -0.26851337670E+02 -0.12679655674E+02 -0.28400350962E+02  0.41301577906E+02  0.41800000000E+01 0.  1.
        -11    1    4    4    0    0 -0.64452698709E+01 -0.75549459644E+02 -0.21440709042E+03  0.22741957430E+03  0.00000000000E+00 0. -1.
         11    1    4    4    0    0 -0.45079875615E+02  0.13268136233E+02 -0.13590821951E+03  0.14380293027E+03  0.00000000000E+00 0.  1.
</event>
<event>
 8    1  0.7168478E-009  0.8494056E+02  0.7561462E-02  0.1315588E+00
          2   -1    0    0  501    0  0.00000000000E+00  0.00000000000E+00  0.24488335317E+03  0.24488335317E+03  0.00000000000E+00 0.  1.
         -2   -1    0    0    0  501 -0.00000000000E+00 -0.00000000000E+00 -0.60720913033E+02  0.60720913033E+02  0.00000000000E+00 0. -1.
         25    2    1    2    0    0 -0.25762304492E+02 -0.49262938823E+02  0.97735118748E+02  0.16819597818E+03  0.12508876915E+03 0.  0.
         23    2    1    2    0    0  0.25762304492E+02  0.49262938823E+02  0.86427321393E+02  0.13740828802E+03  0.91218541206E+02 0.  0.
          5    1    3    3  502    0 -0.17492761302E+01 -0.34664652562E+02  0.12440768758E+03  0.12922632562E+03  0.41800000000E+01 0. -1.
         -5    1    3    3    0  502 -0.24013028362E+02 -0.14598286260E+02 -0.26672568832E+02  0.38969652564E+02  0.41800000000E+01 0. -1.
        -11    1    4    4    0    0 -0.23746274372E+02 -0.12913600498E+02  0.26642761437E+02  0.37953700233E+02  0.00000000000E+00 0. -1.
         11    1    4    4    0    0  0.49508578865E+02  0.62176539321E+02  0.59784559956E+02  0.99454587789E+02  0.00000000000E+00 0.  1.
</event>
<event>
 8    1  0.7168478E-009  0.9679076E+02  0.7561462E-02  0.1287193E+00
          2   -1    0    0  501    0  0.00000000000E+00  0.00000000000E+00  0.27526356001E+03  0.27526356001E+03  0.00000000000E+00 0. -1.
         -2   -1    0    0    0  501 -0.00000000000E+00 -0.00000000000E+00 -0.74310401943E+02  0.74310401943E+02  0.00000000000E+00 0.  1.
         25    2    1    2    0    0 -0.21639555881E+02 -0.42870121835E+02  0.20536448934E+03  0.24521000526E+03  0.12508899021E+03 0.  0.
         23    2    1    2    0    0  0.21639555881E+02  0.42870121835E+02 -0.44113312763E+01  0.10436395669E+03  0.92554080880E+02 0.  0.
          5    1    3    3  502    0 -0.27393412648E+02  0.30559449181E+02  0.20286456083E+02  0.45970552435E+02  0.41800000000E+01 0.  1.
         -5    1    3    3    0  502  0.57538567678E+01 -0.73429571016E+02  0.18507803326E+03  0.19923945283E+03  0.41800000000E+01 0.  1.
        -11    1    4    4    0    0 -0.13238770899E+02  0.41598745797E+02 -0.36537804966E+02  0.56927426593E+02  0.00000000000E+00 0.  1.
         11    1    4    4    0    0  0.34878326779E+02  0.12713760385E+01  0.32126473690E+02  0.47436530097E+02  0.00000000000E+00 0. -1.
</event>
<event>
 8    1  0.7168478E-009  0.1118116E+03  0.7561462E-02  0.1257251E+00
         -2   -1    0    0    0  501 -0.00000000000E+00  0.00000000000E+00  0.10699114298E+03  0.10699114298E+03  0.00000000000E+00 0.  1.
          2   -1    0    0  501    0  0.00000000000E+00 -0.00000000000E+00 -0.13569607539E+03  0.13569607539E+03  0.00000000000E+00 0. -1.
         25    2    1    2    0    0 -0.38679930396E+02 -0.36094226493E+02 -0.23183481409E+02  0.13778105994E+03  0.12508883430E+03 0.  0.
         23    2    1    2    0    0  0.38679930396E+02  0.36094226493E+02 -0.55214510043E+01  0.10490615843E+03  0.90420603040E+02 0.  0.
          5    1    3    3  502    0 -0.23032117533E+02 -0.77683412246E+02  0.10575377247E+02  0.81819936325E+02  0.41800000000E+01 0. -1.
         -5    1    3    3    0  502 -0.15647812863E+02  0.41589185753E+02 -0.33758858656E+02  0.55961123620E+02  0.41800000000E+01 0. -1.
        -11    1    4    4    0    0 -0.17127099573E+02 -0.14568109505E+02 -0.17622592283E+02  0.28567868543E+02  0.00000000000E+00 0. -1.
         11    1    4    4    0    0  0.55807029970E+02  0.50662335998E+02  0.12101141279E+02  0.76338289888E+02  0.00000000000E+00 0.  1.
</event>
<event>
 8    1  0.7168478E-009  0.1309481E+03  0.7561462E-02  0.1226056E+00
         -1   -1    0    0    0  501 -0.00000000000E+00  0.00000000000E+00  0.31789094376E+02  0.31789094376E+02  0.00000000000E+00 0.  1.
          1   -1    0    0  501    0  0.00000000000E+00 -0.00000000000E+00 -0.81622180773E+03  0.81622180773E+03  0.00000000000E+00 0. -1.
         25    2    1    2    0    0 -0.66695795423E+02  0.95638595736E+02 -0.35885626208E+03  0.39751800183E+03  0.12509066639E+03 0.  0.
         23    2    1    2    0    0  0.66695795423E+02 -0.95638595736E+02 -0.42557645127E+03  0.45049290028E+03  0.90738454934E+02 0.  0.
          5    1    3    3  502    0 -0.65685322904E+01  0.60915981948E+02 -0.45228523061E+02  0.76269221652E+02  0.41800000000E+01 0. -1.
         -5    1    3    3    0  502 -0.60127263132E+02  0.34722613788E+02 -0.31362773902E+03  0.32124878017E+03  0.41800000000E+01 0. -1.
        -11    1    4    4    0    0  0.36377444776E+02 -0.67361841517E+01 -0.43811156462E+02  0.57342062188E+02  0.00000000000E+00 0.  1.
         11    1    4    4    0    0  0.30318350646E+02 -0.88902411584E+02 -0.38176529481E+03  0.39315083809E+03  0.00000000000E+00 0. -1.
</event>
<event>
 8    1  0.7168478E-009  0.8430423E+02  0.7561462E-02  0.1317262E+00
         -2   -1    0    0    0  501 -0.00000000000E+00  0.00000000000E+00  0.45073281068E+02  0.45073281068E+02  0.00000000000E+00 0. -1.
          2   -1    0    0  501    0  0.00000000000E+00 -0.00000000000E+00 -0.35609139470E+03  0.35609139470E+03  0.00000000000E+00 0.  1.
         25    2    1    2    0    0  0.42748274111E+02  0.43877208823E+02 -0.19383473146E+03  0.23868655830E+03  0.12508695216E+03 0.  0.
         23    2    1    2    0    0 -0.42748274111E+02 -0.43877208823E+02 -0.11718338217E+03  0.16247811747E+03  0.94416996376E+02 0.  0.
          5    1    3    3  502    0  0.54110297662E+02  0.37386985095E+02 -0.20845563847E+03  0.21862510509E+03  0.41800000000E+01 0.  1.
         -5    1    3    3    0  502 -0.11362023550E+02  0.64902237275E+01  0.14620907007E+02  0.20061453210E+02  0.41800000000E+01 0.  1.
        -11    1    4    4    0    0  0.13845291403E+02 -0.26277964616E+02  0.15838774517E+01  0.29744447990E+02  0.00000000000E+00 0. -1.
         11    1    4    4    0    0 -0.56593565515E+02 -0.17599244206E+02 -0.11876725962E+03  0.13273366948E+03  0.00000000000E+00 0.  1.
</event>
<event>
 8    1  0.7168478E-009  0.1474959E+03  0.7561462E-02  0.1203584E+00
          2   -1    0    0  501    0  0.00000000000E+00  0.00000000000E+00  0.13958607261E+04  0.13958607261E+04  0.00000000000E+00 0. -1.
         -2   -1    0    0    0  501 -0.00000000000E+00 -0.00000000000E+00 -0.18495963935E+02  0.18495963935E+02  0.00000000000E+00 0.  1.
         25    2    1    2    0    0  0.10526984172E+03  0.19498473050E+02  0.97691527644E+03  0.99069319693E+03  0.12509045957E+03 0.  0.
         23    2    1    2    0    0 -0.10526984172E+03 -0.19498473050E+02  0.40044948574E+03  0.42366349312E+03  0.87573025226E+02 0.  0.
          5    1    3    3  502    0 -0.13832743922E+02 -0.30283485450E+02  0.14646160814E+03  0.15025614582E+03  0.41800000000E+01 0.  1.
         -5    1    3    3    0  502  0.11910258564E+03  0.49781958500E+02  0.83045366829E+03  0.84043705111E+03  0.41800000000E+01 0.  1.
        -11    1    4    4    0    0 -0.71071456932E+02  0.25724672442E+02  0.16507127462E+03  0.18155284759E+03  0.00000000000E+00 0.  1.
         11    1    4    4    0    0 -0.34198384785E+02 -0.45223145493E+02  0.23537821112E+03  0.24211064553E+03  0.00000000000E+00 0. -1.
</event>
<event>
 8    1  0.7168478E-009  0.8190651E+02  0.7561462E-02  0.1323726E+00
          2   -1    0    0  501    0  0.00000000000E+00  0.00000000000E+00  0.70036284597E+02  0.70036284597E+02  0.00000000000E+00 0.  1.
         -2   -1    0    0    0  501 -0.00000000000E+00 -0.00000000000E+00 -0.21336187902E+03  0.21336187902E+03  0.00000000000E+00 0. -1.
         25    2    1    2    0    0  0.23571583404E+02 -0.24796229775E+02 -0.31230369803E+02  0.13340004839E+03  0.12509901821E+03 0.  0.
         23    2    1    2    0    0 -0.23571583404E+02  0.24796229775E+02 -0.11209522462E+03  0.14999811522E+03  0.93614222392E+02 0.  0.
          5    1    3    3  502    0  0.63301701026E+02 -0.24008200718E+02 -0.54631035839E+02  0.87094899571E+02  0.41800000000E+01 0.  1.
         -5    1    3    3    0  502 -0.39730117621E+02 -0.78802905702E+00  0.23400666036E+02  0.46305148817E+02  0.41800000000E+01 0.  1.
        -11    1    4    4    0    0 -0.27097740731E+02 -0.36668482854E+01  0.63980501929E+01  0.28083240115E+02  0.00000000000E+00 0.  1.
         11    1    4    4    0    0  0.35261573269E+01  0.28463078060E+02 -0.11849327481E+03  0.12191487511E+03  0.00000000000E+00 0. -1.
</event>
<event>
 8    1  0.7168478E-009  0.9671390E+02  0.7561462E-02  0.1287362E+00
          2   -1    0    0  501    0  0.00000000000E+00  0.00000000000E+00  0.16085914604E+03  0.16085914604E+03  0.00000000000E+00 0. -1.
         -2   -1    0    0    0  501 -0.00000000000E+00 -0.00000000000E+00 -0.19921653067E+03  0.19921653067E+03  0.00000000000E+00 0.  1.
         25    2    1    2    0    0  0.70015161437E+02 -0.19750983001E+01  0.10552110515E+03  0.17801243399E+03  0.12509076377E+03 0.  0.
         23    2    1    2    0    0 -0.70015161437E+02  0.19750983001E+01 -0.14387848978E+03  0.18206324272E+03  0.86833062147E+02 0.  0.
          5    1    3    3  502    0  0.31931217337E+02 -0.41611597127E+02  0.11077485650E+03  0.12263632777E+03  0.41800000000E+01 0. -1.
         -5    1    3    3    0  502  0.38083944100E+02  0.39636498827E+02 -0.52537513501E+01  0.55376106226E+02  0.41800000000E+01 0. -1.
        -11    1    4    4    0    0 -0.50714674945E+02  0.24246945037E+02 -0.14178054958E+03  0.15251759517E+03  0.00000000000E+00 0.  1.
         11    1    4    4    0    0 -0.19300486492E+02 -0.22271846737E+02 -0.20979402081E+01  0.29545647547E+02  0.00000000000E+00 0. -1.
</event>
<event>
 8    1  0.7168478E-009  0.2322835E+03  0.7561462E-02  0.1125043E+00
          2   -1    0    0  501    0  0.00000000000E+00  0.00000000000E+00  0.28000738474E+03  0.28000738474E+03  0.00000000000E+00 0. -1.
         -2   -1    0    0    0  501 -0.00000000000E+00 -0.00000000000E+00 -0.21845516162E+03  0.21845516162E+03  0.00000000000E+00 0.  1.
         25    2    1    2    0    0  0.10262897094E+03 -0.19705253602E+03  0.20615366904E+02  0.25580210724E+03  0.12508923650E+03 0.  0.
         23    2    1    2    0    0 -0.10262897094E+03  0.19705253602E+03  0.40936856216E+02  0.24266043913E+03  0.88576830443E+02 0.  0.
          5    1    3    3  502    0  0.89051242389E+02 -0.12739716255E+03  0.68685031720E+02  0.16998607819E+03  0.41800000000E+01 0.  1.
         -5    1    3    3    0  502  0.13577728548E+02 -0.69655373478E+02 -0.48069664816E+02  0.85816029053E+02  0.41800000000E+01 0.  1.
        -11    1    4    4    0    0 -0.10019798195E+03  0.10227572298E+03  0.36457123212E+02  0.14774667824E+03  0.00000000000E+00 0.  1.
         11    1    4    4    0    0 -0.24309889889E+01  0.94776813044E+02  0.44797330041E+01  0.94913760888E+02  0.00000000000E+00 0. -1.
</event>
<event>
 8    1  0.7168478E-009  0.8272955E+02  0.7561462E-02  0.1321479E+00
         -3   -1    0    0    0  501 -0.00000000000E+00  0.00000000000E+00  0.36455816583E+02  0.36455816583E+02  0.00000000000E+00 0.  1.
          3   -1    0    0  501    0  0.00000000000E+00 -0.00000000000E+00 -0.42458387675E+03  0.42458387675E+03  0.00000000000E+00 0. -1.
         25    2    1    2    0    0  0.20309720589E+02  0.56524424874E+02 -0.23944546187E+03  0.27674928761E+03  0.12509413904E+03 0.  0.
         23    2    1    2    0    0 -0.20309720589E+02 -0.56524424874E+02 -0.14868259829E+03  0.18429040572E+03  0.90823693215E+02 0.  0.
          5    1    3    3  502    0  0.18425982319E+02  0.57623192722E+01  0.10006692135E+02  0.22143338395E+02  0.41800000000E+01 0.  1.
         -5    1    3    3    0  502  0.18837382700E+01  0.50762105601E+02 -0.24945215401E+03  0.25460594921E+03  0.41800000000E+01 0.  1.
        -11    1    4    4    0    0 -0.31767169361E+02  0.49970390661E+01 -0.12654704196E+02  0.34558139228E+02  0.00000000000E+00 0.  1.
         11    1    4    4    0    0  0.11457448772E+02 -0.61521463940E+02 -0.13602789410E+03  0.14973226650E+03  0.00000000000E+00 0. -1.
</event>
<event>
 8    1  0.7168478E-009  0.2860004E+03  0.7561462E-02  0.1092456E+00
         -1   -1    0    0    0  501 -0.00000000000E+00  0.00000000000E+00  0.49418570605E+03  0.49418570605E+03  0.00000000000E+00 0.  1.
          1   -1    0    0  501    0  0.00000000000E+00 -0.00000000000E+00 -0.18943072329E+03  0.18943072329E+03  0.00000000000E+00 0. -1.
         25    2    1    2    0    0 -0.18800029246E+03  0.19626942586E+03  0.25445715129E+03  0.39276126084E+03  0.12508864328E+03 0.  0.
         23    2    1    2    0    0  0.18800029246E+03 -0.19626942586E+03  0.50297831469E+02  0.29085516850E+03  0.90559702396E+02 0.  0.
          5    1    3    3  502    0 -0.21204320923E+02 -0.76322944244E+01 -0.44782708623E+01  0.23353853085E+02  0.41800000000E+01 0. -1.
         -5    1    3    3    0  502 -0.16679597154E+03  0.20390172028E+03  0.25893542215E+03  0.36940740775E+03  0.41800000000E+01 0. -1.
        -11    1    4    4    0    0  0.82905428149E+02 -0.14871139418E+03  0.18911389017E+02  0.17130682826E+03  0.00000000000E+00 0.  1.
         11    1    4    4    0    0  0.10509486432E+03 -0.47558031677E+02  0.31386442452E+02  0.11954834023E+03  0.00000000000E+00 0. -1.
</event>
<event>
 8    1  0.7168478E-009  0.1399562E+03  0.7561462E-02  0.1213388E+00
         -4   -1    0    0    0  501 -0.00000000000E+00  0.00000000000E+00  0.42747441880E+02  0.42747441880E+02  0.00000000000E+00 0.  1.
          4   -1    0    0  501    0  0.00000000000E+00 -0.00000000000E+00 -0.50166007359E+03  0.50166007359E+03  0.00000000000E+00 0. -1.
         25    2    1    2    0    0 -0.68264990584E+02 -0.59203264742E+02 -0.31941478075E+03  0.35473781921E+03  0.12509189710E+03 0.  0.
         23    2    1    2    0    0  0.68264990584E+02  0.59203264742E+02 -0.13949785095E+03  0.18966969625E+03  0.91377282518E+02 0.  0.
          5    1    3    3  502    0  0.16282094347E+02 -0.64433498945E+02 -0.17526564044E+03  0.18748946504E+03  0.41800000000E+01 0.  1.
         -5    1    3    3    0  502 -0.84547084931E+02  0.52302342033E+01 -0.14414914031E+03  0.16724835417E+03  0.41800000000E+01 0.  1.
        -11    1    4    4    0    0 -0.21908747995E+02  0.21738829608E+02 -0.33512949924E+02  0.45559716461E+02  0.00000000000E+00 0.  1.
         11    1    4    4    0    0  0.90173738579E+02  0.37464435134E+02 -0.10598490103E+03  0.14410997979E+03  0.00000000000E+00 0. -1.
</event>
<event>
 8    1  0.7168478E-009  0.1297854E+03  0.7561462E-02  0.1227775E+00
          3   -1    0    0  501    0  0.00000000000E+00  0.00000000000E+00  0.40865843855E+02  0.40865843855E+02  0.00000000000E+00 0. -1.
         -3   -1    0    0    0  501 -0.00000000000E+00 -0.00000000000E+00 -0.44127899591E+03  0.44127899591E+03  0.00000000000E+00 0.  1.
         25    2    1    2    0    0  0.51863288920E+01  0.76275460069E+02 -0.18280158935E+03  0.23432812814E+03  0.12509359197E+03 0.  0.
         23    2    1    2    0    0 -0.51863288920E+01 -0.76275460069E+02 -0.21761156270E+03  0.24781671162E+03  0.90628287650E+02 0.  0.
          5    1    3    3  502    0  0.64312433774E+02  0.41164681261E+02 -0.80896392055E+02  0.11132079217E+03  0.41800000000E+01 0.  1.
         -5    1    3    3    0  502 -0.59126104882E+02  0.35110778807E+02 -0.10190519730E+03  0.12300733597E+03  0.41800000000E+01 0.  1.
        -11    1    4    4    0    0  0.20188993206E+02 -0.85005957989E+02 -0.19094642747E+03  0.20998606264E+03  0.00000000000E+00 0.  1.
         11    1    4    4    0    0 -0.25375322098E+02  0.87304979199E+01 -0.26665135234E+02  0.37830648984E+02  0.00000000000E+00 0. -1.
</event>
<event>
 8    1  0.7168478E-009  0.9002864E+02  0.7561462E-02  0.1302782E+00
          2   -1    0    0  501    0  0.00000000000E+00  0.00000000000E+00  0.86902251675E+02  0.86902251675E+02  0.00000000000E+00 0. -1.
         -2   -1    0    0    0  501 -0.00000000000E+00 -0.00000000000E+00 -0.14599593253E+03  0.14599593253E+03  0.00000000000E+00 0.  1.
         25    2    1    2    0    0 -0.29781954237E+02  0.80404320694E+00 -0.24800728856E+02  0.13094946346E+03  0.12508027240E+03 0.  0.
         23    2    1    2    0    0  0.29781954237E+02 -0.80404320694E+00 -0.34292951996E+02  0.10194872074E+03  0.91268416339E+02 0.  0.
          5    1    3    3  502    0 -0.27131877389E+02 -0.39428375604E+02  0.34479068061E+02  0.59135557051E+02  0.41800000000E+01 0.  1.
         -5    1    3    3    0  502 -0.26500768477E+01  0.40232418811E+02 -0.59279796917E+02  0.71813906405E+02  0.41800000000E+01 0.  1.
        -11    1    4    4    0    0 -0.10928629554E+02 -0.36024834862E+02  0.85982253059E+00  0.37655849022E+02  0.00000000000E+00 0. -1.
         11    1    4    4    0    0  0.40710583791E+02  0.35220791655E+02 -0.35152774526E+02  0.64292871722E+02  0.00000000000E+00 0.  1.
</event>
<event>
 8    1  0.7168478E-009  0.1435432E+03  0.7561462E-02  0.1208639E+00
          1   -1    0    0  501    0  0.00000000000E+00  0.00000000000E+00  0.17402158411E+03  0.17402158411E+03  0.00000000000E+00 0. -1.
         -1   -1    0    0    0  501 -0.00000000000E+00 -0.00000000000E+00 -0.20800703271E+03  0.20800703271E+03  0.00000000000E+00 0.  1.
         25    2    1    2    0    0 -0.93208360010E+02 -0.33334761174E+02  0.10385588808E+03  0.19035001998E+03  0.12509228569E+03 0.  0.
         23    2    1    2    0    0  0.93208360010E+02  0.33334761174E+02 -0.13784133668E+03  0.19167859684E+03  0.89114789516E+02 0.  0.
          5    1    3    3  502    0 -0.84362216132E+02 -0.74191118863E+02  0.52720998050E+02  0.12417037354E+03  0.41800000000E+01 0.  1.
         -5    1    3    3    0  502 -0.88461438783E+01  0.40856357689E+02  0.51134890028E+02  0.66179646443E+02  0.41800000000E+01 0.  1.
        -11    1    4    4    0    0  0.31447744136E+02 -0.30515814618E+02 -0.37604317236E+02  0.57743053503E+02  0.00000000000E+00 0.  1.
         11    1    4    4    0    0  0.61760615874E+02  0.63850575792E+02 -0.10023701945E+03  0.13393554334E+03  0.00000000000E+00 0. -1.
</event>
<event>
 8    1  0.7168478E-009  0.1114475E+03  0.7561462E-02  0.1257913E+00
         -2   -1    0    0    0  501 -0.00000000000E+00  0.00000000000E+00  0.53471853134E+02  0.53471853134E+02  0.00000000000E+00 0.  1.
          2   -1    0    0  501    0  0.00000000000E+00 -0.00000000000E+00 -0.66302475328E+03  0.66302475328E+03  0.00000000000E+00 0. -1.
         25    2    1    2    0    0  0.82073844946E+01 -0.27838066443E+02 -0.60702105401E+03  0.62045359488E+03  0.12508310954E+03 0.  0.
         23    2    1    2    0    0 -0.82073844946E+01  0.27838066443E+02 -0.25318461422E+01  0.96043011533E+02  0.91517925653E+02 0.  0.
          5    1    3    3  502    0 -0.45388037371E+02 -0.52128392170E+02 -0.34359893024E+03  0.35050697635E+03  0.41800000000E+01 0. -1.
         -5    1    3    3    0  502  0.53595421866E+02  0.24290325727E+02 -0.26342212377E+03  0.26994661854E+03  0.41800000000E+01 0. -1.
        -11    1    4    4    0    0  0.34812360685E+02  0.36862371925E+02  0.66545937418E+01  0.51137251963E+02  0.00000000000E+00 0. -1.
         11    1    4    4    0    0 -0.43019745180E+02 -0.90243054825E+01 -0.91864398840E+01  0.44905759570E+02  0.00000000000E+00 0.  1.
</event>
<event>
 8    1  0.7168478E-009  0.1140159E+03  0.7561462E-02  0.1253309E+00
          1   -1    0    0  501    0  0.00000000000E+00  0.00000000000E+00  0.64451064351E+03  0.64451064351E+03  0.00000000000E+00 0. -1.
         -1   -1    0    0    0  501 -0.00000000000E+00 -0.00000000000E+00 -0.22954423523E+02  0.22954423523E+02  0.00000000000E+00 0.  1.
         25    2    1    2    0    0 -0.36917446171E+02  0.25399163397E+02  0.42953915071E+03  0.44962160989E+03  0.12509074611E+03 0.  0.
         23    2    1    2    0    0  0.36917446171E+02 -0.25399163397E+02  0.19201706929E+03  0.21784345714E+03  0.92613182592E+02 0.  0.
          5    1    3    3  502    0 -0.17848872138E+02  0.76210247992E+02  0.26003883089E+03  0.27159574758E+03  0.41800000000E+01 0. -1.
         -5    1    3    3    0  502 -0.19068574033E+02 -0.50811084595E+02  0.16950031982E+03  0.17802586231E+03  0.41800000000E+01 0. -1.
        -11    1    4    4    0    0 -0.17081174676E+01  0.28695605954E+02  0.25040496696E+02  0.38123246729E+02  0.00000000000E+00 0.  1.
         11    1    4    4    0    0  0.38625563638E+02 -0.54094769351E+02  0.16697657259E+03  0.17972021041E+03  0.00000000000E+00 0. -1.
</event>
<event>
 8    1  0.7168478E-009  0.2817107E+03  0.7561462E-02  0.1094758E+00
          2   -1    0    0  501    0  0.00000000000E+00  0.00000000000E+00  0.22275177605E+04  0.22275177605E+04  0.00000000000E+00 0. -1.
         -2   -1    0    0    0  501 -0.00000000000E+00 -0.00000000000E+00 -0.85989730338E+02  0.85989730338E+02  0.00000000000E+00 0.  1.
         25    2    1    2    0    0  0.18759008738E+03  0.20323373139E+03  0.19279254910E+04  0.19516754922E+04  0.12508612084E+03 0.  0.
         23    2    1    2    0    0 -0.18759008738E+03 -0.20323373139E+03  0.21360253922E+03  0.36183199868E+03  0.93820893462E+02 0.  0.
          5    1    3    3  502    0  0.19303082740E+03  0.19177455332E+03  0.19101707071E+04  0.19294579504E+04  0.41800000000E+01 0. -1.
         -5    1    3    3    0  502 -0.54407400280E+01  0.11459178066E+02  0.17754783903E+02  0.22217541841E+02  0.41800000000E+01 0. -1.
        -11    1    4    4    0    0 -0.13828498816E+03 -0.13104835278E+03  0.90681244542E+02  0.21099643795E+03  0.00000000000E+00 0.  1.
         11    1    4    4    0    0 -0.49305099211E+02 -0.72185378611E+02  0.12292129468E+03  0.15083556073E+03  0.00000000000E+00 0. -1.
</event>
<event>
 8    1  0.7168478E-009  0.1301410E+03  0.7561462E-02  0.1227247E+00
          2   -1    0    0  501    0  0.00000000000E+00  0.00000000000E+00  0.41736388380E+03  0.41736388380E+03  0.00000000000E+00 0. -1.
         -2   -1    0    0    0  501 -0.00000000000E+00 -0.00000000000E+00 -0.47584190852E+02  0.47584190852E+02  0.00000000000E+00 0.  1.
         25    2    1    2    0    0  0.84907708457E+02  0.25183812884E+02  0.18067691364E+03  0.23692688858E+03  0.12508661009E+03 0.  0.
         23    2    1    2    0    0 -0.84907708457E+02 -0.25183812884E+02  0.18910277931E+03  0.22802118608E+03  0.91598344794E+02 0.  0.
          5    1    3    3  502    0  0.76287190903E+02 -0.29299914675E+02  0.15640462941E+03  0.17651657429E+03  0.41800000000E+01 0.  1.
         -5    1    3    3    0  502  0.86205175540E+01  0.54483727559E+02  0.24272284226E+02  0.60410314295E+02  0.41800000000E+01 0.  1.
        -11    1    4    4    0    0 -0.16548214417E+02  0.30676298169E+02  0.82827693766E+02  0.89862703744E+02  0.00000000000E+00 0. -1.
         11    1    4    4    0    0 -0.68359494040E+02 -0.55860111053E+02  0.10627508555E+03  0.13815848233E+03  0.00000000000E+00 0.  1.
</event>
<event>
 8    1  0.7168478E-009  0.1241135E+03  0.7561462E-02  0.1236461E+00
          1   -1    0    0  501    0  0.00000000000E+00  0.00000000000E+00  0.83037003183E+02  0.83037003183E+02  0.00000000000E+00 0. -1.
         -1   -1    0    0    0  501 -0.00000000000E+00 -0.00000000000E+00 -0.37391346584E+03  0.37391346584E+03  0.00000000000E+00 0.  1.
         25    2    1    2    0    0 -0.66217854251E+02  0.32568453045E+00 -0.31209098708E+03  0.34268568889E+03  0.12509111424E+03 0.  0.
         23    2    1    2    0    0  0.66217854251E+02 -0.32568453045E+00  0.21214524420E+02  0.11426478013E+03  0.90672342204E+02 0.  0.
          5    1    3    3  502    0 -0.54968495869E+02 -0.57483212021E+02 -0.21215347236E+03  0.22661073107E+03  0.41800000000E+01 0. -1.
         -5    1    3    3    0  502 -0.11249358381E+02  0.57808896552E+02 -0.99937514717E+02  0.11607495782E+03  0.41800000000E+01 0. -1.
        -11    1    4    4    0    0 -0.32366982932E+01  0.32541349061E+02  0.18068951460E+02  0.37361780223E+02  0.00000000000E+00 0.  1.
         11    1    4    4    0    0  0.69454552544E+02 -0.32867033591E+02  0.31455729602E+01  0.76902999912E+02  0.00000000000E+00 0. -1.
</event>
<event>
 8    1  0.7168478E-009  0.9537082E+02  0.7561462E-02  0.1290343E+00
          2   -1    0    0  501    0  0.00000000000E+00  0.00000000000E+00  0.10697668757E+04  0.10697668757E+04  0.00000000000E+00 0. -1.
         -2   -1    0    0    0  501 -0.00000000000E+00 -0.00000000000E+00 -0.13228812082E+02  0.13228812082E+02  0.00000000000E+00 0.  1.
         25    2    1    2    0    0 -0.27893623346E+02  0.15681773962E+02  0.75937075108E+03  0.77027000213E+03  0.12509183159E+03 0.  0.
         23    2    1    2    0    0  0.27893623346E+02 -0.15681773962E+02  0.29716731250E+03  0.31272568561E+03  0.92005274659E+02 0.  0.
          5    1    3    3  502    0 -0.50459182042E+02  0.48141205976E+02  0.65277134834E+03  0.65649951285E+03  0.41800000000E+01 0.  1.
         -5    1    3    3    0  502  0.22565558696E+02 -0.32459432013E+02  0.10659940274E+03  0.11377048928E+03  0.41800000000E+01 0.  1.
        -11    1    4    4    0    0 -0.94355092659E+01 -0.36966973694E+02  0.22891624214E+03  0.23207376391E+03  0.00000000000E+00 0. -1.
         11    1    4    4    0    0  0.37329132612E+02  0.21285199731E+02  0.68251070357E+02  0.80651921701E+02  0.00000000000E+00 0.  1.
</event>
<event>
 8    1  0.7168478E-009  0.1094695E+03  0.7561462E-02  0.1261555E+00
          1   -1    0    0  501    0  0.00000000000E+00  0.00000000000E+00  0.50810465021E+02  0.50810465021E+02  0.00000000000E+00 0. -1.
         -1   -1    0    0    0  501 -0.00000000000E+00 -0.00000000000E+00 -0.43923996431E+03  0.43923996431E+03  0.00000000000E+00 0.  1.
         25    2    1    2    0    0  0.67519659473E+02 -0.30310144927E+02 -0.94317701006E+02  0.17326247870E+03  0.12508576459E+03 0.  0.
         23    2    1    2    0    0 -0.67519659473E+02  0.30310144927E+02 -0.29411179828E+03  0.31678795063E+03  0.91516372704E+02 0.  0.
          5    1    3    3  502    0 -0.20861015595E+02 -0.90471777100E+01  0.17572728066E+02  0.29039741181E+02  0.41800000000E+01 0.  1.
         -5    1    3    3    0  502  0.88380675068E+02 -0.21262967217E+02 -0.11189042907E+03  0.14422273752E+03  0.41800000000E+01 0.  1.
        -11    1    4    4    0    0 -0.32980406503E+02 -0.23769187520E+02 -0.50304811909E+02  0.64678092038E+02  0.00000000000E+00 0.  1.
         11    1    4    4    0    0 -0.34539252970E+02  0.54079332447E+02 -0.24380698637E+03  0.25210985859E+03  0.00000000000E+00 0. -1.
</event>
<event>
 8    1  0.7168478E-009  0.9377670E+02  0.7561462E-02  0.1293955E+00
          2   -1    0    0  501    0  0.00000000000E+00  0.00000000000E+00  0.38705469245E+03  0.38705469245E+03  0.00000000000E+00 0. -1.
         -2   -1    0    0    0  501 -0.00000000000E+00 -0.00000000000E+00 -0.41188668855E+02  0.41188668855E+02  0.00000000000E+00 0.  1.
         25    2    1    2    0    0  0.25913768530E+02  0.58673954045E+02  0.21155532339E+03  0.25400271423E+03  0.12509023823E+03 0.  0.
         23    2    1    2    0    0 -0.25913768530E+02 -0.58673954045E+02  0.13431070020E+03  0.17424064707E+03  0.90588534706E+02 0.  0.
          5    1    3    3  502    0  0.41697912347E+02  0.54218835935E+02  0.35575124189E+02  0.77210491032E+02  0.41800000000E+01 0. -1.
         -5    1    3    3    0  502 -0.15784143817E+02  0.44551181099E+01  0.17598019920E+03  0.17679222320E+03  0.41800000000E+01 0. -1.
        -11    1    4    4    0    0  0.20462534502E+02 -0.51186449260E+02  0.37609086889E+02  0.66732385861E+02  0.00000000000E+00 0.  1.
         11    1    4    4    0    0 -0.46376303032E+02 -0.74875047851E+01  0.96701613316E+02  0.10750826121E+03  0.00000000000E+00 0. -1.
</event>
<event>
 8    1  0.7168478E-009  0.7548012E+02  0.7561462E-02  0.1342391E+00
          3   -1    0    0  501    0  0.00000000000E+00  0.00000000000E+00  0.10576023407E+04  0.10576023407E+04  0.00000000000E+00 0. -1.
         -3   -1    0    0    0  501 -0.00000000000E+00 -0.00000000000E+00 -0.17348396325E+02  0.17348396325E+02  0.00000000000E+00 0.  1.
         25    2    1    2    0    0 -0.10827209519E+02  0.17633360212E+02  0.88539490920E+03  0.89442736873E+03  0.12509200147E+03 0.  0.
         23    2    1    2    0    0  0.10827209519E+02 -0.17633360212E+02  0.15485903513E+03  0.18052336825E+03  0.90438939985E+02 0.  0.
          5    1    3    3  502    0 -0.27338902575E+02 -0.78601617336E+01  0.83460981818E+03  0.83510491481E+03  0.41800000000E+01 0. -1.
         -5    1    3    3    0  502  0.16511693056E+02  0.25493521945E+02  0.50785091018E+02  0.59322453915E+02  0.41800000000E+01 0. -1.
        -11    1    4    4    0    0 -0.39497724347E+02 -0.70248023283E+01  0.82636928339E+02  0.91860111047E+02  0.00000000000E+00 0. -1.
         11    1    4    4    0    0  0.50324933865E+02 -0.10608557883E+02  0.72222106787E+02  0.88663257202E+02  0.00000000000E+00 0.  1.
</event>
<event>
 8    1  0.7168478E-009  0.8728361E+02  0.7561462E-02  0.1309566E+00
          1   -1    0    0  501    0  0.00000000000E+00  0.00000000000E+00  0.57517987836E+03  0.57517987836E+03  0.00000000000E+00 0. -1.
         -1   -1    0    0    0  501 -0.00000000000E+00 -0.00000000000E+00 -0.30492476257E+02  0.30492476257E+02  0.00000000000E+00 0.  1.
         25    2    1    2    0    0  0.94348962770E+01  0.78123133089E+01  0.46262096175E+03  0.47939102169E+03  0.12509015917E+03 0.  0.
         23    2    1    2    0    0 -0.94348962770E+01 -0.78123133089E+01  0.82066440351E+02  0.12628133292E+03  0.95194668476E+02 0.  0.
          5    1    3    3  502    0 -0.35199882548E+02 -0.22308575733E+02  0.36851845363E+03  0.37089085639E+03  0.41800000000E+01 0.  1.
         -5    1    3    3    0  502  0.44634778825E+02  0.30120889042E+02  0.94102508118E+02  0.10850016531E+03  0.41800000000E+01 0.  1.
        -11    1    4    4    0    0  0.67032370653E+01  0.33582856721E+02  0.73425989922E+02  0.81019242460E+02  0.00000000000E+00 0. -1.
         11    1    4    4    0    0 -0.16138133342E+02 -0.41395170030E+02  0.86404504291E+01  0.45262090465E+02  0.00000000000E+00 0.  1.
</event>
<event>
 8    1  0.7168478E-009  0.8129157E+02  0.7561462E-02  0.1325426E+00
         -1   -1    0    0    0  501 -0.00000000000E+00  0.00000000000E+00  0.40792289456E+02  0.40792289456E+02  0.00000000000E+00 0.  1.
          1   -1    0    0  501    0  0.00000000000E+00 -0.00000000000E+00 -0.30718983631E+03  0.30718983631E+03  0.00000000000E+00 0. -1.
         25    2    1    2    0    0  0.10398523826E+02 -0.23918789327E+01 -0.19458359752E+03  0.23157634864E+03  0.12510387060E+03 0.  0.
         23    2    1    2    0    0 -0.10398523826E+02  0.23918789327E+01 -0.71813949333E+02  0.11640577713E+03  0.90990171166E+02 0.  0.
          5    1    3    3  502    0  0.63259767971E+02 -0.14907696978E+01 -0.14790212248E+03  0.16092399098E+03  0.41800000000E+01 0.  1.
         -5    1    3    3    0  502 -0.52861244145E+02 -0.90110923491E+00 -0.46681475043E+02  0.70652357658E+02  0.41800000000E+01 0.  1.
        -11    1    4    4    0    0  0.15628798789E+02 -0.86482133404E+01  0.16106562406E+02  0.24051451061E+02  0.00000000000E+00 0.  1.
         11    1    4    4    0    0 -0.26027322615E+02  0.11040092273E+02 -0.87920511740E+02  0.92354326073E+02  0.00000000000E+00 0. -1.
</event>
<event>
 8    1  0.7168478E-009  0.1029846E+03  0.7561462E-02  0.1274142E+00
          2   -1    0    0  501    0  0.00000000000E+00  0.00000000000E+00  0.49243368032E+03  0.49243368032E+03  0.00000000000E+00 0. -1.
         -2   -1    0    0    0  501 -0.00000000000E+00 -0.00000000000E+00 -0.30931426734E+02  0.30931426734E+02  0.00000000000E+00 0.  1.
         25    2    1    2    0    0 -0.30761232660E+01  0.48696550147E+02  0.31961183430E+03  0.34666931760E+03  0.12508826729E+03 0.  0.
         23    2    1    2    0    0  0.30761232660E+01 -0.48696550147E+02  0.14189041929E+03  0.17669578945E+03  0.93315027693E+02 0.  0.
          5    1    3    3  502    0  0.56763165454E+02  0.38713908040E+02  0.21403883342E+03  0.22483531359E+03  0.41800000000E+01 0.  1.
         -5    1    3    3    0  502 -0.59839288720E+02  0.99826421071E+01  0.10557300088E+03  0.12183400401E+03  0.41800000000E+01 0.  1.
        -11    1    4    4    0    0  0.30884896849E+02 -0.23671873900E+02  0.10817865014E+02  0.40388868154E+02  0.00000000000E+00 0.  1.
         11    1    4    4    0    0 -0.27808773583E+02 -0.25024676247E+02  0.13107255427E+03  0.13630692130E+03  0.00000000000E+00 0. -1.
</event>
<event>
 8    1  0.7168478E-009  0.1699763E+03  0.7561462E-02  0.1177873E+00
         -2   -1    0    0    0  501 -0.00000000000E+00  0.00000000000E+00  0.49036287274E+02  0.49036287274E+02  0.00000000000E+00 0.  1.
          2   -1    0    0  501    0  0.00000000000E+00 -0.00000000000E+00 -0.66710572432E+03  0.66710572432E+03  0.00000000000E+00 0. -1.
         25    2    1    2    0    0 -0.77716960883E+02  0.12114819857E+03 -0.29945142867E+03  0.35501193393E+03  0.12508198541E+03 0.  0.
         23    2    1    2    0    0  0.77716960883E+02 -0.12114819857E+03 -0.31861800838E+03  0.36113007767E+03  0.90447143170E+02 0.  0.
          5    1    3    3  502    0 -0.46355650167E+01 -0.15682507479E+02  0.94024097338E+00  0.16905205025E+02  0.41800000000E+01 0.  1.
         -5    1    3    3    0  502 -0.73081395866E+02  0.13683070605E+03 -0.30039166964E+03  0.33810672890E+03  0.41800000000E+01 0.  1.
        -11    1    4    4    0    0  0.76393066438E+02 -0.39070013362E+02 -0.19103229201E+03  0.20941753302E+03  0.00000000000E+00 0. -1.
         11    1    4    4    0    0  0.13238944452E+01 -0.82078185206E+02 -0.12758571637E+03  0.15171254465E+03  0.00000000000E+00 0.  1.
</event>
<event>
 8    1  0.7168478E-009  0.1205172E+03  0.7561462E-02  0.1242246E+00
          1   -1    0    0  501    0  0.00000000000E+00  0.00000000000E+00  0.11898612061E+04  0.11898612061E+04  0.00000000000E+00 0. -1.
         -1   -1    0    0    0  501 -0.00000000000E+00 -0.00000000000E+00 -0.20052168404E+02  0.20052168404E+02  0.00000000000E+00 0.  1.
         25    2    1    2    0    0 -0.10121361675E+03  0.21692047978E+02  0.48192659450E+03  0.50854226544E+03  0.12508897669E+03 0.  0.
         23    2    1    2    0    0  0.10121361675E+03 -0.21692047978E+02  0.68788244318E+03  0.70137110905E+03  0.89579215304E+02 0.  0.
          5    1    3    3  502    0 -0.32663798572E+02  0.14301969148E+02  0.39901968961E+03  0.40063157034E+03  0.41800000000E+01 0.  1.
         -5    1    3    3    0  502 -0.68549818180E+02  0.73900788300E+01  0.82906904894E+02  0.10791069510E+03  0.41800000000E+01 0.  1.
        -11    1    4    4    0    0  0.85069869349E+02  0.23345779694E+02  0.48165126048E+03  0.48966299106E+03  0.00000000000E+00 0. -1.
         11    1    4    4    0    0  0.16143747403E+02 -0.45037827672E+02  0.20623118271E+03  0.21170811799E+03  0.00000000000E+00 0.  1.
</event>
<event>
 8    1  0.7168478E-009  0.9562393E+02  0.7561462E-02  0.1289777E+00
          1   -1    0    0  501    0  0.00000000000E+00  0.00000000000E+00  0.15479304609E+03  0.15479304609E+03  0.00000000000E+00 0. -1.
         -1   -1    0    0    0  501 -0.00000000000E+00 -0.00000000000E+00 -0.10392751401E+03  0.10392751401E+03  0.00000000000E+00 0.  1.
         25    2    1    2    0    0  0.62262476067E+02  0.23686129679E+02  0.31043137923E+02  0.14507869351E+03  0.12508597936E+03 0.  0.
         23    2    1    2    0    0 -0.62262476067E+02 -0.23686129679E+02  0.19822394153E+02  0.11364186659E+03  0.89910499208E+02 0.  0.
          5    1    3    3  502    0  0.91778433618E+02  0.18069660582E+02 -0.98633952600E+01  0.94151752384E+02  0.41800000000E+01 0. -1.
         -5    1    3    3    0  502 -0.29515957551E+02  0.56164690962E+01  0.40906533183E+02  0.50926941125E+02  0.41800000000E+01 0. -1.
        -11    1    4    4    0    0 -0.47532316316E+02 -0.22240845154E+02 -0.30834769152E+02  0.60866733740E+02  0.00000000000E+00 0.  1.
         11    1    4    4    0    0 -0.14730159751E+02 -0.14452845242E+01  0.50657163304E+02  0.52775132853E+02  0.00000000000E+00 0. -1.
</event>
<event>
 8    1  0.7168478E-009  0.8162366E+02  0.7561462E-02  0.1324506E+00
          1   -1    0    0  501    0  0.00000000000E+00  0.00000000000E+00  0.84552925102E+03  0.84552925102E+03  0.00000000000E+00 0. -1.
         -1   -1    0    0    0  501 -0.00000000000E+00 -0.00000000000E+00 -0.43944563355E+02  0.43944563355E+02  0.00000000000E+00 0.  1.
         25    2    1    2    0    0  0.19207826345E+02  0.13052490880E+02  0.78215091438E+03  0.79243122221E+03  0.12509149035E+03 0.  0.
         23    2    1    2    0    0 -0.19207826345E+02 -0.13052490880E+02  0.19433773287E+02  0.97042592165E+02  0.92196990400E+02 0.  0.
          5    1    3    3  502    0 -0.39028132327E+02  0.35232491432E+02  0.53171507790E+03  0.53432473275E+03  0.41800000000E+01 0.  1.
         -5    1    3    3    0  502  0.58235958672E+02 -0.22180000552E+02  0.25043583648E+03  0.25810648946E+03  0.41800000000E+01 0.  1.
        -11    1    4    4    0    0 -0.18457612402E+01 -0.26201606810E+02  0.51772045470E+02  0.58054075878E+02  0.00000000000E+00 0. -1.
         11    1    4    4    0    0 -0.17362065105E+02  0.13149115930E+02 -0.32338272183E+02  0.38988516286E+02  0.00000000000E+00 0.  1.
</event>
<event>
 8    1  0.7168478E-009  0.1712130E+03  0.7561462E-02  0.1176589E+00
         -1   -1    0    0    0  501 -0.00000000000E+00  0.00000000000E+00  0.10247957014E+03  0.10247957014E+03  0.00000000000E+00 0.  1.
          1   -1    0    0  501    0  0.00000000000E+00 -0.00000000000E+00 -0.31516462493E+03  0.31516462493E+03  0.00000000000E+00 0. -1.
         25    2    1    2    0    0  0.13872870364E+03 -0.34167758944E+02 -0.86557471327E+02  0.20869237965E+03  0.12508886647E+03 0.  0.
         23    2    1    2    0    0 -0.13872870364E+03  0.34167758944E+02 -0.12612758346E+03  0.20895181543E+03  0.85671494078E+02 0.  0.
          5    1    3    3  502    0  0.52759087205E+02  0.37181714419E+02  0.40221356893E+01  0.64804715456E+02  0.41800000000E+01 0.  1.
         -5    1    3    3    0  502  0.85969616433E+02 -0.71349473363E+02 -0.90579607017E+02  0.14388766419E+03  0.41800000000E+01 0.  1.
        -11    1    4    4    0    0 -0.12004192147E+03 -0.75054024550E+01 -0.82990967334E+02  0.14612971853E+03  0.00000000000E+00 0.  1.
         11    1    4    4    0    0 -0.18686782164E+02  0.41673161400E+02 -0.43136616123E+02  0.62822096903E+02  0.00000000000E+00 0. -1.
</event>
<event>
 8    1  0.7168478E-009  0.9429425E+02  0.7561462E-02  0.1292774E+00
         -1   -1    0    0    0  501 -0.00000000000E+00  0.00000000000E+00  0.39239611336E+02  0.39239611336E+02  0.00000000000E+00 0.  1.
          1   -1    0    0  501    0  0.00000000000E+00 -0.00000000000E+00 -0.32665349441E+03  0.32665349441E+03  0.00000000000E+00 0. -1.
         25    2    1    2    0    0 -0.17495454713E+02  0.15753947801E+02 -0.18753661740E+03  0.22665405384E+03  0.12509116456E+03 0.  0.
         23    2    1    2    0    0  0.17495454713E+02 -0.15753947801E+02 -0.99877265679E+02  0.13923905191E+03  0.94115713721E+02 0.  0.
          5    1    3    3  502    0 -0.62631753619E+02  0.29322640548E+02 -0.63815858731E+02  0.94193895958E+02  0.41800000000E+01 0. -1.
         -5    1    3    3    0  502  0.45136298906E+02 -0.13568692747E+02 -0.12372075867E+03  0.13246015789E+03  0.41800000000E+01 0. -1.
        -11    1    4    4    0    0  0.64127049044E+01 -0.42529918852E+02 -0.91191870550E+01  0.43966764201E+02  0.00000000000E+00 0.  1.
         11    1    4    4    0    0  0.11082749809E+02  0.26775971051E+02 -0.90758078624E+02  0.95272287705E+02  0.00000000000E+00 0. -1.
</event>
<event>
 8    1  0.7168478E-009  0.9105773E+02  0.7561462E-02  0.1300310E+00
          2   -1    0    0  501    0  0.00000000000E+00  0.00000000000E+00  0.13071647672E+03  0.13071647672E+03  0.00000000000E+00 0. -1.
         -2   -1    0    0    0  501 -0.00000000000E+00 -0.00000000000E+00 -0.12071068531E+03  0.12071068531E+03  0.00000000000E+00 0.  1.
         25    2    1    2    0    0  0.21447701372E+02  0.30380836244E+02 -0.44734491720E+02  0.13795663332E+03  0.12509140187E+03 0.  0.
         23    2    1    2    0    0 -0.21447701372E+02 -0.30380836244E+02  0.54740283134E+02  0.11347052871E+03  0.92174091719E+02 0.  0.
          5    1    3    3  502    0 -0.24206500705E+02  0.38090746805E+02 -0.71244709018E+02  0.84440160064E+02  0.41800000000E+01 0. -1.
         -5    1    3    3    0  502  0.45654202077E+02 -0.77099105610E+01  0.26510217298E+02  0.53516473252E+02  0.41800000000E+01 0. -1.
        -11    1    4    4    0    0 -0.43419331988E+02 -0.46067958852E+02  0.14386631693E+02  0.64918952506E+02  0.00000000000E+00 0.  1.
         11    1    4    4    0    0  0.21971630616E+02  0.15687122608E+02  0.40353651441E+02  0.48551576208E+02  0.00000000000E+00 0. -1.
</event>
<event>
 8    1  0.7168478E-009  0.5982035E+02  0.7561462E-02  0.1398587E+00
          1   -1    0    0  501    0  0.00000000000E+00  0.00000000000E+00  0.99170730735E+02  0.99170730735E+02  0.00000000000E+00 0. -1.
         -1   -1    0    0    0  501 -0.00000000000E+00 -0.00000000000E+00 -0.13962923877E+03  0.13962923877E+03  0.00000000000E+00 0.  1.
         25    2    1    2    0    0 -0.35665420140E+02  0.27934333538E+02 -0.29851095550E+02  0.13635184413E+03  0.12509351825E+03 0.  0.
         23    2    1    2    0    0  0.35665420140E+02 -0.27934333538E+02 -0.10607412484E+02  0.10244812537E+03  0.91272953326E+02 0.  0.
          5    1    3    3  502    0 -0.10898449061E+02  0.35412921892E+02  0.44184259519E+02  0.57814984374E+02  0.41800000000E+01 0. -1.
         -5    1    3    3    0  502 -0.24766971079E+02 -0.74785883538E+01 -0.74035355069E+02  0.78536859756E+02  0.41800000000E+01 0. -1.
        -11    1    4    4    0    0  0.30362654454E+02 -0.28365803490E+01  0.37255446208E+02  0.48144628420E+02  0.00000000000E+00 0. -1.
         11    1    4    4    0    0  0.53027656864E+01 -0.25097753189E+02 -0.47862858692E+02  0.54303496952E+02  0.00000000000E+00 0.  1.
</event>
<event>
 8    1  0.7168478E-009  0.4002755E+03  0.7561462E-02  0.1043684E+00
         -2   -1    0    0    0  501 -0.00000000000E+00  0.00000000000E+00  0.15333532108E+03  0.15333532108E+03  0.00000000000E+00 0. -1.
          2   -1    0    0  501    0  0.00000000000E+00 -0.00000000000E+00 -0.13627191984E+04  0.13627191984E+04  0.00000000000E+00 0.  1.
         25    2    1    2    0    0  0.37392777116E+03  0.11335838176E+03 -0.96199265858E+03  0.10458249616E+04  0.12509146401E+03 0.  0.
         23    2    1    2    0    0 -0.37392777116E+03 -0.11335838176E+03 -0.24739121872E+03  0.47022955787E+03  0.85095953125E+02 0.  0.
          5    1    3    3  502    0  0.37050878081E+03  0.12968433227E+03 -0.93097250164E+03  0.10103573892E+04  0.41800000000E+01 0. -1.
         -5    1    3    3    0  502  0.34189903489E+01 -0.16325950510E+02 -0.31020156938E+02  0.35467572394E+02  0.41800000000E+01 0. -1.
        -11    1    4    4    0    0 -0.31822274662E+03 -0.94112522543E+02 -0.24265928554E+03  0.41110389468E+03  0.00000000000E+00 0.  1.
         11    1    4    4    0    0 -0.55705024536E+02 -0.19245859221E+02 -0.47319331798E+01  0.59125663188E+02  0.00000000000E+00 0. -1.
</event>
<event>
 8    1  0.7168478E-009  0.8753600E+02  0.7561462E-02  0.1308931E+00
         -2   -1    0    0    0  501 -0.00000000000E+00  0.00000000000E+00  0.72650549661E+02  0.72650549661E+02  0.00000000000E+00 0.  1.
          2   -1    0    0  501    0  0.00000000000E+00 -0.00000000000E+00 -0.20332163843E+03  0.20332163843E+03  0.00000000000E+00 0. -1.
         25    2    1    2    0    0 -0.17757351252E+02  0.46845232757E+02 -0.91919313867E+02  0.16311490099E+03  0.12509001282E+03 0.  0.
         23    2    1    2    0    0  0.17757351252E+02 -0.46845232757E+02 -0.38751774900E+02  0.11285728710E+03  0.93409142156E+02 0.  0.
          5    1    3    3  502    0 -0.22675172095E+02  0.69264893465E+02 -0.50600158416E+01  0.73176943476E+02  0.41800000000E+01 0. -1.
         -5    1    3    3    0  502  0.49178208422E+01 -0.22419660707E+02 -0.86859298025E+02  0.89937957512E+02  0.41800000000E+01 0. -1.
        -11    1    4    4    0    0  0.27868730393E+02  0.28615149404E+01  0.20606643096E+02  0.34777696030E+02  0.00000000000E+00 0.  1.
         11    1    4    4    0    0 -0.10111379141E+02 -0.49706747698E+02 -0.59358417996E+02  0.78079591071E+02  0.00000000000E+00 0. -1.
</event>
<event>
 8    1  0.7168478E-009  0.1566156E+03  0.7561462E-02  0.1192572E+00
         -2   -1    0    0    0  501 -0.00000000000E+00  0.00000000000E+00  0.41073393191E+02  0.41073393191E+02  0.00000000000E+00 0.  1.
          2   -1    0    0  501    0  0.00000000000E+00 -0.00000000000E+00 -0.69692024447E+03  0.69692024447E+03  0.00000000000E+00 0. -1.
         25    2    1    2    0    0  0.11973292199E+03 -0.43215514542E+02 -0.40196013966E+03  0.43979581735E+03  0.12507938989E+03 0.  0.
         23    2    1    2    0    0 -0.11973292199E+03  0.43215514542E+02 -0.25388671162E+03  0.29819782031E+03  0.90884126210E+02 0.  0.
          5    1    3    3  502    0 -0.12656008115E+02 -0.43446307968E+02 -0.11851436197E+03  0.12692865165E+03  0.41800000000E+01 0. -1.
         -5    1    3    3    0  502  0.13238893010E+03  0.23079342561E+00 -0.28344577770E+03  0.31286716570E+03  0.41800000000E+01 0. -1.
        -11    1    4    4    0    0 -0.86783058698E+02  0.52078859782E+02 -0.10653174904E+03  0.14694393648E+03  0.00000000000E+00 0.  1.
         11    1    4    4    0    0 -0.32949863292E+02 -0.88633452398E+01 -0.14735496257E+03  0.15125388383E+03  0.00000000000E+00 0. -1.
</event>
<event>
 8    1  0.7168478E-009  0.8949475E+02  0.7561462E-02  0.1304080E+00
         -2   -1    0    0    0  501 -0.00000000000E+00  0.00000000000E+00  0.15677656452E+03  0.15677656452E+03  0.00000000000E+00 0.  1.
          2   -1    0    0  501    0  0.00000000000E+00 -0.00000000000E+00 -0.16087334120E+03  0.16087334120E+03  0.00000000000E+00 0. -1.
         25    2    1    2    0    0 -0.31826904311E+02 -0.22718368253E+02  0.10673318105E+03  0.16902163899E+03  0.12508903396E+03 0.  0.
         23    2    1    2    0    0  0.31826904311E+02  0.22718368253E+02 -0.11082995773E+03  0.14862826673E+03  0.90983548221E+02 0.  0.
          5    1    3    3  502    0  0.22191826410E+02 -0.66916487207E+01  0.10993540378E+03  0.11243007038E+03  0.41800000000E+01 0. -1.
         -5    1    3    3    0  502 -0.54018730722E+02 -0.16026719532E+02 -0.32022227242E+01  0.56591568613E+02  0.41800000000E+01 0. -1.
        -11    1    4    4    0    0  0.49896229892E+02 -0.19063730506E+02 -0.56587052849E+02  0.77814870869E+02  0.00000000000E+00 0.  1.
         11    1    4    4    0    0 -0.18069325580E+02  0.41782098759E+02 -0.54242904883E+02  0.70813395864E+02  0.00000000000E+00 0. -1.
</event>
<event>
 8    1  0.7168478E-009  0.9500752E+02  0.7561462E-02  0.1291159E+00
         -2   -1    0    0    0  501 -0.00000000000E+00  0.00000000000E+00  0.36960780084E+02  0.36960780084E+02  0.00000000000E+00 0.  1.
          2   -1    0    0  501    0  0.00000000000E+00 -0.00000000000E+00 -0.40924005135E+03  0.40924005135E+03  0.00000000000E+00 0. -1.
         25    2    1    2    0    0  0.19080236643E+02 -0.33817886349E+02 -0.28662474741E+03  0.31513546275E+03  0.12509560020E+03 0.  0.
         23    2    1    2    0    0 -0.19080236643E+02  0.33817886349E+02 -0.85654523852E+02  0.13106536868E+03  0.91289257545E+02 0.  0.
          5    1    3    3  502    0  0.35653968189E+02 -0.54055716141E+02 -0.64695448778E+02  0.91630777513E+02  0.41800000000E+01 0.  1.
         -5    1    3    3    0  502 -0.16573731545E+02  0.20237829792E+02 -0.22192929863E+03  0.22350468524E+03  0.41800000000E+01 0.  1.
        -11    1    4    4    0    0 -0.47063517110E+02 -0.85757428498E+01 -0.48563507439E+02  0.68168411035E+02  0.00000000000E+00 0. -1.
         11    1    4    4    0    0  0.27983280467E+02  0.42393629199E+02 -0.37091016413E+02  0.62896957644E+02  0.00000000000E+00 0.  1.
</event>
<event>
 8    1  0.7168478E-009  0.1506094E+03  0.7561462E-02  0.1199726E+00
          2   -1    0    0  501    0  0.00000000000E+00  0.00000000000E+00  0.13114145475E+03  0.13114145475E+03  0.00000000000E+00 0.  1.
         -2   -1    0    0    0  501 -0.00000000000E+00 -0.00000000000E+00 -0.26779147099E+03  0.26779147099E+03  0.00000000000E+00 0. -1.
         25    2    1    2    0    0 -0.12457966235E+03  0.15494065749E+02  0.18707053908E+02  0.17820283352E+03  0.12508452208E+03 0.  0.
         23    2    1    2    0    0  0.12457966235E+03 -0.15494065749E+02 -0.15535707015E+03  0.22073009222E+03  0.93945707837E+02 0.  0.
          5    1    3    3  502    0  0.72948385633E+01  0.16612700091E+02  0.40401840646E+02  0.44485701091E+02  0.41800000000E+01 0. -1.
         -5    1    3    3    0  502 -0.13187450091E+03 -0.11186343419E+01 -0.21694786738E+02  0.13371713243E+03  0.41800000000E+01 0. -1.
        -11    1    4    4    0    0  0.45966282910E+02 -0.47203318164E+02 -0.99062671167E+02  0.11897253981E+03  0.00000000000E+00 0. -1.
         11    1    4    4    0    0  0.78613379436E+02  0.31709252415E+02 -0.56294398986E+02  0.10175755241E+03  0.00000000000E+00 0.  1.
</event>
<event>
 8    1  0.7168478E-009  0.1185487E+03  0.7561462E-02  0.1245511E+00
          1   -1    0    0  501    0  0.00000000000E+00  0.00000000000E+00  0.33997543360E+03  0.33997543360E+03  0.00000000000E+00 0. -1.
         -1   -1    0    0    0  501 -0.00000000000E+00 -0.00000000000E+00 -0.54914009742E+02  0.54914009742E+02  0.00000000000E+00 0.  1.
         25    2    1    2    0    0 -0.39660388805E+02 -0.50665971646E+02  0.23233579112E+03  0.27160172508E+03  0.12509032780E+03 0.  0.
         23    2    1    2    0    0  0.39660388805E+02  0.50665971646E+02  0.52725632740E+02  0.12328771826E+03  0.90993856955E+02 0.  0.
          5    1    3    3  502    0  0.29708993452E+02 -0.50325875378E+02  0.16393685627E+03  0.17409216889E+03  0.41800000000E+01 0. -1.
         -5    1    3    3    0  502 -0.69369382257E+02 -0.34009626792E+00  0.68398934846E+02  0.97509556190E+02  0.41800000000E+01 0. -1.
        -11    1    4    4    0    0 -0.16599638322E+02  0.50068203848E+02  0.12745277817E+02  0.54266150920E+02  0.00000000000E+00 0. -1.
         11    1    4    4    0    0  0.56260027127E+02  0.59776779787E+00  0.39980354922E+02  0.69021567342E+02  0.00000000000E+00 0.  1.
</event>
<event>
 8    1  0.7168478E-009  0.1133052E+03  0.7561462E-02  0.1254569E+00
          1   -1    0    0  501    0  0.00000000000E+00  0.00000000000E+00  0.57863549220E+03  0.57863549220E+03  0.00000000000E+00 0. -1.
         -1   -1    0    0    0  501 -0.00000000000E+00 -0.00000000000E+00 -0.28576368903E+02  0.28576368903E+02  0.00000000000E+00 0.  1.
         25    2    1    2    0    0 -0.35073768733E+02 -0.11569217181E+02  0.44295733999E+03  0.46176097473E+03  0.12509187300E+03 0.  0.
         23    2    1    2    0    0  0.35073768733E+02  0.11569217181E+02  0.10710178331E+03  0.14545088638E+03  0.91220350366E+02 0.  0.
          5    1    3    3  502    0 -0.53755283106E+02 -0.58289261163E+02  0.24994982908E+03  0.26225876132E+03  0.41800000000E+01 0.  1.
         -5    1    3    3    0  502  0.18681514373E+02  0.46720043982E+02  0.19300751091E+03  0.19950221341E+03  0.41800000000E+01 0.  1.
        -11    1    4    4    0    0  0.40020697891E+01 -0.38002858140E+02  0.29547909504E+02  0.48304376049E+02  0.00000000000E+00 0.  1.
         11    1    4    4    0    0  0.31071698944E+02  0.49572075321E+02  0.77553873806E+02  0.97146510329E+02  0.00000000000E+00 0. -1.
</event>
<event>
 8    1  0.7168478E-009  0.1017174E+03  0.7561462E-02  0.1276725E+00
          1   -1    0    0  501    0  0.00000000000E+00  0.00000000000E+00  0.47635900464E+02  0.47635900464E+02  0.00000000000E+00 0. -1.
         -1   -1    0    0    0  501 -0.00000000000E+00 -0.00000000000E+00 -0.25528701601E+03  0.25528701601E+03  0.00000000000E+00 0.  1.
         25    2    1    2    0    0  0.31134490732E+02  0.24228486571E+01 -0.11893117776E+03  0.17540593371E+03  0.12508952726E+03 0.  0.
         23    2    1    2    0    0 -0.31134490732E+02 -0.24228486571E+01 -0.88719937787E+02  0.12751698276E+03  0.86105324010E+02 0.  0.
          5    1    3    3  502    0 -0.37339016183E+02 -0.22410113005E+02 -0.10965939933E+02  0.45101436042E+02  0.41800000000E+01 0. -1.
         -5    1    3    3    0  502  0.68473506915E+02  0.24832961662E+02 -0.10796523782E+03  0.13030449767E+03  0.41800000000E+01 0. -1.
        -11    1    4    4    0    0  0.27757115079E+02 -0.21093035759E+01 -0.10831868442E+02  0.29870319266E+02  0.00000000000E+00 0.  1.
         11    1    4    4    0    0 -0.58891605811E+02 -0.31354508129E+00 -0.77888069345E+02  0.97646663496E+02  0.00000000000E+00 0. -1.
</event>
<event>
 8    1  0.7168478E-009  0.8563085E+02  0.7561462E-02  0.1313791E+00
         -1   -1    0    0    0  501 -0.00000000000E+00  0.00000000000E+00  0.55608493353E+03  0.55608493353E+03  0.00000000000E+00 0. -1.
          1   -1    0    0  501    0  0.00000000000E+00 -0.00000000000E+00 -0.22753106414E+02  0.22753106414E+02  0.00000000000E+00 0.  1.
         25    2    1    2    0    0 -0.17463401898E+02  0.11286773282E+02  0.36799558118E+03  0.38923543892E+03  0.12510442631E+03 0.  0.
         23    2    1    2    0    0  0.17463401898E+02 -0.11286773282E+02  0.16533624593E+03  0.18960260103E+03  0.90447279888E+02 0.  0.
          5    1    3    3  502    0 -0.62126189131E+02 -0.30195510600E+01  0.10542959132E+03  0.12248123199E+03  0.41800000000E+01 0.  1.
         -5    1    3    3    0  502  0.44662787233E+02  0.14306324342E+02  0.26256598987E+03  0.26675420693E+03  0.41800000000E+01 0.  1.
        -11    1    4    4    0    0 -0.21043528601E+02 -0.10026937501E+02  0.39020571007E+01  0.23634627588E+02  0.00000000000E+00 0.  1.
         11    1    4    4    0    0  0.38506930499E+02 -0.12598357807E+01  0.16143418883E+03  0.16596797344E+03  0.00000000000E+00 0. -1.
</event>
<event>
 8    1  0.7168478E-009  0.1325280E+03  0.7561462E-02  0.1223752E+00
         -2   -1    0    0    0  501 -0.00000000000E+00  0.00000000000E+00  0.60275657313E+02  0.60275657313E+02  0.00000000000E+00 0.  1.
          2   -1    0    0  501    0  0.00000000000E+00 -0.00000000000E+00 -0.66922042299E+03  0.66922042299E+03  0.00000000000E+00 0. -1.
         25    2    1    2    0    0 -0.10200847114E+03  0.58135473934E+02 -0.99335083582E+02  0.19824084317E+03  0.12508601663E+03 0.  0.
         23    2    1    2    0    0  0.10200847114E+03 -0.58135473934E+02 -0.50960968210E+03  0.53125523714E+03  0.93512765901E+02 0.  0.
          5    1    3    3  502    0 -0.69602639779E+02  0.59248434926E+02  0.22460527459E+01  0.91528256065E+02  0.41800000000E+01 0. -1.
         -5    1    3    3    0  502 -0.32405831360E+02 -0.11129609915E+01 -0.10158113633E+03  0.10671258710E+03  0.41800000000E+01 0. -1.
        -11    1    4    4    0    0  0.50407149844E+02 -0.71571132554E+02 -0.21998435545E+03  0.23676237965E+03  0.00000000000E+00 0.  1.
         11    1    4    4    0    0  0.51601321295E+02  0.13435658620E+02 -0.28962532664E+03  0.29449285750E+03  0.00000000000E+00 0. -1.
</event>
<event>
 8    1  0.7168478E-009  0.2522433E+03  0.7561462E-02  0.1111895E+00
          2   -1    0    0  501    0  0.00000000000E+00  0.00000000000E+00  0.97682251630E+03  0.97682251630E+03  0.00000000000E+00 0. -1.
         -2   -1    0    0    0  501 -0.00000000000E+00 -0.00000000000E+00 -0.72990936662E+02  0.72990936662E+02  0.00000000000E+00 0.  1.
         25    2    1    2    0    0 -0.16642047017E+03  0.17827660853E+03  0.45393411826E+03  0.53026570918E+03  0.12508883473E+03 0.  0.
         23    2    1    2    0    0  0.16642047017E+03 -0.17827660853E+03  0.44989746138E+03  0.51954774378E+03  0.89687291569E+02 0.  0.
          5    1    3    3  502    0 -0.81799278841E+02  0.74112345049E+02  0.32830007291E+03  0.34638442802E+03  0.41800000000E+01 0. -1.
         -5    1    3    3    0  502 -0.84621191330E+02  0.10416426348E+03  0.12563404535E+03  0.18388128116E+03  0.41800000000E+01 0. -1.
        -11    1    4    4    0    0  0.17646555585E+03 -0.15686840631E+03  0.41280499841E+03  0.47555836236E+03  0.00000000000E+00 0.  1.
         11    1    4    4    0    0 -0.10045085675E+02 -0.21408202217E+02  0.37092462974E+02  0.43989381422E+02  0.00000000000E+00 0. -1.
</event>
<event>
 8    1  0.7168478E-009  0.1054705E+03  0.7561462E-02  0.1269195E+00
         -1   -1    0    0    0  501 -0.00000000000E+00  0.00000000000E+00  0.75596942229E+02  0.75596942229E+02  0.00000000000E+00 0.  1.
          1   -1    0    0  501    0  0.00000000000E+00 -0.00000000000E+00 -0.20255759429E+03  0.20255759429E+03  0.00000000000E+00 0. -1.
         25    2    1    2    0    0  0.42002809569E+02 -0.34269787774E+02 -0.10953227744E+03  0.17488103103E+03  0.12508957130E+03 0.  0.
         23    2    1    2    0    0 -0.42002809569E+02  0.34269787774E+02 -0.17428374623E+02  0.10327350549E+03  0.86156916894E+02 0.  0.
          5    1    3    3  502    0  0.50266698482E+02 -0.74601350116E+02 -0.51922922472E+02  0.10394981815E+03  0.41800000000E+01 0.  1.
         -5    1    3    3    0  502 -0.82638889131E+01  0.40331562342E+02 -0.57609354967E+02  0.70931212880E+02  0.41800000000E+01 0.  1.
        -11    1    4    4    0    0 -0.94479788138E+01  0.44414072744E+02  0.22574431365E+02  0.50709753627E+02  0.00000000000E+00 0.  1.
         11    1    4    4    0    0 -0.32554830756E+02 -0.10144284970E+02 -0.40002805989E+02  0.52563751864E+02  0.00000000000E+00 0. -1.
</event>
<event>
 8    1  0.7168478E-009  0.1143434E+03  0.7561462E-02  0.1252732E+00
          1   -1    0    0  501    0  0.00000000000E+00  0.00000000000E+00  0.38537423355E+03  0.38537423355E+03  0.00000000000E+00 0. -1.
         -1   -1    0    0    0  501 -0.00000000000E+00 -0.00000000000E+00 -0.70868061828E+02  0.70868061828E+02  0.00000000000E+00 0.  1.
         25    2    1    2    0    0 -0.28312213782E+02 -0.70981951683E+02  0.32065923862E+02  0.15005020988E+03  0.12508726193E+03 0.  0.
         23    2    1    2    0    0  0.28312213782E+02  0.70981951683E+02  0.28244024786E+03  0.30619208550E+03  0.90227937445E+02 0.  0.
          5    1    3    3  502    0  0.13307453838E+01 -0.10247316180E+03  0.16440266089E+02  0.10387624618E+03  0.41800000000E+01 0. -1.
         -5    1    3    3    0  502 -0.29642959166E+02  0.31491210115E+02  0.15625657773E+02  0.46173963696E+02  0.41800000000E+01 0. -1.
        -11    1    4    4    0    0  0.20246885789E+01  0.47132976064E+02  0.25989789000E+03  0.26414490346E+03  0.00000000000E+00 0. -1.
         11    1    4    4    0    0  0.26287525203E+02  0.23848975619E+02  0.22542357858E+02  0.42047182036E+02  0.00000000000E+00 0.  1.
</event>
<event>
 8    1  0.7168478E-009  0.1210482E+03  0.7561462E-02  0.1241378E+00
          3   -1    0    0  501    0  0.00000000000E+00  0.00000000000E+00  0.13376493204E+03  0.13376493204E+03  0.00000000000E+00 0. -1.
         -3   -1    0    0    0  501 -0.00000000000E+00 -0.00000000000E+00 -0.13296851181E+03  0.13296851181E+03  0.00000000000E+00 0.  1.
         25    2    1    2    0    0 -0.85208304637E+01 -0.72367928743E+02 -0.20839672538E+02  0.14625425064E+03  0.12508513987E+03 0.  0.
         23    2    1    2    0    0  0.85208304637E+01  0.72367928743E+02  0.21636092771E+02  0.12047919322E+03  0.93474027542E+02 0.  0.
          5    1    3    3  502    0 -0.59477051549E+02 -0.11597107476E+02 -0.27260353825E+02  0.66577863089E+02  0.41800000000E+01 0.  1.
         -5    1    3    3    0  502  0.50956221085E+02 -0.60770821267E+02  0.64206812871E+01  0.79676387550E+02  0.41800000000E+01 0.  1.
        -11    1    4    4    0    0 -0.60089542743E+01  0.83448885413E+02  0.41581967629E+02  0.93428496938E+02  0.00000000000E+00 0. -1.
         11    1    4    4    0    0  0.14529784738E+02 -0.11080956670E+02 -0.19945874858E+02  0.27050696277E+02  0.00000000000E+00 0.  1.
</event>
<event>
 8    1  0.7168478E-009  0.2020839E+03  0.7561462E-02  0.1147993E+00
         -1   -1    0    0    0  501 -0.00000000000E+00  0.00000000000E+00  0.10187008028E+03  0.10187008028E+03  0.00000000000E+00 0.  1.
          1   -1    0    0  501    0  0.00000000000E+00 -0.00000000000E+00 -0.13427575516E+04  0.13427575516E+04  0.00000000000E+00 0. -1.
         25    2    1    2    0    0  0.15305248452E+03  0.10599555700E+03 -0.12152495751E+04  0.12357748690E+04  0.12509147023E+03 0.  0.
         23    2    1    2    0    0 -0.15305248452E+03 -0.10599555700E+03 -0.25637896262E+02  0.20885276293E+03  0.91115606447E+02 0.  0.
          5    1    3    3  502    0  0.16792245459E+03  0.79628375875E+02 -0.11305588087E+04  0.11457396394E+04  0.41800000000E+01 0.  1.
         -5    1    3    3    0  502 -0.14869970072E+02  0.26367181127E+02 -0.84690766355E+02  0.90035229529E+02  0.41800000000E+01 0.  1.
        -11    1    4    4    0    0 -0.10749066072E+03 -0.60582379458E+02 -0.58571258442E+02  0.13658352448E+03  0.00000000000E+00 0. -1.
         11    1    4    4    0    0 -0.45561823797E+02 -0.45413177544E+02  0.32933362180E+02  0.72269238455E+02  0.00000000000E+00 0.  1.
</event>
<event>
 8    1  0.7168478E-009  0.1079473E+03  0.7561462E-02  0.1264419E+00
          1   -1    0    0  501    0  0.00000000000E+00  0.00000000000E+00  0.89483847577E+03  0.89483847577E+03  0.00000000000E+00 0. -1.
         -1   -1    0    0    0  501 -0.00000000000E+00 -0.00000000000E+00 -0.15029592635E+02  0.15029592635E+02  0.00000000000E+00 0.  1.
         25    2    1    2    0    0 -0.30203241752E+02  0.15217522686E+02  0.58947752257E+03  0.60355172936E+03  0.12508849506E+03 0.  0.
         23    2    1    2    0    0  0.30203241752E+02 -0.15217522686E+02  0.29033136057E+03  0.30631633905E+03  0.91616547774E+02 0.  0.
          5    1    3    3  502    0 -0.67859809993E+02  0.33933944138E+02  0.24556745304E+03  0.25705507731E+03  0.41800000000E+01 0.  1.
         -5    1    3    3    0  502  0.37656568241E+02 -0.18716421453E+02  0.34391006952E+03  0.34649665205E+03  0.41800000000E+01 0.  1.
        -11    1    4    4    0    0  0.63086073067E+02 -0.53223314282E+01  0.19031927412E+03  0.20057319344E+03  0.00000000000E+00 0. -1.
         11    1    4    4    0    0 -0.32882831315E+02 -0.98951912575E+01  0.10001208645E+03  0.10574314560E+03  0.00000000000E+00 0.  1.
</event>
<event>
 8    1  0.7168478E-009  0.8888244E+02  0.7561462E-02  0.1305581E+00
         -1   -1    0    0    0  501 -0.00000000000E+00  0.00000000000E+00  0.48323180764E+02  0.48323180764E+02  0.00000000000E+00 0.  1.
          1   -1    0    0  501    0  0.00000000000E+00 -0.00000000000E+00 -0.25287740850E+03  0.25287740850E+03  0.00000000000E+00 0. -1.
         25    2    1    2    0    0 -0.21735093102E+02  0.49253085173E+00 -0.11356925888E+03  0.17034570097E+03  0.12508806665E+03 0.  0.
         23    2    1    2    0    0  0.21735093102E+02 -0.49253085173E+00 -0.90984968854E+02  0.13085488829E+03  0.91499073069E+02 0.  0.
          5    1    3    3  502    0 -0.38060460186E+02  0.30778582667E+02 -0.12463157294E+03  0.13396425327E+03  0.41800000000E+01 0.  1.
         -5    1    3    3    0  502  0.16325367084E+02 -0.30286051815E+02  0.11062314059E+02  0.36381447707E+02  0.41800000000E+01 0.  1.
        -11    1    4    4    0    0 -0.34462116461E+02  0.11851027030E+02 -0.32894846400E+02  0.49093331852E+02  0.00000000000E+00 0. -1.
         11    1    4    4    0    0  0.56197209564E+02 -0.12343557882E+02 -0.58090122453E+02  0.81761556434E+02  0.00000000000E+00 0.  1.
</event>
<event>
 8    1  0.7168478E-009  0.9490234E+02  0.7561462E-02  0.1291396E+00
          1   -1    0    0  501    0  0.00000000000E+00  0.00000000000E+00  0.14931699971E+03  0.14931699971E+03  0.00000000000E+00 0. -1.
         -1   -1    0    0    0  501 -0.00000000000E+00 -0.00000000000E+00 -0.95266772029E+02  0.95266772029E+02  0.00000000000E+00 0.  1.
         25    2    1    2    0    0  0.45318036902E+01 -0.48438632836E+02  0.18763809642E+02  0.13552067444E+03  0.12508770624E+03 0.  0.
         23    2    1    2    0    0 -0.45318036902E+01  0.48438632836E+02  0.35286418034E+02  0.10906309730E+03  0.91009831881E+02 0.  0.
          5    1    3    3  502    0 -0.41829989801E+02 -0.53210955059E+02 -0.24192916420E+02  0.71999467984E+02  0.41800000000E+01 0. -1.
         -5    1    3    3    0  502  0.46361793491E+02  0.47723222228E+01  0.42956726062E+02  0.63521206452E+02  0.41800000000E+01 0. -1.
        -11    1    4    4    0    0  0.24617168922E+02  0.91191389194E+01 -0.21615912796E+02  0.34006049261E+02  0.00000000000E+00 0.  1.
         11    1    4    4    0    0 -0.29148972612E+02  0.39319493917E+02  0.56902330830E+02  0.75057048038E+02  0.00000000000E+00 0. -1.
</event>
<event>
 8    1  0.7168478E-009  0.6743163E+02  0.7561462E-02  0.1369051E+00
         -2   -1    0    0    0  501 -0.00000000000E+00  0.00000000000E+00  0.79727100005E+02  0.79727100005E+02  0.00000000000E+00 0.  1.
          2   -1    0    0  501    0  0.00000000000E+00 -0.00000000000E+00 -0.15268153739E+03  0.15268153739E+03  0.00000000000E+00 0. -1.
         25    2    1    2    0    0 -0.12308971991E+02 -0.26850995195E+02 -0.70019550268E+02  0.14637263081E+03  0.12509885250E+03 0.  0.
         23    2    1    2    0    0  0.12308971991E+02  0.26850995195E+02 -0.29348871178E+01  0.86036006588E+02  0.80753291777E+02 0.  0.
          5    1    3    3  502    0 -0.11039717690E+02 -0.44590668132E+02 -0.10064500700E+03  0.11071175586E+03  0.41800000000E+01 0.  1.
         -5    1    3    3    0  502 -0.12692543004E+01  0.17739672937E+02  0.30625456730E+02  0.35660874952E+02  0.41800000000E+01 0.  1.
        -11    1    4    4    0    0  0.28188120609E+02  0.40624751821E+02 -0.25130684760E+02  0.55466133095E+02  0.00000000000E+00 0. -1.
         11    1    4    4    0    0 -0.15879148618E+02 -0.13773756626E+02  0.22195797642E+02  0.30569873493E+02  0.00000000000E+00 0.  1.
</event>
<event>
 8    1  0.7168478E-009  0.6922564E+02  0.7561462E-02  0.1362746E+00
          2   -1    0    0  501    0  0.00000000000E+00  0.00000000000E+00  0.39455014871E+03  0.39455014871E+03  0.00000000000E+00 0. -1.
         -2   -1    0    0    0  501 -0.00000000000E+00 -0.00000000000E+00 -0.38060635535E+02  0.38060635535E+02  0.00000000000E+00 0.  1.
         25    2    1    2    0    0  0.29859973819E+02 -0.24323044820E+02  0.11937955275E+03  0.17714360088E+03  0.12508057073E+03 0.  0.
         23    2    1    2    0    0 -0.29859973819E+02  0.24323044820E+02  0.23710996043E+03  0.25546718336E+03  0.86943199253E+02 0.  0.
          5    1    3    3  502    0  0.24175956669E+02 -0.34759932607E+02 -0.12749227916E+02  0.44415594200E+02  0.41800000000E+01 0.  1.
         -5    1    3    3    0  502  0.56840171501E+01  0.10436887787E+02  0.13212878067E+03  0.13272800668E+03  0.41800000000E+01 0.  1.
        -11    1    4    4    0    0  0.15931643404E+02  0.33051401609E+02  0.16896830071E+03  0.17290604112E+03  0.00000000000E+00 0.  1.
         11    1    4    4    0    0 -0.45791617223E+02 -0.87283567885E+01  0.68141659716E+02  0.82561142246E+02  0.00000000000E+00 0. -1.
</event>
<event>
 8    1  0.7168478E-009  0.1341021E+03  0.7561462E-02  0.1221493E+00
         -1   -1    0    0    0  501 -0.00000000000E+00  0.00000000000E+00  0.11405831663E+03  0.11405831663E+03  0.00000000000E+00 0.  1.
          1   -1    0    0  501    0  0.00000000000E+00 -0.00000000000E+00 -0.18508640331E+03  0.18508640331E+03  0.00000000000E+00 0. -1.
         25    2    1    2    0    0  0.86677353963E+02 -0.38361016397E+02 -0.57029376027E+02  0.16698760847E+03  0.12509188776E+03 0.  0.
         23    2    1    2    0    0 -0.86677353963E+02  0.38361016397E+02 -0.13998710647E+02  0.13215711147E+03  0.91022013505E+02 0.  0.
          5    1    3    3  502    0  0.11648349095E+03 -0.13565539593E+02 -0.36342036390E+02  0.12284398047E+03  0.41800000000E+01 0. -1.
         -5    1    3    3    0  502 -0.29806136988E+02 -0.24795476804E+02 -0.20687339637E+02  0.44143628004E+02  0.41800000000E+01 0. -1.
        -11    1    4    4    0    0 -0.53313185105E+02  0.53228219801E+02 -0.41889992511E+02  0.86199249195E+02  0.00000000000E+00 0. -1.
         11    1    4    4    0    0 -0.33364168858E+02 -0.14867203404E+02  0.27891281863E+02  0.45957862272E+02  0.00000000000E+00 0.  1.
</event>
<event>
 8    1  0.7168478E-009  0.1208082E+03  0.7561462E-02  0.1241770E+00
          3   -1    0    0  501    0  0.00000000000E+00  0.00000000000E+00  0.10073064550E+03  0.10073064550E+03  0.00000000000E+00 0. -1.
         -3   -1    0    0    0  501 -0.00000000000E+00 -0.00000000000E+00 -0.14670700463E+03  0.14670700463E+03  0.00000000000E+00 0.  1.
         25    2    1    2    0    0  0.49850898808E+02  0.21580047629E+02 -0.38592057197E+02  0.14173104506E+03  0.12509009429E+03 0.  0.
         23    2    1    2    0    0 -0.49850898808E+02 -0.21580047629E+02 -0.73843019287E+01  0.10570660507E+03  0.90380019211E+02 0.  0.
          5    1    3    3  502    0 -0.42233626013E+02  0.82554524107E+01 -0.12664162148E+02  0.45052026188E+02  0.41800000000E+01 0. -1.
         -5    1    3    3    0  502  0.92084524821E+02  0.13324595218E+02 -0.25927895049E+02  0.96679018876E+02  0.41800000000E+01 0. -1.
        -11    1    4    4    0    0 -0.70521974203E+02 -0.36826130207E+02 -0.84051295721E+01  0.80000993210E+02  0.00000000000E+00 0.  1.
         11    1    4    4    0    0  0.20671075394E+02  0.15246082578E+02  0.10208276434E+01  0.25705611859E+02  0.00000000000E+00 0. -1.
</event>
<event>
 8    1  0.7168478E-009  0.1297518E+03  0.7561462E-02  0.1227824E+00
          2   -1    0    0  501    0  0.00000000000E+00  0.00000000000E+00  0.20666538302E+03  0.20666538302E+03  0.00000000000E+00 0. -1.
         -2   -1    0    0    0  501 -0.00000000000E+00 -0.00000000000E+00 -0.10039384756E+03  0.10039384756E+03  0.00000000000E+00 0.  1.
         25    2    1    2    0    0  0.54193706633E+02  0.72166570437E+02  0.30464748682E+02  0.15722452193E+03  0.12508588112E+03 0.  0.
         23    2    1    2    0    0 -0.54193706633E+02 -0.72166570437E+02  0.75806786783E+02  0.14983470865E+03  0.92513778792E+02 0.  0.
          5    1    3    3  502    0  0.16392941140E+02 -0.22896047019E+02  0.45567096756E+02  0.53728858122E+02  0.41800000000E+01 0.  1.
         -5    1    3    3    0  502  0.37800765493E+02  0.95062617457E+02 -0.15102348074E+02  0.10349566381E+03  0.41800000000E+01 0.  1.
        -11    1    4    4    0    0 -0.15958410933E+02 -0.86390711985E+02  0.44950568578E+02  0.98684241966E+02  0.00000000000E+00 0.  1.
         11    1    4    4    0    0 -0.38235295700E+02  0.14224141548E+02  0.30856218205E+02  0.51150466684E+02  0.00000000000E+00 0. -1.
</event>
<event>
 8    1  0.7168478E-009  0.8108978E+02  0.7561462E-02  0.1325987E+00
         -3   -1    0    0    0  501 -0.00000000000E+00  0.00000000000E+00  0.61263158051E+02  0.61263158051E+02  0.00000000000E+00 0.  1.
          3   -1    0    0  501    0  0.00000000000E+00 -0.00000000000E+00 -0.22539539525E+03  0.22539539525E+03  0.00000000000E+00 0. -1.
         25    2    1    2    0    0  0.24018626059E+02 -0.21643514205E+02 -0.13745893702E+03  0.18865103171E+03  0.12509562859E+03 0.  0.
         23    2    1    2    0    0 -0.24018626059E+02  0.21643514205E+02 -0.26673300178E+02  0.98007521597E+02  0.88592738090E+02 0.  0.
          5    1    3    3  502    0  0.59663725468E+02  0.10070019288E+02 -0.23514794384E+02  0.65050621673E+02  0.41800000000E+01 0.  1.
         -5    1    3    3    0  502 -0.35645099409E+02 -0.31713533493E+02 -0.11394414264E+03  0.12360041003E+03  0.41800000000E+01 0.  1.
        -11    1    4    4    0    0  0.97959525181E+01  0.16837537808E+02  0.27659956565E+02  0.33831000019E+02  0.00000000000E+00 0.  1.
         11    1    4    4    0    0 -0.33814578577E+02  0.48059763976E+01 -0.54333256743E+02  0.64176521577E+02  0.00000000000E+00 0. -1.
</event>
<event>
 8    1  0.7168478E-009  0.1065718E+03  0.7561462E-02  0.1267053E+00
          4   -1    0    0  501    0  0.00000000000E+00  0.00000000000E+00  0.11688840268E+03  0.11688840268E+03  0.00000000000E+00 0. -1.
         -4   -1    0    0    0  501 -0.00000000000E+00 -0.00000000000E+00 -0.14388896155E+03  0.14388896155E+03  0.00000000000E+00 0.  1.
         25    2    1    2    0    0 -0.60600464194E+02 -0.42122611174E+02 -0.10122853262E+02  0.14559397015E+03  0.12509357039E+03 0.  0.
         23    2    1    2    0    0  0.60600464194E+02  0.42122611174E+02 -0.16877705602E+02  0.11518339408E+03  0.86807987500E+02 0.  0.
          5    1    3    3  502    0 -0.85749356721E+02 -0.29388075451E+02 -0.44396570568E+02  0.10102048819E+03  0.41800000000E+01 0. -1.
         -5    1    3    3    0  502  0.25148892527E+02 -0.12734535723E+02  0.34273717306E+02  0.44573481953E+02  0.41800000000E+01 0. -1.
        -11    1    4    4    0    0  0.34777561481E+02 -0.96134612946E+01  0.24906815008E+02  0.43843435705E+02  0.00000000000E+00 0. -1.
         11    1    4    4    0    0  0.25822902713E+02  0.51736072468E+02 -0.41784520609E+02  0.71339958379E+02  0.00000000000E+00 0.  1.
</event>
<event>
 8    1  0.7168478E-009  0.1613618E+03  0.7561462E-02  0.1187168E+00
          2   -1    0    0  501    0  0.00000000000E+00  0.00000000000E+00  0.14463930162E+04  0.14463930162E+04  0.00000000000E+00 0. -1.
         -2   -1    0    0    0  501 -0.00000000000E+00 -0.00000000000E+00 -0.23223537257E+02  0.23223537257E+02  0.00000000000E+00 0.  1.
         25    2    1    2    0    0 -0.14051079433E+03  0.39673896629E+02  0.77954376402E+03  0.80290296177E+03  0.12508950630E+03 0.  0.
         23    2    1    2    0    0  0.14051079433E+03 -0.39673896629E+02  0.64362571489E+03  0.66671359166E+03  0.94528572625E+02 0.  0.
          5    1    3    3  502    0 -0.19044863753E+02  0.23348747409E+02  0.27755863546E+02  0.41179256940E+02  0.41800000000E+01 0. -1.
         -5    1    3    3    0  502 -0.12146593058E+03  0.16325149220E+02  0.75178790048E+03  0.76172370483E+03  0.41800000000E+01 0. -1.
        -11    1    4    4    0    0  0.89580937636E+02 -0.67011509693E+02  0.34971617760E+03  0.36717392568E+03  0.00000000000E+00 0.  1.
         11    1    4    4    0    0  0.50929856696E+02  0.27337613064E+02  0.29390953729E+03  0.29953966599E+03  0.00000000000E+00 0. -1.
</event>
<event>
 8    1  0.7168478E-009  0.7693907E+02  0.7561462E-02  0.1337969E+00
         -2   -1    0    0    0  501 -0.00000000000E+00  0.00000000000E+00  0.28359442523E+03  0.28359442523E+03  0.00000000000E+00 0.  1.
          2   -1    0    0  501    0  0.00000000000E+00 -0.00000000000E+00 -0.46970826069E+02  0.46970826069E+02  0.00000000000E+00 0. -1.
         25    2    1    2    0    0  0.32949645749E+02 -0.19488964808E+02  0.12209738928E+03  0.17894181844E+03  0.12508758138E+03 0.  0.
         23    2    1    2    0    0 -0.32949645749E+02  0.19488964808E+02  0.11452620988E+03  0.15162343285E+03  0.91694676707E+02 0.  0.
          5    1    3    3  502    0  0.10133252185E+02  0.28347474366E+02  0.12205073093E+03  0.12577804031E+03  0.41800000000E+01 0. -1.
         -5    1    3    3    0  502  0.22816393564E+02 -0.47836439175E+02  0.46658344149E-01  0.53163778131E+02  0.41800000000E+01 0. -1.
        -11    1    4    4    0    0 -0.40418229456E+02  0.34768034940E+02  0.12192877353E+03  0.13307544980E+03  0.00000000000E+00 0.  1.
         11    1    4    4    0    0  0.74685837065E+01 -0.15279070132E+02 -0.74025636490E+01  0.18547983051E+02  0.00000000000E+00 0. -1.
</event>
<event>
 8    1  0.7168478E-009  0.9774704E+02  0.7561462E-02  0.1285106E+00
          1   -1    0    0  501    0  0.00000000000E+00  0.00000000000E+00  0.50466795905E+03  0.50466795905E+03  0.00000000000E+00 0. -1.
         -1   -1    0    0    0  501 -0.00000000000E+00 -0.00000000000E+00 -0.31464838355E+02  0.31464838355E+02  0.00000000000E+00 0.  1.
         25    2    1    2    0    0  0.52416612499E+02 -0.84186652400E+01  0.18622792695E+03  0.23053621936E+03  0.12509089684E+03 0.  0.
         23    2    1    2    0    0 -0.52416612499E+02  0.84186652400E+01  0.28697519374E+03  0.30559657804E+03  0.90642878896E+02 0.  0.
          5    1    3    3  502    0  0.88882914456E+02 -0.98201038631E+01  0.16600669295E+03  0.18860620728E+03  0.41800000000E+01 0. -1.
         -5    1    3    3    0  502 -0.36466301957E+02  0.14014386231E+01  0.20221234004E+02  0.41930012083E+02  0.41800000000E+01 0. -1.
        -11    1    4    4    0    0 -0.47414437641E+02  0.23810056783E+02  0.28428127265E+03  0.28919005806E+03  0.00000000000E+00 0. -1.
         11    1    4    4    0    0 -0.50021748580E+01 -0.15391391543E+02  0.26939210926E+01  0.16406519979E+02  0.00000000000E+00 0.  1.
</event>
<event>
 8    1  0.7168478E-009  0.2134701E+03  0.7561462E-02  0.1138847E+00
         -2   -1    0    0    0  501 -0.00000000000E+00  0.00000000000E+00  0.28731332923E+02  0.28731332923E+02  0.00000000000E+00 0. -1.
          2   -1    0    0  501    0  0.00000000000E+00 -0.00000000000E+00 -0.18439365232E+04  0.18439365232E+04  0.00000000000E+00 0.  1.
         25    2    1    2    0    0 -0.18008664102E+02  0.19412527654E+03 -0.70214377148E+03  0.73936619948E+03  0.12509023190E+03 0.  0.
         23    2    1    2    0    0  0.18008664102E+02 -0.19412527654E+03 -0.11130614187E+04  0.11333016566E+04  0.86359643210E+02 0.  0.
          5    1    3    3  502    0  0.33046910558E+02  0.43505728469E+02 -0.33184408348E+03  0.33633735274E+03  0.41800000000E+01 0. -1.
         -5    1    3    3    0  502 -0.51055574660E+02  0.15061954807E+03 -0.37029968800E+03  0.40302884674E+03  0.41800000000E+01 0. -1.
        -11    1    4    4    0    0 -0.34648358800E+02 -0.66293200315E+02 -0.36912464829E+03  0.37662753902E+03  0.00000000000E+00 0. -1.
         11    1    4    4    0    0  0.52657022902E+02 -0.12783207623E+03 -0.74393677046E+03  0.75667411758E+03  0.00000000000E+00 0.  1.
</event>
<event>
 8    1  0.7168478E-009  0.2026701E+03  0.7561462E-02  0.1147506E+00
         -2   -1    0    0    0  501 -0.00000000000E+00  0.00000000000E+00  0.16791618935E+02  0.16791618935E+02  0.00000000000E+00 0. -1.
          2   -1    0    0  501    0  0.00000000000E+00 -0.00000000000E+00 -0.33179926756E+04  0.33179926756E+04  0.00000000000E+00 0.  1.
         25    2    1    2    0    0  0.55703357572E+02  0.17093826860E+03 -0.24564106161E+04  0.24661554742E+04  0.12508777889E+03 0.  0.
         23    2    1    2    0    0 -0.55703357572E+02 -0.17093826860E+03 -0.84479044057E+03  0.86862882032E+03  0.92316755215E+02 0.  0.
          5    1    3    3  502    0  0.27151025565E+02  0.17330344616E+03 -0.23240794894E+04  0.23306939328E+04  0.41800000000E+01 0. -1.
         -5    1    3    3    0  502  0.28552332007E+02 -0.23651775621E+01 -0.13233112668E+03  0.13546154146E+03  0.41800000000E+01 0. -1.
        -11    1    4    4    0    0 -0.18756513069E+02  0.63655088604E+01 -0.58977103543E+02  0.62214349051E+02  0.00000000000E+00 0.  1.
         11    1    4    4    0    0 -0.36946844503E+02 -0.17730377746E+03 -0.78581333703E+03  0.80641447127E+03  0.00000000000E+00 0. -1.
</event>
<event>
 8    1  0.7168478E-009  0.9671837E+02  0.7561462E-02  0.1287352E+00
          3   -1    0    0  501    0  0.00000000000E+00  0.00000000000E+00  0.24029631831E+03  0.24029631831E+03  0.00000000000E+00 0. -1.
         -3   -1    0    0    0  501 -0.00000000000E+00 -0.00000000000E+00 -0.56696299459E+02  0.56696299459E+02  0.00000000000E+00 0.  1.
         25    2    1    2    0    0 -0.40131113904E+00  0.41809153024E+02  0.12281076226E+03  0.18021392709E+03  0.12508561013E+03 0.  0.
         23    2    1    2    0    0  0.40131113904E+00 -0.41809153024E+02  0.60789256588E+02  0.11677869068E+03  0.90519404288E+02 0.  0.
          5    1    3    3  502    0  0.19272947805E+02 -0.41267478287E+02  0.34321574514E+02  0.57182988365E+02  0.41800000000E+01 0. -1.
         -5    1    3    3    0  502 -0.19674258944E+02  0.83076631312E+02  0.88489187748E+02  0.12303093872E+03  0.41800000000E+01 0. -1.
        -11    1    4    4    0    0 -0.63322345642E+01  0.89804359036E+01 -0.19004567264E+02  0.21952653609E+02  0.00000000000E+00 0.  1.
         11    1    4    4    0    0  0.67335457032E+01 -0.50789588928E+02  0.79793823852E+02  0.94826037069E+02  0.00000000000E+00 0. -1.
</event>
<event>
 8    1  0.7168478E-009  0.1004682E+03  0.7561462E-02  0.1279314E+00
         -2   -1    0    0    0  501 -0.00000000000E+00  0.00000000000E+00  0.38982011277E+02  0.38982011277E+02  0.00000000000E+00 0.  1.
          2   -1    0    0  501    0  0.00000000000E+00 -0.00000000000E+00 -0.48656257863E+03  0.48656257863E+03  0.00000000000E+00 0. -1.
         25    2    1    2    0    0  0.78182007284E+02  0.39994032982E+02 -0.22666410583E+03  0.27338029820E+03  0.12509285205E+03 0.  0.
         23    2    1    2    0    0 -0.78182007284E+02 -0.39994032982E+02 -0.22091646153E+03  0.25216429171E+03  0.84088037814E+02 0.  0.
          5    1    3    3  502    0  0.26522551213E+02  0.80839861943E+01 -0.20776637305E+03  0.20965002916E+03  0.41800000000E+01 0.  1.
         -5    1    3    3    0  502  0.51659456071E+02  0.31910046787E+02 -0.18897732774E+02  0.63730269037E+02  0.41800000000E+01 0.  1.
        -11    1    4    4    0    0 -0.55104957174E+02  0.10879788849E+02 -0.61726820203E+02  0.83457333068E+02  0.00000000000E+00 0.  1.
         11    1    4    4    0    0 -0.23077050110E+02 -0.50873821831E+02 -0.15918964133E+03  0.16870695865E+03  0.00000000000E+00 0. -1.
</event>
<event>
 8    1  0.7168478E-009  0.1061544E+03  0.7561462E-02  0.1267862E+00
          1   -1    0    0  501    0  0.00000000000E+00  0.00000000000E+00  0.15968980874E+03  0.15968980874E+03  0.00000000000E+00 0. -1.
         -1   -1    0    0    0  501 -0.00000000000E+00 -0.00000000000E+00 -0.99011418176E+02  0.99011418176E+02  0.00000000000E+00 0.  1.
         25    2    1    2    0    0  0.59491312452E+02 -0.16926886800E+02  0.12884285216E+02  0.14014772943E+03  0.12509854318E+03 0.  0.
         23    2    1    2    0    0 -0.59491312452E+02  0.16926886800E+02  0.47794105349E+02  0.11855349748E+03  0.89134277950E+02 0.  0.
          5    1    3    3  502    0 -0.25325348730E+02 -0.35905736636E+02  0.27371770930E+02  0.51935358432E+02  0.41800000000E+01 0.  1.
         -5    1    3    3    0  502  0.84816661182E+02  0.18978849836E+02 -0.14487485714E+02  0.88212371000E+02  0.41800000000E+01 0.  1.
        -11    1    4    4    0    0 -0.28182683976E+02 -0.18627775837E+02 -0.17371545491E+02  0.37987212341E+02  0.00000000000E+00 0.  1.
         11    1    4    4    0    0 -0.31308628476E+02  0.35554662637E+02  0.65165650840E+02  0.80566285143E+02  0.00000000000E+00 0. -1.
</event>
<event>
 8    1  0.7168478E-009  0.8692631E+02  0.7561462E-02  0.1310471E+00
          2   -1    0    0  501    0  0.00000000000E+00  0.00000000000E+00  0.72757503340E+02  0.72757503340E+02  0.00000000000E+00 0. -1.
         -2   -1    0    0    0  501 -0.00000000000E+00 -0.00000000000E+00 -0.22653881430E+03  0.22653881430E+03  0.00000000000E+00 0.  1.
         25    2    1    2    0    0 -0.90412333646E+01 -0.61198042385E+02 -0.48727117297E+02  0.14781483178E+03  0.12509175929E+03 0.  0.
         23    2    1    2    0    0  0.90412333646E+01  0.61198042385E+02 -0.10505419366E+03  0.15148148585E+03  0.89907244748E+02 0.  0.
          5    1    3    3  502    0  0.26574404271E+02 -0.28417785221E+02 -0.80676891704E+02  0.89666062333E+02  0.41800000000E+01 0.  1.
         -5    1    3    3    0  502 -0.35615637635E+02 -0.32780257164E+02  0.31949774407E+02  0.58148769451E+02  0.41800000000E+01 0.  1.
        -11    1    4    4    0    0 -0.25539925535E+02  0.20640356814E+02 -0.90437447373E+02  0.96214572769E+02  0.00000000000E+00 0.  1.
         11    1    4    4    0    0  0.34581158900E+02  0.40557685572E+02 -0.14616746286E+02  0.55266913084E+02  0.00000000000E+00 0. -1.
</event>
<event>
 8    1  0.7168478E-009  0.1623073E+03  0.7561462E-02  0.1186116E+00
          1   -1    0    0  501    0  0.00000000000E+00  0.00000000000E+00  0.19846432118E+03  0.19846432118E+03  0.00000000000E+00 0. -1.
         -1   -1    0    0    0  501 -0.00000000000E+00 -0.00000000000E+00 -0.14375474891E+03  0.14375474891E+03  0.00000000000E+00 0.  1.
         25    2    1    2    0    0  0.89490422755E+02  0.89059290542E+02  0.25892293026E+02  0.17960368111E+03  0.12508788283E+03 0.  0.
         23    2    1    2    0    0 -0.89490422755E+02 -0.89059290542E+02  0.28817279247E+02  0.16261538898E+03  0.98352611324E+02 0.  0.
          5    1    3    3  502    0 -0.62826011586E+01 -0.20926952446E+02  0.25317106797E+02  0.33702176674E+02  0.41800000000E+01 0. -1.
         -5    1    3    3    0  502  0.95773023914E+02  0.10998624299E+03  0.57518622912E+00  0.14590150443E+03  0.41800000000E+01 0. -1.
        -11    1    4    4    0    0  0.11655719141E+02  0.96549466137E+01 -0.72069230266E+01  0.16763457946E+02  0.00000000000E+00 0.  1.
         11    1    4    4    0    0 -0.10114614190E+03 -0.98714237156E+02  0.36024202273E+02  0.14585193104E+03  0.00000000000E+00 0. -1.
</event>
<event>
 8    1  0.7168478E-009  0.1060748E+03  0.7561462E-02  0.1268016E+00
         -1   -1    0    0    0  501 -0.00000000000E+00  0.00000000000E+00  0.26321752917E+02  0.26321752917E+02  0.00000000000E+00 0.  1.
          1   -1    0    0  501    0  0.00000000000E+00 -0.00000000000E+00 -0.51911814452E+03  0.51911814452E+03  0.00000000000E+00 0. -1.
         25    2    1    2    0    0 -0.19243307014E+02  0.35115661138E+02 -0.34560555401E+03  0.36972136330E+03  0.12508906027E+03 0.  0.
         23    2    1    2    0    0  0.19243307014E+02 -0.35115661138E+02 -0.14719083759E+03  0.17571853413E+03  0.87226406808E+02 0.  0.
          5    1    3    3  502    0  0.35409717233E+02 -0.20991271653E+02 -0.20098057644E+03  0.20519538510E+03  0.41800000000E+01 0. -1.
         -5    1    3    3    0  502 -0.54653024247E+02  0.56106932791E+02 -0.14462497757E+03  0.16452597820E+03  0.41800000000E+01 0. -1.
        -11    1    4    4    0    0 -0.33024314881E+02 -0.15852802998E+02 -0.83021268091E+02  0.90743857598E+02  0.00000000000E+00 0. -1.
         11    1    4    4    0    0  0.52267621895E+02 -0.19262858140E+02 -0.64169569502E+02  0.84974676535E+02  0.00000000000E+00 0.  1.
</event>
<event>
 8    1  0.7168478E-009  0.8670594E+02  0.7561462E-02  0.1311031E+00
         -1   -1    0    0    0  501 -0.00000000000E+00  0.00000000000E+00  0.55072235250E+02  0.55072235250E+02  0.00000000000E+00 0.  1.
          1   -1    0    0  501    0  0.00000000000E+00 -0.00000000000E+00 -0.22088647779E+03  0.22088647779E+03  0.00000000000E+00 0. -1.
         25    2    1    2    0    0  0.17723356163E+02 -0.91137349246E+01 -0.83234769683E+02  0.15156229808E+03  0.12508367518E+03 0.  0.
         23    2    1    2    0    0 -0.17723356163E+02  0.91137349246E+01 -0.82579472862E+02  0.12439641497E+03  0.90873104933E+02 0.  0.
          5    1    3    3  502    0  0.49873598034E+02  0.42468196110E+02 -0.40180419663E+02  0.76960132445E+02  0.41800000000E+01 0.  1.
         -5    1    3    3    0  502 -0.32150241871E+02 -0.51581931034E+02 -0.43054350020E+02  0.74602165633E+02  0.41800000000E+01 0.  1.
        -11    1    4    4    0    0 -0.19715137384E+02  0.24436115110E+02 -0.97794672197E+02  0.10271128601E+03  0.00000000000E+00 0. -1.
         11    1    4    4    0    0  0.19917812213E+01 -0.15322380185E+02  0.15215199336E+02  0.21685128955E+02  0.00000000000E+00 0.  1.
</event>
<event>
 8    1  0.7168478E-009  0.1171235E+03  0.7561462E-02  0.1247919E+00
         -2   -1    0    0    0  501 -0.00000000000E+00  0.00000000000E+00  0.80277950270E+03  0.80277950270E+03  0.00000000000E+00 0.  1.
          2   -1    0    0  501    0  0.00000000000E+00 -0.00000000000E+00 -0.19688683614E+02  0.19688683614E+02  0.00000000000E+00 0. -1.
         25    2    1    2    0    0 -0.19903374425E+02  0.45280110780E+02  0.55709472221E+03  0.57310458422E+03  0.12509157524E+03 0.  0.
         23    2    1    2    0    0  0.19903374425E+02 -0.45280110780E+02  0.22599609688E+03  0.24936360209E+03  0.93067381502E+02 0.  0.
          5    1    3    3  502    0 -0.67461404529E+02  0.52915851723E+02  0.37515831426E+03  0.38485368859E+03  0.41800000000E+01 0. -1.
         -5    1    3    3    0  502  0.47558030105E+02 -0.76357409429E+01  0.18193640795E+03  0.18825089563E+03  0.41800000000E+01 0. -1.
        -11    1    4    4    0    0  0.54285445575E+02 -0.33108825240E+02  0.17844674336E+03  0.18943691331E+03  0.00000000000E+00 0.  1.
         11    1    4    4    0    0 -0.34382071151E+02 -0.12171285540E+02  0.47549353523E+02  0.59926688785E+02  0.00000000000E+00 0. -1.
</event>
<event>
 8    1  0.7168478E-009  0.7529234E+02  0.7561462E-02  0.1342968E+00
          2   -1    0    0  501    0  0.00000000000E+00  0.00000000000E+00  0.21430150285E+03  0.21430150285E+03  0.00000000000E+00 0.  1.
         -2   -1    0    0    0  501 -0.00000000000E+00 -0.00000000000E+00 -0.64853782282E+02  0.64853782282E+02  0.00000000000E+00 0. -1.
         25    2    1    2    0    0  0.10296709138E+02 -0.17828834456E+02  0.30837173754E+02  0.13045846892E+03  0.12507834054E+03 0.  0.
         23    2    1    2    0    0 -0.10296709138E+02  0.17828834456E+02  0.11861054682E+03  0.14869681621E+03  0.87283399213E+02 0.  0.
          5    1    3    3  502    0  0.38632719160E+02 -0.76133283151E+01 -0.38200515748E+02  0.55020010552E+02  0.41800000000E+01 0.  1.
         -5    1    3    3    0  502 -0.28336010022E+02 -0.10215506141E+02  0.69037689503E+02  0.75438458372E+02  0.41800000000E+01 0.  1.
        -11    1    4    4    0    0 -0.37573188555E+02 -0.12678578973E+02  0.25920288628E+02  0.47374594726E+02  0.00000000000E+00 0.  1.
         11    1    4    4    0    0  0.27276479417E+02  0.30507413429E+02  0.92690258189E+02  0.10132222148E+03  0.00000000000E+00 0. -1.
</event>
<event>
 8    1  0.7168478E-009  0.7327150E+02  0.7561462E-02  0.1349309E+00
          1   -1    0    0  501    0  0.00000000000E+00  0.00000000000E+00  0.39623065510E+02  0.39623065510E+02  0.00000000000E+00 0. -1.
         -1   -1    0    0    0  501 -0.00000000000E+00 -0.00000000000E+00 -0.34823862394E+03  0.34823862394E+03  0.00000000000E+00 0.  1.
         25    2    1    2    0    0  0.41793046909E+02  0.10225001035E+02 -0.17399218448E+03  0.21857289814E+03  0.12509844972E+03 0.  0.
         23    2    1    2    0    0 -0.41793046909E+02 -0.10225001035E+02 -0.13462337395E+03  0.16928879132E+03  0.93188157165E+02 0.  0.
          5    1    3    3  502    0 -0.19667943058E+02  0.17717560762E+01 -0.15089864740E+03  0.15224270521E+03  0.41800000000E+01 0. -1.
         -5    1    3    3    0  502  0.61460989967E+02  0.84532449589E+01 -0.23093537083E+02  0.66330192922E+02  0.41800000000E+01 0. -1.
        -11    1    4    4    0    0 -0.22406431090E+02  0.18816864105E+02  0.96588895383E+00  0.29275509738E+02  0.00000000000E+00 0. -1.
         11    1    4    4    0    0 -0.19386615819E+02 -0.29041865141E+02 -0.13558926290E+03  0.14001328158E+03  0.00000000000E+00 0.  1.
</event>
<event>
 8    1  0.7168478E-009  0.1071235E+03  0.7561462E-02  0.1265991E+00
          2   -1    0    0  501    0  0.00000000000E+00  0.00000000000E+00  0.27195763566E+03  0.27195763566E+03  0.00000000000E+00 0. -1.
         -2   -1    0    0    0  501 -0.00000000000E+00 -0.00000000000E+00 -0.49366044044E+02  0.49366044044E+02  0.00000000000E+00 0.  1.
         25    2    1    2    0    0  0.37457124671E+02 -0.34794834702E+01  0.10186806142E+03  0.16565232950E+03  0.12509376219E+03 0.  0.
         23    2    1    2    0    0 -0.37457124671E+02  0.34794834702E+01  0.12072353019E+03  0.15567135020E+03  0.90797882884E+02 0.  0.
          5    1    3    3  502    0  0.39789243473E+02  0.56546700877E+02  0.65334781501E+02  0.95219847459E+02  0.41800000000E+01 0. -1.
         -5    1    3    3    0  502 -0.23321188021E+01 -0.60026184348E+02  0.36533279917E+02  0.70432482044E+02  0.41800000000E+01 0. -1.
        -11    1    4    4    0    0 -0.55615529433E+02 -0.16256530550E+02  0.39476391146E+02  0.70112390899E+02  0.00000000000E+00 0.  1.
         11    1    4    4    0    0  0.18158404762E+02  0.19736014020E+02  0.81247139048E+02  0.85558959299E+02  0.00000000000E+00 0. -1.
</event>
<event>
 8    1  0.7168478E-009  0.5828348E+02  0.7561462E-02  0.1405180E+00
          3   -1    0    0  501    0  0.00000000000E+00  0.00000000000E+00  0.49679989359E+02  0.49679989359E+02  0.00000000000E+00 0. -1.
         -3   -1    0    0    0  501 -0.00000000000E+00 -0.00000000000E+00 -0.27894018089E+03  0.27894018089E+03  0.00000000000E+00 0.  1.
         25    2    1    2    0    0 -0.42828823739E+02 -0.39725678560E+00 -0.10881289370E+03  0.17122721526E+03  0.12507616661E+03 0.  0.
         23    2    1    2    0    0  0.42828823739E+02  0.39725678560E+00 -0.12044729783E+03  0.15739295499E+03  0.91817889160E+02 0.  0.
          5    1    3    3  502    0 -0.93849645298E+01  0.17618856363E+02 -0.12719452026E+03  0.12881933101E+03  0.41800000000E+01 0.  1.
         -5    1    3    3    0  502 -0.33443859209E+02 -0.18016113149E+02  0.18381626555E+02  0.42407884250E+02  0.41800000000E+01 0.  1.
        -11    1    4    4    0    0  0.33174867876E+02  0.18099397648E+02 -0.26515109402E+01  0.37883909039E+02  0.00000000000E+00 0. -1.
         11    1    4    4    0    0  0.96539558633E+01 -0.17702140863E+02 -0.11779578689E+03  0.11950904595E+03  0.00000000000E+00 0.  1.
</event>
<event>
 8    1  0.7168478E-009  0.1157895E+03  0.7561462E-02  0.1250209E+00
         -2   -1    0    0    0  501 -0.00000000000E+00  0.00000000000E+00  0.23562067228E+02  0.23562067228E+02  0.00000000000E+00 0. -1.
          2   -1    0    0  501    0  0.00000000000E+00 -0.00000000000E+00 -0.82918163279E+03  0.82918163279E+03  0.00000000000E+00 0.  1.
         25    2    1    2    0    0  0.66957002996E+02  0.57991563903E+02 -0.42549946098E+03  0.45226452562E+03  0.12508856108E+03 0.  0.
         23    2    1    2    0    0 -0.66957002996E+02 -0.57991563903E+02 -0.38012010458E+03  0.40047917439E+03  0.89699573458E+02 0.  0.
          5    1    3    3  502    0  0.17478815016E+02 -0.14801577068E+02 -0.28808971166E+03  0.28902897782E+03  0.41800000000E+01 0.  1.
         -5    1    3    3    0  502  0.49478187980E+02  0.72793140971E+02 -0.13740974932E+03  0.16323554780E+03  0.41800000000E+01 0.  1.
        -11    1    4    4    0    0 -0.73663079099E+02 -0.13134155103E+02 -0.17362970066E+03  0.18906620059E+03  0.00000000000E+00 0. -1.
         11    1    4    4    0    0  0.67060761029E+01 -0.44857408800E+02 -0.20649040392E+03  0.21141297381E+03  0.00000000000E+00 0.  1.
</event>
<event>
 8    1  0.7168478E-009  0.1477922E+03  0.7561462E-02  0.1203212E+00
          2   -1    0    0  501    0  0.00000000000E+00  0.00000000000E+00  0.55675257434E+03  0.55675257434E+03  0.00000000000E+00 0. -1.
         -2   -1    0    0    0  501 -0.00000000000E+00 -0.00000000000E+00 -0.45318110147E+02  0.45318110147E+02  0.00000000000E+00 0.  1.
         25    2    1    2    0    0  0.33390835257E+02  0.11026220251E+03  0.25229451709E+03  0.30425814596E+03  0.12509114616E+03 0.  0.
         23    2    1    2    0    0 -0.33390835257E+02 -0.11026220251E+03  0.25913994710E+03  0.29781253853E+03  0.90918066068E+02 0.  0.
          5    1    3    3  502    0  0.60575084084E+02  0.30785527415E+02  0.18311389625E+03  0.19535931232E+03  0.41800000000E+01 0. -1.
         -5    1    3    3    0  502 -0.27184248828E+02  0.79476675094E+02  0.69180620837E+02  0.10889883364E+03  0.41800000000E+01 0. -1.
        -11    1    4    4    0    0 -0.52197143743E+02 -0.11293151618E+03  0.24253680181E+03  0.27258424275E+03  0.00000000000E+00 0. -1.
         11    1    4    4    0    0  0.18806308486E+02  0.26693136702E+01  0.16603145294E+02  0.25228295781E+02  0.00000000000E+00 0.  1.
</event>
<event>
 8    1  0.7168478E-009  0.1134111E+03  0.7561462E-02  0.1254380E+00
          1   -1    0    0  501    0  0.00000000000E+00  0.00000000000E+00  0.57712336876E+03  0.57712336876E+03  0.00000000000E+00 0. -1.
         -1   -1    0    0    0  501 -0.00000000000E+00 -0.00000000000E+00 -0.33108757978E+02  0.33108757978E+02  0.00000000000E+00 0.  1.
         25    2    1    2    0    0  0.24294803698E+02  0.58936925965E+02  0.44281526919E+03  0.46453765956E+03  0.12508427475E+03 0.  0.
         23    2    1    2    0    0 -0.24294803698E+02 -0.58936925965E+02  0.10119934159E+03  0.14569446718E+03  0.83197189255E+02 0.  0.
          5    1    3    3  502    0  0.67707012600E+02  0.44031735139E+02  0.36705753851E+03  0.37586133379E+03  0.41800000000E+01 0.  1.
         -5    1    3    3    0  502 -0.43412208903E+02  0.14905190825E+02  0.75757730674E+02  0.88676325771E+02  0.41800000000E+01 0.  1.
        -11    1    4    4    0    0  0.25402199309E+02 -0.38916223433E+01  0.47931168963E+02  0.54385783182E+02  0.00000000000E+00 0. -1.
         11    1    4    4    0    0 -0.49697003006E+02 -0.55045303622E+02  0.53268172632E+02  0.91308684002E+02  0.00000000000E+00 0.  1.
</event>
<event>
 8    1  0.7168478E-009  0.2199044E+03  0.7561462E-02  0.1133954E+00
          1   -1    0    0  501    0  0.00000000000E+00  0.00000000000E+00  0.10449539450E+04  0.10449539450E+04  0.00000000000E+00 0. -1.
         -1   -1    0    0    0  501 -0.00000000000E+00 -0.00000000000E+00 -0.54547941739E+02  0.54547941739E+02  0.00000000000E+00 0.  1.
         25    2    1    2    0    0 -0.10714908661E+03  0.18278479894E+03  0.46629007504E+03  0.52722390753E+03  0.12508958832E+03 0.  0.
         23    2    1    2    0    0  0.10714908661E+03 -0.18278479894E+03  0.52411592822E+03  0.57227797921E+03  0.88957123334E+02 0.  0.
          5    1    3    3  502    0  0.53008701758E+00 -0.47857898154E+00 -0.71094025382E+01  0.82780453332E+01  0.41800000000E+01 0.  1.
         -5    1    3    3    0  502 -0.10767917362E+03  0.18326337792E+03  0.47339947757E+03  0.51894586219E+03  0.41800000000E+01 0.  1.
        -11    1    4    4    0    0  0.84151684850E+02 -0.74883387639E+02  0.19542552341E+03  0.22556631621E+03  0.00000000000E+00 0.  1.
         11    1    4    4    0    0  0.22997401757E+02 -0.10790141130E+03  0.32869040482E+03  0.34671166301E+03  0.00000000000E+00 0. -1.
</event>
<event>
 8    1  0.7168478E-009  0.1359000E+03  0.7561462E-02  0.1218955E+00
         -1   -1    0    0    0  501 -0.00000000000E+00  0.00000000000E+00  0.50588205042E+02  0.50588205042E+02  0.00000000000E+00 0.  1.
          1   -1    0    0  501    0  0.00000000000E+00 -0.00000000000E+00 -0.40571587968E+03  0.40571587968E+03  0.00000000000E+00 0. -1.
         25    2    1    2    0    0  0.88339757093E+02 -0.27167324818E+02 -0.17205101078E+03  0.23193131861E+03  0.12509440444E+03 0.  0.
         23    2    1    2    0    0 -0.88339757093E+02  0.27167324818E+02 -0.18307666386E+03  0.22437276611E+03  0.91017015451E+02 0.  0.
          5    1    3    3  502    0  0.10770159317E+03 -0.52526033040E+02 -0.15353895685E+03  0.19480836992E+03  0.41800000000E+01 0. -1.
         -5    1    3    3    0  502 -0.19361836080E+02  0.25358708223E+02 -0.18512053927E+02  0.37122948693E+02  0.41800000000E+01 0. -1.
        -11    1    4    4    0    0 -0.99634553327E+02  0.35409288487E+02 -0.12077987608E+03  0.16052613617E+03  0.00000000000E+00 0.  1.
         11    1    4    4    0    0  0.11294796234E+02 -0.82419636693E+01 -0.62296787784E+02  0.63846629945E+02  0.00000000000E+00 0. -1.
</event>
<event>
 8    1  0.7168478E-009  0.6270675E+02  0.7561462E-02  0.1386811E+00
          1   -1    0    0  501    0  0.00000000000E+00  0.00000000000E+00  0.55465366649E+03  0.55465366649E+03  0.00000000000E+00 0. -1.
         -1   -1    0    0    0  501 -0.00000000000E+00 -0.00000000000E+00 -0.23619204337E+02  0.23619204337E+02  0.00000000000E+00 0.  1.
         25    2    1    2    0    0 -0.10029862978E+02  0.10712176760E+02  0.22679322529E+03  0.25941569843E+03  0.12508392652E+03 0.  0.
         23    2    1    2    0    0  0.10029862978E+02 -0.10712176760E+02  0.30424123686E+03  0.31885717239E+03  0.94296433108E+02 0.  0.
          5    1    3    3  502    0  0.76152381266E+01 -0.52576082967E+00 -0.14645567614E+02  0.17036235703E+02  0.41800000000E+01 0.  1.
         -5    1    3    3    0  502 -0.17645101104E+02  0.11237937589E+02  0.24143879290E+03  0.24237946273E+03  0.41800000000E+01 0.  1.
        -11    1    4    4    0    0  0.23766342827E+02 -0.49130507742E+02  0.17938821695E+03  0.18750674181E+03  0.00000000000E+00 0. -1.
         11    1    4    4    0    0 -0.13736479849E+02  0.38418330983E+02  0.12485301991E+03  0.13135043058E+03  0.00000000000E+00 0.  1.
</event>
<event>
 8    1  0.7168478E-009  0.9421229E+02  0.7561462E-02  0.1292960E+00
          2   -1    0    0  501    0  0.00000000000E+00  0.00000000000E+00  0.51440959374E+02  0.51440959374E+02  0.00000000000E+00 0.  1.
         -2   -1    0    0    0  501 -0.00000000000E+00 -0.00000000000E+00 -0.44610708258E+03  0.44610708258E+03  0.00000000000E+00 0. -1.
         25    2    1    2    0    0 -0.21084172226E+02 -0.45514348475E+02 -0.36404742311E+03  0.38819332338E+03  0.12508969506E+03 0.  0.
         23    2    1    2    0    0  0.21084172226E+02  0.45514348475E+02 -0.30618700093E+02  0.10935471857E+03  0.92221751459E+02 0.  0.
          5    1    3    3  502    0 -0.42328942962E+02 -0.77443687672E+02 -0.18472834092E+03  0.20477132737E+03  0.41800000000E+01 0. -1.
         -5    1    3    3    0  502  0.21244770736E+02  0.31929339197E+02 -0.17931908219E+03  0.18342199602E+03  0.41800000000E+01 0. -1.
        -11    1    4    4    0    0  0.29706106809E+02  0.23595571270E+02  0.27360482235E+02  0.46773921724E+02  0.00000000000E+00 0.  1.
         11    1    4    4    0    0 -0.86219345839E+01  0.21918777205E+02 -0.57979182329E+02  0.62580796844E+02  0.00000000000E+00 0. -1.
</event>
<event>
 8    1  0.7168478E-009  0.1505335E+03  0.7561462E-02  0.1199819E+00
          2   -1    0    0  501    0  0.00000000000E+00  0.00000000000E+00  0.16172559906E+03  0.16172559906E+03  0.00000000000E+00 0.  1.
         -2   -1    0    0    0  501 -0.00000000000E+00 -0.00000000000E+00 -0.40462860938E+03  0.40462860938E+03  0.00000000000E+00 0. -1.
         25    2    1    2    0    0 -0.35097664851E+02 -0.99992890133E+02 -0.35204122140E+03  0.38833902069E+03  0.12507497461E+03 0.  0.
         23    2    1    2    0    0  0.35097664851E+02  0.99992890133E+02  0.10913821108E+03  0.17801518775E+03  0.92454495818E+02 0.  0.
          5    1    3    3  502    0 -0.27079405580E+02  0.24985718927E+02 -0.59759984856E+02  0.70329997489E+02  0.41800000000E+01 0.  1.
         -5    1    3    3    0  502 -0.80182592707E+01 -0.12497860906E+03 -0.29228123654E+03  0.31800902321E+03  0.41800000000E+01 0.  1.
        -11    1    4    4    0    0  0.63138974261E+02  0.87696446038E+02  0.71854470222E+02  0.12977003356E+03  0.00000000000E+00 0.  1.
         11    1    4    4    0    0 -0.28041309410E+02  0.12296444095E+02  0.37283740858E+02  0.48245154193E+02  0.00000000000E+00 0. -1.
</event>
<event>
 8    1  0.7168478E-009  0.1977553E+03  0.7561462E-02  0.1151647E+00
         -2   -1    0    0    0  501 -0.00000000000E+00  0.00000000000E+00  0.39719686492E+02  0.39719686492E+02  0.00000000000E+00 0.  1.
          2   -1    0    0  501    0  0.00000000000E+00 -0.00000000000E+00 -0.10630326164E+04  0.10630326164E+04  0.00000000000E+00 0. -1.
         25    2    1    2    0    0  0.17379866844E+03 -0.54027358655E+00 -0.55299307425E+03  0.59300698723E+03  0.12509867182E+03 0.  0.
         23    2    1    2    0    0 -0.17379866844E+03  0.54027358655E+00 -0.47031985568E+03  0.50974531568E+03  0.91832734701E+02 0.  0.
          5    1    3    3  502    0 -0.94420990484E+01  0.11404019942E+02 -0.14207998385E+03  0.14291045839E+03  0.41800000000E+01 0.  1.
         -5    1    3    3    0  502  0.18324076749E+03 -0.11944293528E+02 -0.41091309040E+03  0.45009652884E+03  0.41800000000E+01 0.  1.
        -11    1    4    4    0    0 -0.77450380182E+02 -0.45328073591E+02 -0.22375583974E+03  0.24108063270E+03  0.00000000000E+00 0.  1.
         11    1    4    4    0    0 -0.96348288262E+02  0.45868347177E+02 -0.24656401594E+03  0.26866468298E+03  0.00000000000E+00 0. -1.
</event>
<event>
 8    1  0.7168478E-009  0.1201321E+03  0.7561462E-02  0.1242879E+00
         -1   -1    0    0    0  501 -0.00000000000E+00  0.00000000000E+00  0.32590800476E+02  0.32590800476E+02  0.00000000000E+00 0.  1.
          1   -1    0    0  501    0  0.00000000000E+00 -0.00000000000E+00 -0.71135044623E+03  0.71135044623E+03  0.00000000000E+00 0. -1.
         25    2    1    2    0    0  0.24591650436E+02  0.10275490700E+03 -0.33335230931E+03  0.37139485513E+03  0.12508819334E+03 0.  0.
         23    2    1    2    0    0 -0.24591650436E+02 -0.10275490700E+03 -0.34540733644E+03  0.37254639157E+03  0.91220971389E+02 0.  0.
          5    1    3    3  502    0 -0.29913869163E+02  0.49153761443E+02 -0.45328419925E+02  0.73369407011E+02  0.41800000000E+01 0. -1.
         -5    1    3    3    0  502  0.54505519600E+02  0.53601145555E+02 -0.28802388939E+03  0.29802544812E+03  0.41800000000E+01 0. -1.
        -11    1    4    4    0    0 -0.19189485485E+02 -0.91960360360E+02 -0.34778032063E+03  0.36024449427E+03  0.00000000000E+00 0. -1.
         11    1    4    4    0    0 -0.54021649518E+01 -0.10794546639E+02  0.23729841905E+01  0.12301897304E+02  0.00000000000E+00 0.  1.
</event>
<event>
 8    1  0.7168478E-009  0.1485743E+03  0.7561462E-02  0.1202236E+00
         -1   -1    0    0    0  501 -0.00000000000E+00  0.00000000000E+00  0.11711675128E+04  0.11711675128E+04  0.00000000000E+00 0.  1.
          1   -1    0    0  501    0  0.00000000000E+00 -0.00000000000E+00 -0.28514058061E+02  0.28514058061E+02  0.00000000000E+00 0. -1.
         25    2    1    2    0    0  0.94501566527E+02  0.82846788588E+02  0.84067603310E+03  0.85917289020E+03  0.12509087164E+03 0.  0.
         23    2    1    2    0    0 -0.94501566527E+02 -0.82846788588E+02  0.30197742163E+03  0.34050868065E+03  0.94666055008E+02 0.  0.
          5    1    3    3  502    0  0.31605384482E+02 -0.28357583117E+02  0.12271002370E+03  0.12991641607E+03  0.41800000000E+01 0.  1.
         -5    1    3    3    0  502  0.62896182045E+02  0.11120437171E+03  0.71796600941E+03  0.72925647413E+03  0.41800000000E+01 0.  1.
        -11    1    4    4    0    0 -0.22263660427E+02 -0.28971576421E+02  0.20457866022E+03  0.20781590659E+03  0.00000000000E+00 0.  1.
         11    1    4    4    0    0 -0.72237906099E+02 -0.53875212167E+02  0.97398761412E+02  0.13269277406E+03  0.00000000000E+00 0. -1.
</event>
<event>
 8    1  0.7168478E-009  0.1513474E+03  0.7561462E-02  0.1198827E+00
         -1   -1    0    0    0  501 -0.00000000000E+00  0.00000000000E+00  0.33299472073E+02  0.33299472073E+02  0.00000000000E+00 0.  1.
          1   -1    0    0  501    0  0.00000000000E+00 -0.00000000000E+00 -0.99451093098E+03  0.99451093098E+03  0.00000000000E+00 0. -1.
         25    2    1    2    0    0  0.63111166110E+01 -0.14526760100E+03 -0.54044471354E+03  0.57347371323E+03  0.12509638399E+03 0.  0.
         23    2    1    2    0    0 -0.63111166110E+01  0.14526760100E+03 -0.42076674537E+03  0.45433668982E+03  0.90745069352E+02 0.  0.
          5    1    3    3  502    0 -0.25118682181E+02 -0.90270847572E+02 -0.46731290293E+03  0.47663255844E+03  0.41800000000E+01 0. -1.
         -5    1    3    3    0  502  0.31429798792E+02 -0.54996753431E+02 -0.73131810604E+02  0.96841154797E+02  0.41800000000E+01 0. -1.
        -11    1    4    4    0    0 -0.59644966673E+01  0.11901353931E+03 -0.40818166628E+03  0.42522002592E+03  0.00000000000E+00 0. -1.
         11    1    4    4    0    0 -0.34661994362E+00  0.26254061691E+02 -0.12585079092E+02  0.29116663895E+02  0.00000000000E+00 0.  1.
</event>
<event>
 8    1  0.7168478E-009  0.1048885E+03  0.7561462E-02  0.1270339E+00
          1   -1    0    0  501    0  0.00000000000E+00  0.00000000000E+00  0.17439291537E+02  0.17439291537E+02  0.00000000000E+00 0. -1.
         -1   -1    0    0    0  501 -0.00000000000E+00 -0.00000000000E+00 -0.79395204458E+03  0.79395204458E+03  0.00000000000E+00 0.  1.
         25    2    1    2    0    0  0.13278560697E+02  0.17251195366E+02 -0.57313595123E+03  0.58703107756E+03  0.12508694384E+03 0.  0.
         23    2    1    2    0    0 -0.13278560697E+02 -0.17251195366E+02 -0.20337680182E+03  0.22436025856E+03  0.92203460817E+02 0.  0.
          5    1    3    3  502    0  0.56233470096E+02  0.46517420014E+02 -0.28569717593E+03  0.29490069898E+03  0.41800000000E+01 0.  1.
         -5    1    3    3    0  502 -0.42954909399E+02 -0.29266224647E+02 -0.28743877530E+03  0.29213037859E+03  0.41800000000E+01 0.  1.
        -11    1    4    4    0    0 -0.11410472970E+02  0.32655053234E+02 -0.13696767248E+03  0.14126816591E+03  0.00000000000E+00 0.  1.
         11    1    4    4    0    0 -0.18680877263E+01 -0.49906248600E+02 -0.66409129336E+02  0.83092092645E+02  0.00000000000E+00 0. -1.
</event>
<event>
 8    1  0.7168478E-009  0.1337009E+03  0.7561462E-02  0.1222065E+00
         -1   -1    0    0    0  501 -0.00000000000E+00  0.00000000000E+00  0.12637028305E+03  0.12637028305E+03  0.00000000000E+00 0.  1.
          1   -1    0    0  501    0  0.00000000000E+00 -0.00000000000E+00 -0.22915352324E+03  0.22915352324E+03  0.00000000000E+00 0. -1.
         25    2    1    2    0    0  0.62122673038E+01  0.11018643032E+03  0.18568920694E+02  0.16783191593E+03  0.12507240102E+03 0.  0.
         23    2    1    2    0    0 -0.62122673038E+01 -0.11018643032E+03 -0.12135216089E+03  0.18769189037E+03  0.91226405527E+02 0.  0.
          5    1    3    3  502    0 -0.50569138496E+02  0.68670194398E+02  0.39849169176E+02  0.94224529985E+02  0.41800000000E+01 0. -1.
         -5    1    3    3    0  502  0.56781405800E+02  0.41516235924E+02 -0.21280248483E+02  0.73607385943E+02  0.41800000000E+01 0. -1.
        -11    1    4    4    0    0 -0.11708830184E+02 -0.82583008777E+02 -0.13319548306E+03  0.15715624948E+03  0.00000000000E+00 0. -1.
         11    1    4    4    0    0  0.54965628801E+01 -0.27603421544E+02  0.11843322171E+02  0.30535640889E+02  0.00000000000E+00 0.  1.
</event>
<event>
 8    1  0.7168478E-009  0.1125504E+03  0.7561462E-02  0.1255919E+00
         -2   -1    0    0    0  501 -0.00000000000E+00  0.00000000000E+00  0.23858582971E+02  0.23858582971E+02  0.00000000000E+00 0.  1.
          2   -1    0    0  501    0  0.00000000000E+00 -0.00000000000E+00 -0.72133844654E+03  0.72133844654E+03  0.00000000000E+00 0. -1.
         25    2    1    2    0    0  0.49770609266E+02  0.94886528425E+01 -0.54054208434E+03  0.55713443822E+03  0.12508352902E+03 0.  0.
         23    2    1    2    0    0 -0.49770609266E+02 -0.94886528425E+01 -0.15693777923E+03  0.18806259129E+03  0.90393161319E+02 0.  0.
          5    1    3    3  502    0  0.76846876273E+00 -0.53716619390E+02 -0.25116152808E+03  0.25687672400E+03  0.41800000000E+01 0. -1.
         -5    1    3    3    0  502  0.49002140503E+02  0.63205272233E+02 -0.28938055625E+03  0.30025771422E+03  0.41800000000E+01 0. -1.
        -11    1    4    4    0    0 -0.67192165807E+02  0.64730491710E+01 -0.14823763266E+03  0.16288364942E+03  0.00000000000E+00 0. -1.
         11    1    4    4    0    0  0.17421556540E+02 -0.15961702014E+02 -0.87001465733E+01  0.25178941873E+02  0.00000000000E+00 0.  1.
</event>
<event>
 8    1  0.7168478E-009  0.1140135E+03  0.7561462E-02  0.1253313E+00
         -1   -1    0    0    0  501 -0.00000000000E+00  0.00000000000E+00  0.17872461424E+03  0.17872461424E+03  0.00000000000E+00 0.  1.
          1   -1    0    0  501    0  0.00000000000E+00 -0.00000000000E+00 -0.92207871830E+02  0.92207871830E+02  0.00000000000E+00 0. -1.
         25    2    1    2    0    0  0.23843535712E+02  0.52210391507E+02  0.89371428590E+02  0.16410247904E+03  0.12509169517E+03 0.  0.
         23    2    1    2    0    0 -0.23843535712E+02 -0.52210391507E+02 -0.28546861811E+01  0.10683000703E+03  0.90055882610E+02 0.  0.
          5    1    3    3  502    0 -0.42959740182E+02  0.16552328423E+02 -0.85590205807E+00  0.46235525531E+02  0.41800000000E+01 0. -1.
         -5    1    3    3    0  502  0.66803275894E+02  0.35658063084E+02  0.90227330648E+02  0.11786695351E+03  0.41800000000E+01 0. -1.
        -11    1    4    4    0    0  0.17936691230E+02  0.17260753116E+02  0.49775832746E+01  0.25385720901E+02  0.00000000000E+00 0. -1.
         11    1    4    4    0    0 -0.41780226942E+02 -0.69471144623E+02 -0.78322694557E+01  0.81444286131E+02  0.00000000000E+00 0.  1.
</event>
<event>
 8    1  0.7168478E-009  0.1085379E+03  0.7561462E-02  0.1263302E+00
          1   -1    0    0  501    0  0.00000000000E+00  0.00000000000E+00  0.90957319740E+03  0.90957319740E+03  0.00000000000E+00 0. -1.
         -1   -1    0    0    0  501 -0.00000000000E+00 -0.00000000000E+00 -0.20072130167E+02  0.20072130167E+02  0.00000000000E+00 0.  1.
         25    2    1    2    0    0  0.71009534173E+02  0.37012445892E+02  0.48346201282E+03  0.50576254979E+03  0.12509182161E+03 0.  0.
         23    2    1    2    0    0 -0.71009534173E+02 -0.37012445892E+02  0.40603905441E+03  0.42388277777E+03  0.91633075326E+02 0.  0.
          5    1    3    3  502    0  0.38744687052E+01  0.29489498813E+02  0.38563727560E+03  0.38680514833E+03  0.41800000000E+01 0.  1.
         -5    1    3    3    0  502  0.67135065468E+02  0.75229470791E+01  0.97824737225E+02  0.11895740146E+03  0.41800000000E+01 0.  1.
        -11    1    4    4    0    0 -0.88611015673E+02 -0.12963945824E+02  0.33679290402E+03  0.34849596295E+03  0.00000000000E+00 0.  1.
         11    1    4    4    0    0  0.17601481500E+02 -0.24048500068E+02  0.69246150387E+02  0.75386814828E+02  0.00000000000E+00 0. -1.
</event>
<event>
 8    1  0.7168478E-009  0.1059094E+03  0.7561462E-02  0.1268338E+00
          4   -1    0    0  501    0  0.00000000000E+00  0.00000000000E+00  0.18864338090E+04  0.18864338090E+04  0.00000000000E+00 0.  1.
         -4   -1    0    0    0  501 -0.00000000000E+00 -0.00000000000E+00 -0.12168439426E+02  0.12168439426E+02  0.00000000000E+00 0. -1.
         25    2    1    2    0    0  0.38203838714E+02 -0.12166294641E+02  0.16243549521E+04  0.16296579227E+04  0.12509349504E+03 0.  0.
         23    2    1    2    0    0 -0.38203838714E+02  0.12166294641E+02  0.24991041748E+03  0.26894432576E+03  0.90930091695E+02 0.  0.
          5    1    3    3  502    0  0.60725888475E+02 -0.49047249126E+02  0.13085209829E+04  0.13108538825E+04  0.41800000000E+01 0.  1.
         -5    1    3    3    0  502 -0.22522049762E+02  0.36880954485E+02  0.31583396920E+03  0.31880404017E+03  0.41800000000E+01 0.  1.
        -11    1    4    4    0    0  0.15313831779E+02 -0.21950621128E+02  0.30689143772E+02  0.40720593772E+02  0.00000000000E+00 0. -1.
         11    1    4    4    0    0 -0.53517670493E+02  0.34116915769E+02  0.21922127370E+03  0.22822373198E+03  0.00000000000E+00 0.  1.
</event>
<event>
 8    1  0.7168478E-009  0.8838041E+02  0.7561462E-02  0.1306822E+00
         -2   -1    0    0    0  501 -0.00000000000E+00  0.00000000000E+00  0.24057322163E+03  0.24057322163E+03  0.00000000000E+00 0.  1.
          2   -1    0    0  501    0  0.00000000000E+00 -0.00000000000E+00 -0.83547756361E+02  0.83547756361E+02  0.00000000000E+00 0. -1.
         25    2    1    2    0    0 -0.29462377099E+02 -0.47521054783E+02  0.51350755428E+01  0.13711347096E+03  0.12508977818E+03 0.  0.
         23    2    1    2    0    0  0.29462377099E+02  0.47521054783E+02  0.15189038973E+03  0.18700750704E+03  0.93674088649E+02 0.  0.
          5    1    3    3  502    0  0.15684506836E+02  0.10481041974E+02  0.48126039889E+02  0.51859850665E+02  0.41800000000E+01 0.  1.
         -5    1    3    3    0  502 -0.45146883936E+02 -0.58002096757E+02 -0.42990964347E+02  0.85253620291E+02  0.41800000000E+01 0.  1.
        -11    1    4    4    0    0  0.20249492427E+02  0.62796234314E+02  0.15540009168E+03  0.16882712306E+03  0.00000000000E+00 0.  1.
         11    1    4    4    0    0  0.92128846727E+01 -0.15275179531E+02 -0.35097019500E+01  0.18180383975E+02  0.00000000000E+00 0. -1.
</event>
<event>
 8    1  0.7168478E-009  0.2216727E+03  0.7561462E-02  0.1132642E+00
          1   -1    0    0  501    0  0.00000000000E+00  0.00000000000E+00  0.85997612268E+03  0.85997612268E+03  0.00000000000E+00 0. -1.
         -1   -1    0    0    0  501 -0.00000000000E+00 -0.00000000000E+00 -0.64175747046E+02  0.64175747046E+02  0.00000000000E+00 0.  1.
         25    2    1    2    0    0 -0.18630168875E+03  0.89418639422E+02  0.36701056764E+03  0.43937403454E+03  0.12509505652E+03 0.  0.
         23    2    1    2    0    0  0.18630168875E+03 -0.89418639422E+02  0.42878980799E+03  0.48477783518E+03  0.91895798264E+02 0.  0.
          5    1    3    3  502    0 -0.55011623100E+02  0.89700270620E+02  0.12036131230E+03  0.15992728074E+03  0.41800000000E+01 0.  1.
         -5    1    3    3    0  502 -0.13129006565E+03 -0.28163119743E+00  0.24664925534E+03  0.27944675380E+03  0.41800000000E+01 0.  1.
        -11    1    4    4    0    0  0.61531304494E+02 -0.27684417429E+02  0.24558349575E+03  0.25468368967E+03  0.00000000000E+00 0. -1.
         11    1    4    4    0    0  0.12477038425E+03 -0.61734221993E+02  0.18320631225E+03  0.23009414551E+03  0.00000000000E+00 0.  1.
</event>
<event>
 8    1  0.7168478E-009  0.1420859E+03  0.7561462E-02  0.1210549E+00
          2   -1    0    0  501    0  0.00000000000E+00  0.00000000000E+00  0.13384075522E+03  0.13384075522E+03  0.00000000000E+00 0. -1.
         -2   -1    0    0    0  501 -0.00000000000E+00 -0.00000000000E+00 -0.16945653254E+03  0.16945653254E+03  0.00000000000E+00 0.  1.
         25    2    1    2    0    0 -0.88298506678E+02 -0.37383805990E+02 -0.59474922727E+02  0.16846088341E+03  0.12509047755E+03 0.  0.
         23    2    1    2    0    0  0.88298506678E+02  0.37383805990E+02  0.23859145411E+02  0.13483640436E+03  0.91746508860E+02 0.  0.
          5    1    3    3  502    0 -0.95803615115E+02 -0.69369493747E+02 -0.25612369478E+02  0.12109469519E+03  0.41800000000E+01 0.  1.
         -5    1    3    3    0  502  0.75051084371E+01  0.31985687757E+02 -0.33862553249E+02  0.47366188220E+02  0.41800000000E+01 0.  1.
        -11    1    4    4    0    0  0.81923207738E+02 -0.12093573386E+02  0.14039086095E+02  0.83992633139E+02  0.00000000000E+00 0.  1.
         11    1    4    4    0    0  0.63752989402E+01  0.49477379376E+02  0.98200593155E+01  0.50843771216E+02  0.00000000000E+00 0. -1.
</event>
<event>
 8    1  0.7168478E-009  0.1351320E+03  0.7561462E-02  0.1220033E+00
         -2   -1    0    0    0  501 -0.00000000000E+00  0.00000000000E+00  0.12832529665E+03  0.12832529665E+03  0.00000000000E+00 0.  1.
          2   -1    0    0  501    0  0.00000000000E+00 -0.00000000000E+00 -0.17642415410E+03  0.17642415410E+03  0.00000000000E+00 0. -1.
         25    2    1    2    0    0  0.73214876499E+02 -0.72297365838E+02 -0.31174721129E+02  0.16494420766E+03  0.12508957253E+03 0.  0.
         23    2    1    2    0    0 -0.73214876499E+02  0.72297365838E+02 -0.16924136317E+02  0.13980524309E+03  0.93122244153E+02 0.  0.
          5    1    3    3  502    0  0.50515685133E+02 -0.92511686125E+02 -0.61249996079E+02  0.12198065803E+03  0.41800000000E+01 0.  1.
         -5    1    3    3    0  502  0.22699191367E+02  0.20214320287E+02  0.30075274950E+02  0.42963549628E+02  0.41800000000E+01 0.  1.
        -11    1    4    4    0    0  0.14513752276E+02 -0.67500363159E+01  0.97495433100E+01  0.18742080732E+02  0.00000000000E+00 0.  1.
         11    1    4    4    0    0 -0.87728628776E+02  0.79047402154E+02 -0.26673679627E+02  0.12106316235E+03  0.00000000000E+00 0. -1.
</event>
<event>
 8    1  0.7168478E-009  0.2044931E+03  0.7561462E-02  0.1146003E+00
          2   -1    0    0  501    0  0.00000000000E+00  0.00000000000E+00  0.35891598103E+03  0.35891598103E+03  0.00000000000E+00 0.  1.
         -2   -1    0    0    0  501 -0.00000000000E+00 -0.00000000000E+00 -0.12902253947E+03  0.12902253947E+03  0.00000000000E+00 0. -1.
         25    2    1    2    0    0  0.10130907611E+03 -0.14420823728E+03  0.18025932758E+03  0.28142646575E+03  0.12509150989E+03 0.  0.
         23    2    1    2    0    0 -0.10130907611E+03  0.14420823728E+03  0.49634113989E+02  0.20651205475E+03  0.95520358486E+02 0.  0.
          5    1    3    3  502    0  0.10329563085E+03 -0.40716034406E+02  0.10930395196E+03  0.15586086464E+03  0.41800000000E+01 0.  1.
         -5    1    3    3    0  502 -0.19865547444E+01 -0.10349220287E+03  0.70955375620E+02  0.12556560112E+03  0.41800000000E+01 0.  1.
        -11    1    4    4    0    0 -0.11553801981E+03  0.13294093535E+03  0.59429637537E+02  0.18588762232E+03  0.00000000000E+00 0.  1.
         11    1    4    4    0    0  0.14228943701E+02  0.11267301927E+02 -0.97955235479E+01  0.20624432432E+02  0.00000000000E+00 0. -1.
</event>
<event>
 8    1  0.7168478E-009  0.8915102E+02  0.7561462E-02  0.1304921E+00
          2   -1    0    0  501    0  0.00000000000E+00  0.00000000000E+00  0.48537446381E+03  0.48537446381E+03  0.00000000000E+00 0. -1.
         -2   -1    0    0    0  501 -0.00000000000E+00 -0.00000000000E+00 -0.27193311614E+02  0.27193311614E+02  0.00000000000E+00 0.  1.
         25    2    1    2    0    0  0.38309143919E+02 -0.79881098636E+01  0.25996292814E+03  0.29112647310E+03  0.12506997611E+03 0.  0.
         23    2    1    2    0    0 -0.38309143919E+02  0.79881098636E+01  0.19821822406E+03  0.22144130233E+03  0.90633247882E+02 0.  0.
          5    1    3    3  502    0  0.53429639362E+02  0.14635806590E+02  0.37640629608E+02  0.67106054825E+02  0.41800000000E+01 0. -1.
         -5    1    3    3    0  502 -0.15120495443E+02 -0.22623916453E+02  0.22232229853E+03  0.22402041827E+03  0.41800000000E+01 0. -1.
        -11    1    4    4    0    0 -0.41550981824E+01 -0.37836222468E+02  0.51937016231E+02  0.64391755889E+02  0.00000000000E+00 0. -1.
         11    1    4    4    0    0 -0.34154045737E+02  0.45824332331E+02  0.14628120783E+03  0.15704954644E+03  0.00000000000E+00 0.  1.
</event>
<event>
 8    1  0.7168478E-009  0.2432502E+03  0.7561462E-02  0.1117646E+00
          2   -1    0    0  501    0  0.00000000000E+00  0.00000000000E+00  0.11100956806E+04  0.11100956806E+04  0.00000000000E+00 0. -1.
         -2   -1    0    0    0  501 -0.00000000000E+00 -0.00000000000E+00 -0.64525649862E+02  0.64525649862E+02  0.00000000000E+00 0.  1.
         25    2    1    2    0    0 -0.22058004160E+03 -0.61335148172E+02  0.70462630038E+03  0.75137471825E+03  0.12509272112E+03 0.  0.
         23    2    1    2    0    0  0.22058004160E+03  0.61335148172E+02  0.34094373032E+03  0.42324661218E+03  0.10235972021E+03 0.  0.
          5    1    3    3  502    0 -0.99718993813E+02 -0.88739980838E+02  0.42495257586E+03  0.44544452635E+03  0.41800000000E+01 0. -1.
         -5    1    3    3    0  502 -0.12086104779E+03  0.27404832667E+02  0.27967372453E+03  0.30593019190E+03  0.41800000000E+01 0. -1.
        -11    1    4    4    0    0  0.39634331422E+02  0.10950185758E+02  0.93785712135E+01  0.42175163229E+02  0.00000000000E+00 0.  1.
         11    1    4    4    0    0  0.18094571018E+03  0.50384962414E+02  0.33156515911E+03  0.38107144895E+03  0.00000000000E+00 0. -1.
</event>
<event>
 8    1  0.7168478E-009  0.6496957E+02  0.7561462E-02  0.1378086E+00
          1   -1    0    0  501    0  0.00000000000E+00  0.00000000000E+00  0.35143749268E+03  0.35143749268E+03  0.00000000000E+00 0. -1.
         -1   -1    0    0    0  501 -0.00000000000E+00 -0.00000000000E+00 -0.38229705790E+02  0.38229705790E+02  0.00000000000E+00 0.  1.
         25    2    1    2    0    0  0.18767978134E+02 -0.35478508924E+02  0.20605993537E+03  0.24437386262E+03  0.12508767393E+03 0.  0.
         23    2    1    2    0    0 -0.18767978134E+02  0.35478508924E+02  0.10714785152E+03  0.14529333585E+03  0.89546243685E+02 0.  0.
          5    1    3    3  502    0  0.14695500783E+02 -0.30186322498E+02 -0.40876756847E+01  0.34078634094E+02  0.41800000000E+01 0. -1.
         -5    1    3    3    0  502  0.40724773512E+01 -0.52921864267E+01  0.21014761106E+03  0.21029522853E+03  0.41800000000E+01 0. -1.
        -11    1    4    4    0    0  0.11211734638E+02  0.52547395699E+02  0.94198339281E+02  0.10844472745E+03  0.00000000000E+00 0. -1.
         11    1    4    4    0    0 -0.29979712773E+02 -0.17068886774E+02  0.12949512236E+02  0.36848608397E+02  0.00000000000E+00 0.  1.
</event>
<event>
 8    1  0.7168478E-009  0.1213198E+03  0.7561462E-02  0.1240936E+00
         -2   -1    0    0    0  501 -0.00000000000E+00  0.00000000000E+00  0.26702616545E+03  0.26702616545E+03  0.00000000000E+00 0.  1.
          2   -1    0    0  501    0  0.00000000000E+00 -0.00000000000E+00 -0.75501125500E+02  0.75501125500E+02  0.00000000000E+00 0. -1.
         25    2    1    2    0    0 -0.89748941068E+02  0.91164640449E+01  0.82526743551E+02  0.17491723523E+03  0.12508954169E+03 0.  0.
         23    2    1    2    0    0  0.89748941068E+02 -0.91164640449E+01  0.10899829640E+03  0.16761005572E+03  0.89858331949E+02 0.  0.
          5    1    3    3  502    0  0.20181029107E+02  0.98491609092E+01 -0.15470180664E+02  0.27587656591E+02  0.41800000000E+01 0.  1.
         -5    1    3    3    0  502 -0.10992997017E+03 -0.73269686438E+00  0.97996924215E+02  0.14732957864E+03  0.41800000000E+01 0.  1.
        -11    1    4    4    0    0  0.90816468466E+01  0.21628772340E+02 -0.56167045859E+01  0.24121100157E+02  0.00000000000E+00 0. -1.
         11    1    4    4    0    0  0.80667294221E+02 -0.30745236385E+02  0.11461500099E+03  0.14348895556E+03  0.00000000000E+00 0.  1.
</event>
<event>
 8    1  0.7168478E-009  0.6043663E+02  0.7561462E-02  0.1396008E+00
          3   -1    0    0  501    0  0.00000000000E+00  0.00000000000E+00  0.17099316001E+03  0.17099316001E+03  0.00000000000E+00 0. -1.
         -3   -1    0    0    0  501 -0.00000000000E+00 -0.00000000000E+00 -0.10121025545E+03  0.10121025545E+03  0.00000000000E+00 0.  1.
         25    2    1    2    0    0 -0.51148399824E+02 -0.76032148203E+01  0.93868068591E+02  0.16472184120E+03  0.12509237781E+03 0.  0.
         23    2    1    2    0    0  0.51148399824E+02  0.76032148203E+01 -0.24085164027E+02  0.10748157426E+03  0.91094599175E+02 0.  0.
          5    1    3    3  502    0 -0.25972808719E+02  0.29106607584E+01  0.12227928183E+03  0.12511096636E+03  0.41800000000E+01 0.  1.
         -5    1    3    3    0  502 -0.25175591105E+02 -0.10513875579E+02 -0.28411213243E+02  0.39610874834E+02  0.41800000000E+01 0.  1.
        -11    1    4    4    0    0  0.43090765687E+01  0.18265578079E+02 -0.49640391221E+02  0.53069463197E+02  0.00000000000E+00 0.  1.
         11    1    4    4    0    0  0.46839323255E+02 -0.10662363258E+02  0.25555227194E+02  0.54412111062E+02  0.00000000000E+00 0. -1.
</event>
<event>
 8    1  0.7168478E-009  0.1261310E+03  0.7561462E-02  0.1233312E+00
         -3   -1    0    0    0  501 -0.00000000000E+00  0.00000000000E+00  0.68712698939E+03  0.68712698939E+03  0.00000000000E+00 0.  1.
          3   -1    0    0  501    0  0.00000000000E+00 -0.00000000000E+00 -0.42396357616E+02  0.42396357616E+02  0.00000000000E+00 0. -1.
         25    2    1    2    0    0  0.65843960955E+02 -0.57559403711E+02  0.55184076767E+03  0.57255980638E+03  0.12509191371E+03 0.  0.
         23    2    1    2    0    0 -0.65843960955E+02  0.57559403711E+02  0.92889864107E+02  0.15696354062E+03  0.91435846807E+02 0.  0.
          5    1    3    3  502    0  0.10194022841E+03 -0.29847637264E+02  0.40889342055E+03  0.42248549489E+03  0.41800000000E+01 0. -1.
         -5    1    3    3    0  502 -0.36096267455E+02 -0.27711766447E+02  0.14294734711E+03  0.15007431149E+03  0.41800000000E+01 0. -1.
        -11    1    4    4    0    0 -0.12639954680E+02  0.43403158310E+02  0.91307681081E+02  0.10188569689E+03  0.00000000000E+00 0.  1.
         11    1    4    4    0    0 -0.53204006275E+02  0.14156245401E+02  0.15821830257E+01  0.55077843737E+02  0.00000000000E+00 0. -1.
</event>
<event>
 8    1  0.7168478E-009  0.1965168E+03  0.7561462E-02  0.1152711E+00
         -1   -1    0    0    0  501 -0.00000000000E+00  0.00000000000E+00  0.26953979101E+03  0.26953979101E+03  0.00000000000E+00 0.  1.
          1   -1    0    0  501    0  0.00000000000E+00 -0.00000000000E+00 -0.16751235676E+03  0.16751235676E+03  0.00000000000E+00 0. -1.
         25    2    1    2    0    0 -0.17781090820E+03 -0.34711338007E+02  0.31264477841E+02  0.22236587417E+03  0.12509004102E+03 0.  0.
         23    2    1    2    0    0  0.17781090820E+03  0.34711338007E+02  0.70762956412E+02  0.21468627359E+03  0.90891165735E+02 0.  0.
          5    1    3    3  502    0  0.13027052633E+02 -0.14449215035E+02  0.22745106969E+02  0.30220790964E+02  0.41800000000E+01 0.  1.
         -5    1    3    3    0  502 -0.19083796083E+03 -0.20262122972E+02  0.85193708713E+01  0.19214508321E+03  0.41800000000E+01 0.  1.
        -11    1    4    4    0    0  0.10900598485E+03  0.22296762569E+02 -0.52782937703E+01  0.11138810860E+03  0.00000000000E+00 0. -1.
         11    1    4    4    0    0  0.68804923353E+02  0.12414575438E+02  0.76041250182E+02  0.10329816499E+03  0.00000000000E+00 0.  1.
</event>
<event>
 8    1  0.7168478E-009  0.1085985E+03  0.7561462E-02  0.1263188E+00
          2   -1    0    0  501    0  0.00000000000E+00  0.00000000000E+00  0.58727196772E+03  0.58727196772E+03  0.00000000000E+00 0. -1.
         -2   -1    0    0    0  501 -0.00000000000E+00 -0.00000000000E+00 -0.50168156748E+02  0.50168156748E+02  0.00000000000E+00 0.  1.
         25    2    1    2    0    0  0.81050901523E+02 -0.42316871683E+02  0.46513814223E+03  0.49026650547E+03  0.12509112183E+03 0.  0.
         23    2    1    2    0    0 -0.81050901523E+02  0.42316871683E+02  0.71965668734E+02  0.14717361899E+03  0.90116870697E+02 0.  0.
          5    1    3    3  502    0 -0.14681809363E+02  0.87222395375E+00  0.20819896533E+01  0.15431246927E+02  0.41800000000E+01 0.  1.
         -5    1    3    3    0  502  0.95732710886E+02 -0.43189095637E+02  0.46305615258E+03  0.47483525854E+03  0.41800000000E+01 0.  1.
        -11    1    4    4    0    0 -0.48840922615E+02  0.75771006867E+01 -0.11913389351E+02  0.50840702419E+02  0.00000000000E+00 0. -1.
         11    1    4    4    0    0 -0.32209978908E+02  0.34739770996E+02  0.83879058085E+02  0.96332916573E+02  0.00000000000E+00 0.  1.
</event>
<event>
 8    1  0.7168478E-009  0.1189802E+03  0.7561462E-02  0.1244789E+00
         -2   -1    0    0    0  501 -0.00000000000E+00  0.00000000000E+00  0.43438630609E+02  0.43438630609E+02  0.00000000000E+00 0.  1.
          2   -1    0    0  501    0  0.00000000000E+00 -0.00000000000E+00 -0.44446642505E+03  0.44446642505E+03  0.00000000000E+00 0. -1.
         25    2    1    2    0    0  0.74241481709E+02 -0.43726556428E+02 -0.22839348528E+03  0.27429059155E+03  0.12509170695E+03 0.  0.
         23    2    1    2    0    0 -0.74241481709E+02  0.43726556428E+02 -0.17263430916E+03  0.21361446411E+03  0.91677288552E+02 0.  0.
          5    1    3    3  502    0 -0.13145535321E+02  0.17649930617E+01  0.94519124133E+01  0.16814617083E+02  0.41800000000E+01 0. -1.
         -5    1    3    3    0  502  0.87387017030E+02 -0.45491549490E+02 -0.23784539770E+03  0.25747597446E+03  0.41800000000E+01 0. -1.
        -11    1    4    4    0    0  0.87771937160E+01  0.41478636757E+02 -0.50810795723E+02  0.66175927638E+02  0.00000000000E+00 0. -1.
         11    1    4    4    0    0 -0.83018675425E+02  0.22479196711E+01 -0.12182351343E+03  0.14743853647E+03  0.00000000000E+00 0.  1.
</event>
<event>
 8    1  0.7168478E-009  0.9806564E+02  0.7561462E-02  0.1284417E+00
         -1   -1    0    0    0  501 -0.00000000000E+00  0.00000000000E+00  0.17514592651E+03  0.17514592651E+03  0.00000000000E+00 0.  1.
          1   -1    0    0  501    0  0.00000000000E+00 -0.00000000000E+00 -0.76312222769E+02  0.76312222769E+02  0.00000000000E+00 0. -1.
         25    2    1    2    0    0  0.97743588230E+00  0.11276003299E+02  0.98247965952E+02  0.15946284710E+03  0.12509049988E+03 0.  0.
         23    2    1    2    0    0 -0.97743588230E+00 -0.11276003299E+02  0.58573778779E+00  0.91995302182E+02  0.91294517379E+02 0.  0.
          5    1    3    3  502    0  0.37270609732E+02  0.54955210435E+02  0.38248943358E+02  0.76743909020E+02  0.41800000000E+01 0. -1.
         -5    1    3    3    0  502 -0.36293173850E+02 -0.43679207136E+02  0.59999022594E+02  0.82718938076E+02  0.41800000000E+01 0. -1.
        -11    1    4    4    0    0  0.33976145308E+02  0.45610227770E+01  0.28468922501E+02  0.44560755460E+02  0.00000000000E+00 0.  1.
         11    1    4    4    0    0 -0.34953581191E+02 -0.15837026076E+02 -0.27883184714E+02  0.47434546722E+02  0.00000000000E+00 0. -1.
</event>
<event>
 8    1  0.7168478E-009  0.1026346E+03  0.7561462E-02  0.1274851E+00
          2   -1    0    0  501    0  0.00000000000E+00  0.00000000000E+00  0.42471659157E+03  0.42471659157E+03  0.00000000000E+00 0.  1.
         -2   -1    0    0    0  501 -0.00000000000E+00 -0.00000000000E+00 -0.40089313635E+02  0.40089313635E+02  0.00000000000E+00 0. -1.
         25    2    1    2    0    0 -0.16204046205E+02  0.56850041502E+02  0.28246412712E+03  0.31452934729E+03  0.12509288096E+03 0.  0.
         23    2    1    2    0    0  0.16204046205E+02 -0.56850041502E+02  0.10216315081E+03  0.15027655791E+03  0.93012021486E+02 0.  0.
          5    1    3    3  502    0  0.40647049897E+02  0.11784995304E+02  0.30599114579E+02  0.52391287374E+02  0.41800000000E+01 0. -1.
         -5    1    3    3    0  502 -0.56851096102E+02  0.45065046199E+02  0.25186501254E+03  0.26213805992E+03  0.41800000000E+01 0. -1.
        -11    1    4    4    0    0 -0.26136295558E+02 -0.13259599575E+02 -0.23279228228E+01  0.29399696445E+02  0.00000000000E+00 0. -1.
         11    1    4    4    0    0  0.42340341763E+02 -0.43590441927E+02  0.10449107364E+03  0.12087686147E+03  0.00000000000E+00 0.  1.
</event>
<event>
 8    1  0.7168478E-009  0.1208391E+03  0.7561462E-02  0.1241719E+00
          1   -1    0    0  501    0  0.00000000000E+00  0.00000000000E+00  0.51408481403E+03  0.51408481403E+03  0.00000000000E+00 0. -1.
         -1   -1    0    0    0  501 -0.00000000000E+00 -0.00000000000E+00 -0.29228124442E+02  0.29228124442E+02  0.00000000000E+00 0.  1.
         25    2    1    2    0    0 -0.56494254862E+02 -0.38412244227E+01  0.28900635962E+03  0.31996618531E+03  0.12508928013E+03 0.  0.
         23    2    1    2    0    0  0.56494254862E+02  0.38412244227E+01  0.19585032998E+03  0.22334675317E+03  0.91214387914E+02 0.  0.
          5    1    3    3  502    0 -0.30704227253E+01  0.54816164850E+02  0.15098050087E+03  0.16070726016E+03  0.41800000000E+01 0.  1.
         -5    1    3    3    0  502 -0.53423832137E+02 -0.58657389272E+02  0.13802585874E+03  0.15925892514E+03  0.41800000000E+01 0.  1.
        -11    1    4    4    0    0  0.79082620245E+02 -0.11425517380E+02  0.14000680804E+03  0.16120331749E+03  0.00000000000E+00 0.  1.
         11    1    4    4    0    0 -0.22588365383E+02  0.15266741803E+02  0.55843521936E+02  0.62143435680E+02  0.00000000000E+00 0. -1.
</event>
<event>
 8    1  0.7168478E-009  0.1299863E+03  0.7561462E-02  0.1227476E+00
          1   -1    0    0  501    0  0.00000000000E+00  0.00000000000E+00  0.30913181477E+03  0.30913181477E+03  0.00000000000E+00 0. -1.
         -1   -1    0    0    0  501 -0.00000000000E+00 -0.00000000000E+00 -0.65281301284E+02  0.65281301284E+02  0.00000000000E+00 0.  1.
         25    2    1    2    0    0  0.62410560206E+02 -0.48036648213E+02  0.69076154451E+02  0.16316119907E+03  0.12508982442E+03 0.  0.
         23    2    1    2    0    0 -0.62410560206E+02  0.48036648213E+02  0.17477435904E+03  0.21125191698E+03  0.88762031614E+02 0.  0.
          5    1    3    3  502    0 -0.93918603991E+01  0.32237888114E+02 -0.22554769845E+01  0.33912358341E+02  0.41800000000E+01 0.  1.
         -5    1    3    3    0  502  0.71802420605E+02 -0.80274536327E+02  0.71331631436E+02  0.12924884073E+03  0.41800000000E+01 0.  1.
        -11    1    4    4    0    0 -0.46201555466E+02  0.74298220730E+02  0.12225662370E+03  0.15033792392E+03  0.00000000000E+00 0.  1.
         11    1    4    4    0    0 -0.16209004739E+02 -0.26261572517E+02  0.52517735339E+02  0.60913993063E+02  0.00000000000E+00 0. -1.
</event>
<event>
 8    1  0.7168478E-009  0.1649225E+03  0.7561462E-02  0.1183249E+00
          2   -1    0    0  501    0  0.00000000000E+00  0.00000000000E+00  0.60937269335E+03  0.60937269335E+03  0.00000000000E+00 0. -1.
         -2   -1    0    0    0  501 -0.00000000000E+00 -0.00000000000E+00 -0.59386708789E+02  0.59386708789E+02  0.00000000000E+00 0.  1.
         25    2    1    2    0    0  0.46869827805E+02 -0.13704293859E+03  0.39329778565E+03  0.43738695071E+03  0.12508656473E+03 0.  0.
         23    2    1    2    0    0 -0.46869827805E+02  0.13704293859E+03  0.15668819891E+03  0.23137245143E+03  0.89467713880E+02 0.  0.
          5    1    3    3  502    0 -0.57085442559E+01 -0.92355583165E+02  0.33304159215E+03  0.34568239140E+03  0.41800000000E+01 0.  1.
         -5    1    3    3    0  502  0.52578372061E+02 -0.44687355427E+02  0.60256193502E+02  0.91704559315E+02  0.41800000000E+01 0.  1.
        -11    1    4    4    0    0  0.15687311234E+02 -0.18133183660E+01  0.27275802699E+02  0.31517443902E+02  0.00000000000E+00 0. -1.
         11    1    4    4    0    0 -0.62557139040E+02  0.13885625696E+03  0.12941239621E+03  0.19985500753E+03  0.00000000000E+00 0.  1.
</event>
<event>
 8    1  0.7168478E-009  0.1140381E+03  0.7561462E-02  0.1253270E+00
          1   -1    0    0  501    0  0.00000000000E+00  0.00000000000E+00  0.45199651234E+02  0.45199651234E+02  0.00000000000E+00 0. -1.
         -1   -1    0    0    0  501 -0.00000000000E+00 -0.00000000000E+00 -0.39002600105E+03  0.39002600105E+03  0.00000000000E+00 0.  1.
         25    2    1    2    0    0 -0.57288285403E+02  0.46114035083E+02 -0.23394776933E+03  0.27529564559E+03  0.12509069443E+03 0.  0.
         23    2    1    2    0    0  0.57288285403E+02 -0.46114035083E+02 -0.11087858049E+03  0.15993000669E+03  0.88741735126E+02 0.  0.
          5    1    3    3  502    0 -0.38711539711E+02 -0.20611540354E+02 -0.18551737126E+03  0.19067665390E+03  0.41800000000E+01 0. -1.
         -5    1    3    3    0  502 -0.18576745692E+02  0.66725575438E+02 -0.48430398064E+02  0.84618991690E+02  0.41800000000E+01 0. -1.
        -11    1    4    4    0    0  0.51427877943E+02  0.14737834659E+02 -0.60070661585E+02  0.80439510090E+02  0.00000000000E+00 0. -1.
         11    1    4    4    0    0  0.58604074597E+01 -0.60851869742E+02 -0.50807918903E+02  0.79490496601E+02  0.00000000000E+00 0.  1.
</event>
<event>
 8    1  0.7168478E-009  0.1344191E+03  0.7561462E-02  0.1221042E+00
         -1   -1    0    0    0  501 -0.00000000000E+00  0.00000000000E+00  0.39638564490E+03  0.39638564490E+03  0.00000000000E+00 0.  1.
          1   -1    0    0  501    0  0.00000000000E+00 -0.00000000000E+00 -0.59278454772E+02  0.59278454772E+02  0.00000000000E+00 0. -1.
         25    2    1    2    0    0 -0.10049927929E+03 -0.36714879584E+02  0.16983980667E+03  0.23651347927E+03  0.12507988818E+03 0.  0.
         23    2    1    2    0    0  0.10049927929E+03  0.36714879584E+02  0.16726738346E+03  0.21915062040E+03  0.92739038873E+02 0.  0.
          5    1    3    3  502    0 -0.13744831374E+02  0.26032130490E+02  0.10966289688E+03  0.11362224940E+03  0.41800000000E+01 0.  1.
         -5    1    3    3    0  502 -0.86754447921E+02 -0.62747010074E+02  0.60176909792E+02  0.12289122987E+03  0.41800000000E+01 0.  1.
        -11    1    4    4    0    0  0.41902504843E+02 -0.23411077032E+02  0.10227274984E+03  0.11297616474E+03  0.00000000000E+00 0.  1.
         11    1    4    4    0    0  0.58596774452E+02  0.60125956616E+02  0.64994633618E+02  0.10617445566E+03  0.00000000000E+00 0. -1.
</event>
<event>
 8    1  0.7168478E-009  0.1384049E+03  0.7561462E-02  0.1215492E+00
         -2   -1    0    0    0  501 -0.00000000000E+00  0.00000000000E+00  0.14087770734E+03  0.14087770734E+03  0.00000000000E+00 0.  1.
          2   -1    0    0  501    0  0.00000000000E+00 -0.00000000000E+00 -0.16316421046E+03  0.16316421046E+03  0.00000000000E+00 0. -1.
         25    2    1    2    0    0 -0.73429219991E+02  0.81994477647E+02 -0.14310780229E+01  0.16662988229E+03  0.12509406451E+03 0.  0.
         23    2    1    2    0    0  0.73429219991E+02 -0.81994477647E+02 -0.20855425098E+02  0.13741203550E+03  0.79574958563E+02 0.  0.
          5    1    3    3  502    0 -0.60991148087E+02  0.11536257259E+03 -0.45487292367E+01  0.13063922320E+03  0.41800000000E+01 0. -1.
         -5    1    3    3    0  502 -0.12438071904E+02 -0.33368094946E+02  0.31176512138E+01  0.35990659095E+02  0.41800000000E+01 0. -1.
        -11    1    4    4    0    0  0.40121642381E+02 -0.51059381448E+02 -0.51253921463E+02  0.82727087986E+02  0.00000000000E+00 0. -1.
         11    1    4    4    0    0  0.33307577610E+02 -0.30935096199E+02  0.30398496365E+02  0.54684947512E+02  0.00000000000E+00 0.  1.
</event>
<event>
 8    1  0.7168478E-009  0.1169022E+03  0.7561462E-02  0.1248297E+00
         -1   -1    0    0    0  501 -0.00000000000E+00  0.00000000000E+00  0.36197608456E+02  0.36197608456E+02  0.00000000000E+00 0.  1.
          1   -1    0    0  501    0  0.00000000000E+00 -0.00000000000E+00 -0.61279205261E+03  0.61279205261E+03  0.00000000000E+00 0. -1.
         25    2    1    2    0    0  0.58062517638E+02  0.11997616897E+02 -0.50506130730E+03  0.52368774673E+03  0.12508690247E+03 0.  0.
         23    2    1    2    0    0 -0.58062517638E+02 -0.11997616897E+02 -0.71533136851E+02  0.12530191434E+03  0.84073665936E+02 0.  0.
          5    1    3    3  502    0  0.90182860490E+02 -0.13148904001E+02 -0.41219817008E+03  0.42217371522E+03  0.41800000000E+01 0. -1.
         -5    1    3    3    0  502 -0.32120342852E+02  0.25146520898E+02 -0.92863137218E+02  0.10151403150E+03  0.41800000000E+01 0. -1.
        -11    1    4    4    0    0 -0.70748911870E+01  0.32885273943E+02 -0.14597612380E+02  0.36668591667E+02  0.00000000000E+00 0.  1.
         11    1    4    4    0    0 -0.50987626451E+02 -0.44882890840E+02 -0.56935524471E+02  0.88633322673E+02  0.00000000000E+00 0. -1.
</event>
<event>
 8    1  0.7168478E-009  0.9634255E+02  0.7561462E-02  0.1288181E+00
         -2   -1    0    0    0  501 -0.00000000000E+00  0.00000000000E+00  0.31538338526E+02  0.31538338526E+02  0.00000000000E+00 0.  1.
          2   -1    0    0  501    0  0.00000000000E+00 -0.00000000000E+00 -0.43862545700E+03  0.43862545700E+03  0.00000000000E+00 0. -1.
         25    2    1    2    0    0  0.38792316072E+02  0.13432705425E+02 -0.25811596417E+03  0.28975791125E+03  0.12510201762E+03 0.  0.
         23    2    1    2    0    0 -0.38792316072E+02 -0.13432705425E+02 -0.14897115431E+03  0.18040588427E+03  0.93105300086E+02 0.  0.
          5    1    3    3  502    0  0.68943891158E+02 -0.21232528548E+02 -0.89956523746E+02  0.11538513319E+03  0.41800000000E+01 0. -1.
         -5    1    3    3    0  502 -0.30151575085E+02  0.34665233973E+02 -0.16815944042E+03  0.17437277806E+03  0.41800000000E+01 0. -1.
        -11    1    4    4    0    0 -0.21197702469E+02 -0.38332227887E+02 -0.20493075620E+02  0.48359781152E+02  0.00000000000E+00 0.  1.
         11    1    4    4    0    0 -0.17594613603E+02  0.24899522461E+02 -0.12847807869E+03  0.13204610312E+03  0.00000000000E+00 0. -1.
</event>
<event>
 8    1  0.7168478E-009  0.1591651E+03  0.7561462E-02  0.1189643E+00
          1   -1    0    0  501    0  0.00000000000E+00  0.00000000000E+00  0.60305623822E+02  0.60305623822E+02  0.00000000000E+00 0. -1.
         -1   -1    0    0    0  501 -0.00000000000E+00 -0.00000000000E+00 -0.62955429423E+03  0.62955429423E+03  0.00000000000E+00 0.  1.
         25    2    1    2    0    0 -0.89115440715E+02 -0.10968749467E+03 -0.43692471373E+03  0.47594530817E+03  0.12509125724E+03 0.  0.
         23    2    1    2    0    0  0.89115440715E+02  0.10968749467E+03 -0.13232395668E+03  0.21391460989E+03  0.90977593679E+02 0.  0.
          5    1    3    3  502    0 -0.10446571919E+02 -0.84465834590E+02 -0.11242772446E+03  0.14107116539E+03  0.41800000000E+01 0.  1.
         -5    1    3    3    0  502 -0.78668868796E+02 -0.25221660076E+02 -0.32449698927E+03  0.33487414277E+03  0.41800000000E+01 0.  1.
        -11    1    4    4    0    0  0.91002290323E+02  0.81541387116E+02 -0.59679957280E+02  0.13598570498E+03  0.00000000000E+00 0. -1.
         11    1    4    4    0    0 -0.18868496086E+01  0.28146107550E+02 -0.72643999401E+02  0.77928904911E+02  0.00000000000E+00 0.  1.
</event>
<event>
 8    1  0.7168478E-009  0.1155815E+03  0.7561462E-02  0.1250570E+00
          1   -1    0    0  501    0  0.00000000000E+00  0.00000000000E+00  0.91955234549E+02  0.91955234549E+02  0.00000000000E+00 0. -1.
         -1   -1    0    0    0  501 -0.00000000000E+00 -0.00000000000E+00 -0.26596323201E+03  0.26596323201E+03  0.00000000000E+00 0.  1.
         25    2    1    2    0    0 -0.70074731576E+02  0.62635007739E+00  0.65024042140E+01  0.14352968540E+03  0.12509048329E+03 0.  0.
         23    2    1    2    0    0  0.70074731576E+02 -0.62635007739E+00 -0.18051040167E+03  0.21438878116E+03  0.92020019865E+02 0.  0.
          5    1    3    3  502    0 -0.10368559095E+03 -0.16806357085E+02  0.78353550162E+01  0.10541356932E+03  0.41800000000E+01 0.  1.
         -5    1    3    3    0  502  0.33610859373E+02  0.17432707162E+02 -0.13329508022E+01  0.38116116075E+02  0.41800000000E+01 0.  1.
        -11    1    4    4    0    0  0.12416331818E+02 -0.22970632119E+02 -0.13527703721E+03  0.13777406154E+03  0.00000000000E+00 0.  1.
         11    1    4    4    0    0  0.57658399758E+02  0.22344282041E+02 -0.45233364461E+02  0.76614719624E+02  0.00000000000E+00 0. -1.
</event>
<event>
 8    1  0.7168478E-009  0.1042466E+03  0.7561462E-02  0.1271611E+00
         -1   -1    0    0    0  501 -0.00000000000E+00  0.00000000000E+00  0.44826006375E+03  0.44826006375E+03  0.00000000000E+00 0.  1.
          1   -1    0    0  501    0  0.00000000000E+00 -0.00000000000E+00 -0.34872255956E+02  0.34872255956E+02  0.00000000000E+00 0. -1.
         25    2    1    2    0    0 -0.32093939091E+02  0.16786398820E+02  0.33434556132E+03  0.35881262971E+03  0.12509094594E+03 0.  0.
         23    2    1    2    0    0  0.32093939091E+02 -0.16786398820E+02  0.79042246477E+02  0.12431969000E+03  0.88858902090E+02 0.  0.
          5    1    3    3  502    0 -0.71213745884E+02  0.27183166062E+02  0.13260958990E+03  0.15301339109E+03  0.41800000000E+01 0.  1.
         -5    1    3    3    0  502  0.39119806792E+02 -0.10396767242E+02  0.20173597142E+03  0.20579923862E+03  0.41800000000E+01 0.  1.
        -11    1    4    4    0    0 -0.28458921281E+02 -0.11438506808E+02  0.45553413442E+02  0.54916874589E+02  0.00000000000E+00 0.  1.
         11    1    4    4    0    0  0.60552860372E+02 -0.53478920123E+01  0.33488833035E+02  0.69402815406E+02  0.00000000000E+00 0. -1.
</event>
<event>
 8    1  0.7168478E-009  0.1169814E+03  0.7561462E-02  0.1248162E+00
         -1   -1    0    0    0  501 -0.00000000000E+00  0.00000000000E+00  0.12327648323E+03  0.12327648323E+03  0.00000000000E+00 0.  1.
          1   -1    0    0  501    0  0.00000000000E+00 -0.00000000000E+00 -0.14677232989E+03  0.14677232989E+03  0.00000000000E+00 0. -1.
         25    2    1    2    0    0 -0.56585393363E+02 -0.28192173043E+02 -0.65145342994E+02  0.15455741033E+03  0.12508945604E+03 0.  0.
         23    2    1    2    0    0  0.56585393363E+02  0.28192173043E+02  0.41649496338E+02  0.11549140279E+03  0.87217419195E+02 0.  0.
          5    1    3    3  502    0 -0.51613019259E+02  0.41408713732E+02 -0.49973472161E+02  0.83026535817E+02  0.41800000000E+01 0. -1.
         -5    1    3    3    0  502 -0.49723741039E+01 -0.69600886775E+02 -0.15171870833E+02  0.71530874514E+02  0.41800000000E+01 0. -1.
        -11    1    4    4    0    0 -0.15753502591E+02  0.19238779236E+02 -0.93122249761E+01  0.26552231627E+02  0.00000000000E+00 0. -1.
         11    1    4    4    0    0  0.72338895954E+02  0.89533938071E+01  0.50961721314E+02  0.88939171166E+02  0.00000000000E+00 0.  1.
</event>
<event>
 8    1  0.7168478E-009  0.1017993E+03  0.7561462E-02  0.1276557E+00
          2   -1    0    0  501    0  0.00000000000E+00  0.00000000000E+00  0.85026043733E+03  0.85026043733E+03  0.00000000000E+00 0. -1.
         -2   -1    0    0    0  501 -0.00000000000E+00 -0.00000000000E+00 -0.49633042925E+02  0.49633042925E+02  0.00000000000E+00 0.  1.
         25    2    1    2    0    0  0.51709502348E+02 -0.36675674955E+02  0.77304876687E+03  0.78566603664E+03  0.12509095650E+03 0.  0.
         23    2    1    2    0    0 -0.51709502348E+02  0.36675674955E+02  0.27578627529E+02  0.11422744361E+03  0.90930470203E+02 0.  0.
          5    1    3    3  502    0  0.26655759889E+02  0.46068493170E+02  0.27056365205E+03  0.27578070601E+03  0.41800000000E+01 0. -1.
         -5    1    3    3    0  502  0.25053742459E+02 -0.82744168125E+02  0.50248511483E+03  0.50988533063E+03  0.41800000000E+01 0. -1.
        -11    1    4    4    0    0 -0.41345165142E+02  0.26366599510E+02 -0.28198459064E+02  0.56566539084E+02  0.00000000000E+00 0.  1.
         11    1    4    4    0    0 -0.10364337207E+02  0.10309075445E+02  0.55777086593E+02  0.57660904529E+02  0.00000000000E+00 0. -1.
</event>
<event>
 8    1  0.7168478E-009  0.1141955E+03  0.7561462E-02  0.1252992E+00
         -2   -1    0    0    0  501 -0.00000000000E+00  0.00000000000E+00  0.55472128322E+03  0.55472128322E+03  0.00000000000E+00 0.  1.
          2   -1    0    0  501    0  0.00000000000E+00 -0.00000000000E+00 -0.36548202262E+02  0.36548202262E+02  0.00000000000E+00 0. -1.
         25    2    1    2    0    0 -0.58597947401E+02 -0.68685082309E+02  0.24481015489E+03  0.28936452686E+03  0.12509379478E+03 0.  0.
         23    2    1    2    0    0  0.58597947401E+02  0.68685082309E+02  0.27336292607E+03  0.30190495863E+03  0.90928294413E+02 0.  0.
          5    1    3    3  502    0 -0.58225935088E+02 -0.28740140063E+02  0.31472559551E+02  0.72278970471E+02  0.41800000000E+01 0. -1.
         -5    1    3    3    0  502 -0.37201231319E+00 -0.39944942246E+02  0.21333759534E+03  0.21708555638E+03  0.41800000000E+01 0. -1.
        -11    1    4    4    0    0 -0.21078883615E+02  0.23473179771E+02  0.11191194584E+03  0.11627378520E+03  0.00000000000E+00 0.  1.
         11    1    4    4    0    0  0.79676831017E+02  0.45211902538E+02  0.16145098023E+03  0.18563117343E+03  0.00000000000E+00 0. -1.
</event>
<event>
 8    1  0.7168478E-009  0.1552784E+03  0.7561462E-02  0.1194133E+00
          1   -1    0    0  501    0  0.00000000000E+00  0.00000000000E+00  0.82899749829E+02  0.82899749829E+02  0.00000000000E+00 0. -1.
         -1   -1    0    0    0  501 -0.00000000000E+00 -0.00000000000E+00 -0.39864096400E+03  0.39864096400E+03  0.00000000000E+00 0.  1.
         25    2    1    2    0    0 -0.12289229338E+03 -0.74953101153E+02 -0.19409489146E+03  0.27210418712E+03  0.12508948241E+03 0.  0.
         23    2    1    2    0    0  0.12289229338E+03  0.74953101153E+02 -0.12164632271E+03  0.20943652671E+03  0.91352874878E+02 0.  0.
          5    1    3    3  502    0  0.98671029903E+00 -0.10455404324E+02 -0.10670065972E+03  0.10729768060E+03  0.41800000000E+01 0. -1.
         -5    1    3    3    0  502 -0.12387900368E+03 -0.64497696829E+02 -0.87394231746E+02  0.16480650652E+03  0.41800000000E+01 0. -1.
        -11    1    4    4    0    0  0.82923148239E+02  0.10359642857E+02 -0.26459696718E+02  0.87656638450E+02  0.00000000000E+00 0.  1.
         11    1    4    4    0    0  0.39969145143E+02  0.64593458296E+02 -0.95186625991E+02  0.12177988826E+03  0.00000000000E+00 0. -1.
</event>
<event>
 8    1  0.7168478E-009  0.2124599E+03  0.7561462E-02  0.1139633E+00
          3   -1    0    0  501    0  0.00000000000E+00  0.00000000000E+00  0.10060534326E+03  0.10060534326E+03  0.00000000000E+00 0. -1.
         -3   -1    0    0    0  501 -0.00000000000E+00 -0.00000000000E+00 -0.49566233836E+03  0.49566233836E+03  0.00000000000E+00 0.  1.
         25    2    1    2    0    0 -0.13513095195E+03 -0.14030758823E+03 -0.19334336492E+03  0.30162423889E+03  0.12509568832E+03 0.  0.
         23    2    1    2    0    0  0.13513095195E+03  0.14030758823E+03 -0.20171363018E+03  0.29464344274E+03  0.90442115506E+02 0.  0.
          5    1    3    3  502    0 -0.14024083352E+03 -0.15709091470E+03 -0.18918969462E+03  0.28311704261E+03  0.41800000000E+01 0.  1.
         -5    1    3    3    0  502  0.51098815699E+01  0.16783326469E+02 -0.41536703005E+01  0.18507196275E+02  0.41800000000E+01 0.  1.
        -11    1    4    4    0    0  0.94957694717E+02  0.11340739002E+03 -0.19659709694E+03  0.24602564586E+03  0.00000000000E+00 0. -1.
         11    1    4    4    0    0  0.40173257236E+02  0.26900198206E+02 -0.51165332419E+01  0.48617796874E+02  0.00000000000E+00 0.  1.
</event>
<event>
 8    1  0.7168478E-009  0.1032366E+03  0.7561462E-02  0.1273633E+00
          2   -1    0    0  501    0  0.00000000000E+00  0.00000000000E+00  0.88608445679E+03  0.88608445679E+03  0.00000000000E+00 0. -1.
         -2   -1    0    0    0  501 -0.00000000000E+00 -0.00000000000E+00 -0.15273060869E+02  0.15273060869E+02  0.00000000000E+00 0.  1.
         25    2    1    2    0    0  0.20456767473E+02  0.28266901650E+02  0.57519288472E+03  0.58967106107E+03  0.12509040156E+03 0.  0.
         23    2    1    2    0    0 -0.20456767473E+02 -0.28266901650E+02  0.29561851120E+03  0.31168645659E+03  0.92415615534E+02 0.  0.
          5    1    3    3  502    0  0.46909716088E+02  0.59907355806E+02  0.23705924880E+03  0.24900596897E+03  0.41800000000E+01 0. -1.
         -5    1    3    3    0  502 -0.26452948615E+02 -0.31640454156E+02  0.33813363592E+03  0.34066509209E+03  0.41800000000E+01 0. -1.
        -11    1    4    4    0    0  0.31830211397E+02 -0.12603644363E+02  0.53681976219E+02  0.63669213750E+02  0.00000000000E+00 0.  1.
         11    1    4    4    0    0 -0.52286978871E+02 -0.15663257287E+02  0.24193653498E+03  0.24801724284E+03  0.00000000000E+00 0. -1.
</event>
<event>
 8    1  0.7168478E-009  0.6912984E+02  0.7561462E-02  0.1363077E+00
          1   -1    0    0  501    0  0.00000000000E+00  0.00000000000E+00  0.14080200245E+03  0.14080200245E+03  0.00000000000E+00 0. -1.
         -1   -1    0    0    0  501 -0.00000000000E+00 -0.00000000000E+00 -0.95867691929E+02  0.95867691929E+02  0.00000000000E+00 0.  1.
         25    2    1    2    0    0  0.64891752105E+01 -0.25123514150E+02  0.61304181723E+02  0.14169469966E+03  0.12508351154E+03 0.  0.
         23    2    1    2    0    0 -0.64891752105E+01  0.25123514150E+02 -0.16369871197E+02  0.94974994719E+02  0.89883127342E+02 0.  0.
          5    1    3    3  502    0 -0.15454382298E+01 -0.57408440123E+02 -0.14003352965E+02  0.59259460603E+02  0.41800000000E+01 0.  1.
         -5    1    3    3    0  502  0.80346134403E+01  0.32284925974E+02  0.75307534688E+02  0.82435239061E+02  0.41800000000E+01 0.  1.
        -11    1    4    4    0    0 -0.99243175738E+01  0.35162837346E+02  0.30081790533E+02  0.47326856342E+02  0.00000000000E+00 0. -1.
         11    1    4    4    0    0  0.34351423633E+01 -0.10039323197E+02 -0.46451661730E+02  0.47648138377E+02  0.00000000000E+00 0.  1.
</event>
<event>
 8    1  0.7168478E-009  0.1695216E+03  0.7561462E-02  0.1178348E+00
          2   -1    0    0  501    0  0.00000000000E+00  0.00000000000E+00  0.80038148493E+03  0.80038148493E+03  0.00000000000E+00 0.  1.
         -2   -1    0    0    0  501 -0.00000000000E+00 -0.00000000000E+00 -0.42149002932E+02  0.42149002932E+02  0.00000000000E+00 0. -1.
         25    2    1    2    0    0  0.14154671049E+03  0.42916854230E+02  0.40296669418E+03  0.44710928891E+03  0.12508889633E+03 0.  0.
         23    2    1    2    0    0 -0.14154671049E+03 -0.42916854230E+02  0.35526578782E+03  0.39542119895E+03  0.90922037798E+02 0.  0.
          5    1    3    3  502    0  0.50683978888E+02  0.75659106551E+02  0.14129815584E+03  0.16815411789E+03  0.41800000000E+01 0.  1.
         -5    1    3    3    0  502  0.90862731605E+02 -0.32742252321E+02  0.26166853834E+03  0.27895517102E+03  0.41800000000E+01 0.  1.
        -11    1    4    4    0    0 -0.10802577933E+03 -0.46273863150E+02  0.33741592524E+03  0.35729588021E+03  0.00000000000E+00 0.  1.
         11    1    4    4    0    0 -0.33520931163E+02  0.33570089197E+01  0.17849862578E+02  0.38125318740E+02  0.00000000000E+00 0. -1.
</event>
<event>
 8    1  0.7168478E-009  0.9640224E+02  0.7561462E-02  0.1288049E+00
         -1   -1    0    0    0  501 -0.00000000000E+00  0.00000000000E+00  0.12463203653E+03  0.12463203653E+03  0.00000000000E+00 0.  1.
          1   -1    0    0  501    0  0.00000000000E+00 -0.00000000000E+00 -0.12029653797E+03  0.12029653797E+03  0.00000000000E+00 0. -1.
         25    2    1    2    0    0 -0.51393460540E+02  0.14166208461E+02  0.20043326589E+02  0.13744579378E+03  0.12509053537E+03 0.  0.
         23    2    1    2    0    0  0.51393460540E+02 -0.14166208461E+02 -0.15707828022E+02  0.10748278072E+03  0.91999146961E+02 0.  0.
          5    1    3    3  502    0 -0.69433500499E+02  0.10442830171E+02  0.60512045822E+02  0.92786010707E+02  0.41800000000E+01 0. -1.
         -5    1    3    3    0  502  0.18040039959E+02  0.37233782898E+01 -0.40468719232E+02  0.44659783070E+02  0.41800000000E+01 0. -1.
        -11    1    4    4    0    0  0.29341693745E+02  0.37375060023E+02  0.48684777087E+01  0.47765386827E+02  0.00000000000E+00 0.  1.
         11    1    4    4    0    0  0.22051766794E+02 -0.51541268484E+02 -0.20576305731E+02  0.59717393892E+02  0.00000000000E+00 0. -1.
</event>
<event>
 8    1  0.7168478E-009  0.7178918E+02  0.7561462E-02  0.1354112E+00
         -1   -1    0    0    0  501 -0.00000000000E+00  0.00000000000E+00  0.64735040797E+03  0.64735040797E+03  0.00000000000E+00 0.  1.
          1   -1    0    0  501    0  0.00000000000E+00 -0.00000000000E+00 -0.19523370896E+02  0.19523370896E+02  0.00000000000E+00 0. -1.
         25    2    1    2    0    0 -0.25828376314E+01  0.48383575848E+01  0.26331789656E+03  0.29157550415E+03  0.12509947730E+03 0.  0.
         23    2    1    2    0    0  0.25828376314E+01 -0.48383575848E+01  0.36450914052E+03  0.37529827472E+03  0.89172869909E+02 0.  0.
          5    1    3    3  502    0  0.18223426173E+02 -0.16097213554E+02  0.26046262752E+03  0.26162848905E+03  0.41800000000E+01 0. -1.
         -5    1    3    3    0  502 -0.20806263804E+02  0.20935571139E+02  0.28552690324E+01  0.29947015104E+02  0.41800000000E+01 0. -1.
        -11    1    4    4    0    0  0.44876397301E+02 -0.11387289564E+02  0.17549531945E+03  0.18149977561E+03  0.00000000000E+00 0. -1.
         11    1    4    4    0    0 -0.42293559669E+02  0.65489319791E+01  0.18901382107E+03  0.19379849910E+03  0.00000000000E+00 0.  1.
</event>
<event>
 8    1  0.7168478E-009  0.1028647E+03  0.7561462E-02  0.1274385E+00
         -2   -1    0    0    0  501 -0.00000000000E+00  0.00000000000E+00  0.61290142767E+02  0.61290142767E+02  0.00000000000E+00 0.  1.
          2   -1    0    0  501    0  0.00000000000E+00 -0.00000000000E+00 -0.27062506992E+03  0.27062506992E+03  0.00000000000E+00 0. -1.
         25    2    1    2    0    0 -0.40680768476E+02  0.52019120489E+02 -0.14045815157E+03  0.19934140977E+03  0.12509033331E+03 0.  0.
         23    2    1    2    0    0  0.40680768476E+02 -0.52019120489E+02 -0.68876775581E+02  0.13257380291E+03  0.92037433599E+02 0.  0.
          5    1    3    3  502    0 -0.78756643783E+02  0.83362674778E+01 -0.57056782380E+02  0.97698777429E+02  0.41800000000E+01 0.  1.
         -5    1    3    3    0  502  0.38075875307E+02  0.43682853012E+02 -0.83401369189E+02  0.10164263235E+03  0.41800000000E+01 0.  1.
        -11    1    4    4    0    0  0.13602604697E+02 -0.58654223121E+01  0.22348759267E+02  0.26812330637E+02  0.00000000000E+00 0.  1.
         11    1    4    4    0    0  0.27078163779E+02 -0.46153698177E+02 -0.91225534848E+02  0.10576147227E+03  0.00000000000E+00 0. -1.
</event>
<event>
 8    1  0.7168478E-009  0.2451076E+03  0.7561462E-02  0.1116436E+00
         -2   -1    0    0    0  501 -0.00000000000E+00  0.00000000000E+00  0.17189168286E+03  0.17189168286E+03  0.00000000000E+00 0.  1.
          2   -1    0    0  501    0  0.00000000000E+00 -0.00000000000E+00 -0.37035026081E+03  0.37035026081E+03  0.00000000000E+00 0. -1.
         25    2    1    2    0    0  0.49168373890E+02  0.22070519390E+03 -0.12999881724E+03  0.28926703896E+03  0.12508963083E+03 0.  0.
         23    2    1    2    0    0 -0.49168373890E+02 -0.22070519390E+03 -0.68459760708E+02  0.25297490471E+03  0.90450273483E+02 0.  0.
          5    1    3    3  502    0  0.48681275037E+01  0.19741772476E+03 -0.66732721878E+02  0.20849025225E+03  0.41800000000E+01 0.  1.
         -5    1    3    3    0  502  0.44300246386E+02  0.23287469137E+02 -0.63266095362E+02  0.80776786709E+02  0.41800000000E+01 0.  1.
        -11    1    4    4    0    0 -0.72918158844E+02 -0.13380667120E+03 -0.54369531805E+02  0.16179409488E+03  0.00000000000E+00 0.  1.
         11    1    4    4    0    0  0.23749784954E+02 -0.86898522693E+02 -0.14090228903E+02  0.91180809835E+02  0.00000000000E+00 0. -1.
</event>
<event>
 8    1  0.7168478E-009  0.1208255E+03  0.7561462E-02  0.1241741E+00
         -2   -1    0    0    0  501 -0.00000000000E+00  0.00000000000E+00  0.28326542775E+03  0.28326542775E+03  0.00000000000E+00 0.  1.
          2   -1    0    0  501    0  0.00000000000E+00 -0.00000000000E+00 -0.66961832190E+02  0.66961832190E+02  0.00000000000E+00 0. -1.
         25    2    1    2    0    0  0.16037625491E+01 -0.77344475271E+02  0.82689228104E+02  0.16872631681E+03  0.12508525745E+03 0.  0.
         23    2    1    2    0    0 -0.16037625491E+01  0.77344475271E+02  0.13361436746E+03  0.18150094313E+03  0.95420402721E+02 0.  0.
          5    1    3    3  502    0  0.48738789672E+02 -0.48273867027E+02 -0.46961562160E+00  0.68727933151E+02  0.41800000000E+01 0.  1.
         -5    1    3    3    0  502 -0.47135027123E+02 -0.29070608245E+02  0.83158843726E+02  0.99998383664E+02  0.41800000000E+01 0.  1.
        -11    1    4    4    0    0  0.92780273539E+01 -0.18622891008E+02  0.48468391210E+02  0.52745415038E+02  0.00000000000E+00 0. -1.
         11    1    4    4    0    0 -0.10881789903E+02  0.95967366280E+02  0.85145976248E+02  0.12875552809E+03  0.00000000000E+00 0.  1.
</event>
<event>
 8    1  0.7168478E-009  0.1217843E+03  0.7561462E-02  0.1240182E+00
         -1   -1    0    0    0  501 -0.00000000000E+00  0.00000000000E+00  0.40650951076E+03  0.40650951076E+03  0.00000000000E+00 0.  1.
          1   -1    0    0  501    0  0.00000000000E+00 -0.00000000000E+00 -0.49756344070E+02  0.49756344070E+02  0.00000000000E+00 0. -1.
         25    2    1    2    0    0  0.74657037952E+02  0.49093430229E+02  0.22036272546E+03  0.26868264542E+03  0.12508714950E+03 0.  0.
         23    2    1    2    0    0 -0.74657037952E+02 -0.49093430229E+02  0.13639044123E+03  0.18758320941E+03  0.92743030931E+02 0.  0.
          5    1    3    3  502    0  0.39837075952E+02  0.81262559852E+02  0.19439299030E+03  0.21446842036E+03  0.41800000000E+01 0. -1.
         -5    1    3    3    0  502  0.34819962000E+02 -0.32169129623E+02  0.25969735157E+02  0.54214225057E+02  0.41800000000E+01 0. -1.
        -11    1    4    4    0    0 -0.43175777558E+02 -0.58331406678E+02  0.34145990309E+02  0.80203799330E+02  0.00000000000E+00 0. -1.
         11    1    4    4    0    0 -0.31481260394E+02  0.92379764492E+01  0.10224445092E+03  0.10737941008E+03  0.00000000000E+00 0.  1.
</event>
<event>
 8    1  0.7168478E-009  0.1234092E+03  0.7561462E-02  0.1237577E+00
         -1   -1    0    0    0  501 -0.00000000000E+00  0.00000000000E+00  0.16488273797E+02  0.16488273797E+02  0.00000000000E+00 0.  1.
          1   -1    0    0  501    0  0.00000000000E+00 -0.00000000000E+00 -0.14443366420E+04  0.14443366420E+04  0.00000000000E+00 0. -1.
         25    2    1    2    0    0  0.37851969313E+02  0.84358542530E+02 -0.10464283669E+04  0.10579264109E+04  0.12508728334E+03 0.  0.
         23    2    1    2    0    0 -0.37851969313E+02 -0.84358542530E+02 -0.38142000125E+03  0.40289850489E+03  0.91087060610E+02 0.  0.
          5    1    3    3  502    0  0.56006222980E+02  0.14532801581E+02 -0.19525613579E+03  0.20369175314E+03  0.41800000000E+01 0. -1.
         -5    1    3    3    0  502 -0.18154253667E+02  0.69825740949E+02 -0.85117223112E+03  0.85423465772E+03  0.41800000000E+01 0. -1.
        -11    1    4    4    0    0  0.40723577085E+01 -0.72985309066E+02 -0.14350234811E+03  0.16104770520E+03  0.00000000000E+00 0.  1.
         11    1    4    4    0    0 -0.41924327021E+02 -0.11373233463E+02 -0.23791765314E+03  0.24185079969E+03  0.00000000000E+00 0. -1.
</event>
<event>
 8    1  0.7168478E-009  0.1067054E+03  0.7561462E-02  0.1266796E+00
          2   -1    0    0  501    0  0.00000000000E+00  0.00000000000E+00  0.75958119218E+02  0.75958119218E+02  0.00000000000E+00 0. -1.
         -2   -1    0    0    0  501 -0.00000000000E+00 -0.00000000000E+00 -0.21422234415E+03  0.21422234415E+03  0.00000000000E+00 0.  1.
         25    2    1    2    0    0 -0.60495978143E+02 -0.21855170006E+02 -0.63266586054E+02  0.15423151708E+03  0.12508912072E+03 0.  0.
         23    2    1    2    0    0  0.60495978143E+02  0.21855170006E+02 -0.74997638881E+02  0.13594894629E+03  0.93381252571E+02 0.  0.
          5    1    3    3  502    0 -0.89430509201E+02  0.13311623653E+02 -0.23218162697E+02  0.93442874416E+02  0.41800000000E+01 0.  1.
         -5    1    3    3    0  502  0.28934531058E+02 -0.35166793659E+02 -0.40048423357E+02  0.60788642666E+02  0.41800000000E+01 0.  1.
        -11    1    4    4    0    0  0.41657159789E+02  0.34823862989E+02 -0.92426028930E+02  0.10719417530E+03  0.00000000000E+00 0.  1.
         11    1    4    4    0    0  0.18838818354E+02 -0.12968692983E+02  0.17428390049E+02  0.28754770985E+02  0.00000000000E+00 0. -1.
</event>
<event>
 8    1  0.7168478E-009  0.1621894E+03  0.7561462E-02  0.1186247E+00
          2   -1    0    0  501    0  0.00000000000E+00  0.00000000000E+00  0.26529888078E+03  0.26529888078E+03  0.00000000000E+00 0. -1.
         -2   -1    0    0    0  501 -0.00000000000E+00 -0.00000000000E+00 -0.11231182647E+03  0.11231182647E+03  0.00000000000E+00 0.  1.
         25    2    1    2    0    0  0.34377404323E+02  0.12888737333E+03  0.83513061854E+02  0.20103745196E+03  0.12509142520E+03 0.  0.
         23    2    1    2    0    0 -0.34377404323E+02 -0.12888737333E+03  0.69473992450E+02  0.17657325529E+03  0.92507934381E+02 0.  0.
          5    1    3    3  502    0  0.72370677428E+02  0.46229000355E+02  0.15472290089E+02  0.87358454575E+02  0.41800000000E+01 0. -1.
         -5    1    3    3    0  502 -0.37993273105E+02  0.82658372980E+02  0.68040771765E+02  0.11367899739E+03  0.41800000000E+01 0. -1.
        -11    1    4    4    0    0  0.18869687150E+01 -0.10242115371E+03  0.80570138469E+02  0.13032728260E+03  0.00000000000E+00 0.  1.
         11    1    4    4    0    0 -0.36264373038E+02 -0.26466219626E+02 -0.11096146019E+02  0.46245972686E+02  0.00000000000E+00 0. -1.
</event>
<event>
 8    1  0.7168478E-009  0.5526186E+02  0.7561462E-02  0.1418865E+00
         -1   -1    0    0    0  501 -0.00000000000E+00  0.00000000000E+00  0.14431517663E+03  0.14431517663E+03  0.00000000000E+00 0.  1.
          1   -1    0    0  501    0  0.00000000000E+00 -0.00000000000E+00 -0.12745914182E+03  0.12745914182E+03  0.00000000000E+00 0. -1.
         25    2    1    2    0    0 -0.20732413670E+02 -0.90935056406E+01  0.87320738752E+02  0.15422940276E+03  0.12509705208E+03 0.  0.
         23    2    1    2    0    0  0.20732413670E+02  0.90935056406E+01 -0.70464703948E+02  0.11754491569E+03  0.91318168401E+02 0.  0.
          5    1    3    3  502    0 -0.79440998279E+01  0.77339893720E+01 -0.31404355742E+02  0.33565298647E+02  0.41800000000E+01 0. -1.
         -5    1    3    3    0  502 -0.12788313842E+02 -0.16827495013E+02  0.11872509449E+03  0.12066410412E+03  0.41800000000E+01 0. -1.
        -11    1    4    4    0    0  0.29455600159E+02 -0.27023969211E+02 -0.24576133245E+01  0.40049558748E+02  0.00000000000E+00 0.  1.
         11    1    4    4    0    0 -0.87231864884E+01  0.36117474852E+02 -0.68007090624E+02  0.77495356940E+02  0.00000000000E+00 0. -1.
</event>
<event>
 8    1  0.7168478E-009  0.1337724E+03  0.7561462E-02  0.1221963E+00
         -2   -1    0    0    0  501 -0.00000000000E+00  0.00000000000E+00  0.11442859029E+03  0.11442859029E+03  0.00000000000E+00 0.  1.
          2   -1    0    0  501    0  0.00000000000E+00 -0.00000000000E+00 -0.21996812981E+03  0.21996812981E+03  0.00000000000E+00 0. -1.
         25    2    1    2    0    0 -0.67836762891E+02 -0.90700303127E+02 -0.32636414547E+02  0.17187357117E+03  0.12508803910E+03 0.  0.
         23    2    1    2    0    0  0.67836762891E+02  0.90700303127E+02 -0.72903124972E+02  0.16252314892E+03  0.90942492367E+02 0.  0.
          5    1    3    3  502    0 -0.15338529235E+02 -0.94286458938E+02 -0.59526745687E+02  0.11263264478E+03  0.41800000000E+01 0.  1.
         -5    1    3    3    0  502 -0.52498233656E+02  0.35861558108E+01  0.26890331140E+02  0.59240926388E+02  0.41800000000E+01 0.  1.
        -11    1    4    4    0    0  0.56591235742E+02  0.91800298542E+02 -0.21591374606E+02  0.10998204505E+03  0.00000000000E+00 0.  1.
         11    1    4    4    0    0  0.11245527149E+02 -0.10999954151E+01 -0.51311750366E+02  0.52541103875E+02  0.00000000000E+00 0. -1.
</event>
<event>
 8    1  0.7168478E-009  0.7364971E+02  0.7561462E-02  0.1348104E+00
         -3   -1    0    0    0  501 -0.00000000000E+00  0.00000000000E+00  0.31348226044E+02  0.31348226044E+02  0.00000000000E+00 0.  1.
          3   -1    0    0  501    0  0.00000000000E+00 -0.00000000000E+00 -0.51990778196E+03  0.51990778196E+03  0.00000000000E+00 0. -1.
         25    2    1    2    0    0 -0.37587766176E+02 -0.29083804415E+02 -0.38088927731E+03  0.40371160234E+03  0.12509080080E+03 0.  0.
         23    2    1    2    0    0  0.37587766176E+02  0.29083804415E+02 -0.10767027861E+03  0.14754440567E+03  0.88981767255E+02 0.  0.
          5    1    3    3  502    0 -0.36223231318E+02 -0.24870273461E+02 -0.39014407816E+03  0.39263281462E+03  0.41800000000E+01 0.  1.
         -5    1    3    3    0  502 -0.13645348579E+01 -0.42135309537E+01  0.92548008530E+01  0.11078787718E+02  0.41800000000E+01 0.  1.
        -11    1    4    4    0    0  0.16812608417E+02  0.58607434029E+02 -0.47152169944E+02  0.77076729664E+02  0.00000000000E+00 0.  1.
         11    1    4    4    0    0  0.20775157759E+02 -0.29523629614E+02 -0.60518108665E+02  0.70467676008E+02  0.00000000000E+00 0. -1.
</event>
<event>
 8    1  0.7168478E-009  0.7426167E+02  0.7561462E-02  0.1346173E+00
          2   -1    0    0  501    0  0.00000000000E+00  0.00000000000E+00  0.15853755601E+03  0.15853755601E+03  0.00000000000E+00 0. -1.
         -2   -1    0    0    0  501 -0.00000000000E+00 -0.00000000000E+00 -0.98607530986E+02  0.98607530986E+02  0.00000000000E+00 0.  1.
         25    2    1    2    0    0  0.38265835861E+02 -0.24397944622E+02 -0.98828173181E+01  0.13343720982E+03  0.12509310529E+03 0.  0.
         23    2    1    2    0    0 -0.38265835861E+02  0.24397944622E+02  0.69812842343E+02  0.12370787717E+03  0.91489190740E+02 0.  0.
          5    1    3    3  502    0  0.34259152751E+02 -0.16943212552E+02  0.55422715108E+02  0.67453033651E+02  0.41800000000E+01 0. -1.
         -5    1    3    3    0  502  0.40066831101E+01 -0.74547320702E+01 -0.65305532426E+02  0.65984176173E+02  0.41800000000E+01 0. -1.
        -11    1    4    4    0    0 -0.66427635128E+02  0.53606605391E+01  0.55878678371E+02  0.86970075811E+02  0.00000000000E+00 0.  1.
         11    1    4    4    0    0  0.28161799267E+02  0.19037284083E+02  0.13934163971E+02  0.36737801360E+02  0.00000000000E+00 0. -1.
</event>
<event>
 8    1  0.7168478E-009  0.1079316E+03  0.7561462E-02  0.1264449E+00
         -1   -1    0    0    0  501 -0.00000000000E+00  0.00000000000E+00  0.22961515473E+03  0.22961515473E+03  0.00000000000E+00 0.  1.
          1   -1    0    0  501    0  0.00000000000E+00 -0.00000000000E+00 -0.82757975819E+02  0.82757975819E+02  0.00000000000E+00 0. -1.
         25    2    1    2    0    0 -0.76817040348E+01  0.29827728342E+01 -0.15486233696E+02  0.12631350826E+03  0.12508946168E+03 0.  0.
         23    2    1    2    0    0  0.76817040348E+01 -0.29827728342E+01  0.16234341260E+03  0.18605962229E+03  0.90525653383E+02 0.  0.
          5    1    3    3  502    0  0.21217861655E+01 -0.60558956971E+02 -0.11000921875E+02  0.61728291148E+02  0.41800000000E+01 0.  1.
         -5    1    3    3    0  502 -0.98034902003E+01  0.63541729805E+02 -0.44853118213E+01  0.64585217108E+02  0.41800000000E+01 0.  1.
        -11    1    4    4    0    0  0.47060787131E+01  0.43681694241E+02  0.84914965348E+02  0.95607473184E+02  0.00000000000E+00 0.  1.
         11    1    4    4    0    0  0.29756253217E+01 -0.46664467075E+02  0.77428447254E+02  0.90452149105E+02  0.00000000000E+00 0. -1.
</event>
<event>
 8    1  0.7168478E-009  0.1014471E+03  0.7561462E-02  0.1277282E+00
          2   -1    0    0  501    0  0.00000000000E+00  0.00000000000E+00  0.15653852511E+03  0.15653852511E+03  0.00000000000E+00 0. -1.
         -2   -1    0    0    0  501 -0.00000000000E+00 -0.00000000000E+00 -0.12865054674E+03  0.12865054674E+03  0.00000000000E+00 0.  1.
         25    2    1    2    0    0  0.68102930779E+02  0.39151647539E+01  0.75070610551E+02  0.16104741856E+03  0.12508931513E+03 0.  0.
         23    2    1    2    0    0 -0.68102930779E+02 -0.39151647539E+01 -0.47182632180E+02  0.12414165330E+03  0.92366723492E+02 0.  0.
          5    1    3    3  502    0 -0.10494407349E+02 -0.27651666247E+02  0.69984580403E+02  0.76092451177E+02  0.41800000000E+01 0. -1.
         -5    1    3    3    0  502  0.78597338128E+02  0.31566831000E+02  0.50860301477E+01  0.84954967382E+02  0.41800000000E+01 0. -1.
        -11    1    4    4    0    0  0.13065603208E+00 -0.18455454490E+02  0.20051107494E+02  0.27251931732E+02  0.00000000000E+00 0. -1.
         11    1    4    4    0    0 -0.68233586811E+02  0.14540289736E+02 -0.67233739674E+02  0.96889721567E+02  0.00000000000E+00 0.  1.
</event>
<event>
 8    1  0.7168478E-009  0.1502687E+03  0.7561462E-02  0.1200143E+00
         -2   -1    0    0    0  501 -0.00000000000E+00  0.00000000000E+00  0.55550153611E+02  0.55550153611E+02  0.00000000000E+00 0.  1.
          2   -1    0    0  501    0  0.00000000000E+00 -0.00000000000E+00 -0.53624482066E+03  0.53624482066E+03  0.00000000000E+00 0. -1.
         25    2    1    2    0    0  0.84476854919E+02  0.83329902429E+02 -0.36082002706E+03  0.39989976246E+03  0.12509403039E+03 0.  0.
         23    2    1    2    0    0 -0.84476854919E+02 -0.83329902429E+02 -0.11987463999E+03  0.19189521181E+03  0.91507548020E+02 0.  0.
          5    1    3    3  502    0  0.42433885471E+02  0.99173092682E+02 -0.15307577585E+03  0.18731151193E+03  0.41800000000E+01 0.  1.
         -5    1    3    3    0  502  0.42042969448E+02 -0.15843190254E+02 -0.20774425121E+03  0.21258825054E+03  0.41800000000E+01 0.  1.
        -11    1    4    4    0    0 -0.69051994306E+02 -0.10204389881E+03 -0.11168838748E+03  0.16629922158E+03  0.00000000000E+00 0. -1.
         11    1    4    4    0    0 -0.15424860613E+02  0.18713996377E+02 -0.81862525162E+01  0.25595990225E+02  0.00000000000E+00 0.  1.
</event>
<event>
 8    1  0.7168478E-009  0.2411795E+03  0.7561462E-02  0.1119010E+00
         -2   -1    0    0    0  501 -0.00000000000E+00  0.00000000000E+00  0.31637032974E+02  0.31637032974E+02  0.00000000000E+00 0.  1.
          2   -1    0    0  501    0  0.00000000000E+00 -0.00000000000E+00 -0.24954806046E+04  0.24954806046E+04  0.00000000000E+00 0. -1.
         25    2    1    2    0    0 -0.16861387175E+03 -0.16776756684E+03 -0.17118783709E+04  0.17328449330E+04  0.12508961160E+03 0.  0.
         23    2    1    2    0    0  0.16861387175E+03  0.16776756684E+03 -0.75196520076E+03  0.79427270458E+03  0.94025910588E+02 0.  0.
          5    1    3    3  502    0 -0.57077109504E+02 -0.94066409606E+02 -0.42489572328E+03  0.43893067095E+03  0.41800000000E+01 0.  1.
         -5    1    3    3    0  502 -0.11153676224E+03 -0.73701157230E+02 -0.12869826476E+04  0.12939142620E+04  0.41800000000E+01 0.  1.
        -11    1    4    4    0    0  0.13037500585E+03  0.11892466273E+03 -0.66114324910E+03  0.68428876462E+03  0.00000000000E+00 0. -1.
         11    1    4    4    0    0  0.38238865892E+02  0.48842904101E+02 -0.90821951666E+02  0.10998393997E+03  0.00000000000E+00 0.  1.
</event>
<event>
 8    1  0.7168478E-009  0.1085082E+03  0.7561462E-02  0.1263358E+00
          2   -1    0    0  501    0  0.00000000000E+00  0.00000000000E+00  0.21482373667E+04  0.21482373667E+04  0.00000000000E+00 0. -1.
         -2   -1    0    0    0  501 -0.00000000000E+00 -0.00000000000E+00 -0.73929504037E+01  0.73929504037E+01  0.00000000000E+00 0.  1.
         25    2    1    2    0    0  0.26859298958E+02  0.22643896985E+02  0.16518328643E+04  0.16569346304E+04  0.12508553108E+03 0.  0.
         23    2    1    2    0    0 -0.26859298958E+02 -0.22643896985E+02  0.48901155201E+03  0.49869568664E+03  0.91273883787E+02 0.  0.
          5    1    3    3  502    0 -0.70687546120E+00 -0.45768655657E+02  0.97481135040E+03  0.97589441580E+03  0.41800000000E+01 0.  1.
         -5    1    3    3    0  502  0.27566174419E+02  0.68412552642E+02  0.67702151386E+03  0.68104021464E+03  0.41800000000E+01 0.  1.
        -11    1    4    4    0    0 -0.59615490209E+02 -0.46342995440E+01  0.27278351117E+03  0.27926032187E+03  0.00000000000E+00 0.  1.
         11    1    4    4    0    0  0.32756191251E+02 -0.18009597441E+02  0.21622804084E+03  0.21943536477E+03  0.00000000000E+00 0. -1.
</event>
<event>
 8    1  0.7168478E-009  0.1104824E+03  0.7561462E-02  0.1259679E+00
          4   -1    0    0  501    0  0.00000000000E+00  0.00000000000E+00  0.40838837333E+03  0.40838837333E+03  0.00000000000E+00 0. -1.
         -4   -1    0    0    0  501 -0.00000000000E+00 -0.00000000000E+00 -0.36788974473E+02  0.36788974473E+02  0.00000000000E+00 0.  1.
         25    2    1    2    0    0 -0.22944375365E+02 -0.48386378665E+02  0.17190534964E+03  0.21924244522E+03  0.12509242404E+03 0.  0.
         23    2    1    2    0    0  0.22944375365E+02  0.48386378665E+02  0.19969404922E+03  0.22593490258E+03  0.91110816635E+02 0.  0.
          5    1    3    3  502    0  0.16092039095E+02  0.29120129614E+02  0.10309676347E+03  0.10841287151E+03  0.41800000000E+01 0. -1.
         -5    1    3    3    0  502 -0.39036414460E+02 -0.77506508279E+02  0.68808586163E+02  0.11082957371E+03  0.41800000000E+01 0. -1.
        -11    1    4    4    0    0 -0.17318964346E+02 -0.16672545674E+02  0.22493170308E+02  0.32922074901E+02  0.00000000000E+00 0. -1.
         11    1    4    4    0    0  0.40263339711E+02  0.65058924339E+02  0.17720087891E+03  0.19301282768E+03  0.00000000000E+00 0.  1.
</event>
<event>
 8    1  0.7168478E-009  0.1153332E+03  0.7561462E-02  0.1251001E+00
         -1   -1    0    0    0  501 -0.00000000000E+00  0.00000000000E+00  0.11942358900E+03  0.11942358900E+03  0.00000000000E+00 0.  1.
          1   -1    0    0  501    0  0.00000000000E+00 -0.00000000000E+00 -0.18995237144E+03  0.18995237144E+03  0.00000000000E+00 0. -1.
         25    2    1    2    0    0  0.32776782375E+02  0.52958799606E+02 -0.12360384515E+03  0.18656401707E+03  0.12509704237E+03 0.  0.
         23    2    1    2    0    0 -0.32776782375E+02 -0.52958799606E+02  0.53075062705E+02  0.12281194337E+03  0.91579797086E+02 0.  0.
          5    1    3    3  502    0  0.41932498229E+02  0.88801912063E+02 -0.67526526665E+02  0.11925358777E+03  0.41800000000E+01 0. -1.
         -5    1    3    3    0  502 -0.91557158536E+01 -0.35843112456E+02 -0.56077318487E+02  0.67310429296E+02  0.41800000000E+01 0. -1.
        -11    1    4    4    0    0 -0.16472481660E+01  0.17781070101E+02  0.40826544780E+02  0.44561043964E+02  0.00000000000E+00 0.  1.
         11    1    4    4    0    0 -0.31129534209E+02 -0.70739869708E+02  0.12248517925E+02  0.78250899405E+02  0.00000000000E+00 0. -1.
</event>
<event>
 8    1  0.7168478E-009  0.1335358E+03  0.7561462E-02  0.1222302E+00
         -1   -1    0    0    0  501 -0.00000000000E+00  0.00000000000E+00  0.40205123389E+03  0.40205123389E+03  0.00000000000E+00 0.  1.
          1   -1    0    0  501    0  0.00000000000E+00 -0.00000000000E+00 -0.61346061218E+02  0.61346061218E+02  0.00000000000E+00 0. -1.
         25    2    1    2    0    0  0.89696405146E+02 -0.65071831451E+02  0.22614702978E+03  0.28120145652E+03  0.12510792033E+03 0.  0.
         23    2    1    2    0    0 -0.89696405146E+02  0.65071831451E+02  0.11455814289E+03  0.18219583858E+03  0.88272119887E+02 0.  0.
          5    1    3    3  502    0 -0.17736605442E+02 -0.18945749281E+02  0.12126009996E+03  0.12407664096E+03  0.41800000000E+01 0. -1.
         -5    1    3    3    0  502  0.10743301059E+03 -0.46126082170E+02  0.10488692982E+03  0.15712481557E+03  0.41800000000E+01 0. -1.
        -11    1    4    4    0    0  0.48388419122E+01  0.17122741627E+02  0.60786148241E+02  0.63336865172E+02  0.00000000000E+00 0.  1.
         11    1    4    4    0    0 -0.94535247058E+02  0.47949089824E+02  0.53771994651E+02  0.11885897341E+03  0.00000000000E+00 0. -1.
</event>
<event>
 8    1  0.7168478E-009  0.1573310E+03  0.7561462E-02  0.1191743E+00
         -2   -1    0    0    0  501 -0.00000000000E+00  0.00000000000E+00  0.27789281915E+03  0.27789281915E+03  0.00000000000E+00 0.  1.
          2   -1    0    0  501    0  0.00000000000E+00 -0.00000000000E+00 -0.12246218810E+03  0.12246218810E+03  0.00000000000E+00 0. -1.
         25    2    1    2    0    0  0.12928164179E+03  0.17054745797E+02  0.15981104533E+03  0.24123176688E+03  0.12509431596E+03 0.  0.
         23    2    1    2    0    0 -0.12928164179E+03 -0.17054745797E+02 -0.43804142863E+01  0.15912324037E+03  0.91084632830E+02 0.  0.
          5    1    3    3  502    0 -0.14062512423E+02  0.23359014160E+02  0.61057275712E+02  0.66998963541E+02  0.41800000000E+01 0.  1.
         -5    1    3    3    0  502  0.14334415421E+03 -0.63042683628E+01  0.98753769618E+02  0.17423280334E+03  0.41800000000E+01 0.  1.
        -11    1    4    4    0    0 -0.84838160496E+02  0.18245233905E+02 -0.36234137954E+02  0.94038900407E+02  0.00000000000E+00 0.  1.
         11    1    4    4    0    0 -0.44443481291E+02 -0.35299979702E+02  0.31853723668E+02  0.65084339958E+02  0.00000000000E+00 0. -1.
</event>
<event>
 8    1  0.7168478E-009  0.1624980E+03  0.7561462E-02  0.1185905E+00
         -1   -1    0    0    0  501 -0.00000000000E+00  0.00000000000E+00  0.78559963356E+02  0.78559963356E+02  0.00000000000E+00 0.  1.
          1   -1    0    0  501    0  0.00000000000E+00 -0.00000000000E+00 -0.43367260899E+03  0.43367260899E+03  0.00000000000E+00 0. -1.
         25    2    1    2    0    0  0.13494215226E+03  0.39582725364E+02 -0.11792099844E+03  0.22210170172E+03  0.12509047698E+03 0.  0.
         23    2    1    2    0    0 -0.13494215226E+03 -0.39582725364E+02 -0.23719164720E+03  0.29013087063E+03  0.90221216940E+02 0.  0.
          5    1    3    3  502    0  0.15193437883E+03  0.13305743538E+02 -0.78456883054E+02  0.17156355434E+03  0.41800000000E+01 0. -1.
         -5    1    3    3    0  502 -0.16992226563E+02  0.26276981826E+02 -0.39464115387E+02  0.50538147381E+02  0.41800000000E+01 0. -1.
        -11    1    4    4    0    0 -0.10138757331E+03 -0.26122529128E+02 -0.88452334146E+02  0.13706072364E+03  0.00000000000E+00 0.  1.
         11    1    4    4    0    0 -0.33554578957E+02 -0.13460196236E+02 -0.14873931305E+03  0.15307014699E+03  0.00000000000E+00 0. -1.
</event>
<event>
 8    1  0.7168478E-009  0.1228964E+03  0.7561462E-02  0.1238394E+00
         -1   -1    0    0    0  501 -0.00000000000E+00  0.00000000000E+00  0.86271858769E+02  0.86271858769E+02  0.00000000000E+00 0.  1.
          1   -1    0    0  501    0  0.00000000000E+00 -0.00000000000E+00 -0.26834156382E+03  0.26834156382E+03  0.00000000000E+00 0. -1.
         25    2    1    2    0    0  0.54075245101E+02  0.80490377821E+02 -0.53392454543E+02  0.16703547977E+03  0.12508902528E+03 0.  0.
         23    2    1    2    0    0 -0.54075245101E+02 -0.80490377821E+02 -0.12867725051E+03  0.18757794282E+03  0.96045909753E+02 0.  0.
          5    1    3    3  502    0 -0.25311667224E+00 -0.20304688438E+02  0.21722759621E+02  0.30028238813E+02  0.41800000000E+01 0. -1.
         -5    1    3    3    0  502  0.54328361773E+02  0.10079506626E+03 -0.75115214165E+02  0.13700724096E+03  0.41800000000E+01 0. -1.
        -11    1    4    4    0    0 -0.26386879310E+02 -0.11108555538E+01 -0.92248762556E+02  0.95954862268E+02  0.00000000000E+00 0. -1.
         11    1    4    4    0    0 -0.27688365791E+02 -0.79379522267E+02 -0.36428487951E+02  0.91623080553E+02  0.00000000000E+00 0.  1.
</event>
<event>
 8    1  0.7168478E-009  0.9888430E+02  0.7561462E-02  0.1282660E+00
         -1   -1    0    0    0  501 -0.00000000000E+00  0.00000000000E+00  0.62077078753E+02  0.62077078753E+02  0.00000000000E+00 0.  1.
          1   -1    0    0  501    0  0.00000000000E+00 -0.00000000000E+00 -0.32075430001E+03  0.32075430001E+03  0.00000000000E+00 0. -1.
         25    2    1    2    0    0 -0.16250353731E+02  0.48183791107E+02 -0.39823335568E+02  0.14078156741E+03  0.12509116653E+03 0.  0.
         23    2    1    2    0    0  0.16250353731E+02 -0.48183791107E+02 -0.21885388569E+03  0.24204981135E+03  0.90029640525E+02 0.  0.
          5    1    3    3  502    0 -0.53051779620E+02  0.51180017640E+02 -0.62939373510E+02  0.97019187093E+02  0.41800000000E+01 0.  1.
         -5    1    3    3    0  502  0.36801425888E+02 -0.29962265327E+01  0.23116037942E+02  0.43762380317E+02  0.41800000000E+01 0.  1.
        -11    1    4    4    0    0 -0.27951993429E+02 -0.17801196906E+02 -0.26719629012E+02  0.42569180430E+02  0.00000000000E+00 0.  1.
         11    1    4    4    0    0  0.44202347160E+02 -0.30382594201E+02 -0.19213425668E+03  0.19948063092E+03  0.00000000000E+00 0. -1.
</event>
<event>
 8    1  0.7168478E-009  0.9927841E+02  0.7561462E-02  0.1281821E+00
         -1   -1    0    0    0  501 -0.00000000000E+00  0.00000000000E+00  0.18587654361E+02  0.18587654361E+02  0.00000000000E+00 0.  1.
          1   -1    0    0  501    0  0.00000000000E+00 -0.00000000000E+00 -0.11285471384E+04  0.11285471384E+04  0.00000000000E+00 0. -1.
         25    2    1    2    0    0 -0.43249375001E+02  0.17770541813E+02 -0.91922799288E+03  0.92887761072E+03  0.12508881730E+03 0.  0.
         23    2    1    2    0    0  0.43249375001E+02 -0.17770541813E+02 -0.19073149117E+03  0.21825718205E+03  0.95243872234E+02 0.  0.
          5    1    3    3  502    0 -0.42158915198E+02 -0.43071883554E+02 -0.65121198714E+03  0.65400847539E+03  0.41800000000E+01 0. -1.
         -5    1    3    3    0  502 -0.10904598030E+01  0.60842425367E+02 -0.26801600574E+03  0.27486913534E+03  0.41800000000E+01 0. -1.
        -11    1    4    4    0    0  0.73658718760E+01 -0.36105611330E+02 -0.18230969800E+02  0.41112522397E+02  0.00000000000E+00 0.  1.
         11    1    4    4    0    0  0.35883503125E+02  0.18335069517E+02 -0.17250052137E+03  0.17714465965E+03  0.00000000000E+00 0. -1.
</event>
<event>
 8    1  0.7168478E-009  0.1077786E+03  0.7561462E-02  0.1264740E+00
         -3   -1    0    0    0  501 -0.00000000000E+00  0.00000000000E+00  0.93635432004E+02  0.93635432004E+02  0.00000000000E+00 0.  1.
          3   -1    0    0  501    0  0.00000000000E+00 -0.00000000000E+00 -0.20704571928E+03  0.20704571928E+03  0.00000000000E+00 0. -1.
         25    2    1    2    0    0  0.25740466958E+02  0.38050859285E+02  0.17706517462E+02  0.13443642967E+03  0.12509673589E+03 0.  0.
         23    2    1    2    0    0 -0.25740466958E+02 -0.38050859285E+02 -0.13111680474E+03  0.16624472161E+03  0.91297598259E+02 0.  0.
          5    1    3    3  502    0  0.56726894468E+02  0.58030861406E+02 -0.17682601249E+02  0.83160496743E+02  0.41800000000E+01 0.  1.
         -5    1    3    3    0  502 -0.30986427510E+02 -0.19980002121E+02  0.35389118710E+02  0.51275932929E+02  0.41800000000E+01 0.  1.
        -11    1    4    4    0    0 -0.56877451755E+02 -0.16153217334E+02 -0.53247791791E+02  0.79569455691E+02  0.00000000000E+00 0. -1.
         11    1    4    4    0    0  0.31136984797E+02 -0.21897641952E+02 -0.77869012945E+02  0.86675265920E+02  0.00000000000E+00 0.  1.
</event>
<event>
 8    1  0.7168478E-009  0.3949821E+03  0.7561462E-02  0.1045531E+00
          2   -1    0    0  501    0  0.00000000000E+00  0.00000000000E+00  0.10827880999E+04  0.10827880999E+04  0.00000000000E+00 0. -1.
         -2   -1    0    0    0  501 -0.00000000000E+00 -0.00000000000E+00 -0.16616431592E+03  0.16616431592E+03  0.00000000000E+00 0.  1.
         25    2    1    2    0    0 -0.24529267857E+03  0.30590708071E+03  0.63851095478E+03  0.75966460766E+03  0.12508571693E+03 0.  0.
         23    2    1    2    0    0  0.24529267857E+03 -0.30590708071E+03  0.27811282922E+03  0.48928780818E+03  0.91149181407E+02 0.  0.
          5    1    3    3  502    0 -0.22093917784E+03  0.26348559825E+03  0.45881090492E+03  0.57337919361E+03  0.41800000000E+01 0. -1.
         -5    1    3    3    0  502 -0.24353500730E+02  0.42421482457E+02  0.17970004985E+03  0.18628541405E+03  0.41800000000E+01 0. -1.
        -11    1    4    4    0    0  0.68095531190E+02 -0.13293893677E+03  0.66239568899E+02  0.16339352119E+03  0.00000000000E+00 0.  1.
         11    1    4    4    0    0  0.17719714738E+03 -0.17296814393E+03  0.21187326032E+03  0.32589428699E+03  0.00000000000E+00 0. -1.
</event>
<event>
 8    1  0.7168478E-009  0.1076555E+03  0.7561462E-02  0.1264974E+00
          1   -1    0    0  501    0  0.00000000000E+00  0.00000000000E+00  0.64249182965E+02  0.64249182965E+02  0.00000000000E+00 0. -1.
         -1   -1    0    0    0  501 -0.00000000000E+00 -0.00000000000E+00 -0.26120789111E+03  0.26120789111E+03  0.00000000000E+00 0.  1.
         25    2    1    2    0    0  0.23345895628E+01 -0.67577873062E+02 -0.95943849449E+02  0.17153331613E+03  0.12508491939E+03 0.  0.
         23    2    1    2    0    0 -0.23345895628E+01  0.67577873062E+02 -0.10101485869E+03  0.15392375794E+03  0.94426174055E+02 0.  0.
          5    1    3    3  502    0 -0.56658014138E+02 -0.39243791756E+02 -0.76675884795E+02  0.10318366860E+03  0.41800000000E+01 0. -1.
         -5    1    3    3    0  502  0.58992603701E+02 -0.28334081306E+02 -0.19267964655E+02  0.68349647525E+02  0.41800000000E+01 0. -1.
        -11    1    4    4    0    0  0.15008044518E+02  0.59841947095E+02 -0.11488858462E+03  0.13040585458E+03  0.00000000000E+00 0.  1.
         11    1    4    4    0    0 -0.17342634080E+02  0.77359259676E+01  0.13873725929E+02  0.23517903363E+02  0.00000000000E+00 0. -1.
</event>
<event>
 8    1  0.7168478E-009  0.1184299E+03  0.7561462E-02  0.1245710E+00
         -1   -1    0    0    0  501 -0.00000000000E+00  0.00000000000E+00  0.21459085636E+02  0.21459085636E+02  0.00000000000E+00 0.  1.
          1   -1    0    0  501    0  0.00000000000E+00 -0.00000000000E+00 -0.83999505061E+03  0.83999505061E+03  0.00000000000E+00 0. -1.
         25    2    1    2    0    0 -0.49088301337E+02  0.57903568932E+02 -0.49458660110E+03  0.51577799415E+03  0.12509415913E+03 0.  0.
         23    2    1    2    0    0  0.49088301337E+02 -0.57903568932E+02 -0.32394936387E+03  0.34567614209E+03  0.93735373422E+02 0.  0.
          5    1    3    3  502    0 -0.66095097164E+02  0.23918357956E+01 -0.12353049352E+03  0.14018394336E+03  0.41800000000E+01 0.  1.
         -5    1    3    3    0  502  0.17006795827E+02  0.55511733137E+02 -0.37105610758E+03  0.37559405080E+03  0.41800000000E+01 0.  1.
        -11    1    4    4    0    0 -0.21491940587E+02 -0.65511738579E+00 -0.23819272456E+02  0.32088789776E+02  0.00000000000E+00 0.  1.
         11    1    4    4    0    0  0.70580241924E+02 -0.57248451546E+02 -0.30013009142E+03  0.31358735231E+03  0.00000000000E+00 0. -1.
</event>
<event>
 8    1  0.7168478E-009  0.8438745E+02  0.7561462E-02  0.1317042E+00
          2   -1    0    0  501    0  0.00000000000E+00  0.00000000000E+00  0.12174264660E+03  0.12174264660E+03  0.00000000000E+00 0. -1.
         -2   -1    0    0    0  501 -0.00000000000E+00 -0.00000000000E+00 -0.10759626403E+03  0.10759626403E+03  0.00000000000E+00 0.  1.
         25    2    1    2    0    0  0.55068008610E+01 -0.68562792576E+01 -0.27260569160E+02  0.12832781624E+03  0.12509019294E+03 0.  0.
         23    2    1    2    0    0 -0.55068008610E+01  0.68562792576E+01  0.41406951726E+02  0.10101109439E+03  0.91713532901E+02 0.  0.
          5    1    3    3  502    0 -0.19168303818E+02 -0.49856793899E+02  0.22363058963E+02  0.58057752069E+02  0.41800000000E+01 0.  1.
         -5    1    3    3    0  502  0.24675104679E+02  0.43000514641E+02 -0.49623628123E+02  0.70270064169E+02  0.41800000000E+01 0.  1.
        -11    1    4    4    0    0  0.19528969770E+02  0.26991617928E+02 -0.14654366835E+02  0.36396133943E+02  0.00000000000E+00 0.  1.
         11    1    4    4    0    0 -0.25035770631E+02 -0.20135338671E+02  0.56061318561E+02  0.64614960445E+02  0.00000000000E+00 0. -1.
</event>
<event>
 8    1  0.7168478E-009  0.1348040E+03  0.7561462E-02  0.1220497E+00
          3   -1    0    0  501    0  0.00000000000E+00  0.00000000000E+00  0.13665668576E+03  0.13665668576E+03  0.00000000000E+00 0. -1.
         -3   -1    0    0    0  501 -0.00000000000E+00 -0.00000000000E+00 -0.19494975145E+03  0.19494975145E+03  0.00000000000E+00 0.  1.
         25    2    1    2    0    0  0.12110883879E+03  0.11126993822E+01 -0.17673081942E+02  0.17502102024E+03  0.12510567840E+03 0.  0.
         23    2    1    2    0    0 -0.12110883879E+03 -0.11126993822E+01 -0.40619983749E+02  0.15658541696E+03  0.90556174792E+02 0.  0.
          5    1    3    3  502    0 -0.75261598466E+01  0.16243739296E+02  0.31453757083E+02  0.36432312348E+02  0.41800000000E+01 0.  1.
         -5    1    3    3    0  502  0.12863499864E+03 -0.15131039914E+02 -0.49126839025E+02  0.13858870789E+03  0.41800000000E+01 0.  1.
        -11    1    4    4    0    0 -0.10018050414E+03  0.33473857573E+01 -0.68524705052E+02  0.12142064736E+03  0.00000000000E+00 0.  1.
         11    1    4    4    0    0 -0.20928334644E+02 -0.44600851395E+01  0.27904721303E+02  0.35164769606E+02  0.00000000000E+00 0. -1.
</event>
<event>
 8    1  0.7168478E-009  0.1022513E+03  0.7561462E-02  0.1275632E+00
          2   -1    0    0  501    0  0.00000000000E+00  0.00000000000E+00  0.13831836499E+03  0.13831836499E+03  0.00000000000E+00 0. -1.
         -2   -1    0    0    0  501 -0.00000000000E+00 -0.00000000000E+00 -0.11103692215E+03  0.11103692215E+03  0.00000000000E+00 0.  1.
         25    2    1    2    0    0 -0.44860384888E+01 -0.60403648465E+02  0.22237156479E+01  0.13899148274E+03  0.12507982281E+03 0.  0.
         23    2    1    2    0    0  0.44860384888E+01  0.60403648465E+02  0.25057727185E+02  0.11036380440E+03  0.88789381918E+02 0.  0.
          5    1    3    3  502    0 -0.45196027603E+02  0.38569102348E+01  0.33594180398E+02  0.56600335903E+02  0.41800000000E+01 0. -1.
         -5    1    3    3    0  502  0.40709989114E+02 -0.64260558699E+02 -0.31370464750E+02  0.82391146835E+02  0.41800000000E+01 0. -1.
        -11    1    4    4    0    0 -0.25244790049E+02  0.37632604294E+02  0.48346476279E+02  0.66263821948E+02  0.00000000000E+00 0. -1.
         11    1    4    4    0    0  0.29730828538E+02  0.22771044171E+02 -0.23288749094E+02  0.44099982455E+02  0.00000000000E+00 0.  1.
</event>
<event>
 8    1  0.7168478E-009  0.1129714E+03  0.7561462E-02  0.1255164E+00
         -1   -1    0    0    0  501 -0.00000000000E+00  0.00000000000E+00  0.24061782367E+02  0.24061782367E+02  0.00000000000E+00 0.  1.
          1   -1    0    0  501    0  0.00000000000E+00 -0.00000000000E+00 -0.53894877356E+03  0.53894877356E+03  0.00000000000E+00 0. -1.
         25    2    1    2    0    0 -0.28185244971E+02 -0.35913642248E+01 -0.26830461190E+03  0.29739311891E+03  0.12509195208E+03 0.  0.
         23    2    1    2    0    0  0.28185244971E+02  0.35913642248E+01 -0.24658237929E+03  0.26561743702E+03  0.94564513114E+02 0.  0.
          5    1    3    3  502    0 -0.14114018213E+02 -0.64115577365E+02 -0.14642915467E+03  0.16052720177E+03  0.41800000000E+01 0. -1.
         -5    1    3    3    0  502 -0.14071226758E+02  0.60524213140E+02 -0.12187545723E+03  0.13686591714E+03  0.41800000000E+01 0. -1.
        -11    1    4    4    0    0 -0.34425711204E+02 -0.46161517428E+01 -0.71368822503E+02  0.79372207191E+02  0.00000000000E+00 0.  1.
         11    1    4    4    0    0  0.62610956175E+02  0.82075159676E+01 -0.17521355679E+03  0.18624522983E+03  0.00000000000E+00 0. -1.
</event>
<event>
 8    1  0.7168478E-009  0.1056041E+03  0.7561462E-02  0.1268934E+00
          2   -1    0    0  501    0  0.00000000000E+00  0.00000000000E+00  0.10842774020E+03  0.10842774020E+03  0.00000000000E+00 0. -1.
         -2   -1    0    0    0  501 -0.00000000000E+00 -0.00000000000E+00 -0.17710721637E+03  0.17710721637E+03  0.00000000000E+00 0.  1.
         25    2    1    2    0    0  0.52671544681E+02  0.37309268992E+02  0.20300686615E+02  0.14221813331E+03  0.12509039289E+03 0.  0.
         23    2    1    2    0    0 -0.52671544681E+02 -0.37309268992E+02 -0.88980162792E+02  0.14331682326E+03  0.91956344467E+02 0.  0.
          5    1    3    3  502    0 -0.25684708197E+02 -0.15271768188E+02  0.35453019858E+02  0.46554485883E+02  0.41800000000E+01 0.  1.
         -5    1    3    3    0  502  0.78356252878E+02  0.52581037180E+02 -0.15152333243E+02  0.95663647425E+02  0.41800000000E+01 0.  1.
        -11    1    4    4    0    0 -0.49761222015E+02 -0.61022088012E+00 -0.93804561079E+02  0.10618779245E+03  0.00000000000E+00 0.  1.
         11    1    4    4    0    0 -0.29103226661E+01 -0.36699048112E+02  0.48243982868E+01  0.37129030814E+02  0.00000000000E+00 0. -1.
</event>
<event>
 8    1  0.7168478E-009  0.8677808E+02  0.7561462E-02  0.1310847E+00
          1   -1    0    0  501    0  0.00000000000E+00  0.00000000000E+00  0.57387408582E+03  0.57387408582E+03  0.00000000000E+00 0. -1.
         -1   -1    0    0    0  501 -0.00000000000E+00 -0.00000000000E+00 -0.24926222470E+02  0.24926222470E+02  0.00000000000E+00 0.  1.
         25    2    1    2    0    0  0.48795038763E+02 -0.12455139344E+02  0.35672003621E+03  0.38135652951E+03  0.12509009578E+03 0.  0.
         23    2    1    2    0    0 -0.48795038763E+02  0.12455139344E+02  0.19222782714E+03  0.21744377878E+03  0.88284614167E+02 0.  0.
          5    1    3    3  502    0  0.72617159227E+02  0.34747655975E+01  0.34042458979E+03  0.34812598228E+03  0.41800000000E+01 0.  1.
         -5    1    3    3    0  502 -0.23822120463E+02 -0.15929904942E+02  0.16295446425E+02  0.33230547227E+02  0.41800000000E+01 0.  1.
        -11    1    4    4    0    0 -0.14517132960E+01 -0.16312376654E+02 -0.10235669680E+01  0.16408802301E+02  0.00000000000E+00 0.  1.
         11    1    4    4    0    0 -0.47343325467E+02  0.28767515999E+02  0.19325139411E+03  0.20103497648E+03  0.00000000000E+00 0. -1.
</event>
<event>
 8    1  0.7168478E-009  0.1203082E+03  0.7561462E-02  0.1242589E+00
          1   -1    0    0  501    0  0.00000000000E+00  0.00000000000E+00  0.22841412580E+02  0.22841412580E+02  0.00000000000E+00 0. -1.
         -1   -1    0    0    0  501 -0.00000000000E+00 -0.00000000000E+00 -0.96973592776E+03  0.96973592776E+03  0.00000000000E+00 0.  1.
         25    2    1    2    0    0  0.28008399530E+02  0.93054435693E+02 -0.60324113811E+03  0.62369169337E+03  0.12509140348E+03 0.  0.
         23    2    1    2    0    0 -0.28008399530E+02 -0.93054435693E+02 -0.34365337707E+03  0.36888564697E+03  0.92387112315E+02 0.  0.
          5    1    3    3  502    0 -0.20940209286E+02  0.60000168607E+02 -0.11156465841E+03  0.12846267164E+03  0.41800000000E+01 0.  1.
         -5    1    3    3    0  502  0.48948608816E+02  0.33054267087E+02 -0.49167647969E+03  0.49522902173E+03  0.41800000000E+01 0.  1.
        -11    1    4    4    0    0 -0.14273224758E+02 -0.10089702889E+03 -0.33638156936E+03  0.35147758902E+03  0.00000000000E+00 0.  1.
         11    1    4    4    0    0 -0.13735174772E+02  0.78425931932E+01 -0.72718077128E+01  0.17408057945E+02  0.00000000000E+00 0. -1.
</event>
<event>
 8    1  0.7168478E-009  0.1121618E+03  0.7561462E-02  0.1256618E+00
          1   -1    0    0  501    0  0.00000000000E+00  0.00000000000E+00  0.15364018280E+04  0.15364018280E+04  0.00000000000E+00 0. -1.
         -1   -1    0    0    0  501 -0.00000000000E+00 -0.00000000000E+00 -0.20458119972E+02  0.20458119972E+02  0.00000000000E+00 0.  1.
         25    2    1    2    0    0 -0.86434747957E+02 -0.22101850436E+02  0.12753408187E+04  0.12845625759E+04  0.12508936795E+03 0.  0.
         23    2    1    2    0    0  0.86434747957E+02  0.22101850436E+02  0.24060288933E+03  0.27229737212E+03  0.91085954278E+02 0.  0.
          5    1    3    3  502    0 -0.64128732175E+02  0.31626299141E+02  0.10257511544E+04  0.10282488124E+04  0.41800000000E+01 0.  1.
         -5    1    3    3    0  502 -0.22306015782E+02 -0.53728149577E+02  0.24958966433E+03  0.25631376346E+03  0.41800000000E+01 0.  1.
        -11    1    4    4    0    0  0.40440399411E+02 -0.53765836246E+01  0.20289961639E+02  0.45563319669E+02  0.00000000000E+00 0.  1.
         11    1    4    4    0    0  0.45994348547E+02  0.27478434061E+02  0.22031292769E+03  0.22673405246E+03  0.00000000000E+00 0. -1.
</event>
<event>
 8    1  0.7168478E-009  0.1146660E+03  0.7561462E-02  0.1252165E+00
         -3   -1    0    0    0  501 -0.00000000000E+00  0.00000000000E+00  0.32157010920E+02  0.32157010920E+02  0.00000000000E+00 0.  1.
          3   -1    0    0  501    0  0.00000000000E+00 -0.00000000000E+00 -0.48755547580E+03  0.48755547580E+03  0.00000000000E+00 0. -1.
         25    2    1    2    0    0  0.55240780991E+02 -0.38276772771E+01 -0.19197029714E+03  0.23572677494E+03  0.12509325499E+03 0.  0.
         23    2    1    2    0    0 -0.55240780991E+02  0.38276772771E+01 -0.26342816774E+03  0.28398571178E+03  0.90483644585E+02 0.  0.
          5    1    3    3  502    0  0.20964383084E+02 -0.58183557073E+02 -0.49315394784E+02  0.79210556332E+02  0.41800000000E+01 0.  1.
         -5    1    3    3    0  502  0.34276397907E+02  0.54355879796E+02 -0.14265490236E+03  0.15651621861E+03  0.41800000000E+01 0.  1.
        -11    1    4    4    0    0 -0.23977972656E+01 -0.36435932505E+02 -0.62797990010E+02  0.72642371647E+02  0.00000000000E+00 0.  1.
         11    1    4    4    0    0 -0.52842983725E+02  0.40263609782E+02 -0.20063017773E+03  0.21134334013E+03  0.00000000000E+00 0. -1.
</event>
<event>
 8    1  0.7168478E-009  0.2863920E+03  0.7561462E-02  0.1092248E+00
          2   -1    0    0  501    0  0.00000000000E+00  0.00000000000E+00  0.31553137752E+03  0.31553137752E+03  0.00000000000E+00 0. -1.
         -2   -1    0    0    0  501 -0.00000000000E+00 -0.00000000000E+00 -0.28051256450E+03  0.28051256450E+03  0.00000000000E+00 0.  1.
         25    2    1    2    0    0 -0.46814348970E+02  0.26485559253E+03  0.79917525409E+02  0.30720549025E+03  0.12509330201E+03 0.  0.
         23    2    1    2    0    0  0.46814348970E+02 -0.26485559253E+03 -0.44898712389E+02  0.28883845176E+03  0.95245412890E+02 0.  0.
          5    1    3    3  502    0  0.33440448785E+02  0.72015767120E+02 -0.92694685470E+01  0.80049545758E+02  0.41800000000E+01 0.  1.
         -5    1    3    3    0  502 -0.80254797756E+02  0.19283982541E+03  0.89186993956E+02  0.22715594449E+03  0.41800000000E+01 0.  1.
        -11    1    4    4    0    0 -0.26260574691E+02 -0.39350388182E+02 -0.16455482505E+02  0.50088459126E+02  0.00000000000E+00 0.  1.
         11    1    4    4    0    0  0.73074923661E+02 -0.22550520435E+03 -0.28443229884E+02  0.23874999263E+03  0.00000000000E+00 0. -1.
</event>
<event>
 8    1  0.7168478E-009  0.1785709E+03  0.7561462E-02  0.1169193E+00
         -1   -1    0    0    0  501 -0.00000000000E+00  0.00000000000E+00  0.18003173268E+03  0.18003173268E+03  0.00000000000E+00 0.  1.
          1   -1    0    0  501    0  0.00000000000E+00 -0.00000000000E+00 -0.22339844901E+03  0.22339844901E+03  0.00000000000E+00 0. -1.
         25    2    1    2    0    0 -0.10424876766E+03  0.12956123643E+03 -0.46379483939E+02  0.21319520499E+03  0.12508884585E+03 0.  0.
         23    2    1    2    0    0  0.10424876766E+03 -0.12956123643E+03  0.30127676078E+01  0.19023497669E+03  0.92338237165E+02 0.  0.
          5    1    3    3  502    0 -0.10416284076E+03  0.60155849839E+02  0.13918412280E+02  0.12116029988E+03  0.41800000000E+01 0.  1.
         -5    1    3    3    0  502 -0.85926901431E-01  0.69405386591E+02 -0.60297896219E+02  0.92034905117E+02  0.41800000000E+01 0.  1.
        -11    1    4    4    0    0  0.27077077255E+02 -0.46985892475E+02  0.44180309185E+02  0.69948137388E+02  0.00000000000E+00 0.  1.
         11    1    4    4    0    0  0.77171690408E+02 -0.82575343955E+02 -0.41167541577E+02  0.12028683930E+03  0.00000000000E+00 0. -1.
</event>
<event>
 8    1  0.7168478E-009  0.1171798E+03  0.7561462E-02  0.1247823E+00
          1   -1    0    0  501    0  0.00000000000E+00  0.00000000000E+00  0.32518005686E+03  0.32518005686E+03  0.00000000000E+00 0. -1.
         -1   -1    0    0    0  501 -0.00000000000E+00 -0.00000000000E+00 -0.53675127988E+02  0.53675127988E+02  0.00000000000E+00 0.  1.
         25    2    1    2    0    0  0.70806143648E+02 -0.22818647363E+02  0.14229608258E+03  0.20354286356E+03  0.12508925431E+03 0.  0.
         23    2    1    2    0    0 -0.70806143648E+02  0.22818647363E+02  0.12920884630E+03  0.17531232129E+03  0.92224093320E+02 0.  0.
          5    1    3    3  502    0 -0.24294151786E+02 -0.20303760013E+02  0.88692416678E+02  0.94266991349E+02  0.41800000000E+01 0. -1.
         -5    1    3    3    0  502  0.95100295434E+02 -0.25148873499E+01  0.53603665897E+02  0.10927587221E+03  0.41800000000E+01 0. -1.
        -11    1    4    4    0    0 -0.68893997338E+02  0.46706408515E+02  0.61505650014E+02  0.10349307440E+03  0.00000000000E+00 0.  1.
         11    1    4    4    0    0 -0.19121463097E+01 -0.23887761152E+02  0.67703196286E+02  0.71819246889E+02  0.00000000000E+00 0. -1.
</event>
<event>
 8    1  0.7168478E-009  0.1471029E+03  0.7561462E-02  0.1204079E+00
         -2   -1    0    0    0  501 -0.00000000000E+00  0.00000000000E+00  0.19126529118E+03  0.19126529118E+03  0.00000000000E+00 0.  1.
          2   -1    0    0  501    0  0.00000000000E+00 -0.00000000000E+00 -0.13014233814E+03  0.13014233814E+03  0.00000000000E+00 0. -1.
         25    2    1    2    0    0  0.54251378279E+02 -0.98982910558E+02  0.14352200873E+02  0.16909621090E+03  0.12508682681E+03 0.  0.
         23    2    1    2    0    0 -0.54251378279E+02  0.98982910558E+02  0.46770752168E+02  0.15231141842E+03  0.90941939143E+02 0.  0.
          5    1    3    3  502    0  0.52870077299E+02 -0.11891167533E+03  0.40102763518E+02  0.13623852482E+03  0.41800000000E+01 0. -1.
         -5    1    3    3    0  502  0.13813009799E+01  0.19928764773E+02 -0.25750562645E+02  0.32857686077E+02  0.41800000000E+01 0. -1.
        -11    1    4    4    0    0 -0.76792224279E+02  0.55942722142E+02  0.20950395412E+02  0.97291073271E+02  0.00000000000E+00 0. -1.
         11    1    4    4    0    0  0.22540846000E+02  0.43040188416E+02  0.25820356756E+02  0.55020345149E+02  0.00000000000E+00 0.  1.
</event>
<event>
 8    1  0.7168478E-009  0.1669358E+03  0.7561462E-02  0.1181081E+00
         -1   -1    0    0    0  501 -0.00000000000E+00  0.00000000000E+00  0.59539039097E+02  0.59539039097E+02  0.00000000000E+00 0.  1.
          1   -1    0    0  501    0  0.00000000000E+00 -0.00000000000E+00 -0.59729212128E+03  0.59729212128E+03  0.00000000000E+00 0. -1.
         25    2    1    2    0    0  0.13363741036E+03 -0.36363985252E+01 -0.41509101392E+03  0.45367486451E+03  0.12509257374E+03 0.  0.
         23    2    1    2    0    0 -0.13363741036E+03  0.36363985252E+01 -0.12266206826E+03  0.20315629587E+03  0.91401951396E+02 0.  0.
          5    1    3    3  502    0  0.14039603603E+03  0.29033546396E+02 -0.37413820217E+03  0.40068798394E+03  0.41800000000E+01 0. -1.
         -5    1    3    3    0  502 -0.67586256664E+01 -0.32669944921E+02 -0.40952811754E+02  0.52986880571E+02  0.41800000000E+01 0. -1.
        -11    1    4    4    0    0 -0.78872857164E+02  0.42570182768E+02 -0.94664542296E+02  0.13036304548E+03  0.00000000000E+00 0. -1.
         11    1    4    4    0    0 -0.54764553198E+02 -0.38933784243E+02 -0.27997525965E+02  0.72793250392E+02  0.00000000000E+00 0.  1.
</event>
<event>
 8    1  0.7168478E-009  0.1608362E+03  0.7561462E-02  0.1187756E+00
          1   -1    0    0  501    0  0.00000000000E+00  0.00000000000E+00  0.44589646205E+03  0.44589646205E+03  0.00000000000E+00 0. -1.
         -1   -1    0    0    0  501 -0.00000000000E+00 -0.00000000000E+00 -0.74688793076E+02  0.74688793076E+02  0.00000000000E+00 0.  1.
         25    2    1    2    0    0 -0.12332020964E+03 -0.58756426762E+02  0.12093850398E+03  0.22121153313E+03  0.12509288090E+03 0.  0.
         23    2    1    2    0    0  0.12332020964E+03  0.58756426762E+02  0.25026916500E+03  0.29937372200E+03  0.91267621221E+02 0.  0.
          5    1    3    3  502    0 -0.10722105081E+03 -0.94093009828E+02  0.76054991552E+02  0.16171481805E+03  0.41800000000E+01 0.  1.
         -5    1    3    3    0  502 -0.16099158827E+02  0.35336583065E+02  0.44883512430E+02  0.59496715083E+02  0.41800000000E+01 0.  1.
        -11    1    4    4    0    0  0.15970067443E+02  0.20396590951E+02  0.13422886095E+03  0.13670570979E+03  0.00000000000E+00 0. -1.
         11    1    4    4    0    0  0.10735014220E+03  0.38359835811E+02  0.11604030405E+03  0.16266801221E+03  0.00000000000E+00 0.  1.
</event>
<event>
 8    1  0.7168478E-009  0.1051780E+03  0.7561462E-02  0.1269769E+00
          1   -1    0    0  501    0  0.00000000000E+00  0.00000000000E+00  0.47162690691E+02  0.47162690691E+02  0.00000000000E+00 0. -1.
         -1   -1    0    0    0  501 -0.00000000000E+00 -0.00000000000E+00 -0.10582372558E+04  0.10582372558E+04  0.00000000000E+00 0.  1.
         25    2    1    2    0    0 -0.28233966183E+02 -0.73866603247E+02 -0.95519200463E+03  0.96658906854E+03  0.12509688164E+03 0.  0.
         23    2    1    2    0    0  0.28233966183E+02  0.73866603247E+02 -0.55882560459E+02  0.13881087793E+03  0.99459375353E+02 0.  0.
          5    1    3    3  502    0  0.50174203754E+01  0.25292877943E+02 -0.44525670873E+03  0.44602232372E+03  0.41800000000E+01 0.  1.
         -5    1    3    3    0  502 -0.33251386559E+02 -0.99159481190E+02 -0.50993529590E+03  0.52056674483E+03  0.41800000000E+01 0.  1.
        -11    1    4    4    0    0  0.20532220311E+02  0.62876780960E+02  0.14035156773E+02  0.67616915638E+02  0.00000000000E+00 0. -1.
         11    1    4    4    0    0  0.77017458726E+01  0.10989822287E+02 -0.69917717232E+02  0.71193962289E+02  0.00000000000E+00 0.  1.
</event>
<event>
 8    1  0.7168478E-009  0.1082290E+03  0.7561462E-02  0.1263885E+00
          1   -1    0    0  501    0  0.00000000000E+00  0.00000000000E+00  0.20194491867E+03  0.20194491867E+03  0.00000000000E+00 0. -1.
         -1   -1    0    0    0  501 -0.00000000000E+00 -0.00000000000E+00 -0.62313613623E+02  0.62313613623E+02  0.00000000000E+00 0.  1.
         25    2    1    2    0    0 -0.10506465457E+02 -0.22708767600E+02  0.10035217648E+03  0.16230921729E+03  0.12509056220E+03 0.  0.
         23    2    1    2    0    0  0.10506465457E+02  0.22708767600E+02  0.39279128568E+02  0.10194931500E+03  0.90690346483E+02 0.  0.
          5    1    3    3  502    0 -0.17214970780E+01 -0.72987037989E+02  0.40699296785E+02  0.83689762967E+02  0.41800000000E+01 0. -1.
         -5    1    3    3    0  502 -0.87849683789E+01  0.50278270390E+02  0.59652879692E+02  0.78619454325E+02  0.41800000000E+01 0. -1.
        -11    1    4    4    0    0  0.49064726205E+02  0.39013385461E+01  0.31255108614E+02  0.58304799241E+02  0.00000000000E+00 0. -1.
         11    1    4    4    0    0 -0.38558260748E+02  0.18807429054E+02  0.80240199535E+01  0.43644515758E+02  0.00000000000E+00 0.  1.
</event>
<event>
 8    1  0.7168478E-009  0.1704988E+03  0.7561462E-02  0.1177329E+00
          1   -1    0    0  501    0  0.00000000000E+00  0.00000000000E+00  0.31776304971E+03  0.31776304971E+03  0.00000000000E+00 0. -1.
         -1   -1    0    0    0  501 -0.00000000000E+00 -0.00000000000E+00 -0.12257683769E+03  0.12257683769E+03  0.00000000000E+00 0.  1.
         25    2    1    2    0    0  0.48033682585E+02 -0.13576733649E+03  0.19620857720E+03  0.27364955483E+03  0.12508504615E+03 0.  0.
         23    2    1    2    0    0 -0.48033682585E+02  0.13576733649E+03 -0.10223651801E+01  0.16669033258E+03  0.83932219224E+02 0.  0.
          5    1    3    3  502    0 -0.37981406129E+02 -0.78174549117E+02  0.94770349904E+02  0.12865744814E+03  0.41800000000E+01 0. -1.
         -5    1    3    3    0  502  0.86015088714E+02 -0.57592787372E+02  0.10143822730E+03  0.14499210668E+03  0.41800000000E+01 0. -1.
        -11    1    4    4    0    0 -0.28542440708E+02  0.12479330730E+03 -0.28610096705E+02  0.13117384687E+03  0.00000000000E+00 0.  1.
         11    1    4    4    0    0 -0.19491241877E+02  0.10974029192E+02  0.27587731525E+02  0.35516485712E+02  0.00000000000E+00 0. -1.
</event>
<event>
 8    1  0.7168478E-009  0.1033391E+03  0.7561462E-02  0.1273427E+00
          2   -1    0    0  501    0  0.00000000000E+00  0.00000000000E+00  0.19353408338E+03  0.19353408338E+03  0.00000000000E+00 0. -1.
         -2   -1    0    0    0  501 -0.00000000000E+00 -0.00000000000E+00 -0.83522236273E+02  0.83522236273E+02  0.00000000000E+00 0.  1.
         25    2    1    2    0    0  0.54480300841E+02 -0.34266085261E+02  0.78985704491E+02  0.16133201858E+03  0.12508801271E+03 0.  0.
         23    2    1    2    0    0 -0.54480300841E+02  0.34266085261E+02  0.31026142619E+02  0.11572430108E+03  0.91034194431E+02 0.  0.
          5    1    3    3  502    0  0.72553779690E+02 -0.10069205168E+01  0.95341548572E+02  0.11988556260E+03  0.41800000000E+01 0.  1.
         -5    1    3    3    0  502 -0.18073478849E+02 -0.33259164744E+02 -0.16355844081E+02  0.41446455974E+02  0.41800000000E+01 0.  1.
        -11    1    4    4    0    0 -0.37124025515E+02 -0.17699091610E+02 -0.15396033175E+02  0.43914564233E+02  0.00000000000E+00 0.  1.
         11    1    4    4    0    0 -0.17356275326E+02  0.51965176871E+02  0.46422175795E+02  0.71809736846E+02  0.00000000000E+00 0. -1.
</event>
<event>
 8    1  0.7168478E-009  0.8815878E+02  0.7561462E-02  0.1307373E+00
          2   -1    0    0  501    0  0.00000000000E+00  0.00000000000E+00  0.60928628958E+03  0.60928628958E+03  0.00000000000E+00 0. -1.
         -2   -1    0    0    0  501 -0.00000000000E+00 -0.00000000000E+00 -0.21503936013E+02  0.21503936013E+02  0.00000000000E+00 0.  1.
         25    2    1    2    0    0  0.18355731118E+02 -0.28152840569E+01  0.43208622981E+03  0.45021245276E+03  0.12509150226E+03 0.  0.
         23    2    1    2    0    0 -0.18355731118E+02  0.28152840569E+01  0.15569612376E+03  0.18057777284E+03  0.89566681307E+02 0.  0.
          5    1    3    3  502    0 -0.40016989262E+01 -0.41997657437E+02  0.37473369355E+03  0.37712415768E+03  0.41800000000E+01 0. -1.
         -5    1    3    3    0  502  0.22357430044E+02  0.39182373380E+02  0.57352536264E+02  0.73088295080E+02  0.41800000000E+01 0. -1.
        -11    1    4    4    0    0  0.34010701415E+02 -0.84688407674E+01  0.84492996917E+02  0.91474125318E+02  0.00000000000E+00 0. -1.
         11    1    4    4    0    0 -0.52366432533E+02  0.11284124824E+02  0.71203126841E+02  0.89103647519E+02  0.00000000000E+00 0.  1.
</event>
<event>
 8    1  0.7168478E-009  0.6235271E+02  0.7561462E-02  0.1388216E+00
         -1   -1    0    0    0  501 -0.00000000000E+00  0.00000000000E+00  0.15366704231E+02  0.15366704231E+02  0.00000000000E+00 0.  1.
          1   -1    0    0  501    0  0.00000000000E+00 -0.00000000000E+00 -0.10195699032E+04  0.10195699032E+04  0.00000000000E+00 0. -1.
         25    2    1    2    0    0 -0.46704799213E+02  0.25035820752E+02 -0.70037279044E+03  0.71342664203E+03  0.12508955746E+03 0.  0.
         23    2    1    2    0    0  0.46704799213E+02 -0.25035820752E+02 -0.30383040857E+03  0.32150996544E+03  0.90816353780E+02 0.  0.
          5    1    3    3  502    0 -0.42341706148E+02  0.29791655686E+02 -0.70328782862E+03  0.70520323674E+03  0.41800000000E+01 0.  1.
         -5    1    3    3    0  502 -0.43630930652E+01 -0.47558349332E+01  0.29150381799E+01  0.82234052921E+01  0.41800000000E+01 0.  1.
        -11    1    4    4    0    0  0.75164448471E+01  0.99992924121E+01  0.64917561165E+00  0.12526141499E+02  0.00000000000E+00 0.  1.
         11    1    4    4    0    0  0.39188354366E+02 -0.35035113165E+02 -0.30447958418E+03  0.30898382394E+03  0.00000000000E+00 0. -1.
</event>
<event>
 8    1  0.7168478E-009  0.9193608E+02  0.7561462E-02  0.1298230E+00
          1   -1    0    0  501    0  0.00000000000E+00  0.00000000000E+00  0.19394517320E+02  0.19394517320E+02  0.00000000000E+00 0. -1.
         -1   -1    0    0    0  501 -0.00000000000E+00 -0.00000000000E+00 -0.76803922365E+03  0.76803922365E+03  0.00000000000E+00 0.  1.
         25    2    1    2    0    0 -0.93583629043E+01 -0.34616108806E+02 -0.55833161728E+03  0.57329703985E+03  0.12509775018E+03 0.  0.
         23    2    1    2    0    0  0.93583629043E+01  0.34616108806E+02 -0.19031308905E+03  0.21413670112E+03  0.91376150929E+02 0.  0.
          5    1    3    3  502    0 -0.26170015896E+01 -0.81959964959E+02 -0.34702714776E+03  0.35660846630E+03  0.41800000000E+01 0. -1.
         -5    1    3    3    0  502 -0.67413613147E+01  0.47343856153E+02 -0.21130446952E+03  0.21668857355E+03  0.41800000000E+01 0. -1.
        -11    1    4    4    0    0 -0.91257000971E+01  0.34066886987E+02 -0.19232813570E+03  0.19553501725E+03  0.00000000000E+00 0.  1.
         11    1    4    4    0    0  0.18484063001E+02  0.54922181893E+00  0.20150466511E+01  0.18601683866E+02  0.00000000000E+00 0. -1.
</event>
<event>
 8    1  0.7168478E-009  0.1160656E+03  0.7561462E-02  0.1249732E+00
         -1   -1    0    0    0  501 -0.00000000000E+00  0.00000000000E+00  0.51301240650E+02  0.51301240650E+02  0.00000000000E+00 0.  1.
          1   -1    0    0  501    0  0.00000000000E+00 -0.00000000000E+00 -0.26897658746E+03  0.26897658746E+03  0.00000000000E+00 0. -1.
         25    2    1    2    0    0  0.42579049288E+01  0.49771122161E+02 -0.12590473606E+03  0.18437808269E+03  0.12509188806E+03 0.  0.
         23    2    1    2    0    0 -0.42579049288E+01 -0.49771122161E+02 -0.91770610755E+02  0.13589974542E+03  0.86899950816E+02 0.  0.
          5    1    3    3  502    0  0.62748970426E+02  0.14059811030E+02 -0.46852953655E+02  0.79672976862E+02  0.41800000000E+01 0.  1.
         -5    1    3    3    0  502 -0.58491065498E+02  0.35711311131E+02 -0.79051782400E+02  0.10470510583E+03  0.41800000000E+01 0.  1.
        -11    1    4    4    0    0  0.25423259607E+02  0.13761080406E+02 -0.17680468781E+02  0.33886700036E+02  0.00000000000E+00 0.  1.
         11    1    4    4    0    0 -0.29681164535E+02 -0.63532202567E+02 -0.74090141974E+02  0.10201304539E+03  0.00000000000E+00 0. -1.
</event>
<event>
 8    1  0.7168478E-009  0.2407217E+03  0.7561462E-02  0.1119313E+00
         -2   -1    0    0    0  501 -0.00000000000E+00  0.00000000000E+00  0.44188563380E+02  0.44188563380E+02  0.00000000000E+00 0.  1.
          2   -1    0    0  501    0  0.00000000000E+00 -0.00000000000E+00 -0.13366665038E+04  0.13366665038E+04  0.00000000000E+00 0. -1.
         25    2    1    2    0    0  0.56725850065E+02  0.20837958027E+03 -0.60320518001E+03  0.65279784788E+03  0.12509464203E+03 0.  0.
         23    2    1    2    0    0 -0.56725850065E+02 -0.20837958027E+03 -0.68927276043E+03  0.72805721932E+03  0.91271599042E+02 0.  0.
          5    1    3    3  502    0 -0.38175564197E+02  0.35461149776E+02 -0.12895583343E+03  0.13914721061E+03  0.41800000000E+01 0.  1.
         -5    1    3    3    0  502  0.94901414262E+02  0.17291843050E+03 -0.47424934659E+03  0.51365063728E+03  0.41800000000E+01 0.  1.
        -11    1    4    4    0    0  0.21923298577E+02 -0.61108887167E+02 -0.24478297706E+03  0.25324619043E+03  0.00000000000E+00 0. -1.
         11    1    4    4    0    0 -0.78649148642E+02 -0.14727069311E+03 -0.44448978337E+03  0.47481102889E+03  0.00000000000E+00 0.  1.
</event>
<event>
 8    1  0.7168478E-009  0.8904314E+02  0.7561462E-02  0.1305186E+00
         -1   -1    0    0    0  501 -0.00000000000E+00  0.00000000000E+00  0.19020608223E+02  0.19020608223E+02  0.00000000000E+00 0.  1.
          1   -1    0    0  501    0  0.00000000000E+00 -0.00000000000E+00 -0.96185495727E+03  0.96185495727E+03  0.00000000000E+00 0. -1.
         25    2    1    2    0    0 -0.62578131341E+02  0.45711318063E+02 -0.57446521113E+03  0.59301484037E+03  0.12510305744E+03 0.  0.
         23    2    1    2    0    0  0.62578131341E+02 -0.45711318063E+02 -0.36836913792E+03  0.38786072512E+03  0.93458938578E+02 0.  0.
          5    1    3    3  502    0 -0.50748067875E+02  0.26400641737E+02 -0.56534294352E+03  0.56824508486E+03  0.41800000000E+01 0. -1.
         -5    1    3    3    0  502 -0.11830063466E+02  0.19310676326E+02 -0.91222676063E+01  0.24769755511E+02  0.41800000000E+01 0. -1.
        -11    1    4    4    0    0 -0.27312861393E+01  0.10920513252E+02 -0.20018810558E+01  0.11433506086E+02  0.00000000000E+00 0.  1.
         11    1    4    4    0    0  0.65309417480E+02 -0.56631831315E+02 -0.36636725686E+03  0.37642721903E+03  0.00000000000E+00 0. -1.
</event>
<event>
 8    1  0.7168478E-009  0.1642659E+03  0.7561462E-02  0.1183963E+00
         -2   -1    0    0    0  501 -0.00000000000E+00  0.00000000000E+00  0.96845038971E+02  0.96845038971E+02  0.00000000000E+00 0.  1.
          2   -1    0    0  501    0  0.00000000000E+00 -0.00000000000E+00 -0.33028556656E+03  0.33028556656E+03  0.00000000000E+00 0. -1.
         25    2    1    2    0    0 -0.13307698456E+03  0.36184506993E+02 -0.10827017042E+03  0.21538492896E+03  0.12509770364E+03 0.  0.
         23    2    1    2    0    0  0.13307698456E+03 -0.36184506993E+02 -0.12517035717E+03  0.21174567657E+03  0.10074626974E+03 0.  0.
          5    1    3    3  502    0 -0.80783481445E+01  0.51416984985E+02 -0.62252333022E+02  0.81251408729E+02  0.41800000000E+01 0. -1.
         -5    1    3    3    0  502 -0.12499863641E+03 -0.15232477992E+02 -0.46017837397E+02  0.13413352023E+03  0.41800000000E+01 0. -1.
        -11    1    4    4    0    0 -0.41737952463E+00 -0.15181570502E+02 -0.59669006186E+02  0.61571459198E+02  0.00000000000E+00 0. -1.
         11    1    4    4    0    0  0.13349436408E+03 -0.21002936491E+02 -0.65501350985E+02  0.15017421737E+03  0.00000000000E+00 0.  1.
</event>
<event>
 8    1  0.7168478E-009  0.1200068E+03  0.7561462E-02  0.1243086E+00
          2   -1    0    0  501    0  0.00000000000E+00  0.00000000000E+00  0.19072414746E+03  0.19072414746E+03  0.00000000000E+00 0. -1.
         -2   -1    0    0    0  501 -0.00000000000E+00 -0.00000000000E+00 -0.12812193727E+03  0.12812193727E+03  0.00000000000E+00 0.  1.
         25    2    1    2    0    0  0.47643664495E+02 -0.94374824523E+02 -0.39302541341E+01  0.16382863418E+03  0.12509135945E+03 0.  0.
         23    2    1    2    0    0 -0.47643664495E+02  0.94374824523E+02  0.66532464329E+02  0.15501745055E+03  0.91800407932E+02 0.  0.
          5    1    3    3  502    0 -0.15425487789E+02 -0.53047393211E+02  0.47072647075E+02  0.72699918175E+02  0.41800000000E+01 0.  1.
         -5    1    3    3    0  502  0.63069152283E+02 -0.41327431312E+02 -0.51002901209E+02  0.91128716003E+02  0.41800000000E+01 0.  1.
        -11    1    4    4    0    0 -0.45399012514E+01  0.37269856633E+02  0.74102763681E+02  0.83071490309E+02  0.00000000000E+00 0.  1.
         11    1    4    4    0    0 -0.43103763243E+02  0.57104967889E+02 -0.75702993527E+01  0.71945960246E+02  0.00000000000E+00 0. -1.
</event>
<event>
 8    1  0.7168478E-009  0.9336314E+02  0.7561462E-02  0.1294906E+00
          2   -1    0    0  501    0  0.00000000000E+00  0.00000000000E+00  0.37236508195E+03  0.37236508195E+03  0.00000000000E+00 0. -1.
         -2   -1    0    0    0  501 -0.00000000000E+00 -0.00000000000E+00 -0.35890824787E+02  0.35890824787E+02  0.00000000000E+00 0.  1.
         25    2    1    2    0    0 -0.27884888469E+02  0.24810750580E+02  0.14858373891E+03  0.19778199810E+03  0.12508977158E+03 0.  0.
         23    2    1    2    0    0  0.27884888469E+02 -0.24810750580E+02  0.18789051825E+03  0.21047390863E+03  0.87196783304E+02 0.  0.
          5    1    3    3  502    0 -0.63514447562E+02  0.12700589280E+02  0.26754009467E+02  0.70204269384E+02  0.41800000000E+01 0. -1.
         -5    1    3    3    0  502  0.35629559093E+02  0.12110161300E+02  0.12182972945E+03  0.12757772872E+03  0.41800000000E+01 0. -1.
        -11    1    4    4    0    0  0.30299885558E+02 -0.50101443056E+02  0.77126152377E+02  0.96833264127E+02  0.00000000000E+00 0.  1.
         11    1    4    4    0    0 -0.24149970889E+01  0.25290692476E+02  0.11076436587E+03  0.11364064451E+03  0.00000000000E+00 0. -1.
</event>
<event>
 8    1  0.7168478E-009  0.1276059E+03  0.7561462E-02  0.1231052E+00
         -4   -1    0    0    0  501 -0.00000000000E+00  0.00000000000E+00  0.12030449254E+03  0.12030449254E+03  0.00000000000E+00 0.  1.
          4   -1    0    0  501    0  0.00000000000E+00 -0.00000000000E+00 -0.28706487081E+03  0.28706487081E+03  0.00000000000E+00 0. -1.
         25    2    1    2    0    0 -0.87811264594E+02  0.90428649194E+02 -0.17819048262E+03  0.25156982151E+03  0.12508944086E+03 0.  0.
         23    2    1    2    0    0  0.87811264594E+02 -0.90428649194E+02  0.11430104351E+02  0.15579954184E+03  0.90855330981E+02 0.  0.
          5    1    3    3  502    0 -0.87028162417E+02  0.83260615632E+02 -0.19703263973E+03  0.23096658782E+03  0.41800000000E+01 0. -1.
         -5    1    3    3    0  502 -0.78310217686E+00  0.71680335619E+01  0.18842157110E+02  0.20603233696E+02  0.41800000000E+01 0. -1.
        -11    1    4    4    0    0  0.39409823909E+02 -0.34286652148E+02 -0.39818481738E+02  0.65682723938E+02  0.00000000000E+00 0. -1.
         11    1    4    4    0    0  0.48401440685E+02 -0.56141997046E+02  0.51248586089E+02  0.90116817902E+02  0.00000000000E+00 0.  1.
</event>
<event>
 8    1  0.7168478E-009  0.3792823E+03  0.7561462E-02  0.1051199E+00
          2   -1    0    0  501    0  0.00000000000E+00  0.00000000000E+00  0.10496771363E+04  0.10496771363E+04  0.00000000000E+00 0. -1.
         -2   -1    0    0    0  501 -0.00000000000E+00 -0.00000000000E+00 -0.13977653023E+03  0.13977653023E+03  0.00000000000E+00 0.  1.
         25    2    1    2    0    0  0.23048145906E+03  0.28480446136E+03  0.49888491120E+03  0.63148150853E+03  0.12508979503E+03 0.  0.
         23    2    1    2    0    0 -0.23048145906E+03 -0.28480446136E+03  0.41101569489E+03  0.55797215802E+03  0.90353436582E+02 0.  0.
          5    1    3    3  502    0 -0.11480722393E+02  0.16983808237E+02  0.58147387091E+02  0.61796826410E+02  0.41800000000E+01 0. -1.
         -5    1    3    3    0  502  0.24196218145E+03  0.26782065312E+03  0.44073752410E+03  0.56968468212E+03  0.41800000000E+01 0. -1.
        -11    1    4    4    0    0 -0.16162074026E+03 -0.13056203840E+03  0.21005286563E+03  0.29544866883E+03  0.00000000000E+00 0.  1.
         11    1    4    4    0    0 -0.68860718794E+02 -0.15424242296E+03  0.20096282926E+03  0.26252348919E+03  0.00000000000E+00 0. -1.
</event>
<event>
 8    1  0.7168478E-009  0.1865131E+03  0.7561462E-02  0.1161644E+00
          2   -1    0    0  501    0  0.00000000000E+00  0.00000000000E+00  0.70789713350E+03  0.70789713350E+03  0.00000000000E+00 0. -1.
         -2   -1    0    0    0  501 -0.00000000000E+00 -0.00000000000E+00 -0.10087746552E+03  0.10087746552E+03  0.00000000000E+00 0.  1.
         25    2    1    2    0    0 -0.86267969158E+02 -0.14176757575E+03  0.40565420530E+02  0.21174739651E+03  0.12510475031E+03 0.  0.
         23    2    1    2    0    0  0.86267969158E+02  0.14176757575E+03  0.56645424745E+03  0.59702720250E+03  0.89615054725E+02 0.  0.
          5    1    3    3  502    0 -0.84587822632E+02 -0.16389974903E+03  0.41667300459E+02  0.18913451244E+03  0.41800000000E+01 0.  1.
         -5    1    3    3    0  502 -0.16801465258E+01  0.22132173282E+02 -0.11018799288E+01  0.22612884069E+02  0.41800000000E+01 0.  1.
        -11    1    4    4    0    0  0.52924257630E+02  0.86810692069E+02  0.19360941255E+03  0.21868168174E+03  0.00000000000E+00 0.  1.
         11    1    4    4    0    0  0.33343711527E+02  0.54956883681E+02  0.37284483490E+03  0.37834552076E+03  0.00000000000E+00 0. -1.
</event>
<event>
 8    1  0.7168478E-009  0.8304807E+02  0.7561462E-02  0.1320617E+00
          1   -1    0    0  501    0  0.00000000000E+00  0.00000000000E+00  0.24665265683E+03  0.24665265683E+03  0.00000000000E+00 0. -1.
         -1   -1    0    0    0  501 -0.00000000000E+00 -0.00000000000E+00 -0.48953292906E+02  0.48953292906E+02  0.00000000000E+00 0.  1.
         25    2    1    2    0    0 -0.25384536140E+01  0.14996552844E+02  0.97104676115E+02  0.15908380791E+03  0.12508796694E+03 0.  0.
         23    2    1    2    0    0  0.25384536140E+01 -0.14996552844E+02  0.10059468781E+03  0.13652214183E+03  0.91036606095E+02 0.  0.
          5    1    3    3  502    0  0.64940985644E+01 -0.28484834443E+02  0.10899518364E+03  0.11292024427E+03  0.41800000000E+01 0. -1.
         -5    1    3    3    0  502 -0.90325521785E+01  0.43481387287E+02 -0.11890507521E+02  0.46163563645E+02  0.41800000000E+01 0. -1.
        -11    1    4    4    0    0 -0.54494484846E+01  0.37996484064E+02  0.36424943780E+02  0.52916970996E+02  0.00000000000E+00 0.  1.
         11    1    4    4    0    0  0.79879020987E+01 -0.52993036908E+02  0.64169744033E+02  0.83605170832E+02  0.00000000000E+00 0. -1.
</event>
<event>
 8    1  0.7168478E-009  0.2208610E+03  0.7561462E-02  0.1133243E+00
         -1   -1    0    0    0  501 -0.00000000000E+00  0.00000000000E+00  0.94714003935E+03  0.94714003935E+03  0.00000000000E+00 0.  1.
          1   -1    0    0  501    0  0.00000000000E+00 -0.00000000000E+00 -0.60329186885E+02  0.60329186885E+02  0.00000000000E+00 0. -1.
         25    2    1    2    0    0 -0.34888454317E+02 -0.20015702525E+03  0.32790305650E+03  0.40552215776E+03  0.12509103475E+03 0.  0.
         23    2    1    2    0    0  0.34888454317E+02  0.20015702525E+03  0.55890779596E+03  0.60194706847E+03  0.93178913110E+02 0.  0.
          5    1    3    3  502    0  0.38596198589E+02 -0.69242865595E+02  0.16989205614E+03  0.18752339620E+03  0.41800000000E+01 0. -1.
         -5    1    3    3    0  502 -0.73484652906E+02 -0.13091415965E+03  0.15801100036E+03  0.21799876157E+03  0.41800000000E+01 0. -1.
        -11    1    4    4    0    0  0.50055771275E+02  0.11168207422E+03  0.41191942232E+03  0.42971627433E+03  0.00000000000E+00 0.  1.
         11    1    4    4    0    0 -0.15167316958E+02  0.88474951028E+02  0.14698837364E+03  0.17223079414E+03  0.00000000000E+00 0. -1.
</event>
<event>
 8    1  0.7168478E-009  0.9920557E+02  0.7561462E-02  0.1281975E+00
         -4   -1    0    0    0  501 -0.00000000000E+00  0.00000000000E+00  0.68807834303E+02  0.68807834303E+02  0.00000000000E+00 0.  1.
          4   -1    0    0  501    0  0.00000000000E+00 -0.00000000000E+00 -0.18528463818E+03  0.18528463818E+03  0.00000000000E+00 0. -1.
         25    2    1    2    0    0  0.58616595228E+01 -0.21309540764E+02 -0.94322463612E+02  0.15821635121E+03  0.12508889267E+03 0.  0.
         23    2    1    2    0    0 -0.58616595228E+01  0.21309540764E+02 -0.22154340269E+02  0.95876121274E+02  0.90625384181E+02 0.  0.
          5    1    3    3  502    0 -0.35432969404E+02 -0.45558442447E+02 -0.66723117288E+01  0.58249971183E+02  0.41800000000E+01 0.  1.
         -5    1    3    3    0  502  0.41294628927E+02  0.24248901682E+02 -0.87650151884E+02  0.99966380030E+02  0.41800000000E+01 0.  1.
        -11    1    4    4    0    0 -0.47855244077E+02  0.88030229228E+01 -0.53641926129E+01  0.48952958651E+02  0.00000000000E+00 0.  1.
         11    1    4    4    0    0  0.41993584555E+02  0.12506517842E+02 -0.16790147656E+02  0.46923162623E+02  0.00000000000E+00 0. -1.
</event>
<event>
 8    1  0.7168478E-009  0.1050041E+03  0.7561462E-02  0.1270112E+00
         -1   -1    0    0    0  501 -0.00000000000E+00  0.00000000000E+00  0.72071946358E+03  0.72071946358E+03  0.00000000000E+00 0.  1.
          1   -1    0    0  501    0  0.00000000000E+00 -0.00000000000E+00 -0.18258866946E+02  0.18258866946E+02  0.00000000000E+00 0. -1.
         25    2    1    2    0    0  0.23259031404E+02  0.26299843152E+02  0.33440107971E+03  0.35875217069E+03  0.12508546508E+03 0.  0.
         23    2    1    2    0    0 -0.23259031404E+02 -0.26299843152E+02  0.36805951692E+03  0.38022615983E+03  0.88721250735E+02 0.  0.
          5    1    3    3  502    0 -0.41015938727E+02 -0.10699712689E+02  0.54544446327E+02  0.69205202885E+02  0.41800000000E+01 0. -1.
         -5    1    3    3    0  502  0.64274970131E+02  0.36999555842E+02  0.27985663338E+03  0.28954696781E+03  0.41800000000E+01 0. -1.
        -11    1    4    4    0    0  0.27979341092E+02 -0.30903712146E+02  0.20678217247E+03  0.21094252725E+03  0.00000000000E+00 0.  1.
         11    1    4    4    0    0 -0.51238372496E+02  0.46038689935E+01  0.16127734445E+03  0.16928363258E+03  0.00000000000E+00 0. -1.
</event>
<event>
 8    1  0.7168478E-009  0.1103760E+03  0.7561462E-02  0.1259875E+00
          2   -1    0    0  501    0  0.00000000000E+00  0.00000000000E+00  0.43535406460E+02  0.43535406460E+02  0.00000000000E+00 0. -1.
         -2   -1    0    0    0  501 -0.00000000000E+00 -0.00000000000E+00 -0.45234798705E+03  0.45234798705E+03  0.00000000000E+00 0.  1.
         25    2    1    2    0    0 -0.36555753104E+02 -0.73564532780E+02 -0.17038287895E+03  0.22677475035E+03  0.12509355853E+03 0.  0.
         23    2    1    2    0    0  0.36555753104E+02  0.73564532780E+02 -0.23842970164E+03  0.26910864316E+03  0.93929098977E+02 0.  0.
          5    1    3    3  502    0 -0.75092394898E+02 -0.54689146632E+02 -0.66562850279E+02  0.11435845386E+03  0.41800000000E+01 0.  1.
         -5    1    3    3    0  502  0.38536641794E+02 -0.18875386148E+02 -0.10382002867E+03  0.11241629649E+03  0.41800000000E+01 0.  1.
        -11    1    4    4    0    0  0.36743219408E+02  0.55372194422E+02 -0.24166016115E+03  0.25063075943E+03  0.00000000000E+00 0.  1.
         11    1    4    4    0    0 -0.18746630318E+00  0.18192338358E+02  0.32304595111E+01  0.18477883732E+02  0.00000000000E+00 0. -1.
</event>
<event>
 8    1  0.7168478E-009  0.1260545E+03  0.7561462E-02  0.1233430E+00
         -1   -1    0    0    0  501 -0.00000000000E+00  0.00000000000E+00  0.17057994709E+03  0.17057994709E+03  0.00000000000E+00 0.  1.
          1   -1    0    0  501    0  0.00000000000E+00 -0.00000000000E+00 -0.94941892710E+02  0.94941892710E+02  0.00000000000E+00 0. -1.
         25    2    1    2    0    0  0.62599550983E+02  0.37683236448E+01  0.27538978749E+02  0.14261394108E+03  0.12508971497E+03 0.  0.
         23    2    1    2    0    0 -0.62599550983E+02 -0.37683236448E+01  0.48099075629E+02  0.12290789872E+03  0.94127182289E+02 0.  0.
          5    1    3    3  502    0  0.64356023622E+02 -0.52366503535E+02  0.10264465756E+02  0.83706511851E+02  0.41800000000E+01 0.  1.
         -5    1    3    3    0  502 -0.17564726396E+01  0.56134827180E+02  0.17274512993E+02  0.58907429224E+02  0.41800000000E+01 0.  1.
        -11    1    4    4    0    0 -0.86546100106E+02 -0.12044449017E+02  0.32939494317E+02  0.93382581254E+02  0.00000000000E+00 0. -1.
         11    1    4    4    0    0  0.23946549123E+02  0.82761253721E+01  0.15159581312E+02  0.29525317469E+02  0.00000000000E+00 0.  1.
</event>
<event>
 8    1  0.7168478E-009  0.1755504E+03  0.7561462E-02  0.1172180E+00
          2   -1    0    0  501    0  0.00000000000E+00  0.00000000000E+00  0.34739355145E+03  0.34739355145E+03  0.00000000000E+00 0. -1.
         -2   -1    0    0    0  501 -0.00000000000E+00 -0.00000000000E+00 -0.10966998530E+03  0.10966998530E+03  0.00000000000E+00 0.  1.
         25    2    1    2    0    0  0.84926310715E+02  0.12055747421E+03  0.46602432770E+02  0.19891133940E+03  0.12508937350E+03 0.  0.
         23    2    1    2    0    0 -0.84926310715E+02 -0.12055747421E+03  0.19112113338E+03  0.25815219734E+03  0.91480525412E+02 0.  0.
          5    1    3    3  502    0  0.83074163487E+02  0.13823671396E+03  0.14505342852E+02  0.16198328030E+03  0.41800000000E+01 0. -1.
         -5    1    3    3    0  502  0.18521472279E+01 -0.17679239750E+02  0.32097089918E+02  0.36928059097E+02  0.41800000000E+01 0. -1.
        -11    1    4    4    0    0 -0.33245836851E+02 -0.11478854406E+03  0.15043275491E+03  0.19212420270E+03  0.00000000000E+00 0. -1.
         11    1    4    4    0    0 -0.51680473864E+02 -0.57689301570E+01  0.40688378468E+02  0.66027994641E+02  0.00000000000E+00 0.  1.
</event>
<event>
 8    1  0.7168478E-009  0.1231323E+03  0.7561462E-02  0.1238017E+00
         -2   -1    0    0    0  501 -0.00000000000E+00  0.00000000000E+00  0.21679972303E+02  0.21679972303E+02  0.00000000000E+00 0.  1.
          2   -1    0    0  501    0  0.00000000000E+00 -0.00000000000E+00 -0.90279988429E+03  0.90279988429E+03  0.00000000000E+00 0. -1.
         25    2    1    2    0    0 -0.73469537732E+02 -0.18761144606E+01 -0.65077366580E+03  0.66675161630E+03  0.12510020368E+03 0.  0.
         23    2    1    2    0    0  0.73469537732E+02  0.18761144606E+01 -0.23034624619E+03  0.25772824029E+03  0.89236539222E+02 0.  0.
          5    1    3    3  502    0 -0.31119813180E+02 -0.58719183637E+02 -0.21026588292E+03  0.22055747373E+03  0.41800000000E+01 0. -1.
         -5    1    3    3    0  502 -0.42349724552E+02  0.56843069177E+02 -0.44050778288E+03  0.44619414257E+03  0.41800000000E+01 0. -1.
        -11    1    4    4    0    0  0.47517529290E+02 -0.38169873369E+02 -0.17123583252E+03  0.18175963568E+03  0.00000000000E+00 0. -1.
         11    1    4    4    0    0  0.25952008442E+02  0.40045987830E+02 -0.59110413668E+02  0.75968604617E+02  0.00000000000E+00 0.  1.
</event>
<event>
 8    1  0.7168478E-009  0.1317584E+03  0.7561462E-02  0.1224870E+00
         -1   -1    0    0    0  501 -0.00000000000E+00  0.00000000000E+00  0.21033036293E+02  0.21033036293E+02  0.00000000000E+00 0. -1.
          1   -1    0    0  501    0  0.00000000000E+00 -0.00000000000E+00 -0.89118840108E+03  0.89118840108E+03  0.00000000000E+00 0.  1.
         25    2    1    2    0    0  0.90190907938E+01  0.81433809404E+02 -0.45419246135E+03  0.47817530678E+03  0.12509205712E+03 0.  0.
         23    2    1    2    0    0 -0.90190907938E+01 -0.81433809404E+02 -0.41596290344E+03  0.43404613059E+03  0.93048896466E+02 0.  0.
          5    1    3    3  502    0  0.59860427637E+02  0.25423634291E+02 -0.29168037809E+03  0.29887212540E+03  0.41800000000E+01 0. -1.
         -5    1    3    3    0  502 -0.50841336843E+02  0.56010175113E+02 -0.16251208326E+03  0.17930318138E+03  0.41800000000E+01 0. -1.
        -11    1    4    4    0    0 -0.43855537566E+02 -0.75408875476E+02 -0.26458667249E+03  0.27859632793E+03  0.00000000000E+00 0.  1.
         11    1    4    4    0    0  0.34836446772E+02 -0.60249339275E+01 -0.15137623094E+03  0.15544980266E+03  0.00000000000E+00 0. -1.
</event>
<event>
 8    1  0.7168478E-009  0.9113354E+02  0.7561462E-02  0.1300130E+00
         -1   -1    0    0    0  501 -0.00000000000E+00  0.00000000000E+00  0.12329392760E+03  0.12329392760E+03  0.00000000000E+00 0.  1.
          1   -1    0    0  501    0  0.00000000000E+00 -0.00000000000E+00 -0.14019214950E+03  0.14019214950E+03  0.00000000000E+00 0. -1.
         25    2    1    2    0    0 -0.11089581483E+02 -0.50379267024E+02 -0.63038703715E+02  0.14927133547E+03  0.12508798529E+03 0.  0.
         23    2    1    2    0    0  0.11089581483E+02  0.50379267024E+02  0.46140481809E+02  0.11421474163E+03  0.90857106388E+02 0.  0.
          5    1    3    3  502    0 -0.49868626336E+02 -0.89581250479E+01  0.14714244453E+02  0.52925506958E+02  0.41800000000E+01 0. -1.
         -5    1    3    3    0  502  0.38779044853E+02 -0.41421141976E+02 -0.77752948168E+02  0.96345828510E+02  0.41800000000E+01 0. -1.
        -11    1    4    4    0    0  0.26483856929E+02  0.52685518534E+02  0.66310337466E+02  0.88736798432E+02  0.00000000000E+00 0.  1.
         11    1    4    4    0    0 -0.15394275446E+02 -0.23062515093E+01 -0.20169855657E+02  0.25477943201E+02  0.00000000000E+00 0. -1.
</event>
<event>
 8    1  0.7168478E-009  0.6808390E+02  0.7561462E-02  0.1366733E+00
          2   -1    0    0  501    0  0.00000000000E+00  0.00000000000E+00  0.54629287763E+02  0.54629287763E+02  0.00000000000E+00 0.  1.
         -2   -1    0    0    0  501 -0.00000000000E+00 -0.00000000000E+00 -0.26808511889E+03  0.26808511889E+03  0.00000000000E+00 0. -1.
         25    2    1    2    0    0  0.37143940748E+02  0.15218326598E+02 -0.77482769187E+02  0.15251993846E+03  0.12508989691E+03 0.  0.
         23    2    1    2    0    0 -0.37143940748E+02 -0.15218326598E+02 -0.13597306194E+03  0.17019446820E+03  0.94160573660E+02 0.  0.
          5    1    3    3  502    0  0.61052598178E+02  0.28709510841E+02  0.27158667057E+01  0.67649863924E+02  0.41800000000E+01 0.  1.
         -5    1    3    3    0  502 -0.23908657430E+02 -0.13491184242E+02 -0.80198635892E+02  0.84870074534E+02  0.41800000000E+01 0.  1.
        -11    1    4    4    0    0 -0.26126777959E+02 -0.69688477680E+01 -0.14888617371E+03  0.15132173039E+03  0.00000000000E+00 0. -1.
         11    1    4    4    0    0 -0.11017162789E+02 -0.82494788303E+01  0.12913111767E+02  0.18872737809E+02  0.00000000000E+00 0.  1.
</event>
<event>
 8    1  0.7168478E-009  0.2061237E+03  0.7561462E-02  0.1144673E+00
          1   -1    0    0  501    0  0.00000000000E+00  0.00000000000E+00  0.52629418109E+02  0.52629418109E+02  0.00000000000E+00 0. -1.
         -1   -1    0    0    0  501 -0.00000000000E+00 -0.00000000000E+00 -0.94391868301E+03  0.94391868301E+03  0.00000000000E+00 0.  1.
         25    2    1    2    0    0  0.15796368196E+03  0.10819896847E+03 -0.40921012815E+03  0.46878587021E+03  0.12509085310E+03 0.  0.
         23    2    1    2    0    0 -0.15796368196E+03 -0.10819896847E+03 -0.48207913675E+03  0.52776223091E+03  0.97330040036E+02 0.  0.
          5    1    3    3  502    0  0.16008597345E+03  0.82745241296E+02 -0.40399460601E+03  0.44238377901E+03  0.41800000000E+01 0. -1.
         -5    1    3    3    0  502 -0.21222914886E+01  0.25453727174E+02 -0.52155221458E+01  0.26402091195E+02  0.41800000000E+01 0. -1.
        -11    1    4    4    0    0 -0.11625022148E+03 -0.11537475139E+03 -0.43306555024E+03  0.46300239531E+03  0.00000000000E+00 0.  1.
         11    1    4    4    0    0 -0.41713460474E+02  0.71757829215E+01 -0.49013586502E+02  0.64759835601E+02  0.00000000000E+00 0. -1.
</event>
<event>
 8    1  0.7168478E-009  0.1461722E+03  0.7561462E-02  0.1205257E+00
         -1   -1    0    0    0  501 -0.00000000000E+00  0.00000000000E+00  0.10936467905E+03  0.10936467905E+03  0.00000000000E+00 0.  1.
          1   -1    0    0  501    0  0.00000000000E+00 -0.00000000000E+00 -0.33320782767E+03  0.33320782767E+03  0.00000000000E+00 0. -1.
         25    2    1    2    0    0  0.12239600323E+03  0.33746160802E+02 -0.12618310406E+02  0.17867766202E+03  0.12508757001E+03 0.  0.
         23    2    1    2    0    0 -0.12239600323E+03 -0.33746160802E+02 -0.21122483822E+03  0.26389484470E+03  0.94366158153E+02 0.  0.
          5    1    3    3  502    0  0.10146894760E+03 -0.11904144642E+02  0.36245900124E+02  0.10848453191E+03  0.41800000000E+01 0. -1.
         -5    1    3    3    0  502  0.20927055628E+02  0.45650305444E+02 -0.48864210530E+02  0.70193130113E+02  0.41800000000E+01 0. -1.
        -11    1    4    4    0    0 -0.33342050262E+02  0.16765796098E+02 -0.12367739530E+03  0.12918545717E+03  0.00000000000E+00 0. -1.
         11    1    4    4    0    0 -0.89053952970E+02 -0.50511956900E+02 -0.87547442915E+02  0.13470938754E+03  0.00000000000E+00 0.  1.
</event>
<event>
 8    1  0.7168478E-009  0.2547809E+03  0.7561462E-02  0.1110320E+00
         -1   -1    0    0    0  501 -0.00000000000E+00  0.00000000000E+00  0.53871857122E+02  0.53871857122E+02  0.00000000000E+00 0. -1.
          1   -1    0    0  501    0  0.00000000000E+00 -0.00000000000E+00 -0.14547202876E+04  0.14547202876E+04  0.00000000000E+00 0.  1.
         25    2    1    2    0    0  0.14726626957E+03  0.19156807387E+03 -0.95485338773E+03  0.99286124646E+03  0.12507110611E+03 0.  0.
         23    2    1    2    0    0 -0.14726626957E+03 -0.19156807387E+03 -0.44599504278E+03  0.51573089829E+03  0.93172421821E+02 0.  0.
          5    1    3    3  502    0 -0.75250661046E+01  0.22286532623E+02 -0.22932899868E+02  0.33116558586E+02  0.41800000000E+01 0. -1.
         -5    1    3    3    0  502  0.15479133568E+03  0.16928154125E+03 -0.93192048786E+03  0.95974468788E+03  0.41800000000E+01 0. -1.
        -11    1    4    4    0    0 -0.15576287309E+03 -0.15896602196E+03 -0.35840047443E+03  0.42188051489E+03  0.00000000000E+00 0. -1.
         11    1    4    4    0    0  0.84966035223E+01 -0.32602051913E+02 -0.87594568346E+02  0.93850383398E+02  0.00000000000E+00 0.  1.
</event>
<event>
 8    1  0.7168478E-009  0.8288524E+02  0.7561462E-02  0.1321057E+00
          2   -1    0    0  501    0  0.00000000000E+00  0.00000000000E+00  0.17380848549E+04  0.17380848549E+04  0.00000000000E+00 0. -1.
         -2   -1    0    0    0  501 -0.00000000000E+00 -0.00000000000E+00 -0.11761297955E+02  0.11761297955E+02  0.00000000000E+00 0.  1.
         25    2    1    2    0    0  0.39594740132E+02  0.19905915293E+02  0.14418037343E+04  0.14478984565E+04  0.12509173832E+03 0.  0.
         23    2    1    2    0    0 -0.39594740132E+02 -0.19905915293E+02  0.28451982266E+03  0.30194769643E+03  0.90867447339E+02 0.  0.
          5    1    3    3  502    0 -0.23312837277E+02  0.63196060506E+01  0.10872774709E+04  0.10875537674E+04  0.41800000000E+01 0. -1.
         -5    1    3    3    0  502  0.62907577409E+02  0.13586309242E+02  0.35452626344E+03  0.36034468910E+03  0.41800000000E+01 0. -1.
        -11    1    4    4    0    0  0.49366583826E+01 -0.30575851127E+02  0.29241499210E+02  0.42594818278E+02  0.00000000000E+00 0.  1.
         11    1    4    4    0    0 -0.44531398515E+02  0.10669935834E+02  0.25527832345E+03  0.25935287815E+03  0.00000000000E+00 0. -1.
</event>
<event>
 8    1  0.7168478E-009  0.6745412E+02  0.7561462E-02  0.1368971E+00
          2   -1    0    0  501    0  0.00000000000E+00  0.00000000000E+00  0.19015692032E+03  0.19015692032E+03  0.00000000000E+00 0. -1.
         -2   -1    0    0    0  501 -0.00000000000E+00 -0.00000000000E+00 -0.62753294240E+02  0.62753294240E+02  0.00000000000E+00 0.  1.
         25    2    1    2    0    0  0.48715551070E+01 -0.10604062334E+02  0.10848560859E+03  0.16598503622E+03  0.12508287968E+03 0.  0.
         23    2    1    2    0    0 -0.48715551070E+01  0.10604062334E+02  0.18918017490E+02  0.86925178347E+02  0.84035213201E+02 0.  0.
          5    1    3    3  502    0  0.25687799483E+01 -0.47026294407E+02  0.11877308098E+03  0.12783813266E+03  0.41800000000E+01 0. -1.
         -5    1    3    3    0  502  0.23027751587E+01  0.36422232073E+02 -0.10287472391E+02  0.38146903554E+02  0.41800000000E+01 0. -1.
        -11    1    4    4    0    0  0.19332223651E+02  0.17124975734E+02 -0.25263406861E+02  0.36128096980E+02  0.00000000000E+00 0.  1.
         11    1    4    4    0    0 -0.24203778758E+02 -0.65209133995E+01  0.44181424351E+02  0.50797081367E+02  0.00000000000E+00 0. -1.
</event>
<event>
 8    1  0.7168478E-009  0.1723203E+03  0.7561462E-02  0.1175450E+00
         -2   -1    0    0    0  501 -0.00000000000E+00  0.00000000000E+00  0.99681866445E+02  0.99681866445E+02  0.00000000000E+00 0.  1.
          2   -1    0    0  501    0  0.00000000000E+00 -0.00000000000E+00 -0.34370673645E+03  0.34370673645E+03  0.00000000000E+00 0. -1.
         25    2    1    2    0    0  0.98218147882E+02 -0.10433405125E+03 -0.71160171317E+02  0.20308372350E+03  0.12508728930E+03 0.  0.
         23    2    1    2    0    0 -0.98218147882E+02  0.10433405125E+03 -0.17286469869E+03  0.24030487940E+03  0.85626118592E+02 0.  0.
          5    1    3    3  502    0 -0.10523059215E+02 -0.72876472846E+02 -0.46397548886E+02  0.87131624640E+02  0.41800000000E+01 0. -1.
         -5    1    3    3    0  502  0.10874120710E+03 -0.31457578407E+02 -0.24762622431E+02  0.11595209886E+03  0.41800000000E+01 0. -1.
        -11    1    4    4    0    0 -0.19061488200E+02  0.67805795419E+02 -0.38873285829E+02  0.80449354105E+02  0.00000000000E+00 0. -1.
         11    1    4    4    0    0 -0.79156659682E+02  0.36528255834E+02 -0.13399141286E+03  0.15985552529E+03  0.00000000000E+00 0.  1.
</event>
<event>
 8    1  0.7168478E-009  0.1173817E+03  0.7561462E-02  0.1247480E+00
          1   -1    0    0  501    0  0.00000000000E+00  0.00000000000E+00  0.21829981061E+03  0.21829981061E+03  0.00000000000E+00 0. -1.
         -1   -1    0    0    0  501 -0.00000000000E+00 -0.00000000000E+00 -0.83469006460E+02  0.83469006460E+02  0.00000000000E+00 0.  1.
         25    2    1    2    0    0 -0.12861635828E+02  0.69331139149E+02  0.11731972632E+03  0.18542856216E+03  0.12509038711E+03 0.  0.
         23    2    1    2    0    0  0.12861635828E+02 -0.69331139149E+02  0.17511077827E+02  0.11634025491E+03  0.90863570995E+02 0.  0.
          5    1    3    3  502    0 -0.38442556573E+02 -0.70559035454E+01  0.93333267243E+02  0.10127283498E+03  0.41800000000E+01 0. -1.
         -5    1    3    3    0  502  0.25580920745E+02  0.76387042694E+02  0.23986459078E+02  0.84155727178E+02  0.41800000000E+01 0. -1.
        -11    1    4    4    0    0 -0.18102505748E+02  0.15909741642E+02  0.66550534555E+01  0.25002206503E+02  0.00000000000E+00 0. -1.
         11    1    4    4    0    0  0.30964141576E+02 -0.85240880791E+02  0.10856024371E+02  0.91338048407E+02  0.00000000000E+00 0.  1.
</event>
<event>
 8    1  0.7168478E-009  0.1600262E+03  0.7561462E-02  0.1188667E+00
         -2   -1    0    0    0  501 -0.00000000000E+00  0.00000000000E+00  0.20944073280E+02  0.20944073280E+02  0.00000000000E+00 0.  1.
          2   -1    0    0  501    0  0.00000000000E+00 -0.00000000000E+00 -0.43001319997E+04  0.43001319997E+04  0.00000000000E+00 0. -1.
         25    2    1    2    0    0  0.77621175205E+02  0.10737316452E+03 -0.39536892549E+04  0.39578858097E+04  0.12508922646E+03 0.  0.
         23    2    1    2    0    0 -0.77621175205E+02 -0.10737316452E+03 -0.32549867152E+03  0.36319026333E+03  0.91671909113E+02 0.  0.
          5    1    3    3  502    0  0.81843524726E+02  0.39222389868E+02 -0.12355347197E+04  0.12388705640E+04  0.41800000000E+01 0. -1.
         -5    1    3    3    0  502 -0.42223495214E+01  0.68150774654E+02 -0.27181545353E+04  0.27190152457E+04  0.41800000000E+01 0. -1.
        -11    1    4    4    0    0 -0.68483670667E+02 -0.12409335171E+03 -0.27896827039E+03  0.31290968181E+03  0.00000000000E+00 0. -1.
         11    1    4    4    0    0 -0.91375045381E+01  0.16720187192E+02 -0.46530401127E+02  0.50280581520E+02  0.00000000000E+00 0.  1.
</event>
<event>
 8    1  0.7168478E-009  0.1521960E+03  0.7561462E-02  0.1197800E+00
         -1   -1    0    0    0  501 -0.00000000000E+00  0.00000000000E+00  0.73268346597E+02  0.73268346597E+02  0.00000000000E+00 0.  1.
          1   -1    0    0  501    0  0.00000000000E+00 -0.00000000000E+00 -0.47182408118E+03  0.47182408118E+03  0.00000000000E+00 0. -1.
         25    2    1    2    0    0  0.12548220438E+03  0.24557675925E+01 -0.87591263492E+02  0.19766454544E+03  0.12508888310E+03 0.  0.
         23    2    1    2    0    0 -0.12548220438E+03 -0.24557675925E+01 -0.31096447109E+03  0.34742788233E+03  0.90859323856E+02 0.  0.
          5    1    3    3  502    0 -0.14103275668E+02  0.75817878573E+00 -0.51293335881E+02  0.53366243314E+02  0.41800000000E+01 0.  1.
         -5    1    3    3    0  502  0.13958548005E+03  0.16975888068E+01 -0.36297927611E+02  0.14429830213E+03  0.41800000000E+01 0.  1.
        -11    1    4    4    0    0 -0.81542134893E+02  0.38285746143E+02 -0.22745875526E+03  0.24464750860E+03  0.00000000000E+00 0.  1.
         11    1    4    4    0    0 -0.43940069489E+02 -0.40741513735E+02 -0.83505715829E+02  0.10278037373E+03  0.00000000000E+00 0. -1.
</event>
<event>
 8    1  0.7168478E-009  0.4512665E+03  0.7561462E-02  0.1027345E+00
         -2   -1    0    0    0  501 -0.00000000000E+00  0.00000000000E+00  0.18187719575E+03  0.18187719575E+03  0.00000000000E+00 0.  1.
          2   -1    0    0  501    0  0.00000000000E+00 -0.00000000000E+00 -0.17187132920E+04  0.17187132920E+04  0.00000000000E+00 0. -1.
         25    2    1    2    0    0 -0.43366191033E+03 -0.12359619133E+03 -0.24242001710E+03  0.52702432648E+03  0.12509398480E+03 0.  0.
         23    2    1    2    0    0  0.43366191033E+03  0.12359619133E+03 -0.12944160791E+04  0.13735661612E+04  0.88500522221E+02 0.  0.
          5    1    3    3  502    0 -0.42027475307E+03 -0.12057771852E+03 -0.19734432896E+03  0.47972086764E+03  0.41800000000E+01 0. -1.
         -5    1    3    3    0  502 -0.13387157257E+02 -0.30184728082E+01 -0.45075688142E+02  0.47303458848E+02  0.41800000000E+01 0. -1.
        -11    1    4    4    0    0  0.27488613703E+02  0.72190628242E+01 -0.34544073843E+02  0.44732893815E+02  0.00000000000E+00 0.  1.
         11    1    4    4    0    0  0.40617329663E+03  0.11637712850E+03 -0.12598720053E+04  0.13288332674E+04  0.00000000000E+00 0. -1.
</event>
<event>
 8    1  0.7168478E-009  0.4199217E+03  0.7561462E-02  0.1037092E+00
         -1   -1    0    0    0  501 -0.00000000000E+00  0.00000000000E+00  0.24091126387E+03  0.24091126387E+03  0.00000000000E+00 0.  1.
          1   -1    0    0  501    0  0.00000000000E+00 -0.00000000000E+00 -0.90571729798E+03  0.90571729798E+03  0.00000000000E+00 0. -1.
         25    2    1    2    0    0  0.40193379982E+03  0.82967985683E+02 -0.96027635554E+02  0.43966257783E+03  0.12508960576E+03 0.  0.
         23    2    1    2    0    0 -0.40193379982E+03 -0.82967985683E+02 -0.56877839856E+03  0.70696598402E+03  0.88642934357E+02 0.  0.
          5    1    3    3  502    0  0.26913618611E+03  0.11187372953E+03 -0.82944729946E+02  0.30306322552E+03  0.41800000000E+01 0. -1.
         -5    1    3    3    0  502  0.13279761371E+03 -0.28905743846E+02 -0.13082905608E+02  0.13659935232E+03  0.41800000000E+01 0. -1.
        -11    1    4    4    0    0 -0.18254926395E+02 -0.12907504772E+02 -0.77011751901E+01  0.23646439825E+02  0.00000000000E+00 0.  1.
         11    1    4    4    0    0 -0.38367887343E+03 -0.70060480912E+02 -0.56107722337E+03  0.68331954420E+03  0.00000000000E+00 0. -1.
</event>
<event>
 8    1  0.7168478E-009  0.1059754E+03  0.7561462E-02  0.1268210E+00
          1   -1    0    0  501    0  0.00000000000E+00  0.00000000000E+00  0.35064298206E+02  0.35064298206E+02  0.00000000000E+00 0. -1.
         -1   -1    0    0    0  501 -0.00000000000E+00 -0.00000000000E+00 -0.37304771952E+03  0.37304771952E+03  0.00000000000E+00 0.  1.
         25    2    1    2    0    0 -0.97777699980E+01  0.13580449578E+02 -0.24783582697E+03  0.27811890435E+03  0.12508994537E+03 0.  0.
         23    2    1    2    0    0  0.97777699980E+01 -0.13580449578E+02 -0.90147594342E+02  0.12999311337E+03  0.92149809336E+02 0.  0.
          5    1    3    3  502    0 -0.35208768339E+02 -0.43419132339E+02 -0.16536246904E+03  0.17460554684E+03  0.41800000000E+01 0.  1.
         -5    1    3    3    0  502  0.25430998341E+02  0.56999581917E+02 -0.82473357930E+02  0.10351335751E+03  0.41800000000E+01 0.  1.
        -11    1    4    4    0    0 -0.76981759545E+01  0.38055213632E+02 -0.32273575783E+02  0.50488066822E+02  0.00000000000E+00 0. -1.
         11    1    4    4    0    0  0.17475945952E+02 -0.51635663210E+02 -0.57874018559E+02  0.79505046546E+02  0.00000000000E+00 0.  1.
</event>
<event>
 8    1  0.7168478E-009  0.9096856E+02  0.7561462E-02  0.1300523E+00
          2   -1    0    0  501    0  0.00000000000E+00  0.00000000000E+00  0.20297016554E+03  0.20297016554E+03  0.00000000000E+00 0. -1.
         -2   -1    0    0    0  501 -0.00000000000E+00 -0.00000000000E+00 -0.80475091287E+02  0.80475091287E+02  0.00000000000E+00 0.  1.
         25    2    1    2    0    0 -0.23661056990E+02  0.29219799090E+02  0.13283128758E+03  0.18629403911E+03  0.12509067019E+03 0.  0.
         23    2    1    2    0    0  0.23661056990E+02 -0.29219799090E+02 -0.10336213333E+02  0.97151217717E+02  0.88982467493E+02 0.  0.
          5    1    3    3  502    0 -0.55565332926E+02  0.40625783096E+02  0.25268016670E+02  0.73443213041E+02  0.41800000000E+01 0. -1.
         -5    1    3    3    0  502  0.31904275936E+02 -0.11405984007E+02  0.10756327091E+03  0.11285082607E+03  0.41800000000E+01 0. -1.
        -11    1    4    4    0    0 -0.60639005864E+01  0.20242807268E+02  0.22408824995E+02  0.30800934630E+02  0.00000000000E+00 0. -1.
         11    1    4    4    0    0  0.29724957577E+02 -0.49462606357E+02 -0.32745038329E+02  0.66350283087E+02  0.00000000000E+00 0.  1.
</event>
<event>
 8    1  0.7168478E-009  0.1087229E+03  0.7561462E-02  0.1262953E+00
          1   -1    0    0  501    0  0.00000000000E+00  0.00000000000E+00  0.44408798632E+02  0.44408798632E+02  0.00000000000E+00 0. -1.
         -1   -1    0    0    0  501 -0.00000000000E+00 -0.00000000000E+00 -0.39099579358E+03  0.39099579358E+03  0.00000000000E+00 0.  1.
         25    2    1    2    0    0  0.57684267268E+02  0.43191668493E+02 -0.18214230879E+03  0.23241363728E+03  0.12508910114E+03 0.  0.
         23    2    1    2    0    0 -0.57684267268E+02 -0.43191668493E+02 -0.16444468615E+03  0.20299095493E+03  0.94711551888E+02 0.  0.
          5    1    3    3  502    0  0.67178229345E+02 -0.33601951740E+00 -0.17448377382E+03  0.18701627505E+03  0.41800000000E+01 0.  1.
         -5    1    3    3    0  502 -0.94939620774E+01  0.43527688010E+02 -0.76585349679E+01  0.45397362228E+02  0.41800000000E+01 0.  1.
        -11    1    4    4    0    0 -0.76657601151E+02 -0.38789422018E+02 -0.16198623076E+03  0.18335906313E+03  0.00000000000E+00 0.  1.
         11    1    4    4    0    0  0.18973333883E+02 -0.44022464751E+01 -0.24584553886E+01  0.19631891798E+02  0.00000000000E+00 0. -1.
</event>
<event>
 8    1  0.7168478E-009  0.1546623E+03  0.7561462E-02  0.1194858E+00
          2   -1    0    0  501    0  0.00000000000E+00  0.00000000000E+00  0.27664986523E+03  0.27664986523E+03  0.00000000000E+00 0. -1.
         -2   -1    0    0    0  501 -0.00000000000E+00 -0.00000000000E+00 -0.10629195841E+03  0.10629195841E+03  0.00000000000E+00 0.  1.
         25    2    1    2    0    0 -0.12021090029E+03 -0.35071906188E+02  0.12817380004E+03  0.21852924457E+03  0.12508320656E+03 0.  0.
         23    2    1    2    0    0  0.12021090029E+03  0.35071906188E+02  0.42184106773E+02  0.16441257907E+03  0.97833011503E+02 0.  0.
          5    1    3    3  502    0 -0.13281351582E+03  0.61774112699E+01  0.10442704175E+03  0.16911555175E+03  0.41800000000E+01 0.  1.
         -5    1    3    3    0  502  0.12602615530E+02 -0.41249317458E+02  0.23746758295E+02  0.49413692823E+02  0.41800000000E+01 0.  1.
        -11    1    4    4    0    0  0.58527025271E+02  0.40305007786E+02  0.67048245230E+02  0.97700427472E+02  0.00000000000E+00 0. -1.
         11    1    4    4    0    0  0.61683875016E+02 -0.52331015982E+01 -0.24864138457E+02  0.66712151596E+02  0.00000000000E+00 0.  1.
</event>
<event>
 8    1  0.7168478E-009  0.8379495E+02  0.7561462E-02  0.1318614E+00
         -1   -1    0    0    0  501 -0.00000000000E+00  0.00000000000E+00  0.91327831490E+02  0.91327831490E+02  0.00000000000E+00 0.  1.
          1   -1    0    0  501    0  0.00000000000E+00 -0.00000000000E+00 -0.13741604630E+03  0.13741604630E+03  0.00000000000E+00 0. -1.
         25    2    1    2    0    0 -0.22645874885E+02  0.90685475454E+01 -0.13010491060E+02  0.12810527218E+03  0.12508642484E+03 0.  0.
         23    2    1    2    0    0  0.22645874885E+02 -0.90685475454E+01 -0.33077723752E+02  0.10063860561E+03  0.91863588692E+02 0.  0.
          5    1    3    3  502    0 -0.67614172531E+02 -0.14881039349E+02  0.13284749981E+02  0.70619251209E+02  0.41800000000E+01 0.  1.
         -5    1    3    3    0  502  0.44968297647E+02  0.23949586895E+02 -0.26295241041E+02  0.57486020971E+02  0.41800000000E+01 0.  1.
        -11    1    4    4    0    0  0.33387108998E+02 -0.53150771819E+00 -0.60992197324E+02  0.69534377700E+02  0.00000000000E+00 0. -1.
         11    1    4    4    0    0 -0.10741234113E+02 -0.85370398272E+01  0.27914473572E+02  0.31104227913E+02  0.00000000000E+00 0.  1.
</event>
<event>
 8    1  0.7168478E-009  0.1523965E+03  0.7561462E-02  0.1197559E+00
          2   -1    0    0  501    0  0.00000000000E+00  0.00000000000E+00  0.75673795924E+03  0.75673795924E+03  0.00000000000E+00 0. -1.
         -2   -1    0    0    0  501 -0.00000000000E+00 -0.00000000000E+00 -0.33983665637E+02  0.33983665637E+02  0.00000000000E+00 0.  1.
         25    2    1    2    0    0  0.11200381928E+03  0.89093750063E+01  0.47810903438E+03  0.50681416271E+03  0.12509242290E+03 0.  0.
         23    2    1    2    0    0 -0.11200381928E+03 -0.89093750063E+01  0.24464525922E+03  0.28390746217E+03  0.90154931755E+02 0.  0.
          5    1    3    3  502    0  0.33966101658E+02 -0.51611780462E+02  0.26127423452E+03  0.26851288604E+03  0.41800000000E+01 0.  1.
         -5    1    3    3    0  502  0.78037717623E+02  0.60521155469E+02  0.21683479986E+03  0.23830127667E+03  0.41800000000E+01 0.  1.
        -11    1    4    4    0    0 -0.12148745466E+03 -0.26219107840E+02  0.20895148289E+03  0.24312006387E+03  0.00000000000E+00 0.  1.
         11    1    4    4    0    0  0.94836353831E+01  0.17309732834E+02  0.35693776335E+02  0.40787398298E+02  0.00000000000E+00 0. -1.
</event>
<event>
 8    1  0.7168478E-009  0.1896129E+03  0.7561462E-02  0.1158811E+00
         -2   -1    0    0    0  501 -0.00000000000E+00  0.00000000000E+00  0.26400369752E+03  0.26400369752E+03  0.00000000000E+00 0.  1.
          2   -1    0    0  501    0  0.00000000000E+00 -0.00000000000E+00 -0.19410006442E+03  0.19410006442E+03  0.00000000000E+00 0. -1.
         25    2    1    2    0    0 -0.83188954280E+02 -0.16278246917E+03 -0.41716341208E+02  0.22540331568E+03  0.12509143540E+03 0.  0.
         23    2    1    2    0    0  0.83188954280E+02  0.16278246917E+03  0.11161997430E+03  0.23270044627E+03  0.90950231693E+02 0.  0.
          5    1    3    3  502    0 -0.39653534434E+02 -0.75245826309E+02 -0.83258878517E+02  0.11909597148E+03  0.41800000000E+01 0. -1.
         -5    1    3    3    0  502 -0.43535419846E+02 -0.87536642865E+02  0.41542537309E+02  0.10630734420E+03  0.41800000000E+01 0. -1.
        -11    1    4    4    0    0 -0.39042990651E+01  0.65600093622E+02  0.69318376507E+02  0.95517815908E+02  0.00000000000E+00 0.  1.
         11    1    4    4    0    0  0.87093253345E+02  0.97182375552E+02  0.42301597798E+02  0.13718263036E+03  0.00000000000E+00 0. -1.
</event>
<event>
 8    1  0.7168478E-009  0.1949796E+03  0.7561462E-02  0.1154045E+00
          4   -1    0    0  501    0  0.00000000000E+00  0.00000000000E+00  0.34938135580E+03  0.34938135580E+03  0.00000000000E+00 0.  1.
         -4   -1    0    0    0  501 -0.00000000000E+00 -0.00000000000E+00 -0.13351253537E+03  0.13351253537E+03  0.00000000000E+00 0. -1.
         25    2    1    2    0    0  0.14349457980E+03  0.11134380278E+03  0.67780671019E+02  0.23071608551E+03  0.12509019107E+03 0.  0.
         23    2    1    2    0    0 -0.14349457980E+03 -0.11134380278E+03  0.14808814941E+03  0.25217780565E+03  0.93141874699E+02 0.  0.
          5    1    3    3  502    0  0.73527132000E+02 -0.35472881496E+01 -0.11339206946E+02  0.74598072411E+02  0.41800000000E+01 0. -1.
         -5    1    3    3    0  502  0.69967447797E+02  0.11489109093E+03  0.79119877965E+02  0.15611801310E+03  0.41800000000E+01 0. -1.
        -11    1    4    4    0    0 -0.11817343247E+03 -0.92898991870E+02  0.15918770786E+03  0.21894270750E+03  0.00000000000E+00 0.  1.
         11    1    4    4    0    0 -0.25321147327E+02 -0.18444810907E+02 -0.11099558459E+02  0.33235098155E+02  0.00000000000E+00 0. -1.
</event>
<event>
 8    1  0.7168478E-009  0.1185792E+03  0.7561462E-02  0.1245459E+00
          1   -1    0    0  501    0  0.00000000000E+00  0.00000000000E+00  0.64222377315E+03  0.64222377315E+03  0.00000000000E+00 0. -1.
         -1   -1    0    0    0  501 -0.00000000000E+00 -0.00000000000E+00 -0.24543006649E+02  0.24543006649E+02  0.00000000000E+00 0.  1.
         25    2    1    2    0    0 -0.61939283081E+02 -0.95491590251E+00  0.36603793925E+03  0.39175109833E+03  0.12509102054E+03 0.  0.
         23    2    1    2    0    0  0.61939283081E+02  0.95491590251E+00  0.25164282724E+03  0.27501568146E+03  0.92044151871E+02 0.  0.
          5    1    3    3  502    0 -0.76329844220E+02 -0.41070067041E+02  0.30558643843E+03  0.31766891456E+03  0.41800000000E+01 0. -1.
         -5    1    3    3    0  502  0.14390561139E+02  0.40115151138E+02  0.60451500823E+02  0.74082183773E+02  0.41800000000E+01 0. -1.
        -11    1    4    4    0    0  0.12511750933E+02  0.41677633115E+02  0.70100895573E+02  0.82508815127E+02  0.00000000000E+00 0.  1.
         11    1    4    4    0    0  0.49427532148E+02 -0.40722717213E+02  0.18154193167E+03  0.19250686633E+03  0.00000000000E+00 0. -1.
</event>
<event>
 8    1  0.7168478E-009  0.1732894E+03  0.7561462E-02  0.1174460E+00
         -1   -1    0    0    0  501 -0.00000000000E+00  0.00000000000E+00  0.56944666039E+02  0.56944666039E+02  0.00000000000E+00 0.  1.
          1   -1    0    0  501    0  0.00000000000E+00 -0.00000000000E+00 -0.64153248976E+03  0.64153248976E+03  0.00000000000E+00 0. -1.
         25    2    1    2    0    0 -0.27426511719E+02 -0.15288163765E+03 -0.35559608600E+03  0.40770343060E+03  0.12509397375E+03 0.  0.
         23    2    1    2    0    0  0.27426511719E+02  0.15288163765E+03 -0.22899173772E+03  0.29077372520E+03  0.89370770633E+02 0.  0.
          5    1    3    3  502    0  0.37991379244E+02 -0.22405906996E+02 -0.14365981192E+03  0.15033623490E+03  0.41800000000E+01 0.  1.
         -5    1    3    3    0  502 -0.65417890963E+02 -0.13047573066E+03 -0.21193627408E+03  0.25736719570E+03  0.41800000000E+01 0.  1.
        -11    1    4    4    0    0  0.26583968173E+02  0.10318897805E+03 -0.78679389879E+02  0.13245798936E+03  0.00000000000E+00 0.  1.
         11    1    4    4    0    0  0.84254354603E+00  0.49692659604E+02 -0.15031234785E+03  0.15831573584E+03  0.00000000000E+00 0. -1.
</event>
<event>
 8    1  0.7168478E-009  0.1110593E+03  0.7561462E-02  0.1258621E+00
         -1   -1    0    0    0  501 -0.00000000000E+00  0.00000000000E+00  0.71490048018E+02  0.71490048018E+02  0.00000000000E+00 0.  1.
          1   -1    0    0  501    0  0.00000000000E+00 -0.00000000000E+00 -0.37500495368E+03  0.37500495368E+03  0.00000000000E+00 0. -1.
         25    2    1    2    0    0  0.94421826642E+02  0.37650156256E+02 -0.25243707349E+03  0.29950792136E+03  0.12508998072E+03 0.  0.
         23    2    1    2    0    0 -0.94421826642E+02 -0.37650156256E+02 -0.51077832180E+02  0.14698708034E+03  0.93076534284E+02 0.  0.
          5    1    3    3  502    0  0.39086385444E+02  0.10561839539E+02 -0.11235803780E+01  0.40718949083E+02  0.41800000000E+01 0. -1.
         -5    1    3    3    0  502  0.55335441197E+02  0.27088316717E+02 -0.25131349311E+03  0.25878897228E+03  0.41800000000E+01 0. -1.
        -11    1    4    4    0    0 -0.74488845589E+02 -0.55511853345E+02 -0.68172579905E+02  0.11522870575E+03  0.00000000000E+00 0.  1.
         11    1    4    4    0    0 -0.19932981053E+02  0.17861697089E+02  0.17094747725E+02  0.31758374586E+02  0.00000000000E+00 0. -1.
</event>
<event>
 8    1  0.7168478E-009  0.1671666E+03  0.7561462E-02  0.1180835E+00
         -2   -1    0    0    0  501 -0.00000000000E+00  0.00000000000E+00  0.17584531460E+03  0.17584531460E+03  0.00000000000E+00 0.  1.
          2   -1    0    0  501    0  0.00000000000E+00 -0.00000000000E+00 -0.21731767994E+03  0.21731767994E+03  0.00000000000E+00 0. -1.
         25    2    1    2    0    0  0.14443736973E+03 -0.57315927068E+02  0.24180421779E+02  0.20094610222E+03  0.12508946371E+03 0.  0.
         23    2    1    2    0    0 -0.14443736973E+03  0.57315927068E+02 -0.65652787127E+02  0.19221689232E+03  0.92139980281E+02 0.  0.
          5    1    3    3  502    0  0.12734996709E+03 -0.39454945878E+02 -0.33950302838E+02  0.13764011891E+03  0.41800000000E+01 0.  1.
         -5    1    3    3    0  502  0.17087402636E+02 -0.17860981190E+02  0.58130724617E+02  0.63305983306E+02  0.41800000000E+01 0.  1.
        -11    1    4    4    0    0 -0.12980681245E+03  0.77322504426E+02 -0.39466303156E+02  0.15616070996E+03  0.00000000000E+00 0.  1.
         11    1    4    4    0    0 -0.14630557276E+02 -0.20006577358E+02 -0.26186483971E+02  0.36056182363E+02  0.00000000000E+00 0. -1.
</event>
<event>
 8    1  0.7168478E-009  0.9394847E+02  0.7561462E-02  0.1293562E+00
         -1   -1    0    0    0  501 -0.00000000000E+00  0.00000000000E+00  0.36528602465E+02  0.36528602465E+02  0.00000000000E+00 0.  1.
          1   -1    0    0  501    0  0.00000000000E+00 -0.00000000000E+00 -0.37017848913E+03  0.37017848913E+03  0.00000000000E+00 0. -1.
         25    2    1    2    0    0 -0.27248227595E+02 -0.28243944022E+02 -0.22076292236E+03  0.25675620415E+03  0.12508914503E+03 0.  0.
         23    2    1    2    0    0  0.27248227595E+02  0.28243944022E+02 -0.11288696431E+03  0.14995088744E+03  0.90562771891E+02 0.  0.
          5    1    3    3  502    0 -0.62808881631E+02  0.19064418260E+02 -0.77212565152E+02  0.10142810396E+03  0.41800000000E+01 0.  1.
         -5    1    3    3    0  502  0.35560654035E+02 -0.47308362282E+02 -0.14355035720E+03  0.15532810020E+03  0.41800000000E+01 0.  1.
        -11    1    4    4    0    0  0.33361566739E+02 -0.54306185089E+00 -0.77596440961E-01  0.33366076674E+02  0.00000000000E+00 0.  1.
         11    1    4    4    0    0 -0.61133391432E+01  0.28787005873E+02 -0.11280936787E+03  0.11658481077E+03  0.00000000000E+00 0. -1.
</event>
<event>
 8    1  0.7168478E-009  0.1202418E+03  0.7561462E-02  0.1242699E+00
         -1   -1    0    0    0  501 -0.00000000000E+00  0.00000000000E+00  0.11104901503E+03  0.11104901503E+03  0.00000000000E+00 0.  1.
          1   -1    0    0  501    0  0.00000000000E+00 -0.00000000000E+00 -0.15285770662E+03  0.15285770662E+03  0.00000000000E+00 0. -1.
         25    2    1    2    0    0 -0.18782651123E+02  0.49897639457E+02 -0.61684993978E+02  0.14931665591E+03  0.12509141795E+03 0.  0.
         23    2    1    2    0    0  0.18782651123E+02 -0.49897639457E+02  0.19876302387E+02  0.11459006573E+03  0.99464834795E+02 0.  0.
          5    1    3    3  502    0  0.41510778901E+02 -0.97699799559E+01  0.24078705049E+01  0.42916983977E+02  0.41800000000E+01 0. -1.
         -5    1    3    3    0  502 -0.60293430024E+02  0.59667619413E+02 -0.64092864483E+02  0.10639967194E+03  0.41800000000E+01 0. -1.
        -11    1    4    4    0    0  0.51077657457E+02  0.25171834702E+01  0.11943705516E+02  0.52515858609E+02  0.00000000000E+00 0. -1.
         11    1    4    4    0    0 -0.32295006335E+02 -0.52414822927E+02  0.79325968705E+01  0.62074207121E+02  0.00000000000E+00 0.  1.
</event>
<event>
 8    1  0.7168478E-009  0.7465902E+02  0.7561462E-02  0.1344930E+00
          2   -1    0    0  501    0  0.00000000000E+00  0.00000000000E+00  0.33296785102E+03  0.33296785102E+03  0.00000000000E+00 0. -1.
         -2   -1    0    0    0  501 -0.00000000000E+00 -0.00000000000E+00 -0.47235129880E+02  0.47235129880E+02  0.00000000000E+00 0.  1.
         25    2    1    2    0    0 -0.15008374130E+02 -0.45320604751E+02  0.99580844586E+02  0.16686254366E+03  0.12509018890E+03 0.  0.
         23    2    1    2    0    0  0.15008374130E+02  0.45320604751E+02  0.18615187656E+03  0.21334043724E+03  0.92641311019E+02 0.  0.
          5    1    3    3  502    0 -0.31278879317E+02 -0.50205320170E+02 -0.62203293737E+01  0.59624721066E+02  0.41800000000E+01 0. -1.
         -5    1    3    3    0  502  0.16270505187E+02  0.48847154197E+01  0.10580117396E+03  0.10723782260E+03  0.41800000000E+01 0. -1.
        -11    1    4    4    0    0  0.10999751274E+01  0.55359936002E+02  0.18809676518E+03  0.19607734579E+03  0.00000000000E+00 0. -1.
         11    1    4    4    0    0  0.13908399003E+02 -0.10039331251E+02 -0.19448886235E+01  0.17263091454E+02  0.00000000000E+00 0.  1.
</event>
<event>
 8    1  0.7168478E-009  0.9983280E+02  0.7561462E-02  0.1280648E+00
         -2   -1    0    0    0  501 -0.00000000000E+00  0.00000000000E+00  0.16493127514E+03  0.16493127514E+03  0.00000000000E+00 0.  1.
          2   -1    0    0  501    0  0.00000000000E+00 -0.00000000000E+00 -0.82208757608E+02  0.82208757608E+02  0.00000000000E+00 0. -1.
         25    2    1    2    0    0 -0.36434103158E+01  0.32151006791E+02  0.14930203394E+02  0.13006786029E+03  0.12509106935E+03 0.  0.
         23    2    1    2    0    0  0.36434103158E+01 -0.32151006791E+02  0.67792314133E+02  0.11707217245E+03  0.89794955489E+02 0.  0.
          5    1    3    3  502    0 -0.90027627026E+01  0.78273523222E+02  0.24213070763E+02  0.82532050560E+02  0.41800000000E+01 0.  1.
         -5    1    3    3    0  502  0.53593523869E+01 -0.46122516431E+02 -0.92828673689E+01  0.47535809728E+02  0.41800000000E+01 0.  1.
        -11    1    4    4    0    0 -0.42365504400E+01 -0.52319839151E+02  0.77288240380E+02  0.93427972414E+02  0.00000000000E+00 0.  1.
         11    1    4    4    0    0  0.78799607558E+01  0.20168832360E+02 -0.94959262461E+01  0.23644200040E+02  0.00000000000E+00 0. -1.
</event>
<event>
 8    1  0.7168478E-009  0.7677741E+02  0.7561462E-02  0.1338454E+00
          1   -1    0    0  501    0  0.00000000000E+00  0.00000000000E+00  0.16976882109E+03  0.16976882109E+03  0.00000000000E+00 0. -1.
         -1   -1    0    0    0  501 -0.00000000000E+00 -0.00000000000E+00 -0.94688595884E+02  0.94688595884E+02  0.00000000000E+00 0.  1.
         25    2    1    2    0    0  0.35380861708E+02 -0.51588901084E+02  0.57871471316E+02  0.15136319922E+03  0.12509392789E+03 0.  0.
         23    2    1    2    0    0 -0.35380861708E+02  0.51588901084E+02  0.17208753889E+02  0.11309421775E+03  0.92633367578E+02 0.  0.
          5    1    3    3  502    0 -0.15347422037E+02 -0.32789530196E+02  0.83684130625E+02  0.91275422607E+02  0.41800000000E+01 0. -1.
         -5    1    3    3    0  502  0.50728283745E+02 -0.18799370888E+02 -0.25812659310E+02  0.60087776611E+02  0.41800000000E+01 0. -1.
        -11    1    4    4    0    0 -0.54080896158E+01  0.12274799957E+02  0.51311823099E+02  0.53036038097E+02  0.00000000000E+00 0. -1.
         11    1    4    4    0    0 -0.29972772092E+02  0.39314101127E+02 -0.34103069209E+02  0.60058179658E+02  0.00000000000E+00 0.  1.
</event>
<event>
 8    1  0.7168478E-009  0.9567945E+02  0.7561462E-02  0.1289653E+00
         -1   -1    0    0    0  501 -0.00000000000E+00  0.00000000000E+00  0.37178035600E+02  0.37178035600E+02  0.00000000000E+00 0.  1.
          1   -1    0    0  501    0  0.00000000000E+00 -0.00000000000E+00 -0.37122159773E+03  0.37122159773E+03  0.00000000000E+00 0. -1.
         25    2    1    2    0    0  0.41712149877E+02  0.83058802156E+01 -0.20952662527E+03  0.24770057295E+03  0.12508107790E+03 0.  0.
         23    2    1    2    0    0 -0.41712149877E+02 -0.83058802156E+01 -0.12451693686E+03  0.16069906038E+03  0.92254156273E+02 0.  0.
          5    1    3    3  502    0 -0.40645859569E+02  0.23843439769E+02 -0.62133572009E+02  0.78093845408E+02  0.41800000000E+01 0. -1.
         -5    1    3    3    0  502  0.82358009446E+02 -0.15537559553E+02 -0.14739305326E+03  0.16960672754E+03  0.41800000000E+01 0. -1.
        -11    1    4    4    0    0 -0.71970202369E+01  0.16252819222E+02  0.94945781698E+01  0.20151879505E+02  0.00000000000E+00 0.  1.
         11    1    4    4    0    0 -0.34515129640E+02 -0.24558699438E+02 -0.13401151503E+03  0.14054718088E+03  0.00000000000E+00 0. -1.
</event>
<event>
 8    1  0.7168478E-009  0.1380915E+03  0.7561462E-02  0.1215920E+00
         -1   -1    0    0    0  501 -0.00000000000E+00  0.00000000000E+00  0.39961698059E+02  0.39961698059E+02  0.00000000000E+00 0.  1.
          1   -1    0    0  501    0  0.00000000000E+00 -0.00000000000E+00 -0.72779236283E+03  0.72779236283E+03  0.00000000000E+00 0. -1.
         25    2    1    2    0    0 -0.53638724856E+02  0.10973054865E+03 -0.26038626915E+03  0.31363380442E+03  0.12508896035E+03 0.  0.
         23    2    1    2    0    0  0.53638724856E+02 -0.10973054865E+03 -0.42744439562E+03  0.45412025647E+03  0.92728581781E+02 0.  0.
          5    1    3    3  502    0 -0.26376775777E+02  0.41422700662E+02 -0.70287040454E+01  0.49784028674E+02  0.41800000000E+01 0. -1.
         -5    1    3    3    0  502 -0.27261949080E+02  0.68307847987E+02 -0.25335756511E+03  0.26384977575E+03  0.41800000000E+01 0. -1.
        -11    1    4    4    0    0  0.52260472832E+01 -0.10439536673E+03 -0.28312650533E+03  0.30180510629E+03  0.00000000000E+00 0.  1.
         11    1    4    4    0    0  0.48412677573E+02 -0.53351819225E+01 -0.14431789029E+03  0.15231515018E+03  0.00000000000E+00 0. -1.
</event>
<event>
 8    1  0.7168478E-009  0.1207210E+03  0.7561462E-02  0.1241912E+00
         -4   -1    0    0    0  501 -0.00000000000E+00  0.00000000000E+00  0.29082436202E+03  0.29082436202E+03  0.00000000000E+00 0.  1.
          4   -1    0    0  501    0  0.00000000000E+00 -0.00000000000E+00 -0.53309614142E+02  0.53309614142E+02  0.00000000000E+00 0. -1.
         25    2    1    2    0    0  0.23811661251E+02 -0.55208025267E+02  0.16664430964E+03  0.21687003922E+03  0.12508943485E+03 0.  0.
         23    2    1    2    0    0 -0.23811661251E+02  0.55208025267E+02  0.70870438245E+02  0.12726393694E+03  0.86940033150E+02 0.  0.
          5    1    3    3  502    0 -0.10420509182E+02  0.37079791714E+02  0.62297854813E+02  0.73362068397E+02  0.41800000000E+01 0.  1.
         -5    1    3    3    0  502  0.34232170433E+02 -0.92287816982E+02  0.10434645482E+03  0.14350797082E+03  0.41800000000E+01 0.  1.
        -11    1    4    4    0    0 -0.50522305083E+02  0.58465385923E+02  0.61545754427E+02  0.98785548285E+02  0.00000000000E+00 0.  1.
         11    1    4    4    0    0  0.26710643832E+02 -0.32573606551E+01  0.93246838182E+01  0.28478388660E+02  0.00000000000E+00 0. -1.
</event>
<event>
 8    1  0.7168478E-009  0.9955228E+02  0.7561462E-02  0.1281240E+00
         -2   -1    0    0    0  501 -0.00000000000E+00  0.00000000000E+00  0.12176095704E+02  0.12176095704E+02  0.00000000000E+00 0.  1.
          2   -1    0    0  501    0  0.00000000000E+00 -0.00000000000E+00 -0.13390708556E+04  0.13390708556E+04  0.00000000000E+00 0. -1.
         25    2    1    2    0    0 -0.94996545298E+01 -0.55843417668E+02 -0.79567888531E+03  0.80744119411E+03  0.12509061788E+03 0.  0.
         23    2    1    2    0    0  0.94996545298E+01  0.55843417668E+02 -0.53121587461E+03  0.54380575722E+03  0.10161528140E+03 0.  0.
          5    1    3    3  502    0  0.16396606903E+02  0.42766640744E+01 -0.12373593157E+02  0.21394316562E+02  0.41800000000E+01 0. -1.
         -5    1    3    3    0  502 -0.25896261433E+02 -0.60120081742E+02 -0.78330529215E+03  0.78604687755E+03  0.41800000000E+01 0. -1.
        -11    1    4    4    0    0 -0.39527424357E+02  0.54097596044E+02 -0.32508330160E+03  0.33191583294E+03  0.00000000000E+00 0.  1.
         11    1    4    4    0    0  0.49027078887E+02  0.17458216236E+01 -0.20613257300E+03  0.21188992428E+03  0.00000000000E+00 0. -1.
</event>
<event>
 8    1  0.7168478E-009  0.9127580E+02  0.7561462E-02  0.1299791E+00
          1   -1    0    0  501    0  0.00000000000E+00  0.00000000000E+00  0.61586871120E+03  0.61586871120E+03  0.00000000000E+00 0. -1.
         -1   -1    0    0    0  501 -0.00000000000E+00 -0.00000000000E+00 -0.21127837153E+02  0.21127837153E+02  0.00000000000E+00 0.  1.
         25    2    1    2    0    0 -0.20958646354E+02  0.20332256014E+02  0.46500331276E+03  0.48241945402E+03  0.12509109978E+03 0.  0.
         23    2    1    2    0    0  0.20958646354E+02 -0.20332256014E+02  0.12973756128E+03  0.15457709433E+03  0.78800874314E+02 0.  0.
          5    1    3    3  502    0 -0.43965869999E+02 -0.29794680157E+02  0.10053878226E+03  0.11378154432E+03  0.41800000000E+01 0. -1.
         -5    1    3    3    0  502  0.23007223645E+02  0.50126936171E+02  0.36446453050E+03  0.36863790969E+03  0.41800000000E+01 0. -1.
        -11    1    4    4    0    0 -0.24216456054E+02  0.48935922789E+00  0.12572296208E+02  0.27289903778E+02  0.00000000000E+00 0.  1.
         11    1    4    4    0    0  0.45175102409E+02 -0.20821615242E+02  0.11716526507E+03  0.12728719055E+03  0.00000000000E+00 0. -1.
</event>
<event>
 8    1  0.7168478E-009  0.1918149E+03  0.7561462E-02  0.1156834E+00
          1   -1    0    0  501    0  0.00000000000E+00  0.00000000000E+00  0.12102528276E+03  0.12102528276E+03  0.00000000000E+00 0. -1.
         -1   -1    0    0    0  501 -0.00000000000E+00 -0.00000000000E+00 -0.38952117823E+03  0.38952117823E+03  0.00000000000E+00 0.  1.
         25    2    1    2    0    0  0.11613563037E+03  0.14278131857E+03 -0.92837431141E+02  0.24112298891E+03  0.12509003792E+03 0.  0.
         23    2    1    2    0    0 -0.11613563037E+03 -0.14278131857E+03 -0.17565846433E+03  0.26942347208E+03  0.88651687194E+02 0.  0.
          5    1    3    3  502    0  0.82452005655E+02  0.14075284598E+03 -0.11580094884E+03  0.20009255118E+03  0.41800000000E+01 0.  1.
         -5    1    3    3    0  502  0.33683624711E+02  0.20284725957E+01  0.22963517700E+02  0.41030437725E+02  0.41800000000E+01 0.  1.
        -11    1    4    4    0    0 -0.34556274890E+02 -0.65600314608E+02 -0.12694002577E+03  0.14700784861E+03  0.00000000000E+00 0.  1.
         11    1    4    4    0    0 -0.81579355476E+02 -0.77181003963E+02 -0.48718438558E+02  0.12241562346E+03  0.00000000000E+00 0. -1.
</event>
<event>
 8    1  0.7168478E-009  0.1156116E+03  0.7561462E-02  0.1250517E+00
          1   -1    0    0  501    0  0.00000000000E+00  0.00000000000E+00  0.15289262376E+03  0.15289262376E+03  0.00000000000E+00 0. -1.
         -1   -1    0    0    0  501 -0.00000000000E+00 -0.00000000000E+00 -0.11408090364E+03  0.11408090364E+03  0.00000000000E+00 0.  1.
         25    2    1    2    0    0  0.47201605359E+02  0.52802459142E+02  0.46336612499E+02  0.15102955702E+03  0.12508698652E+03 0.  0.
         23    2    1    2    0    0 -0.47201605359E+02 -0.52802459142E+02 -0.75248923789E+01  0.11594397037E+03  0.91489283640E+02 0.  0.
          5    1    3    3  502    0 -0.22753243935E+01  0.65815693308E+02  0.68504728987E+02  0.95117048316E+02  0.41800000000E+01 0.  1.
         -5    1    3    3    0  502  0.49476929752E+02 -0.13013234166E+02 -0.22168116489E+02  0.55912508706E+02  0.41800000000E+01 0.  1.
        -11    1    4    4    0    0 -0.69877118156E+02 -0.17646299944E+02  0.50856470330E+01  0.72250033559E+02  0.00000000000E+00 0.  1.
         11    1    4    4    0    0  0.22675512797E+02 -0.35156159198E+02 -0.12610539412E+02  0.43693936816E+02  0.00000000000E+00 0. -1.
</event>
<event>
 8    1  0.7168478E-009  0.1225622E+03  0.7561462E-02  0.1238929E+00
         -1   -1    0    0    0  501 -0.00000000000E+00  0.00000000000E+00  0.13505999921E+02  0.13505999921E+02  0.00000000000E+00 0.  1.
          1   -1    0    0  501    0  0.00000000000E+00 -0.00000000000E+00 -0.13921323164E+04  0.13921323164E+04  0.00000000000E+00 0. -1.
         25    2    1    2    0    0 -0.51568178889E+02  0.38826014769E+02 -0.10437335651E+04  0.10531829913E+04  0.12509165340E+03 0.  0.
         23    2    1    2    0    0  0.51568178889E+02 -0.38826014769E+02 -0.33489275141E+03  0.35245532505E+03  0.88909306114E+02 0.  0.
          5    1    3    3  502    0 -0.44599402528E+02 -0.38578705497E+02 -0.57508715188E+03  0.57811774569E+03  0.41800000000E+01 0. -1.
         -5    1    3    3    0  502 -0.69687763610E+01  0.77404720266E+02 -0.46864641325E+03  0.47506524564E+03  0.41800000000E+01 0. -1.
        -11    1    4    4    0    0  0.68141487561E+02 -0.53033497585E+02 -0.23930273863E+03  0.25440443178E+03  0.00000000000E+00 0.  1.
         11    1    4    4    0    0 -0.16573308672E+02  0.14207482816E+02 -0.95590012778E+02  0.98050893271E+02  0.00000000000E+00 0. -1.
</event>
<event>
 8    1  0.7168478E-009  0.1042819E+03  0.7561462E-02  0.1271541E+00
          1   -1    0    0  501    0  0.00000000000E+00  0.00000000000E+00  0.50076924810E+03  0.50076924810E+03  0.00000000000E+00 0. -1.
         -1   -1    0    0    0  501 -0.00000000000E+00 -0.00000000000E+00 -0.23723319783E+02  0.23723319783E+02  0.00000000000E+00 0.  1.
         25    2    1    2    0    0 -0.61950502281E+01 -0.25301072288E+02  0.27586191613E+03  0.30401467814E+03  0.12508638954E+03 0.  0.
         23    2    1    2    0    0  0.61950502281E+01  0.25301072288E+02  0.20118401219E+03  0.22047788974E+03  0.86353750349E+02 0.  0.
          5    1    3    3  502    0  0.58192608282E+02  0.30512706700E+00  0.12767470218E+03  0.14037369675E+03  0.41800000000E+01 0. -1.
         -5    1    3    3    0  502 -0.64387658510E+02 -0.25606199355E+02  0.14818721395E+03  0.16364098140E+03  0.41800000000E+01 0. -1.
        -11    1    4    4    0    0 -0.27059873256E+02 -0.13048792380E+02  0.32214676836E+02  0.44048758516E+02  0.00000000000E+00 0. -1.
         11    1    4    4    0    0  0.33254923484E+02  0.38349864668E+02  0.16896933535E+03  0.17642913123E+03  0.00000000000E+00 0.  1.
</event>
<event>
 8    1  0.7168478E-009  0.2877271E+03  0.7561462E-02  0.1091542E+00
         -2   -1    0    0    0  501 -0.00000000000E+00  0.00000000000E+00  0.24864702279E+03  0.24864702279E+03  0.00000000000E+00 0. -1.
          2   -1    0    0  501    0  0.00000000000E+00 -0.00000000000E+00 -0.45010864199E+03  0.45010864199E+03  0.00000000000E+00 0.  1.
         25    2    1    2    0    0 -0.70982409276E+02 -0.27327871205E+03  0.46251339422E+02  0.31225992532E+03  0.12508923883E+03 0.  0.
         23    2    1    2    0    0  0.70982409276E+02  0.27327871205E+03 -0.24771295862E+03  0.38649573947E+03  0.91090558604E+02 0.  0.
          5    1    3    3  502    0 -0.66135570064E+02 -0.23258659898E+03  0.84369364237E+02  0.25613688074E+03  0.41800000000E+01 0.  1.
         -5    1    3    3    0  502 -0.48468392125E+01 -0.40692113069E+02 -0.38118024815E+02  0.56123044573E+02  0.41800000000E+01 0.  1.
        -11    1    4    4    0    0  0.57038505740E+01  0.17092880594E+03 -0.17644110595E+03  0.24572475349E+03  0.00000000000E+00 0.  1.
         11    1    4    4    0    0  0.65278558702E+02  0.10234990611E+03 -0.71271852675E+02  0.14077098597E+03  0.00000000000E+00 0. -1.
</event>
<event>
 8    1  0.7168478E-009  0.1033983E+03  0.7561462E-02  0.1273308E+00
         -1   -1    0    0    0  501 -0.00000000000E+00  0.00000000000E+00  0.64663742031E+02  0.64663742031E+02  0.00000000000E+00 0.  1.
          1   -1    0    0  501    0  0.00000000000E+00 -0.00000000000E+00 -0.32983152653E+03  0.32983152653E+03  0.00000000000E+00 0. -1.
         25    2    1    2    0    0 -0.13083686342E+02  0.97416271483E+02 -0.14881190699E+03  0.21783879624E+03  0.12509054595E+03 0.  0.
         23    2    1    2    0    0  0.13083686342E+02 -0.97416271483E+02 -0.11635587751E+03  0.17665647233E+03  0.89485787622E+02 0.  0.
          5    1    3    3  502    0 -0.24114321563E+02  0.92564320107E+02 -0.32919089820E+02  0.10124619862E+03  0.41800000000E+01 0. -1.
         -5    1    3    3    0  502  0.11030635221E+02  0.48519513758E+01 -0.11589281717E+03  0.11659259761E+03  0.41800000000E+01 0. -1.
        -11    1    4    4    0    0  0.81245361660E+01 -0.64219666873E+02 -0.10463470587E+02  0.65571776840E+02  0.00000000000E+00 0.  1.
         11    1    4    4    0    0  0.49591501758E+01 -0.33196604610E+02 -0.10589240692E+03  0.11108469549E+03  0.00000000000E+00 0. -1.
</event>
<event>
 8    1  0.7168478E-009  0.1001494E+03  0.7561462E-02  0.1279982E+00
          2   -1    0    0  501    0  0.00000000000E+00  0.00000000000E+00  0.91726532979E+03  0.91726532979E+03  0.00000000000E+00 0. -1.
         -2   -1    0    0    0  501 -0.00000000000E+00 -0.00000000000E+00 -0.23606264982E+02  0.23606264982E+02  0.00000000000E+00 0.  1.
         25    2    1    2    0    0  0.24667207081E+02  0.36384670362E+02  0.77148842632E+03  0.78279914574E+03  0.12509114792E+03 0.  0.
         23    2    1    2    0    0 -0.24667207081E+02 -0.36384670362E+02  0.12217063849E+03  0.15807244903E+03  0.90160517361E+02 0.  0.
          5    1    3    3  502    0 -0.35295355868E+02  0.14063661727E+01  0.76786465760E+02  0.84624900210E+02  0.41800000000E+01 0. -1.
         -5    1    3    3    0  502  0.59962562949E+02  0.34978304189E+02  0.69470196056E+03  0.69817424553E+03  0.41800000000E+01 0. -1.
        -11    1    4    4    0    0  0.11641311543E+02 -0.53707736996E+02  0.94257289872E+02  0.10910764337E+03  0.00000000000E+00 0. -1.
         11    1    4    4    0    0 -0.36308518623E+02  0.17323066634E+02  0.27913348614E+02  0.48964805657E+02  0.00000000000E+00 0.  1.
</event>
<event>
 8    1  0.7168478E-009  0.1099235E+03  0.7561462E-02  0.1260712E+00
         -2   -1    0    0    0  501 -0.00000000000E+00  0.00000000000E+00  0.18203894287E+02  0.18203894287E+02  0.00000000000E+00 0.  1.
          2   -1    0    0  501    0  0.00000000000E+00 -0.00000000000E+00 -0.80990591062E+03  0.80990591062E+03  0.00000000000E+00 0. -1.
         25    2    1    2    0    0 -0.40459131627E+02  0.30356122684E+02 -0.52368831636E+03  0.54079101932E+03  0.12508812239E+03 0.  0.
         23    2    1    2    0    0  0.40459131627E+02 -0.30356122684E+02 -0.26801369997E+03  0.28731878559E+03  0.90345479489E+02 0.  0.
          5    1    3    3  502    0 -0.32867351632E+02 -0.46087585391E+02 -0.18698821187E+03  0.19541338774E+03  0.41800000000E+01 0.  1.
         -5    1    3    3    0  502 -0.75917799948E+01  0.76443708075E+02 -0.33670010449E+03  0.34537763157E+03  0.41800000000E+01 0.  1.
        -11    1    4    4    0    0  0.22098397047E+02  0.21689080971E+02 -0.18539231874E+03  0.18796028100E+03  0.00000000000E+00 0. -1.
         11    1    4    4    0    0  0.18360734580E+02 -0.52045203656E+02 -0.82621381228E+02  0.99358504588E+02  0.00000000000E+00 0.  1.
</event>
<event>
 8    1  0.7168478E-009  0.1508292E+03  0.7561462E-02  0.1199458E+00
         -1   -1    0    0    0  501 -0.00000000000E+00  0.00000000000E+00  0.34273638213E+02  0.34273638213E+02  0.00000000000E+00 0.  1.
          1   -1    0    0  501    0  0.00000000000E+00 -0.00000000000E+00 -0.81923231750E+03  0.81923231750E+03  0.00000000000E+00 0. -1.
         25    2    1    2    0    0  0.97339446608E+02  0.82487021480E+02 -0.40532897121E+03  0.44296462644E+03  0.12508800421E+03 0.  0.
         23    2    1    2    0    0 -0.97339446608E+02 -0.82487021480E+02 -0.37962970808E+03  0.41054132927E+03  0.90257360957E+02 0.  0.
          5    1    3    3  502    0  0.58813865532E+02 -0.21573317870E+02 -0.19877542255E+03  0.20845531855E+03  0.41800000000E+01 0. -1.
         -5    1    3    3    0  502  0.38525581076E+02  0.10406033935E+03 -0.20655354866E+03  0.23450930789E+03  0.41800000000E+01 0. -1.
        -11    1    4    4    0    0 -0.22783813238E+02 -0.23814961560E+02 -0.19875543191E+02  0.38487553272E+02  0.00000000000E+00 0.  1.
         11    1    4    4    0    0 -0.74555633370E+02 -0.58672059920E+02 -0.35975416488E+03  0.37205377600E+03  0.00000000000E+00 0. -1.
</event>
<event>
 8    1  0.7168478E-009  0.1789582E+03  0.7561462E-02  0.1168815E+00
          2   -1    0    0  501    0  0.00000000000E+00  0.00000000000E+00  0.15102082358E+02  0.15102082358E+02  0.00000000000E+00 0. -1.
         -2   -1    0    0    0  501 -0.00000000000E+00 -0.00000000000E+00 -0.22599275315E+04  0.22599275315E+04  0.00000000000E+00 0.  1.
         25    2    1    2    0    0 -0.40113067393E+02  0.14362400955E+03 -0.12580484772E+04  0.12730167061E+04  0.12509455923E+03 0.  0.
         23    2    1    2    0    0  0.40113067393E+02 -0.14362400955E+03 -0.98677697196E+03  0.10020129078E+04  0.89800671764E+02 0.  0.
          5    1    3    3  502    0 -0.27341067252E+02 -0.10173443535E+02 -0.87460806632E+02  0.92292459110E+02  0.41800000000E+01 0.  1.
         -5    1    3    3    0  502 -0.12772000141E+02  0.15379745309E+03 -0.11705876706E+04  0.11807242470E+04  0.41800000000E+01 0.  1.
        -11    1    4    4    0    0  0.26752955318E+02  0.29190852306E+01 -0.15637819509E+03  0.15867697242E+03  0.00000000000E+00 0. -1.
         11    1    4    4    0    0  0.13360112075E+02 -0.14654309478E+03 -0.83039877687E+03  0.84333593535E+03  0.00000000000E+00 0.  1.
</event>
<event>
 8    1  0.7168478E-009  0.2708277E+03  0.7561462E-02  0.1100807E+00
         -2   -1    0    0    0  501 -0.00000000000E+00  0.00000000000E+00  0.12717239217E+03  0.12717239217E+03  0.00000000000E+00 0.  1.
          2   -1    0    0  501    0  0.00000000000E+00 -0.00000000000E+00 -0.61621371695E+03  0.61621371695E+03  0.00000000000E+00 0. -1.
         25    2    1    2    0    0  0.25024130646E+03 -0.54930847393E+02 -0.27408715995E+03  0.39548642771E+03  0.12509050244E+03 0.  0.
         23    2    1    2    0    0 -0.25024130646E+03  0.54930847393E+02 -0.21495416483E+03  0.34789968141E+03  0.95868586576E+02 0.  0.
          5    1    3    3  502    0 -0.89198765357E+01  0.97185077019E+01 -0.32453133955E+02  0.35280191225E+02  0.41800000000E+01 0.  1.
         -5    1    3    3    0  502  0.25916118300E+03 -0.64649355095E+02 -0.24163402599E+03  0.36020623649E+03  0.41800000000E+01 0.  1.
        -11    1    4    4    0    0 -0.16310705226E+03  0.12006033657E+02 -0.18348833161E+03  0.24579671108E+03  0.00000000000E+00 0. -1.
         11    1    4    4    0    0 -0.87134254207E+02  0.42924813735E+02 -0.31465833219E+02  0.10210297033E+03  0.00000000000E+00 0.  1.
</event>
<event>
 8    1  0.7168478E-009  0.1152902E+03  0.7561462E-02  0.1251075E+00
         -3   -1    0    0    0  501 -0.00000000000E+00  0.00000000000E+00  0.55580861664E+02  0.55580861664E+02  0.00000000000E+00 0.  1.
          3   -1    0    0  501    0  0.00000000000E+00 -0.00000000000E+00 -0.28384263087E+03  0.28384263087E+03  0.00000000000E+00 0. -1.
         25    2    1    2    0    0 -0.38632289378E+02 -0.18432986850E+02 -0.65238416266E+02  0.14743111662E+03  0.12509058479E+03 0.  0.
         23    2    1    2    0    0  0.38632289378E+02  0.18432986850E+02 -0.16302335294E+03  0.19199237592E+03  0.91936010461E+02 0.  0.
          5    1    3    3  502    0  0.21872097223E+02  0.39507134785E+02 -0.38226240449E+02  0.59312057752E+02  0.41800000000E+01 0. -1.
         -5    1    3    3    0  502 -0.60504386601E+02 -0.57940121635E+02 -0.27012175818E+02  0.88119058866E+02  0.41800000000E+01 0. -1.
        -11    1    4    4    0    0 -0.25189576412E+02 -0.14986702369E+02 -0.44210031659E+02  0.53043782925E+02  0.00000000000E+00 0.  1.
         11    1    4    4    0    0  0.63821865790E+02  0.33419689218E+02 -0.11881332128E+03  0.13894859299E+03  0.00000000000E+00 0. -1.
</event>
<event>
 8    1  0.7168478E-009  0.1807951E+03  0.7561462E-02  0.1167036E+00
          2   -1    0    0  501    0  0.00000000000E+00  0.00000000000E+00  0.10593912008E+04  0.10593912008E+04  0.00000000000E+00 0.  1.
         -2   -1    0    0    0  501 -0.00000000000E+00 -0.00000000000E+00 -0.35910784286E+02  0.35910784286E+02  0.00000000000E+00 0. -1.
         25    2    1    2    0    0  0.15295940962E+03  0.39341569763E+01  0.68432419566E+03  0.71229119562E+03  0.12508830482E+03 0.  0.
         23    2    1    2    0    0 -0.15295940962E+03 -0.39341569763E+01  0.33915622082E+03  0.38301078944E+03  0.90874991728E+02 0.  0.
          5    1    3    3  502    0  0.42033852476E+02 -0.57045307936E+02  0.24487891283E+03  0.25495914626E+03  0.41800000000E+01 0. -1.
         -5    1    3    3    0  502  0.11092555714E+03  0.60979464913E+02  0.43944528283E+03  0.45733204936E+03  0.41800000000E+01 0. -1.
        -11    1    4    4    0    0 -0.10149203325E+03  0.25528395284E+02  0.13738465247E+03  0.17270458741E+03  0.00000000000E+00 0. -1.
         11    1    4    4    0    0 -0.51467376372E+02 -0.29462552260E+02  0.20177156834E+03  0.21030620202E+03  0.00000000000E+00 0.  1.
</event>
<event>
 8    1  0.7168478E-009  0.2179757E+03  0.7561462E-02  0.1135401E+00
         -2   -1    0    0    0  501 -0.00000000000E+00  0.00000000000E+00  0.16577206575E+03  0.16577206575E+03  0.00000000000E+00 0.  1.
          2   -1    0    0  501    0  0.00000000000E+00 -0.00000000000E+00 -0.58393020544E+03  0.58393020544E+03  0.00000000000E+00 0. -1.
         25    2    1    2    0    0  0.20765922630E+03  0.39714298013E+02  0.28421591530E+02  0.24729478652E+03  0.12508934743E+03 0.  0.
         23    2    1    2    0    0 -0.20765922630E+03 -0.39714298013E+02 -0.44657973122E+03  0.50240748467E+03  0.90995849271E+02 0.  0.
          5    1    3    3  502    0  0.14866129303E+03  0.42445444651E+02 -0.37036410710E+02  0.15903133004E+03  0.41800000000E+01 0. -1.
         -5    1    3    3    0  502  0.58997933272E+02 -0.27311466379E+01  0.65458002239E+02  0.88263456478E+02  0.41800000000E+01 0. -1.
        -11    1    4    4    0    0 -0.74998387238E+02  0.18446850111E+02 -0.22310013217E+03  0.23609047702E+03  0.00000000000E+00 0. -1.
         11    1    4    4    0    0 -0.13266083906E+03 -0.58161148124E+02 -0.22347959905E+03  0.26631700765E+03  0.00000000000E+00 0.  1.
</event>
<event>
 8    1  0.7168478E-009  0.2313179E+03  0.7561462E-02  0.1125716E+00
          2   -1    0    0  501    0  0.00000000000E+00  0.00000000000E+00  0.66179171826E+03  0.66179171826E+03  0.00000000000E+00 0. -1.
         -2   -1    0    0    0  501 -0.00000000000E+00 -0.00000000000E+00 -0.11872800148E+03  0.11872800148E+03  0.00000000000E+00 0.  1.
         25    2    1    2    0    0  0.19122648207E+03 -0.90946229645E+02  0.72221346066E+02  0.25632485989E+03  0.12509087433E+03 0.  0.
         23    2    1    2    0    0 -0.19122648207E+03  0.90946229645E+02  0.47084237071E+03  0.52419485984E+03  0.90823614192E+02 0.  0.
          5    1    3    3  502    0  0.14796411079E+03 -0.17956529329E+02  0.83066366459E+02  0.17068482259E+03  0.41800000000E+01 0. -1.
         -5    1    3    3    0  502  0.43262371283E+02 -0.72989700317E+02 -0.10845020393E+02  0.85640037300E+02  0.41800000000E+01 0. -1.
        -11    1    4    4    0    0  0.44914230606E+01  0.19840561484E+02  0.25880675157E+02  0.32918537448E+02  0.00000000000E+00 0.  1.
         11    1    4    4    0    0 -0.19571790513E+03  0.71105668161E+02  0.44496169556E+03  0.49127632240E+03  0.00000000000E+00 0. -1.
</event>
<event>
 8    1  0.7168478E-009  0.7144212E+02  0.7561462E-02  0.1355257E+00
          2   -1    0    0  501    0  0.00000000000E+00  0.00000000000E+00  0.55334378307E+03  0.55334378307E+03  0.00000000000E+00 0. -1.
         -2   -1    0    0    0  501 -0.00000000000E+00 -0.00000000000E+00 -0.25577158669E+02  0.25577158669E+02  0.00000000000E+00 0.  1.
         25    2    1    2    0    0  0.19532764373E+02 -0.19374013946E+02  0.39385253546E+03  0.41415538270E+03  0.12509188635E+03 0.  0.
         23    2    1    2    0    0 -0.19532764373E+02  0.19374013946E+02  0.13391408893E+03  0.16476555903E+03  0.91966433700E+02 0.  0.
          5    1    3    3  502    0  0.29077886368E+02 -0.24330141854E+02  0.39949428870E+03  0.40131114908E+03  0.41800000000E+01 0.  1.
         -5    1    3    3    0  502 -0.95451219946E+01  0.49561279088E+01 -0.56417532324E+01  0.12844233620E+02  0.41800000000E+01 0.  1.
        -11    1    4    4    0    0 -0.49711216305E+02 -0.10422439677E+02  0.92282117480E+02  0.10533670529E+03  0.00000000000E+00 0. -1.
         11    1    4    4    0    0  0.30178451931E+02  0.29796453623E+02  0.41631971451E+02  0.59428853736E+02  0.00000000000E+00 0.  1.
</event>
<event>
 8    1  0.7168478E-009  0.1462316E+03  0.7561462E-02  0.1205182E+00
         -2   -1    0    0    0  501 -0.00000000000E+00  0.00000000000E+00  0.82246119741E+02  0.82246119741E+02  0.00000000000E+00 0.  1.
          2   -1    0    0  501    0  0.00000000000E+00 -0.00000000000E+00 -0.43977672981E+03  0.43977672981E+03  0.00000000000E+00 0. -1.
         25    2    1    2    0    0  0.92721139123E+02  0.87483116871E+02 -0.31215872319E+03  0.35964014001E+03  0.12508979362E+03 0.  0.
         23    2    1    2    0    0 -0.92721139123E+02 -0.87483116871E+02 -0.45371886878E+02  0.16238270953E+03  0.89772105128E+02 0.  0.
          5    1    3    3  502    0 -0.14341742061E+02 -0.10723571006E+02 -0.10489373340E+03  0.10649341879E+03  0.41800000000E+01 0.  1.
         -5    1    3    3    0  502  0.10706288118E+03  0.98206687878E+02 -0.20726498979E+03  0.25314672122E+03  0.41800000000E+01 0.  1.
        -11    1    4    4    0    0 -0.50089343311E+02 -0.34953681712E+02 -0.67662180969E+02  0.91153019215E+02  0.00000000000E+00 0. -1.
         11    1    4    4    0    0 -0.42631795812E+02 -0.52529435160E+02  0.22290294091E+02  0.71229690320E+02  0.00000000000E+00 0.  1.
</event>
<event>
 8    1  0.7168478E-009  0.1264048E+03  0.7561462E-02  0.1232890E+00
          4   -1    0    0  501    0  0.00000000000E+00  0.00000000000E+00  0.11592331736E+03  0.11592331736E+03  0.00000000000E+00 0.  1.
         -4   -1    0    0    0  501 -0.00000000000E+00 -0.00000000000E+00 -0.15236578141E+03  0.15236578141E+03  0.00000000000E+00 0. -1.
         25    2    1    2    0    0 -0.63212478705E+02 -0.24514838032E+02  0.15209059010E+02  0.14308916231E+03  0.12508556330E+03 0.  0.
         23    2    1    2    0    0  0.63212478705E+02  0.24514838032E+02 -0.51651523056E+02  0.12519993646E+03  0.91707957716E+02 0.  0.
          5    1    3    3  502    0 -0.10065120194E+03 -0.18370065672E+02  0.20864578940E+02  0.10450323832E+03  0.41800000000E+01 0.  1.
         -5    1    3    3    0  502  0.37438723233E+02 -0.61447723599E+01 -0.56555199300E+01  0.38585923992E+02  0.41800000000E+01 0.  1.
        -11    1    4    4    0    0  0.65193579913E+02 -0.19604521033E+02 -0.42009393102E+02  0.79995807488E+02  0.00000000000E+00 0.  1.
         11    1    4    4    0    0 -0.19811012081E+01  0.44119359065E+02 -0.96421299537E+01  0.45204128975E+02  0.00000000000E+00 0. -1.
</event>
<event>
 8    1  0.7168478E-009  0.1904711E+03  0.7561462E-02  0.1158037E+00
          2   -1    0    0  501    0  0.00000000000E+00  0.00000000000E+00  0.40189004452E+03  0.40189004452E+03  0.00000000000E+00 0. -1.
         -2   -1    0    0    0  501 -0.00000000000E+00 -0.00000000000E+00 -0.11090704023E+03  0.11090704023E+03  0.00000000000E+00 0.  1.
         25    2    1    2    0    0  0.17389334724E+03  0.38118607638E+02  0.11642063579E+03  0.24676348626E+03  0.12508608736E+03 0.  0.
         23    2    1    2    0    0 -0.17389334724E+03 -0.38118607638E+02  0.17456236849E+03  0.26603359849E+03  0.92789711536E+02 0.  0.
          5    1    3    3  502    0  0.47924346511E+02  0.31026518902E+02  0.10553111428E+03  0.12005697125E+03  0.41800000000E+01 0. -1.
         -5    1    3    3    0  502  0.12596900073E+03  0.70920887360E+01  0.10889521508E+02  0.12670651501E+03  0.41800000000E+01 0. -1.
        -11    1    4    4    0    0 -0.15843589924E+03 -0.61062513128E+02  0.16500535795E+03  0.23676429804E+03  0.00000000000E+00 0.  1.
         11    1    4    4    0    0 -0.15457448003E+02  0.22943905490E+02  0.95570105468E+01  0.29269300444E+02  0.00000000000E+00 0. -1.
</event>
<event>
 8    1  0.7168478E-009  0.6687261E+02  0.7561462E-02  0.1371063E+00
         -2   -1    0    0    0  501 -0.00000000000E+00  0.00000000000E+00  0.17431204251E+03  0.17431204251E+03  0.00000000000E+00 0.  1.
          2   -1    0    0  501    0  0.00000000000E+00 -0.00000000000E+00 -0.82325052559E+02  0.82325052559E+02  0.00000000000E+00 0. -1.
         25    2    1    2    0    0 -0.21715111315E+02  0.21672651308E+02  0.93308143932E+02  0.15904477826E+03  0.12509029496E+03 0.  0.
         23    2    1    2    0    0  0.21715111315E+02 -0.21672651308E+02 -0.13211539820E+01  0.97592316813E+02  0.92635117417E+02 0.  0.
          5    1    3    3  502    0  0.88675866871E+01 -0.18624903843E+01  0.11442315190E+03  0.11485744667E+03  0.41800000000E+01 0. -1.
         -5    1    3    3    0  502 -0.30582698002E+02  0.23535141693E+02 -0.21115007967E+02  0.44187331590E+02  0.41800000000E+01 0. -1.
        -11    1    4    4    0    0 -0.67916459045E+01  0.27383449132E+02  0.22470969406E+02  0.36068326916E+02  0.00000000000E+00 0.  1.
         11    1    4    4    0    0  0.28506757219E+02 -0.49056100440E+02 -0.23792123388E+02  0.61523989897E+02  0.00000000000E+00 0. -1.
</event>
<event>
 8    1  0.7168478E-009  0.7026234E+02  0.7561462E-02  0.1359203E+00
          2   -1    0    0  501    0  0.00000000000E+00  0.00000000000E+00  0.10197304232E+03  0.10197304232E+03  0.00000000000E+00 0. -1.
         -2   -1    0    0    0  501 -0.00000000000E+00 -0.00000000000E+00 -0.12935743584E+03  0.12935743584E+03  0.00000000000E+00 0.  1.
         25    2    1    2    0    0 -0.21224111402E+02  0.12044916971E+02 -0.50599660795E+02  0.13712897664E+03  0.12509391525E+03 0.  0.
         23    2    1    2    0    0  0.21224111402E+02 -0.12044916971E+02  0.23215267271E+02  0.94201501517E+02  0.87974037784E+02 0.  0.
          5    1    3    3  502    0 -0.50922138391E+02  0.21253166081E+02  0.20818452605E+02  0.59123951286E+02  0.41800000000E+01 0. -1.
         -5    1    3    3    0  502  0.29698026989E+02 -0.92082491100E+01 -0.71418113400E+02  0.78005025353E+02  0.41800000000E+01 0. -1.
        -11    1    4    4    0    0  0.30006061063E+01 -0.28861840083E+02  0.49931376945E+02  0.57750773619E+02  0.00000000000E+00 0. -1.
         11    1    4    4    0    0  0.18223505296E+02  0.16816923112E+02 -0.26716109674E+02  0.36450727898E+02  0.00000000000E+00 0.  1.
</event>
<event>
 8    1  0.7168478E-009  0.1402314E+03  0.7561462E-02  0.1213018E+00
         -2   -1    0    0    0  501 -0.00000000000E+00  0.00000000000E+00  0.37873907218E+02  0.37873907218E+02  0.00000000000E+00 0.  1.
          2   -1    0    0  501    0  0.00000000000E+00 -0.00000000000E+00 -0.13935828832E+04  0.13935828832E+04  0.00000000000E+00 0. -1.
         25    2    1    2    0    0  0.16631294149E+02 -0.13641466090E+03 -0.11608106578E+04  0.11755900293E+04  0.12507987045E+03 0.  0.
         23    2    1    2    0    0 -0.16631294149E+02  0.13641466090E+03 -0.19489831813E+03  0.25586676110E+03  0.92719390499E+02 0.  0.
          5    1    3    3  502    0  0.16036430253E+02 -0.29925845646E+02 -0.55792506028E+02  0.65444628975E+02  0.41800000000E+01 0. -1.
         -5    1    3    3    0  502  0.59486389621E+00 -0.10648881525E+03 -0.11050181518E+04  0.11101454003E+04  0.41800000000E+01 0. -1.
        -11    1    4    4    0    0 -0.23321190246E+02  0.10829668074E+03 -0.19791267640E+03  0.22680713493E+03  0.00000000000E+00 0. -1.
         11    1    4    4    0    0  0.66898960966E+01  0.28117980156E+02  0.30143582667E+01  0.29059626178E+02  0.00000000000E+00 0.  1.
</event>
<event>
 8    1  0.7168478E-009  0.9046996E+02  0.7561462E-02  0.1301718E+00
         -1   -1    0    0    0  501 -0.00000000000E+00  0.00000000000E+00  0.28843287919E+03  0.28843287919E+03  0.00000000000E+00 0.  1.
          1   -1    0    0  501    0  0.00000000000E+00 -0.00000000000E+00 -0.45899253863E+02  0.45899253863E+02  0.00000000000E+00 0. -1.
         25    2    1    2    0    0  0.41022153029E+02 -0.94545618975E+01  0.12896465890E+03  0.18452849550E+03  0.12508667646E+03 0.  0.
         23    2    1    2    0    0 -0.41022153029E+02  0.94545618975E+01  0.11356896643E+03  0.14980363755E+03  0.88153354496E+02 0.  0.
          5    1    3    3  502    0 -0.32605789736E+02 -0.20543858916E+02  0.94957533017E+02  0.10256506784E+03  0.41800000000E+01 0.  1.
         -5    1    3    3    0  502  0.73627942765E+02  0.11089297018E+02  0.34007125886E+02  0.81963427668E+02  0.41800000000E+01 0.  1.
        -11    1    4    4    0    0 -0.44846371102E+02  0.25169472121E+02  0.20536083483E+02  0.55375356005E+02  0.00000000000E+00 0. -1.
         11    1    4    4    0    0  0.38242180738E+01 -0.15714910223E+02  0.93032882944E+02  0.94428281548E+02  0.00000000000E+00 0.  1.
</event>
<event>
 8    1  0.7168478E-009  0.9422765E+02  0.7561462E-02  0.1292925E+00
         -2   -1    0    0    0  501 -0.00000000000E+00  0.00000000000E+00  0.44944366851E+02  0.44944366851E+02  0.00000000000E+00 0.  1.
          2   -1    0    0  501    0  0.00000000000E+00 -0.00000000000E+00 -0.33741290330E+03  0.33741290330E+03  0.00000000000E+00 0. -1.
         25    2    1    2    0    0 -0.31987081305E+01 -0.20314767356E+02 -0.82200147408E+02  0.15108766541E+03  0.12509075465E+03 0.  0.
         23    2    1    2    0    0  0.31987081305E+01  0.20314767356E+02 -0.21026838904E+03  0.23126960474E+03  0.94073976951E+02 0.  0.
          5    1    3    3  502    0 -0.49509350849E+02  0.63529271018E+01  0.32729479458E+01  0.50196813569E+02  0.41800000000E+01 0.  1.
         -5    1    3    3    0  502  0.46310642718E+02 -0.26667694457E+02 -0.85473095353E+02  0.10089085184E+03  0.41800000000E+01 0.  1.
        -11    1    4    4    0    0  0.22603720152E+02 -0.26056348346E+02 -0.14410931355E+03  0.14818014612E+03  0.00000000000E+00 0.  1.
         11    1    4    4    0    0 -0.19405012022E+02  0.46371115701E+02 -0.66159075498E+02  0.83089458619E+02  0.00000000000E+00 0. -1.
</event>
<event>
 8    1  0.7168478E-009  0.2356340E+03  0.7561462E-02  0.1122736E+00
         -1   -1    0    0    0  501 -0.00000000000E+00  0.00000000000E+00  0.44809078664E+03  0.44809078664E+03  0.00000000000E+00 0.  1.
          1   -1    0    0  501    0  0.00000000000E+00 -0.00000000000E+00 -0.14899269085E+03  0.14899269085E+03  0.00000000000E+00 0. -1.
         25    2    1    2    0    0 -0.53130449974E+02  0.22570986712E+03  0.11628647489E+03  0.28799031015E+03  0.12509230860E+03 0.  0.
         23    2    1    2    0    0  0.53130449974E+02 -0.22570986712E+03  0.18281162090E+03  0.30909316734E+03  0.91382211239E+02 0.  0.
          5    1    3    3  502    0 -0.39322615785E+02  0.53252974334E+02  0.91727755885E+02  0.11319717747E+03  0.41800000000E+01 0.  1.
         -5    1    3    3    0  502 -0.13807834189E+02  0.17245689278E+03  0.24558719005E+02  0.17479313268E+03  0.41800000000E+01 0.  1.
        -11    1    4    4    0    0  0.10255447324E+02 -0.42930232984E+02  0.88720998423E+02  0.99093867948E+02  0.00000000000E+00 0.  1.
         11    1    4    4    0    0  0.42875002650E+02 -0.18277963413E+03  0.94090622476E+02  0.20999929939E+03  0.00000000000E+00 0. -1.
</event>
<event>
 8    1  0.7168478E-009  0.1260817E+03  0.7561462E-02  0.1233388E+00
          2   -1    0    0  501    0  0.00000000000E+00  0.00000000000E+00  0.89240362355E+03  0.89240362355E+03  0.00000000000E+00 0. -1.
         -2   -1    0    0    0  501 -0.00000000000E+00 -0.00000000000E+00 -0.24638266056E+02  0.24638266056E+02  0.00000000000E+00 0.  1.
         25    2    1    2    0    0 -0.58833456285E+02 -0.71632644312E+02  0.58322969909E+03  0.60365301587E+03  0.12508984912E+03 0.  0.
         23    2    1    2    0    0  0.58833456285E+02  0.71632644312E+02  0.28453565840E+03  0.31338887374E+03  0.93056079713E+02 0.  0.
          5    1    3    3  502    0  0.11314306647E+02 -0.83548914023E+02  0.31767469351E+03  0.32869912970E+03  0.41800000000E+01 0. -1.
         -5    1    3    3    0  502 -0.70147762932E+02  0.11916269712E+02  0.26555500558E+03  0.27495388616E+03  0.41800000000E+01 0. -1.
        -11    1    4    4    0    0  0.45902429997E+02  0.35295247690E+02  0.26282669354E+03  0.26912944549E+03  0.00000000000E+00 0. -1.
         11    1    4    4    0    0  0.12931026288E+02  0.36337396621E+02  0.21708964862E+02  0.44259428255E+02  0.00000000000E+00 0.  1.
</event>
<event>
 8    1  0.7168478E-009  0.1693499E+03  0.7561462E-02  0.1178528E+00
          1   -1    0    0  501    0  0.00000000000E+00  0.00000000000E+00  0.15302166127E+03  0.15302166127E+03  0.00000000000E+00 0. -1.
         -1   -1    0    0    0  501 -0.00000000000E+00 -0.00000000000E+00 -0.28288487553E+03  0.28288487553E+03  0.00000000000E+00 0.  1.
         25    2    1    2    0    0  0.35907967520E+02 -0.15515802487E+03 -0.14852889277E+03  0.25113965500E+03  0.12508756738E+03 0.  0.
         23    2    1    2    0    0 -0.35907967520E+02  0.15515802487E+03  0.18665678514E+02  0.18476688179E+03  0.91798683210E+02 0.  0.
          5    1    3    3  502    0  0.34246892136E+02 -0.48884423951E+02  0.95652163545E+01  0.60592922771E+02  0.41800000000E+01 0. -1.
         -5    1    3    3    0  502  0.16610753839E+01 -0.10627360092E+03 -0.15809410912E+03  0.19054673223E+03  0.41800000000E+01 0. -1.
        -11    1    4    4    0    0  0.98367714505E+01  0.10154933320E+03  0.42285977728E+02  0.11044063137E+03  0.00000000000E+00 0. -1.
         11    1    4    4    0    0 -0.45744738971E+02  0.53608691676E+02 -0.23620299214E+02  0.74326250421E+02  0.00000000000E+00 0.  1.
</event>
<event>
 8    1  0.7168478E-009  0.1899141E+03  0.7561462E-02  0.1158539E+00
         -1   -1    0    0    0  501 -0.00000000000E+00  0.00000000000E+00  0.11853746609E+04  0.11853746609E+04  0.00000000000E+00 0.  1.
          1   -1    0    0  501    0  0.00000000000E+00 -0.00000000000E+00 -0.36281729128E+02  0.36281729128E+02  0.00000000000E+00 0. -1.
         25    2    1    2    0    0 -0.17605354982E+03  0.13765698014E+02  0.56233769090E+03  0.60254061026E+03  0.12508861484E+03 0.  0.
         23    2    1    2    0    0  0.17605354982E+03 -0.13765698014E+02  0.58675524082E+03  0.61911577972E+03  0.88534113296E+02 0.  0.
          5    1    3    3  502    0 -0.10129740837E+03  0.53740736394E+02  0.43218427917E+03  0.44715764027E+03  0.41800000000E+01 0. -1.
         -5    1    3    3    0  502 -0.74756141452E+02 -0.39975038380E+02  0.13015341173E+03  0.15538296999E+03  0.41800000000E+01 0. -1.
        -11    1    4    4    0    0  0.10785061046E+03  0.91948115253E+01  0.46718046441E+03  0.47955592485E+03  0.00000000000E+00 0. -1.
         11    1    4    4    0    0  0.68202939361E+02 -0.22960509539E+02  0.11957477641E+03  0.13955985486E+03  0.00000000000E+00 0.  1.
</event>
<event>
 8    1  0.7168478E-009  0.1266515E+03  0.7561462E-02  0.1232511E+00
         -3   -1    0    0    0  501 -0.00000000000E+00  0.00000000000E+00  0.39806148705E+03  0.39806148705E+03  0.00000000000E+00 0.  1.
          3   -1    0    0  501    0  0.00000000000E+00 -0.00000000000E+00 -0.49228270568E+02  0.49228270568E+02  0.00000000000E+00 0. -1.
         25    2    1    2    0    0 -0.18489008817E+02  0.85760001263E+02  0.20580791305E+03  0.25632243967E+03  0.12509066608E+03 0.  0.
         23    2    1    2    0    0  0.18489008817E+02 -0.85760001263E+02  0.14302530343E+03  0.19096731795E+03  0.91190228854E+02 0.  0.
          5    1    3    3  502    0  0.30956272690E+02  0.74141683353E+02  0.18413111325E+03  0.20094033765E+03  0.41800000000E+01 0. -1.
         -5    1    3    3    0  502 -0.49445281507E+02  0.11618317910E+02  0.21676799799E+02  0.55382102018E+02  0.41800000000E+01 0. -1.
        -11    1    4    4    0    0 -0.90566373633E+01 -0.92971738638E+02  0.12888266145E+03  0.15917445552E+03  0.00000000000E+00 0. -1.
         11    1    4    4    0    0  0.27545646180E+02  0.72117373749E+01  0.14142641981E+02  0.31792862433E+02  0.00000000000E+00 0.  1.
</event>
<event>
 8    1  0.7168478E-009  0.1061674E+03  0.7561462E-02  0.1267837E+00
          2   -1    0    0  501    0  0.00000000000E+00  0.00000000000E+00  0.12278044053E+03  0.12278044053E+03  0.00000000000E+00 0. -1.
         -2   -1    0    0    0  501 -0.00000000000E+00 -0.00000000000E+00 -0.16672308574E+03  0.16672308574E+03  0.00000000000E+00 0.  1.
         25    2    1    2    0    0  0.72616797650E+01  0.77353108642E+02 -0.75328494051E+02  0.16540170944E+03  0.12508840099E+03 0.  0.
         23    2    1    2    0    0 -0.72616797650E+01 -0.77353108642E+02  0.31385848836E+02  0.12410181683E+03  0.91542088813E+02 0.  0.
          5    1    3    3  502    0 -0.20623269054E+02  0.88799618721E+02 -0.81134474687E+01  0.91618731388E+02  0.41800000000E+01 0.  1.
         -5    1    3    3    0  502  0.27884948819E+02 -0.11446510078E+02 -0.67215046582E+02  0.73782978055E+02  0.41800000000E+01 0.  1.
        -11    1    4    4    0    0 -0.19984130668E+02 -0.10466992843E+02 -0.26452670648E+02  0.34765891361E+02  0.00000000000E+00 0.  1.
         11    1    4    4    0    0  0.12722450903E+02 -0.66886115799E+02  0.57838519484E+02  0.89335925471E+02  0.00000000000E+00 0. -1.
</event>
<event>
 8    1  0.7168478E-009  0.3539734E+03  0.7561462E-02  0.1060996E+00
         -2   -1    0    0    0  501 -0.00000000000E+00  0.00000000000E+00  0.13207695784E+03  0.13207695784E+03  0.00000000000E+00 0.  1.
          2   -1    0    0  501    0  0.00000000000E+00 -0.00000000000E+00 -0.16968628681E+04  0.16968628681E+04  0.00000000000E+00 0. -1.
         25    2    1    2    0    0  0.31735218845E+03  0.12596191845E+03 -0.13861139776E+04  0.14330173675E+04  0.12509196767E+03 0.  0.
         23    2    1    2    0    0 -0.31735218845E+03 -0.12596191845E+03 -0.17867193274E+03  0.39592245848E+03  0.90841164477E+02 0.  0.
          5    1    3    3  502    0 -0.35309142260E+01 -0.57117376197E+01 -0.58598581510E+01  0.98438630353E+01  0.41800000000E+01 0. -1.
         -5    1    3    3    0  502  0.32088310268E+03  0.13167365607E+03 -0.13802541194E+04  0.14231735045E+04  0.41800000000E+01 0. -1.
        -11    1    4    4    0    0 -0.14408803644E+03 -0.95101664135E+01 -0.67381009269E+02  0.15934869288E+03  0.00000000000E+00 0.  1.
         11    1    4    4    0    0 -0.17326415201E+03 -0.11645175204E+03 -0.11129092347E+03  0.23657376560E+03  0.00000000000E+00 0. -1.
</event>
<event>
 8    1  0.7168478E-009  0.2594711E+03  0.7561462E-02  0.1107461E+00
          1   -1    0    0  501    0  0.00000000000E+00  0.00000000000E+00  0.14571517905E+04  0.14571517905E+04  0.00000000000E+00 0. -1.
         -1   -1    0    0    0  501 -0.00000000000E+00 -0.00000000000E+00 -0.51595224261E+02  0.51595224261E+02  0.00000000000E+00 0.  1.
         25    2    1    2    0    0  0.16397811247E+03  0.18504299279E+03  0.60055906249E+03  0.66139880198E+03  0.12508979644E+03 0.  0.
         23    2    1    2    0    0 -0.16397811247E+03 -0.18504299279E+03  0.80499750376E+03  0.84734821279E+03  0.94065307696E+02 0.  0.
          5    1    3    3  502    0 -0.86312083335E+01  0.29144104255E+02  0.21799837666E+02  0.37637506458E+02  0.41800000000E+01 0.  1.
         -5    1    3    3    0  502  0.17260932080E+03  0.15589888853E+03  0.57875922483E+03  0.62376129553E+03  0.41800000000E+01 0.  1.
        -11    1    4    4    0    0 -0.43392951192E+02 -0.97193665915E+02  0.23209246737E+03  0.25533599495E+03  0.00000000000E+00 0.  1.
         11    1    4    4    0    0 -0.12058516128E+03 -0.87849326872E+02  0.57290503639E+03  0.59201221784E+03  0.00000000000E+00 0. -1.
</event>
<event>
 8    1  0.7168478E-009  0.1563450E+03  0.7561462E-02  0.1192886E+00
          3   -1    0    0  501    0  0.00000000000E+00  0.00000000000E+00  0.95084193165E+03  0.95084193165E+03  0.00000000000E+00 0. -1.
         -3   -1    0    0    0  501 -0.00000000000E+00 -0.00000000000E+00 -0.41136425308E+02  0.41136425308E+02  0.00000000000E+00 0.  1.
         25    2    1    2    0    0 -0.94209553080E+02 -0.88866154317E+02  0.72749455985E+03  0.74944516536E+03  0.12508832076E+03 0.  0.
         23    2    1    2    0    0  0.94209553080E+02  0.88866154317E+02  0.18221094649E+03  0.24253319160E+03  0.94068521475E+02 0.  0.
          5    1    3    3  502    0 -0.10780537249E+03 -0.66077026419E+02  0.69871422524E+03  0.71007549789E+03  0.41800000000E+01 0.  1.
         -5    1    3    3    0  502  0.13595819414E+02 -0.22789127898E+02  0.28780334615E+02  0.39369667466E+02  0.41800000000E+01 0.  1.
        -11    1    4    4    0    0  0.21163929552E+02  0.83421728789E+02  0.86643049312E+02  0.12212335871E+03  0.00000000000E+00 0. -1.
         11    1    4    4    0    0  0.73045623528E+02  0.54444255282E+01  0.95567897183E+02  0.12040983290E+03  0.00000000000E+00 0.  1.
</event>
<event>
 8    1  0.7168478E-009  0.1091426E+03  0.7561462E-02  0.1262166E+00
         -2   -1    0    0    0  501 -0.00000000000E+00  0.00000000000E+00  0.18785938072E+03  0.18785938072E+03  0.00000000000E+00 0.  1.
          2   -1    0    0  501    0  0.00000000000E+00 -0.00000000000E+00 -0.77362986943E+02  0.77362986943E+02  0.00000000000E+00 0. -1.
         25    2    1    2    0    0  0.17742980506E+02 -0.44511249773E+02  0.39690416357E+02  0.13971177694E+03  0.12509191321E+03 0.  0.
         23    2    1    2    0    0 -0.17742980506E+02  0.44511249773E+02  0.70805977419E+02  0.12551059072E+03  0.91887742557E+02 0.  0.
          5    1    3    3  502    0  0.38464686189E+01 -0.87472957576E+02  0.33956101739E+02  0.94004270505E+02  0.41800000000E+01 0.  1.
         -5    1    3    3    0  502  0.13896511887E+02  0.42961707803E+02  0.57343146173E+01  0.45707506430E+02  0.41800000000E+01 0.  1.
        -11    1    4    4    0    0  0.22999163246E+02  0.37426110665E+02  0.48421038186E+00  0.43930737863E+02  0.00000000000E+00 0. -1.
         11    1    4    4    0    0 -0.40742143752E+02  0.70851391081E+01  0.70321767037E+02  0.81579852861E+02  0.00000000000E+00 0.  1.
</event>
<event>
 8    1  0.7168478E-009  0.1386428E+03  0.7561462E-02  0.1215167E+00
         -3   -1    0    0    0  501 -0.00000000000E+00  0.00000000000E+00  0.20233775651E+03  0.20233775651E+03  0.00000000000E+00 0.  1.
          3   -1    0    0  501    0  0.00000000000E+00 -0.00000000000E+00 -0.17104689503E+03  0.17104689503E+03  0.00000000000E+00 0. -1.
         25    2    1    2    0    0  0.42754875878E+02  0.89246659069E+02  0.13180413428E+03  0.20691851106E+03  0.12509993940E+03 0.  0.
         23    2    1    2    0    0 -0.42754875878E+02 -0.89246659069E+02 -0.10051327280E+03  0.16646614048E+03  0.88403124109E+02 0.  0.
          5    1    3    3  502    0 -0.28998069323E+02  0.67048975701E+02  0.27173778627E+02  0.78053442024E+02  0.41800000000E+01 0. -1.
         -5    1    3    3    0  502  0.71752945201E+02  0.22197683369E+02  0.10463035565E+03  0.12886506903E+03  0.41800000000E+01 0. -1.
        -11    1    4    4    0    0 -0.24398174330E+01 -0.88535851827E+02 -0.86439608443E+02  0.12375926501E+03  0.00000000000E+00 0.  1.
         11    1    4    4    0    0 -0.40315058445E+02 -0.71080724273E+00 -0.14073664357E+02  0.42706875475E+02  0.00000000000E+00 0. -1.
</event>
<event>
 8    1  0.7168478E-009  0.7419166E+02  0.7561462E-02  0.1346393E+00
         -3   -1    0    0    0  501 -0.00000000000E+00  0.00000000000E+00  0.23351265530E+02  0.23351265530E+02  0.00000000000E+00 0.  1.
          3   -1    0    0  501    0  0.00000000000E+00 -0.00000000000E+00 -0.65737998863E+03  0.65737998863E+03  0.00000000000E+00 0. -1.
         25    2    1    2    0    0 -0.18093015862E+02 -0.42700564376E+02 -0.25634545426E+03  0.28898354669E+03  0.12509117842E+03 0.  0.
         23    2    1    2    0    0  0.18093015862E+02  0.42700564376E+02 -0.37768326885E+03  0.39174770747E+03  0.93117771256E+02 0.  0.
          5    1    3    3  502    0  0.22029703505E+01  0.35777760204E+00  0.13827708798E+02  0.14617079523E+02  0.41800000000E+01 0. -1.
         -5    1    3    3    0  502 -0.20295986213E+02 -0.43058341978E+02 -0.27017316306E+03  0.27436646717E+03  0.41800000000E+01 0. -1.
        -11    1    4    4    0    0 -0.29310208857E+02  0.38334496952E+02 -0.11385511619E+03  0.12365924746E+03  0.00000000000E+00 0.  1.
         11    1    4    4    0    0  0.47403224719E+02  0.43660674242E+01 -0.26382815265E+03  0.26808846001E+03  0.00000000000E+00 0. -1.
</event>
<event>
 8    1  0.7168478E-009  0.1363022E+03  0.7561462E-02  0.1218393E+00
         -1   -1    0    0    0  501 -0.00000000000E+00  0.00000000000E+00  0.11752111091E+04  0.11752111091E+04  0.00000000000E+00 0.  1.
          1   -1    0    0  501    0  0.00000000000E+00 -0.00000000000E+00 -0.17500015729E+02  0.17500015729E+02  0.00000000000E+00 0. -1.
         25    2    1    2    0    0  0.76721628886E+02 -0.44655273725E+02  0.74914987411E+03  0.76469242632E+03  0.12509464888E+03 0.  0.
         23    2    1    2    0    0 -0.76721628886E+02  0.44655273725E+02  0.40856121929E+03  0.42801869854E+03  0.91637517327E+02 0.  0.
          5    1    3    3  502    0 -0.23693401694E+02 -0.38923564933E+02  0.14021191386E+03  0.14748991280E+03  0.41800000000E+01 0.  1.
         -5    1    3    3    0  502  0.10041503058E+03 -0.57317087917E+01  0.60893796025E+03  0.61720251351E+03  0.41800000000E+01 0.  1.
        -11    1    4    4    0    0 -0.36012940729E+02 -0.26150450800E+02  0.11513291585E+03  0.12343567673E+03  0.00000000000E+00 0.  1.
         11    1    4    4    0    0 -0.40708688157E+02  0.70805724525E+02  0.29342830344E+03  0.30458302181E+03  0.00000000000E+00 0. -1.
</event>
<event>
 8    1  0.7168478E-009  0.2201434E+03  0.7561462E-02  0.1133776E+00
          2   -1    0    0  501    0  0.00000000000E+00  0.00000000000E+00  0.22983154827E+04  0.22983154827E+04  0.00000000000E+00 0. -1.
         -2   -1    0    0    0  501 -0.00000000000E+00 -0.00000000000E+00 -0.23125750025E+02  0.23125750025E+02  0.00000000000E+00 0.  1.
         25    2    1    2    0    0  0.17917427251E+03 -0.94746993474E+02  0.12675231473E+04  0.12897072335E+04  0.12509758797E+03 0.  0.
         23    2    1    2    0    0 -0.17917427251E+03  0.94746993474E+02  0.10076665853E+04  0.10317339992E+04  0.89457728343E+02 0.  0.
          5    1    3    3  502    0  0.94352314887E+01 -0.51251972360E+02  0.15798996567E+03  0.16641541370E+03  0.41800000000E+01 0.  1.
         -5    1    3    3    0  502  0.16973904102E+03 -0.43495021114E+02  0.11095331816E+04  0.11232918198E+04  0.41800000000E+01 0.  1.
        -11    1    4    4    0    0 -0.12500661723E+03  0.97442824820E+02  0.85862140796E+03  0.87312798642E+03  0.00000000000E+00 0. -1.
         11    1    4    4    0    0 -0.54167655279E+02 -0.26958313455E+01  0.14904517737E+03  0.15860601276E+03  0.00000000000E+00 0.  1.
</event>
<event>
 8    1  0.7168478E-009  0.9110197E+02  0.7561462E-02  0.1300205E+00
          1   -1    0    0  501    0  0.00000000000E+00  0.00000000000E+00  0.22273030862E+03  0.22273030862E+03  0.00000000000E+00 0. -1.
         -1   -1    0    0    0  501 -0.00000000000E+00 -0.00000000000E+00 -0.89913273693E+02  0.89913273693E+02  0.00000000000E+00 0.  1.
         25    2    1    2    0    0 -0.37050378622E+02  0.34837067169E+02 -0.10212665052E+02  0.13542097640E+03  0.12509272768E+03 0.  0.
         23    2    1    2    0    0  0.37050378622E+02 -0.34837067169E+02  0.14302969998E+03  0.17722260591E+03  0.91454935153E+02 0.  0.
          5    1    3    3  502    0 -0.19136736935E+02 -0.16865561938E+02 -0.57460225233E+02  0.63006442241E+02  0.41800000000E+01 0.  1.
         -5    1    3    3    0  502 -0.17913641687E+02  0.51702629108E+02  0.47247560181E+02  0.72414534164E+02  0.41800000000E+01 0.  1.
        -11    1    4    4    0    0 -0.22814924653E+02 -0.34801029813E+02  0.38118939565E+02  0.56433022394E+02  0.00000000000E+00 0.  1.
         11    1    4    4    0    0  0.59865303274E+02 -0.36037355911E-01  0.10491076041E+03  0.12078958351E+03  0.00000000000E+00 0. -1.
</event>
<event>
 8    1  0.7168478E-009  0.1792940E+03  0.7561462E-02  0.1168488E+00
         -1   -1    0    0    0  501 -0.00000000000E+00  0.00000000000E+00  0.10823736930E+03  0.10823736930E+03  0.00000000000E+00 0.  1.
          1   -1    0    0  501    0  0.00000000000E+00 -0.00000000000E+00 -0.36521145366E+03  0.36521145366E+03  0.00000000000E+00 0. -1.
         25    2    1    2    0    0  0.24759600365E+02  0.15758292277E+03 -0.18707293136E+03  0.27583848108E+03  0.12508065651E+03 0.  0.
         23    2    1    2    0    0 -0.24759600365E+02 -0.15758292277E+03 -0.69901152995E+02  0.19761034189E+03  0.93371626699E+02 0.  0.
          5    1    3    3  502    0  0.45670321602E+02  0.66311484682E+02 -0.15853811933E+03  0.17786174112E+03  0.41800000000E+01 0. -1.
         -5    1    3    3    0  502 -0.20910721237E+02  0.91271438090E+02 -0.28534812037E+02  0.97976739953E+02  0.41800000000E+01 0. -1.
        -11    1    4    4    0    0 -0.56894229941E+02 -0.12992109855E+03 -0.46979189739E+02  0.14941047325E+03  0.00000000000E+00 0. -1.
         11    1    4    4    0    0  0.32134629575E+02 -0.27661824223E+02 -0.22921963256E+02  0.48199868639E+02  0.00000000000E+00 0.  1.
</event>
<event>
 8    1  0.7168478E-009  0.1113190E+03  0.7561462E-02  0.1258147E+00
         -4   -1    0    0    0  501 -0.00000000000E+00  0.00000000000E+00  0.95989812518E+02  0.95989812518E+02  0.00000000000E+00 0.  1.
          4   -1    0    0  501    0  0.00000000000E+00 -0.00000000000E+00 -0.16317784696E+03  0.16317784696E+03  0.00000000000E+00 0. -1.
         25    2    1    2    0    0 -0.24299632477E+02  0.54303734530E+02 -0.18966535356E+02  0.13980860558E+03  0.12508936409E+03 0.  0.
         23    2    1    2    0    0  0.24299632477E+02 -0.54303734530E+02 -0.48221499088E+02  0.11935905390E+03  0.91552733724E+02 0.  0.
          5    1    3    3  502    0  0.10927184770E+02 -0.27948506273E+02  0.25685217114E+02  0.39720588466E+02  0.41800000000E+01 0. -1.
         -5    1    3    3    0  502 -0.35226817247E+02  0.82252240802E+02 -0.44651752470E+02  0.10008801711E+03  0.41800000000E+01 0. -1.
        -11    1    4    4    0    0 -0.31450138434E+02 -0.21158370275E+02  0.10312046873E+01  0.37919008734E+02  0.00000000000E+00 0.  1.
         11    1    4    4    0    0  0.55749770912E+02 -0.33145364254E+02 -0.49252703776E+02  0.81440045171E+02  0.00000000000E+00 0. -1.
</event>
<event>
 8    1  0.7168478E-009  0.1966722E+03  0.7561462E-02  0.1152577E+00
         -1   -1    0    0    0  501 -0.00000000000E+00  0.00000000000E+00  0.31709474051E+03  0.31709474051E+03  0.00000000000E+00 0.  1.
          1   -1    0    0  501    0  0.00000000000E+00 -0.00000000000E+00 -0.14404406077E+03  0.14404406077E+03  0.00000000000E+00 0. -1.
         25    2    1    2    0    0  0.37077092676E+02  0.16419609537E+03  0.17292636529E+03  0.27182047363E+03  0.12509106098E+03 0.  0.
         23    2    1    2    0    0 -0.37077092676E+02 -0.16419609537E+03  0.12431445333E+00  0.18931832766E+03  0.86639166649E+02 0.  0.
          5    1    3    3  502    0  0.56967429865E+02  0.21781951620E+02  0.26749652396E+02  0.66728987592E+02  0.41800000000E+01 0. -1.
         -5    1    3    3    0  502 -0.19890337189E+02  0.14241414375E+03  0.14617671289E+03  0.20509148604E+03  0.41800000000E+01 0. -1.
        -11    1    4    4    0    0 -0.64477240281E+02 -0.10681140716E+03  0.91102778841E+01  0.12509591670E+03  0.00000000000E+00 0.  1.
         11    1    4    4    0    0  0.27400147604E+02 -0.57384688214E+02 -0.89859634308E+01  0.64222410956E+02  0.00000000000E+00 0. -1.
</event>
<event>
 8    1  0.7168478E-009  0.1077157E+03  0.7561462E-02  0.1264859E+00
          4   -1    0    0  501    0  0.00000000000E+00  0.00000000000E+00  0.14345085851E+03  0.14345085851E+03  0.00000000000E+00 0. -1.
         -4   -1    0    0    0  501 -0.00000000000E+00 -0.00000000000E+00 -0.90337946991E+02  0.90337946991E+02  0.00000000000E+00 0.  1.
         25    2    1    2    0    0  0.16519663258E+02  0.33300290109E+02  0.31789373283E+02  0.13431416598E+03  0.12509165573E+03 0.  0.
         23    2    1    2    0    0 -0.16519663258E+02 -0.33300290109E+02  0.21323538239E+02  0.99474639523E+02  0.89770273642E+02 0.  0.
          5    1    3    3  502    0  0.69483164745E+02  0.19153066474E+02  0.32864772262E+02  0.79324118616E+02  0.41800000000E+01 0.  1.
         -5    1    3    3    0  502 -0.52963501487E+02  0.14147223635E+02 -0.10753989797E+01  0.54990047365E+02  0.41800000000E+01 0.  1.
        -11    1    4    4    0    0 -0.23879561010E+02  0.21999596239E+02 -0.11856511235E+02  0.34565771037E+02  0.00000000000E+00 0. -1.
         11    1    4    4    0    0  0.73598977521E+01 -0.55299886348E+02  0.33180049474E+02  0.64908868486E+02  0.00000000000E+00 0.  1.
</event>
<event>
 8    1  0.7168478E-009  0.2550636E+03  0.7561462E-02  0.1110146E+00
          3   -1    0    0  501    0  0.00000000000E+00  0.00000000000E+00  0.53846685024E+03  0.53846685024E+03  0.00000000000E+00 0. -1.
         -3   -1    0    0    0  501 -0.00000000000E+00 -0.00000000000E+00 -0.13362746229E+03  0.13362746229E+03  0.00000000000E+00 0.  1.
         25    2    1    2    0    0 -0.23845213092E+03 -0.25468289507E+02  0.14329371790E+03  0.30608776236E+03  0.12509426912E+03 0.  0.
         23    2    1    2    0    0  0.23845213092E+03  0.25468289507E+02  0.26154567005E+03  0.36600655018E+03  0.89702869179E+02 0.  0.
          5    1    3    3  502    0 -0.92256403738E+02  0.34219955531E+02  0.10415370056E+03  0.14334474224E+03  0.41800000000E+01 0. -1.
         -5    1    3    3    0  502 -0.14619572718E+03 -0.59688245038E+02  0.39140017340E+02  0.16274302012E+03  0.41800000000E+01 0. -1.
        -11    1    4    4    0    0  0.10705996364E+02  0.23605678803E+02  0.13374133358E+02  0.29166999725E+02  0.00000000000E+00 0.  1.
         11    1    4    4    0    0  0.22774613455E+03  0.18626107043E+01  0.24817153670E+03  0.33683955045E+03  0.00000000000E+00 0. -1.
</event>
<event>
 8    1  0.7168478E-009  0.1151338E+03  0.7561462E-02  0.1251348E+00
          3   -1    0    0  501    0  0.00000000000E+00  0.00000000000E+00  0.13212029416E+03  0.13212029416E+03  0.00000000000E+00 0. -1.
         -3   -1    0    0    0  501 -0.00000000000E+00 -0.00000000000E+00 -0.25028680356E+03  0.25028680356E+03  0.00000000000E+00 0.  1.
         25    2    1    2    0    0  0.63656140082E+01 -0.40461892417E+02  0.83755033709E+02  0.15602578244E+03  0.12510576859E+03 0.  0.
         23    2    1    2    0    0 -0.63656140082E+01  0.40461892417E+02 -0.20192154311E+03  0.22638131528E+03  0.93800344130E+02 0.  0.
          5    1    3    3  502    0  0.62419720887E+02 -0.14047630315E+01  0.32476226173E+02  0.70500869365E+02  0.41800000000E+01 0. -1.
         -5    1    3    3    0  502 -0.56054106879E+02 -0.39057129386E+02  0.51278807536E+02  0.85524913073E+02  0.41800000000E+01 0. -1.
        -11    1    4    4    0    0  0.40295328685E+02  0.32804946376E+02 -0.13308485632E+03  0.14286867047E+03  0.00000000000E+00 0. -1.
         11    1    4    4    0    0 -0.46660942693E+02  0.76569460410E+01 -0.68836686791E+02  0.83512644815E+02  0.00000000000E+00 0.  1.
</event>
<event>
 8    1  0.7168478E-009  0.1374745E+03  0.7561462E-02  0.1216768E+00
          2   -1    0    0  501    0  0.00000000000E+00  0.00000000000E+00  0.61945322515E+03  0.61945322515E+03  0.00000000000E+00 0. -1.
         -2   -1    0    0    0  501 -0.00000000000E+00 -0.00000000000E+00 -0.42450759192E+02  0.42450759192E+02  0.00000000000E+00 0.  1.
         25    2    1    2    0    0 -0.60688221566E+02  0.72839955756E+02  0.15887036071E+03  0.22332942214E+03  0.12509004713E+03 0.  0.
         23    2    1    2    0    0  0.60688221566E+02 -0.72839955756E+02  0.41813210525E+03  0.43857456220E+03  0.92328055204E+02 0.  0.
          5    1    3    3  502    0 -0.72625300372E+02 -0.13897292682E+01  0.41157934434E+02  0.83593143070E+02  0.41800000000E+01 0.  1.
         -5    1    3    3    0  502  0.11937078805E+02  0.74229685024E+02  0.11771242627E+03  0.13973627907E+03  0.41800000000E+01 0.  1.
        -11    1    4    4    0    0  0.82253335555E+02 -0.55612854816E+02  0.26532034883E+03  0.28329011337E+03  0.00000000000E+00 0.  1.
         11    1    4    4    0    0 -0.21565113989E+02 -0.17227100939E+02  0.15281175642E+03  0.15528444883E+03  0.00000000000E+00 0. -1.
</event>
<event>
 8    1  0.7168478E-009  0.8062341E+02  0.7561462E-02  0.1327292E+00
         -1   -1    0    0    0  501 -0.00000000000E+00  0.00000000000E+00  0.27993203704E+02  0.27993203704E+02  0.00000000000E+00 0.  1.
          1   -1    0    0  501    0  0.00000000000E+00 -0.00000000000E+00 -0.79525398179E+03  0.79525398179E+03  0.00000000000E+00 0. -1.
         25    2    1    2    0    0 -0.20240449268E+02 -0.14152009783E+02 -0.68830851053E+03  0.70001506988E+03  0.12507012922E+03 0.  0.
         23    2    1    2    0    0  0.20240449268E+02  0.14152009783E+02 -0.78952267563E+02  0.12323211562E+03  0.91338593155E+02 0.  0.
          5    1    3    3  502    0  0.42064107747E+00 -0.54394127356E+02 -0.58006576584E+03  0.58262566295E+03  0.41800000000E+01 0.  1.
         -5    1    3    3    0  502 -0.20661090346E+02  0.40242117574E+02 -0.10824274469E+03  0.11738940693E+03  0.41800000000E+01 0.  1.
        -11    1    4    4    0    0  0.35352818394E+02 -0.62206515261E+01  0.43452486355E+01  0.36157979195E+02  0.00000000000E+00 0.  1.
         11    1    4    4    0    0 -0.15112369126E+02  0.20372661309E+02 -0.83297516198E+02  0.87074136425E+02  0.00000000000E+00 0. -1.
</event>
<event>
 8    1  0.7168478E-009  0.2009800E+03  0.7561462E-02  0.1148915E+00
         -1   -1    0    0    0  501 -0.00000000000E+00  0.00000000000E+00  0.18117099627E+03  0.18117099627E+03  0.00000000000E+00 0.  1.
          1   -1    0    0  501    0  0.00000000000E+00 -0.00000000000E+00 -0.44680770576E+03  0.44680770576E+03  0.00000000000E+00 0. -1.
         25    2    1    2    0    0 -0.99722061243E+02  0.16286842157E+03  0.64002874501E+02  0.23709561822E+03  0.12508937602E+03 0.  0.
         23    2    1    2    0    0  0.99722061243E+02 -0.16286842157E+03 -0.32963958400E+03  0.39088308381E+03  0.87502672104E+02 0.  0.
          5    1    3    3  502    0 -0.21892269090E+02  0.68269828670E+01  0.58066147034E+02  0.62570192363E+02  0.41800000000E+01 0.  1.
         -5    1    3    3    0  502 -0.77829792153E+02  0.15604143870E+03  0.59367274664E+01  0.17452542586E+03  0.41800000000E+01 0.  1.
        -11    1    4    4    0    0  0.97196038916E+02 -0.93684611529E+02 -0.25844686187E+03  0.29157958918E+03  0.00000000000E+00 0. -1.
         11    1    4    4    0    0  0.25260223275E+01 -0.69183810041E+02 -0.71192722130E+02  0.99303494626E+02  0.00000000000E+00 0.  1.
</event>
<event>
 8    1  0.7168478E-009  0.9392944E+02  0.7561462E-02  0.1293606E+00
         -2   -1    0    0    0  501 -0.00000000000E+00  0.00000000000E+00  0.21250814773E+02  0.21250814773E+02  0.00000000000E+00 0. -1.
          2   -1    0    0  501    0  0.00000000000E+00 -0.00000000000E+00 -0.56432637708E+03  0.56432637708E+03  0.00000000000E+00 0.  1.
         25    2    1    2    0    0 -0.22817758101E+01  0.25821226841E+02 -0.33255269912E+03  0.35624451437E+03  0.12508762555E+03 0.  0.
         23    2    1    2    0    0  0.22817758101E+01 -0.25821226841E+02 -0.21052286318E+03  0.22933267749E+03  0.87187492130E+02 0.  0.
          5    1    3    3  502    0 -0.40412247138E+02 -0.15850107170E+02 -0.43142701862E+02  0.61344443432E+02  0.41800000000E+01 0.  1.
         -5    1    3    3    0  502  0.38130471328E+02  0.41671334011E+02 -0.28940999726E+03  0.29490007093E+03  0.41800000000E+01 0.  1.
        -11    1    4    4    0    0 -0.10047140720E+02  0.29379277170E+02 -0.47235246943E+02  0.56526591242E+02  0.00000000000E+00 0. -1.
         11    1    4    4    0    0  0.12328916530E+02 -0.55200504011E+02 -0.16328761624E+03  0.17280608624E+03  0.00000000000E+00 0.  1.
</event>
<event>
 8    1  0.7168478E-009  0.1259017E+03  0.7561462E-02  0.1233667E+00
          1   -1    0    0  501    0  0.00000000000E+00  0.00000000000E+00  0.21448407041E+03  0.21448407041E+03  0.00000000000E+00 0. -1.
         -1   -1    0    0    0  501 -0.00000000000E+00 -0.00000000000E+00 -0.10868242276E+03  0.10868242276E+03  0.00000000000E+00 0.  1.
         25    2    1    2    0    0  0.94926414026E+02 -0.27027649973E+02  0.13660837796E+02  0.15992602210E+03  0.12509275004E+03 0.  0.
         23    2    1    2    0    0 -0.94926414026E+02  0.27027649973E+02  0.92140809853E+02  0.16324047106E+03  0.91738784655E+02 0.  0.
          5    1    3    3  502    0  0.10704754519E+03  0.15714446746E+02 -0.11184790942E+02  0.10885170057E+03  0.41800000000E+01 0.  1.
         -5    1    3    3    0  502 -0.12121131163E+02 -0.42742096719E+02  0.24845628738E+02  0.51074321532E+02  0.41800000000E+01 0.  1.
        -11    1    4    4    0    0 -0.44944588437E+02  0.16102708766E+02  0.10062827508E+03  0.11137936526E+03  0.00000000000E+00 0. -1.
         11    1    4    4    0    0 -0.49981825590E+02  0.10924941206E+02 -0.84874652270E+01  0.51861105808E+02  0.00000000000E+00 0.  1.
</event>
<event>
 8    1  0.7168478E-009  0.1318859E+03  0.7561462E-02  0.1224684E+00
         -1   -1    0    0    0  501 -0.00000000000E+00  0.00000000000E+00  0.44131339362E+02  0.44131339362E+02  0.00000000000E+00 0.  1.
          1   -1    0    0  501    0  0.00000000000E+00 -0.00000000000E+00 -0.48715222518E+03  0.48715222518E+03  0.00000000000E+00 0. -1.
         25    2    1    2    0    0 -0.82610789793E+02  0.36495830959E+02 -0.17377832263E+03  0.23238518249E+03  0.12508988511E+03 0.  0.
         23    2    1    2    0    0  0.82610789793E+02 -0.36495830959E+02 -0.26924256319E+03  0.29889838205E+03  0.93231951035E+02 0.  0.
          5    1    3    3  502    0  0.26961883680E+02  0.32951228697E+02 -0.33712765561E+02  0.54467876826E+02  0.41800000000E+01 0.  1.
         -5    1    3    3    0  502 -0.10957267347E+03  0.35446022623E+01 -0.14006555707E+03  0.17791730566E+03  0.41800000000E+01 0.  1.
        -11    1    4    4    0    0  0.77911200002E+02 -0.35395394793E+01 -0.10213773427E+03  0.12850992252E+03  0.00000000000E+00 0.  1.
         11    1    4    4    0    0  0.46995897904E+01 -0.32956291480E+02 -0.16710482892E+03  0.17038845953E+03  0.00000000000E+00 0. -1.
</event>
<event>
 8    1  0.7168478E-009  0.1372800E+03  0.7561462E-02  0.1217037E+00
          2   -1    0    0  501    0  0.00000000000E+00  0.00000000000E+00  0.85164461212E+03  0.85164461212E+03  0.00000000000E+00 0. -1.
         -2   -1    0    0    0  501 -0.00000000000E+00 -0.00000000000E+00 -0.23217245450E+02  0.23217245450E+02  0.00000000000E+00 0.  1.
         25    2    1    2    0    0  0.55028901148E+01 -0.86113751295E+02  0.52386958237E+03  0.54546644103E+03  0.12509372086E+03 0.  0.
         23    2    1    2    0    0 -0.55028901148E+01  0.86113751295E+02  0.30455778430E+03  0.32939541653E+03  0.91104536091E+02 0.  0.
          5    1    3    3  502    0 -0.51664646019E+02 -0.77668038474E+02  0.29818590979E+03  0.31246418842E+03  0.41800000000E+01 0.  1.
         -5    1    3    3    0  502  0.57167536134E+02 -0.84457128217E+01  0.22568367258E+03  0.23300225261E+03  0.41800000000E+01 0.  1.
        -11    1    4    4    0    0  0.29196955398E+02  0.83488040183E+02  0.24421208293E+03  0.25973497359E+03  0.00000000000E+00 0.  1.
         11    1    4    4    0    0 -0.34699845512E+02  0.26257111122E+01  0.60345701368E+02  0.69660442943E+02  0.00000000000E+00 0. -1.
</event>
<event>
 8    1  0.7168478E-009  0.1226985E+03  0.7561462E-02  0.1238711E+00
         -1   -1    0    0    0  501 -0.00000000000E+00  0.00000000000E+00  0.47897453306E+02  0.47897453306E+02  0.00000000000E+00 0.  1.
          1   -1    0    0  501    0  0.00000000000E+00 -0.00000000000E+00 -0.41874557721E+03  0.41874557721E+03  0.00000000000E+00 0. -1.
         25    2    1    2    0    0  0.13618863677E+02 -0.73186649929E+02 -0.28792394612E+03  0.32262863817E+03  0.12508908923E+03 0.  0.
         23    2    1    2    0    0 -0.13618863677E+02  0.73186649929E+02 -0.82924177789E+02  0.14401439235E+03  0.91224814418E+02 0.  0.
          5    1    3    3  502    0 -0.45825729135E+02 -0.72102488640E+02 -0.18170255707E+03  0.20082842917E+03  0.41800000000E+01 0.  1.
         -5    1    3    3    0  502  0.59444592812E+02 -0.10841612887E+01 -0.10622138905E+03  0.12180020900E+03  0.41800000000E+01 0.  1.
        -11    1    4    4    0    0 -0.29481053485E+02  0.78242538070E+02 -0.30485907786E+02  0.88996729445E+02  0.00000000000E+00 0.  1.
         11    1    4    4    0    0  0.15862189808E+02 -0.50558881414E+01 -0.52438270003E+02  0.55017662903E+02  0.00000000000E+00 0. -1.
</event>
<event>
 8    1  0.7168478E-009  0.1123914E+03  0.7561462E-02  0.1256204E+00
         -1   -1    0    0    0  501 -0.00000000000E+00  0.00000000000E+00  0.60760434627E+02  0.60760434627E+02  0.00000000000E+00 0.  1.
          1   -1    0    0  501    0  0.00000000000E+00 -0.00000000000E+00 -0.25807505072E+03  0.25807505072E+03  0.00000000000E+00 0. -1.
         25    2    1    2    0    0  0.35300677702E+02  0.33298141526E+02 -0.67912681113E+02  0.15037987905E+03  0.12508825561E+03 0.  0.
         23    2    1    2    0    0 -0.35300677702E+02 -0.33298141526E+02 -0.12940193498E+03  0.16845560630E+03  0.96319917157E+02 0.  0.
          5    1    3    3  502    0  0.41495500340E+02  0.69541149925E+02 -0.10067939642E+02  0.81710977782E+02  0.41800000000E+01 0. -1.
         -5    1    3    3    0  502 -0.61948226383E+01 -0.36243008399E+02 -0.57844741471E+02  0.68668901267E+02  0.41800000000E+01 0. -1.
        -11    1    4    4    0    0 -0.67376131645E+02 -0.31995370474E+02 -0.10125901028E+03  0.12576420004E+03  0.00000000000E+00 0.  1.
         11    1    4    4    0    0  0.32075453943E+02 -0.13027710522E+01 -0.28142924695E+02  0.42691406260E+02  0.00000000000E+00 0. -1.
</event>
<event>
 8    1  0.7168478E-009  0.1053497E+03  0.7561462E-02  0.1269432E+00
          2   -1    0    0  501    0  0.00000000000E+00  0.00000000000E+00  0.28276540876E+03  0.28276540876E+03  0.00000000000E+00 0. -1.
         -2   -1    0    0    0  501 -0.00000000000E+00 -0.00000000000E+00 -0.57860346514E+02  0.57860346514E+02  0.00000000000E+00 0.  1.
         25    2    1    2    0    0 -0.10845023903E+02  0.70158987714E+02  0.96112713839E+02  0.17298793838E+03  0.12508906812E+03 0.  0.
         23    2    1    2    0    0  0.10845023903E+02 -0.70158987714E+02  0.12879234840E+03  0.16763781689E+03  0.80467823034E+02 0.  0.
          5    1    3    3  502    0  0.38108234521E+02  0.17851475365E+01 -0.78856585502E+01  0.39180100827E+02  0.41800000000E+01 0. -1.
         -5    1    3    3    0  502 -0.48953258424E+02  0.68373840178E+02  0.10399837239E+03  0.13380783755E+03  0.41800000000E+01 0. -1.
        -11    1    4    4    0    0  0.31013824692E+02 -0.29814130310E+02  0.15552028239E+02  0.45745002684E+02  0.00000000000E+00 0.  1.
         11    1    4    4    0    0 -0.20168800789E+02 -0.40344857404E+02  0.11324032016E+03  0.12189281421E+03  0.00000000000E+00 0. -1.
</event>
<event>
 8    1  0.7168478E-009  0.1425156E+03  0.7561462E-02  0.1209984E+00
         -2   -1    0    0    0  501 -0.00000000000E+00  0.00000000000E+00  0.26461332316E+02  0.26461332316E+02  0.00000000000E+00 0.  1.
          2   -1    0    0  501    0  0.00000000000E+00 -0.00000000000E+00 -0.82847142024E+03  0.82847142024E+03  0.00000000000E+00 0. -1.
         25    2    1    2    0    0 -0.68466750316E+02 -0.71875803325E+02 -0.39830684349E+03  0.42912601995E+03  0.12508785881E+03 0.  0.
         23    2    1    2    0    0  0.68466750316E+02  0.71875803325E+02 -0.40370324443E+03  0.42580673260E+03  0.92093631518E+02 0.  0.
          5    1    3    3  502    0 -0.66898094715E+02 -0.10367993107E+03 -0.27044625312E+03  0.29729367873E+03  0.41800000000E+01 0. -1.
         -5    1    3    3    0  502 -0.15686556004E+01  0.31804127746E+02 -0.12786059037E+03  0.13183234122E+03  0.41800000000E+01 0. -1.
        -11    1    4    4    0    0 -0.19002918370E+02  0.20764510497E+02 -0.15011486494E+03  0.15273096765E+03  0.00000000000E+00 0. -1.
         11    1    4    4    0    0  0.87469668686E+02  0.51111292828E+02 -0.25358837949E+03  0.27307576495E+03  0.00000000000E+00 0.  1.
</event>
<event>
 8    1  0.7168478E-009  0.1347297E+03  0.7561462E-02  0.1220602E+00
          2   -1    0    0  501    0  0.00000000000E+00  0.00000000000E+00  0.37984197832E+03  0.37984197832E+03  0.00000000000E+00 0. -1.
         -2   -1    0    0    0  501 -0.00000000000E+00 -0.00000000000E+00 -0.69097943544E+02  0.69097943544E+02  0.00000000000E+00 0.  1.
         25    2    1    2    0    0  0.11574643363E+03  0.32369383200E+02  0.17500913960E+03  0.24641731070E+03  0.12509307814E+03 0.  0.
         23    2    1    2    0    0 -0.11574643363E+03 -0.32369383200E+02  0.13573489517E+03  0.20252261117E+03  0.90257589162E+02 0.  0.
          5    1    3    3  502    0  0.19448798506E+02  0.44766782669E+02  0.13076039915E+03  0.13963550759E+03  0.41800000000E+01 0.  1.
         -5    1    3    3    0  502  0.96297635120E+02 -0.12397399469E+02  0.44248740457E+02  0.10678180311E+03  0.41800000000E+01 0.  1.
        -11    1    4    4    0    0 -0.36754580588E+02 -0.23906684254E+02 -0.15893713542E+01  0.43874307374E+02  0.00000000000E+00 0.  1.
         11    1    4    4    0    0 -0.78991853038E+02 -0.84626989459E+01  0.13732426653E+03  0.15864830380E+03  0.00000000000E+00 0. -1.
</event>
<event>
 8    1  0.7168478E-009  0.7633604E+02  0.7561462E-02  0.1339783E+00
         -4   -1    0    0    0  501 -0.00000000000E+00  0.00000000000E+00  0.70134521466E+02  0.70134521466E+02  0.00000000000E+00 0.  1.
          4   -1    0    0  501    0  0.00000000000E+00 -0.00000000000E+00 -0.24125532085E+03  0.24125532085E+03  0.00000000000E+00 0. -1.
         25    2    1    2    0    0  0.48988478239E+01 -0.46383049250E+02 -0.16336854165E+03  0.21097911663E+03  0.12509005271E+03 0.  0.
         23    2    1    2    0    0 -0.48988478239E+01  0.46383049250E+02 -0.77522577360E+01  0.10041072568E+03  0.88582336637E+02 0.  0.
          5    1    3    3  502    0 -0.32965777621E+02 -0.14843050107E+02  0.38528172479E+01  0.36597475752E+02  0.41800000000E+01 0. -1.
         -5    1    3    3    0  502  0.37864625445E+02 -0.31539999144E+02 -0.16722135889E+03  0.17438164088E+03  0.41800000000E+01 0. -1.
        -11    1    4    4    0    0  0.16665205165E+02  0.41485929405E+02  0.31960024097E+02  0.54956842541E+02  0.00000000000E+00 0.  1.
         11    1    4    4    0    0 -0.21564052989E+02  0.48971198451E+01 -0.39712281833E+02  0.45453883140E+02  0.00000000000E+00 0. -1.
</event>
<event>
 8    1  0.7168478E-009  0.7623733E+02  0.7561462E-02  0.1340082E+00
          4   -1    0    0  501    0  0.00000000000E+00  0.00000000000E+00  0.41300879322E+02  0.41300879322E+02  0.00000000000E+00 0. -1.
         -4   -1    0    0    0  501 -0.00000000000E+00 -0.00000000000E+00 -0.43653874857E+03  0.43653874857E+03  0.00000000000E+00 0.  1.
         25    2    1    2    0    0 -0.31589912813E+02  0.24285629485E+02 -0.34037452763E+03  0.36481541729E+03  0.12509098787E+03 0.  0.
         23    2    1    2    0    0  0.31589912813E+02 -0.24285629485E+02 -0.54863341621E+02  0.11302421060E+03  0.90425502688E+02 0.  0.
          5    1    3    3  502    0 -0.34312717630E+02  0.40086960844E+02 -0.46446557617E+02  0.70420750744E+02  0.41800000000E+01 0.  1.
         -5    1    3    3    0  502  0.27228048174E+01 -0.15801331360E+02 -0.29392797001E+03  0.29439466655E+03  0.41800000000E+01 0.  1.
        -11    1    4    4    0    0  0.48566259733E+02 -0.37581775420E+02 -0.64805172704E+02  0.89279235197E+02  0.00000000000E+00 0.  1.
         11    1    4    4    0    0 -0.16976346920E+02  0.13296145935E+02  0.99418310831E+01  0.23744975400E+02  0.00000000000E+00 0. -1.
</event>
<event>
 8    1  0.7168478E-009  0.2329099E+03  0.7561462E-02  0.1124608E+00
          1   -1    0    0  501    0  0.00000000000E+00  0.00000000000E+00  0.78693802636E+03  0.78693802636E+03  0.00000000000E+00 0. -1.
         -1   -1    0    0    0  501 -0.00000000000E+00 -0.00000000000E+00 -0.71472750492E+02  0.71472750492E+02  0.00000000000E+00 0.  1.
         25    2    1    2    0    0  0.35162683881E+02  0.20155796577E+03  0.28731704105E+03  0.37424687047E+03  0.12509040761E+03 0.  0.
         23    2    1    2    0    0 -0.35162683881E+02 -0.20155796577E+03  0.42814823482E+03  0.48416390638E+03  0.96134017698E+02 0.  0.
          5    1    3    3  502    0  0.82389230821E+02  0.12562107101E+03  0.18091318997E+03  0.23519288582E+03  0.41800000000E+01 0.  1.
         -5    1    3    3    0  502 -0.47226546941E+02  0.75936894761E+02  0.10640385108E+03  0.13905398465E+03  0.41800000000E+01 0.  1.
        -11    1    4    4    0    0  0.31846101762E+02 -0.94394615114E+02  0.19382005833E+03  0.21792368520E+03  0.00000000000E+00 0. -1.
         11    1    4    4    0    0 -0.67008785643E+02 -0.10716335066E+03  0.23432817649E+03  0.26624022118E+03  0.00000000000E+00 0.  1.
</event>
<event>
 8    1  0.7168478E-009  0.2274274E+03  0.7561462E-02  0.1128464E+00
         -2   -1    0    0    0  501 -0.00000000000E+00  0.00000000000E+00  0.54510714479E+03  0.54510714479E+03  0.00000000000E+00 0.  1.
          2   -1    0    0  501    0  0.00000000000E+00 -0.00000000000E+00 -0.10325012073E+03  0.10325012073E+03  0.00000000000E+00 0. -1.
         25    2    1    2    0    0  0.13606459318E+03 -0.16080663601E+03  0.21114861653E+03  0.32342740210E+03  0.12509675642E+03 0.  0.
         23    2    1    2    0    0 -0.13606459318E+03  0.16080663601E+03  0.23070840753E+03  0.32492986342E+03  0.89334758817E+02 0.  0.
          5    1    3    3  502    0  0.56007897824E+02 -0.13450558019E+03  0.18412266180E+03  0.23483454327E+03  0.41800000000E+01 0.  1.
         -5    1    3    3    0  502  0.80056695351E+02 -0.26301055818E+02  0.27025954722E+02  0.88592858834E+02  0.41800000000E+01 0.  1.
        -11    1    4    4    0    0 -0.79228453671E+02  0.34881930245E+02  0.60039183524E+02  0.10534989552E+03  0.00000000000E+00 0. -1.
         11    1    4    4    0    0 -0.56836139504E+02  0.12592470577E+03  0.17066922401E+03  0.21957996789E+03  0.00000000000E+00 0.  1.
</event>
<event>
 8    1  0.7168478E-009  0.1373357E+03  0.7561462E-02  0.1216960E+00
          1   -1    0    0  501    0  0.00000000000E+00  0.00000000000E+00  0.38837239943E+02  0.38837239943E+02  0.00000000000E+00 0. -1.
         -1   -1    0    0    0  501 -0.00000000000E+00 -0.00000000000E+00 -0.77244498101E+03  0.77244498101E+03  0.00000000000E+00 0.  1.
         25    2    1    2    0    0  0.88798562798E+02 -0.86651992862E+02 -0.48486303162E+03  0.51588200805E+03  0.12509330188E+03 0.  0.
         23    2    1    2    0    0 -0.88798562798E+02  0.86651992862E+02 -0.24874470945E+03  0.29540021291E+03  0.99968008303E+02 0.  0.
          5    1    3    3  502    0  0.86776878941E+02 -0.62016827841E+02 -0.17484832496E+03  0.20485537043E+03  0.41800000000E+01 0. -1.
         -5    1    3    3    0  502  0.20216838570E+01 -0.24635165021E+02 -0.31001470666E+03  0.31102663762E+03  0.41800000000E+01 0. -1.
        -11    1    4    4    0    0 -0.73541359684E+02  0.22480701810E+02 -0.19727926052E+03  0.21173762105E+03  0.00000000000E+00 0.  1.
         11    1    4    4    0    0 -0.15257203113E+02  0.64171291053E+02 -0.51465448933E+02  0.83662591856E+02  0.00000000000E+00 0. -1.
</event>
<event>
 8    1  0.7168478E-009  0.1087545E+03  0.7561462E-02  0.1262894E+00
         -1   -1    0    0    0  501 -0.00000000000E+00  0.00000000000E+00  0.41106626129E+02  0.41106626129E+02  0.00000000000E+00 0.  1.
          1   -1    0    0  501    0  0.00000000000E+00 -0.00000000000E+00 -0.33999209988E+03  0.33999209988E+03  0.00000000000E+00 0. -1.
         25    2    1    2    0    0 -0.43108855712E+02  0.10284776614E+02 -0.19775074632E+03  0.23815593011E+03  0.12509492117E+03 0.  0.
         23    2    1    2    0    0  0.43108855712E+02 -0.10284776614E+02 -0.10113472743E+03  0.14294279591E+03  0.90775876408E+02 0.  0.
          5    1    3    3  502    0 -0.84292338917E+02  0.15533937321E+02 -0.16149462718E+03  0.18287834376E+03  0.41800000000E+01 0.  1.
         -5    1    3    3    0  502  0.41183483206E+02 -0.52491607074E+01 -0.36256119144E+02  0.55277586348E+02  0.41800000000E+01 0.  1.
        -11    1    4    4    0    0  0.70754856807E+01  0.32941868105E+02 -0.88218917779E+01  0.34828938348E+02  0.00000000000E+00 0.  1.
         11    1    4    4    0    0  0.36033370031E+02 -0.43226644719E+02 -0.92312835655E+02  0.10811385756E+03  0.00000000000E+00 0. -1.
</event>
<event>
 8    1  0.7168478E-009  0.1650902E+03  0.7561462E-02  0.1183067E+00
         -1   -1    0    0    0  501 -0.00000000000E+00  0.00000000000E+00  0.41885706058E+03  0.41885706058E+03  0.00000000000E+00 0.  1.
          1   -1    0    0  501    0  0.00000000000E+00 -0.00000000000E+00 -0.74124949873E+02  0.74124949873E+02  0.00000000000E+00 0. -1.
         25    2    1    2    0    0 -0.19810604984E+02  0.12793008403E+03  0.11646743471E+03  0.21440788870E+03  0.12509001927E+03 0.  0.
         23    2    1    2    0    0  0.19810604984E+02 -0.12793008403E+03  0.22826467600E+03  0.27857412176E+03  0.93489103829E+02 0.  0.
          5    1    3    3  502    0  0.45064041583E+02  0.94761196146E+02  0.84242560515E+02  0.13462813057E+03  0.41800000000E+01 0. -1.
         -5    1    3    3    0  502 -0.64874646567E+02  0.33168887879E+02  0.32224874196E+02  0.79779758130E+02  0.41800000000E+01 0. -1.
        -11    1    4    4    0    0 -0.29064887770E+02 -0.25394455444E+02  0.10029048766E+03  0.10746082069E+03  0.00000000000E+00 0.  1.
         11    1    4    4    0    0  0.48875492754E+02 -0.10253562858E+03  0.12797418834E+03  0.17111330106E+03  0.00000000000E+00 0. -1.
</event>
<event>
 8    1  0.7168478E-009  0.1335898E+03  0.7561462E-02  0.1222224E+00
         -1   -1    0    0    0  501 -0.00000000000E+00  0.00000000000E+00  0.30201136884E+03  0.30201136884E+03  0.00000000000E+00 0.  1.
          1   -1    0    0  501    0  0.00000000000E+00 -0.00000000000E+00 -0.87007560607E+02  0.87007560607E+02  0.00000000000E+00 0. -1.
         25    2    1    2    0    0  0.11069992855E+03  0.31386098944E+02  0.75083276330E+02  0.18580739106E+03  0.12508927532E+03 0.  0.
         23    2    1    2    0    0 -0.11069992855E+03 -0.31386098944E+02  0.13992053191E+03  0.20321153839E+03  0.92073952338E+02 0.  0.
          5    1    3    3  502    0  0.11214678475E+03  0.28828908659E+02  0.10445109723E+03  0.15599843402E+03  0.41800000000E+01 0. -1.
         -5    1    3    3    0  502 -0.14468561991E+01  0.25571902842E+01 -0.29367820902E+02  0.29808957035E+02  0.41800000000E+01 0. -1.
        -11    1    4    4    0    0 -0.12190203285E+03 -0.43752705151E+02  0.11489686097E+03  0.17313489966E+03  0.00000000000E+00 0. -1.
         11    1    4    4    0    0  0.11202104304E+02  0.12366606207E+02  0.25023670939E+02  0.30076638728E+02  0.00000000000E+00 0.  1.
</event>
<event>
 8    1  0.7168478E-009  0.1397923E+03  0.7561462E-02  0.1213609E+00
          1   -1    0    0  501    0  0.00000000000E+00  0.00000000000E+00  0.25430761641E+03  0.25430761641E+03  0.00000000000E+00 0. -1.
         -1   -1    0    0    0  501 -0.00000000000E+00 -0.00000000000E+00 -0.80651695510E+02  0.80651695510E+02  0.00000000000E+00 0.  1.
         25    2    1    2    0    0 -0.39366827409E+02  0.83774790448E+02  0.11161313644E+03  0.19150237919E+03  0.12509079260E+03 0.  0.
         23    2    1    2    0    0  0.39366827409E+02 -0.83774790448E+02  0.62042784463E+02  0.14345693273E+03  0.90347229237E+02 0.  0.
          5    1    3    3  502    0 -0.77129304091E+02  0.83328059738E+02  0.63388824406E+02  0.13010807257E+03  0.41800000000E+01 0.  1.
         -5    1    3    3    0  502  0.37762476682E+02  0.44673070994E+00  0.48224312032E+02  0.61394306612E+02  0.41800000000E+01 0.  1.
        -11    1    4    4    0    0  0.64417314679E+02 -0.35431126122E+02  0.45881303603E+02  0.86660539746E+02  0.00000000000E+00 0. -1.
         11    1    4    4    0    0 -0.25050487270E+02 -0.48343664327E+02  0.16161480860E+02  0.56796392989E+02  0.00000000000E+00 0.  1.
</event>
<event>
 8    1  0.7168478E-009  0.7879430E+02  0.7561462E-02  0.1332508E+00
         -4   -1    0    0    0  501 -0.00000000000E+00  0.00000000000E+00  0.71041529848E+02  0.71041529848E+02  0.00000000000E+00 0.  1.
          4   -1    0    0  501    0  0.00000000000E+00 -0.00000000000E+00 -0.21043860977E+03  0.21043860977E+03  0.00000000000E+00 0. -1.
         25    2    1    2    0    0 -0.34162390238E+02 -0.65042342237E+01 -0.32144587205E+02  0.13375135339E+03  0.12508707398E+03 0.  0.
         23    2    1    2    0    0  0.34162390238E+02  0.65042342237E+01 -0.10725249271E+03  0.14772878622E+03  0.95453250944E+02 0.  0.
          5    1    3    3  502    0  0.15990120928E+02 -0.49553583221E+02 -0.41698164443E+02  0.66838992326E+02  0.41800000000E+01 0. -1.
         -5    1    3    3    0  502 -0.50152511166E+02  0.43049348997E+02  0.95535772381E+01  0.66912361066E+02  0.41800000000E+01 0. -1.
        -11    1    4    4    0    0  0.17245793460E+02 -0.58128147351E+01  0.15070449480E+02  0.23628894488E+02  0.00000000000E+00 0.  1.
         11    1    4    4    0    0  0.16916596778E+02  0.12317048959E+02 -0.12232294219E+03  0.12409989173E+03  0.00000000000E+00 0. -1.
</event>
<event>
 8    1  0.7168478E-009  0.1038724E+03  0.7561462E-02  0.1272357E+00
          3   -1    0    0  501    0  0.00000000000E+00  0.00000000000E+00  0.19595980029E+03  0.19595980029E+03  0.00000000000E+00 0. -1.
         -3   -1    0    0    0  501 -0.00000000000E+00 -0.00000000000E+00 -0.84696541492E+02  0.84696541492E+02  0.00000000000E+00 0.  1.
         25    2    1    2    0    0  0.35368764958E+02 -0.57576875040E+02  0.67452087028E+02  0.15736332287E+03  0.12508950901E+03 0.  0.
         23    2    1    2    0    0 -0.35368764958E+02  0.57576875040E+02  0.43811171773E+02  0.12329301892E+03  0.93357933076E+02 0.  0.
          5    1    3    3  502    0  0.32925567161E+02  0.32457394176E+02  0.29763828181E+01  0.46517810183E+02  0.41800000000E+01 0.  1.
         -5    1    3    3    0  502  0.24431977972E+01 -0.90034269215E+02  0.64475704209E+02  0.11084551268E+03  0.41800000000E+01 0.  1.
        -11    1    4    4    0    0 -0.28735911909E+02  0.25551882747E+02  0.71012083453E+02  0.80754983385E+02  0.00000000000E+00 0. -1.
         11    1    4    4    0    0 -0.66328530489E+01  0.32024992293E+02 -0.27200911680E+02  0.42538035535E+02  0.00000000000E+00 0.  1.
</event>
<event>
 8    1  0.7168478E-009  0.1427694E+03  0.7561462E-02  0.1209650E+00
          2   -1    0    0  501    0  0.00000000000E+00  0.00000000000E+00  0.85437420459E+02  0.85437420459E+02  0.00000000000E+00 0. -1.
         -2   -1    0    0    0  501 -0.00000000000E+00 -0.00000000000E+00 -0.32561796846E+03  0.32561796846E+03  0.00000000000E+00 0.  1.
         25    2    1    2    0    0 -0.11492206836E+03  0.52413589293E+02 -0.11949717676E+03  0.21419831023E+03  0.12508826769E+03 0.  0.
         23    2    1    2    0    0  0.11492206836E+03 -0.52413589293E+02 -0.12068337124E+03  0.19685707868E+03  0.90741210027E+02 0.  0.
          5    1    3    3  502    0 -0.30723157621E+02  0.53676098182E+02 -0.11393106542E+03  0.12970272163E+03  0.41800000000E+01 0. -1.
         -5    1    3    3    0  502 -0.84198910737E+02 -0.12625088881E+01 -0.55661113422E+01  0.84495588603E+02  0.41800000000E+01 0. -1.
        -11    1    4    4    0    0  0.42979382761E+02  0.98504435547E+01 -0.84029812226E+02  0.94896090138E+02  0.00000000000E+00 0. -1.
         11    1    4    4    0    0  0.71942685596E+02 -0.62264032848E+02 -0.36653559011E+02  0.10196098855E+03  0.00000000000E+00 0.  1.
</event>
<event>
 8    1  0.7168478E-009  0.7944249E+02  0.7561462E-02  0.1330641E+00
         -1   -1    0    0    0  501 -0.00000000000E+00  0.00000000000E+00  0.86680436323E+02  0.86680436323E+02  0.00000000000E+00 0.  1.
          1   -1    0    0  501    0  0.00000000000E+00 -0.00000000000E+00 -0.19475829010E+03  0.19475829010E+03  0.00000000000E+00 0. -1.
         25    2    1    2    0    0  0.91614771877E+01  0.21934042568E+02 -0.13429163844E+03  0.18505883365E+03  0.12508993912E+03 0.  0.
         23    2    1    2    0    0 -0.91614771877E+01 -0.21934042568E+02  0.26213784666E+02  0.96379892768E+02  0.89648682845E+02 0.  0.
          5    1    3    3  502    0 -0.12962335256E+02  0.36997843003E+02 -0.14907338803E+03  0.15419860550E+03  0.41800000000E+01 0. -1.
         -5    1    3    3    0  502  0.22123812444E+02 -0.15063800435E+02  0.14781749584E+02  0.30860228148E+02  0.41800000000E+01 0. -1.
        -11    1    4    4    0    0 -0.46024089009E+02 -0.29597321115E+02  0.19772085700E+02  0.58182072490E+02  0.00000000000E+00 0. -1.
         11    1    4    4    0    0  0.36862611822E+02  0.76632785468E+01  0.64416989660E+01  0.38197820278E+02  0.00000000000E+00 0.  1.
</event>
<event>
 8    1  0.7168478E-009  0.1751696E+03  0.7561462E-02  0.1172562E+00
          2   -1    0    0  501    0  0.00000000000E+00  0.00000000000E+00  0.59295305960E+03  0.59295305960E+03  0.00000000000E+00 0. -1.
         -2   -1    0    0    0  501 -0.00000000000E+00 -0.00000000000E+00 -0.64865512813E+02  0.64865512813E+02  0.00000000000E+00 0.  1.
         25    2    1    2    0    0  0.83233025726E+02 -0.13136505763E+03  0.36401508738E+03  0.41513808633E+03  0.12509249353E+03 0.  0.
         23    2    1    2    0    0 -0.83233025726E+02  0.13136505763E+03  0.16407245941E+03  0.24268048609E+03  0.88258322291E+02 0.  0.
          5    1    3    3  502    0  0.53871494898E+02 -0.14185490096E+03  0.21717929522E+03  0.26497031826E+03  0.41800000000E+01 0. -1.
         -5    1    3    3    0  502  0.29361530828E+02  0.10489843322E+02  0.14683579216E+03  0.15016776807E+03  0.41800000000E+01 0. -1.
        -11    1    4    4    0    0 -0.44339276411E+02  0.19110678829E+02  0.91525003534E+02  0.10347954266E+03  0.00000000000E+00 0.  1.
         11    1    4    4    0    0 -0.38893749315E+02  0.11225437881E+03  0.72547455873E+02  0.13920094343E+03  0.00000000000E+00 0. -1.
</event>
<event>
 8    1  0.7168478E-009  0.8587354E+02  0.7561462E-02  0.1313164E+00
         -1   -1    0    0    0  501 -0.00000000000E+00  0.00000000000E+00  0.25319390698E+03  0.25319390698E+03  0.00000000000E+00 0.  1.
          1   -1    0    0  501    0  0.00000000000E+00 -0.00000000000E+00 -0.57152781364E+02  0.57152781364E+02  0.00000000000E+00 0. -1.
         25    2    1    2    0    0 -0.12902326174E+02 -0.45051206235E+02  0.97939609935E+02  0.16563816908E+03  0.12509098552E+03 0.  0.
         23    2    1    2    0    0  0.12902326174E+02  0.45051206235E+02  0.98101515685E+02  0.14470851927E+03  0.95501659490E+02 0.  0.
          5    1    3    3  502    0 -0.24268472495E+02 -0.55362875535E+01  0.11731021637E+03  0.11999486865E+03  0.41800000000E+01 0.  1.
         -5    1    3    3    0  502  0.11366146321E+02 -0.39514918682E+02 -0.19370606435E+02  0.45643300431E+02  0.41800000000E+01 0.  1.
        -11    1    4    4    0    0 -0.40149915277E+02  0.29724939744E+02  0.57483776200E+02  0.76157548974E+02  0.00000000000E+00 0.  1.
         11    1    4    4    0    0  0.53052241451E+02  0.15326266491E+02  0.40617739485E+02  0.68550970295E+02  0.00000000000E+00 0. -1.
</event>
<event>
 8    1  0.7168478E-009  0.1285678E+03  0.7561462E-02  0.1229596E+00
         -2   -1    0    0    0  501 -0.00000000000E+00  0.00000000000E+00  0.88992948535E+01  0.88992948535E+01  0.00000000000E+00 0.  1.
          2   -1    0    0  501    0  0.00000000000E+00 -0.00000000000E+00 -0.22032890401E+04  0.22032890401E+04  0.00000000000E+00 0. -1.
         25    2    1    2    0    0 -0.18691951773E+02  0.68537295593E+02 -0.16242041677E+04  0.16305621399E+04  0.12508782448E+03 0.  0.
         23    2    1    2    0    0  0.18691951773E+02 -0.68537295593E+02 -0.57018557752E+03  0.58162619500E+03  0.90170327453E+02 0.  0.
          5    1    3    3  502    0  0.29857700156E+02  0.86637773550E+02 -0.10704965310E+04  0.10744197882E+04  0.41800000000E+01 0.  1.
         -5    1    3    3    0  502 -0.48549651929E+02 -0.18100477956E+02 -0.55370763672E+03  0.55614235171E+03  0.41800000000E+01 0.  1.
        -11    1    4    4    0    0  0.50061930094E+02 -0.16597470873E+02 -0.22087429957E+03  0.22708396926E+03  0.00000000000E+00 0.  1.
         11    1    4    4    0    0 -0.31369978322E+02 -0.51939824720E+02 -0.34931127794E+03  0.35454222574E+03  0.00000000000E+00 0. -1.
</event>
<event>
 8    1  0.7168478E-009  0.2029851E+03  0.7561462E-02  0.1147245E+00
         -4   -1    0    0    0  501 -0.00000000000E+00  0.00000000000E+00  0.82671668856E+02  0.82671668856E+02  0.00000000000E+00 0.  1.
          4   -1    0    0  501    0  0.00000000000E+00 -0.00000000000E+00 -0.72574274467E+03  0.72574274467E+03  0.00000000000E+00 0. -1.
         25    2    1    2    0    0 -0.59410345122E+02  0.16945010081E+03 -0.12279728791E+03  0.25093870986E+03  0.12509251142E+03 0.  0.
         23    2    1    2    0    0  0.59410345122E+02 -0.16945010081E+03 -0.52027378790E+03  0.55747570368E+03  0.88608239096E+02 0.  0.
          5    1    3    3  502    0 -0.85998960216E+02  0.10431751882E+03 -0.37637074335E+02  0.14039938624E+03  0.41800000000E+01 0. -1.
         -5    1    3    3    0  502  0.26588615094E+02  0.65132581993E+02 -0.85160213579E+02  0.11053932362E+03  0.41800000000E+01 0. -1.
        -11    1    4    4    0    0  0.30674586931E+02 -0.24407683568E+01 -0.80500671036E+02  0.86181469417E+02  0.00000000000E+00 0. -1.
         11    1    4    4    0    0  0.28735758192E+02 -0.16700933245E+03 -0.43977311687E+03  0.47129423426E+03  0.00000000000E+00 0.  1.
</event>
<event>
 8    1  0.7168478E-009  0.9055092E+02  0.7561462E-02  0.1301523E+00
         -2   -1    0    0    0  501 -0.00000000000E+00  0.00000000000E+00  0.22176524494E+02  0.22176524494E+02  0.00000000000E+00 0.  1.
          2   -1    0    0  501    0  0.00000000000E+00 -0.00000000000E+00 -0.12633797209E+04  0.12633797209E+04  0.00000000000E+00 0. -1.
         25    2    1    2    0    0 -0.51952596488E+02  0.15894223829E+02 -0.11095070755E+04  0.11178572982E+04  0.12508912727E+03 0.  0.
         23    2    1    2    0    0  0.51952596488E+02 -0.15894223829E+02 -0.13169612089E+03  0.16769894725E+03  0.88472425188E+02 0.  0.
          5    1    3    3  502    0  0.30562446594E+02  0.24754411869E+02 -0.62709942073E+03  0.62834544634E+03  0.41800000000E+01 0.  1.
         -5    1    3    3    0  502 -0.82515043081E+02 -0.88601880401E+01 -0.48240765479E+03  0.48951185182E+03  0.41800000000E+01 0.  1.
        -11    1    4    4    0    0  0.22471614334E+02 -0.18153926630E+02 -0.13489991680E+03  0.13795842147E+03  0.00000000000E+00 0. -1.
         11    1    4    4    0    0  0.29480982154E+02  0.22597028012E+01  0.32037959057E+01  0.29740525781E+02  0.00000000000E+00 0.  1.
</event>
<event>
 8    1  0.7168478E-009  0.2709336E+03  0.7561462E-02  0.1100746E+00
         -2   -1    0    0    0  501 -0.00000000000E+00  0.00000000000E+00  0.29810225555E+03  0.29810225555E+03  0.00000000000E+00 0.  1.
          2   -1    0    0  501    0  0.00000000000E+00 -0.00000000000E+00 -0.34068620061E+03  0.34068620061E+03  0.00000000000E+00 0. -1.
         25    2    1    2    0    0 -0.24450677319E+03 -0.11056363504E+03 -0.15453305092E+03  0.33396990777E+03  0.12509019124E+03 0.  0.
         23    2    1    2    0    0  0.24450677319E+03  0.11056363504E+03  0.11194910585E+03  0.30481854839E+03  0.91508828056E+02 0.  0.
          5    1    3    3  502    0 -0.17264230010E+03 -0.92989158918E+02 -0.16848554731E+03  0.25856759176E+03  0.41800000000E+01 0.  1.
         -5    1    3    3    0  502 -0.71864473092E+02 -0.17574476118E+02  0.13952496393E+02  0.75402316007E+02  0.41800000000E+01 0.  1.
        -11    1    4    4    0    0  0.35499943115E+02  0.33668093519E+02 -0.11400090079E+02  0.50236924032E+02  0.00000000000E+00 0.  1.
         11    1    4    4    0    0  0.20900683007E+03  0.76895541517E+02  0.12334919593E+03  0.25458162436E+03  0.00000000000E+00 0. -1.
</event>
<event>
 8    1  0.7168478E-009  0.7898065E+02  0.7561462E-02  0.1331969E+00
          2   -1    0    0  501    0  0.00000000000E+00  0.00000000000E+00  0.15295024070E+03  0.15295024070E+03  0.00000000000E+00 0. -1.
         -2   -1    0    0    0  501 -0.00000000000E+00 -0.00000000000E+00 -0.95028895978E+02  0.95028895978E+02  0.00000000000E+00 0.  1.
         25    2    1    2    0    0  0.78222283891E+01 -0.43121340129E+02  0.51112273845E+00  0.13255520109E+03  0.12509989151E+03 0.  0.
         23    2    1    2    0    0 -0.78222283891E+01  0.43121340129E+02  0.57410221981E+02  0.11542393559E+03  0.90033960745E+02 0.  0.
          5    1    3    3  502    0 -0.17539247126E+02  0.27558834703E+02 -0.36137052702E+02  0.48892469133E+02  0.41800000000E+01 0. -1.
         -5    1    3    3    0  502  0.25361475515E+02 -0.70680174833E+02  0.36648175441E+02  0.83662731953E+02  0.41800000000E+01 0. -1.
        -11    1    4    4    0    0  0.54333976908E+01  0.32168624536E+02 -0.18558529993E+02  0.37533468405E+02  0.00000000000E+00 0.  1.
         11    1    4    4    0    0 -0.13255626080E+02  0.10952715594E+02  0.75968751974E+02  0.77890467184E+02  0.00000000000E+00 0. -1.
</event>
<event>
 8    1  0.7168478E-009  0.1480855E+03  0.7561462E-02  0.1202845E+00
          2   -1    0    0  501    0  0.00000000000E+00  0.00000000000E+00  0.48111582876E+03  0.48111582876E+03  0.00000000000E+00 0. -1.
         -2   -1    0    0    0  501 -0.00000000000E+00 -0.00000000000E+00 -0.79424525828E+02  0.79424525828E+02  0.00000000000E+00 0.  1.
         25    2    1    2    0    0 -0.10176462799E+03  0.75320369050E+02  0.65813807784E+02  0.18975670044E+03  0.12508777144E+03 0.  0.
         23    2    1    2    0    0  0.10176462799E+03 -0.75320369050E+02  0.33587749515E+03  0.37078365415E+03  0.92938845115E+02 0.  0.
          5    1    3    3  502    0 -0.76267035716E+02  0.92516080404E+02  0.33639190472E+01  0.12001947434E+03  0.41800000000E+01 0. -1.
         -5    1    3    3    0  502 -0.25497592274E+02 -0.17195711354E+02  0.62449888737E+02  0.69737226099E+02  0.41800000000E+01 0. -1.
        -11    1    4    4    0    0  0.56971345555E+02 -0.82025431390E+02  0.15551365704E+03  0.18481992083E+03  0.00000000000E+00 0.  1.
         11    1    4    4    0    0  0.44793282435E+02  0.67050623403E+01  0.18036383811E+03  0.18596373332E+03  0.00000000000E+00 0. -1.
</event>
<event>
 8    1  0.7168478E-009  0.2360630E+03  0.7561462E-02  0.1122444E+00
          2   -1    0    0  501    0  0.00000000000E+00  0.00000000000E+00  0.13928365366E+04  0.13928365366E+04  0.00000000000E+00 0. -1.
         -2   -1    0    0    0  501 -0.00000000000E+00 -0.00000000000E+00 -0.57498470190E+02  0.57498470190E+02  0.00000000000E+00 0.  1.
         25    2    1    2    0    0  0.18905434840E+03 -0.11892250054E+03  0.10291010614E+04  0.10604631145E+04  0.12509562264E+03 0.  0.
         23    2    1    2    0    0 -0.18905434840E+03  0.11892250054E+03  0.30623700507E+03  0.38987189238E+03  0.91295571672E+02 0.  0.
          5    1    3    3  502    0  0.17161465236E+03 -0.13770632753E+03  0.98498318752E+03  0.10092690294E+04  0.41800000000E+01 0.  1.
         -5    1    3    3    0  502  0.17439696033E+02  0.18783826985E+02  0.44117873871E+02  0.51194085096E+02  0.41800000000E+01 0.  1.
        -11    1    4    4    0    0 -0.76364438528E+02  0.28173875182E+02  0.49768170974E+02  0.95405270067E+02  0.00000000000E+00 0.  1.
         11    1    4    4    0    0 -0.11268990987E+03  0.90748625361E+02  0.25646883410E+03  0.29446662231E+03  0.00000000000E+00 0. -1.
</event>
<event>
 8    1  0.7168478E-009  0.9848487E+02  0.7561462E-02  0.1283515E+00
         -2   -1    0    0    0  501 -0.00000000000E+00  0.00000000000E+00  0.46516245696E+03  0.46516245696E+03  0.00000000000E+00 0.  1.
          2   -1    0    0  501    0  0.00000000000E+00 -0.00000000000E+00 -0.37585273479E+02  0.37585273479E+02  0.00000000000E+00 0. -1.
         25    2    1    2    0    0 -0.36090614393E+01  0.31182640479E+02  0.10525874691E+03  0.16647025028E+03  0.12509019960E+03 0.  0.
         23    2    1    2    0    0  0.36090614393E+01 -0.31182640479E+02  0.32231843658E+03  0.33627748016E+03  0.90597939910E+02 0.  0.
          5    1    3    3  502    0  0.55808858504E+02  0.11689648396E+02  0.81263674204E+02  0.99360624557E+02  0.41800000000E+01 0.  1.
         -5    1    3    3    0  502 -0.59417919944E+02  0.19492992083E+02  0.23995072706E+02  0.67109625725E+02  0.41800000000E+01 0.  1.
        -11    1    4    4    0    0 -0.24224870178E+02  0.10983982098E+02  0.32073369196E+02  0.41667651835E+02  0.00000000000E+00 0.  1.
         11    1    4    4    0    0  0.27833931617E+02 -0.42166622576E+02  0.29024506738E+03  0.29460982833E+03  0.00000000000E+00 0. -1.
</event>
<event>
 8    1  0.7168478E-009  0.1247370E+03  0.7561462E-02  0.1235481E+00
         -1   -1    0    0    0  501 -0.00000000000E+00  0.00000000000E+00  0.20567995099E+03  0.20567995099E+03  0.00000000000E+00 0.  1.
          1   -1    0    0  501    0  0.00000000000E+00 -0.00000000000E+00 -0.89536921123E+02  0.89536921123E+02  0.00000000000E+00 0. -1.
         25    2    1    2    0    0 -0.47975434906E+02 -0.51900091726E+02  0.22918173407E+02  0.14549218616E+03  0.12508985444E+03 0.  0.
         23    2    1    2    0    0  0.47975434906E+02  0.51900091726E+02  0.93224856464E+02  0.14972468596E+03  0.93441670831E+02 0.  0.
          5    1    3    3  502    0  0.16639879642E+02 -0.73448281819E+02  0.12823912396E+02  0.76507913485E+02  0.41800000000E+01 0. -1.
         -5    1    3    3    0  502 -0.64615314548E+02  0.21548190094E+02  0.10094261011E+02  0.68984272670E+02  0.41800000000E+01 0. -1.
        -11    1    4    4    0    0  0.38039006347E+02 -0.12962832324E+02  0.68857638354E+02  0.79726879943E+02  0.00000000000E+00 0.  1.
         11    1    4    4    0    0  0.99364285597E+01  0.64862924050E+02  0.24367218110E+02  0.69997806018E+02  0.00000000000E+00 0. -1.
</event>
<event>
 8    1  0.7168478E-009  0.1041853E+03  0.7561462E-02  0.1271733E+00
          3   -1    0    0  501    0  0.00000000000E+00  0.00000000000E+00  0.75786505375E+03  0.75786505375E+03  0.00000000000E+00 0.  1.
         -3   -1    0    0    0  501 -0.00000000000E+00 -0.00000000000E+00 -0.29380020035E+02  0.29380020035E+02  0.00000000000E+00 0. -1.
         25    2    1    2    0    0  0.41550713674E+02  0.18557528629E+02  0.15331264602E+03  0.20303322597E+03  0.12508748836E+03 0.  0.
         23    2    1    2    0    0 -0.41550713674E+02 -0.18557528629E+02  0.57517238770E+03  0.58421184782E+03  0.91702583807E+02 0.  0.
          5    1    3    3  502    0  0.54502624378E+02  0.48527313716E+02  0.36557984474E+02  0.81727564930E+02  0.41800000000E+01 0. -1.
         -5    1    3    3    0  502 -0.12951910704E+02 -0.29969785087E+02  0.11675466154E+03  0.12130566104E+03  0.41800000000E+01 0. -1.
        -11    1    4    4    0    0 -0.53586225042E+02  0.23574573225E+02  0.33351507004E+03  0.33861415499E+03  0.00000000000E+00 0.  1.
         11    1    4    4    0    0  0.12035511368E+02 -0.42132101854E+02  0.24165731766E+03  0.24559769283E+03  0.00000000000E+00 0. -1.
</event>
<event>
 8    1  0.7168478E-009  0.1506099E+03  0.7561462E-02  0.1199726E+00
         -2   -1    0    0    0  501 -0.00000000000E+00  0.00000000000E+00  0.63939750641E+02  0.63939750641E+02  0.00000000000E+00 0. -1.
          2   -1    0    0  501    0  0.00000000000E+00 -0.00000000000E+00 -0.46361296422E+03  0.46361296422E+03  0.00000000000E+00 0.  1.
         25    2    1    2    0    0  0.17175289088E+02 -0.11817333832E+03 -0.12085302879E+03  0.21098163374E+03  0.12509143361E+03 0.  0.
         23    2    1    2    0    0 -0.17175289088E+02  0.11817333832E+03 -0.27882018480E+03  0.31657108112E+03  0.90645603911E+02 0.  0.
          5    1    3    3  502    0 -0.20899180876E+02  0.12503374570E+02  0.53905081140E+01  0.25291107423E+02  0.41800000000E+01 0. -1.
         -5    1    3    3    0  502  0.38074469965E+02 -0.13067671289E+03 -0.12624353690E+03  0.18569052632E+03  0.41800000000E+01 0. -1.
        -11    1    4    4    0    0  0.26334656512E+02  0.20380598782E+02 -0.26737304560E+02  0.42705578037E+02  0.00000000000E+00 0. -1.
         11    1    4    4    0    0 -0.43509945600E+02  0.97792739540E+02 -0.25208288024E+03  0.27386550309E+03  0.00000000000E+00 0.  1.
</event>
<event>
 8    1  0.7168478E-009  0.7914739E+02  0.7561462E-02  0.1331489E+00
         -1   -1    0    0    0  501 -0.00000000000E+00  0.00000000000E+00  0.10865323059E+03  0.10865323059E+03  0.00000000000E+00 0.  1.
          1   -1    0    0  501    0  0.00000000000E+00 -0.00000000000E+00 -0.11720364476E+03  0.11720364476E+03  0.00000000000E+00 0. -1.
         25    2    1    2    0    0 -0.91836296349E+01 -0.29612720910E+02 -0.97919838831E+01  0.12924806256E+03  0.12509167212E+03 0.  0.
         23    2    1    2    0    0  0.91836296349E+01  0.29612720910E+02  0.12415697130E+01  0.96608812783E+02  0.91490266800E+02 0.  0.
          5    1    3    3  502    0 -0.12770520479E+02  0.36284754607E+02  0.32687688996E+02  0.50652018934E+02  0.41800000000E+01 0.  1.
         -5    1    3    3    0  502  0.35868908436E+01 -0.65897475516E+02 -0.42479672879E+02  0.78596043624E+02  0.41800000000E+01 0.  1.
        -11    1    4    4    0    0  0.38696123999E+01 -0.11441359128E+02  0.38847232140E+02  0.40681519683E+02  0.00000000000E+00 0.  1.
         11    1    4    4    0    0  0.53140172351E+01  0.41054080037E+02 -0.37605662427E+02  0.55927293100E+02  0.00000000000E+00 0. -1.
</event>
<event>
 8    1  0.7168478E-009  0.1480117E+03  0.7561462E-02  0.1202938E+00
          2   -1    0    0  501    0  0.00000000000E+00  0.00000000000E+00  0.43969685991E+02  0.43969685991E+02  0.00000000000E+00 0. -1.
         -2   -1    0    0    0  501 -0.00000000000E+00 -0.00000000000E+00 -0.81313137909E+03  0.81313137909E+03  0.00000000000E+00 0.  1.
         25    2    1    2    0    0  0.56382869027E+02  0.10958571830E+03 -0.19255572075E+03  0.26060281769E+03  0.12509222764E+03 0.  0.
         23    2    1    2    0    0 -0.56382869027E+02 -0.10958571830E+03 -0.57660597234E+03  0.59649824739E+03  0.90264357435E+02 0.  0.
          5    1    3    3  502    0  0.74371146773E+02  0.78298609482E+02 -0.19629707308E+03  0.22407979164E+03  0.41800000000E+01 0.  1.
         -5    1    3    3    0  502 -0.17988277746E+02  0.31287108821E+02  0.37413523304E+01  0.36523026050E+02  0.41800000000E+01 0.  1.
        -11    1    4    4    0    0  0.24195634370E+02 -0.26294004434E+02 -0.10721356305E+03  0.11301128923E+03  0.00000000000E+00 0. -1.
         11    1    4    4    0    0 -0.80578503398E+02 -0.83291713869E+02 -0.46939240929E+03  0.48348695816E+03  0.00000000000E+00 0.  1.
</event>
<event>
 8    1  0.7168478E-009  0.3170351E+03  0.7561462E-02  0.1077022E+00
          1   -1    0    0  501    0  0.00000000000E+00  0.00000000000E+00  0.40510659199E+03  0.40510659199E+03  0.00000000000E+00 0.  1.
         -1   -1    0    0    0  501 -0.00000000000E+00 -0.00000000000E+00 -0.26359247793E+03  0.26359247793E+03  0.00000000000E+00 0. -1.
         25    2    1    2    0    0  0.13606499327E+03 -0.27606738338E+03  0.75497351776E+02  0.34069388885E+03  0.12508234573E+03 0.  0.
         23    2    1    2    0    0 -0.13606499327E+03  0.27606738338E+03  0.66016762283E+02  0.32800518106E+03  0.92207935357E+02 0.  0.
          5    1    3    3  502    0  0.87236991495E+02 -0.22922417762E+03  0.85975685651E+01  0.24544939779E+03  0.41800000000E+01 0.  1.
         -5    1    3    3    0  502  0.48828001772E+02 -0.46843205757E+02  0.66899783211E+02  0.95244491055E+02  0.41800000000E+01 0.  1.
        -11    1    4    4    0    0 -0.14950942560E+03  0.24338515323E+03  0.63249322385E+02  0.29255747801E+03  0.00000000000E+00 0.  1.
         11    1    4    4    0    0  0.13444432333E+02  0.32682230145E+02  0.27674398978E+01  0.35447703051E+02  0.00000000000E+00 0. -1.
</event>
<event>
 8    1  0.7168478E-009  0.1068877E+03  0.7561462E-02  0.1266444E+00
          1   -1    0    0  501    0  0.00000000000E+00  0.00000000000E+00  0.60413319733E+02  0.60413319733E+02  0.00000000000E+00 0. -1.
         -1   -1    0    0    0  501 -0.00000000000E+00 -0.00000000000E+00 -0.21818773625E+03  0.21818773625E+03  0.00000000000E+00 0.  1.
         25    2    1    2    0    0  0.81560833233E+00 -0.27859441646E+02 -0.11804135366E+03  0.17424172604E+03  0.12509837814E+03 0.  0.
         23    2    1    2    0    0 -0.81560833233E+00  0.27859441646E+02 -0.39733062864E+02  0.10435932995E+03  0.92386902522E+02 0.  0.
          5    1    3    3  502    0 -0.54350945299E+02 -0.36295216446E+02 -0.35430047971E+02  0.74458906056E+02  0.41800000000E+01 0. -1.
         -5    1    3    3    0  502  0.55166553631E+02  0.84357747998E+01 -0.82611305685E+02  0.99782819979E+02  0.41800000000E+01 0. -1.
        -11    1    4    4    0    0 -0.79940104689E+01 -0.31516108201E+02 -0.29057167135E+02  0.43606057394E+02  0.00000000000E+00 0.  1.
         11    1    4    4    0    0  0.71784021365E+01  0.59375549847E+02 -0.10675895729E+02  0.60753272558E+02  0.00000000000E+00 0. -1.
</event>
<event>
 8    1  0.7168478E-009  0.1117236E+03  0.7561462E-02  0.1257411E+00
         -2   -1    0    0    0  501 -0.00000000000E+00  0.00000000000E+00  0.16910850409E+02  0.16910850409E+02  0.00000000000E+00 0.  1.
          2   -1    0    0  501    0  0.00000000000E+00 -0.00000000000E+00 -0.94057263776E+03  0.94057263776E+03  0.00000000000E+00 0. -1.
         25    2    1    2    0    0  0.25013024481E-01  0.56193496959E+02 -0.63182118556E+03  0.64653242454E+03  0.12509378776E+03 0.  0.
         23    2    1    2    0    0 -0.25013024481E-01 -0.56193496959E+02 -0.29184060179E+03  0.31095106362E+03  0.91443520226E+02 0.  0.
          5    1    3    3  502    0  0.43389814650E+02  0.69031868247E+02 -0.51052461408E+03  0.51701153645E+03  0.41800000000E+01 0.  1.
         -5    1    3    3    0  502 -0.43364801625E+02 -0.12838371287E+02 -0.12129657148E+03  0.12952088809E+03  0.41800000000E+01 0.  1.
        -11    1    4    4    0    0  0.27501619432E+02  0.61989326716E+01 -0.33611775857E+02  0.43869320873E+02  0.00000000000E+00 0.  1.
         11    1    4    4    0    0 -0.27526632456E+02 -0.62392429631E+02 -0.25822882593E+03  0.26708174275E+03  0.00000000000E+00 0. -1.
</event>
<event>
 8    1  0.7168478E-009  0.2113516E+03  0.7561462E-02  0.1140500E+00
         -2   -1    0    0    0  501 -0.00000000000E+00  0.00000000000E+00  0.48976926622E+03  0.48976926622E+03  0.00000000000E+00 0. -1.
          2   -1    0    0  501    0  0.00000000000E+00 -0.00000000000E+00 -0.15804936305E+03  0.15804936305E+03  0.00000000000E+00 0.  1.
         25    2    1    2    0    0 -0.20955026640E+03 -0.10200801441E+02  0.34031626123E+03  0.41890055619E+03  0.12508855993E+03 0.  0.
         23    2    1    2    0    0  0.20955026640E+03  0.10200801441E+02 -0.85963580611E+01  0.22891807308E+03  0.91182324576E+02 0.  0.
          5    1    3    3  502    0 -0.71247004087E+02 -0.17625286392E+02  0.30652126088E+02  0.79648047970E+02  0.41800000000E+01 0.  1.
         -5    1    3    3    0  502 -0.13830326231E+03  0.74244849514E+01  0.30966413514E+03  0.33925250822E+03  0.41800000000E+01 0.  1.
        -11    1    4    4    0    0  0.13441627316E+03 -0.24172017500E+01 -0.48494332481E+02  0.14291703061E+03  0.00000000000E+00 0.  1.
         11    1    4    4    0    0  0.75133993236E+02  0.12618003191E+02  0.39897974420E+02  0.86001042476E+02  0.00000000000E+00 0. -1.
</event>
<event>
 8    1  0.7168478E-009  0.1799564E+03  0.7561462E-02  0.1167845E+00
         -2   -1    0    0    0  501 -0.00000000000E+00  0.00000000000E+00  0.55276609299E+03  0.55276609299E+03  0.00000000000E+00 0.  1.
          2   -1    0    0  501    0  0.00000000000E+00 -0.00000000000E+00 -0.67457630113E+02  0.67457630113E+02  0.00000000000E+00 0. -1.
         25    2    1    2    0    0 -0.15704311418E+03 -0.19217501257E+02  0.28191561850E+03  0.34663456864E+03  0.12508899294E+03 0.  0.
         23    2    1    2    0    0  0.15704311418E+03  0.19217501257E+02  0.20339284438E+03  0.27358915446E+03  0.91926732947E+02 0.  0.
          5    1    3    3  502    0  0.11967510931E+02  0.22964622582E+02  0.51036341790E+02  0.57382713351E+02  0.41800000000E+01 0.  1.
         -5    1    3    3    0  502 -0.16901062511E+03 -0.42182123839E+02  0.23087927671E+03  0.28925185528E+03  0.41800000000E+01 0.  1.
        -11    1    4    4    0    0  0.69530183628E+02 -0.13337809490E+01  0.25131791311E+02  0.73944792524E+02  0.00000000000E+00 0. -1.
         11    1    4    4    0    0  0.87512930555E+02  0.20551282206E+02  0.17826105306E+03  0.19964436194E+03  0.00000000000E+00 0.  1.
</event>
<event>
 8    1  0.7168478E-009  0.1000422E+03  0.7561462E-02  0.1280207E+00
         -4   -1    0    0    0  501 -0.00000000000E+00  0.00000000000E+00  0.66301632009E+03  0.66301632009E+03  0.00000000000E+00 0. -1.
          4   -1    0    0  501    0  0.00000000000E+00 -0.00000000000E+00 -0.21382799716E+02  0.21382799716E+02  0.00000000000E+00 0.  1.
         25    2    1    2    0    0 -0.44991585352E+02 -0.83651209604E+01  0.47431237498E+03  0.49265933501E+03  0.12508706293E+03 0.  0.
         23    2    1    2    0    0  0.44991585352E+02  0.83651209604E+01  0.16732114539E+03  0.19173978480E+03  0.81691868486E+02 0.  0.
          5    1    3    3  502    0 -0.47144964870E+02 -0.62741733595E+02  0.27528923556E+03  0.28628798169E+03  0.41800000000E+01 0.  1.
         -5    1    3    3    0  502  0.21533795183E+01  0.54376612635E+02  0.19902313943E+03  0.20637135332E+03  0.41800000000E+01 0.  1.
        -11    1    4    4    0    0  0.46225628905E+02 -0.10993863804E+02  0.16558103681E+03  0.17226361648E+03  0.00000000000E+00 0. -1.
         11    1    4    4    0    0 -0.12340435531E+01  0.19358984764E+02  0.17401085802E+01  0.19476168321E+02  0.00000000000E+00 0.  1.
</event>
<event>
 8    1  0.7168478E-009  0.9684526E+02  0.7561462E-02  0.1287073E+00
         -2   -1    0    0    0  501 -0.00000000000E+00  0.00000000000E+00  0.39639540834E+02  0.39639540834E+02  0.00000000000E+00 0.  1.
          2   -1    0    0  501    0  0.00000000000E+00 -0.00000000000E+00 -0.54805589923E+03  0.54805589923E+03  0.00000000000E+00 0. -1.
         25    2    1    2    0    0 -0.34477390089E+02 -0.66928886919E+02 -0.40967049800E+03  0.43490813131E+03  0.12508796671E+03 0.  0.
         23    2    1    2    0    0  0.34477390089E+02  0.66928886919E+02 -0.98745860389E+02  0.15278730875E+03  0.89022752366E+02 0.  0.
          5    1    3    3  502    0 -0.22254364712E+02 -0.65958927781E+02 -0.41505969354E+03  0.42087748633E+03  0.41800000000E+01 0.  1.
         -5    1    3    3    0  502 -0.12223025377E+02 -0.96995913724E+00  0.53891955327E+01  0.14030644981E+02  0.41800000000E+01 0.  1.
        -11    1    4    4    0    0  0.60344805781E+02  0.34479123775E+02 -0.83351863467E+02  0.10852575134E+03  0.00000000000E+00 0.  1.
         11    1    4    4    0    0 -0.25867415692E+02  0.32449763143E+02 -0.15393996922E+02  0.44261557405E+02  0.00000000000E+00 0. -1.
</event>
<event>
 8    1  0.7168478E-009  0.1282537E+03  0.7561462E-02  0.1230070E+00
         -1   -1    0    0    0  501 -0.00000000000E+00  0.00000000000E+00  0.30344607140E+03  0.30344607140E+03  0.00000000000E+00 0.  1.
          1   -1    0    0  501    0  0.00000000000E+00 -0.00000000000E+00 -0.11039289589E+03  0.11039289589E+03  0.00000000000E+00 0. -1.
         25    2    1    2    0    0 -0.10235748630E+02 -0.96446944090E+02  0.22639817150E+03  0.27624328262E+03  0.12508971005E+03 0.  0.
         23    2    1    2    0    0  0.10235748630E+02  0.96446944090E+02 -0.33344995983E+02  0.13759568467E+03  0.91727313864E+02 0.  0.
          5    1    3    3  502    0 -0.32304631540E+02 -0.10792355576E+03  0.22417229408E+03  0.25092184628E+03  0.41800000000E+01 0.  1.
         -5    1    3    3    0  502  0.22068882910E+02  0.11476611666E+02  0.22258774209E+01  0.25321436344E+02  0.41800000000E+01 0.  1.
        -11    1    4    4    0    0  0.38975108255E+02  0.44260210824E+02 -0.48232787228E+02  0.76186790781E+02  0.00000000000E+00 0. -1.
         11    1    4    4    0    0 -0.28739359626E+02  0.52186733266E+02  0.14887791245E+02  0.61408893890E+02  0.00000000000E+00 0.  1.
</event>
<event>
 8    1  0.7168478E-009  0.2051149E+03  0.7561462E-02  0.1145494E+00
         -1   -1    0    0    0  501 -0.00000000000E+00  0.00000000000E+00  0.42135544953E+02  0.42135544953E+02  0.00000000000E+00 0.  1.
          1   -1    0    0  501    0  0.00000000000E+00 -0.00000000000E+00 -0.10605058212E+04  0.10605058212E+04  0.00000000000E+00 0. -1.
         25    2    1    2    0    0 -0.67078173171E+02  0.16564661506E+03 -0.45833307039E+03  0.50759938977E+03  0.12509857986E+03 0.  0.
         23    2    1    2    0    0  0.67078173171E+02 -0.16564661506E+03 -0.56003720586E+03  0.59504197639E+03  0.92168320566E+02 0.  0.
          5    1    3    3  502    0 -0.96755619664E+02  0.15408525815E+03 -0.34840979873E+03  0.39307858879E+03  0.41800000000E+01 0. -1.
         -5    1    3    3    0  502  0.29677446493E+02  0.11561356913E+02 -0.10992327166E+03  0.11452080098E+03  0.41800000000E+01 0. -1.
        -11    1    4    4    0    0  0.16468200546E+02 -0.13694563574E+03 -0.32800833897E+03  0.35582970535E+03  0.00000000000E+00 0.  1.
         11    1    4    4    0    0  0.50609972625E+02 -0.28700979328E+02 -0.23202886689E+03  0.23921227104E+03  0.00000000000E+00 0. -1.
</event>
<event>
 8    1  0.7168478E-009  0.3438464E+03  0.7561462E-02  0.1065169E+00
          1   -1    0    0  501    0  0.00000000000E+00  0.00000000000E+00  0.18516356494E+04  0.18516356494E+04  0.00000000000E+00 0. -1.
         -1   -1    0    0    0  501 -0.00000000000E+00 -0.00000000000E+00 -0.69664560442E+02  0.69664560442E+02  0.00000000000E+00 0.  1.
         25    2    1    2    0    0  0.32857847824E+03 -0.33101948489E+02  0.11429083483E+04  0.11962225159E+04  0.12509700034E+03 0.  0.
         23    2    1    2    0    0 -0.32857847824E+03  0.33101948489E+02  0.63906274066E+03  0.72507769398E+03  0.90977582107E+02 0.  0.
          5    1    3    3  502    0  0.40972347657E+02 -0.50277435583E+02  0.21033601317E+03  0.22014827876E+03  0.41800000000E+01 0.  1.
         -5    1    3    3    0  502  0.28760613059E+03  0.17175487094E+02  0.93257233515E+03  0.97607423713E+03  0.41800000000E+01 0.  1.
        -11    1    4    4    0    0 -0.64226878948E+02  0.28224376900E+02  0.20669773928E+03  0.21827886488E+03  0.00000000000E+00 0. -1.
         11    1    4    4    0    0 -0.26435159930E+03  0.48775715890E+01  0.43236500138E+03  0.50679882910E+03  0.00000000000E+00 0.  1.
</event>
<event>
 8    1  0.7168478E-009  0.9592812E+02  0.7561462E-02  0.1289099E+00
         -1   -1    0    0    0  501 -0.00000000000E+00  0.00000000000E+00  0.26837954302E+02  0.26837954302E+02  0.00000000000E+00 0.  1.
          1   -1    0    0  501    0  0.00000000000E+00 -0.00000000000E+00 -0.59825139324E+03  0.59825139324E+03  0.00000000000E+00 0. -1.
         25    2    1    2    0    0  0.55347858551E+02 -0.86965197420E+01 -0.40716051561E+03  0.42961112103E+03  0.12508802875E+03 0.  0.
         23    2    1    2    0    0 -0.55347858551E+02  0.86965197420E+01 -0.16425292333E+03  0.19547822651E+03  0.89964989400E+02 0.  0.
          5    1    3    3  502    0 -0.27265310711E+02 -0.20622130736E+02 -0.24272354176E+03  0.24515476656E+03  0.41800000000E+01 0.  1.
         -5    1    3    3    0  502  0.82613169262E+02  0.11925610994E+02 -0.16443697385E+03  0.18445635447E+03  0.41800000000E+01 0.  1.
        -11    1    4    4    0    0 -0.29978818801E+02 -0.19615938322E+02 -0.10847113903E+02  0.37432265400E+02  0.00000000000E+00 0.  1.
         11    1    4    4    0    0 -0.25369039751E+02  0.28312458064E+02 -0.15340580942E+03  0.15804596111E+03  0.00000000000E+00 0. -1.
</event>
<event>
 8    1  0.7168478E-009  0.1159254E+03  0.7561462E-02  0.1249974E+00
          1   -1    0    0  501    0  0.00000000000E+00  0.00000000000E+00  0.25188089576E+03  0.25188089576E+03  0.00000000000E+00 0. -1.
         -1   -1    0    0    0  501 -0.00000000000E+00 -0.00000000000E+00 -0.11419449026E+03  0.11419449026E+03  0.00000000000E+00 0.  1.
         25    2    1    2    0    0 -0.68080618684E+02 -0.91057047555E+02  0.43386585351E+01  0.16909255111E+03  0.12508841007E+03 0.  0.
         23    2    1    2    0    0  0.68080618684E+02  0.91057047555E+02  0.13334774697E+03  0.19698283490E+03  0.89968100323E+02 0.  0.
          5    1    3    3  502    0 -0.37260284787E+02 -0.29000481306E+02  0.62563171075E+02  0.78491907311E+02  0.41800000000E+01 0.  1.
         -5    1    3    3    0  502 -0.30820333897E+02 -0.62056566249E+02 -0.58224512540E+02  0.90600643799E+02  0.41800000000E+01 0.  1.
        -11    1    4    4    0    0  0.13453976823E+02  0.31320168085E+02 -0.71545021912E+01  0.34830293177E+02  0.00000000000E+00 0.  1.
         11    1    4    4    0    0  0.54626641861E+02  0.59736879470E+02  0.14050224916E+03  0.16215254173E+03  0.00000000000E+00 0. -1.
</event>
<event>
 8    1  0.7168478E-009  0.1227478E+03  0.7561462E-02  0.1238632E+00
          1   -1    0    0  501    0  0.00000000000E+00  0.00000000000E+00  0.23861565014E+03  0.23861565014E+03  0.00000000000E+00 0. -1.
         -1   -1    0    0    0  501 -0.00000000000E+00 -0.00000000000E+00 -0.71992911377E+02  0.71992911377E+02  0.00000000000E+00 0.  1.
         25    2    1    2    0    0  0.67252490805E+02  0.30724537718E+02  0.10665865230E+03  0.18025190561E+03  0.12509111331E+03 0.  0.
         23    2    1    2    0    0 -0.67252490805E+02 -0.30724537718E+02  0.59964086465E+02  0.13035665591E+03  0.89052070928E+02 0.  0.
          5    1    3    3  502    0 -0.56175825874E+01 -0.34809366137E+02  0.64199517008E+02  0.73364157387E+02  0.41800000000E+01 0.  1.
         -5    1    3    3    0  502  0.72870073392E+02  0.65533903856E+02  0.42459135293E+02  0.10688774822E+03  0.41800000000E+01 0.  1.
        -11    1    4    4    0    0 -0.31239048878E+01 -0.45892006149E+02  0.41421436901E+02  0.61899680492E+02  0.00000000000E+00 0. -1.
         11    1    4    4    0    0 -0.64128585917E+02  0.15167468430E+02  0.18542649564E+02  0.68456975416E+02  0.00000000000E+00 0.  1.
</event>
<event>
 8    1  0.7168478E-009  0.1550130E+03  0.7561462E-02  0.1194445E+00
         -2   -1    0    0    0  501 -0.00000000000E+00  0.00000000000E+00  0.37383464013E+02  0.37383464013E+02  0.00000000000E+00 0. -1.
          2   -1    0    0  501    0  0.00000000000E+00 -0.00000000000E+00 -0.82736636782E+03  0.82736636782E+03  0.00000000000E+00 0.  1.
         25    2    1    2    0    0 -0.73159248353E+02 -0.11529182848E+03 -0.37624181083E+03  0.41934430109E+03  0.12508901353E+03 0.  0.
         23    2    1    2    0    0  0.73159248353E+02  0.11529182848E+03 -0.41374109298E+03  0.44540553075E+03  0.92519800390E+02 0.  0.
          5    1    3    3  502    0 -0.72772006141E+01 -0.95531283502E+02 -0.11793648642E+03  0.15200549663E+03  0.41800000000E+01 0. -1.
         -5    1    3    3    0  502 -0.65882047739E+02 -0.19760544977E+02 -0.25830532441E+03  0.26733880446E+03  0.41800000000E+01 0. -1.
        -11    1    4    4    0    0  0.38406405375E+02  0.10024015490E+03 -0.18781865224E+03  0.21633073466E+03  0.00000000000E+00 0. -1.
         11    1    4    4    0    0  0.34752842978E+02  0.15051673580E+02 -0.22592244074E+03  0.22907479609E+03  0.00000000000E+00 0.  1.
</event>
<event>
 8    1  0.7168478E-009  0.1553088E+03  0.7561462E-02  0.1194097E+00
          1   -1    0    0  501    0  0.00000000000E+00  0.00000000000E+00  0.15739629084E+04  0.15739629084E+04  0.00000000000E+00 0. -1.
         -1   -1    0    0    0  501 -0.00000000000E+00 -0.00000000000E+00 -0.16910429078E+02  0.16910429078E+02  0.00000000000E+00 0.  1.
         25    2    1    2    0    0 -0.90173899275E+02  0.63534335489E+02  0.10552513343E+04  0.10683475885E+04  0.12507296810E+03 0.  0.
         23    2    1    2    0    0  0.90173899275E+02 -0.63534335489E+02  0.50180114508E+03  0.52252574907E+03  0.95188367663E+02 0.  0.
          5    1    3    3  502    0 -0.73253154479E+02  0.10045497448E+03  0.72687318464E+03  0.73744106578E+03  0.41800000000E+01 0.  1.
         -5    1    3    3    0  502 -0.16920744796E+02 -0.36920638996E+02  0.32837814964E+03  0.33090652268E+03  0.41800000000E+01 0.  1.
        -11    1    4    4    0    0  0.10993793909E+03 -0.46757966509E+02  0.42467317564E+03  0.44115752741E+03  0.00000000000E+00 0. -1.
         11    1    4    4    0    0 -0.19764039810E+02 -0.16776368980E+02  0.77127969438E+02  0.81368221655E+02  0.00000000000E+00 0.  1.
</event>
<event>
 8    1  0.7168478E-009  0.7955189E+02  0.7561462E-02  0.1330328E+00
          2   -1    0    0  501    0  0.00000000000E+00  0.00000000000E+00  0.39079066762E+03  0.39079066762E+03  0.00000000000E+00 0. -1.
         -2   -1    0    0    0  501 -0.00000000000E+00 -0.00000000000E+00 -0.31496820723E+02  0.31496820723E+02  0.00000000000E+00 0.  1.
         25    2    1    2    0    0  0.18963395117E+01  0.16684279894E+02  0.19089300384E+03  0.22884376862E+03  0.12508944889E+03 0.  0.
         23    2    1    2    0    0 -0.18963395117E+01 -0.16684279894E+02  0.16840084306E+03  0.19344371972E+03  0.93699879708E+02 0.  0.
          5    1    3    3  502    0 -0.17206155458E+02  0.40547457654E+02  0.10029144289E+02  0.45367435931E+02  0.41800000000E+01 0. -1.
         -5    1    3    3    0  502  0.19102494970E+02 -0.23863177759E+02  0.18086385955E+03  0.18347633269E+03  0.41800000000E+01 0. -1.
        -11    1    4    4    0    0 -0.41669466264E+02 -0.14693273461E+02  0.42162233142E+02  0.61072830352E+02  0.00000000000E+00 0.  1.
         11    1    4    4    0    0  0.39773126753E+02 -0.19910064330E+01  0.12623860992E+03  0.13237088937E+03  0.00000000000E+00 0. -1.
</event>
<event>
 8    1  0.7168478E-009  0.1153316E+03  0.7561462E-02  0.1251003E+00
         -2   -1    0    0    0  501 -0.00000000000E+00  0.00000000000E+00  0.47719036307E+03  0.47719036307E+03  0.00000000000E+00 0. -1.
          2   -1    0    0  501    0  0.00000000000E+00 -0.00000000000E+00 -0.49937347791E+02  0.49937347791E+02  0.00000000000E+00 0.  1.
         25    2    1    2    0    0  0.93511350867E+02  0.50683055071E+02  0.30262706204E+03  0.34430637609E+03  0.12510234661E+03 0.  0.
         23    2    1    2    0    0 -0.93511350867E+02 -0.50683055071E+02  0.12462595324E+03  0.18282133477E+03  0.81110217692E+02 0.  0.
          5    1    3    3  502    0  0.17377894319E+02  0.17462237650E+02  0.23712756228E+03  0.23844050442E+03  0.41800000000E+01 0. -1.
         -5    1    3    3    0  502  0.76133456548E+02  0.33220817421E+02  0.65499499758E+02  0.10586587167E+03  0.41800000000E+01 0. -1.
        -11    1    4    4    0    0 -0.37506214907E+02 -0.54735603652E+02  0.30068041857E+02  0.72847715166E+02  0.00000000000E+00 0.  1.
         11    1    4    4    0    0 -0.56005135960E+02  0.40525485804E+01  0.94557911382E+02  0.10997361960E+03  0.00000000000E+00 0. -1.
</event>
<event>
 8    1  0.7168478E-009  0.1089737E+03  0.7561462E-02  0.1262482E+00
          2   -1    0    0  501    0  0.00000000000E+00  0.00000000000E+00  0.35924509087E+03  0.35924509087E+03  0.00000000000E+00 0. -1.
         -2   -1    0    0    0  501 -0.00000000000E+00 -0.00000000000E+00 -0.13971687247E+03  0.13971687247E+03  0.00000000000E+00 0.  1.
         25    2    1    2    0    0 -0.95234894303E+02 -0.11603055483E+02 -0.76512432644E+02  0.17523124299E+03  0.12509004830E+03 0.  0.
         23    2    1    2    0    0  0.95234894303E+02  0.11603055483E+02  0.29604065104E+03  0.32373072035E+03  0.89203117880E+02 0.  0.
          5    1    3    3  502    0 -0.71811776161E+02 -0.15470335316E+02  0.19598476123E+02  0.76143516707E+02  0.41800000000E+01 0. -1.
         -5    1    3    3    0  502 -0.23423118142E+02  0.38672798335E+01 -0.96110908767E+02  0.99087726288E+02  0.41800000000E+01 0. -1.
        -11    1    4    4    0    0  0.65271036599E+02  0.41971932104E+02  0.12240560617E+03  0.14493130692E+03  0.00000000000E+00 0.  1.
         11    1    4    4    0    0  0.29963857704E+02 -0.30368876622E+02  0.17363504487E+03  0.17879941343E+03  0.00000000000E+00 0. -1.
</event>
<event>
 8    1  0.7168478E-009  0.1104465E+03  0.7561462E-02  0.1259745E+00
          1   -1    0    0  501    0  0.00000000000E+00  0.00000000000E+00  0.52985671868E+02  0.52985671868E+02  0.00000000000E+00 0. -1.
         -1   -1    0    0    0  501 -0.00000000000E+00 -0.00000000000E+00 -0.41817849217E+03  0.41817849217E+03  0.00000000000E+00 0.  1.
         25    2    1    2    0    0  0.74643166237E+02  0.23924309802E+02 -0.29816184071E+03  0.33270490478E+03  0.12509234807E+03 0.  0.
         23    2    1    2    0    0 -0.74643166237E+02 -0.23924309802E+02 -0.67030979592E+02  0.13845925926E+03  0.92378782107E+02 0.  0.
          5    1    3    3  502    0  0.65102693581E+02 -0.20030376375E+02 -0.27215693032E+03  0.28058232983E+03  0.41800000000E+01 0. -1.
         -5    1    3    3    0  502  0.95404726563E+01  0.43954686177E+02 -0.26004910386E+02  0.52122574952E+02  0.41800000000E+01 0. -1.
        -11    1    4    4    0    0  0.10151938857E+02 -0.20193053146E+02  0.91737637995E+01  0.24392195477E+02  0.00000000000E+00 0. -1.
         11    1    4    4    0    0 -0.84795105094E+02 -0.37312566552E+01 -0.76204743391E+02  0.11406706378E+03  0.00000000000E+00 0.  1.
</event>
<event>
 8    1  0.7168478E-009  0.7285364E+02  0.7561462E-02  0.1350649E+00
          4   -1    0    0  501    0  0.00000000000E+00  0.00000000000E+00  0.56215609142E+03  0.56215609142E+03  0.00000000000E+00 0. -1.
         -4   -1    0    0    0  501 -0.00000000000E+00 -0.00000000000E+00 -0.24794951209E+02  0.24794951209E+02  0.00000000000E+00 0.  1.
         25    2    1    2    0    0 -0.28648156265E+02 -0.27122713249E+02  0.36740931809E+03  0.39011973061E+03  0.12508972287E+03 0.  0.
         23    2    1    2    0    0  0.28648156265E+02  0.27122713249E+02  0.16995182213E+03  0.19683131202E+03  0.91118522346E+02 0.  0.
          5    1    3    3  502    0 -0.16169550727E+02  0.20932331092E+02  0.89801753402E+01  0.28244164084E+02  0.41800000000E+01 0. -1.
         -5    1    3    3    0  502 -0.12478605538E+02 -0.48055044341E+02  0.35842914275E+03  0.36187556653E+03  0.41800000000E+01 0. -1.
        -11    1    4    4    0    0  0.45760195626E+02  0.15085536817E+02  0.16916696602E+03  0.17589494398E+03  0.00000000000E+00 0. -1.
         11    1    4    4    0    0 -0.17112039361E+02  0.12037176431E+02  0.78485610775E+00  0.20936368039E+02  0.00000000000E+00 0.  1.
</event>
<event>
 8    1  0.7168478E-009  0.1130671E+03  0.7561462E-02  0.1254993E+00
         -1   -1    0    0    0  501 -0.00000000000E+00  0.00000000000E+00  0.39260945868E+02  0.39260945868E+02  0.00000000000E+00 0.  1.
          1   -1    0    0  501    0  0.00000000000E+00 -0.00000000000E+00 -0.34313943766E+03  0.34313943766E+03  0.00000000000E+00 0. -1.
         25    2    1    2    0    0  0.11963084067E+02 -0.43021886566E+02 -0.16393280762E+03  0.21098956182E+03  0.12509449100E+03 0.  0.
         23    2    1    2    0    0 -0.11963084067E+02  0.43021886566E+02 -0.13994568416E+03  0.17141082170E+03  0.88333895963E+02 0.  0.
          5    1    3    3  502    0  0.61315444980E+02 -0.48113378381E+02 -0.12672502007E+03  0.14883273861E+03  0.41800000000E+01 0.  1.
         -5    1    3    3    0  502 -0.49352360913E+02  0.50914918151E+01 -0.37207787559E+02  0.62156823211E+02  0.41800000000E+01 0.  1.
        -11    1    4    4    0    0  0.34114213787E+02  0.39336769610E+02 -0.64020935100E+02  0.82521761716E+02  0.00000000000E+00 0.  1.
         11    1    4    4    0    0 -0.46077297855E+02  0.36851169561E+01 -0.75924749064E+02  0.88889059985E+02  0.00000000000E+00 0. -1.
</event>
<event>
 8    1  0.7168478E-009  0.1132249E+03  0.7561462E-02  0.1254712E+00
          2   -1    0    0  501    0  0.00000000000E+00  0.00000000000E+00  0.67032244758E+03  0.67032244758E+03  0.00000000000E+00 0.  1.
         -2   -1    0    0    0  501 -0.00000000000E+00 -0.00000000000E+00 -0.23619291774E+02  0.23619291774E+02  0.00000000000E+00 0. -1.
         25    2    1    2    0    0  0.51752579336E+02 -0.33796636078E+02  0.40712170744E+03  0.43036833342E+03  0.12509306799E+03 0.  0.
         23    2    1    2    0    0 -0.51752579336E+02  0.33796636078E+02  0.23958144836E+03  0.26357340594E+03  0.90835718961E+02 0.  0.
          5    1    3    3  502    0  0.12079130879E+02  0.34899979020E+02  0.26464139070E+03  0.26723856760E+03  0.41800000000E+01 0. -1.
         -5    1    3    3    0  502  0.39673448457E+02 -0.68696615098E+02  0.14248031674E+03  0.16312976582E+03  0.41800000000E+01 0. -1.
        -11    1    4    4    0    0  0.22727118137E+02  0.26644470397E+02  0.73627239087E+02  0.81531711849E+02  0.00000000000E+00 0.  1.
         11    1    4    4    0    0 -0.74479697473E+02  0.71521656815E+01  0.16595420928E+03  0.18204169409E+03  0.00000000000E+00 0. -1.
</event>
<event>
 8    1  0.7168478E-009  0.2033359E+03  0.7561462E-02  0.1146955E+00
          3   -1    0    0  501    0  0.00000000000E+00  0.00000000000E+00  0.42975438137E+03  0.42975438137E+03  0.00000000000E+00 0. -1.
         -3   -1    0    0    0  501 -0.00000000000E+00 -0.00000000000E+00 -0.20271034824E+03  0.20271034824E+03  0.00000000000E+00 0.  1.
         25    2    1    2    0    0  0.17102983307E+03  0.66104235149E+02  0.33515360796E+03  0.40199081759E+03  0.12509077821E+03 0.  0.
         23    2    1    2    0    0 -0.17102983307E+03 -0.66104235149E+02 -0.10810957482E+03  0.23047391202E+03  0.88371772923E+02 0.  0.
          5    1    3    3  502    0  0.19181725100E+02  0.66204692092E+02  0.87579547657E+02  0.11152869317E+03  0.41800000000E+01 0.  1.
         -5    1    3    3    0  502  0.15184810797E+03 -0.10045694339E+00  0.24757406030E+03  0.29046212442E+03  0.41800000000E+01 0.  1.
        -11    1    4    4    0    0 -0.26819558638E+02  0.59002157782E+00 -0.57950814606E+02  0.63858701557E+02  0.00000000000E+00 0.  1.
         11    1    4    4    0    0 -0.14421027443E+03 -0.66694256727E+02 -0.50158760219E+02  0.16661521046E+03  0.00000000000E+00 0. -1.
</event>
<event>
 8    1  0.7168478E-009  0.1149710E+03  0.7561462E-02  0.1251632E+00
          4   -1    0    0  501    0  0.00000000000E+00  0.00000000000E+00  0.55798713192E+03  0.55798713192E+03  0.00000000000E+00 0.  1.
         -4   -1    0    0    0  501 -0.00000000000E+00 -0.00000000000E+00 -0.33277121646E+02  0.33277121646E+02  0.00000000000E+00 0. -1.
         25    2    1    2    0    0 -0.65956329850E+02 -0.25492152291E+02  0.22620500507E+03  0.26798996558E+03  0.12509928080E+03 0.  0.
         23    2    1    2    0    0  0.65956329850E+02  0.25492152291E+02  0.29850500521E+03  0.32327428799E+03  0.10198499824E+03 0.  0.
          5    1    3    3  502    0 -0.79053997511E+01  0.45299469806E+02  0.42783894626E+02  0.62948163987E+02  0.41800000000E+01 0.  1.
         -5    1    3    3    0  502 -0.58050930099E+02 -0.70791622096E+02  0.18342111044E+03  0.20504180159E+03  0.41800000000E+01 0.  1.
        -11    1    4    4    0    0  0.69821360031E+02  0.37678124731E+02  0.30008207037E+03  0.31039315772E+03  0.00000000000E+00 0.  1.
         11    1    4    4    0    0 -0.38650301810E+01 -0.12185972440E+02 -0.15770651605E+01  0.12881130274E+02  0.00000000000E+00 0. -1.
</event>
<event>
 8    1  0.7168478E-009  0.2531053E+03  0.7561462E-02  0.1111358E+00
          1   -1    0    0  501    0  0.00000000000E+00  0.00000000000E+00  0.41626761843E+02  0.41626761843E+02  0.00000000000E+00 0. -1.
         -1   -1    0    0    0  501 -0.00000000000E+00 -0.00000000000E+00 -0.17092448805E+04  0.17092448805E+04  0.00000000000E+00 0.  1.
         25    2    1    2    0    0 -0.15271816278E+03 -0.17987982401E+03 -0.10500617399E+04  0.10834928830E+04  0.12509029376E+03 0.  0.
         23    2    1    2    0    0  0.15271816278E+03  0.17987982401E+03 -0.61755637877E+03  0.66737875936E+03  0.91317792062E+02 0.  0.
          5    1    3    3  502    0 -0.13525544864E+03 -0.18990665307E+03 -0.10244089743E+04  0.10506140073E+04  0.41800000000E+01 0.  1.
         -5    1    3    3    0  502 -0.17462714137E+02  0.10026829065E+02 -0.25652765615E+02  0.32878875739E+02  0.41800000000E+01 0.  1.
        -11    1    4    4    0    0  0.14809752360E+03  0.19025448612E+03 -0.59783333673E+03  0.64461953468E+03  0.00000000000E+00 0.  1.
         11    1    4    4    0    0  0.46206391788E+01 -0.10374662112E+02 -0.19723042040E+02  0.22759224672E+02  0.00000000000E+00 0. -1.
</event>
<event>
 8    1  0.7168478E-009  0.8539240E+02  0.7561462E-02  0.1314410E+00
         -1   -1    0    0    0  501 -0.00000000000E+00  0.00000000000E+00  0.49379373118E+02  0.49379373118E+02  0.00000000000E+00 0.  1.
          1   -1    0    0  501    0  0.00000000000E+00 -0.00000000000E+00 -0.28357195552E+03  0.28357195552E+03  0.00000000000E+00 0. -1.
         25    2    1    2    0    0 -0.13577293621E+02  0.45483305178E+02 -0.14814778407E+03  0.19962211114E+03  0.12509255524E+03 0.  0.
         23    2    1    2    0    0  0.13577293621E+02 -0.45483305178E+02 -0.86044798328E+02  0.13332921750E+03  0.90110482010E+02 0.  0.
          5    1    3    3  502    0 -0.25101012748E+02 -0.84861980520E+01  0.12583600246E+02  0.29629306329E+02  0.41800000000E+01 0. -1.
         -5    1    3    3    0  502  0.11523719127E+02  0.53969503230E+02 -0.16073138432E+03  0.16999280481E+03  0.41800000000E+01 0. -1.
        -11    1    4    4    0    0  0.99638205355E+01  0.20363440237E+02  0.26283939625E+01  0.22822267039E+02  0.00000000000E+00 0.  1.
         11    1    4    4    0    0  0.36134730858E+01 -0.65846745415E+02 -0.88673192291E+02  0.11050695046E+03  0.00000000000E+00 0. -1.
</event>
<event>
 8    1  0.7168478E-009  0.1161977E+03  0.7561462E-02  0.1249505E+00
          1   -1    0    0  501    0  0.00000000000E+00  0.00000000000E+00  0.35630968902E+02  0.35630968902E+02  0.00000000000E+00 0. -1.
         -1   -1    0    0    0  501 -0.00000000000E+00 -0.00000000000E+00 -0.47199013360E+03  0.47199013360E+03  0.00000000000E+00 0.  1.
         25    2    1    2    0    0  0.60619967510E+02 -0.22675329846E+02 -0.31509442753E+03  0.34514100340E+03  0.12509541530E+03 0.  0.
         23    2    1    2    0    0 -0.60619967510E+02  0.22675329846E+02 -0.12126473717E+03  0.16248009910E+03  0.86635414680E+02 0.  0.
          5    1    3    3  502    0  0.79890376257E+01 -0.69268031633E+02 -0.14129234121E+03  0.15761625238E+03  0.41800000000E+01 0.  1.
         -5    1    3    3    0  502  0.52630929884E+02  0.46592701787E+02 -0.17380208631E+03  0.18752475102E+03  0.41800000000E+01 0.  1.
        -11    1    4    4    0    0 -0.65654191665E+02  0.38095549907E+02 -0.12461824423E+03  0.14591590249E+03  0.00000000000E+00 0. -1.
         11    1    4    4    0    0  0.50342241551E+01 -0.15420220061E+02  0.33535070563E+01  0.16564196604E+02  0.00000000000E+00 0.  1.
</event>
<event>
 8    1  0.7168478E-009  0.2985651E+03  0.7561462E-02  0.1085960E+00
         -2   -1    0    0    0  501 -0.00000000000E+00  0.00000000000E+00  0.72052021046E+02  0.72052021046E+02  0.00000000000E+00 0. -1.
          2   -1    0    0  501    0  0.00000000000E+00 -0.00000000000E+00 -0.14694870411E+04  0.14694870411E+04  0.00000000000E+00 0.  1.
         25    2    1    2    0    0 -0.24286155088E+03  0.16430139595E+03 -0.49939351497E+03  0.59246674078E+03  0.12508506916E+03 0.  0.
         23    2    1    2    0    0  0.24286155088E+03 -0.16430139595E+03 -0.89804150503E+03  0.94907232132E+03  0.91011234075E+02 0.  0.
          5    1    3    3  502    0 -0.60682099719E+02  0.35751230981E+01 -0.40344698230E+02  0.73077122321E+02  0.41800000000E+01 0. -1.
         -5    1    3    3    0  502 -0.18217945116E+03  0.16072627285E+03 -0.45904881674E+03  0.51938961846E+03  0.41800000000E+01 0. -1.
        -11    1    4    4    0    0  0.56648982080E+02 -0.38033753657E+02 -0.35101994121E+03  0.35759009035E+03  0.00000000000E+00 0.  1.
         11    1    4    4    0    0  0.18621256880E+03 -0.12626764229E+03 -0.54702156382E+03  0.59148223097E+03  0.00000000000E+00 0. -1.
</event>
<event>
 8    1  0.7168478E-009  0.1343546E+03  0.7561462E-02  0.1221134E+00
          1   -1    0    0  501    0  0.00000000000E+00  0.00000000000E+00  0.10893848521E+03  0.10893848521E+03  0.00000000000E+00 0. -1.
         -1   -1    0    0    0  501 -0.00000000000E+00 -0.00000000000E+00 -0.25130186157E+03  0.25130186157E+03  0.00000000000E+00 0.  1.
         25    2    1    2    0    0 -0.84660643372E+01 -0.11787645215E+03 -0.11750754007E+03  0.20837973228E+03  0.12509020199E+03 0.  0.
         23    2    1    2    0    0  0.84660643372E+01  0.11787645215E+03 -0.24855836280E+02  0.15186061450E+03  0.92072261960E+02 0.  0.
          5    1    3    3  502    0  0.20813153110E+02 -0.11443136070E+03 -0.13139247192E+03  0.17552543329E+03  0.41800000000E+01 0.  1.
         -5    1    3    3    0  502 -0.29279217447E+02 -0.34450914442E+01  0.13884931851E+02  0.32854298986E+02  0.41800000000E+01 0.  1.
        -11    1    4    4    0    0  0.17985860929E+02  0.37272788534E+02 -0.51835520865E+02  0.66330032276E+02  0.00000000000E+00 0.  1.
         11    1    4    4    0    0 -0.95197965917E+01  0.80603663612E+02  0.26979684584E+02  0.85530582221E+02  0.00000000000E+00 0. -1.
</event>
<event>
 8    1  0.7168478E-009  0.8501393E+02  0.7561462E-02  0.1315396E+00
          2   -1    0    0  501    0  0.00000000000E+00  0.00000000000E+00  0.74316946037E+02  0.74316946037E+02  0.00000000000E+00 0. -1.
         -2   -1    0    0    0  501 -0.00000000000E+00 -0.00000000000E+00 -0.17923614811E+03  0.17923614811E+03  0.00000000000E+00 0.  1.
         25    2    1    2    0    0  0.30780586206E+02  0.13714913329E+02 -0.82446775454E+02  0.15355918809E+03  0.12508960840E+03 0.  0.
         23    2    1    2    0    0 -0.30780586206E+02 -0.13714913329E+02 -0.22472426619E+02  0.99993906058E+02  0.91423344697E+02 0.  0.
          5    1    3    3  502    0 -0.36480050751E+01 -0.45471933282E+02 -0.70276717762E+02  0.83888581564E+02  0.41800000000E+01 0.  1.
         -5    1    3    3    0  502  0.34428591282E+02  0.59186846611E+02 -0.12170057692E+02  0.69670606526E+02  0.41800000000E+01 0.  1.
        -11    1    4    4    0    0 -0.20302770017E+02 -0.30018165610E+02 -0.52777776616E+02  0.64021765373E+02  0.00000000000E+00 0.  1.
         11    1    4    4    0    0 -0.10477816190E+02  0.16303252281E+02  0.30305349997E+02  0.35972140685E+02  0.00000000000E+00 0. -1.
</event>
<event>
 8    1  0.7168478E-009  0.1151479E+03  0.7561462E-02  0.1251323E+00
          1   -1    0    0  501    0  0.00000000000E+00  0.00000000000E+00  0.32955406630E+03  0.32955406630E+03  0.00000000000E+00 0. -1.
         -1   -1    0    0    0  501 -0.00000000000E+00 -0.00000000000E+00 -0.54291497841E+02  0.54291497841E+02  0.00000000000E+00 0.  1.
         25    2    1    2    0    0 -0.70601402853E+02 -0.15956315747E+01  0.19828504826E+03  0.24484870342E+03  0.12508726184E+03 0.  0.
         23    2    1    2    0    0  0.70601402853E+02  0.15956315747E+01  0.76977520199E+02  0.13899686073E+03  0.91692336381E+02 0.  0.
          5    1    3    3  502    0 -0.10342568402E+03 -0.57449353127E+01  0.17748907105E+03  0.20554736471E+03  0.41800000000E+01 0.  1.
         -5    1    3    3    0  502  0.32824281170E+02  0.41493037380E+01  0.20795977210E+02  0.39301338705E+02  0.41800000000E+01 0.  1.
        -11    1    4    4    0    0  0.77767213756E+02 -0.11242119213E+02  0.89916738680E+02  0.11941166055E+03  0.00000000000E+00 0. -1.
         11    1    4    4    0    0 -0.71658109029E+01  0.12837750788E+02 -0.12939218481E+02  0.19585200180E+02  0.00000000000E+00 0.  1.
</event>
<event>
 8    1  0.7168478E-009  0.1296435E+03  0.7561462E-02  0.1227986E+00
         -3   -1    0    0    0  501 -0.00000000000E+00  0.00000000000E+00  0.49256629109E+02  0.49256629109E+02  0.00000000000E+00 0.  1.
          3   -1    0    0  501    0  0.00000000000E+00 -0.00000000000E+00 -0.39111482031E+03  0.39111482031E+03  0.00000000000E+00 0. -1.
         25    2    1    2    0    0 -0.23900579495E+02 -0.72542862654E+02 -0.25283094126E+03  0.29224149666E+03  0.12509157802E+03 0.  0.
         23    2    1    2    0    0  0.23900579495E+02  0.72542862654E+02 -0.89027249945E+02  0.14812995276E+03  0.90459532657E+02 0.  0.
          5    1    3    3  502    0 -0.62981306880E+02 -0.80811405697E+02 -0.20895050246E+03  0.23275504975E+03  0.41800000000E+01 0.  1.
         -5    1    3    3    0  502  0.39080727385E+02  0.82685430434E+01 -0.43880438797E+02  0.59486446911E+02  0.41800000000E+01 0.  1.
        -11    1    4    4    0    0 -0.67160489868E+01  0.83720240528E+02 -0.51921514270E+02  0.98742228211E+02  0.00000000000E+00 0.  1.
         11    1    4    4    0    0  0.30616628482E+02 -0.11177377874E+02 -0.37105735675E+02  0.49387724545E+02  0.00000000000E+00 0. -1.
</event>
<event>
 8    1  0.7168478E-009  0.1602367E+03  0.7561462E-02  0.1188430E+00
         -1   -1    0    0    0  501 -0.00000000000E+00  0.00000000000E+00  0.21784804539E+02  0.21784804539E+02  0.00000000000E+00 0.  1.
          1   -1    0    0  501    0  0.00000000000E+00 -0.00000000000E+00 -0.15388225991E+04  0.15388225991E+04  0.00000000000E+00 0. -1.
         25    2    1    2    0    0 -0.12752116622E+03  0.67313761126E+02 -0.67518701972E+03  0.70165413550E+03  0.12509286151E+03 0.  0.
         23    2    1    2    0    0  0.12752116622E+03 -0.67313761126E+02 -0.84185077485E+03  0.85895326814E+03  0.91077985639E+02 0.  0.
          5    1    3    3  502    0 -0.16188016778E+02 -0.62714442676E+01 -0.53517751102E+01  0.18641265977E+02  0.41800000000E+01 0.  1.
         -5    1    3    3    0  502 -0.11133314944E+03  0.73585205393E+02 -0.66983524461E+03  0.68301286952E+03  0.41800000000E+01 0.  1.
        -11    1    4    4    0    0  0.36793435785E+02 -0.69174557866E+02 -0.33477648322E+03  0.34382287604E+03  0.00000000000E+00 0.  1.
         11    1    4    4    0    0  0.90727730438E+02  0.18607967401E+01 -0.50707429162E+03  0.51513039210E+03  0.00000000000E+00 0. -1.
</event>
<event>
 8    1  0.7168478E-009  0.1050422E+03  0.7561462E-02  0.1270037E+00
          3   -1    0    0  501    0  0.00000000000E+00  0.00000000000E+00  0.29045088817E+02  0.29045088817E+02  0.00000000000E+00 0. -1.
         -3   -1    0    0    0  501 -0.00000000000E+00 -0.00000000000E+00 -0.54268848318E+03  0.54268848318E+03  0.00000000000E+00 0.  1.
         25    2    1    2    0    0  0.36316778218E+02 -0.39359548203E+02 -0.35870498644E+03  0.38365215479E+03  0.12510645934E+03 0.  0.
         23    2    1    2    0    0 -0.36316778218E+02  0.39359548203E+02 -0.15493840792E+03  0.18808141720E+03  0.92198843980E+02 0.  0.
          5    1    3    3  502    0  0.65901828294E+02 -0.15734905041E+02 -0.32735605418E+03  0.33432035059E+03  0.41800000000E+01 0. -1.
         -5    1    3    3    0  502 -0.29585050077E+02 -0.23624643162E+02 -0.31348932260E+02  0.49331804208E+02  0.41800000000E+01 0. -1.
        -11    1    4    4    0    0 -0.59656974412E+02  0.15494702680E+01 -0.10837236913E+03  0.12371712026E+03  0.00000000000E+00 0.  1.
         11    1    4    4    0    0  0.23340196194E+02  0.37810077935E+02 -0.46566038789E+02  0.64364296938E+02  0.00000000000E+00 0. -1.
</event>
<event>
 8    1  0.7168478E-009  0.1157889E+03  0.7561462E-02  0.1250210E+00
         -1   -1    0    0    0  501 -0.00000000000E+00  0.00000000000E+00  0.61711790247E+02  0.61711790247E+02  0.00000000000E+00 0.  1.
          1   -1    0    0  501    0  0.00000000000E+00 -0.00000000000E+00 -0.26616926283E+03  0.26616926283E+03  0.00000000000E+00 0. -1.
         25    2    1    2    0    0 -0.54040326247E+02 -0.21276695176E+01 -0.16521002822E+03  0.21416769211E+03  0.12509421681E+03 0.  0.
         23    2    1    2    0    0  0.54040326247E+02  0.21276695176E+01 -0.39247444365E+02  0.11371336097E+03  0.92008057992E+02 0.  0.
          5    1    3    3  502    0 -0.89047181381E+02 -0.99931732006E+01 -0.74763268551E+02  0.11677449528E+03  0.41800000000E+01 0. -1.
         -5    1    3    3    0  502  0.35006855133E+02  0.78655036829E+01 -0.90446759666E+02  0.97393196829E+02  0.41800000000E+01 0. -1.
        -11    1    4    4    0    0 -0.19234496354E+02 -0.21417846483E+02 -0.40081199258E+01  0.29064669675E+02  0.00000000000E+00 0.  1.
         11    1    4    4    0    0  0.73274822602E+02  0.23545516001E+02 -0.35239324439E+02  0.84648691295E+02  0.00000000000E+00 0. -1.
</event>
<event>
 8    1  0.7168478E-009  0.1605588E+03  0.7561462E-02  0.1188067E+00
         -2   -1    0    0    0  501 -0.00000000000E+00  0.00000000000E+00  0.55865297901E+02  0.55865297901E+02  0.00000000000E+00 0.  1.
          2   -1    0    0  501    0  0.00000000000E+00 -0.00000000000E+00 -0.73184927581E+03  0.73184927581E+03  0.00000000000E+00 0. -1.
         25    2    1    2    0    0  0.64649881188E+02 -0.99562379940E+02 -0.58996952611E+03  0.61465892182E+03  0.12509705750E+03 0.  0.
         23    2    1    2    0    0 -0.64649881188E+02  0.99562379940E+02 -0.86014451797E+02  0.17305565189E+03  0.91964656779E+02 0.  0.
          5    1    3    3  502    0  0.93959111930E+02 -0.35001684504E+02 -0.31102437441E+03  0.32681350417E+03  0.41800000000E+01 0. -1.
         -5    1    3    3    0  502 -0.29309230743E+02 -0.64560695437E+02 -0.27894515170E+03  0.28784541764E+03  0.41800000000E+01 0. -1.
        -11    1    4    4    0    0  0.19366047986E+02  0.46493326280E+02 -0.22845104940E+02  0.55304358082E+02  0.00000000000E+00 0.  1.
         11    1    4    4    0    0 -0.84015929173E+02  0.53069053660E+02 -0.63169346858E+02  0.11775129381E+03  0.00000000000E+00 0. -1.
</event>
<event>
 8    1  0.7168478E-009  0.1005989E+03  0.7561462E-02  0.1279042E+00
         -1   -1    0    0    0  501 -0.00000000000E+00  0.00000000000E+00  0.10429872738E+02  0.10429872738E+02  0.00000000000E+00 0.  1.
          1   -1    0    0  501    0  0.00000000000E+00 -0.00000000000E+00 -0.17032336795E+04  0.17032336795E+04  0.00000000000E+00 0. -1.
         25    2    1    2    0    0  0.50948019424E+02  0.26129043956E+02 -0.12771856309E+04  0.12845731149E+04  0.12508606675E+03 0.  0.
         23    2    1    2    0    0 -0.50948019424E+02 -0.26129043956E+02 -0.41561817587E+03  0.42909043736E+03  0.90009486707E+02 0.  0.
          5    1    3    3  502    0 -0.19484938446E+02 -0.12881323444E+02 -0.57202871449E+02  0.61929251747E+02  0.41800000000E+01 0. -1.
         -5    1    3    3    0  502  0.70432957870E+02  0.39010367401E+02 -0.12199827595E+04  0.12226438632E+04  0.41800000000E+01 0. -1.
        -11    1    4    4    0    0 -0.60233908057E+02  0.86469151744E+01 -0.33925633496E+03  0.34467050009E+03  0.00000000000E+00 0. -1.
         11    1    4    4    0    0  0.92858886328E+01 -0.34775959131E+02 -0.76361840909E+02  0.84419937267E+02  0.00000000000E+00 0.  1.
</event>
<event>
 8    1  0.7168478E-009  0.9841527E+02  0.7561462E-02  0.1283664E+00
         -2   -1    0    0    0  501 -0.00000000000E+00  0.00000000000E+00  0.74883053745E+02  0.74883053745E+02  0.00000000000E+00 0.  1.
          2   -1    0    0  501    0  0.00000000000E+00 -0.00000000000E+00 -0.22607607843E+03  0.22607607843E+03  0.00000000000E+00 0. -1.
         25    2    1    2    0    0  0.31719757662E+02 -0.47099117228E+02 -0.13284060148E+03  0.19109720466E+03  0.12508815435E+03 0.  0.
         23    2    1    2    0    0 -0.31719757662E+02  0.47099117228E+02 -0.18352423206E+02  0.10986192752E+03  0.92240781708E+02 0.  0.
          5    1    3    3  502    0 -0.40998936941E+02 -0.28829454322E+02 -0.17085664395E+02  0.53117253267E+02  0.41800000000E+01 0.  1.
         -5    1    3    3    0  502  0.72718694602E+02 -0.18269662907E+02 -0.11575493709E+03  0.13797995140E+03  0.41800000000E+01 0.  1.
        -11    1    4    4    0    0 -0.18911081828E+02  0.53770598981E+02  0.26415160104E+02  0.62822504041E+02  0.00000000000E+00 0.  1.
         11    1    4    4    0    0 -0.12808675834E+02 -0.66714817527E+01 -0.44767583310E+02  0.47039423474E+02  0.00000000000E+00 0. -1.
</event>
<event>
 8    1  0.7168478E-009  0.1141947E+03  0.7561462E-02  0.1252993E+00
         -3   -1    0    0    0  501 -0.00000000000E+00  0.00000000000E+00  0.12157728328E+03  0.12157728328E+03  0.00000000000E+00 0.  1.
          3   -1    0    0  501    0  0.00000000000E+00 -0.00000000000E+00 -0.15227436359E+03  0.15227436359E+03  0.00000000000E+00 0. -1.
         25    2    1    2    0    0  0.76341654500E+02 -0.34815295462E+02  0.86605769584E+00  0.15063236975E+03  0.12509679353E+03 0.  0.
         23    2    1    2    0    0 -0.76341654500E+02  0.34815295462E+02 -0.31563138007E+02  0.12321927712E+03  0.84537598516E+02 0.  0.
          5    1    3    3  502    0 -0.17965245392E+02 -0.44472012412E+02  0.22749491031E+02  0.53249616639E+02  0.41800000000E+01 0.  1.
         -5    1    3    3    0  502  0.94306899892E+02  0.96567169506E+01 -0.21883433335E+02  0.97382753114E+02  0.41800000000E+01 0.  1.
        -11    1    4    4    0    0 -0.46073046521E+02  0.12476178052E+02 -0.59558909397E+02  0.76325908597E+02  0.00000000000E+00 0. -1.
         11    1    4    4    0    0 -0.30268607979E+02  0.22339117409E+02  0.27995771390E+02  0.46893368522E+02  0.00000000000E+00 0.  1.
</event>
<event>
 8    1  0.7168478E-009  0.1936251E+03  0.7561462E-02  0.1155232E+00
         -1   -1    0    0    0  501 -0.00000000000E+00  0.00000000000E+00  0.16500046849E+03  0.16500046849E+03  0.00000000000E+00 0.  1.
          1   -1    0    0  501    0  0.00000000000E+00 -0.00000000000E+00 -0.41195215612E+03  0.41195215612E+03  0.00000000000E+00 0. -1.
         25    2    1    2    0    0  0.12895132151E+03 -0.10975987624E+03 -0.31071729143E+03  0.37532448981E+03  0.12509022226E+03 0.  0.
         23    2    1    2    0    0 -0.12895132151E+03  0.10975987624E+03  0.63765603799E+02  0.20162813481E+03  0.88950428702E+02 0.  0.
          5    1    3    3  502    0  0.18958646506E+01 -0.58964632126E+02 -0.38348258506E+02  0.70487470340E+02  0.41800000000E+01 0.  1.
         -5    1    3    3    0  502  0.12705545686E+03 -0.50795244109E+02 -0.27236903292E+03  0.30483701947E+03  0.41800000000E+01 0.  1.
        -11    1    4    4    0    0 -0.21963829495E+02  0.75867612189E+02  0.29011672954E+02  0.84142626254E+02  0.00000000000E+00 0.  1.
         11    1    4    4    0    0 -0.10698749202E+03  0.33892264046E+02  0.34753930845E+02  0.11748550855E+03  0.00000000000E+00 0. -1.
</event>
<event>
 8    1  0.7168478E-009  0.7572784E+02  0.7561462E-02  0.1341632E+00
          3   -1    0    0  501    0  0.00000000000E+00  0.00000000000E+00  0.85279727798E+02  0.85279727798E+02  0.00000000000E+00 0. -1.
         -3   -1    0    0    0  501 -0.00000000000E+00 -0.00000000000E+00 -0.16274491917E+03  0.16274491917E+03  0.00000000000E+00 0.  1.
         25    2    1    2    0    0  0.31919317119E+02 -0.35024187459E+02 -0.41079617379E+02  0.13993071060E+03  0.12509009670E+03 0.  0.
         23    2    1    2    0    0 -0.31919317119E+02  0.35024187459E+02 -0.36385573991E+02  0.10809393637E+03  0.90082476503E+02 0.  0.
          5    1    3    3  502    0  0.26811563212E+01 -0.91311646652E+01  0.44537156153E+02  0.45733985673E+02  0.41800000000E+01 0.  1.
         -5    1    3    3    0  502  0.29238160798E+02 -0.25893022794E+02 -0.85616773531E+02  0.94196724923E+02  0.41800000000E+01 0.  1.
        -11    1    4    4    0    0 -0.10048713672E+02 -0.30812053494E+02 -0.11964824185E+02  0.34547305319E+02  0.00000000000E+00 0. -1.
         11    1    4    4    0    0 -0.21870603447E+02  0.65836240953E+02 -0.24420749805E+02  0.73546631052E+02  0.00000000000E+00 0.  1.
</event>
<event>
 8    1  0.7168478E-009  0.1013454E+03  0.7561462E-02  0.1277492E+00
         -1   -1    0    0    0  501 -0.00000000000E+00  0.00000000000E+00  0.44708287376E+02  0.44708287376E+02  0.00000000000E+00 0.  1.
          1   -1    0    0  501    0  0.00000000000E+00 -0.00000000000E+00 -0.38419987407E+03  0.38419987407E+03  0.00000000000E+00 0. -1.
         25    2    1    2    0    0  0.44154091542E+01  0.27634363298E+02 -0.77342373140E+02  0.14971163267E+03  0.12509427006E+03 0.  0.
         23    2    1    2    0    0 -0.44154091542E+01 -0.27634363298E+02 -0.26214921355E+03  0.27919652877E+03  0.91898518164E+02 0.  0.
          5    1    3    3  502    0  0.59320766994E+02  0.18148537872E+01 -0.64126260083E+02  0.87475120596E+02  0.41800000000E+01 0.  1.
         -5    1    3    3    0  502 -0.54905357840E+02  0.25819509511E+02 -0.13216113057E+02  0.62236512075E+02  0.41800000000E+01 0.  1.
        -11    1    4    4    0    0  0.26824527701E+02 -0.40512269214E+02 -0.21934675346E+03  0.22466374317E+03  0.00000000000E+00 0. -1.
         11    1    4    4    0    0 -0.31239936856E+02  0.12877905916E+02 -0.42802460096E+02  0.54532785604E+02  0.00000000000E+00 0.  1.
</event>
<event>
 8    1  0.7168478E-009  0.1208372E+03  0.7561462E-02  0.1241722E+00
         -1   -1    0    0    0  501 -0.00000000000E+00  0.00000000000E+00  0.30792563267E+02  0.30792563267E+02  0.00000000000E+00 0.  1.
          1   -1    0    0  501    0  0.00000000000E+00 -0.00000000000E+00 -0.74533736059E+03  0.74533736059E+03  0.00000000000E+00 0. -1.
         25    2    1    2    0    0 -0.95235567297E+02 -0.25905181656E+02 -0.45833386721E+03  0.48523946604E+03  0.12508602585E+03 0.  0.
         23    2    1    2    0    0  0.95235567297E+02  0.25905181656E+02 -0.25621093012E+03  0.29089045781E+03  0.96084993727E+02 0.  0.
          5    1    3    3  502    0 -0.57517778081E+02 -0.33738739523E+02 -0.43480084964E+03  0.43990436300E+03  0.41800000000E+01 0.  1.
         -5    1    3    3    0  502 -0.37717789216E+02  0.78335578662E+01 -0.23533017568E+02  0.45335103045E+02  0.41800000000E+01 0.  1.
        -11    1    4    4    0    0  0.11384830409E+03  0.28388509482E+02 -0.20308910120E+03  0.23454749379E+03  0.00000000000E+00 0.  1.
         11    1    4    4    0    0 -0.18612736791E+02 -0.24833278260E+01 -0.53121828913E+02  0.56342964024E+02  0.00000000000E+00 0. -1.
</event>
<event>
 8    1  0.7168478E-009  0.1010251E+03  0.7561462E-02  0.1278155E+00
         -3   -1    0    0    0  501 -0.00000000000E+00  0.00000000000E+00  0.44910576140E+02  0.44910576140E+02  0.00000000000E+00 0.  1.
          3   -1    0    0  501    0  0.00000000000E+00 -0.00000000000E+00 -0.31692405294E+03  0.31692405294E+03  0.00000000000E+00 0. -1.
         25    2    1    2    0    0 -0.10227563610E+02 -0.29800170602E+02 -0.21102443298E+03  0.24732608915E+03  0.12508489052E+03 0.  0.
         23    2    1    2    0    0  0.10227563610E+02  0.29800170602E+02 -0.60989043823E+02  0.11450853993E+03  0.91650908479E+02 0.  0.
          5    1    3    3  502    0  0.36984923334E+02  0.32452354610E+02 -0.64647160697E+02  0.81349662937E+02  0.41800000000E+01 0. -1.
         -5    1    3    3    0  502 -0.47212486944E+02 -0.62252525212E+02 -0.14637727228E+03  0.16597642622E+03  0.41800000000E+01 0. -1.
        -11    1    4    4    0    0  0.37775670528E+02  0.64677221040E+01 -0.67693754247E+02  0.77789954860E+02  0.00000000000E+00 0. -1.
         11    1    4    4    0    0 -0.27548106918E+02  0.23332448498E+02  0.67047104236E+01  0.36718585070E+02  0.00000000000E+00 0.  1.
</event>
<event>
 8    1  0.7168478E-009  0.9671692E+02  0.7561462E-02  0.1287355E+00
          4   -1    0    0  501    0  0.00000000000E+00  0.00000000000E+00  0.22494591157E+03  0.22494591157E+03  0.00000000000E+00 0.  1.
         -4   -1    0    0    0  501 -0.00000000000E+00 -0.00000000000E+00 -0.84168726773E+02  0.84168726773E+02  0.00000000000E+00 0. -1.
         25    2    1    2    0    0  0.39084858943E+02  0.42316792847E+02  0.85940031681E+01  0.13798353828E+03  0.12508901947E+03 0.  0.
         23    2    1    2    0    0 -0.39084858943E+02 -0.42316792847E+02  0.13218318163E+03  0.17113110006E+03  0.92168990156E+02 0.  0.
          5    1    3    3  502    0  0.79166597676E+02  0.41798906191E+02  0.27109103390E+02  0.93631589931E+02  0.41800000000E+01 0.  1.
         -5    1    3    3    0  502 -0.40081738733E+02  0.51788665593E+00 -0.18515100222E+02  0.44351948353E+02  0.41800000000E+01 0.  1.
        -11    1    4    4    0    0 -0.53624329917E+01 -0.25062765158E+02  0.13073464834E+03  0.13322329437E+03  0.00000000000E+00 0.  1.
         11    1    4    4    0    0 -0.33722425951E+02 -0.17254027689E+02  0.14485332847E+01  0.37907805690E+02  0.00000000000E+00 0. -1.
</event>
<event>
 8    1  0.7168478E-009  0.1525852E+03  0.7561462E-02  0.1197332E+00
         -1   -1    0    0    0  501 -0.00000000000E+00  0.00000000000E+00  0.73333821053E+02  0.73333821053E+02  0.00000000000E+00 0.  1.
          1   -1    0    0  501    0  0.00000000000E+00 -0.00000000000E+00 -0.41016077695E+03  0.41016077695E+03  0.00000000000E+00 0. -1.
         25    2    1    2    0    0 -0.13088606923E+03  0.27194212511E+02 -0.19744156953E+03  0.26926083875E+03  0.12509011788E+03 0.  0.
         23    2    1    2    0    0  0.13088606923E+03 -0.27194212511E+02 -0.13938538637E+03  0.21423375926E+03  0.92720706203E+02 0.  0.
          5    1    3    3  502    0 -0.53547047518E+02  0.41947019818E+02 -0.13971240481E+02  0.69566563305E+02  0.41800000000E+01 0.  1.
         -5    1    3    3    0  502 -0.77339021715E+02 -0.14752807308E+02 -0.18347032905E+03  0.19969427544E+03  0.41800000000E+01 0.  1.
        -11    1    4    4    0    0  0.23101991664E+02 -0.43415123729E+02 -0.21479797217E+02  0.53665227809E+02  0.00000000000E+00 0.  1.
         11    1    4    4    0    0  0.10778407757E+03  0.16220911219E+02 -0.11790558915E+03  0.16056853145E+03  0.00000000000E+00 0. -1.
</event>
<event>
 8    1  0.7168478E-009  0.8843429E+02  0.7561462E-02  0.1306688E+00
         -1   -1    0    0    0  501 -0.00000000000E+00  0.00000000000E+00  0.11362469980E+03  0.11362469980E+03  0.00000000000E+00 0.  1.
          1   -1    0    0  501    0  0.00000000000E+00 -0.00000000000E+00 -0.11010534659E+03  0.11010534659E+03  0.00000000000E+00 0. -1.
         25    2    1    2    0    0  0.24810663179E+02  0.76777767587E+01  0.14285927989E+02  0.12855355821E+03  0.12508961718E+03 0.  0.
         23    2    1    2    0    0 -0.24810663179E+02 -0.76777767587E+01 -0.10766574781E+02  0.95176488176E+02  0.90929244502E+02 0.  0.
          5    1    3    3  502    0 -0.28443771417E+02  0.13944316415E+01 -0.41860555307E+02  0.50801289970E+02  0.41800000000E+01 0. -1.
         -5    1    3    3    0  502  0.53254434596E+02  0.62833451171E+01  0.56146483296E+02  0.77752268240E+02  0.41800000000E+01 0. -1.
        -11    1    4    4    0    0 -0.37307799123E+01 -0.48347298596E+02 -0.19665590885E+01  0.48530890729E+02  0.00000000000E+00 0.  1.
         11    1    4    4    0    0 -0.21079883267E+02  0.40669521837E+02 -0.88000156929E+01  0.46645597447E+02  0.00000000000E+00 0. -1.
</event>
<event>
 8    1  0.7168478E-009  0.1389219E+03  0.7561462E-02  0.1214787E+00
          1   -1    0    0  501    0  0.00000000000E+00  0.00000000000E+00  0.15115660894E+03  0.15115660894E+03  0.00000000000E+00 0. -1.
         -1   -1    0    0    0  501 -0.00000000000E+00 -0.00000000000E+00 -0.15051770256E+03  0.15051770256E+03  0.00000000000E+00 0.  1.
         25    2    1    2    0    0  0.17727174313E+02  0.98642699812E+02  0.27476303368E+02  0.16262517420E+03  0.12508942842E+03 0.  0.
         23    2    1    2    0    0 -0.17727174313E+02 -0.98642699812E+02 -0.26837396996E+02  0.13904913730E+03  0.92573115810E+02 0.  0.
          5    1    3    3  502    0 -0.23898656193E+02  0.10786522164E+03 -0.20788274552E+01  0.11057959003E+03  0.41800000000E+01 0. -1.
         -5    1    3    3    0  502  0.41625830506E+02 -0.92225218264E+01  0.29555130823E+02  0.52045584175E+02  0.41800000000E+01 0. -1.
        -11    1    4    4    0    0  0.25957198771E+02 -0.14740133024E+02 -0.32697818039E+02  0.44274089421E+02  0.00000000000E+00 0. -1.
         11    1    4    4    0    0 -0.43684373084E+02 -0.83902566788E+02  0.58604210424E+01  0.94775047877E+02  0.00000000000E+00 0.  1.
</event>
<event>
 8    1  0.7168478E-009  0.9787198E+02  0.7561462E-02  0.1284836E+00
          2   -1    0    0  501    0  0.00000000000E+00  0.00000000000E+00  0.33083128689E+03  0.33083128689E+03  0.00000000000E+00 0. -1.
         -2   -1    0    0    0  501 -0.00000000000E+00 -0.00000000000E+00 -0.43622090360E+02  0.43622090360E+02  0.00000000000E+00 0.  1.
         25    2    1    2    0    0 -0.42761792250E+02  0.22668885176E+02  0.19652245645E+03  0.23793186445E+03  0.12509215402E+03 0.  0.
         23    2    1    2    0    0  0.42761792250E+02 -0.22668885176E+02  0.90686740079E+02  0.13652151280E+03  0.89842024691E+02 0.  0.
          5    1    3    3  502    0  0.20496983743E+02  0.44844080650E+02  0.28782092398E+02  0.57245079742E+02  0.41800000000E+01 0. -1.
         -5    1    3    3    0  502 -0.63258775993E+02 -0.22175195474E+02  0.16774036405E+03  0.18068678471E+03  0.41800000000E+01 0. -1.
        -11    1    4    4    0    0 -0.16507659628E+02 -0.46718607032E+01 -0.88355717744E+01  0.19297575946E+02  0.00000000000E+00 0.  1.
         11    1    4    4    0    0  0.59269451878E+02 -0.17997024473E+02  0.99522311854E+02  0.11722393686E+03  0.00000000000E+00 0. -1.
</event>
<event>
 8    1  0.7168478E-009  0.1191917E+03  0.7561462E-02  0.1244436E+00
         -4   -1    0    0    0  501 -0.00000000000E+00  0.00000000000E+00  0.43000374331E+03  0.43000374331E+03  0.00000000000E+00 0.  1.
          4   -1    0    0  501    0  0.00000000000E+00 -0.00000000000E+00 -0.84467689439E+02  0.84467689439E+02  0.00000000000E+00 0. -1.
         25    2    1    2    0    0 -0.47033602927E+02  0.75450200466E+02  0.78902095606E+01  0.15367497566E+03  0.12509536435E+03 0.  0.
         23    2    1    2    0    0  0.47033602927E+02 -0.75450200466E+02  0.33764584431E+03  0.36079645709E+03  0.90909156388E+02 0.  0.
          5    1    3    3  502    0 -0.45891195333E+02  0.88189178866E+02 -0.37498206249E+02  0.10633400656E+03  0.41800000000E+01 0. -1.
         -5    1    3    3    0  502 -0.11424075941E+01 -0.12738978401E+02  0.45388415810E+02  0.47340969102E+02  0.41800000000E+01 0. -1.
        -11    1    4    4    0    0 -0.26113352784E+02 -0.12642423937E+02  0.55383653327E+02  0.62522692940E+02  0.00000000000E+00 0. -1.
         11    1    4    4    0    0  0.73146955712E+02 -0.62807776529E+02  0.28226219099E+03  0.29827376415E+03  0.00000000000E+00 0.  1.
</event>
<event>
 8    1  0.7168478E-009  0.1280386E+03  0.7561462E-02  0.1230395E+00
         -1   -1    0    0    0  501 -0.00000000000E+00  0.00000000000E+00  0.18938849148E+03  0.18938849148E+03  0.00000000000E+00 0.  1.
          1   -1    0    0  501    0  0.00000000000E+00 -0.00000000000E+00 -0.15074392112E+03  0.15074392112E+03  0.00000000000E+00 0. -1.
         25    2    1    2    0    0 -0.33998937421E+02 -0.86197667390E+02  0.11104219693E+03  0.19121295346E+03  0.12508420549E+03 0.  0.
         23    2    1    2    0    0  0.33998937421E+02  0.86197667390E+02 -0.72397626571E+02  0.14891945915E+03  0.91376273563E+02 0.  0.
          5    1    3    3  502    0 -0.33945964884E+02 -0.11254300624E+03  0.56487332026E+02  0.13048581480E+03  0.41800000000E+01 0.  1.
         -5    1    3    3    0  502 -0.52972536351E-01  0.26345338848E+02  0.54554864899E+02  0.60727138655E+02  0.41800000000E+01 0.  1.
        -11    1    4    4    0    0  0.27127282035E+02  0.18936367469E+01  0.11736190355E+02  0.29617789498E+02  0.00000000000E+00 0.  1.
         11    1    4    4    0    0  0.68716553861E+01  0.84304030643E+02 -0.84133816926E+02  0.11930166965E+03  0.00000000000E+00 0. -1.
</event>
<event>
 8    1  0.7168478E-009  0.1207302E+03  0.7561462E-02  0.1241897E+00
         -1   -1    0    0    0  501 -0.00000000000E+00  0.00000000000E+00  0.13173619261E+03  0.13173619261E+03  0.00000000000E+00 0. -1.
          1   -1    0    0  501    0  0.00000000000E+00 -0.00000000000E+00 -0.34710086128E+03  0.34710086128E+03  0.00000000000E+00 0.  1.
         25    2    1    2    0    0 -0.65137065554E+02 -0.98715696625E+02 -0.27055604300E+03  0.32068047062E+03  0.12509102993E+03 0.  0.
         23    2    1    2    0    0  0.65137065554E+02  0.98715696625E+02  0.55191374322E+02  0.15815658327E+03  0.89329675708E+02 0.  0.
          5    1    3    3  502    0 -0.13866008493E+02 -0.14772777680E+02 -0.19624509981E+03  0.19733249289E+03  0.41800000000E+01 0.  1.
         -5    1    3    3    0  502 -0.51271057061E+02 -0.83942918944E+02 -0.74310943184E+02  0.12334797773E+03  0.41800000000E+01 0.  1.
        -11    1    4    4    0    0  0.48998678733E+02  0.46060947644E+02 -0.15036731773E+02  0.68909975460E+02  0.00000000000E+00 0.  1.
         11    1    4    4    0    0  0.16138386821E+02  0.52654748980E+02  0.70228106095E+02  0.89246607807E+02  0.00000000000E+00 0. -1.
</event>
<event>
 8    1  0.7168478E-009  0.1014465E+03  0.7561462E-02  0.1277283E+00
          1   -1    0    0  501    0  0.00000000000E+00  0.00000000000E+00  0.33226895819E+03  0.33226895819E+03  0.00000000000E+00 0. -1.
         -1   -1    0    0    0  501 -0.00000000000E+00 -0.00000000000E+00 -0.40253946282E+02  0.40253946282E+02  0.00000000000E+00 0.  1.
         25    2    1    2    0    0  0.24304043123E+02 -0.24583337631E+02  0.13782462682E+03  0.18930818128E+03  0.12508770020E+03 0.  0.
         23    2    1    2    0    0 -0.24304043123E+02  0.24583337631E+02  0.15419038509E+03  0.18321472320E+03  0.92725039439E+02 0.  0.
          5    1    3    3  502    0  0.62588473711E+02 -0.20268047313E+02  0.13526202156E+03  0.15047058736E+03  0.41800000000E+01 0. -1.
         -5    1    3    3    0  502 -0.38284430588E+02 -0.43152903179E+01  0.25626052583E+01  0.38837593922E+02  0.41800000000E+01 0. -1.
        -11    1    4    4    0    0  0.16080828073E+02 -0.27775599608E+02  0.40279294364E+02  0.51502412755E+02  0.00000000000E+00 0.  1.
         11    1    4    4    0    0 -0.40384871195E+02  0.52358937239E+02  0.11391109073E+03  0.13171231044E+03  0.00000000000E+00 0. -1.
</event>
<event>
 8    1  0.7168478E-009  0.1554151E+03  0.7561462E-02  0.1193972E+00
         -2   -1    0    0    0  501 -0.00000000000E+00  0.00000000000E+00  0.16542012863E+03  0.16542012863E+03  0.00000000000E+00 0.  1.
          2   -1    0    0  501    0  0.00000000000E+00 -0.00000000000E+00 -0.21224989079E+03  0.21224989079E+03  0.00000000000E+00 0. -1.
         25    2    1    2    0    0  0.12606660009E+03  0.41242274151E+02  0.49611456286E+02  0.18895299968E+03  0.12509287212E+03 0.  0.
         23    2    1    2    0    0 -0.12606660009E+03 -0.41242274151E+02 -0.96441218448E+02  0.18871701974E+03  0.93378220636E+02 0.  0.
          5    1    3    3  502    0  0.65530294620E+02  0.81282611894E+02  0.70936377853E+01  0.10473239521E+03  0.41800000000E+01 0. -1.
         -5    1    3    3    0  502  0.60536305470E+02 -0.40040337744E+02  0.42517818501E+02  0.84220604466E+02  0.41800000000E+01 0. -1.
        -11    1    4    4    0    0 -0.79133128623E+02 -0.17517612361E+02 -0.10784532629E+03  0.13490564551E+03  0.00000000000E+00 0. -1.
         11    1    4    4    0    0 -0.46933471466E+02 -0.23724661789E+02  0.11404107841E+02  0.53811374230E+02  0.00000000000E+00 0.  1.
</event>
<event>
 8    1  0.7168478E-009  0.6639409E+02  0.7561462E-02  0.1372803E+00
         -2   -1    0    0    0  501 -0.00000000000E+00  0.00000000000E+00  0.17706933215E+02  0.17706933215E+02  0.00000000000E+00 0.  1.
          2   -1    0    0  501    0  0.00000000000E+00 -0.00000000000E+00 -0.70564799235E+03  0.70564799235E+03  0.00000000000E+00 0. -1.
         25    2    1    2    0    0  0.10954897943E+02 -0.80697102314E+01 -0.47456957872E+03  0.49096743285E+03  0.12509038759E+03 0.  0.
         23    2    1    2    0    0 -0.10954897943E+02  0.80697102314E+01 -0.21337148042E+03  0.23238749271E+03  0.91057279230E+02 0.  0.
          5    1    3    3  502    0  0.18428302420E+02 -0.19098522728E+02 -0.47615731281E+03  0.47691468298E+03  0.41800000000E+01 0.  1.
         -5    1    3    3    0  502 -0.74734044767E+01  0.11028812497E+02  0.15877340888E+01  0.14052749877E+02  0.41800000000E+01 0.  1.
        -11    1    4    4    0    0 -0.51142233520E+02  0.98635788021E+00 -0.12429260302E+03  0.13440666694E+03  0.00000000000E+00 0. -1.
         11    1    4    4    0    0  0.40187335576E+02  0.70833523512E+01 -0.89078877393E+02  0.97980825771E+02  0.00000000000E+00 0.  1.
</event>
<event>
 8    1  0.7168478E-009  0.1382451E+03  0.7561462E-02  0.1215710E+00
          2   -1    0    0  501    0  0.00000000000E+00  0.00000000000E+00  0.26139673026E+03  0.26139673026E+03  0.00000000000E+00 0. -1.
         -2   -1    0    0    0  501 -0.00000000000E+00 -0.00000000000E+00 -0.78246761091E+02  0.78246761091E+02  0.00000000000E+00 0.  1.
         25    2    1    2    0    0 -0.72525113854E+02 -0.49422993788E+02  0.62660786035E+02  0.16515477499E+03  0.12508877304E+03 0.  0.
         23    2    1    2    0    0  0.72525113854E+02  0.49422993788E+02  0.12048918313E+03  0.17448871636E+03  0.90698094962E+02 0.  0.
          5    1    3    3  502    0 -0.35489852570E+02 -0.90474035321E+02  0.42541595671E+02  0.10617127891E+03  0.41800000000E+01 0.  1.
         -5    1    3    3    0  502 -0.37035261284E+02  0.41051041533E+02  0.20119190364E+02  0.58983496084E+02  0.41800000000E+01 0.  1.
        -11    1    4    4    0    0  0.50467259916E+02 -0.17412773343E+02  0.35370745835E+02  0.64040913952E+02  0.00000000000E+00 0.  1.
         11    1    4    4    0    0  0.22057853939E+02  0.66835767131E+02  0.85118437296E+02  0.11044780240E+03  0.00000000000E+00 0. -1.
</event>
<event>
 8    1  0.7168478E-009  0.1170580E+03  0.7561462E-02  0.1248031E+00
          2   -1    0    0  501    0  0.00000000000E+00  0.00000000000E+00  0.15246576663E+03  0.15246576663E+03  0.00000000000E+00 0. -1.
         -2   -1    0    0    0  501 -0.00000000000E+00 -0.00000000000E+00 -0.15103624949E+03  0.15103624949E+03  0.00000000000E+00 0.  1.
         25    2    1    2    0    0 -0.13296788909E+02  0.62416162954E+02 -0.82504023586E+02  0.16287021828E+03  0.12508881686E+03 0.  0.
         23    2    1    2    0    0  0.13296788909E+02 -0.62416162954E+02  0.83933540717E+02  0.14063179784E+03  0.93058483289E+02 0.  0.
          5    1    3    3  502    0  0.31333608083E+02  0.69265677758E+02 -0.92240794563E+01  0.76694753097E+02  0.41800000000E+01 0.  1.
         -5    1    3    3    0  502 -0.44630396992E+02 -0.68495148038E+01 -0.73279944130E+02  0.86175465188E+02  0.41800000000E+01 0.  1.
        -11    1    4    4    0    0  0.52984815158E+02 -0.44032593556E+02  0.47163233165E+02  0.83490301803E+02  0.00000000000E+00 0.  1.
         11    1    4    4    0    0 -0.39688026249E+02 -0.18383569398E+02  0.36770307552E+02  0.57141496033E+02  0.00000000000E+00 0. -1.
</event>
<event>
 8    1  0.7168478E-009  0.1439676E+03  0.7561462E-02  0.1208088E+00
         -2   -1    0    0    0  501 -0.00000000000E+00  0.00000000000E+00  0.24842973479E+03  0.24842973479E+03  0.00000000000E+00 0. -1.
          2   -1    0    0  501    0  0.00000000000E+00 -0.00000000000E+00 -0.12207289140E+03  0.12207289140E+03  0.00000000000E+00 0.  1.
         25    2    1    2    0    0 -0.40054257625E+02 -0.98872785102E+02 -0.22812090913E+02  0.16597672672E+03  0.12509081155E+03 0.  0.
         23    2    1    2    0    0  0.40054257625E+02  0.98872785102E+02  0.14916893430E+03  0.20452589947E+03  0.90549993955E+02 0.  0.
          5    1    3    3  502    0  0.24891822001E+02 -0.82205434753E+02 -0.42566608490E+02  0.95951679838E+02  0.41800000000E+01 0. -1.
         -5    1    3    3    0  502 -0.64946079625E+02 -0.16667350349E+02  0.19754517577E+02  0.70025046884E+02  0.41800000000E+01 0. -1.
        -11    1    4    4    0    0 -0.23340497015E+02  0.48378229164E+02  0.87552121325E+02  0.10271614190E+03  0.00000000000E+00 0.  1.
         11    1    4    4    0    0  0.63394754640E+02  0.50494555938E+02  0.61616812980E+02  0.10180975757E+03  0.00000000000E+00 0. -1.
</event>
<event>
 8    1  0.7168478E-009  0.1171176E+03  0.7561462E-02  0.1247929E+00
         -1   -1    0    0    0  501 -0.00000000000E+00  0.00000000000E+00  0.60983176761E+02  0.60983176761E+02  0.00000000000E+00 0.  1.
          1   -1    0    0  501    0  0.00000000000E+00 -0.00000000000E+00 -0.30790894275E+03  0.30790894275E+03  0.00000000000E+00 0. -1.
         25    2    1    2    0    0  0.56768469899E+02  0.57228131382E+02 -0.14414227106E+03  0.20717712545E+03  0.12509056243E+03 0.  0.
         23    2    1    2    0    0 -0.56768469899E+02 -0.57228131382E+02 -0.10278349492E+03  0.16171499405E+03  0.95339258844E+02 0.  0.
          5    1    3    3  502    0  0.19929492047E+02  0.90180031994E+02 -0.12143989520E+03  0.15262615559E+03  0.41800000000E+01 0. -1.
         -5    1    3    3    0  502  0.36838977853E+02 -0.32951900611E+02 -0.22702375857E+02  0.54550969860E+02  0.41800000000E+01 0. -1.
        -11    1    4    4    0    0 -0.28795900335E+02 -0.35034885803E+00 -0.93277741219E+02  0.97622044782E+02  0.00000000000E+00 0. -1.
         11    1    4    4    0    0 -0.27972569565E+02 -0.56877782524E+02 -0.95057537043E+01  0.64092949272E+02  0.00000000000E+00 0.  1.
</event>
<event>
 8    1  0.7168478E-009  0.2061705E+03  0.7561462E-02  0.1144635E+00
          2   -1    0    0  501    0  0.00000000000E+00  0.00000000000E+00  0.11179327750E+04  0.11179327750E+04  0.00000000000E+00 0. -1.
         -2   -1    0    0    0  501 -0.00000000000E+00 -0.00000000000E+00 -0.61412315846E+02  0.61412315846E+02  0.00000000000E+00 0.  1.
         25    2    1    2    0    0  0.42850937635E+02 -0.19978528314E+03  0.81759509229E+03  0.85197388360E+03  0.12508957261E+03 0.  0.
         23    2    1    2    0    0 -0.42850937635E+02  0.19978528314E+03  0.23892536683E+03  0.32737120721E+03  0.91302870626E+02 0.  0.
          5    1    3    3  502    0  0.98103943707E+01 -0.19789681684E+02  0.33620088777E+03  0.33695160584E+03  0.41800000000E+01 0. -1.
         -5    1    3    3    0  502  0.33040543264E+02 -0.17999560145E+03  0.48139420452E+03  0.51502227776E+03  0.41800000000E+01 0. -1.
        -11    1    4    4    0    0 -0.25555326444E+02  0.51216603777E+02  0.16930868664E+02  0.59689777398E+02  0.00000000000E+00 0.  1.
         11    1    4    4    0    0 -0.17295611191E+02  0.14856867936E+03  0.22199449816E+03  0.26768142982E+03  0.00000000000E+00 0. -1.
</event>
<event>
 8    1  0.7168478E-009  0.8190528E+02  0.7561462E-02  0.1323730E+00
          1   -1    0    0  501    0  0.00000000000E+00  0.00000000000E+00  0.17688768424E+02  0.17688768424E+02  0.00000000000E+00 0. -1.
         -1   -1    0    0    0  501 -0.00000000000E+00 -0.00000000000E+00 -0.69493082768E+03  0.69493082768E+03  0.00000000000E+00 0.  1.
         25    2    1    2    0    0 -0.21475542611E+02  0.25259183176E+02 -0.38877849511E+03  0.40975439289E+03  0.12510283358E+03 0.  0.
         23    2    1    2    0    0  0.21475542611E+02 -0.25259183176E+02 -0.28846356415E+03  0.30286520321E+03  0.86121299404E+02 0.  0.
          5    1    3    3  502    0 -0.42177898149E+02 -0.45178210754E+01 -0.38068681018E+02  0.57149651565E+02  0.41800000000E+01 0.  1.
         -5    1    3    3    0  502  0.20702355539E+02  0.29777004251E+02 -0.35070981409E+03  0.35260474133E+03  0.41800000000E+01 0.  1.
        -11    1    4    4    0    0  0.51020485501E+02 -0.12710249683E+02 -0.23229525009E+03  0.23817162636E+03  0.00000000000E+00 0.  1.
         11    1    4    4    0    0 -0.29544942890E+02 -0.12548933492E+02 -0.56168314060E+02  0.64693576857E+02  0.00000000000E+00 0. -1.
</event>
<event>
 8    1  0.7168478E-009  0.1287924E+03  0.7561462E-02  0.1229259E+00
         -1   -1    0    0    0  501 -0.00000000000E+00  0.00000000000E+00  0.10272829257E+03  0.10272829257E+03  0.00000000000E+00 0. -1.
          1   -1    0    0  501    0  0.00000000000E+00 -0.00000000000E+00 -0.53377425626E+03  0.53377425626E+03  0.00000000000E+00 0.  1.
         25    2    1    2    0    0  0.51371397647E+02 -0.63515178796E+02 -0.48206920675E+03  0.50468922097E+03  0.12508913318E+03 0.  0.
         23    2    1    2    0    0 -0.51371397647E+02  0.63515178796E+02  0.51023243055E+02  0.13181332787E+03  0.89989908533E+02 0.  0.
          5    1    3    3  502    0  0.38034290946E+02 -0.97344035689E+02 -0.27127077265E+03  0.29073660427E+03  0.41800000000E+01 0. -1.
         -5    1    3    3    0  502  0.13337106701E+02  0.33828856893E+02 -0.21079843410E+03  0.21395261670E+03  0.41800000000E+01 0. -1.
        -11    1    4    4    0    0  0.17809684056E+02 -0.55289368355E+01  0.24024961481E+02  0.30413036068E+02  0.00000000000E+00 0. -1.
         11    1    4    4    0    0 -0.69181081703E+02  0.69044115631E+02  0.26998281574E+02  0.10140029180E+03  0.00000000000E+00 0.  1.
</event>
<event>
 8    1  0.7168478E-009  0.7872889E+02  0.7561462E-02  0.1332698E+00
          3   -1    0    0  501    0  0.00000000000E+00  0.00000000000E+00  0.15890293371E+03  0.15890293371E+03  0.00000000000E+00 0. -1.
         -3   -1    0    0    0  501 -0.00000000000E+00 -0.00000000000E+00 -0.78353120337E+02  0.78353120337E+02  0.00000000000E+00 0.  1.
         25    2    1    2    0    0  0.18243975075E+01  0.12149195592E+02  0.55054774308E+02  0.13721816503E+03  0.12508743047E+03 0.  0.
         23    2    1    2    0    0 -0.18243975075E+01 -0.12149195592E+02  0.25495039069E+02  0.10003788902E+03  0.95951294115E+02 0.  0.
          5    1    3    3  502    0  0.29109209369E+02 -0.27708109526E+02  0.74683702612E+02  0.84912974506E+02  0.41800000000E+01 0. -1.
         -5    1    3    3    0  502 -0.27284811862E+02  0.39857305118E+02 -0.19628928304E+02  0.52305190526E+02  0.41800000000E+01 0. -1.
        -11    1    4    4    0    0  0.57092985397E+00 -0.40306983487E+02 -0.21133082759E+02  0.45514679672E+02  0.00000000000E+00 0.  1.
         11    1    4    4    0    0 -0.23953273615E+01  0.28157787895E+02  0.46628121828E+02  0.54523209347E+02  0.00000000000E+00 0. -1.
</event>
<event>
 8    1  0.7168478E-009  0.8993234E+02  0.7561462E-02  0.1303016E+00
          1   -1    0    0  501    0  0.00000000000E+00  0.00000000000E+00  0.55829596230E+02  0.55829596230E+02  0.00000000000E+00 0. -1.
         -1   -1    0    0    0  501 -0.00000000000E+00 -0.00000000000E+00 -0.29314673835E+03  0.29314673835E+03  0.00000000000E+00 0.  1.
         25    2    1    2    0    0 -0.58445670241E+01  0.60248421179E+02 -0.17258001386E+03  0.22158005823E+03  0.12509927978E+03 0.  0.
         23    2    1    2    0    0  0.58445670241E+01 -0.60248421179E+02 -0.64737128256E+02  0.12739627635E+03  0.91514393594E+02 0.  0.
          5    1    3    3  502    0  0.42741440372E+02  0.11956664219E+02 -0.13741476246E+03  0.14446481193E+03  0.41800000000E+01 0.  1.
         -5    1    3    3    0  502 -0.48586007396E+02  0.48291756960E+02 -0.35165251400E+02  0.77115246294E+02  0.41800000000E+01 0.  1.
        -11    1    4    4    0    0  0.17154321359E+02 -0.34357000771E+02 -0.84567369088E+02  0.92877953023E+02  0.00000000000E+00 0.  1.
         11    1    4    4    0    0 -0.11309754335E+02 -0.25891420408E+02  0.19830240832E+02  0.34518323327E+02  0.00000000000E+00 0. -1.
</event>
<event>
 8    1  0.7168478E-009  0.9981665E+02  0.7561462E-02  0.1280682E+00
          1   -1    0    0  501    0  0.00000000000E+00  0.00000000000E+00  0.14158572834E+03  0.14158572834E+03  0.00000000000E+00 0. -1.
         -1   -1    0    0    0  501 -0.00000000000E+00 -0.00000000000E+00 -0.13619721669E+03  0.13619721669E+03  0.00000000000E+00 0.  1.
         25    2    1    2    0    0 -0.29051946492E+02 -0.88194141653E+01 -0.79805499362E+02  0.15145809964E+03  0.12509532588E+03 0.  0.
         23    2    1    2    0    0  0.29051946492E+02  0.88194141653E+01  0.85194011008E+02  0.12632484539E+03  0.88193817183E+02 0.  0.
          5    1    3    3  502    0  0.15823708343E+02 -0.46414573744E+02  0.37399452250E+01  0.49357491750E+02  0.41800000000E+01 0. -1.
         -5    1    3    3    0  502 -0.44875654835E+02  0.37595159578E+02 -0.83545444587E+02  0.10210060789E+03  0.41800000000E+01 0. -1.
        -11    1    4    4    0    0 -0.33836470602E+01  0.43852754828E+02  0.52356149798E+02  0.68378941167E+02  0.00000000000E+00 0. -1.
         11    1    4    4    0    0  0.32435593552E+02 -0.35033340663E+02  0.32837861210E+02  0.57945904220E+02  0.00000000000E+00 0.  1.
</event>
<event>
 8    1  0.7168478E-009  0.1207679E+03  0.7561462E-02  0.1241836E+00
         -1   -1    0    0    0  501 -0.00000000000E+00  0.00000000000E+00  0.27267851933E+02  0.27267851933E+02  0.00000000000E+00 0.  1.
          1   -1    0    0  501    0  0.00000000000E+00 -0.00000000000E+00 -0.83020342212E+03  0.83020342212E+03  0.00000000000E+00 0. -1.
         25    2    1    2    0    0 -0.27975824604E+02  0.81667821160E+02 -0.26837152838E+03  0.30841965511E+03  0.12508847523E+03 0.  0.
         23    2    1    2    0    0  0.27975824604E+02 -0.81667821160E+02 -0.53456404180E+03  0.54905161894E+03  0.90811264176E+02 0.  0.
          5    1    3    3  502    0 -0.40627994321E+02  0.52275199644E+01 -0.20247911501E+03  0.20662339002E+03  0.41800000000E+01 0.  1.
         -5    1    3    3    0  502  0.12652169717E+02  0.76440301196E+02 -0.65892413368E+02  0.10179626508E+03  0.41800000000E+01 0.  1.
        -11    1    4    4    0    0  0.56701481972E+02 -0.31256275204E+02 -0.33612907139E+03  0.34230799790E+03  0.00000000000E+00 0. -1.
         11    1    4    4    0    0 -0.28725657368E+02 -0.50411545957E+02 -0.19843497042E+03  0.20674362104E+03  0.00000000000E+00 0.  1.
</event>
<event>
 8    1  0.7168478E-009  0.1443878E+03  0.7561462E-02  0.1207544E+00
          2   -1    0    0  501    0  0.00000000000E+00  0.00000000000E+00  0.14947867699E+03  0.14947867699E+03  0.00000000000E+00 0. -1.
         -2   -1    0    0    0  501 -0.00000000000E+00 -0.00000000000E+00 -0.21545575449E+03  0.21545575449E+03  0.00000000000E+00 0.  1.
         25    2    1    2    0    0  0.12826182795E+03  0.55501817005E+02 -0.85387360158E+01  0.18776582642E+03  0.12510614437E+03 0.  0.
         23    2    1    2    0    0 -0.12826182795E+03 -0.55501817005E+02 -0.57438341483E+02  0.17716860506E+03  0.92509477058E+02 0.  0.
          5    1    3    3  502    0  0.17056973225E+02  0.49782608484E+01  0.49288522808E+02  0.52560006633E+02  0.41800000000E+01 0.  1.
         -5    1    3    3    0  502  0.11120485473E+03  0.50523556157E+02 -0.57827258824E+02  0.13520581979E+03  0.41800000000E+01 0.  1.
        -11    1    4    4    0    0 -0.11310502187E+03 -0.64968351435E+02 -0.76358618941E+02  0.15114321469E+03  0.00000000000E+00 0.  1.
         11    1    4    4    0    0 -0.15156806080E+02  0.94665344300E+01  0.18920277457E+02  0.26025390366E+02  0.00000000000E+00 0. -1.
</event>
<event>
 8    1  0.7168478E-009  0.1909907E+03  0.7561462E-02  0.1157571E+00
         -1   -1    0    0    0  501 -0.00000000000E+00  0.00000000000E+00  0.10228250292E+04  0.10228250292E+04  0.00000000000E+00 0.  1.
          1   -1    0    0  501    0  0.00000000000E+00 -0.00000000000E+00 -0.40843275470E+02  0.40843275470E+02  0.00000000000E+00 0. -1.
         25    2    1    2    0    0 -0.16573001115E+03  0.38265991291E+02  0.59686457389E+03  0.63310783837E+03  0.12508993865E+03 0.  0.
         23    2    1    2    0    0  0.16573001115E+03 -0.38265991291E+02  0.38511717980E+03  0.43056046626E+03  0.90201719750E+02 0.  0.
          5    1    3    3  502    0 -0.14370524875E+03  0.70824758455E+02  0.37595551159E+03  0.40868981395E+03  0.41800000000E+01 0. -1.
         -5    1    3    3    0  502 -0.22024762398E+02 -0.32558767165E+02  0.22090906230E+03  0.22441802442E+03  0.41800000000E+01 0. -1.
        -11    1    4    4    0    0  0.41580852104E+02  0.18699123416E+02  0.45089712099E+02  0.64122590523E+02  0.00000000000E+00 0. -1.
         11    1    4    4    0    0  0.12414915905E+03 -0.56965114706E+02  0.34002746770E+03  0.36643787574E+03  0.00000000000E+00 0.  1.
</event>
<event>
 8    1  0.7168478E-009  0.1809652E+03  0.7561462E-02  0.1166872E+00
          1   -1    0    0  501    0  0.00000000000E+00  0.00000000000E+00  0.28831678436E+04  0.28831678436E+04  0.00000000000E+00 0. -1.
         -1   -1    0    0    0  501 -0.00000000000E+00 -0.00000000000E+00 -0.16175533116E+02  0.16175533116E+02  0.00000000000E+00 0.  1.
         25    2    1    2    0    0 -0.13745981154E+03 -0.78708167158E+02  0.21413164511E+04  0.21508078762E+04  0.12509277072E+03 0.  0.
         23    2    1    2    0    0  0.13745981154E+03  0.78708167158E+02  0.72567585941E+03  0.74853550053E+03  0.92788831493E+02 0.  0.
          5    1    3    3  502    0 -0.40983673378E+02  0.16808648337E+02  0.20696368321E+03  0.21169230196E+03  0.41800000000E+01 0.  1.
         -5    1    3    3    0  502 -0.96476138157E+02 -0.95516815494E+02  0.19343527679E+04  0.19391155743E+04  0.41800000000E+01 0.  1.
        -11    1    4    4    0    0  0.11909819593E+02  0.51876854924E+02  0.16606144866E+03  0.17438307433E+03  0.00000000000E+00 0.  1.
         11    1    4    4    0    0  0.12554999194E+03  0.26831312234E+02  0.55961441075E+03  0.57415242620E+03  0.00000000000E+00 0. -1.
</event>
<event>
 8    1  0.7168478E-009  0.1004880E+03  0.7561462E-02  0.1279273E+00
         -1   -1    0    0    0  501 -0.00000000000E+00  0.00000000000E+00  0.59361604038E+03  0.59361604038E+03  0.00000000000E+00 0.  1.
          1   -1    0    0  501    0  0.00000000000E+00 -0.00000000000E+00 -0.21501818996E+02  0.21501818996E+02  0.00000000000E+00 0. -1.
         25    2    1    2    0    0 -0.21860952278E+02 -0.15003014030E+01  0.35706861924E+03  0.37898007896E+03  0.12509096395E+03 0.  0.
         23    2    1    2    0    0  0.21860952278E+02  0.15003014030E+01  0.21504560214E+03  0.23613778041E+03  0.95059393013E+02 0.  0.
          5    1    3    3  502    0  0.35226385949E+02  0.38338790206E+02  0.20716172923E+03  0.21364506912E+03  0.41800000000E+01 0.  1.
         -5    1    3    3    0  502 -0.57087338227E+02 -0.39839091609E+02  0.14990689001E+03  0.16533500984E+03  0.41800000000E+01 0.  1.
        -11    1    4    4    0    0 -0.15682431124E+02  0.28657668297E+02  0.16390029132E+03  0.16712422353E+03  0.00000000000E+00 0.  1.
         11    1    4    4    0    0  0.37543383402E+02 -0.27157366894E+02  0.51145310821E+02  0.69013556877E+02  0.00000000000E+00 0. -1.
</event>
<event>
 8    1  0.7168478E-009  0.1783945E+03  0.7561462E-02  0.1169366E+00
          1   -1    0    0  501    0  0.00000000000E+00  0.00000000000E+00  0.20170610961E+03  0.20170610961E+03  0.00000000000E+00 0. -1.
         -1   -1    0    0    0  501 -0.00000000000E+00 -0.00000000000E+00 -0.18841080311E+03  0.18841080311E+03  0.00000000000E+00 0.  1.
         25    2    1    2    0    0  0.32149487968E+02  0.13864039523E+03  0.83272277869E+02  0.20696981884E+03  0.12508990720E+03 0.  0.
         23    2    1    2    0    0 -0.32149487968E+02 -0.13864039523E+03 -0.69976971364E+02  0.18314709388E+03  0.91604217757E+02 0.  0.
          5    1    3    3  502    0 -0.45840257474E+02  0.71602498742E+02  0.50387492605E+02  0.98917232282E+02  0.41800000000E+01 0.  1.
         -5    1    3    3    0  502  0.77989745442E+02  0.67037896485E+02  0.32884785264E+02  0.10805258655E+03  0.41800000000E+01 0.  1.
        -11    1    4    4    0    0  0.26807601160E+02 -0.84663683819E+02 -0.29714968143E+02  0.93645961843E+02  0.00000000000E+00 0.  1.
         11    1    4    4    0    0 -0.58957089128E+02 -0.53976711408E+02 -0.40262003220E+02  0.89501132038E+02  0.00000000000E+00 0. -1.
</event>
<event>
 8    1  0.7168478E-009  0.1493722E+03  0.7561462E-02  0.1201247E+00
          1   -1    0    0  501    0  0.00000000000E+00  0.00000000000E+00  0.25298236035E+02  0.25298236035E+02  0.00000000000E+00 0. -1.
         -1   -1    0    0    0  501 -0.00000000000E+00 -0.00000000000E+00 -0.11021729549E+04  0.11021729549E+04  0.00000000000E+00 0.  1.
         25    2    1    2    0    0 -0.86938066713E+02 -0.56444365077E+02 -0.80025191607E+03  0.81657492354E+03  0.12508909939E+03 0.  0.
         23    2    1    2    0    0  0.86938066713E+02  0.56444365077E+02 -0.27662280276E+03  0.31089626736E+03  0.96912951964E+02 0.  0.
          5    1    3    3  502    0 -0.55645934509E+01  0.37105816845E+02 -0.21911928777E+03  0.22234779292E+03  0.41800000000E+01 0. -1.
         -5    1    3    3    0  502 -0.81373473262E+02 -0.93550181922E+02 -0.58113262831E+03  0.59422713062E+03  0.41800000000E+01 0. -1.
        -11    1    4    4    0    0  0.17964345495E+02  0.64993509949E+02 -0.95586055966E+02  0.11697678462E+03  0.00000000000E+00 0. -1.
         11    1    4    4    0    0  0.68973721218E+02 -0.85491448722E+01 -0.18103674679E+03  0.19391948274E+03  0.00000000000E+00 0.  1.
</event>
<event>
 8    1  0.7168478E-009  0.1599408E+03  0.7561462E-02  0.1188764E+00
          1   -1    0    0  501    0  0.00000000000E+00  0.00000000000E+00  0.19969662635E+04  0.19969662635E+04  0.00000000000E+00 0. -1.
         -1   -1    0    0    0  501 -0.00000000000E+00 -0.00000000000E+00 -0.24764575688E+02  0.24764575688E+02  0.00000000000E+00 0.  1.
         25    2    1    2    0    0 -0.48330249530E+02 -0.13508371547E+03  0.16146536935E+04  0.16258343713E+04  0.12508968734E+03 0.  0.
         23    2    1    2    0    0  0.48330249530E+02  0.13508371547E+03  0.35754799435E+03  0.39589646789E+03  0.91159321079E+02 0.  0.
          5    1    3    3  502    0 -0.22626709605E+02 -0.14883518714E+02  0.91791188283E+03  0.91832085034E+03  0.41800000000E+01 0. -1.
         -5    1    3    3    0  502 -0.25703539925E+02 -0.12020019676E+03  0.69674181064E+03  0.70751352097E+03  0.41800000000E+01 0. -1.
        -11    1    4    4    0    0 -0.10569278044E+02  0.10077118433E+03  0.19879373704E+03  0.22312662574E+03  0.00000000000E+00 0.  1.
         11    1    4    4    0    0  0.58899527573E+02  0.34312531145E+02  0.15875425731E+03  0.17276984215E+03  0.00000000000E+00 0. -1.
</event>
<event>
 8    1  0.7168478E-009  0.1092805E+03  0.7561462E-02  0.1261908E+00
          4   -1    0    0  501    0  0.00000000000E+00  0.00000000000E+00  0.38283065232E+03  0.38283065232E+03  0.00000000000E+00 0. -1.
         -4   -1    0    0    0  501 -0.00000000000E+00 -0.00000000000E+00 -0.62403817233E+02  0.62403817233E+02  0.00000000000E+00 0.  1.
         25    2    1    2    0    0 -0.63006857756E+02  0.43586551691E+02  0.28476750279E+03  0.32033176506E+03  0.12510098899E+03 0.  0.
         23    2    1    2    0    0  0.63006857756E+02 -0.43586551691E+02  0.35659332295E+02  0.12490270450E+03  0.91975246659E+02 0.  0.
          5    1    3    3  502    0 -0.29024229625E+02  0.56116097093E+02  0.44683619532E+02  0.77495293488E+02  0.41800000000E+01 0. -1.
         -5    1    3    3    0  502 -0.33982628132E+02 -0.12529545403E+02  0.24008388326E+03  0.24283647157E+03  0.41800000000E+01 0. -1.
        -11    1    4    4    0    0 -0.57952612273E+01  0.22591137730E+02  0.10053916027E+01  0.23344279147E+02  0.00000000000E+00 0.  1.
         11    1    4    4    0    0  0.68802118984E+02 -0.66177689421E+02  0.34653940692E+02  0.10155842535E+03  0.00000000000E+00 0. -1.
</event>
<event>
 8    1  0.7168478E-009  0.9848180E+02  0.7561462E-02  0.1283521E+00
         -1   -1    0    0    0  501 -0.00000000000E+00  0.00000000000E+00  0.44374650612E+03  0.44374650612E+03  0.00000000000E+00 0. -1.
          1   -1    0    0  501    0  0.00000000000E+00 -0.00000000000E+00 -0.28803525586E+02  0.28803525586E+02  0.00000000000E+00 0.  1.
         25    2    1    2    0    0 -0.19011575489E+02 -0.20563625582E+02  0.20550715099E+03  0.24220952366E+03  0.12509181246E+03 0.  0.
         23    2    1    2    0    0  0.19011575489E+02  0.20563625582E+02  0.20943582955E+03  0.23034050804E+03  0.91701037336E+02 0.  0.
          5    1    3    3  502    0 -0.63916656218E+02 -0.35243135614E+02  0.16248862872E+03  0.17817812552E+03  0.41800000000E+01 0. -1.
         -5    1    3    3    0  502  0.44905080728E+02  0.14679510032E+02  0.43018522266E+02  0.64031398141E+02  0.41800000000E+01 0. -1.
        -11    1    4    4    0    0 -0.19451342023E+02  0.30978240161E+02  0.17137819907E+03  0.17523838959E+03  0.00000000000E+00 0. -1.
         11    1    4    4    0    0  0.38462917513E+02 -0.10414614579E+02  0.38057630472E+02  0.55102118449E+02  0.00000000000E+00 0.  1.
</event>
<event>
 8    1  0.7168478E-009  0.6816921E+02  0.7561462E-02  0.1366432E+00
          2   -1    0    0  501    0  0.00000000000E+00  0.00000000000E+00  0.18550090241E+03  0.18550090241E+03  0.00000000000E+00 0. -1.
         -2   -1    0    0    0  501 -0.00000000000E+00 -0.00000000000E+00 -0.74774652094E+02  0.74774652094E+02  0.00000000000E+00 0.  1.
         25    2    1    2    0    0  0.21503204593E+02 -0.28126263173E+02  0.52163484713E+02  0.14007266986E+03  0.12508336906E+03 0.  0.
         23    2    1    2    0    0 -0.21503204593E+02  0.28126263173E+02  0.58562765602E+02  0.12020288464E+03  0.98821361422E+02 0.  0.
          5    1    3    3  502    0  0.26694691673E+02  0.20128100734E+02 -0.29632790511E+02  0.44870053222E+02  0.41800000000E+01 0.  1.
         -5    1    3    3    0  502 -0.51914870795E+01 -0.48254363908E+02  0.81796275224E+02  0.95202616638E+02  0.41800000000E+01 0.  1.
        -11    1    4    4    0    0 -0.18629890970E+02 -0.60870800941E+01 -0.23882080679E+02  0.30894646125E+02  0.00000000000E+00 0.  1.
         11    1    4    4    0    0 -0.28733136233E+01  0.34213343268E+02  0.82444846281E+02  0.89308238517E+02  0.00000000000E+00 0. -1.
</event>
<event>
 8    1  0.7168478E-009  0.1551226E+03  0.7561462E-02  0.1194316E+00
          2   -1    0    0  501    0  0.00000000000E+00  0.00000000000E+00  0.55843630256E+03  0.55843630256E+03  0.00000000000E+00 0. -1.
         -2   -1    0    0    0  501 -0.00000000000E+00 -0.00000000000E+00 -0.52941605592E+02  0.52941605592E+02  0.00000000000E+00 0.  1.
         25    2    1    2    0    0 -0.11323760995E+03 -0.59283841821E+01  0.39178510420E+03  0.42661378952E+03  0.12508339414E+03 0.  0.
         23    2    1    2    0    0  0.11323760995E+03  0.59283841821E+01  0.11370959277E+03  0.18476411863E+03  0.91378367251E+02 0.  0.
          5    1    3    3  502    0 -0.55703525243E+02  0.59340771062E+02  0.17834914969E+03  0.19608697415E+03  0.41800000000E+01 0. -1.
         -5    1    3    3    0  502 -0.57534084703E+02 -0.65269155244E+02  0.21343595451E+03  0.23052681537E+03  0.41800000000E+01 0. -1.
        -11    1    4    4    0    0  0.97465395011E+02 -0.30350954638E+02  0.99987746179E+02  0.14289238279E+03  0.00000000000E+00 0.  1.
         11    1    4    4    0    0  0.15772214935E+02  0.36279338820E+02  0.13721846592E+02  0.41871735849E+02  0.00000000000E+00 0. -1.
</event>
<event>
 8    1  0.7168478E-009  0.9411053E+02  0.7561462E-02  0.1293192E+00
         -1   -1    0    0    0  501 -0.00000000000E+00  0.00000000000E+00  0.20851998556E+03  0.20851998556E+03  0.00000000000E+00 0.  1.
          1   -1    0    0  501    0  0.00000000000E+00 -0.00000000000E+00 -0.62214600333E+02  0.62214600333E+02  0.00000000000E+00 0. -1.
         25    2    1    2    0    0  0.23654594477E+02  0.82726780464E+01  0.54119210400E+02  0.13857935609E+03  0.12508945582E+03 0.  0.
         23    2    1    2    0    0 -0.23654594477E+02 -0.82726780464E+01  0.92186174830E+02  0.13215522981E+03  0.91316684642E+02 0.  0.
          5    1    3    3  502    0 -0.48272852305E+02 -0.88221856115E+01  0.39424879896E+02  0.63086391428E+02  0.41800000000E+01 0.  1.
         -5    1    3    3    0  502  0.71927446782E+02  0.17094863658E+02  0.14694330504E+02  0.75492964659E+02  0.41800000000E+01 0.  1.
        -11    1    4    4    0    0  0.20339579468E+02 -0.39094133514E+01  0.84849205651E+02  0.87340538728E+02  0.00000000000E+00 0.  1.
         11    1    4    4    0    0 -0.43994173946E+02 -0.43632646950E+01  0.73369691798E+01  0.44814691081E+02  0.00000000000E+00 0. -1.
</event>
<event>
 8    1  0.7168478E-009  0.1078065E+03  0.7561462E-02  0.1264687E+00
         -2   -1    0    0    0  501 -0.00000000000E+00  0.00000000000E+00  0.47307709127E+03  0.47307709127E+03  0.00000000000E+00 0.  1.
          2   -1    0    0  501    0  0.00000000000E+00 -0.00000000000E+00 -0.40360153789E+02  0.40360153789E+02  0.00000000000E+00 0. -1.
         25    2    1    2    0    0 -0.14374913155E+02  0.70546157629E+02  0.28691049327E+03  0.32116753987E+03  0.12509020358E+03 0.  0.
         23    2    1    2    0    0  0.14374913155E+02 -0.70546157629E+02  0.14580644421E+03  0.19226970519E+03  0.10259006714E+03 0.  0.
          5    1    3    3  502    0  0.21161617930E+02  0.10958867714E+02  0.23018414352E+03  0.23145220497E+03  0.41800000000E+01 0. -1.
         -5    1    3    3    0  502 -0.35536531085E+02  0.59587289914E+02  0.56726349749E+02  0.89715334903E+02  0.41800000000E+01 0. -1.
        -11    1    4    4    0    0  0.50686986388E+02 -0.10533495998E+02  0.84567090526E+02  0.99155019677E+02  0.00000000000E+00 0. -1.
         11    1    4    4    0    0 -0.36312073233E+02 -0.60012661631E+02  0.61239353684E+02  0.93114685513E+02  0.00000000000E+00 0.  1.
</event>
<event>
 8    1  0.7168478E-009  0.1361611E+03  0.7561462E-02  0.1218590E+00
         -4   -1    0    0    0  501 -0.00000000000E+00  0.00000000000E+00  0.14081285204E+03  0.14081285204E+03  0.00000000000E+00 0.  1.
          4   -1    0    0  501    0  0.00000000000E+00 -0.00000000000E+00 -0.15401085132E+03  0.15401085132E+03  0.00000000000E+00 0. -1.
         25    2    1    2    0    0  0.24578154926E+02 -0.93296871405E+02  0.10011098979E+02  0.15829563126E+03  0.12509553494E+03 0.  0.
         23    2    1    2    0    0 -0.24578154926E+02  0.93296871405E+02 -0.23209098257E+02  0.13652807210E+03  0.93770252832E+02 0.  0.
          5    1    3    3  502    0 -0.40525764440E+02 -0.31194209595E+02  0.38140953299E+02  0.63934505662E+02  0.41800000000E+01 0. -1.
         -5    1    3    3    0  502  0.65103919366E+02 -0.62102661810E+02 -0.28129854320E+02  0.94361125601E+02  0.41800000000E+01 0. -1.
        -11    1    4    4    0    0 -0.42083642178E+02  0.67272417705E+01  0.69873346350E+01  0.43186937448E+02  0.00000000000E+00 0.  1.
         11    1    4    4    0    0  0.17505487252E+02  0.86569629635E+02 -0.30196432892E+02  0.93341134654E+02  0.00000000000E+00 0. -1.
</event>
<event>
 8    1  0.7168478E-009  0.8323171E+02  0.7561462E-02  0.1320123E+00
          2   -1    0    0  501    0  0.00000000000E+00  0.00000000000E+00  0.55072038143E+03  0.55072038143E+03  0.00000000000E+00 0. -1.
         -2   -1    0    0    0  501 -0.00000000000E+00 -0.00000000000E+00 -0.22711986046E+02  0.22711986046E+02  0.00000000000E+00 0.  1.
         25    2    1    2    0    0 -0.11079484135E+02  0.35473377161E+01  0.23287712150E+03  0.26460308457E+03  0.12509076733E+03 0.  0.
         23    2    1    2    0    0  0.11079484135E+02 -0.35473377161E+01  0.29513127388E+03  0.30882928291E+03  0.90209304308E+02 0.  0.
          5    1    3    3  502    0  0.34599466728E+01 -0.34448293794E+02  0.21848095540E+03  0.22124659647E+03  0.41800000000E+01 0. -1.
         -5    1    3    3    0  502 -0.14539430808E+02  0.37995631510E+02  0.14396166101E+02  0.43356488101E+02  0.41800000000E+01 0. -1.
        -11    1    4    4    0    0 -0.14261039155E+02 -0.42161007907E+02  0.13312683667E+03  0.14036980611E+03  0.00000000000E+00 0. -1.
         11    1    4    4    0    0  0.25340523290E+02  0.38613670191E+02  0.16200443721E+03  0.16845947680E+03  0.00000000000E+00 0.  1.
</event>
<event>
 8    1  0.7168478E-009  0.2811267E+03  0.7561462E-02  0.1095075E+00
         -2   -1    0    0    0  501 -0.00000000000E+00  0.00000000000E+00  0.55560347738E+02  0.55560347738E+02  0.00000000000E+00 0.  1.
          2   -1    0    0  501    0  0.00000000000E+00 -0.00000000000E+00 -0.26247796422E+04  0.26247796422E+04  0.00000000000E+00 0. -1.
         25    2    1    2    0    0 -0.18654912951E+03 -0.18447263482E+03 -0.21979051300E+04  0.22170391951E+04  0.12508038026E+03 0.  0.
         23    2    1    2    0    0  0.18654912951E+03  0.18447263482E+03 -0.37131416450E+03  0.46330079485E+03  0.89121753978E+02 0.  0.
          5    1    3    3  502    0  0.11751103368E+02  0.40298323666E+01 -0.20748582145E+03  0.20789941434E+03  0.41800000000E+01 0. -1.
         -5    1    3    3    0  502 -0.19830023288E+03 -0.18850246718E+03 -0.19904193085E+04  0.20091397808E+04  0.41800000000E+01 0. -1.
        -11    1    4    4    0    0  0.68587396212E+02  0.16988885796E+02 -0.11775435882E+03  0.13732786382E+03  0.00000000000E+00 0. -1.
         11    1    4    4    0    0  0.11796173330E+03  0.16748374902E+03 -0.25355980568E+03  0.32597293103E+03  0.00000000000E+00 0.  1.
</event>
<event>
 8    1  0.7168478E-009  0.8297264E+02  0.7561462E-02  0.1320821E+00
          1   -1    0    0  501    0  0.00000000000E+00  0.00000000000E+00  0.92664496822E+02  0.92664496822E+02  0.00000000000E+00 0. -1.
         -1   -1    0    0    0  501 -0.00000000000E+00 -0.00000000000E+00 -0.14749597373E+03  0.14749597373E+03  0.00000000000E+00 0.  1.
         25    2    1    2    0    0  0.11825131564E+02  0.20203747758E+02  0.97103410432E+01  0.12763234630E+03  0.12509076680E+03 0.  0.
         23    2    1    2    0    0 -0.11825131564E+02 -0.20203747758E+02 -0.64541817950E+02  0.11252812425E+03  0.89156644861E+02 0.  0.
          5    1    3    3  502    0 -0.14885735167E+02 -0.44260482972E+02  0.28984963516E+02  0.55119651436E+02  0.41800000000E+01 0.  1.
         -5    1    3    3    0  502  0.26710866731E+02  0.64464230730E+02 -0.19274622473E+02  0.72512694865E+02  0.41800000000E+01 0.  1.
        -11    1    4    4    0    0 -0.27786490973E+02 -0.75632686355E+01  0.13549792204E+02  0.31825916826E+02  0.00000000000E+00 0. -1.
         11    1    4    4    0    0  0.15961359409E+02 -0.12640479123E+02 -0.78091610154E+02  0.80702207424E+02  0.00000000000E+00 0.  1.
</event>
<event>
 8    1  0.7168478E-009  0.1114621E+03  0.7561462E-02  0.1257886E+00
         -1   -1    0    0    0  501 -0.00000000000E+00  0.00000000000E+00  0.59331446933E+02  0.59331446933E+02  0.00000000000E+00 0.  1.
          1   -1    0    0  501    0  0.00000000000E+00 -0.00000000000E+00 -0.53593149262E+03  0.53593149262E+03  0.00000000000E+00 0. -1.
         25    2    1    2    0    0  0.60526744130E+02 -0.30251874272E+02 -0.45969440417E+03  0.48119178993E+03  0.12509168964E+03 0.  0.
         23    2    1    2    0    0 -0.60526744130E+02  0.30251874272E+02 -0.16905641515E+02  0.11407114962E+03  0.90264964462E+02 0.  0.
          5    1    3    3  502    0 -0.32247016464E+02 -0.33316592581E+02 -0.11187511868E+03  0.12117499739E+03  0.41800000000E+01 0. -1.
         -5    1    3    3    0  502  0.92773760594E+02  0.30647183087E+01 -0.34781928549E+03  0.36001679254E+03  0.41800000000E+01 0. -1.
        -11    1    4    4    0    0 -0.84456082760E+01 -0.13168551507E+02  0.28468122041E+02  0.32483426859E+02  0.00000000000E+00 0.  1.
         11    1    4    4    0    0 -0.52081135854E+02  0.43420425779E+02 -0.45373763556E+02  0.81587722764E+02  0.00000000000E+00 0. -1.
</event>
<event>
 8    1  0.7168478E-009  0.1048482E+03  0.7561462E-02  0.1270419E+00
          2   -1    0    0  501    0  0.00000000000E+00  0.00000000000E+00  0.54362088341E+03  0.54362088341E+03  0.00000000000E+00 0. -1.
         -2   -1    0    0    0  501 -0.00000000000E+00 -0.00000000000E+00 -0.22011221495E+02  0.22011221495E+02  0.00000000000E+00 0.  1.
         25    2    1    2    0    0 -0.63205990665E+01 -0.15550070276E+02  0.28523126041E+03  0.31190735609E+03  0.12509025625E+03 0.  0.
         23    2    1    2    0    0  0.63205990665E+01  0.15550070276E+02  0.23637840150E+03  0.25372474881E+03  0.90662808291E+02 0.  0.
          5    1    3    3  502    0 -0.33936273267E+02 -0.59189268842E+02  0.20768474800E+03  0.21864461379E+03  0.41800000000E+01 0.  1.
         -5    1    3    3    0  502  0.27615674201E+02  0.43639198565E+02  0.77546512414E+02  0.93262742296E+02  0.41800000000E+01 0.  1.
        -11    1    4    4    0    0 -0.40453357809E+02  0.13728120928E+02  0.82792598191E+02  0.93164101335E+02  0.00000000000E+00 0.  1.
         11    1    4    4    0    0  0.46773956876E+02  0.18219493482E+01  0.15358580331E+03  0.16056064748E+03  0.00000000000E+00 0. -1.
</event>
<event>
 8    1  0.7168478E-009  0.1258648E+03  0.7561462E-02  0.1233724E+00
          3   -1    0    0  501    0  0.00000000000E+00  0.00000000000E+00  0.49551990159E+03  0.49551990159E+03  0.00000000000E+00 0. -1.
         -3   -1    0    0    0  501 -0.00000000000E+00 -0.00000000000E+00 -0.41636418754E+02  0.41636418754E+02  0.00000000000E+00 0.  1.
         25    2    1    2    0    0 -0.89909953888E+02 -0.24779551110E+02  0.26716891716E+03  0.30939354898E+03  0.12508921573E+03 0.  0.
         23    2    1    2    0    0  0.89909953888E+02  0.24779551110E+02  0.18671456568E+03  0.22776277137E+03  0.91190597231E+02 0.  0.
          5    1    3    3  502    0 -0.46946782221E+02 -0.52221268668E+02  0.24270504648E+03  0.25269403090E+03  0.41800000000E+01 0.  1.
         -5    1    3    3    0  502 -0.42963171667E+02  0.27441717558E+02  0.24463870673E+02  0.56699518080E+02  0.41800000000E+01 0.  1.
        -11    1    4    4    0    0 -0.70673825877E+01  0.32205924064E+02  0.41895980571E+02  0.53314563015E+02  0.00000000000E+00 0. -1.
         11    1    4    4    0    0  0.96977336476E+02 -0.74263729532E+01  0.14481858511E+03  0.17444820836E+03  0.00000000000E+00 0.  1.
</event>
<event>
 8    1  0.7168478E-009  0.9217310E+02  0.7561462E-02  0.1297673E+00
         -1   -1    0    0    0  501 -0.00000000000E+00  0.00000000000E+00  0.56453690847E+03  0.56453690847E+03  0.00000000000E+00 0.  1.
          1   -1    0    0  501    0  0.00000000000E+00 -0.00000000000E+00 -0.23040098138E+02  0.23040098138E+02  0.00000000000E+00 0. -1.
         25    2    1    2    0    0 -0.28410248279E+02 -0.17488829891E+02  0.24475477021E+03  0.27688555955E+03  0.12509082369E+03 0.  0.
         23    2    1    2    0    0  0.28410248279E+02  0.17488829891E+02  0.29674204012E+03  0.31069144705E+03  0.85792397787E+02 0.  0.
          5    1    3    3  502    0 -0.43853569682E+02  0.27893188503E+02  0.37775989112E+02  0.64386825455E+02  0.41800000000E+01 0. -1.
         -5    1    3    3    0  502  0.15443321404E+02 -0.45382018394E+02  0.20697878109E+03  0.21249873410E+03  0.41800000000E+01 0. -1.
        -11    1    4    4    0    0  0.32551611143E+01  0.45970871384E+02  0.22324154129E+03  0.22794890403E+03  0.00000000000E+00 0.  1.
         11    1    4    4    0    0  0.25155087164E+02 -0.28482041493E+02  0.73500498831E+02  0.82742543025E+02  0.00000000000E+00 0. -1.
</event>
<event>
 8    1  0.7168478E-009  0.7680025E+02  0.7561462E-02  0.1338385E+00
         -3   -1    0    0    0  501 -0.00000000000E+00  0.00000000000E+00  0.11341370228E+03  0.11341370228E+03  0.00000000000E+00 0.  1.
          3   -1    0    0  501    0  0.00000000000E+00 -0.00000000000E+00 -0.12418571038E+03  0.12418571038E+03  0.00000000000E+00 0. -1.
         25    2    1    2    0    0  0.37399505782E+02  0.29278542200E+02  0.92738139714E+01  0.13411969756E+03  0.12508450577E+03 0.  0.
         23    2    1    2    0    0 -0.37399505782E+02 -0.29278542200E+02 -0.20045822071E+02  0.10347971510E+03  0.89723243297E+02 0.  0.
          5    1    3    3  502    0  0.42508369707E+02  0.21289433282E+02 -0.52808283955E+02  0.71178569239E+02  0.41800000000E+01 0. -1.
         -5    1    3    3    0  502 -0.51088639246E+01  0.79891089180E+01  0.62082097927E+02  0.62941128326E+02  0.41800000000E+01 0. -1.
        -11    1    4    4    0    0 -0.63458054811E+02 -0.28171215188E+02 -0.29904728500E+02  0.75596526853E+02  0.00000000000E+00 0. -1.
         11    1    4    4    0    0  0.26058549029E+02 -0.11073270121E+01  0.98589064298E+01  0.27883188243E+02  0.00000000000E+00 0.  1.
</event>
<event>
 8    1  0.7168478E-009  0.1000128E+03  0.7561462E-02  0.1280269E+00
          2   -1    0    0  501    0  0.00000000000E+00  0.00000000000E+00  0.10839630663E+03  0.10839630663E+03  0.00000000000E+00 0. -1.
         -2   -1    0    0    0  501 -0.00000000000E+00 -0.00000000000E+00 -0.16819389244E+03  0.16819389244E+03  0.00000000000E+00 0.  1.
         25    2    1    2    0    0  0.29385603977E+02 -0.22555627756E+02  0.39467652032E+02  0.13630437907E+03  0.12509563594E+03 0.  0.
         23    2    1    2    0    0 -0.29385603977E+02  0.22555627756E+02 -0.99265237838E+02  0.14028582001E+03  0.91947016196E+02 0.  0.
          5    1    3    3  502    0 -0.47797426315E+02  0.16184974010E+01  0.24671842655E+02  0.53975788240E+02  0.41800000000E+01 0. -1.
         -5    1    3    3    0  502  0.77183030292E+02 -0.24174125157E+02  0.14795809377E+02  0.82328590826E+02  0.41800000000E+01 0. -1.
        -11    1    4    4    0    0 -0.36794641423E+01 -0.20530929075E+02 -0.85854910472E+02  0.88352267415E+02  0.00000000000E+00 0.  1.
         11    1    4    4    0    0 -0.25706139835E+02  0.43086556831E+02 -0.13410327366E+02  0.51933552592E+02  0.00000000000E+00 0. -1.
</event>
<event>
 8    1  0.7168478E-009  0.3678335E+03  0.7561462E-02  0.1055524E+00
         -1   -1    0    0    0  501 -0.00000000000E+00  0.00000000000E+00  0.63168856773E+03  0.63168856773E+03  0.00000000000E+00 0.  1.
          1   -1    0    0  501    0  0.00000000000E+00 -0.00000000000E+00 -0.27003207720E+03  0.27003207720E+03  0.00000000000E+00 0. -1.
         25    2    1    2    0    0  0.36298988108E+03 -0.22111175573E+02  0.35963572253E+03  0.52653153914E+03  0.12508817264E+03 0.  0.
         23    2    1    2    0    0 -0.36298988108E+03  0.22111175573E+02  0.20207679991E+01  0.37518910580E+03  0.92261713355E+02 0.  0.
          5    1    3    3  502    0  0.30643160160E+03 -0.17583489411E+02  0.35520661213E+03  0.46946641547E+03  0.41800000000E+01 0.  1.
         -5    1    3    3    0  502  0.56558279487E+02 -0.45276861619E+01  0.44291104053E+01  0.57065123670E+02  0.41800000000E+01 0.  1.
        -11    1    4    4    0    0 -0.33452398460E+03  0.41905030141E+02 -0.13033997366E+02  0.33739029760E+03  0.00000000000E+00 0. -1.
         11    1    4    4    0    0 -0.28465896481E+02 -0.19793854568E+02  0.15054765365E+02  0.37798808200E+02  0.00000000000E+00 0.  1.
</event>
<event>
 8    1  0.7168478E-009  0.6402757E+02  0.7561462E-02  0.1381667E+00
          1   -1    0    0  501    0  0.00000000000E+00  0.00000000000E+00  0.80747724295E+03  0.80747724295E+03  0.00000000000E+00 0. -1.
         -1   -1    0    0    0  501 -0.00000000000E+00 -0.00000000000E+00 -0.19173994298E+02  0.19173994298E+02  0.00000000000E+00 0.  1.
         25    2    1    2    0    0 -0.21202886083E+02 -0.19338475612E+02  0.61966932973E+03  0.63282016563E+03  0.12509094612E+03 0.  0.
         23    2    1    2    0    0  0.21202886083E+02  0.19338475612E+02  0.16863391893E+03  0.19383107162E+03  0.91156715042E+02 0.  0.
          5    1    3    3  502    0 -0.16103008768E+02 -0.43772689431E+02  0.81039516936E+02  0.93596105349E+02  0.41800000000E+01 0.  1.
         -5    1    3    3    0  502 -0.50998773154E+01  0.24434213818E+02  0.53862981279E+03  0.53922406028E+03  0.41800000000E+01 0.  1.
        -11    1    4    4    0    0 -0.65959998104E+00  0.31091007058E+02  0.16598033701E+03  0.16886846380E+03  0.00000000000E+00 0. -1.
         11    1    4    4    0    0  0.21862486064E+02 -0.11752531446E+02  0.26535819138E+01  0.24962607822E+02  0.00000000000E+00 0.  1.
</event>
<event>
 8    1  0.7168478E-009  0.1244021E+03  0.7561462E-02  0.1236007E+00
         -3   -1    0    0    0  501 -0.00000000000E+00  0.00000000000E+00  0.45831710038E+03  0.45831710038E+03  0.00000000000E+00 0.  1.
          3   -1    0    0  501    0  0.00000000000E+00 -0.00000000000E+00 -0.41658329603E+02  0.41658329603E+02  0.00000000000E+00 0. -1.
         25    2    1    2    0    0  0.11591347150E+02  0.73795878086E+02  0.15897557597E+03  0.21564007831E+03  0.12508884310E+03 0.  0.
         23    2    1    2    0    0 -0.11591347150E+02 -0.73795878086E+02  0.25768319481E+03  0.28433535167E+03  0.94158230502E+02 0.  0.
          5    1    3    3  502    0  0.59807065463E+02  0.37065775166E+02  0.37552689976E+02  0.79865096835E+02  0.41800000000E+01 0.  1.
         -5    1    3    3    0  502 -0.48215718313E+02  0.36730102920E+02  0.12142288599E+03  0.13577498148E+03  0.41800000000E+01 0.  1.
        -11    1    4    4    0    0 -0.21822084077E+02  0.16079615282E+02  0.87549637376E+02  0.91649857533E+02  0.00000000000E+00 0.  1.
         11    1    4    4    0    0  0.10230736927E+02 -0.89875493368E+02  0.17013355744E+03  0.19268549414E+03  0.00000000000E+00 0. -1.
</event>
<event>
 8    1  0.7168478E-009  0.1034520E+03  0.7561462E-02  0.1273200E+00
          2   -1    0    0  501    0  0.00000000000E+00  0.00000000000E+00  0.15430435557E+03  0.15430435557E+03  0.00000000000E+00 0. -1.
         -2   -1    0    0    0  501 -0.00000000000E+00 -0.00000000000E+00 -0.15220195590E+03  0.15220195590E+03  0.00000000000E+00 0.  1.
         25    2    1    2    0    0 -0.65226526758E+02  0.27838603432E+01  0.85237975222E+02  0.16484572099E+03  0.12508536940E+03 0.  0.
         23    2    1    2    0    0  0.65226526758E+02 -0.27838603432E+01 -0.83135575547E+02  0.14166059048E+03  0.94307737241E+02 0.  0.
          5    1    3    3  502    0  0.34027242539E+02 -0.10120556270E+01  0.63300218988E+00  0.34303798378E+02  0.41800000000E+01 0. -1.
         -5    1    3    3    0  502 -0.99253769297E+02  0.37959159702E+01  0.84604973032E+02  0.13054192261E+03  0.41800000000E+01 0. -1.
        -11    1    4    4    0    0  0.29697302538E+02  0.15210186909E+02  0.14374858965E+02  0.36330650064E+02  0.00000000000E+00 0. -1.
         11    1    4    4    0    0  0.35529224220E+02 -0.17994047252E+02 -0.97510434512E+02  0.10532994042E+03  0.00000000000E+00 0.  1.
</event>
<event>
 8    1  0.7168478E-009  0.1033719E+03  0.7561462E-02  0.1273361E+00
         -1   -1    0    0    0  501 -0.00000000000E+00  0.00000000000E+00  0.17108767999E+02  0.17108767999E+02  0.00000000000E+00 0.  1.
          1   -1    0    0  501    0  0.00000000000E+00 -0.00000000000E+00 -0.14377760634E+04  0.14377760634E+04  0.00000000000E+00 0. -1.
         25    2    1    2    0    0  0.87236917725E+02  0.26172783567E+02 -0.10787105331E+04  0.10897531872E+04  0.12510116116E+03 0.  0.
         23    2    1    2    0    0 -0.87236917725E+02 -0.26172783567E+02 -0.34195676229E+03  0.36513164412E+03  0.89952186462E+02 0.  0.
          5    1    3    3  502    0  0.13721504436E+02 -0.15654605939E+02 -0.75028299731E+03  0.75058336967E+03  0.41800000000E+01 0. -1.
         -5    1    3    3    0  502  0.73515413288E+02  0.41827389506E+02 -0.32842753576E+03  0.33916981757E+03  0.41800000000E+01 0. -1.
        -11    1    4    4    0    0 -0.45458891124E+02  0.88476932611E+01 -0.50095344044E+02  0.68222693828E+02  0.00000000000E+00 0.  1.
         11    1    4    4    0    0 -0.41778026601E+02 -0.35020476828E+02 -0.29186141824E+03  0.29690895029E+03  0.00000000000E+00 0. -1.
</event>
<event>
 8    1  0.7168478E-009  0.1135606E+03  0.7561462E-02  0.1254115E+00
         -2   -1    0    0    0  501 -0.00000000000E+00  0.00000000000E+00  0.23266278331E+02  0.23266278331E+02  0.00000000000E+00 0.  1.
          2   -1    0    0  501    0  0.00000000000E+00 -0.00000000000E+00 -0.69333688050E+03  0.69333688050E+03  0.00000000000E+00 0. -1.
         25    2    1    2    0    0 -0.64100695822E+02  0.20292561451E+02 -0.41062738986E+03  0.43449213079E+03  0.12509145119E+03 0.  0.
         23    2    1    2    0    0  0.64100695822E+02 -0.20292561451E+02 -0.25944321231E+03  0.28211102804E+03  0.88063411660E+02 0.  0.
          5    1    3    3  502    0 -0.93103240550E+02 -0.15757098990E+02 -0.29898438651E+03  0.31356918750E+03  0.41800000000E+01 0. -1.
         -5    1    3    3    0  502  0.29002544728E+02  0.36049660442E+02 -0.11164300335E+03  0.12092294330E+03  0.41800000000E+01 0. -1.
        -11    1    4    4    0    0 -0.47819821215E+01  0.98550575280E+01  0.10299135976E+01  0.11002283123E+02  0.00000000000E+00 0.  1.
         11    1    4    4    0    0  0.68882677943E+02 -0.30147618979E+02 -0.26047312591E+03  0.27110874492E+03  0.00000000000E+00 0. -1.
</event>
<event>
 8    1  0.7168478E-009  0.8800465E+02  0.7561462E-02  0.1307757E+00
         -2   -1    0    0    0  501 -0.00000000000E+00  0.00000000000E+00  0.43543588885E+02  0.43543588885E+02  0.00000000000E+00 0.  1.
          2   -1    0    0  501    0  0.00000000000E+00 -0.00000000000E+00 -0.59054448339E+03  0.59054448339E+03  0.00000000000E+00 0. -1.
         25    2    1    2    0    0  0.22032300283E+02  0.33822367083E+02 -0.51260347852E+03  0.52918757514E+03  0.12509112167E+03 0.  0.
         23    2    1    2    0    0 -0.22032300283E+02 -0.33822367083E+02 -0.34397415985E+02  0.10490049714E+03  0.90507222375E+02 0.  0.
          5    1    3    3  502    0 -0.43178598832E+00 -0.46341316530E+02 -0.14639646517E+03  0.15361348076E+03  0.41800000000E+01 0. -1.
         -5    1    3    3    0  502  0.22464086272E+02  0.80163683613E+02 -0.36620701335E+03  0.37557409438E+03  0.41800000000E+01 0. -1.
        -11    1    4    4    0    0 -0.33985685389E+00 -0.20835814650E+02 -0.63216854423E+02  0.66562882735E+02  0.00000000000E+00 0. -1.
         11    1    4    4    0    0 -0.21692443429E+02 -0.12986552433E+02  0.28819438438E+02  0.38337614401E+02  0.00000000000E+00 0.  1.
</event>
<event>
 8    1  0.7168478E-009  0.1481960E+03  0.7561462E-02  0.1202707E+00
         -1   -1    0    0    0  501 -0.00000000000E+00  0.00000000000E+00  0.24597322834E+02  0.24597322834E+02  0.00000000000E+00 0.  1.
          1   -1    0    0  501    0  0.00000000000E+00 -0.00000000000E+00 -0.10989044822E+04  0.10989044822E+04  0.00000000000E+00 0. -1.
         25    2    1    2    0    0 -0.10370464671E+03  0.64000295767E+02 -0.50040823545E+03  0.53000655278E+03  0.12509137571E+03 0.  0.
         23    2    1    2    0    0  0.10370464671E+03 -0.64000295767E+02 -0.57389892392E+03  0.59349525225E+03  0.89587655219E+02 0.  0.
          5    1    3    3  502    0 -0.60545520479E+02 -0.82795370163E+01 -0.36788558040E+03  0.37294984039E+03  0.41800000000E+01 0. -1.
         -5    1    3    3    0  502 -0.43159126235E+02  0.72279832783E+02 -0.13252265505E+03  0.15705671239E+03  0.41800000000E+01 0. -1.
        -11    1    4    4    0    0  0.11628105542E+03 -0.38620708975E+02 -0.44835260434E+03  0.46479339586E+03  0.00000000000E+00 0.  1.
         11    1    4    4    0    0 -0.12576408706E+02 -0.25379586792E+02 -0.12554631957E+03  0.12870185640E+03  0.00000000000E+00 0. -1.
</event>
<event>
 8    1  0.7168478E-009  0.1350686E+03  0.7561462E-02  0.1220123E+00
         -2   -1    0    0    0  501 -0.00000000000E+00  0.00000000000E+00  0.21321062811E+02  0.21321062811E+02  0.00000000000E+00 0.  1.
          2   -1    0    0  501    0  0.00000000000E+00 -0.00000000000E+00 -0.18033847065E+04  0.18033847065E+04  0.00000000000E+00 0. -1.
         25    2    1    2    0    0  0.31865111861E+02 -0.12777405793E+03 -0.13836384332E+04  0.13955092356E+04  0.12509643305E+03 0.  0.
         23    2    1    2    0    0 -0.31865111861E+02  0.12777405793E+03 -0.39842521043E+03  0.42919653366E+03  0.90141116952E+02 0.  0.
          5    1    3    3  502    0  0.35923577347E+02 -0.64198268552E+02 -0.26508401311E+03  0.27513438081E+03  0.41800000000E+01 0.  1.
         -5    1    3    3    0  502 -0.40584654862E+01 -0.63575789381E+02 -0.11185544201E+04  0.11203748548E+04  0.41800000000E+01 0.  1.
        -11    1    4    4    0    0 -0.99641141903E+01  0.17107999003E+02 -0.57188224645E+01  0.20607574623E+02  0.00000000000E+00 0.  1.
         11    1    4    4    0    0 -0.21900997671E+02  0.11066605893E+03 -0.39270638797E+03  0.40858895904E+03  0.00000000000E+00 0. -1.
</event>
<event>
 8    1  0.7168478E-009  0.1453780E+03  0.7561462E-02  0.1206270E+00
         -1   -1    0    0    0  501 -0.00000000000E+00  0.00000000000E+00  0.73395566100E+03  0.73395566100E+03  0.00000000000E+00 0.  1.
          1   -1    0    0  501    0  0.00000000000E+00 -0.00000000000E+00 -0.33047883112E+02  0.33047883112E+02  0.00000000000E+00 0. -1.
         25    2    1    2    0    0 -0.40684114204E+02  0.94122378602E+02  0.27118241683E+03  0.31575704043E+03  0.12509350936E+03 0.  0.
         23    2    1    2    0    0  0.40684114204E+02 -0.94122378602E+02  0.42972536105E+03  0.45124650367E+03  0.91898323400E+02 0.  0.
          5    1    3    3  502    0  0.28831267677E+01  0.11149890209E+03  0.21661522008E+03  0.24368000237E+03  0.41800000000E+01 0. -1.
         -5    1    3    3    0  502 -0.43567240971E+02 -0.17376523486E+02  0.54567196753E+02  0.72077038062E+02  0.41800000000E+01 0. -1.
        -11    1    4    4    0    0 -0.59922911301E+00 -0.90617164295E+02  0.22876216581E+03  0.24605681873E+03  0.00000000000E+00 0.  1.
         11    1    4    4    0    0  0.41283343317E+02 -0.35052143073E+01  0.20096319524E+03  0.20518968494E+03  0.00000000000E+00 0. -1.
</event>
<event>
 8    1  0.7168478E-009  0.9125627E+02  0.7561462E-02  0.1299838E+00
         -1   -1    0    0    0  501 -0.00000000000E+00  0.00000000000E+00  0.38348469431E+03  0.38348469431E+03  0.00000000000E+00 0.  1.
          1   -1    0    0  501    0  0.00000000000E+00 -0.00000000000E+00 -0.35755908685E+02  0.35755908685E+02  0.00000000000E+00 0. -1.
         25    2    1    2    0    0 -0.19189643083E+02  0.27719073293E+02  0.18179862965E+03  0.22323959314E+03  0.12509430354E+03 0.  0.
         23    2    1    2    0    0  0.19189643083E+02 -0.27719073293E+02  0.16593015598E+03  0.19600100986E+03  0.98726844248E+02 0.  0.
          5    1    3    3  502    0  0.36484603251E+02 -0.25898953159E+02  0.10493650092E+03  0.11415350925E+03  0.41800000000E+01 0.  1.
         -5    1    3    3    0  502 -0.55674246334E+02  0.53618026453E+02  0.76862128722E+02  0.10908608388E+03  0.41800000000E+01 0.  1.
        -11    1    4    4    0    0 -0.13801055499E+02 -0.23025072909E+02  0.15989892705E+03  0.16213663986E+03  0.00000000000E+00 0.  1.
         11    1    4    4    0    0  0.32990698582E+02 -0.46940003837E+01  0.60312289329E+01  0.33864369992E+02  0.00000000000E+00 0. -1.
</event>
<event>
 8    1  0.7168478E-009  0.1970145E+03  0.7561462E-02  0.1152283E+00
          2   -1    0    0  501    0  0.00000000000E+00  0.00000000000E+00  0.23294714174E+03  0.23294714174E+03  0.00000000000E+00 0. -1.
         -2   -1    0    0    0  501 -0.00000000000E+00 -0.00000000000E+00 -0.20754145072E+03  0.20754145072E+03  0.00000000000E+00 0.  1.
         25    2    1    2    0    0  0.65437302071E+02 -0.16570764966E+03 -0.54625830546E+02  0.22443885003E+03  0.12509096842E+03 0.  0.
         23    2    1    2    0    0 -0.65437302071E+02  0.16570764966E+03  0.80031521564E+02  0.21604974244E+03  0.92365475733E+02 0.  0.
          5    1    3    3  502    0 -0.19696869439E+02 -0.10364075380E+03 -0.54898010487E+02  0.11899847255E+03  0.41800000000E+01 0.  1.
         -5    1    3    3    0  502  0.85134171510E+02 -0.62066895863E+02  0.27217994057E+00  0.10544037748E+03  0.41800000000E+01 0.  1.
        -11    1    4    4    0    0 -0.43710450034E+00  0.52253672275E+02 -0.15049684338E+02  0.54379502805E+02  0.00000000000E+00 0.  1.
         11    1    4    4    0    0 -0.65000197571E+02  0.11345397738E+03  0.95081205902E+02  0.16167023964E+03  0.00000000000E+00 0. -1.
</event>
<event>
 8    1  0.7168478E-009  0.1365747E+03  0.7561462E-02  0.1218014E+00
         -1   -1    0    0    0  501 -0.00000000000E+00  0.00000000000E+00  0.20399697143E+02  0.20399697143E+02  0.00000000000E+00 0.  1.
          1   -1    0    0  501    0  0.00000000000E+00 -0.00000000000E+00 -0.14031243417E+04  0.14031243417E+04  0.00000000000E+00 0. -1.
         25    2    1    2    0    0 -0.38816782612E+02 -0.93082855604E+02 -0.10702305440E+04  0.10822247182E+04  0.12508302340E+03 0.  0.
         23    2    1    2    0    0  0.38816782612E+02  0.93082855604E+02 -0.31249410061E+03  0.34129932070E+03  0.93067194945E+02 0.  0.
          5    1    3    3  502    0 -0.11000657380E+02 -0.12020647407E+03 -0.85284342803E+03  0.86135358362E+03  0.41800000000E+01 0.  1.
         -5    1    3    3    0  502 -0.27816125232E+02  0.27123618462E+02 -0.21738711596E+03  0.22087113457E+03  0.41800000000E+01 0.  1.
        -11    1    4    4    0    0  0.54490037874E+01  0.75272009256E+02 -0.99024436253E+02  0.12450464246E+03  0.00000000000E+00 0.  1.
         11    1    4    4    0    0  0.33367778824E+02  0.17810846348E+02 -0.21346966436E+03  0.21679467824E+03  0.00000000000E+00 0. -1.
</event>
<event>
 8    1  0.7168478E-009  0.1416658E+03  0.7561462E-02  0.1211105E+00
          3   -1    0    0  501    0  0.00000000000E+00  0.00000000000E+00  0.40236370271E+03  0.40236370271E+03  0.00000000000E+00 0. -1.
         -3   -1    0    0    0  501 -0.00000000000E+00 -0.00000000000E+00 -0.83263973812E+02  0.83263973812E+02  0.00000000000E+00 0.  1.
         25    2    1    2    0    0 -0.61291911551E+02 -0.87725067797E+02  0.35452640204E+02  0.16839599750E+03  0.12509171169E+03 0.  0.
         23    2    1    2    0    0  0.61291911551E+02  0.87725067797E+02  0.28364708869E+03  0.31723167902E+03  0.93423130492E+02 0.  0.
          5    1    3    3  502    0 -0.58628342308E+02 -0.10773043993E+03  0.59783718537E+02  0.13650895799E+03  0.41800000000E+01 0.  1.
         -5    1    3    3    0  502 -0.26635692429E+01  0.20005372137E+02 -0.24331078333E+02  0.31887039504E+02  0.41800000000E+01 0.  1.
        -11    1    4    4    0    0  0.73393619290E+01 -0.19024236434E+02  0.63453520978E+02  0.66649359561E+02  0.00000000000E+00 0. -1.
         11    1    4    4    0    0  0.53952549622E+02  0.10674930423E+03  0.22019356771E+03  0.25058231946E+03  0.00000000000E+00 0.  1.
</event>
<event>
 8    1  0.7168478E-009  0.1270791E+03  0.7561462E-02  0.1231855E+00
          1   -1    0    0  501    0  0.00000000000E+00  0.00000000000E+00  0.52022262368E+03  0.52022262368E+03  0.00000000000E+00 0. -1.
         -1   -1    0    0    0  501 -0.00000000000E+00 -0.00000000000E+00 -0.37507858895E+02  0.37507858895E+02  0.00000000000E+00 0.  1.
         25    2    1    2    0    0  0.46351207430E+02 -0.73605413065E+02  0.26668175711E+03  0.30713451913E+03  0.12508501912E+03 0.  0.
         23    2    1    2    0    0 -0.46351207430E+02  0.73605413065E+02  0.21603300768E+03  0.25059596344E+03  0.92530455657E+02 0.  0.
          5    1    3    3  502    0  0.55652806746E+02  0.16620864132E+02  0.74294826310E+02  0.94396406921E+02  0.41800000000E+01 0.  1.
         -5    1    3    3    0  502 -0.93015993162E+01 -0.90226277197E+02  0.19238693080E+03  0.21273811221E+03  0.41800000000E+01 0.  1.
        -11    1    4    4    0    0  0.14277732310E+02  0.16740602743E+02  0.12660398055E+03  0.12850163155E+03  0.00000000000E+00 0. -1.
         11    1    4    4    0    0 -0.60628939739E+02  0.56864810323E+02  0.89429027131E+02  0.12209433189E+03  0.00000000000E+00 0.  1.
</event>
<event>
 8    1  0.7168478E-009  0.1377415E+03  0.7561462E-02  0.1216401E+00
         -1   -1    0    0    0  501 -0.00000000000E+00  0.00000000000E+00  0.18936470232E+03  0.18936470232E+03  0.00000000000E+00 0.  1.
          1   -1    0    0  501    0  0.00000000000E+00 -0.00000000000E+00 -0.10509640239E+03  0.10509640239E+03  0.00000000000E+00 0. -1.
         25    2    1    2    0    0  0.42890672328E+02 -0.69722809634E+02  0.16133034134E+02  0.15036525267E+03  0.12509418238E+03 0.  0.
         23    2    1    2    0    0 -0.42890672328E+02  0.69722809634E+02  0.68135265798E+02  0.14409585203E+03  0.97058333859E+02 0.  0.
          5    1    3    3  502    0 -0.38040583067E+02  0.48415417577E+01  0.11043220469E+02  0.40124202235E+02  0.41800000000E+01 0.  1.
         -5    1    3    3    0  502  0.80931255395E+02 -0.74564351391E+02  0.50898136652E+01  0.11024105044E+03  0.41800000000E+01 0.  1.
        -11    1    4    4    0    0  0.25684500841E+02 -0.41183928801E+01  0.10901135550E+02  0.28204423405E+02  0.00000000000E+00 0.  1.
         11    1    4    4    0    0 -0.68575173169E+02  0.73841202514E+02  0.57234130248E+02  0.11589142863E+03  0.00000000000E+00 0. -1.
</event>
<event>
 8    1  0.7168478E-009  0.1538797E+03  0.7561462E-02  0.1195785E+00
         -1   -1    0    0    0  501 -0.00000000000E+00  0.00000000000E+00  0.13202540523E+03  0.13202540523E+03  0.00000000000E+00 0.  1.
          1   -1    0    0  501    0  0.00000000000E+00 -0.00000000000E+00 -0.26563124253E+03  0.26563124253E+03  0.00000000000E+00 0. -1.
         25    2    1    2    0    0  0.82767436461E+02 -0.76914211713E+02  0.38169039271E+02  0.17283513616E+03  0.12509542050E+03 0.  0.
         23    2    1    2    0    0 -0.82767436461E+02  0.76914211713E+02 -0.17177487657E+03  0.22482151161E+03  0.90949762832E+02 0.  0.
          5    1    3    3  502    0  0.33976115205E+02 -0.10613785982E+03  0.24024928174E+02  0.11408019664E+03  0.41800000000E+01 0.  1.
         -5    1    3    3    0  502  0.48791321256E+02  0.29223648111E+02  0.14144111097E+02  0.58754939516E+02  0.41800000000E+01 0.  1.
        -11    1    4    4    0    0 -0.91171339403E+02  0.36953342654E+02 -0.14756121628E+03  0.17734732931E+03  0.00000000000E+00 0. -1.
         11    1    4    4    0    0  0.84039029422E+01  0.39960869058E+02 -0.24213660289E+02  0.47474182301E+02  0.00000000000E+00 0.  1.
</event>
<event>
 8    1  0.7168478E-009  0.9865358E+02  0.7561462E-02  0.1283153E+00
         -2   -1    0    0    0  501 -0.00000000000E+00  0.00000000000E+00  0.30173849243E+02  0.30173849243E+02  0.00000000000E+00 0.  1.
          2   -1    0    0  501    0  0.00000000000E+00 -0.00000000000E+00 -0.67205402020E+03  0.67205402020E+03  0.00000000000E+00 0. -1.
         25    2    1    2    0    0  0.25148192740E+02  0.42805948686E+02 -0.53938771830E+03  0.55592523646E+03  0.12509587139E+03 0.  0.
         23    2    1    2    0    0 -0.25148192740E+02 -0.42805948686E+02 -0.10249245266E+03  0.14630263298E+03  0.91842129359E+02 0.  0.
          5    1    3    3  502    0  0.65248477901E+02  0.61846535081E+02 -0.36157068772E+03  0.37260326406E+03  0.41800000000E+01 0. -1.
         -5    1    3    3    0  502 -0.40100285161E+02 -0.19040586395E+02 -0.17781703059E+03  0.18332197241E+03  0.41800000000E+01 0. -1.
        -11    1    4    4    0    0 -0.43364494099E+01 -0.41651707571E+02 -0.11472883340E+03  0.12213261133E+03  0.00000000000E+00 0. -1.
         11    1    4    4    0    0 -0.20811743330E+02 -0.11542411153E+01  0.12236380743E+02  0.24170021653E+02  0.00000000000E+00 0.  1.
</event>
<event>
 8    1  0.7168478E-009  0.9935113E+02  0.7561462E-02  0.1281666E+00
          2   -1    0    0  501    0  0.00000000000E+00  0.00000000000E+00  0.75713727587E+02  0.75713727587E+02  0.00000000000E+00 0. -1.
         -2   -1    0    0    0  501 -0.00000000000E+00 -0.00000000000E+00 -0.16881547649E+03  0.16881547649E+03  0.00000000000E+00 0.  1.
         25    2    1    2    0    0  0.26565238380E+02 -0.83629383584E+01 -0.68176294872E+02  0.14515626297E+03  0.12508670141E+03 0.  0.
         23    2    1    2    0    0 -0.26565238380E+02  0.83629383584E+01 -0.24925454032E+02  0.99372941107E+02  0.92076340812E+02 0.  0.
          5    1    3    3  502    0  0.49753155716E+02 -0.52223932298E+02 -0.61578481403E+02  0.94932067186E+02  0.41800000000E+01 0. -1.
         -5    1    3    3    0  502 -0.23187917336E+02  0.43860993940E+02 -0.65978134688E+01  0.50224195785E+02  0.41800000000E+01 0. -1.
        -11    1    4    4    0    0 -0.79806673553E+01  0.39555849698E+02 -0.42867283819E+02  0.58872407109E+02  0.00000000000E+00 0.  1.
         11    1    4    4    0    0 -0.18584571025E+02 -0.31192911339E+02  0.17941829787E+02  0.40500533998E+02  0.00000000000E+00 0. -1.
</event>
<event>
 8    1  0.7168478E-009  0.1008989E+03  0.7561462E-02  0.1278417E+00
         -2   -1    0    0    0  501 -0.00000000000E+00  0.00000000000E+00  0.47129003786E+03  0.47129003786E+03  0.00000000000E+00 0.  1.
          2   -1    0    0  501    0  0.00000000000E+00 -0.00000000000E+00 -0.32311378285E+02  0.32311378285E+02  0.00000000000E+00 0. -1.
         25    2    1    2    0    0 -0.37150506280E+02 -0.43484365845E+02  0.25011177895E+03  0.28543848754E+03  0.12509267767E+03 0.  0.
         23    2    1    2    0    0  0.37150506280E+02  0.43484365845E+02  0.18886688062E+03  0.21816292861E+03  0.93023194061E+02 0.  0.
          5    1    3    3  502    0  0.19396736934E+02 -0.45211631981E+02  0.29206341952E+02  0.57365563541E+02  0.41800000000E+01 0.  1.
         -5    1    3    3    0  502 -0.56547243214E+02  0.17272661366E+01  0.22090543700E+03  0.22807292400E+03  0.41800000000E+01 0.  1.
        -11    1    4    4    0    0  0.11826199341E+02 -0.22280020300E+02  0.10796199114E+03  0.11086951712E+03  0.00000000000E+00 0.  1.
         11    1    4    4    0    0  0.25324306939E+02  0.65764386144E+02  0.80904889483E+02  0.10729341149E+03  0.00000000000E+00 0. -1.
</event>
<event>
 8    1  0.7168478E-009  0.9537248E+02  0.7561462E-02  0.1290339E+00
         -4   -1    0    0    0  501 -0.00000000000E+00  0.00000000000E+00  0.69911190692E+03  0.69911190692E+03  0.00000000000E+00 0.  1.
          4   -1    0    0  501    0  0.00000000000E+00 -0.00000000000E+00 -0.22795230481E+02  0.22795230481E+02  0.00000000000E+00 0. -1.
         25    2    1    2    0    0  0.24395293261E+01  0.63766992467E+02  0.42495734178E+03  0.44755843573E+03  0.12509048894E+03 0.  0.
         23    2    1    2    0    0 -0.24395293261E+01 -0.63766992467E+02  0.25135933466E+03  0.27434870168E+03  0.89518234793E+02 0.  0.
          5    1    3    3  502    0  0.26460850159E+02  0.49389037195E+02  0.41304346153E+03  0.41684748662E+03  0.41800000000E+01 0.  1.
         -5    1    3    3    0  502 -0.24021320833E+02  0.14377955272E+02  0.11913880250E+02  0.30710949106E+02  0.41800000000E+01 0.  1.
        -11    1    4    4    0    0  0.41262895261E+02 -0.32260199737E+02  0.15922658233E+03  0.16761996162E+03  0.00000000000E+00 0.  1.
         11    1    4    4    0    0 -0.43702424588E+02 -0.31506792730E+02  0.92132752331E+02  0.10672874006E+03  0.00000000000E+00 0. -1.
</event>
<event>
 8    1  0.7168478E-009  0.7277003E+02  0.7561462E-02  0.1350919E+00
         -2   -1    0    0    0  501 -0.00000000000E+00  0.00000000000E+00  0.44225015543E+02  0.44225015543E+02  0.00000000000E+00 0. -1.
          2   -1    0    0  501    0  0.00000000000E+00 -0.00000000000E+00 -0.37778057947E+03  0.37778057947E+03  0.00000000000E+00 0.  1.
         25    2    1    2    0    0  0.43884672137E+02  0.12900704708E+02 -0.27156344103E+03  0.30246734672E+03  0.12508997041E+03 0.  0.
         23    2    1    2    0    0 -0.43884672137E+02 -0.12900704708E+02 -0.61992122900E+02  0.11953824830E+03  0.91400639351E+02 0.  0.
          5    1    3    3  502    0  0.12102600972E+02 -0.12653889586E+01 -0.26678684863E+03  0.26709692840E+03  0.41800000000E+01 0. -1.
         -5    1    3    3    0  502  0.31782071164E+02  0.14166093666E+02 -0.47765924050E+01  0.35370418322E+02  0.41800000000E+01 0. -1.
        -11    1    4    4    0    0 -0.59108728041E+02  0.19159134065E+02 -0.55794786923E+02  0.83510313114E+02  0.00000000000E+00 0.  1.
         11    1    4    4    0    0  0.15224055904E+02 -0.32059838773E+02 -0.61973359767E+01  0.36027935182E+02  0.00000000000E+00 0. -1.
</event>
<event>
 8    1  0.7168478E-009  0.1806006E+03  0.7561462E-02  0.1167223E+00
          1   -1    0    0  501    0  0.00000000000E+00  0.00000000000E+00  0.10215499834E+04  0.10215499834E+04  0.00000000000E+00 0. -1.
         -1   -1    0    0    0  501 -0.00000000000E+00 -0.00000000000E+00 -0.32974553928E+02  0.32974553928E+02  0.00000000000E+00 0.  1.
         25    2    1    2    0    0 -0.14662284732E+03  0.17159917196E+01  0.51255336574E+03  0.54759428601E+03  0.12508934951E+03 0.  0.
         23    2    1    2    0    0  0.14662284732E+03 -0.17159917196E+01  0.47602206375E+03  0.50693025133E+03  0.94234126264E+02 0.  0.
          5    1    3    3  502    0 -0.21998033197E+02 -0.49577960939E+02  0.19852233154E+03  0.20584090020E+03  0.41800000000E+01 0. -1.
         -5    1    3    3    0  502 -0.12462481412E+03  0.51293952659E+02  0.31403103419E+03  0.34175338581E+03  0.41800000000E+01 0. -1.
        -11    1    4    4    0    0  0.48844402689E+02 -0.43716661167E+02  0.22314135560E+03  0.23257039089E+03  0.00000000000E+00 0. -1.
         11    1    4    4    0    0  0.97778444632E+02  0.42000669447E+02  0.25288070814E+03  0.27435986044E+03  0.00000000000E+00 0.  1.
</event>
<event>
 8    1  0.7168478E-009  0.1197391E+03  0.7561462E-02  0.1243528E+00
          3   -1    0    0  501    0  0.00000000000E+00  0.00000000000E+00  0.20390520441E+03  0.20390520441E+03  0.00000000000E+00 0. -1.
         -3   -1    0    0    0  501 -0.00000000000E+00 -0.00000000000E+00 -0.90859802706E+02  0.90859802706E+02  0.00000000000E+00 0.  1.
         25    2    1    2    0    0  0.54377974376E+02  0.12517318763E+02  0.12576100030E+03  0.18595048037E+03  0.12509238421E+03 0.  0.
         23    2    1    2    0    0 -0.54377974376E+02 -0.12517318763E+02 -0.12715598597E+02  0.10881452675E+03  0.92548729959E+02 0.  0.
          5    1    3    3  502    0  0.53808889574E+02  0.61988498732E+02  0.52771140889E+02  0.97674133132E+02  0.41800000000E+01 0. -1.
         -5    1    3    3    0  502  0.56908480169E+00 -0.49471179969E+02  0.72989859415E+02  0.88276347243E+02  0.41800000000E+01 0. -1.
        -11    1    4    4    0    0 -0.59904014485E+02  0.28436699897E+02 -0.30883737834E+01  0.66382790730E+02  0.00000000000E+00 0. -1.
         11    1    4    4    0    0  0.55260401089E+01 -0.40954018661E+02 -0.96272248136E+01  0.42431736016E+02  0.00000000000E+00 0.  1.
</event>
<event>
 8    1  0.7168478E-009  0.1696431E+03  0.7561462E-02  0.1178221E+00
          1   -1    0    0  501    0  0.00000000000E+00  0.00000000000E+00  0.91192626450E+02  0.91192626450E+02  0.00000000000E+00 0. -1.
         -1   -1    0    0    0  501 -0.00000000000E+00 -0.00000000000E+00 -0.41129203204E+03  0.41129203204E+03  0.00000000000E+00 0.  1.
         25    2    1    2    0    0 -0.13448832796E+03  0.55036828808E+02 -0.25206013977E+03  0.31669768158E+03  0.12508774749E+03 0.  0.
         23    2    1    2    0    0  0.13448832796E+03 -0.55036828808E+02 -0.68039265817E+02  0.18578697691E+03  0.93655198548E+02 0.  0.
          5    1    3    3  502    0 -0.36895684868E+02 -0.22198507903E+02 -0.98765337442E+01  0.44374357841E+02  0.41800000000E+01 0. -1.
         -5    1    3    3    0  502 -0.97592643088E+02  0.77235336711E+02 -0.24218360603E+03  0.27232332374E+03  0.41800000000E+01 0. -1.
        -11    1    4    4    0    0  0.95058104761E+02 -0.80496433903E+02 -0.38697525032E+02  0.13043472542E+03  0.00000000000E+00 0.  1.
         11    1    4    4    0    0  0.39430223195E+02  0.25459605095E+02 -0.29341740786E+02  0.55352251491E+02  0.00000000000E+00 0. -1.
</event>
<event>
 8    1  0.7168478E-009  0.1110632E+03  0.7561462E-02  0.1258614E+00
          3   -1    0    0  501    0  0.00000000000E+00  0.00000000000E+00  0.11982094259E+03  0.11982094259E+03  0.00000000000E+00 0. -1.
         -3   -1    0    0    0  501 -0.00000000000E+00 -0.00000000000E+00 -0.12749073119E+03  0.12749073119E+03  0.00000000000E+00 0.  1.
         25    2    1    2    0    0  0.48802548348E+02 -0.13512789646E+02 -0.34708427386E+02  0.13934325871E+03  0.12509030581E+03 0.  0.
         23    2    1    2    0    0 -0.48802548348E+02  0.13512789646E+02  0.27038638783E+02  0.10796841507E+03  0.91442913646E+02 0.  0.
          5    1    3    3  502    0  0.58565871407E+02 -0.53087805839E+02 -0.52170265985E+02  0.94802349525E+02  0.41800000000E+01 0. -1.
         -5    1    3    3    0  502 -0.97633230592E+01  0.39575016193E+02  0.17461838599E+02  0.44540909185E+02  0.41800000000E+01 0. -1.
        -11    1    4    4    0    0  0.30427424855E+00  0.44126024958E+02  0.23495871748E+02  0.49992545951E+02  0.00000000000E+00 0.  1.
         11    1    4    4    0    0 -0.49106822597E+02 -0.30613235312E+02  0.35427670354E+01  0.57975869119E+02  0.00000000000E+00 0. -1.
</event>
<event>
 8    1  0.7168478E-009  0.7844611E+02  0.7561462E-02  0.1333520E+00
         -1   -1    0    0    0  501 -0.00000000000E+00  0.00000000000E+00  0.43517027339E+02  0.43517027339E+02  0.00000000000E+00 0.  1.
          1   -1    0    0  501    0  0.00000000000E+00 -0.00000000000E+00 -0.37276733397E+03  0.37276733397E+03  0.00000000000E+00 0. -1.
         25    2    1    2    0    0  0.24204443921E+02  0.51335043223E+02 -0.12660436670E+03  0.18680818529E+03  0.12508993027E+03 0.  0.
         23    2    1    2    0    0 -0.24204443921E+02 -0.51335043223E+02 -0.20264593993E+03  0.22947617602E+03  0.91502986958E+02 0.  0.
          5    1    3    3  502    0 -0.80737118288E-01  0.43664156006E+02 -0.14732161479E+03  0.15371303010E+03  0.41800000000E+01 0. -1.
         -5    1    3    3    0  502  0.24285181039E+02  0.76708872172E+01  0.20717248088E+02  0.33095155191E+02  0.41800000000E+01 0. -1.
        -11    1    4    4    0    0 -0.66740207655E+01  0.16160709289E+02 -0.26665293213E+01  0.17686759356E+02  0.00000000000E+00 0.  1.
         11    1    4    4    0    0 -0.17530423156E+02 -0.67495752512E+02 -0.19997941061E+03  0.21178941667E+03  0.00000000000E+00 0. -1.
</event>
<event>
 8    1  0.7168478E-009  0.1718204E+03  0.7561462E-02  0.1175963E+00
         -1   -1    0    0    0  501 -0.00000000000E+00  0.00000000000E+00  0.43364329397E+02  0.43364329397E+02  0.00000000000E+00 0.  1.
          1   -1    0    0  501    0  0.00000000000E+00 -0.00000000000E+00 -0.10439638558E+04  0.10439638558E+04  0.00000000000E+00 0. -1.
         25    2    1    2    0    0 -0.12290604675E+03 -0.69030937692E+02 -0.22319748646E+03  0.29212294015E+03  0.12509007761E+03 0.  0.
         23    2    1    2    0    0  0.12290604675E+03  0.69030937692E+02 -0.77740203990E+03  0.79520524500E+03  0.90145900349E+02 0.  0.
          5    1    3    3  502    0 -0.12749983816E+03 -0.95616339887E+01 -0.13968664176E+03  0.18941347328E+03  0.41800000000E+01 0. -1.
         -5    1    3    3    0  502  0.45937914094E+01 -0.59469303703E+02 -0.83510844703E+02  0.10270946687E+03  0.41800000000E+01 0. -1.
        -11    1    4    4    0    0  0.45024214434E+02 -0.87334607866E+01 -0.11651212686E+03  0.12521393264E+03  0.00000000000E+00 0.  1.
         11    1    4    4    0    0  0.77881832315E+02  0.77764398478E+02 -0.66088991304E+03  0.66999131236E+03  0.00000000000E+00 0. -1.
</event>
<event>
 8    1  0.7168478E-009  0.1701781E+03  0.7561462E-02  0.1177662E+00
          1   -1    0    0  501    0  0.00000000000E+00  0.00000000000E+00  0.15779982887E+04  0.15779982887E+04  0.00000000000E+00 0. -1.
         -1   -1    0    0    0  501 -0.00000000000E+00 -0.00000000000E+00 -0.26829225324E+02  0.26829225324E+02  0.00000000000E+00 0.  1.
         25    2    1    2    0    0  0.94932513365E+02 -0.90386082380E+02  0.12575108623E+04  0.12704970522E+04  0.12508942768E+03 0.  0.
         23    2    1    2    0    0 -0.94932513365E+02  0.90386082380E+02  0.29365820110E+03  0.33433046182E+03  0.91432448564E+02 0.  0.
          5    1    3    3  502    0 -0.22210024934E+02 -0.52900443869E+02  0.35401961952E+03  0.35866294145E+03  0.41800000000E+01 0.  1.
         -5    1    3    3    0  502  0.11714253830E+03 -0.37485638511E+02  0.90349124279E+03  0.91183411077E+03  0.41800000000E+01 0.  1.
        -11    1    4    4    0    0  0.12458914063E+02  0.38559179966E+02  0.78258561491E+02  0.88127392711E+02  0.00000000000E+00 0.  1.
         11    1    4    4    0    0 -0.10739142743E+03  0.51826902414E+02  0.21539963961E+03  0.24620306911E+03  0.00000000000E+00 0. -1.
</event>
<event>
 8    1  0.7168478E-009  0.1094842E+03  0.7561462E-02  0.1261528E+00
          2   -1    0    0  501    0  0.00000000000E+00  0.00000000000E+00  0.91042872106E+03  0.91042872106E+03  0.00000000000E+00 0. -1.
         -2   -1    0    0    0  501 -0.00000000000E+00 -0.00000000000E+00 -0.14465460093E+02  0.14465460093E+02  0.00000000000E+00 0.  1.
         25    2    1    2    0    0 -0.31452036440E+02 -0.11617441288E+01  0.43617077296E+03  0.45484410905E+03  0.12509052764E+03 0.  0.
         23    2    1    2    0    0  0.31452036440E+02  0.11617441288E+01  0.45979248800E+03  0.47005007210E+03  0.92451922710E+02 0.  0.
          5    1    3    3  502    0  0.41134345116E+02 -0.22764767629E+02  0.10535220707E+03  0.11544188550E+03  0.41800000000E+01 0.  1.
         -5    1    3    3    0  502 -0.72586381556E+02  0.21603023500E+02  0.33081856589E+03  0.33940222355E+03  0.41800000000E+01 0.  1.
        -11    1    4    4    0    0  0.17761570642E+02  0.45856810864E+02  0.19135074077E+03  0.19756878925E+03  0.00000000000E+00 0. -1.
         11    1    4    4    0    0  0.13690465798E+02 -0.44695066735E+02  0.26844174723E+03  0.27248128285E+03  0.00000000000E+00 0.  1.
</event>
<event>
 8    1  0.7168478E-009  0.9666695E+02  0.7561462E-02  0.1287465E+00
          2   -1    0    0  501    0  0.00000000000E+00  0.00000000000E+00  0.35050770113E+03  0.35050770113E+03  0.00000000000E+00 0. -1.
         -2   -1    0    0    0  501 -0.00000000000E+00 -0.00000000000E+00 -0.54707334897E+02  0.54707334897E+02  0.00000000000E+00 0.  1.
         25    2    1    2    0    0  0.36333860190E+02 -0.81486547607E+02  0.13966357309E+03  0.20763883524E+03  0.12509102851E+03 0.  0.
         23    2    1    2    0    0 -0.36333860190E+02  0.81486547607E+02  0.15613679314E+03  0.19757620079E+03  0.81837950295E+02 0.  0.
          5    1    3    3  502    0  0.40723694449E+02 -0.27964779840E+02  0.14525765214E+03  0.15348519833E+03  0.41800000000E+01 0. -1.
         -5    1    3    3    0  502 -0.43898342589E+01 -0.53521767766E+02 -0.55940790514E+01  0.54153636906E+02  0.41800000000E+01 0. -1.
        -11    1    4    4    0    0 -0.16779017785E+02  0.24928451193E+02 -0.33496745536E+00  0.30051211622E+02  0.00000000000E+00 0.  1.
         11    1    4    4    0    0 -0.19554842404E+02  0.56558096413E+02  0.15647176059E+03  0.16752498916E+03  0.00000000000E+00 0. -1.
</event>
<event>
 8    1  0.7168478E-009  0.1096532E+03  0.7561462E-02  0.1261214E+00
         -2   -1    0    0    0  501 -0.00000000000E+00  0.00000000000E+00  0.37387786481E+02  0.37387786481E+02  0.00000000000E+00 0. -1.
          2   -1    0    0  501    0  0.00000000000E+00 -0.00000000000E+00 -0.32717679674E+03  0.32717679674E+03  0.00000000000E+00 0.  1.
         25    2    1    2    0    0 -0.21706099977E+02  0.55798727530E+01 -0.17561082144E+03  0.21676893935E+03  0.12508925894E+03 0.  0.
         23    2    1    2    0    0  0.21706099977E+02 -0.55798727530E+01 -0.11417818882E+03  0.14779564387E+03  0.91129598873E+02 0.  0.
          5    1    3    3  502    0  0.18981063919E+02 -0.51893216870E+02 -0.63149950079E+02  0.84015328004E+02  0.41800000000E+01 0. -1.
         -5    1    3    3    0  502 -0.40687163896E+02  0.57473089623E+02 -0.11246087137E+03  0.13275361134E+03  0.41800000000E+01 0. -1.
        -11    1    4    4    0    0 -0.15782258977E+02  0.34824863666E+02 -0.39426955975E+02  0.54921177020E+02  0.00000000000E+00 0. -1.
         11    1    4    4    0    0  0.37488358954E+02 -0.40404736419E+02 -0.74751232842E+02  0.92874466855E+02  0.00000000000E+00 0.  1.
</event>
<event>
 8    1  0.7168478E-009  0.9425666E+02  0.7561462E-02  0.1292859E+00
          1   -1    0    0  501    0  0.00000000000E+00  0.00000000000E+00  0.86043649575E+03  0.86043649575E+03  0.00000000000E+00 0. -1.
         -1   -1    0    0    0  501 -0.00000000000E+00 -0.00000000000E+00 -0.37171266355E+02  0.37171266355E+02  0.00000000000E+00 0.  1.
         25    2    1    2    0    0  0.82794714008E+02  0.49933725853E+01  0.72017487949E+03  0.73564853658E+03  0.12508802459E+03 0.  0.
         23    2    1    2    0    0 -0.82794714008E+02 -0.49933725853E+01  0.10309034990E+03  0.16195922552E+03  0.93398458496E+02 0.  0.
          5    1    3    3  502    0  0.47180859808E+01 -0.10969533756E+02  0.17114611063E+01  0.12766851815E+02  0.41800000000E+01 0. -1.
         -5    1    3    3    0  502  0.78076628027E+02  0.15962906341E+02  0.71846341838E+03  0.72288168477E+03  0.41800000000E+01 0. -1.
        -11    1    4    4    0    0 -0.16244386481E+02  0.19289459116E+02 -0.11120691891E+02  0.27561442510E+02  0.00000000000E+00 0.  1.
         11    1    4    4    0    0 -0.66550327527E+02 -0.24282831701E+02  0.11421104179E+03  0.13439778301E+03  0.00000000000E+00 0. -1.
</event>
<event>
 8    1  0.7168478E-009  0.1096660E+03  0.7561462E-02  0.1261190E+00
          1   -1    0    0  501    0  0.00000000000E+00  0.00000000000E+00  0.70976021870E+02  0.70976021870E+02  0.00000000000E+00 0. -1.
         -1   -1    0    0    0  501 -0.00000000000E+00 -0.00000000000E+00 -0.22426792536E+03  0.22426792536E+03  0.00000000000E+00 0.  1.
         25    2    1    2    0    0 -0.67582982538E+01  0.62649495432E+02 -0.78050182356E+02  0.16034507255E+03  0.12509227574E+03 0.  0.
         23    2    1    2    0    0  0.67582982538E+01 -0.62649495432E+02 -0.75241721134E+02  0.13489887468E+03  0.92551369080E+02 0.  0.
          5    1    3    3  502    0 -0.50277871264E+02  0.51865624060E+02 -0.25072650168E+01  0.72399351349E+02  0.41800000000E+01 0. -1.
         -5    1    3    3    0  502  0.43519573010E+02  0.10783871372E+02 -0.75542917339E+02  0.87945721197E+02  0.41800000000E+01 0. -1.
        -11    1    4    4    0    0  0.40966434919E+02 -0.51835093804E+02 -0.73714326087E+02  0.98989532831E+02  0.00000000000E+00 0.  1.
         11    1    4    4    0    0 -0.34208136665E+02 -0.10814401628E+02 -0.15273950470E+01  0.35909341853E+02  0.00000000000E+00 0. -1.
</event>
<event>
 8    1  0.7168478E-009  0.1016234E+03  0.7561462E-02  0.1276919E+00
         -2   -1    0    0    0  501 -0.00000000000E+00  0.00000000000E+00  0.17958723174E+02  0.17958723174E+02  0.00000000000E+00 0.  1.
          2   -1    0    0  501    0  0.00000000000E+00 -0.00000000000E+00 -0.69151648121E+03  0.69151648121E+03  0.00000000000E+00 0. -1.
         25    2    1    2    0    0 -0.79193725983E+00  0.14430192118E+02 -0.47099171905E+03  0.48753381861E+03  0.12508863764E+03 0.  0.
         23    2    1    2    0    0  0.79193725983E+00 -0.14430192118E+02 -0.20256603898E+03  0.22194138577E+03  0.89532792645E+02 0.  0.
          5    1    3    3  502    0 -0.14793286752E+02  0.67619080034E+02 -0.22549393624E+03  0.23591559719E+03  0.41800000000E+01 0.  1.
         -5    1    3    3    0  502  0.14001349492E+02 -0.53188887916E+02 -0.24549778281E+03  0.25161822142E+03  0.41800000000E+01 0.  1.
        -11    1    4    4    0    0  0.35191623335E+02  0.99600492865E+01 -0.40906858973E+02  0.54872798778E+02  0.00000000000E+00 0.  1.
         11    1    4    4    0    0 -0.34399686075E+02 -0.24390241405E+02 -0.16165918001E+03  0.16706858699E+03  0.00000000000E+00 0. -1.
</event>
<event>
 8    1  0.7168478E-009  0.2294029E+03  0.7561462E-02  0.1127061E+00
         -1   -1    0    0    0  501 -0.00000000000E+00  0.00000000000E+00  0.23411262446E+03  0.23411262446E+03  0.00000000000E+00 0.  1.
          1   -1    0    0  501    0  0.00000000000E+00 -0.00000000000E+00 -0.23140261348E+03  0.23140261348E+03  0.00000000000E+00 0. -1.
         25    2    1    2    0    0  0.14967539853E+03  0.14141387440E+03 -0.11296948913E+02  0.24119807783E+03  0.12509309693E+03 0.  0.
         23    2    1    2    0    0 -0.14967539853E+03 -0.14141387440E+03  0.14006959890E+02  0.22431716011E+03  0.87871409448E+02 0.  0.
          5    1    3    3  502    0  0.65787705188E+02 -0.10797983361E+02  0.21270400147E+01  0.66832741211E+02  0.41800000000E+01 0. -1.
         -5    1    3    3    0  502  0.83887693341E+02  0.15221185776E+03 -0.13423988927E+02  0.17436533662E+03  0.41800000000E+01 0. -1.
        -11    1    4    4    0    0 -0.50253630902E+02 -0.97048123913E+02  0.32207968958E+02  0.11393471393E+03  0.00000000000E+00 0. -1.
         11    1    4    4    0    0 -0.99421767627E+02 -0.44365750487E+02 -0.18201009068E+02  0.11038244618E+03  0.00000000000E+00 0.  1.
</event>
<event>
 8    1  0.7168478E-009  0.1331226E+03  0.7561462E-02  0.1222895E+00
          2   -1    0    0  501    0  0.00000000000E+00  0.00000000000E+00  0.39890984691E+03  0.39890984691E+03  0.00000000000E+00 0. -1.
         -2   -1    0    0    0  501 -0.00000000000E+00 -0.00000000000E+00 -0.69024176721E+02  0.69024176721E+02  0.00000000000E+00 0.  1.
         25    2    1    2    0    0 -0.11626356261E+03  0.27801464379E+01  0.24296000173E+03  0.29698666016E+03  0.12508624492E+03 0.  0.
         23    2    1    2    0    0  0.11626356261E+03 -0.27801464379E+01  0.86925668454E+02  0.17094736347E+03  0.90232943178E+02 0.  0.
          5    1    3    3  502    0 -0.22716877606E+02  0.41170570698E+02  0.15783138108E+03  0.16474006700E+03  0.41800000000E+01 0. -1.
         -5    1    3    3    0  502 -0.93546685005E+02 -0.38390424260E+02  0.85128620650E+02  0.13224659317E+03  0.41800000000E+01 0. -1.
        -11    1    4    4    0    0  0.10258524699E+03  0.37983694571E+01  0.22941767971E+02  0.10518785685E+03  0.00000000000E+00 0.  1.
         11    1    4    4    0    0  0.13678315620E+02 -0.65785158950E+01  0.63983900483E+02  0.65759506618E+02  0.00000000000E+00 0. -1.
</event>
<event>
 8    1  0.7168478E-009  0.1070955E+03  0.7561462E-02  0.1266045E+00
          2   -1    0    0  501    0  0.00000000000E+00  0.00000000000E+00  0.62837978689E+03  0.62837978689E+03  0.00000000000E+00 0. -1.
         -2   -1    0    0    0  501 -0.00000000000E+00 -0.00000000000E+00 -0.28664245782E+02  0.28664245782E+02  0.00000000000E+00 0.  1.
         25    2    1    2    0    0 -0.42758266323E+02 -0.62690256272E+02  0.27854237047E+03  0.31462973603E+03  0.12509069140E+03 0.  0.
         23    2    1    2    0    0  0.42758266323E+02  0.62690256272E+02  0.32117317064E+03  0.34241429665E+03  0.91307214600E+02 0.  0.
          5    1    3    3  502    0 -0.64356719539E+02 -0.57424216446E+02  0.89969303314E+02  0.12470475501E+03  0.41800000000E+01 0. -1.
         -5    1    3    3    0  502  0.21598453216E+02 -0.52660398254E+01  0.18857306715E+03  0.18992498101E+03  0.41800000000E+01 0. -1.
        -11    1    4    4    0    0  0.44715573706E+02  0.77932788425E+02  0.31163061380E+03  0.32432490115E+03  0.00000000000E+00 0. -1.
         11    1    4    4    0    0 -0.19573073822E+01 -0.15242532154E+02  0.95425568403E+01  0.18089395504E+02  0.00000000000E+00 0.  1.
</event>
<event>
 8    1  0.7168478E-009  0.1484007E+03  0.7561462E-02  0.1202452E+00
         -1   -1    0    0    0  501 -0.00000000000E+00  0.00000000000E+00  0.65487834280E+02  0.65487834280E+02  0.00000000000E+00 0.  1.
          1   -1    0    0  501    0  0.00000000000E+00 -0.00000000000E+00 -0.36103605453E+03  0.36103605453E+03  0.00000000000E+00 0. -1.
         25    2    1    2    0    0  0.10717599028E+03 -0.15741644053E+02 -0.16080344550E+03  0.23073795156E+03  0.12509101469E+03 0.  0.
         23    2    1    2    0    0 -0.10717599028E+03  0.15741644053E+02 -0.13474477476E+03  0.19578593726E+03  0.91877563384E+02 0.  0.
          5    1    3    3  502    0  0.84483900745E+02  0.42980188610E+02 -0.12885270944E+03  0.16001662172E+03  0.41800000000E+01 0. -1.
         -5    1    3    3    0  502  0.22692089533E+02 -0.58721832663E+02 -0.31950736057E+02  0.70721329833E+02  0.41800000000E+01 0. -1.
        -11    1    4    4    0    0 -0.74485563127E+02  0.51364792384E+02 -0.67128713034E+02  0.11266190627E+03  0.00000000000E+00 0.  1.
         11    1    4    4    0    0 -0.32690427151E+02 -0.35623148331E+02 -0.67616061723E+02  0.83124030986E+02  0.00000000000E+00 0. -1.
</event>
<event>
 8    1  0.7168478E-009  0.1037617E+03  0.7561462E-02  0.1272579E+00
          4   -1    0    0  501    0  0.00000000000E+00  0.00000000000E+00  0.23325062792E+03  0.23325062792E+03  0.00000000000E+00 0. -1.
         -4   -1    0    0    0  501 -0.00000000000E+00 -0.00000000000E+00 -0.53008150071E+02  0.53008150071E+02  0.00000000000E+00 0.  1.
         25    2    1    2    0    0  0.14126104108E+02  0.25786360107E+02  0.85203317403E+02  0.15417940961E+03  0.12508877594E+03 0.  0.
         23    2    1    2    0    0 -0.14126104108E+02 -0.25786360107E+02  0.95039160447E+02  0.13207936838E+03  0.86879424193E+02 0.  0.
          5    1    3    3  502    0  0.34683074890E+02 -0.41596922831E+02  0.55349380556E+02  0.77551569944E+02  0.41800000000E+01 0.  1.
         -5    1    3    3    0  502 -0.20556970781E+02  0.67383282937E+02  0.29853936847E+02  0.76627839669E+02  0.41800000000E+01 0.  1.
        -11    1    4    4    0    0  0.31021380229E+02 -0.20479371293E+02  0.15105437149E+02  0.40123620367E+02  0.00000000000E+00 0.  1.
         11    1    4    4    0    0 -0.45147484337E+02 -0.53069888135E+01  0.79933723298E+02  0.91955748012E+02  0.00000000000E+00 0. -1.
</event>
<event>
 8    1  0.7168478E-009  0.1088803E+03  0.7561462E-02  0.1262658E+00
         -2   -1    0    0    0  501 -0.00000000000E+00  0.00000000000E+00  0.73126777412E+02  0.73126777412E+02  0.00000000000E+00 0.  1.
          2   -1    0    0  501    0  0.00000000000E+00 -0.00000000000E+00 -0.19568722561E+03  0.19568722561E+03  0.00000000000E+00 0. -1.
         25    2    1    2    0    0 -0.57581735305E+01 -0.14562635029E+02 -0.12129393190E+03  0.17494280319E+03  0.12509012578E+03 0.  0.
         23    2    1    2    0    0  0.57581735305E+01  0.14562635029E+02 -0.12665162923E+01  0.93871199834E+02  0.92547129579E+02 0.  0.
          5    1    3    3  502    0 -0.47424484912E+02  0.35103776672E+02 -0.73209656866E+02  0.94119515321E+02  0.41800000000E+01 0. -1.
         -5    1    3    3    0  502  0.41666311382E+02 -0.49666411701E+02 -0.48084275037E+02  0.80823287865E+02  0.41800000000E+01 0. -1.
        -11    1    4    4    0    0 -0.42035253783E+02  0.18004146260E+02 -0.38059182216E+01  0.45886783029E+02  0.00000000000E+00 0. -1.
         11    1    4    4    0    0  0.47793427314E+02 -0.34415112308E+01  0.25394019293E+01  0.47984416805E+02  0.00000000000E+00 0.  1.
</event>
<event>
 8    1  0.7168478E-009  0.9693892E+02  0.7561462E-02  0.1286868E+00
         -2   -1    0    0    0  501 -0.00000000000E+00  0.00000000000E+00  0.57998064329E+02  0.57998064329E+02  0.00000000000E+00 0. -1.
          2   -1    0    0  501    0  0.00000000000E+00 -0.00000000000E+00 -0.26927469903E+03  0.26927469903E+03  0.00000000000E+00 0.  1.
         25    2    1    2    0    0  0.38175371387E+02 -0.44273779962E+02 -0.85768674655E+02  0.16254411001E+03  0.12508715191E+03 0.  0.
         23    2    1    2    0    0 -0.38175371387E+02  0.44273779962E+02 -0.12550796004E+03  0.16472865335E+03  0.89251076338E+02 0.  0.
          5    1    3    3  502    0  0.66918214136E+02 -0.30705943840E+02 -0.30250839616E+01  0.73807356702E+02  0.41800000000E+01 0. -1.
         -5    1    3    3    0  502 -0.28742842749E+02 -0.13567836122E+02 -0.82743590693E+02  0.88736753305E+02  0.41800000000E+01 0. -1.
        -11    1    4    4    0    0 -0.56321517245E+02  0.40929556810E+02 -0.46808474227E+02  0.83895024792E+02  0.00000000000E+00 0. -1.
         11    1    4    4    0    0  0.18146145858E+02  0.33442231521E+01 -0.78699485817E+02  0.80833628558E+02  0.00000000000E+00 0.  1.
</event>
<event>
 8    1  0.7168478E-009  0.1445526E+03  0.7561462E-02  0.1207331E+00
         -2   -1    0    0    0  501 -0.00000000000E+00  0.00000000000E+00  0.58496140842E+02  0.58496140842E+02  0.00000000000E+00 0. -1.
          2   -1    0    0  501    0  0.00000000000E+00 -0.00000000000E+00 -0.44961034752E+03  0.44961034752E+03  0.00000000000E+00 0.  1.
         25    2    1    2    0    0  0.11353763098E+03  0.33223609169E+02 -0.23666839943E+03  0.29266646001E+03  0.12508846340E+03 0.  0.
         23    2    1    2    0    0 -0.11353763098E+03 -0.33223609169E+02 -0.15444580725E+03  0.21544002835E+03  0.92554289927E+02 0.  0.
          5    1    3    3  502    0 -0.30702540684E+01 -0.34874901601E+02 -0.67664154069E+02  0.76299379864E+02  0.41800000000E+01 0.  1.
         -5    1    3    3    0  502  0.11660788504E+03  0.68098510770E+02 -0.16900424536E+03  0.21636708015E+03  0.41800000000E+01 0.  1.
        -11    1    4    4    0    0 -0.84632754858E+02 -0.20022579514E+02 -0.38305725134E+02  0.95031234146E+02  0.00000000000E+00 0. -1.
         11    1    4    4    0    0 -0.28904876118E+02 -0.13201029655E+02 -0.11614008212E+03  0.12040879420E+03  0.00000000000E+00 0.  1.
</event>
<event>
 8    1  0.7168478E-009  0.2703411E+03  0.7561462E-02  0.1101085E+00
         -1   -1    0    0    0  501 -0.00000000000E+00  0.00000000000E+00  0.36215245653E+03  0.36215245653E+03  0.00000000000E+00 0.  1.
          1   -1    0    0  501    0  0.00000000000E+00 -0.00000000000E+00 -0.23330581111E+03  0.23330581111E+03  0.00000000000E+00 0. -1.
         25    2    1    2    0    0  0.24472605115E+03  0.11165900842E+03  0.88635727279E+02  0.30961345003E+03  0.12508246086E+03 0.  0.
         23    2    1    2    0    0 -0.24472605115E+03 -0.11165900842E+03  0.40210918141E+02  0.28584481761E+03  0.87930469940E+02 0.  0.
          5    1    3    3  502    0  0.21564980285E+03  0.84740378762E+02  0.11806288876E+03  0.26008092465E+03  0.41800000000E+01 0.  1.
         -5    1    3    3    0  502  0.29076248300E+02  0.26918629663E+02 -0.29427161480E+02  0.49532525384E+02  0.41800000000E+01 0.  1.
        -11    1    4    4    0    0 -0.30562994751E+02 -0.16698094092E+02  0.38023345075E+02  0.51562561662E+02  0.00000000000E+00 0.  1.
         11    1    4    4    0    0 -0.21416305640E+03 -0.94960914333E+02  0.21875730660E+01  0.23428225595E+03  0.00000000000E+00 0. -1.
</event>
<event>
 8    1  0.7168478E-009  0.7403414E+02  0.7561462E-02  0.1346888E+00
          2   -1    0    0  501    0  0.00000000000E+00  0.00000000000E+00  0.99657801424E+02  0.99657801424E+02  0.00000000000E+00 0. -1.
         -2   -1    0    0    0  501 -0.00000000000E+00 -0.00000000000E+00 -0.12321148593E+03  0.12321148593E+03  0.00000000000E+00 0.  1.
         25    2    1    2    0    0 -0.14488107855E+01 -0.14491169437E+02 -0.39734425956E+02  0.13204585341E+03  0.12508073293E+03 0.  0.
         23    2    1    2    0    0  0.14488107855E+01  0.14491169437E+02  0.16180741454E+02  0.90823433945E+02  0.88175885111E+02 0.  0.
          5    1    3    3  502    0  0.50686316713E+02  0.11757976954E+02 -0.50402162509E+02  0.72561719313E+02  0.41800000000E+01 0. -1.
         -5    1    3    3    0  502 -0.52135127499E+02 -0.26249146391E+02  0.10667736553E+02  0.59484134092E+02  0.41800000000E+01 0. -1.
        -11    1    4    4    0    0 -0.83026179004E+01 -0.88000249293E+01  0.48399718182E+02  0.49888942891E+02  0.00000000000E+00 0. -1.
         11    1    4    4    0    0  0.97514286858E+01  0.23291194366E+02 -0.32218976727E+02  0.40934491053E+02  0.00000000000E+00 0.  1.
</event>
<event>
 8    1  0.7168478E-009  0.1253443E+03  0.7561462E-02  0.1234532E+00
          1   -1    0    0  501    0  0.00000000000E+00  0.00000000000E+00  0.32127334134E+03  0.32127334134E+03  0.00000000000E+00 0. -1.
         -1   -1    0    0    0  501 -0.00000000000E+00 -0.00000000000E+00 -0.70312137833E+02  0.70312137833E+02  0.00000000000E+00 0.  1.
         25    2    1    2    0    0  0.88447817658E+02  0.35783978570E+02  0.81222863933E+02  0.17706575657E+03  0.12510643051E+03 0.  0.
         23    2    1    2    0    0 -0.88447817658E+02 -0.35783978570E+02  0.16973833957E+03  0.21451972259E+03  0.90022763181E+02 0.  0.
          5    1    3    3  502    0 -0.19018003827E+02 -0.24657072443E+02  0.30148907082E+02  0.43544054580E+02  0.41800000000E+01 0. -1.
         -5    1    3    3    0  502  0.10746582149E+03  0.60441051014E+02  0.51073956851E+02  0.13352170199E+03  0.41800000000E+01 0. -1.
        -11    1    4    4    0    0 -0.16844552231E+02 -0.11060405730E+02 -0.77123481173E+01  0.21576650070E+02  0.00000000000E+00 0.  1.
         11    1    4    4    0    0 -0.71603265427E+02 -0.24723572841E+02  0.17745068769E+03  0.19294307252E+03  0.00000000000E+00 0. -1.
</event>
<event>
 8    1  0.7168478E-009  0.1337797E+03  0.7561462E-02  0.1221953E+00
         -2   -1    0    0    0  501 -0.00000000000E+00  0.00000000000E+00  0.46837066470E+02  0.46837066470E+02  0.00000000000E+00 0. -1.
          2   -1    0    0  501    0  0.00000000000E+00 -0.00000000000E+00 -0.57118756966E+03  0.57118756966E+03  0.00000000000E+00 0.  1.
         25    2    1    2    0    0 -0.69611969164E+02 -0.91967757683E+02 -0.35519494045E+03  0.39384620706E+03  0.12508994518E+03 0.  0.
         23    2    1    2    0    0  0.69611969164E+02  0.91967757683E+02 -0.16915556274E+03  0.22417842908E+03  0.91315217533E+02 0.  0.
          5    1    3    3  502    0  0.23025214301E+02 -0.25136689350E+02 -0.18926741271E+03  0.19235810240E+03  0.41800000000E+01 0.  1.
         -5    1    3    3    0  502 -0.92637183465E+02 -0.66831068333E+02 -0.16592752774E+03  0.20148810466E+03  0.41800000000E+01 0.  1.
        -11    1    4    4    0    0  0.28486233706E+01  0.22065470880E+02 -0.10692730444E+03  0.10921743494E+03  0.00000000000E+00 0.  1.
         11    1    4    4    0    0  0.66763345793E+02  0.69902286803E+02 -0.62228258301E+02  0.11496099414E+03  0.00000000000E+00 0. -1.
</event>
<event>
 8    1  0.7168478E-009  0.9228837E+02  0.7561462E-02  0.1297403E+00
          1   -1    0    0  501    0  0.00000000000E+00  0.00000000000E+00  0.31368054707E+03  0.31368054707E+03  0.00000000000E+00 0. -1.
         -1   -1    0    0    0  501 -0.00000000000E+00 -0.00000000000E+00 -0.61647394629E+02  0.61647394629E+02  0.00000000000E+00 0.  1.
         25    2    1    2    0    0 -0.10112789686E+02  0.17679843287E+02  0.21389065715E+02  0.12852845936E+03  0.12508887784E+03 0.  0.
         23    2    1    2    0    0  0.10112789686E+02 -0.17679843287E+02  0.23064408673E+03  0.24679948234E+03  0.85430933316E+02 0.  0.
          5    1    3    3  502    0 -0.40667293328E+02 -0.23142419637E+02  0.51062168719E+02  0.69384564620E+02  0.41800000000E+01 0. -1.
         -5    1    3    3    0  502  0.30554503642E+02  0.40822262925E+02 -0.29673103004E+02  0.59143894740E+02  0.41800000000E+01 0. -1.
        -11    1    4    4    0    0  0.43871619008E+02 -0.26875308882E+02  0.11513301554E+03  0.12610556074E+03  0.00000000000E+00 0.  1.
         11    1    4    4    0    0 -0.33758829322E+02  0.91954655943E+01  0.11551107119E+03  0.12069392161E+03  0.00000000000E+00 0. -1.
</event>
<event>
 8    1  0.7168478E-009  0.9551347E+02  0.7561462E-02  0.1290024E+00
         -1   -1    0    0    0  501 -0.00000000000E+00  0.00000000000E+00  0.17575273209E+02  0.17575273209E+02  0.00000000000E+00 0.  1.
          1   -1    0    0  501    0  0.00000000000E+00 -0.00000000000E+00 -0.87578710150E+03  0.87578710150E+03  0.00000000000E+00 0. -1.
         25    2    1    2    0    0  0.11670710306E+01  0.35048038494E+02 -0.65182988790E+03  0.66465016547E+03  0.12509161697E+03 0.  0.
         23    2    1    2    0    0 -0.11670710306E+01 -0.35048038494E+02 -0.20638194038E+03  0.22871220924E+03  0.92119717108E+02 0.  0.
          5    1    3    3  502    0  0.26469580265E+01  0.81936911260E+02 -0.44707098696E+03  0.45454439122E+03  0.41800000000E+01 0. -1.
         -5    1    3    3    0  502 -0.14798869959E+01 -0.46888872765E+02 -0.20475890095E+03  0.21010577425E+03  0.41800000000E+01 0. -1.
        -11    1    4    4    0    0  0.63260903480E+01  0.12339391869E+02  0.27596074914E+01  0.14138438538E+02  0.00000000000E+00 0.  1.
         11    1    4    4    0    0 -0.74931613786E+01 -0.47387430364E+02 -0.20914154787E+03  0.21457377070E+03  0.00000000000E+00 0. -1.
</event>
<event>
 8    1  0.7168478E-009  0.1273121E+03  0.7561462E-02  0.1231499E+00
         -1   -1    0    0    0  501 -0.00000000000E+00  0.00000000000E+00  0.13485916014E+04  0.13485916014E+04  0.00000000000E+00 0.  1.
          1   -1    0    0  501    0  0.00000000000E+00 -0.00000000000E+00 -0.18976943768E+02  0.18976943768E+02  0.00000000000E+00 0. -1.
         25    2    1    2    0    0 -0.68712074949E+02 -0.81611500792E+02  0.92411002502E+03  0.93862076729E+03  0.12509124725E+03 0.  0.
         23    2    1    2    0    0  0.68712074949E+02  0.81611500792E+02  0.40550463259E+03  0.42894777786E+03  0.90445579062E+02 0.  0.
          5    1    3    3  502    0  0.14561047857E+02 -0.24600510505E+02  0.43394360696E+02  0.52132064721E+02  0.41800000000E+01 0.  1.
         -5    1    3    3    0  502 -0.83273122806E+02 -0.57010990287E+02  0.88071566432E+03  0.88648870257E+03  0.41800000000E+01 0.  1.
        -11    1    4    4    0    0  0.45729256337E+02  0.65124011974E+01  0.25535131004E+03  0.25949540997E+03  0.00000000000E+00 0.  1.
         11    1    4    4    0    0  0.22982818612E+02  0.75099099594E+02  0.15015332255E+03  0.16945236789E+03  0.00000000000E+00 0. -1.
</event>
<event>
 8    1  0.7168478E-009  0.1009239E+03  0.7561462E-02  0.1278365E+00
         -1   -1    0    0    0  501 -0.00000000000E+00  0.00000000000E+00  0.10482662608E+03  0.10482662608E+03  0.00000000000E+00 0.  1.
          1   -1    0    0  501    0  0.00000000000E+00 -0.00000000000E+00 -0.17856663419E+03  0.17856663419E+03  0.00000000000E+00 0. -1.
         25    2    1    2    0    0 -0.25490067980E+01  0.70615942930E+02  0.80795274009E+01  0.14389507193E+03  0.12508958443E+03 0.  0.
         23    2    1    2    0    0  0.25490067980E+01 -0.70615942930E+02 -0.81819535514E+02  0.13949818834E+03  0.88160077848E+02 0.  0.
          5    1    3    3  502    0 -0.51002891850E+00 -0.96970268981E+01  0.51433832205E+02  0.52509084504E+02  0.41800000000E+01 0.  1.
         -5    1    3    3    0  502 -0.20389778795E+01  0.80312969828E+02 -0.43354304804E+02  0.91385987430E+02  0.41800000000E+01 0.  1.
        -11    1    4    4    0    0  0.35717367344E+02 -0.68909546870E+02 -0.69148909626E+02  0.10395108312E+03  0.00000000000E+00 0. -1.
         11    1    4    4    0    0 -0.33168360546E+02 -0.17063960601E+01 -0.12670625888E+02  0.35547105215E+02  0.00000000000E+00 0.  1.
</event>
<event>
 8    1  0.7168478E-009  0.1017463E+03  0.7561462E-02  0.1276666E+00
         -2   -1    0    0    0  501 -0.00000000000E+00  0.00000000000E+00  0.33515139315E+02  0.33515139315E+02  0.00000000000E+00 0.  1.
          2   -1    0    0  501    0  0.00000000000E+00 -0.00000000000E+00 -0.37868013917E+03  0.37868013917E+03  0.00000000000E+00 0. -1.
         25    2    1    2    0    0 -0.84070580354E+01  0.84905409856E+01 -0.27275010484E+03  0.30030491285E+03  0.12509057950E+03 0.  0.
         23    2    1    2    0    0  0.84070580354E+01 -0.84905409856E+01 -0.72414895019E+02  0.11189036564E+03  0.84455722076E+02 0.  0.
          5    1    3    3  502    0  0.48895375564E+01 -0.57282470015E+02 -0.10933552509E+03  0.12359983170E+03  0.41800000000E+01 0. -1.
         -5    1    3    3    0  502 -0.13296595592E+02  0.65773011000E+02 -0.16341457975E+03  0.17670508115E+03  0.41800000000E+01 0. -1.
        -11    1    4    4    0    0 -0.30174491899E+02  0.14738691139E+02 -0.10219298383E+02  0.35102179951E+02  0.00000000000E+00 0.  1.
         11    1    4    4    0    0  0.38581549934E+02 -0.23229232124E+02 -0.62195596637E+02  0.76788185689E+02  0.00000000000E+00 0. -1.
</event>
<event>
 8    1  0.7168478E-009  0.1200471E+03  0.7561462E-02  0.1243019E+00
         -1   -1    0    0    0  501 -0.00000000000E+00  0.00000000000E+00  0.58000088234E+02  0.58000088234E+02  0.00000000000E+00 0.  1.
          1   -1    0    0  501    0  0.00000000000E+00 -0.00000000000E+00 -0.29887178630E+03  0.29887178630E+03  0.00000000000E+00 0. -1.
         25    2    1    2    0    0  0.70548733582E+02  0.13975050129E+02 -0.15122675231E+03  0.20902017589E+03  0.12508987760E+03 0.  0.
         23    2    1    2    0    0 -0.70548733582E+02 -0.13975050129E+02 -0.89644945751E+02  0.14785169864E+03  0.93013346658E+02 0.  0.
          5    1    3    3  502    0  0.39137049127E+01 -0.37999626722E+02 -0.32556263281E+01  0.38566309390E+02  0.41800000000E+01 0.  1.
         -5    1    3    3    0  502  0.66635028669E+02  0.51974676850E+02 -0.14797112598E+03  0.17045386650E+03  0.41800000000E+01 0.  1.
        -11    1    4    4    0    0  0.14486275476E+02  0.20663079220E+02 -0.25279908169E+02  0.35719585342E+02  0.00000000000E+00 0.  1.
         11    1    4    4    0    0 -0.85035009058E+02 -0.34638129348E+02 -0.64365037582E+02  0.11213211330E+03  0.00000000000E+00 0. -1.
</event>
<event>
 8    1  0.7168478E-009  0.9789155E+02  0.7561462E-02  0.1284793E+00
          1   -1    0    0  501    0  0.00000000000E+00  0.00000000000E+00  0.43310561254E+02  0.43310561254E+02  0.00000000000E+00 0. -1.
         -1   -1    0    0    0  501 -0.00000000000E+00 -0.00000000000E+00 -0.34971155089E+03  0.34971155089E+03  0.00000000000E+00 0.  1.
         25    2    1    2    0    0  0.22731343016E+02 -0.43997617963E+02 -0.20563025348E+03  0.24573410810E+03  0.12509574892E+03 0.  0.
         23    2    1    2    0    0 -0.22731343016E+02  0.43997617963E+02 -0.10077073616E+03  0.14728800404E+03  0.95323189869E+02 0.  0.
          5    1    3    3  502    0  0.18817052488E+02 -0.87731530425E+02 -0.14858660511E+03  0.17362705582E+03  0.41800000000E+01 0. -1.
         -5    1    3    3    0  502  0.39142905284E+01  0.43733912462E+02 -0.57043648369E+02  0.72107052282E+02  0.41800000000E+01 0. -1.
        -11    1    4    4    0    0 -0.21252996650E+02  0.37552443209E+01 -0.10463117856E+03  0.10683386754E+03  0.00000000000E+00 0.  1.
         11    1    4    4    0    0 -0.14783463665E+01  0.40242373643E+02  0.38604424054E+01  0.40454136500E+02  0.00000000000E+00 0. -1.
</event>
<event>
 8    1  0.7168478E-009  0.1440742E+03  0.7561462E-02  0.1207950E+00
         -2   -1    0    0    0  501 -0.00000000000E+00  0.00000000000E+00  0.43391760705E+02  0.43391760705E+02  0.00000000000E+00 0. -1.
          2   -1    0    0  501    0  0.00000000000E+00 -0.00000000000E+00 -0.78451076521E+03  0.78451076521E+03  0.00000000000E+00 0.  1.
         25    2    1    2    0    0  0.10607813317E+03  0.16803910453E+02 -0.62394968297E+03  0.64536467608E+03  0.12508963393E+03 0.  0.
         23    2    1    2    0    0 -0.10607813317E+03 -0.16803910453E+02 -0.11716932154E+03  0.18253784983E+03  0.89757868565E+02 0.  0.
          5    1    3    3  502    0  0.11557919533E+03 -0.15869100557E+02 -0.56699866984E+03  0.57889147752E+03  0.41800000000E+01 0. -1.
         -5    1    3    3    0  502 -0.95010621630E+01  0.32673011010E+02 -0.56951013126E+02  0.66473198560E+02  0.41800000000E+01 0. -1.
        -11    1    4    4    0    0 -0.26509219894E+02 -0.45402965229E+02 -0.27659036902E+02  0.59406988758E+02  0.00000000000E+00 0.  1.
         11    1    4    4    0    0 -0.79568913272E+02  0.28599054776E+02 -0.89510284636E+02  0.12313086107E+03  0.00000000000E+00 0. -1.
</event>
<event>
 8    1  0.7168478E-009  0.1269588E+03  0.7561462E-02  0.1232039E+00
         -2   -1    0    0    0  501 -0.00000000000E+00  0.00000000000E+00  0.11305369271E+02  0.11305369271E+02  0.00000000000E+00 0. -1.
          2   -1    0    0  501    0  0.00000000000E+00 -0.00000000000E+00 -0.15628698081E+04  0.15628698081E+04  0.00000000000E+00 0.  1.
         25    2    1    2    0    0 -0.35754016119E+02 -0.59811635433E+02 -0.10431133753E+04  0.10528956240E+04  0.12509156662E+03 0.  0.
         23    2    1    2    0    0  0.35754016119E+02  0.59811635433E+02 -0.50845106350E+03  0.52127955328E+03  0.91400805743E+02 0.  0.
          5    1    3    3  502    0 -0.81081076884E+02 -0.38191455652E+02 -0.55738945477E+03  0.56456461543E+03  0.41800000000E+01 0. -1.
         -5    1    3    3    0  502  0.45327060765E+02 -0.21620179781E+02 -0.48572392052E+03  0.48833100862E+03  0.41800000000E+01 0. -1.
        -11    1    4    4    0    0  0.64955071452E+02  0.52956864819E+02 -0.33982820613E+03  0.35000971489E+03  0.00000000000E+00 0. -1.
         11    1    4    4    0    0 -0.29201055333E+02  0.68547706147E+01 -0.16862285737E+03  0.17126983839E+03  0.00000000000E+00 0.  1.
</event>
<event>
 8    1  0.7168478E-009  0.1356918E+03  0.7561462E-02  0.1219246E+00
          2   -1    0    0  501    0  0.00000000000E+00  0.00000000000E+00  0.59758682567E+03  0.59758682567E+03  0.00000000000E+00 0. -1.
         -2   -1    0    0    0  501 -0.00000000000E+00 -0.00000000000E+00 -0.37999789194E+02  0.37999789194E+02  0.00000000000E+00 0.  1.
         25    2    1    2    0    0 -0.78176287986E+02 -0.67972667828E+02  0.27318960346E+03  0.31782304217E+03  0.12508841321E+03 0.  0.
         23    2    1    2    0    0  0.78176287986E+02  0.67972667828E+02  0.28639743302E+03  0.31776357269E+03  0.90655297244E+02 0.  0.
          5    1    3    3  502    0 -0.95415095561E+02 -0.42200164289E+02  0.26594533950E+03  0.28570840087E+03  0.41800000000E+01 0.  1.
         -5    1    3    3    0  502  0.17238807575E+02 -0.25772503540E+02  0.72442639598E+01  0.32114641297E+02  0.41800000000E+01 0.  1.
        -11    1    4    4    0    0  0.47603241414E+02 -0.12819340051E+02  0.13101738147E+03  0.13998556468E+03  0.00000000000E+00 0.  1.
         11    1    4    4    0    0  0.30573046572E+02  0.80792007880E+02  0.15538005155E+03  0.17777800801E+03  0.00000000000E+00 0. -1.
</event>
<event>
 8    1  0.7168478E-009  0.1494125E+03  0.7561462E-02  0.1201197E+00
          1   -1    0    0  501    0  0.00000000000E+00  0.00000000000E+00  0.70755275380E+03  0.70755275380E+03  0.00000000000E+00 0. -1.
         -1   -1    0    0    0  501 -0.00000000000E+00 -0.00000000000E+00 -0.41308920734E+02  0.41308920734E+02  0.00000000000E+00 0.  1.
         25    2    1    2    0    0  0.10575590944E+03 -0.78281149397E+02  0.33373695359E+03  0.37992083174E+03  0.12508890228E+03 0.  0.
         23    2    1    2    0    0 -0.10575590944E+03  0.78281149397E+02  0.33250687948E+03  0.36894084279E+03  0.90797961681E+02 0.  0.
          5    1    3    3  502    0  0.93061704870E+02 -0.14041176352E+02  0.10102182229E+03  0.13813224289E+03  0.41800000000E+01 0.  1.
         -5    1    3    3    0  502  0.12694204566E+02 -0.64239973045E+02  0.23271513130E+03  0.24178858886E+03  0.41800000000E+01 0.  1.
        -11    1    4    4    0    0 -0.73470003630E+02  0.26742786602E+02  0.27253679194E+03  0.28353010603E+03  0.00000000000E+00 0.  1.
         11    1    4    4    0    0 -0.32285905805E+02  0.51538362796E+02  0.59970087547E+02  0.85410736759E+02  0.00000000000E+00 0. -1.
</event>
<event>
 8    1  0.7168478E-009  0.2545385E+03  0.7561462E-02  0.1110470E+00
         -2   -1    0    0    0  501 -0.00000000000E+00  0.00000000000E+00  0.21517974915E+03  0.21517974915E+03  0.00000000000E+00 0.  1.
          2   -1    0    0  501    0  0.00000000000E+00 -0.00000000000E+00 -0.32937725210E+03  0.32937725210E+03  0.00000000000E+00 0. -1.
         25    2    1    2    0    0  0.22828306065E+03  0.79466942708E+02 -0.85906595695E+02  0.28540461299E+03  0.12509076374E+03 0.  0.
         23    2    1    2    0    0 -0.22828306065E+03 -0.79466942708E+02 -0.28290907246E+02  0.25915238826E+03  0.89058599500E+02 0.  0.
          5    1    3    3  502    0  0.14094777111E+03  0.90053736466E+02 -0.74895462859E+01  0.16747989532E+03  0.41800000000E+01 0. -1.
         -5    1    3    3    0  502  0.87335289535E+02 -0.10586793758E+02 -0.78417049409E+02  0.11792471767E+03  0.41800000000E+01 0. -1.
        -11    1    4    4    0    0 -0.18948592771E+03 -0.94918094787E+02 -0.64571843091E+01  0.21202843382E+03  0.00000000000E+00 0.  1.
         11    1    4    4    0    0 -0.38797132939E+02  0.15451152079E+02 -0.21833722937E+02  0.47123954441E+02  0.00000000000E+00 0. -1.
</event>
<event>
 8    1  0.7168478E-009  0.8974244E+02  0.7561462E-02  0.1303477E+00
          3   -1    0    0  501    0  0.00000000000E+00  0.00000000000E+00  0.99288137911E+02  0.99288137911E+02  0.00000000000E+00 0. -1.
         -3   -1    0    0    0  501 -0.00000000000E+00 -0.00000000000E+00 -0.20937863594E+03  0.20937863594E+03  0.00000000000E+00 0.  1.
         25    2    1    2    0    0 -0.22424291381E+01 -0.11757128088E+02 -0.15966715786E+03  0.20319059526E+03  0.12509819405E+03 0.  0.
         23    2    1    2    0    0  0.22424291381E+01  0.11757128088E+02  0.49576659835E+02  0.10547617858E+03  0.92326163676E+02 0.  0.
          5    1    3    3  502    0  0.36709228657E+02  0.43296199801E+02 -0.86987693959E+02  0.10395412299E+03  0.41800000000E+01 0.  1.
         -5    1    3    3    0  502 -0.38951657795E+02 -0.55053327888E+02 -0.72679463901E+02  0.99236472275E+02  0.41800000000E+01 0.  1.
        -11    1    4    4    0    0 -0.12357296369E+02  0.29522016528E+02  0.68557605211E+02  0.75659747988E+02  0.00000000000E+00 0. -1.
         11    1    4    4    0    0  0.14599725507E+02 -0.17764888440E+02 -0.18980945375E+02  0.29816430597E+02  0.00000000000E+00 0.  1.
</event>
<event>
 8    1  0.7168478E-009  0.1536839E+03  0.7561462E-02  0.1196018E+00
         -3   -1    0    0    0  501 -0.00000000000E+00  0.00000000000E+00  0.93997503860E+02  0.93997503860E+02  0.00000000000E+00 0.  1.
          3   -1    0    0  501    0  0.00000000000E+00 -0.00000000000E+00 -0.29891945976E+03  0.29891945976E+03  0.00000000000E+00 0. -1.
         25    2    1    2    0    0 -0.71256594531E+02 -0.89818633859E+02 -0.17251830376E+03  0.24198038950E+03  0.12508818697E+03 0.  0.
         23    2    1    2    0    0  0.71256594531E+02  0.89818633859E+02 -0.32403652145E+02  0.15093657412E+03  0.92665870106E+02 0.  0.
          5    1    3    3  502    0 -0.10743538421E+03 -0.67949982783E+02 -0.12806325592E+03  0.18049163931E+03  0.41800000000E+01 0. -1.
         -5    1    3    3    0  502  0.36178789683E+02 -0.21868651075E+02 -0.44455047833E+02  0.61488750195E+02  0.41800000000E+01 0. -1.
        -11    1    4    4    0    0  0.19566890005E+01  0.63560075501E+02  0.11758086325E+02  0.64668109789E+02  0.00000000000E+00 0.  1.
         11    1    4    4    0    0  0.69299905530E+02  0.26258558357E+02 -0.44161738470E+02  0.86268464332E+02  0.00000000000E+00 0. -1.
</event>
<event>
 8    1  0.7168478E-009  0.1292621E+03  0.7561462E-02  0.1228555E+00
          2   -1    0    0  501    0  0.00000000000E+00  0.00000000000E+00  0.39588655648E+03  0.39588655648E+03  0.00000000000E+00 0. -1.
         -2   -1    0    0    0  501 -0.00000000000E+00 -0.00000000000E+00 -0.52803174437E+02  0.52803174437E+02  0.00000000000E+00 0.  1.
         25    2    1    2    0    0  0.59603368565E+02  0.70302340523E+02  0.22093991159E+03  0.27010479461E+03  0.12508866818E+03 0.  0.
         23    2    1    2    0    0 -0.59603368565E+02 -0.70302340523E+02  0.12214347045E+03  0.17858493631E+03  0.92079158750E+02 0.  0.
          5    1    3    3  502    0 -0.35171917356E+02  0.30518786331E+02  0.10599722524E+03  0.11585052546E+03  0.41800000000E+01 0.  1.
         -5    1    3    3    0  502  0.94775285921E+02  0.39783554192E+02  0.11494268635E+03  0.15425426915E+03  0.41800000000E+01 0.  1.
        -11    1    4    4    0    0 -0.52442962300E+02 -0.17017629321E+02  0.11062211738E+03  0.12360063453E+03  0.00000000000E+00 0. -1.
         11    1    4    4    0    0 -0.71604062644E+01 -0.53284711202E+02  0.11521353070E+02  0.54984301781E+02  0.00000000000E+00 0.  1.
</event>
<event>
 8    1  0.7168478E-009  0.1108940E+03  0.7561462E-02  0.1258923E+00
         -2   -1    0    0    0  501 -0.00000000000E+00  0.00000000000E+00  0.28749921480E+02  0.28749921480E+02  0.00000000000E+00 0.  1.
          2   -1    0    0  501    0  0.00000000000E+00 -0.00000000000E+00 -0.59402232643E+03  0.59402232643E+03  0.00000000000E+00 0. -1.
         25    2    1    2    0    0 -0.53723127367E+02  0.46471520378E+02 -0.29519037917E+03  0.32837527248E+03  0.12508870053E+03 0.  0.
         23    2    1    2    0    0  0.53723127367E+02 -0.46471520378E+02 -0.27008202577E+03  0.29439697542E+03  0.93163844237E+02 0.  0.
          5    1    3    3  502    0 -0.37181159841E+02  0.71605679116E+02 -0.89979424948E+02  0.12092800024E+03  0.41800000000E+01 0.  1.
         -5    1    3    3    0  502 -0.16541967526E+02 -0.25134158739E+02 -0.20521095423E+03  0.20744727224E+03  0.41800000000E+01 0.  1.
        -11    1    4    4    0    0  0.53129645904E+02  0.10068350516E+02 -0.18082570878E+03  0.18873809343E+03  0.00000000000E+00 0. -1.
         11    1    4    4    0    0  0.59348146272E+00 -0.56539870893E+02 -0.89256316990E+02  0.10565888199E+03  0.00000000000E+00 0.  1.
</event>
<event>
 8    1  0.7168478E-009  0.1039183E+03  0.7561462E-02  0.1272266E+00
         -2   -1    0    0    0  501 -0.00000000000E+00  0.00000000000E+00  0.30879983549E+02  0.30879983549E+02  0.00000000000E+00 0.  1.
          2   -1    0    0  501    0  0.00000000000E+00 -0.00000000000E+00 -0.43961866828E+03  0.43961866828E+03  0.00000000000E+00 0. -1.
         25    2    1    2    0    0 -0.75131210021E+01 -0.43413500758E+02 -0.20319904296E+03  0.24264724794E+03  0.12508659736E+03 0.  0.
         23    2    1    2    0    0  0.75131210021E+01  0.43413500758E+02 -0.20553964177E+03  0.22785140389E+03  0.87912108820E+02 0.  0.
          5    1    3    3  502    0  0.10202774743E+02 -0.79496735506E+02 -0.17737329148E+03  0.19468586106E+03  0.41800000000E+01 0. -1.
         -5    1    3    3    0  502 -0.17715895745E+02  0.36083234748E+02 -0.25825751483E+02  0.47961386881E+02  0.41800000000E+01 0. -1.
        -11    1    4    4    0    0 -0.23193302904E+00  0.64603219259E+02 -0.94043511791E+02  0.11409562586E+03  0.00000000000E+00 0. -1.
         11    1    4    4    0    0  0.77450540311E+01 -0.21189718501E+02 -0.11149612998E+03  0.11375577802E+03  0.00000000000E+00 0.  1.
</event>
<event>
 8    1  0.7168478E-009  0.9096446E+02  0.7561462E-02  0.1300533E+00
          2   -1    0    0  501    0  0.00000000000E+00  0.00000000000E+00  0.65941935210E+03  0.65941935210E+03  0.00000000000E+00 0.  1.
         -2   -1    0    0    0  501 -0.00000000000E+00 -0.00000000000E+00 -0.23438768255E+02  0.23438768255E+02  0.00000000000E+00 0. -1.
         25    2    1    2    0    0  0.58961844957E+02 -0.14523102662E+02  0.32172029463E+03  0.35048411764E+03  0.12509096319E+03 0.  0.
         23    2    1    2    0    0 -0.58961844957E+02  0.14523102662E+02  0.31426028921E+03  0.33237400271E+03  0.89585314800E+02 0.  0.
          5    1    3    3  502    0  0.31692574054E+02 -0.30695828507E+02  0.22765127141E+02  0.49823453831E+02  0.41800000000E+01 0.  1.
         -5    1    3    3    0  502  0.27269270903E+02  0.16172725845E+02  0.29895516749E+03  0.30066066381E+03  0.41800000000E+01 0.  1.
        -11    1    4    4    0    0 -0.57817286345E+02 -0.27197928750E+02  0.22393511724E+03  0.23287228831E+03  0.00000000000E+00 0.  1.
         11    1    4    4    0    0 -0.11445586123E+01  0.41721031412E+02  0.90325171978E+02  0.99501714404E+02  0.00000000000E+00 0. -1.
</event>
<event>
 8    1  0.7168478E-009  0.1261087E+03  0.7561462E-02  0.1233347E+00
         -3   -1    0    0    0  501 -0.00000000000E+00  0.00000000000E+00  0.25350450232E+02  0.25350450232E+02  0.00000000000E+00 0.  1.
          3   -1    0    0  501    0  0.00000000000E+00 -0.00000000000E+00 -0.96921605126E+03  0.96921605126E+03  0.00000000000E+00 0. -1.
         25    2    1    2    0    0  0.46778603608E+02 -0.57101549009E+02 -0.77551981518E+03  0.78900272122E+03  0.12508191593E+03 0.  0.
         23    2    1    2    0    0 -0.46778603608E+02  0.57101549009E+02 -0.16834578585E+03  0.20556378027E+03  0.92018147635E+02 0.  0.
          5    1    3    3  502    0  0.37193275480E+02  0.35165016764E+02 -0.32259842827E+03  0.32666058297E+03  0.41800000000E+01 0.  1.
         -5    1    3    3    0  502  0.95853281279E+01 -0.92266565773E+02 -0.45292138692E+03  0.46234213825E+03  0.41800000000E+01 0.  1.
        -11    1    4    4    0    0 -0.13181808958E+02  0.70583356095E+02 -0.68019742476E+02  0.98906297128E+02  0.00000000000E+00 0.  1.
         11    1    4    4    0    0 -0.33596794650E+02 -0.13481807086E+02 -0.10032604337E+03  0.10665748315E+03  0.00000000000E+00 0. -1.
</event>
<event>
 8    1  0.7168478E-009  0.1284745E+03  0.7561462E-02  0.1229737E+00
          3   -1    0    0  501    0  0.00000000000E+00  0.00000000000E+00  0.12612111029E+03  0.12612111029E+03  0.00000000000E+00 0.  1.
         -3   -1    0    0    0  501 -0.00000000000E+00 -0.00000000000E+00 -0.17277378562E+03  0.17277378562E+03  0.00000000000E+00 0. -1.
         25    2    1    2    0    0  0.24811697500E+02 -0.92029633483E+02 -0.34309277416E+02  0.16096917813E+03  0.12509546762E+03 0.  0.
         23    2    1    2    0    0 -0.24811697500E+02  0.92029633483E+02 -0.12343397915E+02  0.13792571778E+03  0.98924569152E+02 0.  0.
          5    1    3    3  502    0 -0.24183050217E+02 -0.10540519796E+02 -0.57156682427E+02  0.63089469972E+02  0.41800000000E+01 0. -1.
         -5    1    3    3    0  502  0.48994747718E+02 -0.81489113687E+02  0.22847405011E+02  0.97879708158E+02  0.41800000000E+01 0. -1.
        -11    1    4    4    0    0 -0.56379059958E+02  0.26435915349E+02 -0.18259671504E+02  0.64891229188E+02  0.00000000000E+00 0.  1.
         11    1    4    4    0    0  0.31567362457E+02  0.65593718133E+02  0.59162735898E+01  0.73034488595E+02  0.00000000000E+00 0. -1.
</event>
<event>
 8    1  0.7168478E-009  0.6738121E+02  0.7561462E-02  0.1369232E+00
          1   -1    0    0  501    0  0.00000000000E+00  0.00000000000E+00  0.71582555393E+02  0.71582555393E+02  0.00000000000E+00 0. -1.
         -1   -1    0    0    0  501 -0.00000000000E+00 -0.00000000000E+00 -0.22232991043E+03  0.22232991043E+03  0.00000000000E+00 0.  1.
         25    2    1    2    0    0 -0.48285760438E+02  0.28083939144E+02 -0.47195461121E+02  0.14489864222E+03  0.12509189689E+03 0.  0.
         23    2    1    2    0    0  0.48285760438E+02 -0.28083939144E+02 -0.10355189392E+03  0.14901382361E+03  0.91443439311E+02 0.  0.
          5    1    3    3  502    0 -0.19756048071E+02  0.33243148058E+02  0.38261818822E+02  0.54560494021E+02  0.41800000000E+01 0.  1.
         -5    1    3    3    0  502 -0.28529712367E+02 -0.51592089139E+01 -0.85457279943E+02  0.90338148197E+02  0.41800000000E+01 0.  1.
        -11    1    4    4    0    0  0.19176225588E+02 -0.31895653507E+02 -0.11235984509E+03  0.11836298040E+03  0.00000000000E+00 0.  1.
         11    1    4    4    0    0  0.29109534851E+02  0.38117143636E+01  0.88079511702E+01  0.30650843209E+02  0.00000000000E+00 0. -1.
</event>
<event>
 8    1  0.7168478E-009  0.1409521E+03  0.7561462E-02  0.1212054E+00
          1   -1    0    0  501    0  0.00000000000E+00  0.00000000000E+00  0.71965941539E+02  0.71965941539E+02  0.00000000000E+00 0. -1.
         -1   -1    0    0    0  501 -0.00000000000E+00 -0.00000000000E+00 -0.31336960045E+03  0.31336960045E+03  0.00000000000E+00 0.  1.
         25    2    1    2    0    0  0.13966359270E+02  0.91350251444E+02 -0.78970265123E+02  0.17442590093E+03  0.12509262373E+03 0.  0.
         23    2    1    2    0    0 -0.13966359270E+02 -0.91350251444E+02 -0.16243339379E+03  0.21090964105E+03  0.97766771669E+02 0.  0.
          5    1    3    3  502    0 -0.40798432592E+02  0.89847527938E+02 -0.37732381529E+02  0.10572745809E+03  0.41800000000E+01 0.  1.
         -5    1    3    3    0  502  0.54764791862E+02  0.15027235066E+01 -0.41237883594E+02  0.68698442842E+02  0.41800000000E+01 0.  1.
        -11    1    4    4    0    0  0.21864621083E+02 -0.89699012905E+02 -0.84666572789E+02  0.12526932234E+03  0.00000000000E+00 0.  1.
         11    1    4    4    0    0 -0.35830980353E+02 -0.16512385394E+01 -0.77766820997E+02  0.85640318716E+02  0.00000000000E+00 0. -1.
</event>
<event>
 8    1  0.7168478E-009  0.8969200E+02  0.7561462E-02  0.1303599E+00
         -3   -1    0    0    0  501 -0.00000000000E+00  0.00000000000E+00  0.10830101661E+03  0.10830101661E+03  0.00000000000E+00 0.  1.
          3   -1    0    0  501    0  0.00000000000E+00 -0.00000000000E+00 -0.13472219958E+03  0.13472219958E+03  0.00000000000E+00 0. -1.
         25    2    1    2    0    0  0.41474960545E+02 -0.20863317514E+02  0.15071062744E+02  0.13427385506E+03  0.12508749278E+03 0.  0.
         23    2    1    2    0    0 -0.41474960545E+02  0.20863317514E+02 -0.41492245720E+02  0.10874936113E+03  0.89159221177E+02 0.  0.
          5    1    3    3  502    0  0.11009824216E+02  0.51703826233E+02  0.16215471079E+02  0.55451923129E+02  0.41800000000E+01 0. -1.
         -5    1    3    3    0  502  0.30465136329E+02 -0.72567143747E+02 -0.11444083358E+01  0.78821931932E+02  0.41800000000E+01 0. -1.
        -11    1    4    4    0    0 -0.27392763525E+02  0.19000620683E+02 -0.69646771968E+02  0.77214376417E+02  0.00000000000E+00 0. -1.
         11    1    4    4    0    0 -0.14082197020E+02  0.18626968305E+01  0.28154526249E+02  0.31534984710E+02  0.00000000000E+00 0.  1.
</event>
<event>
 8    1  0.7168478E-009  0.1034392E+03  0.7561462E-02  0.1273226E+00
         -1   -1    0    0    0  501 -0.00000000000E+00  0.00000000000E+00  0.30913722621E+03  0.30913722621E+03  0.00000000000E+00 0.  1.
          1   -1    0    0  501    0  0.00000000000E+00 -0.00000000000E+00 -0.54004776539E+02  0.54004776539E+02  0.00000000000E+00 0. -1.
         25    2    1    2    0    0 -0.56888364576E+02 -0.28017849570E+02  0.10559179829E+03  0.17555712550E+03  0.12509752408E+03 0.  0.
         23    2    1    2    0    0  0.56888364576E+02  0.28017849570E+02  0.14954065138E+03  0.18758487725E+03  0.93831731508E+02 0.  0.
          5    1    3    3  502    0  0.22738907391E+01  0.21872418865E+02 -0.18642269824E+02  0.29130394956E+02  0.41800000000E+01 0. -1.
         -5    1    3    3    0  502 -0.59162255315E+02 -0.49890268435E+02  0.12423406811E+03  0.14642673055E+03  0.41800000000E+01 0. -1.
        -11    1    4    4    0    0  0.68599500270E+02 -0.80498217500E+01  0.12376186883E+03  0.14173105251E+03  0.00000000000E+00 0.  1.
         11    1    4    4    0    0 -0.11711135694E+02  0.36067671320E+02  0.25778782547E+02  0.45853824740E+02  0.00000000000E+00 0. -1.
</event>
<event>
 8    1  0.7168478E-009  0.8376382E+02  0.7561462E-02  0.1318697E+00
          3   -1    0    0  501    0  0.00000000000E+00  0.00000000000E+00  0.34953806258E+02  0.34953806258E+02  0.00000000000E+00 0. -1.
         -3   -1    0    0    0  501 -0.00000000000E+00 -0.00000000000E+00 -0.36659599420E+03  0.36659599420E+03  0.00000000000E+00 0.  1.
         25    2    1    2    0    0 -0.28926420014E+02  0.38360270030E+01 -0.20011204579E+03  0.23778990605E+03  0.12509098956E+03 0.  0.
         23    2    1    2    0    0  0.28926420014E+02 -0.38360270030E+01 -0.13153014215E+03  0.16375989441E+03  0.93089590420E+02 0.  0.
          5    1    3    3  502    0 -0.53888869483E+02 -0.11816973518E+02 -0.25962678097E+02  0.61116153112E+02  0.41800000000E+01 0. -1.
         -5    1    3    3    0  502  0.24962449468E+02  0.15653000521E+02 -0.17414936769E+03  0.17667375294E+03  0.41800000000E+01 0. -1.
        -11    1    4    4    0    0  0.55301002581E+02 -0.75214223717E+01 -0.40613958480E+02  0.69023664814E+02  0.00000000000E+00 0. -1.
         11    1    4    4    0    0 -0.26374582566E+02  0.36853953686E+01 -0.90916183672E+02  0.94736229596E+02  0.00000000000E+00 0.  1.
</event>
<event>
 8    1  0.7168478E-009  0.1071756E+03  0.7561462E-02  0.1265892E+00
         -2   -1    0    0    0  501 -0.00000000000E+00  0.00000000000E+00  0.47217809303E+02  0.47217809303E+02  0.00000000000E+00 0.  1.
          2   -1    0    0  501    0  0.00000000000E+00 -0.00000000000E+00 -0.31196663652E+03  0.31196663652E+03  0.00000000000E+00 0. -1.
         25    2    1    2    0    0  0.47314011460E+02  0.24654680328E+02 -0.15745355753E+03  0.20805243641E+03  0.12509086527E+03 0.  0.
         23    2    1    2    0    0 -0.47314011460E+02 -0.24654680328E+02 -0.10729526969E+03  0.15113200942E+03  0.92098536527E+02 0.  0.
          5    1    3    3  502    0  0.48384595157E+02 -0.43072783074E+02 -0.99538436537E+02  0.11883478631E+03  0.41800000000E+01 0. -1.
         -5    1    3    3    0  502 -0.10705836966E+01  0.67727463403E+02 -0.57915120991E+02  0.89217650092E+02  0.41800000000E+01 0. -1.
        -11    1    4    4    0    0  0.14145177172E+02  0.25298041464E+01  0.88999491673E+01  0.16902515831E+02  0.00000000000E+00 0.  1.
         11    1    4    4    0    0 -0.61459188632E+02 -0.27184484475E+02 -0.11619521886E+03  0.13422949359E+03  0.00000000000E+00 0. -1.
</event>
<event>
 8    1  0.7168478E-009  0.1574029E+03  0.7561462E-02  0.1191660E+00
         -1   -1    0    0    0  501 -0.00000000000E+00  0.00000000000E+00  0.12300290721E+03  0.12300290721E+03  0.00000000000E+00 0.  1.
          1   -1    0    0  501    0  0.00000000000E+00 -0.00000000000E+00 -0.20530770525E+03  0.20530770525E+03  0.00000000000E+00 0. -1.
         25    2    1    2    0    0  0.10941691954E+03 -0.33917930575E+02 -0.36923148692E+02  0.17358950022E+03  0.12508999713E+03 0.  0.
         23    2    1    2    0    0 -0.10941691954E+03  0.33917930575E+02 -0.45381649352E+02  0.15472111224E+03  0.93576921180E+02 0.  0.
          5    1    3    3  502    0  0.88558657387E+02 -0.79401708536E+02 -0.20564581621E+02  0.12077930921E+03  0.41800000000E+01 0.  1.
         -5    1    3    3    0  502  0.20858262157E+02  0.45483777961E+02 -0.16358567070E+02  0.52810191009E+02  0.41800000000E+01 0.  1.
        -11    1    4    4    0    0 -0.87927216094E+02 -0.17676605829E+02 -0.41132454108E+02  0.98668822354E+02  0.00000000000E+00 0. -1.
         11    1    4    4    0    0 -0.21489703449E+02  0.51594536404E+02 -0.42491952433E+01  0.56052289885E+02  0.00000000000E+00 0.  1.
</event>
<event>
 8    1  0.7168478E-009  0.1304148E+03  0.7561462E-02  0.1226841E+00
         -1   -1    0    0    0  501 -0.00000000000E+00  0.00000000000E+00  0.21603465215E+02  0.21603465215E+02  0.00000000000E+00 0.  1.
          1   -1    0    0  501    0  0.00000000000E+00 -0.00000000000E+00 -0.12059675342E+04  0.12059675342E+04  0.00000000000E+00 0. -1.
         25    2    1    2    0    0  0.87455537485E+02 -0.33997060612E+02 -0.91528167341E+03  0.92854317141E+03  0.12509040063E+03 0.  0.
         23    2    1    2    0    0 -0.87455537485E+02  0.33997060612E+02 -0.26908239553E+03  0.29902782796E+03  0.90598207168E+02 0.  0.
          5    1    3    3  502    0  0.90342839062E+02 -0.73149219846E+02 -0.64715585688E+03  0.65752628269E+03  0.41800000000E+01 0. -1.
         -5    1    3    3    0  502 -0.28873015765E+01  0.39152159234E+02 -0.26812581654E+03  0.27101688873E+03  0.41800000000E+01 0. -1.
        -11    1    4    4    0    0  0.40132143176E+00  0.15174435775E+02  0.16857623901E+00  0.15180677782E+02  0.00000000000E+00 0.  1.
         11    1    4    4    0    0 -0.87856858917E+02  0.18822624838E+02 -0.26925097177E+03  0.28384715017E+03  0.00000000000E+00 0. -1.
</event>
<event>
 8    1  0.7168478E-009  0.2428797E+03  0.7561462E-02  0.1117889E+00
         -2   -1    0    0    0  501 -0.00000000000E+00  0.00000000000E+00  0.25609661175E+03  0.25609661175E+03  0.00000000000E+00 0.  1.
          2   -1    0    0  501    0  0.00000000000E+00 -0.00000000000E+00 -0.48442452460E+03  0.48442452460E+03  0.00000000000E+00 0. -1.
         25    2    1    2    0    0 -0.23498816503E+03  0.16199638037E+02 -0.36640215223E+03  0.45318840966E+03  0.12508929416E+03 0.  0.
         23    2    1    2    0    0  0.23498816503E+03 -0.16199638037E+02  0.13807423939E+03  0.28733272669E+03  0.89519463057E+02 0.  0.
          5    1    3    3  502    0 -0.20305804607E+02  0.55001451752E+01  0.67914883726E+01  0.22498311315E+02  0.41800000000E+01 0. -1.
         -5    1    3    3    0  502 -0.21468236043E+03  0.10699492862E+02 -0.37319364061E+03  0.43069009835E+03  0.41800000000E+01 0. -1.
        -11    1    4    4    0    0  0.65353457225E+02 -0.42072122149E+02  0.24261293977E+02  0.81423265833E+02  0.00000000000E+00 0. -1.
         11    1    4    4    0    0  0.16963470781E+03  0.25872484112E+02  0.11381294541E+03  0.20590946086E+03  0.00000000000E+00 0.  1.
</event>
<event>
 8    1  0.7168478E-009  0.5542731E+02  0.7561462E-02  0.1418089E+00
          2   -1    0    0  501    0  0.00000000000E+00  0.00000000000E+00  0.39490588651E+03  0.39490588651E+03  0.00000000000E+00 0. -1.
         -2   -1    0    0    0  501 -0.00000000000E+00 -0.00000000000E+00 -0.38016187021E+02  0.38016187021E+02  0.00000000000E+00 0.  1.
         25    2    1    2    0    0  0.37322526773E+02 -0.33691903285E+02  0.20297644581E+03  0.24367035118E+03  0.12509071563E+03 0.  0.
         23    2    1    2    0    0 -0.37322526773E+02  0.33691903285E+02  0.15391325368E+03  0.18925172236E+03  0.97973513796E+02 0.  0.
          5    1    3    3  502    0  0.36198770515E+02 -0.38092864585E+02  0.21965192166E+03  0.22588903561E+03  0.41800000000E+01 0. -1.
         -5    1    3    3    0  502  0.11237562581E+01  0.44009612993E+01 -0.16675475849E+02  0.17781315566E+02  0.41800000000E+01 0. -1.
        -11    1    4    4    0    0 -0.24012516470E+02  0.12842811521E+02  0.16118538078E+03  0.16346946422E+03  0.00000000000E+00 0. -1.
         11    1    4    4    0    0 -0.13310010303E+02  0.20849091764E+02 -0.72721271083E+01  0.25782258131E+02  0.00000000000E+00 0.  1.
</event>
<event>
 8    1  0.7168478E-009  0.1241333E+03  0.7561462E-02  0.1236430E+00
          1   -1    0    0  501    0  0.00000000000E+00  0.00000000000E+00  0.39330468492E+03  0.39330468492E+03  0.00000000000E+00 0. -1.
         -1   -1    0    0    0  501 -0.00000000000E+00 -0.00000000000E+00 -0.51458823574E+02  0.51458823574E+02  0.00000000000E+00 0.  1.
         25    2    1    2    0    0 -0.65097449568E+02 -0.56950700175E+01  0.28837928373E+03  0.32106149251E+03  0.12509100257E+03 0.  0.
         23    2    1    2    0    0  0.65097449568E+02  0.56950700175E+01  0.53466577621E+02  0.12370201599E+03  0.90406869622E+02 0.  0.
          5    1    3    3  502    0 -0.25146822991E+02  0.59024914193E+02  0.14761082344E+03  0.16100537506E+03  0.41800000000E+01 0. -1.
         -5    1    3    3    0  502 -0.39950626576E+02 -0.64719984211E+02  0.14076846029E+03  0.16005611745E+03  0.41800000000E+01 0. -1.
        -11    1    4    4    0    0 -0.21069923294E+02  0.48846611549E+01 -0.11855699276E+01  0.21661190140E+02  0.00000000000E+00 0.  1.
         11    1    4    4    0    0  0.86167372862E+02  0.81040886263E+00  0.54652147549E+02  0.10204082585E+03  0.00000000000E+00 0. -1.
</event>
<event>
 8    1  0.7168478E-009  0.1245533E+03  0.7561462E-02  0.1235769E+00
         -4   -1    0    0    0  501 -0.00000000000E+00  0.00000000000E+00  0.77680074219E+02  0.77680074219E+02  0.00000000000E+00 0.  1.
          4   -1    0    0  501    0  0.00000000000E+00 -0.00000000000E+00 -0.22977558375E+03  0.22977558375E+03  0.00000000000E+00 0. -1.
         25    2    1    2    0    0 -0.29596228766E+02  0.63998829799E+02 -0.12863102331E+03  0.19278324777E+03  0.12509058114E+03 0.  0.
         23    2    1    2    0    0  0.29596228766E+02 -0.63998829799E+02 -0.23464486223E+02  0.11467241020E+03  0.87334944750E+02 0.  0.
          5    1    3    3  502    0  0.48026974707E+02  0.36690760737E+02 -0.63427028157E+02  0.87711245140E+02  0.41800000000E+01 0.  1.
         -5    1    3    3    0  502 -0.77623203474E+02  0.27308069061E+02 -0.65203995154E+02  0.10507200263E+03  0.41800000000E+01 0.  1.
        -11    1    4    4    0    0 -0.26673848324E+02 -0.31010310024E+02 -0.27551411390E+02  0.49317479475E+02  0.00000000000E+00 0. -1.
         11    1    4    4    0    0  0.56270077091E+02 -0.32988519775E+02  0.40869251672E+01  0.65354930725E+02  0.00000000000E+00 0.  1.
</event>
<event>
 8    1  0.7168478E-009  0.7769733E+02  0.7561462E-02  0.1335716E+00
          1   -1    0    0  501    0  0.00000000000E+00  0.00000000000E+00  0.12880079159E+03  0.12880079159E+03  0.00000000000E+00 0. -1.
         -1   -1    0    0    0  501 -0.00000000000E+00 -0.00000000000E+00 -0.98109466196E+02  0.98109466196E+02  0.00000000000E+00 0.  1.
         25    2    1    2    0    0 -0.19692170696E+02  0.51771471050E+01 -0.54113266485E+01  0.12684673641E+03  0.12508488176E+03 0.  0.
         23    2    1    2    0    0  0.19692170696E+02 -0.51771471050E+01  0.36102652045E+02  0.10006352137E+03  0.91075366518E+02 0.  0.
          5    1    3    3  502    0 -0.54341682015E+02  0.47172696816E+02 -0.14075465973E+01  0.72095321045E+02  0.41800000000E+01 0.  1.
         -5    1    3    3    0  502  0.34649511319E+02 -0.41995549711E+02 -0.40037800512E+01  0.54751415369E+02  0.41800000000E+01 0.  1.
        -11    1    4    4    0    0  0.98513838772E+01  0.76984465999E+01 -0.29737200061E+02  0.32258594387E+02  0.00000000000E+00 0.  1.
         11    1    4    4    0    0  0.98407868187E+01 -0.12875593705E+02  0.65839852106E+02  0.67804926987E+02  0.00000000000E+00 0. -1.
</event>
<event>
 8    1  0.7168478E-009  0.1040859E+03  0.7561462E-02  0.1271931E+00
         -2   -1    0    0    0  501 -0.00000000000E+00  0.00000000000E+00  0.33500679697E+02  0.33500679697E+02  0.00000000000E+00 0.  1.
          2   -1    0    0  501    0  0.00000000000E+00 -0.00000000000E+00 -0.60517927054E+03  0.60517927054E+03  0.00000000000E+00 0. -1.
         25    2    1    2    0    0 -0.16982746267E+02 -0.11354622953E+02 -0.51020450084E+03  0.52571244755E+03  0.12509038212E+03 0.  0.
         23    2    1    2    0    0  0.16982746267E+02  0.11354622953E+02 -0.61474090004E+02  0.11296750269E+03  0.92548645523E+02 0.  0.
          5    1    3    3  502    0  0.21700861873E+02 -0.54881511244E+02 -0.15823923407E+03  0.16893796281E+03  0.41800000000E+01 0. -1.
         -5    1    3    3    0  502 -0.38683608140E+02  0.43526888291E+02 -0.35196526677E+03  0.35677448474E+03  0.41800000000E+01 0. -1.
        -11    1    4    4    0    0  0.27353050131E+02 -0.34263979057E+02 -0.46350829932E+02  0.63801324812E+02  0.00000000000E+00 0. -1.
         11    1    4    4    0    0 -0.10370303864E+02  0.45618602010E+02 -0.15123260071E+02  0.49166177874E+02  0.00000000000E+00 0.  1.
</event>
<event>
 8    1  0.7168478E-009  0.8446343E+02  0.7561462E-02  0.1316842E+00
         -1   -1    0    0    0  501 -0.00000000000E+00  0.00000000000E+00  0.28730422630E+02  0.28730422630E+02  0.00000000000E+00 0.  1.
          1   -1    0    0  501    0  0.00000000000E+00 -0.00000000000E+00 -0.85397916764E+03  0.85397916764E+03  0.00000000000E+00 0. -1.
         25    2    1    2    0    0  0.17334168098E+02  0.53750821154E+02 -0.71481889599E+03  0.72787576044E+03  0.12508974544E+03 0.  0.
         23    2    1    2    0    0 -0.17334168098E+02 -0.53750821154E+02 -0.11042984902E+03  0.15483382983E+03  0.92677608660E+02 0.  0.
          5    1    3    3  502    0  0.25813589019E+02  0.12507905781E+02 -0.29876651596E+02  0.41627824777E+02  0.41800000000E+01 0. -1.
         -5    1    3    3    0  502 -0.84794209209E+01  0.41242915374E+02 -0.68494224439E+03  0.68624793566E+03  0.41800000000E+01 0. -1.
        -11    1    4    4    0    0 -0.36500163653E+02  0.40569076906E+01 -0.77119295753E+02  0.85417247814E+02  0.00000000000E+00 0. -1.
         11    1    4    4    0    0  0.19165995556E+02 -0.57807728845E+02 -0.33310553268E+02  0.69416582017E+02  0.00000000000E+00 0.  1.
</event>
<event>
 8    1  0.7168478E-009  0.1595504E+03  0.7561462E-02  0.1189205E+00
          2   -1    0    0  501    0  0.00000000000E+00  0.00000000000E+00  0.12152764377E+04  0.12152764377E+04  0.00000000000E+00 0. -1.
         -2   -1    0    0    0  501 -0.00000000000E+00 -0.00000000000E+00 -0.27065047006E+02  0.27065047006E+02  0.00000000000E+00 0.  1.
         25    2    1    2    0    0  0.88072106644E+02  0.11060718052E+03  0.73446773987E+03  0.75834117894E+03  0.12509132029E+03 0.  0.
         23    2    1    2    0    0 -0.88072106644E+02 -0.11060718052E+03  0.45374365078E+03  0.48400030573E+03  0.91555179908E+02 0.  0.
          5    1    3    3  502    0 -0.20440366215E+02  0.47287029457E+02  0.35126190663E+03  0.35504404118E+03  0.41800000000E+01 0. -1.
         -5    1    3    3    0  502  0.10851247286E+03  0.63320151062E+02  0.38320583324E+03  0.40329713776E+03  0.41800000000E+01 0. -1.
        -11    1    4    4    0    0 -0.45576350073E+02 -0.64847400159E+02  0.11575680786E+03  0.14029264970E+03  0.00000000000E+00 0.  1.
         11    1    4    4    0    0 -0.42495756572E+02 -0.45759780360E+02  0.33798684292E+03  0.34370765603E+03  0.00000000000E+00 0. -1.
</event>
<event>
 8    1  0.7168478E-009  0.9374903E+02  0.7561462E-02  0.1294019E+00
         -2   -1    0    0    0  501 -0.00000000000E+00  0.00000000000E+00  0.40959655940E+02  0.40959655940E+02  0.00000000000E+00 0.  1.
          2   -1    0    0  501    0  0.00000000000E+00 -0.00000000000E+00 -0.33594873275E+03  0.33594873275E+03  0.00000000000E+00 0. -1.
         25    2    1    2    0    0  0.21112032570E+02 -0.56385279050E+01 -0.22882966122E+03  0.26170447678E+03  0.12509479763E+03 0.  0.
         23    2    1    2    0    0 -0.21112032570E+02  0.56385279050E+01 -0.66159415582E+02  0.11520391191E+03  0.91746183202E+02 0.  0.
          5    1    3    3  502    0 -0.10314635323E+02 -0.42883936046E+02 -0.22565032388E+02  0.49719983501E+02  0.41800000000E+01 0.  1.
         -5    1    3    3    0  502  0.31426667893E+02  0.37245408141E+02 -0.20626462884E+03  0.21198449328E+03  0.41800000000E+01 0.  1.
        -11    1    4    4    0    0 -0.20635862145E+02 -0.41918527089E+02 -0.34253246403E+02  0.57933467088E+02  0.00000000000E+00 0.  1.
         11    1    4    4    0    0 -0.47617042486E+00  0.47557054994E+02 -0.31906169179E+02  0.57270444817E+02  0.00000000000E+00 0. -1.
</event>
<event>
 8    1  0.7168478E-009  0.2947076E+03  0.7561462E-02  0.1087917E+00
          2   -1    0    0  501    0  0.00000000000E+00  0.00000000000E+00  0.13633810499E+04  0.13633810499E+04  0.00000000000E+00 0.  1.
         -2   -1    0    0    0  501 -0.00000000000E+00 -0.00000000000E+00 -0.68280383571E+02  0.68280383571E+02  0.00000000000E+00 0. -1.
         25    2    1    2    0    0 -0.27253462468E+03  0.73637293092E+02  0.74759743189E+03  0.80885532354E+03  0.12508973447E+03 0.  0.
         23    2    1    2    0    0  0.27253462468E+03 -0.73637293092E+02  0.54750323445E+03  0.62280610994E+03  0.91815501205E+02 0.  0.
          5    1    3    3  502    0 -0.20789044558E+03  0.10369883305E+03  0.50355115319E+03  0.55457472140E+03  0.41800000000E+01 0.  1.
         -5    1    3    3    0  502 -0.64644179099E+02 -0.30061539962E+02  0.24404627870E+03  0.25428060214E+03  0.41800000000E+01 0.  1.
        -11    1    4    4    0    0  0.16760600363E+03 -0.23135579297E+02  0.40400170073E+03  0.43800045853E+03  0.00000000000E+00 0.  1.
         11    1    4    4    0    0  0.10492862105E+03 -0.50501713794E+02  0.14350153372E+03  0.18480565141E+03  0.00000000000E+00 0. -1.
</event>
<event>
 8    1  0.7168478E-009  0.1212536E+03  0.7561462E-02  0.1241043E+00
          2   -1    0    0  501    0  0.00000000000E+00  0.00000000000E+00  0.32360480254E+03  0.32360480254E+03  0.00000000000E+00 0. -1.
         -2   -1    0    0    0  501 -0.00000000000E+00 -0.00000000000E+00 -0.79843762508E+02  0.79843762508E+02  0.00000000000E+00 0.  1.
         25    2    1    2    0    0  0.11631745295E+03 -0.44279419683E+01  0.16627217040E+03  0.23842350526E+03  0.12509986683E+03 0.  0.
         23    2    1    2    0    0 -0.11631745295E+03  0.44279419683E+01  0.77488869625E+02  0.16502505978E+03  0.87632122587E+02 0.  0.
          5    1    3    3  502    0  0.34945335032E+02  0.18006891644E+02  0.14634984523E+03  0.15159542931E+03  0.41800000000E+01 0.  1.
         -5    1    3    3    0  502  0.81372117919E+02 -0.22434833612E+02  0.19922325170E+02  0.86828075955E+02  0.41800000000E+01 0.  1.
        -11    1    4    4    0    0 -0.52900973624E+02  0.12983878312E+02 -0.11249477738E+02  0.55620543469E+02  0.00000000000E+00 0. -1.
         11    1    4    4    0    0 -0.63416479328E+02 -0.85559363432E+01  0.88738347363E+02  0.10940451631E+03  0.00000000000E+00 0.  1.
</event>
<event>
 8    1  0.7168478E-009  0.2171698E+03  0.7561462E-02  0.1136011E+00
          1   -1    0    0  501    0  0.00000000000E+00  0.00000000000E+00  0.77743205655E+03  0.77743205655E+03  0.00000000000E+00 0. -1.
         -1   -1    0    0    0  501 -0.00000000000E+00 -0.00000000000E+00 -0.94465958162E+02  0.94465958162E+02  0.00000000000E+00 0.  1.
         25    2    1    2    0    0 -0.86399331548E+02  0.18029125011E+03  0.58862247048E+03  0.63410856806E+03  0.12508990356E+03 0.  0.
         23    2    1    2    0    0  0.86399331548E+02 -0.18029125011E+03  0.94343627916E+02  0.23778944666E+03  0.87597496856E+02 0.  0.
          5    1    3    3  502    0  0.12985598587E+02 -0.51996374700E+00  0.13572942537E+03  0.13641424208E+03  0.41800000000E+01 0.  1.
         -5    1    3    3    0  502 -0.99384930135E+02  0.18081121386E+03  0.45289304511E+03  0.49769432597E+03  0.41800000000E+01 0.  1.
        -11    1    4    4    0    0 -0.59710852106E+01 -0.70880915435E+02  0.53142698389E+02  0.88791353315E+02  0.00000000000E+00 0.  1.
         11    1    4    4    0    0  0.92370416759E+02 -0.10941033468E+03  0.41200929527E+02  0.14899809335E+03  0.00000000000E+00 0. -1.
</event>
<event>
 8    1  0.7168478E-009  0.1396708E+03  0.7561462E-02  0.1213773E+00
          2   -1    0    0  501    0  0.00000000000E+00  0.00000000000E+00  0.11441115382E+04  0.11441115382E+04  0.00000000000E+00 0. -1.
         -2   -1    0    0    0  501 -0.00000000000E+00 -0.00000000000E+00 -0.37923059534E+02  0.37923059534E+02  0.00000000000E+00 0.  1.
         25    2    1    2    0    0 -0.10022396625E+02  0.13015665276E+03  0.91902788456E+03  0.93664366585E+03  0.12509157243E+03 0.  0.
         23    2    1    2    0    0  0.10022396625E+02 -0.13015665276E+03  0.18716059413E+03  0.24539093190E+03  0.90257513676E+02 0.  0.
          5    1    3    3  502    0  0.57760207303E+01  0.12473327178E+03  0.44235346073E+03  0.45965836023E+03  0.41800000000E+01 0.  1.
         -5    1    3    3    0  502 -0.15798417355E+02  0.54233809790E+01  0.47667442383E+03  0.47698530563E+03  0.41800000000E+01 0.  1.
        -11    1    4    4    0    0  0.24870411245E+02 -0.52121400867E+02  0.21415648275E+02  0.61593893974E+02  0.00000000000E+00 0.  1.
         11    1    4    4    0    0 -0.14848014620E+02 -0.78035251890E+02  0.16574494585E+03  0.18379703793E+03  0.00000000000E+00 0. -1.
</event>
<event>
 8    1  0.7168478E-009  0.1238501E+03  0.7561462E-02  0.1236877E+00
         -1   -1    0    0    0  501 -0.00000000000E+00  0.00000000000E+00  0.23025868949E+03  0.23025868949E+03  0.00000000000E+00 0.  1.
          1   -1    0    0  501    0  0.00000000000E+00 -0.00000000000E+00 -0.96680460988E+02  0.96680460988E+02  0.00000000000E+00 0. -1.
         25    2    1    2    0    0 -0.21742542856E+01 -0.10121458155E+03  0.85895057262E+02  0.18241497084E+03  0.12509253304E+03 0.  0.
         23    2    1    2    0    0  0.21742542856E+01  0.10121458155E+03  0.47683171237E+02  0.14452417964E+03  0.91457283905E+02 0.  0.
          5    1    3    3  502    0  0.25462615598E+02 -0.14102227107E+02  0.86041990169E+02  0.90928070884E+02  0.41800000000E+01 0. -1.
         -5    1    3    3    0  502 -0.27636869884E+02 -0.87112354447E+02 -0.14693290678E+00  0.91486899956E+02  0.41800000000E+01 0. -1.
        -11    1    4    4    0    0 -0.28819679611E+02  0.10055047415E+02 -0.10197276483E+02  0.32181708454E+02  0.00000000000E+00 0. -1.
         11    1    4    4    0    0  0.30993933896E+02  0.91159534140E+02  0.57880447720E+02  0.11234247118E+03  0.00000000000E+00 0.  1.
</event>
<event>
 8    1  0.7168478E-009  0.1055054E+03  0.7561462E-02  0.1269127E+00
          1   -1    0    0  501    0  0.00000000000E+00  0.00000000000E+00  0.28785881698E+03  0.28785881698E+03  0.00000000000E+00 0. -1.
         -1   -1    0    0    0  501 -0.00000000000E+00 -0.00000000000E+00 -0.42840675062E+02  0.42840675062E+02  0.00000000000E+00 0.  1.
         25    2    1    2    0    0  0.21270934276E+02  0.16288980114E+02  0.15491101126E+03  0.20090026082E+03  0.12508281205E+03 0.  0.
         23    2    1    2    0    0 -0.21270934276E+02 -0.16288980114E+02  0.90107130660E+02  0.12979923122E+03  0.89502859795E+02 0.  0.
          5    1    3    3  502    0 -0.45214983356E+02 -0.13899696031E+02  0.95565406839E+02  0.10671370884E+03  0.41800000000E+01 0. -1.
         -5    1    3    3    0  502  0.66485917633E+02  0.30188676145E+02  0.59345604420E+02  0.94186551985E+02  0.41800000000E+01 0. -1.
        -11    1    4    4    0    0  0.35612554585E+00  0.34854765614E+02  0.19391342350E+02  0.39887412420E+02  0.00000000000E+00 0.  1.
         11    1    4    4    0    0 -0.21627059822E+02 -0.51143745728E+02  0.70715788310E+02  0.89911818800E+02  0.00000000000E+00 0. -1.
</event>
<event>
 8    1  0.7168478E-009  0.8534907E+02  0.7561462E-02  0.1314522E+00
          2   -1    0    0  501    0  0.00000000000E+00  0.00000000000E+00  0.34896084868E+02  0.34896084868E+02  0.00000000000E+00 0. -1.
         -2   -1    0    0    0  501 -0.00000000000E+00 -0.00000000000E+00 -0.34585109720E+03  0.34585109720E+03  0.00000000000E+00 0.  1.
         25    2    1    2    0    0 -0.12048163550E+01 -0.74147527185E+01 -0.14719135897E+03  0.19330982598E+03  0.12508781925E+03 0.  0.
         23    2    1    2    0    0  0.12048163550E+01  0.74147527185E+01 -0.16376365337E+03  0.18743735609E+03  0.90872427914E+02 0.  0.
          5    1    3    3  502    0 -0.60473547386E+02 -0.12369107978E+02 -0.98565519092E+02  0.11637301543E+03  0.41800000000E+01 0.  1.
         -5    1    3    3    0  502  0.59268731031E+02  0.49543552598E+01 -0.48625839877E+02  0.76936810551E+02  0.41800000000E+01 0.  1.
        -11    1    4    4    0    0  0.83009878217E+01  0.27068898558E+02 -0.16411406630E+03  0.16653845929E+03  0.00000000000E+00 0.  1.
         11    1    4    4    0    0 -0.70961714666E+01 -0.19654145839E+02  0.35041293005E+00  0.20898896798E+02  0.00000000000E+00 0. -1.
</event>
<event>
 8    1  0.7168478E-009  0.1033740E+03  0.7561462E-02  0.1273357E+00
         -1   -1    0    0    0  501 -0.00000000000E+00  0.00000000000E+00  0.52957923481E+02  0.52957923481E+02  0.00000000000E+00 0.  1.
          1   -1    0    0  501    0  0.00000000000E+00 -0.00000000000E+00 -0.35350106368E+03  0.35350106368E+03  0.00000000000E+00 0. -1.
         25    2    1    2    0    0 -0.83495708907E+02 -0.39877741211E+01 -0.16195695172E+03  0.22105607045E+03  0.12509315060E+03 0.  0.
         23    2    1    2    0    0  0.83495708907E+02  0.39877741211E+01 -0.13858618848E+03  0.18540291671E+03  0.90447079211E+02 0.  0.
          5    1    3    3  502    0 -0.28468177945E+02  0.26685455894E+02  0.77356288053E+01  0.39998288274E+02  0.41800000000E+01 0. -1.
         -5    1    3    3    0  502 -0.55027530961E+02 -0.30673230015E+02 -0.16969258052E+03  0.18105778218E+03  0.41800000000E+01 0. -1.
        -11    1    4    4    0    0  0.74680543048E+02 -0.21241328143E+02 -0.48756022539E+02  0.91681662643E+02  0.00000000000E+00 0.  1.
         11    1    4    4    0    0  0.88151658588E+01  0.25229102264E+02 -0.89830165944E+02  0.93721254066E+02  0.00000000000E+00 0. -1.
</event>
<event>
 8    1  0.7168478E-009  0.1821658E+03  0.7561462E-02  0.1165723E+00
          2   -1    0    0  501    0  0.00000000000E+00  0.00000000000E+00  0.91348439109E+03  0.91348439109E+03  0.00000000000E+00 0. -1.
         -2   -1    0    0    0  501 -0.00000000000E+00 -0.00000000000E+00 -0.46100138556E+02  0.46100138556E+02  0.00000000000E+00 0.  1.
         25    2    1    2    0    0 -0.11378754478E+02 -0.16113144352E+03  0.30351492808E+03  0.36587133437E+03  0.12509078142E+03 0.  0.
         23    2    1    2    0    0  0.11378754478E+02  0.16113144352E+03  0.56386932445E+03  0.59371319528E+03  0.91945228526E+02 0.  0.
          5    1    3    3  502    0 -0.53753178080E+02 -0.25007268148E+02  0.11533374475E+03  0.12974633981E+03  0.41800000000E+01 0.  1.
         -5    1    3    3    0  502  0.42374423603E+02 -0.13612417537E+03  0.18818118333E+03  0.23612499456E+03  0.41800000000E+01 0.  1.
        -11    1    4    4    0    0 -0.28313468772E+01  0.68221043825E+02  0.39125379291E+03  0.39716704019E+03  0.00000000000E+00 0. -1.
         11    1    4    4    0    0  0.14210101355E+02  0.92910399698E+02  0.17261553154E+03  0.19654615509E+03  0.00000000000E+00 0.  1.
</event>
<event>
 8    1  0.7168478E-009  0.1076089E+03  0.7561462E-02  0.1265063E+00
         -2   -1    0    0    0  501 -0.00000000000E+00  0.00000000000E+00  0.15666601879E+02  0.15666601879E+02  0.00000000000E+00 0.  1.
          2   -1    0    0  501    0  0.00000000000E+00 -0.00000000000E+00 -0.77367477788E+03  0.77367477788E+03  0.00000000000E+00 0. -1.
         25    2    1    2    0    0 -0.14528716269E+02 -0.81345663090E+01 -0.46910911699E+03  0.48578668796E+03  0.12509231708E+03 0.  0.
         23    2    1    2    0    0  0.14528716269E+02  0.81345663090E+01 -0.28889905901E+03  0.30355469180E+03  0.91681676737E+02 0.  0.
          5    1    3    3  502    0 -0.66902695782E+02 -0.22901718976E+02 -0.23781821742E+03  0.24814398314E+03  0.41800000000E+01 0. -1.
         -5    1    3    3    0  502  0.52373979513E+02  0.14767152667E+02 -0.23129089957E+03  0.23764270482E+03  0.41800000000E+01 0. -1.
        -11    1    4    4    0    0  0.20735368762E+02  0.46513783494E+02 -0.12229769060E+03  0.13247721578E+03  0.00000000000E+00 0.  1.
         11    1    4    4    0    0 -0.62066524926E+01 -0.38379217185E+02 -0.16660136841E+03  0.17107747602E+03  0.00000000000E+00 0. -1.
</event>
<event>
 8    1  0.7168478E-009  0.1816271E+03  0.7561462E-02  0.1166238E+00
          2   -1    0    0  501    0  0.00000000000E+00  0.00000000000E+00  0.12480392570E+04  0.12480392570E+04  0.00000000000E+00 0. -1.
         -2   -1    0    0    0  501 -0.00000000000E+00 -0.00000000000E+00 -0.30616257940E+02  0.30616257940E+02  0.00000000000E+00 0.  1.
         25    2    1    2    0    0 -0.15500259926E+03 -0.37587916901E+02  0.54538162702E+03  0.58183130372E+03  0.12509152500E+03 0.  0.
         23    2    1    2    0    0  0.15500259926E+03  0.37587916901E+02  0.67204137199E+03  0.69682421117E+03  0.92117958748E+02 0.  0.
          5    1    3    3  502    0 -0.61012194554E+02 -0.59347701485E+02  0.38749315082E+03  0.39675313722E+03  0.41800000000E+01 0.  1.
         -5    1    3    3    0  502 -0.93990404708E+02  0.21759784584E+02  0.15788847620E+03  0.18507816651E+03  0.41800000000E+01 0.  1.
        -11    1    4    4    0    0  0.48374604148E+02 -0.28379769253E+02  0.26669382997E+03  0.27252726941E+03  0.00000000000E+00 0. -1.
         11    1    4    4    0    0  0.10662799511E+03  0.65967686154E+02  0.40534754202E+03  0.42429694175E+03  0.00000000000E+00 0.  1.
</event>
<event>
 8    1  0.7168478E-009  0.1058085E+03  0.7561462E-02  0.1268535E+00
          1   -1    0    0  501    0  0.00000000000E+00  0.00000000000E+00  0.40006875292E+03  0.40006875292E+03  0.00000000000E+00 0. -1.
         -1   -1    0    0    0  501 -0.00000000000E+00 -0.00000000000E+00 -0.34831723609E+02  0.34831723609E+02  0.00000000000E+00 0.  1.
         25    2    1    2    0    0  0.23563966755E+02  0.30374534079E+02  0.25897738530E+03  0.29016294227E+03  0.12508946447E+03 0.  0.
         23    2    1    2    0    0 -0.23563966755E+02 -0.30374534079E+02  0.10625964401E+03  0.14473753426E+03  0.90443181214E+02 0.  0.
          5    1    3    3  502    0  0.12183068998E+02  0.70806602282E+02  0.86149945145E+02  0.11225545664E+03  0.41800000000E+01 0.  1.
         -5    1    3    3    0  502  0.11380897757E+02 -0.40432068203E+02  0.17282744016E+03  0.17790748563E+03  0.41800000000E+01 0.  1.
        -11    1    4    4    0    0  0.21042410552E+02 -0.45667750124E+02  0.64224514918E+02  0.81566627732E+02  0.00000000000E+00 0.  1.
         11    1    4    4    0    0 -0.44606377307E+02  0.15293216045E+02  0.42035129091E+02  0.63170906524E+02  0.00000000000E+00 0. -1.
</event>
<event>
 8    1  0.7168478E-009  0.1962572E+03  0.7561462E-02  0.1152936E+00
         -2   -1    0    0    0  501 -0.00000000000E+00  0.00000000000E+00  0.57144860594E+02  0.57144860594E+02  0.00000000000E+00 0.  1.
          2   -1    0    0  501    0  0.00000000000E+00 -0.00000000000E+00 -0.90486712227E+03  0.90486712227E+03  0.00000000000E+00 0. -1.
         25    2    1    2    0    0 -0.96354660373E+02 -0.16793610941E+03 -0.34879486958E+03  0.41808215101E+03  0.12509223209E+03 0.  0.
         23    2    1    2    0    0  0.96354660373E+02  0.16793610941E+03 -0.49892739209E+03  0.54392983185E+03  0.97182107285E+02 0.  0.
          5    1    3    3  502    0 -0.90828797086E+02 -0.16348152833E+03 -0.35909195053E+03  0.40489576661E+03  0.41800000000E+01 0. -1.
         -5    1    3    3    0  502 -0.55258632872E+01 -0.44545810793E+01  0.10297080943E+02  0.13186384403E+02  0.41800000000E+01 0. -1.
        -11    1    4    4    0    0  0.30878419249E+02  0.91477284928E+02 -0.13261239486E+03  0.16403541600E+03  0.00000000000E+00 0.  1.
         11    1    4    4    0    0  0.65476241124E+02  0.76458824483E+02 -0.36631499723E+03  0.37989441585E+03  0.00000000000E+00 0. -1.
</event>
<event>
 8    1  0.7168478E-009  0.1229783E+03  0.7561462E-02  0.1238263E+00
         -1   -1    0    0    0  501 -0.00000000000E+00  0.00000000000E+00  0.88105509635E+02  0.88105509635E+02  0.00000000000E+00 0.  1.
          1   -1    0    0  501    0  0.00000000000E+00 -0.00000000000E+00 -0.23468576977E+03  0.23468576977E+03  0.00000000000E+00 0. -1.
         25    2    1    2    0    0 -0.17636594179E+02 -0.89468478624E+02 -0.81142321469E+02  0.17477752765E+03  0.12508976663E+03 0.  0.
         23    2    1    2    0    0  0.17636594179E+02  0.89468478624E+02 -0.65437938664E+02  0.14801375175E+03  0.96489837649E+02 0.  0.
          5    1    3    3  502    0  0.53228038654E+02 -0.51857296894E+02 -0.40851106180E+02  0.84903996469E+02  0.41800000000E+01 0. -1.
         -5    1    3    3    0  502 -0.70864632833E+02 -0.37611181730E+02 -0.40291215288E+02  0.89873531182E+02  0.41800000000E+01 0. -1.
        -11    1    4    4    0    0  0.27326534293E+01  0.13579521251E+02  0.25266348082E+02  0.28814217629E+02  0.00000000000E+00 0.  1.
         11    1    4    4    0    0  0.14903940749E+02  0.75888957372E+02 -0.90704286746E+02  0.11919953412E+03  0.00000000000E+00 0. -1.
</event>
<event>
 8    1  0.7168478E-009  0.1149718E+03  0.7561462E-02  0.1251630E+00
         -2   -1    0    0    0  501 -0.00000000000E+00  0.00000000000E+00  0.63806144292E+03  0.63806144292E+03  0.00000000000E+00 0.  1.
          2   -1    0    0  501    0  0.00000000000E+00 -0.00000000000E+00 -0.34391819116E+02  0.34391819116E+02  0.00000000000E+00 0. -1.
         25    2    1    2    0    0 -0.29272744663E+02 -0.79399353380E+02  0.45434447123E+03  0.47878783547E+03  0.12509093475E+03 0.  0.
         23    2    1    2    0    0  0.29272744663E+02  0.79399353380E+02  0.14932515257E+03  0.19366542657E+03  0.89705882523E+02 0.  0.
          5    1    3    3  502    0  0.53483232765E+01 -0.10144259042E+03  0.38406677152E+03  0.39729581058E+03  0.41800000000E+01 0. -1.
         -5    1    3    3    0  502 -0.34621067940E+02  0.22043237044E+02  0.70277699708E+02  0.81492024891E+02  0.41800000000E+01 0. -1.
        -11    1    4    4    0    0 -0.14816718861E+01  0.20681441226E+02  0.11896584257E+03  0.12075921936E+03  0.00000000000E+00 0.  1.
         11    1    4    4    0    0  0.30754416549E+02  0.58717912154E+02  0.30359310003E+02  0.72906207204E+02  0.00000000000E+00 0. -1.
</event>
<event>
 8    1  0.7168478E-009  0.1225076E+03  0.7561462E-02  0.1239017E+00
          2   -1    0    0  501    0  0.00000000000E+00  0.00000000000E+00  0.12300221661E+03  0.12300221661E+03  0.00000000000E+00 0. -1.
         -2   -1    0    0    0  501 -0.00000000000E+00 -0.00000000000E+00 -0.22558845275E+03  0.22558845275E+03  0.00000000000E+00 0.  1.
         25    2    1    2    0    0 -0.63007102729E+01  0.86368602551E+02  0.38675056660E+02  0.15697762831E+03  0.12508789440E+03 0.  0.
         23    2    1    2    0    0  0.63007102729E+01 -0.86368602551E+02 -0.14126129280E+03  0.19161304105E+03  0.96237052106E+02 0.  0.
          5    1    3    3  502    0  0.50894148026E+02  0.79286717110E+02  0.22076674427E+02  0.96857884383E+02  0.41800000000E+01 0.  1.
         -5    1    3    3    0  502 -0.57194858299E+02  0.70818854415E+01  0.16598382233E+02  0.60119743928E+02  0.41800000000E+01 0.  1.
        -11    1    4    4    0    0  0.18397792122E+02 -0.71111686644E+02 -0.15240253055E+03  0.16918002852E+03  0.00000000000E+00 0.  1.
         11    1    4    4    0    0 -0.12097081849E+02 -0.15256915907E+02  0.11141237750E+02  0.22433012523E+02  0.00000000000E+00 0. -1.
</event>
<event>
 8    1  0.7168478E-009  0.2161331E+03  0.7561462E-02  0.1136799E+00
          1   -1    0    0  501    0  0.00000000000E+00  0.00000000000E+00  0.15547265948E+03  0.15547265948E+03  0.00000000000E+00 0. -1.
         -1   -1    0    0    0  501 -0.00000000000E+00 -0.00000000000E+00 -0.30995138793E+03  0.30995138793E+03  0.00000000000E+00 0.  1.
         25    2    1    2    0    0 -0.15212087547E+03 -0.11447983061E+03 -0.82609163060E+02  0.24232191396E+03  0.12509693759E+03 0.  0.
         23    2    1    2    0    0  0.15212087547E+03  0.11447983061E+03 -0.71869565395E+02  0.22310213345E+03  0.91449084994E+02 0.  0.
          5    1    3    3  502    0 -0.12186625075E+02  0.22078292706E+02  0.79965955073E+01  0.26784002300E+02  0.41800000000E+01 0.  1.
         -5    1    3    3    0  502 -0.13993425040E+03 -0.13655812332E+03 -0.90605758567E+02  0.21553791166E+03  0.41800000000E+01 0.  1.
        -11    1    4    4    0    0  0.31594984909E+01 -0.14042015517E+02 -0.64138193438E+01  0.15757465185E+02  0.00000000000E+00 0.  1.
         11    1    4    4    0    0  0.14896137698E+03  0.12852184613E+03 -0.65455746051E+02  0.20734466826E+03  0.00000000000E+00 0. -1.
</event>
<event>
 8    1  0.7168478E-009  0.1657456E+03  0.7561462E-02  0.1182359E+00
         -2   -1    0    0    0  501 -0.00000000000E+00  0.00000000000E+00  0.15858909029E+03  0.15858909029E+03  0.00000000000E+00 0.  1.
          2   -1    0    0  501    0  0.00000000000E+00 -0.00000000000E+00 -0.19660259026E+03  0.19660259026E+03  0.00000000000E+00 0. -1.
         25    2    1    2    0    0 -0.33746948523E+02  0.13186266173E+03 -0.48522294346E+02  0.19112516863E+03  0.12509116253E+03 0.  0.
         23    2    1    2    0    0  0.33746948523E+02 -0.13186266173E+03  0.10508794378E+02  0.16406651192E+03  0.90998722417E+02 0.  0.
          5    1    3    3  502    0 -0.76871519296E+02  0.49095977873E+02 -0.20343666027E+02  0.93546687112E+02  0.41800000000E+01 0. -1.
         -5    1    3    3    0  502  0.43124570774E+02  0.82766683862E+02 -0.28178628319E+02  0.97578481520E+02  0.41800000000E+01 0. -1.
        -11    1    4    4    0    0  0.21740566228E+02 -0.93554476198E+01  0.31287244912E+02  0.39230961169E+02  0.00000000000E+00 0.  1.
         11    1    4    4    0    0  0.12006382295E+02 -0.12250721411E+03 -0.20778450533E+02  0.12483555076E+03  0.00000000000E+00 0. -1.
</event>
<event>
 8    1  0.7168478E-009  0.1188861E+03  0.7561462E-02  0.1244946E+00
         -1   -1    0    0    0  501 -0.00000000000E+00  0.00000000000E+00  0.33577324241E+03  0.33577324241E+03  0.00000000000E+00 0.  1.
          1   -1    0    0  501    0  0.00000000000E+00 -0.00000000000E+00 -0.68491209926E+02  0.68491209926E+02  0.00000000000E+00 0. -1.
         25    2    1    2    0    0  0.93274614705E+02 -0.97970269205E+00  0.20891166939E+03  0.26075399075E+03  0.12508974587E+03 0.  0.
         23    2    1    2    0    0 -0.93274614705E+02  0.97970269205E+00  0.58370363091E+02  0.14351046158E+03  0.92125130827E+02 0.  0.
          5    1    3    3  502    0  0.11553795725E+03  0.14769551216E+02  0.20049165482E+03  0.23190846311E+03  0.41800000000E+01 0. -1.
         -5    1    3    3    0  502 -0.22263342543E+02 -0.15749253908E+02  0.84200145694E+01  0.28845527646E+02  0.41800000000E+01 0. -1.
        -11    1    4    4    0    0 -0.76398340056E+02  0.39222044610E+01 -0.61584461130E+01  0.76746442978E+02  0.00000000000E+00 0. -1.
         11    1    4    4    0    0 -0.16876274649E+02 -0.29425017690E+01  0.64528809204E+02  0.66764018602E+02  0.00000000000E+00 0.  1.
</event>
<event>
 8    1  0.7168478E-009  0.1377381E+03  0.7561462E-02  0.1216405E+00
         -2   -1    0    0    0  501 -0.00000000000E+00  0.00000000000E+00  0.96535330813E+02  0.96535330813E+02  0.00000000000E+00 0. -1.
          2   -1    0    0  501    0  0.00000000000E+00 -0.00000000000E+00 -0.28354671023E+03  0.28354671023E+03  0.00000000000E+00 0.  1.
         25    2    1    2    0    0  0.45662870124E+02  0.11496409802E+03 -0.89465652891E+02  0.19736830646E+03  0.12509318049E+03 0.  0.
         23    2    1    2    0    0 -0.45662870124E+02 -0.11496409802E+03 -0.97545726522E+02  0.18271373458E+03  0.92559702369E+02 0.  0.
          5    1    3    3  502    0  0.16116233445E+02  0.60194538091E+02  0.24791924581E+02  0.67195441221E+02  0.41800000000E+01 0.  1.
         -5    1    3    3    0  502  0.29546636679E+02  0.54769559925E+02 -0.11425757747E+03  0.13017286523E+03  0.41800000000E+01 0.  1.
        -11    1    4    4    0    0 -0.34218134919E+02 -0.12846908108E+03 -0.97740874929E+02  0.16501049719E+03  0.00000000000E+00 0.  1.
         11    1    4    4    0    0 -0.11444735205E+02  0.13504983062E+02  0.19514840691E+00  0.17703237397E+02  0.00000000000E+00 0. -1.
</event>
<event>
 8    1  0.7168478E-009  0.1079963E+03  0.7561462E-02  0.1264326E+00
         -4   -1    0    0    0  501 -0.00000000000E+00  0.00000000000E+00  0.28589040912E+03  0.28589040912E+03  0.00000000000E+00 0.  1.
          4   -1    0    0  501    0  0.00000000000E+00 -0.00000000000E+00 -0.54015294601E+02  0.54015294601E+02  0.00000000000E+00 0. -1.
         25    2    1    2    0    0 -0.11332770545E+02  0.18494308833E+02  0.20731437384E+03  0.24309770379E+03  0.12508706105E+03 0.  0.
         23    2    1    2    0    0  0.11332770545E+02 -0.18494308833E+02  0.24560740680E+02  0.96807999925E+02  0.91093840183E+02 0.  0.
          5    1    3    3  502    0  0.56560036641E+02  0.12366426116E+02  0.10719070402E+03  0.12189866967E+03  0.41800000000E+01 0. -1.
         -5    1    3    3    0  502 -0.67892807187E+02  0.61278827165E+01  0.10012366982E+03  0.12119903412E+03  0.41800000000E+01 0. -1.
        -11    1    4    4    0    0 -0.37128612979E+02 -0.17818120573E+02 -0.25736238286E+01  0.41263093220E+02  0.00000000000E+00 0. -1.
         11    1    4    4    0    0  0.48461383524E+02 -0.67618826040E+00  0.27134364508E+02  0.55544906705E+02  0.00000000000E+00 0.  1.
</event>
<event>
 8    1  0.7168478E-009  0.6417149E+02  0.7561462E-02  0.1381115E+00
          1   -1    0    0  501    0  0.00000000000E+00  0.00000000000E+00  0.10699189142E+03  0.10699189142E+03  0.00000000000E+00 0.  1.
         -1   -1    0    0    0  501 -0.00000000000E+00 -0.00000000000E+00 -0.13690530101E+03  0.13690530101E+03  0.00000000000E+00 0. -1.
         25    2    1    2    0    0  0.38255262733E+02 -0.12667230844E+02 -0.58379026577E+02  0.14380240880E+03  0.12508836144E+03 0.  0.
         23    2    1    2    0    0 -0.38255262733E+02  0.12667230844E+02  0.28465616991E+02  0.10009478364E+03  0.87090473054E+02 0.  0.
          5    1    3    3  502    0 -0.59435897455E+01 -0.11087501886E+02  0.36611320883E+02  0.38937387868E+02  0.41800000000E+01 0. -1.
         -5    1    3    3    0  502  0.44198852479E+02 -0.15797289583E+01 -0.94990347460E+02  0.10486502093E+03  0.41800000000E+01 0. -1.
        -11    1    4    4    0    0 -0.52859687326E+02  0.16833573677E+02  0.49365642893E+02  0.74259561305E+02  0.00000000000E+00 0.  1.
         11    1    4    4    0    0  0.14604424593E+02 -0.41663428333E+01 -0.20900025902E+02  0.25835222333E+02  0.00000000000E+00 0. -1.
</event>
<event>
 8    1  0.7168478E-009  0.8725821E+02  0.7561462E-02  0.1309631E+00
          2   -1    0    0  501    0  0.00000000000E+00  0.00000000000E+00  0.53205941605E+03  0.53205941605E+03  0.00000000000E+00 0. -1.
         -2   -1    0    0    0  501 -0.00000000000E+00 -0.00000000000E+00 -0.23718117192E+02  0.23718117192E+02  0.00000000000E+00 0.  1.
         25    2    1    2    0    0  0.20201077399E+02  0.29832841805E+02  0.28973663535E+03  0.31763608399E+03  0.12508909628E+03 0.  0.
         23    2    1    2    0    0 -0.20201077399E+02 -0.29832841805E+02  0.21860466351E+03  0.23814144926E+03  0.87322786071E+02 0.  0.
          5    1    3    3  502    0 -0.21073552242E+02 -0.96163611242E+01  0.13008533835E+01  0.23574003158E+02  0.41800000000E+01 0. -1.
         -5    1    3    3    0  502  0.41274629641E+02  0.39449202929E+02  0.28843578197E+03  0.29406208083E+03  0.41800000000E+01 0. -1.
        -11    1    4    4    0    0 -0.49382215602E+02  0.34063373852E+01  0.10057042193E+03  0.11209199847E+03  0.00000000000E+00 0.  1.
         11    1    4    4    0    0  0.29181138203E+02 -0.33239179190E+02  0.11803424158E+03  0.12604945079E+03  0.00000000000E+00 0. -1.
</event>
<event>
 8    1  0.7168478E-009  0.9871864E+02  0.7561462E-02  0.1283014E+00
         -1   -1    0    0    0  501 -0.00000000000E+00  0.00000000000E+00  0.12264616709E+03  0.12264616709E+03  0.00000000000E+00 0.  1.
          1   -1    0    0  501    0  0.00000000000E+00 -0.00000000000E+00 -0.15495850668E+03  0.15495850668E+03  0.00000000000E+00 0. -1.
         25    2    1    2    0    0  0.81961478566E+02 -0.57609257288E+01 -0.13853739809E+02  0.15030507252E+03  0.12509522966E+03 0.  0.
         23    2    1    2    0    0 -0.81961478566E+02  0.57609257288E+01 -0.18458599781E+02  0.12729960125E+03  0.95465157715E+02 0.  0.
          5    1    3    3  502    0  0.10808813976E+02 -0.94913601696E+01  0.51436889638E+02  0.53573709906E+02  0.41800000000E+01 0. -1.
         -5    1    3    3    0  502  0.71152664589E+02  0.37304344408E+01 -0.65290629446E+02  0.96731362612E+02  0.41800000000E+01 0. -1.
        -11    1    4    4    0    0 -0.95873383268E+02  0.10362055726E+02 -0.37331960097E+02  0.10340576900E+03  0.00000000000E+00 0. -1.
         11    1    4    4    0    0  0.13911904702E+02 -0.46011299974E+01  0.18873360316E+02  0.23893832244E+02  0.00000000000E+00 0.  1.
</event>
<event>
 8    1  0.7168478E-009  0.1529455E+03  0.7561462E-02  0.1196900E+00
          3   -1    0    0  501    0  0.00000000000E+00  0.00000000000E+00  0.17773210418E+03  0.17773210418E+03  0.00000000000E+00 0. -1.
         -3   -1    0    0    0  501 -0.00000000000E+00 -0.00000000000E+00 -0.16258626002E+03  0.16258626002E+03  0.00000000000E+00 0.  1.
         25    2    1    2    0    0 -0.11713326159E+03  0.95113755147E+01  0.64555936193E+02  0.18337263191E+03  0.12508951195E+03 0.  0.
         23    2    1    2    0    0  0.11713326159E+03 -0.95113755147E+01 -0.49410092040E+02  0.15694573229E+03  0.91542003778E+02 0.  0.
          5    1    3    3  502    0 -0.94883971269E+02 -0.42960036024E+02  0.70613367866E+02  0.12590572989E+03  0.41800000000E+01 0. -1.
         -5    1    3    3    0  502 -0.22249290318E+02  0.52471411539E+02 -0.60574316725E+01  0.57466902013E+02  0.41800000000E+01 0. -1.
        -11    1    4    4    0    0  0.97650238722E+02 -0.42256586899E+02 -0.18753541971E+02  0.10804111993E+03  0.00000000000E+00 0.  1.
         11    1    4    4    0    0  0.19483022866E+02  0.32745211385E+02 -0.30656550069E+02  0.48904612367E+02  0.00000000000E+00 0. -1.
</event>
<event>
 8    1  0.7168478E-009  0.1648146E+03  0.7561462E-02  0.1183366E+00
         -2   -1    0    0    0  501 -0.00000000000E+00  0.00000000000E+00  0.11723904491E+03  0.11723904491E+03  0.00000000000E+00 0.  1.
          2   -1    0    0  501    0  0.00000000000E+00 -0.00000000000E+00 -0.26639721079E+03  0.26639721079E+03  0.00000000000E+00 0. -1.
         25    2    1    2    0    0  0.93967886020E+02 -0.89517200160E+02 -0.15586649485E+02  0.18092309502E+03  0.12508768900E+03 0.  0.
         23    2    1    2    0    0 -0.93967886020E+02  0.89517200160E+02 -0.13357151640E+03  0.20271316068E+03  0.80049876909E+02 0.  0.
          5    1    3    3  502    0  0.89558405227E+02 -0.11855548121E+03 -0.29273309294E+01  0.14866792437E+03  0.41800000000E+01 0.  1.
         -5    1    3    3    0  502  0.44094807923E+01  0.29038281046E+02 -0.12659318555E+02  0.32255170644E+02  0.41800000000E+01 0.  1.
        -11    1    4    4    0    0 -0.95689944202E+02  0.43226701612E+02 -0.80769755920E+02  0.13247213528E+03  0.00000000000E+00 0.  1.
         11    1    4    4    0    0  0.17220581821E+01  0.46290498549E+02 -0.52801760479E+02  0.70241025405E+02  0.00000000000E+00 0. -1.
</event>
<event>
 8    1  0.7168478E-009  0.1765712E+03  0.7561462E-02  0.1171163E+00
         -2   -1    0    0    0  501 -0.00000000000E+00  0.00000000000E+00  0.50720190728E+02  0.50720190728E+02  0.00000000000E+00 0.  1.
          2   -1    0    0  501    0  0.00000000000E+00 -0.00000000000E+00 -0.10378802378E+04  0.10378802378E+04  0.00000000000E+00 0. -1.
         25    2    1    2    0    0  0.82387894393E+02 -0.12020973849E+03 -0.18067146010E+03  0.26367903425E+03  0.12508521189E+03 0.  0.
         23    2    1    2    0    0 -0.82387894393E+02  0.12020973849E+03 -0.80648858700E+03  0.82492139432E+03  0.93985740743E+02 0.  0.
          5    1    3    3  502    0  0.59933090902E+02  0.15356447831E+01 -0.25898642455E+02  0.65441161901E+02  0.41800000000E+01 0. -1.
         -5    1    3    3    0  502  0.22454803491E+02 -0.12174538328E+03 -0.15477281765E+03  0.19823787234E+03  0.41800000000E+01 0. -1.
        -11    1    4    4    0    0 -0.40886730581E+02 -0.11624511004E+01 -0.12677124377E+03  0.13320669757E+03  0.00000000000E+00 0.  1.
         11    1    4    4    0    0 -0.41501163812E+02  0.12137218959E+03 -0.67971734323E+03  0.69171469674E+03  0.00000000000E+00 0. -1.
</event>
<event>
 8    1  0.7168478E-009  0.1133708E+03  0.7561462E-02  0.1254452E+00
          1   -1    0    0  501    0  0.00000000000E+00  0.00000000000E+00  0.12311938978E+04  0.12311938978E+04  0.00000000000E+00 0. -1.
         -1   -1    0    0    0  501 -0.00000000000E+00 -0.00000000000E+00 -0.21731340868E+02  0.21731340868E+02  0.00000000000E+00 0.  1.
         25    2    1    2    0    0 -0.21793777830E+02  0.31580313112E+02  0.10890205089E+04  0.10968537001E+04  0.12510030250E+03 0.  0.
         23    2    1    2    0    0  0.21793777830E+02 -0.31580313112E+02  0.12044204811E+03  0.15607153865E+03  0.91540992426E+02 0.  0.
          5    1    3    3  502    0  0.47451952366E+02 -0.11577219558E+02  0.43226732239E+03  0.43503819396E+03  0.41800000000E+01 0.  1.
         -5    1    3    3    0  502 -0.69245730196E+02  0.43157532670E+02  0.65675318647E+03  0.66181550610E+03  0.41800000000E+01 0.  1.
        -11    1    4    4    0    0 -0.53999071162E+01 -0.57913346685E+02  0.91495385921E+02  0.10841826583E+03  0.00000000000E+00 0.  1.
         11    1    4    4    0    0  0.27193684946E+02  0.26333033573E+02  0.28946662188E+02  0.47653272815E+02  0.00000000000E+00 0. -1.
</event>
<event>
 8    1  0.7168478E-009  0.2185355E+03  0.7561462E-02  0.1134980E+00
         -1   -1    0    0    0  501 -0.00000000000E+00  0.00000000000E+00  0.17877153843E+03  0.17877153843E+03  0.00000000000E+00 0.  1.
          1   -1    0    0  501    0  0.00000000000E+00 -0.00000000000E+00 -0.33597741377E+03  0.33597741377E+03  0.00000000000E+00 0. -1.
         25    2    1    2    0    0 -0.13625432295E+02 -0.19870334569E+03 -0.17754022590E+03  0.29468136203E+03  0.12509157175E+03 0.  0.
         23    2    1    2    0    0  0.13625432295E+02  0.19870334569E+03  0.20334350557E+02  0.22006759018E+03  0.91365127056E+02 0.  0.
          5    1    3    3  502    0 -0.61381871471E+02 -0.13543022829E+03 -0.14840584481E+03  0.21012103191E+03  0.41800000000E+01 0. -1.
         -5    1    3    3    0  502  0.47756439175E+02 -0.63273117396E+02 -0.29134381091E+02  0.84560330115E+02  0.41800000000E+01 0. -1.
        -11    1    4    4    0    0 -0.21879508167E+02  0.33854825398E+02  0.31370596695E+02  0.51078140308E+02  0.00000000000E+00 0.  1.
         11    1    4    4    0    0  0.35504940462E+02  0.16484852029E+03 -0.11036246138E+02  0.16898944987E+03  0.00000000000E+00 0. -1.
</event>
<event>
 8    1  0.7168478E-009  0.1707874E+03  0.7561462E-02  0.1177029E+00
          2   -1    0    0  501    0  0.00000000000E+00  0.00000000000E+00  0.98566919401E+03  0.98566919401E+03  0.00000000000E+00 0. -1.
         -2   -1    0    0    0  501 -0.00000000000E+00 -0.00000000000E+00 -0.36895091959E+02  0.36895091959E+02  0.00000000000E+00 0.  1.
         25    2    1    2    0    0  0.11706841834E+03 -0.92678694334E+02  0.62173555755E+03  0.65153493099E+03  0.12509319655E+03 0.  0.
         23    2    1    2    0    0 -0.11706841834E+03  0.92678694334E+02  0.32703854450E+03  0.37102935497E+03  0.91729045078E+02 0.  0.
          5    1    3    3  502    0 -0.19316291009E+02  0.65396925443E+01  0.13017282063E+03  0.13182686489E+03  0.41800000000E+01 0.  1.
         -5    1    3    3    0  502  0.13638470934E+03 -0.99218386878E+02  0.49156273692E+03  0.51970806610E+03  0.41800000000E+01 0.  1.
        -11    1    4    4    0    0 -0.28289465779E+02  0.80891031350E+01  0.16615941503E+03  0.16874441818E+03  0.00000000000E+00 0. -1.
         11    1    4    4    0    0 -0.88778952557E+02  0.84589591199E+02  0.16087912947E+03  0.20228493680E+03  0.00000000000E+00 0.  1.
</event>
<event>
 8    1  0.7168478E-009  0.1242155E+03  0.7561462E-02  0.1236300E+00
          2   -1    0    0  501    0  0.00000000000E+00  0.00000000000E+00  0.85102695708E+02  0.85102695708E+02  0.00000000000E+00 0. -1.
         -2   -1    0    0    0  501 -0.00000000000E+00 -0.00000000000E+00 -0.27984896117E+03  0.27984896117E+03  0.00000000000E+00 0.  1.
         25    2    1    2    0    0 -0.79116508491E+01  0.94350466586E+02 -0.16998386796E+03  0.23131733505E+03  0.12509432186E+03 0.  0.
         23    2    1    2    0    0  0.79116508491E+01 -0.94350466586E+02 -0.24762397496E+02  0.13363432183E+03  0.90996433321E+02 0.  0.
          5    1    3    3  502    0  0.46159947593E+02  0.51389924693E+02 -0.13948049751E+03  0.15570467786E+03  0.41800000000E+01 0.  1.
         -5    1    3    3    0  502 -0.54071598442E+02  0.42960541893E+02 -0.30503370455E+02  0.75612657187E+02  0.41800000000E+01 0.  1.
        -11    1    4    4    0    0 -0.24356076991E+02 -0.39801098237E+02 -0.47228393625E+02  0.66391769608E+02  0.00000000000E+00 0.  1.
         11    1    4    4    0    0  0.32267727840E+02 -0.54549368349E+02  0.22465996130E+02  0.67242552222E+02  0.00000000000E+00 0. -1.
</event>
<event>
 8    1  0.7168478E-009  0.1157992E+03  0.7561462E-02  0.1250192E+00
         -1   -1    0    0    0  501 -0.00000000000E+00  0.00000000000E+00  0.34020742604E+02  0.34020742604E+02  0.00000000000E+00 0.  1.
          1   -1    0    0  501    0  0.00000000000E+00 -0.00000000000E+00 -0.42421369446E+03  0.42421369446E+03  0.00000000000E+00 0. -1.
         25    2    1    2    0    0  0.54427118174E+02 -0.77284917834E+01 -0.22876067330E+03  0.26646170299E+03  0.12509337607E+03 0.  0.
         23    2    1    2    0    0 -0.54427118174E+02  0.77284917834E+01 -0.16143227856E+03  0.19177273407E+03  0.87717502215E+02 0.  0.
          5    1    3    3  502    0  0.51483319231E+01 -0.61281581234E+02 -0.12831634009E+03  0.14235340900E+03  0.41800000000E+01 0. -1.
         -5    1    3    3    0  502  0.49278786251E+02  0.53553089450E+02 -0.10044433321E+03  0.12410829399E+03  0.41800000000E+01 0. -1.
        -11    1    4    4    0    0  0.60848154293E+01 -0.26739513777E+02 -0.80288485911E+02  0.84842604544E+02  0.00000000000E+00 0. -1.
         11    1    4    4    0    0 -0.60511933603E+02  0.34468005560E+02 -0.81143792644E+02  0.10693012953E+03  0.00000000000E+00 0.  1.
</event>
<event>
 8    1  0.7168478E-009  0.1137955E+03  0.7561462E-02  0.1253698E+00
         -2   -1    0    0    0  501 -0.00000000000E+00  0.00000000000E+00  0.46489039354E+02  0.46489039354E+02  0.00000000000E+00 0.  1.
          2   -1    0    0  501    0  0.00000000000E+00 -0.00000000000E+00 -0.39433427626E+03  0.39433427626E+03  0.00000000000E+00 0. -1.
         25    2    1    2    0    0  0.26980214308E+02 -0.52740093523E+01 -0.70798053495E+02  0.14634328381E+03  0.12509294624E+03 0.  0.
         23    2    1    2    0    0 -0.26980214308E+02  0.52740093523E+01 -0.27704718341E+03  0.29448003180E+03  0.95956240833E+02 0.  0.
          5    1    3    3  502    0 -0.44922596332E+02  0.22925615449E+02 -0.24881890846E+02  0.56393300994E+02  0.41800000000E+01 0.  1.
         -5    1    3    3    0  502  0.71902810640E+02 -0.28199624801E+02 -0.45916162649E+02  0.89949982820E+02  0.41800000000E+01 0.  1.
        -11    1    4    4    0    0  0.30656023333E+02  0.24108542467E+02 -0.99905246122E+02  0.10724771228E+03  0.00000000000E+00 0. -1.
         11    1    4    4    0    0 -0.57636237641E+02 -0.18834533115E+02 -0.17714193729E+03  0.18723231952E+03  0.00000000000E+00 0.  1.
</event>
<event>
 8    1  0.7168478E-009  0.1908617E+03  0.7561462E-02  0.1157686E+00
         -2   -1    0    0    0  501 -0.00000000000E+00  0.00000000000E+00  0.28245956361E+02  0.28245956361E+02  0.00000000000E+00 0.  1.
          2   -1    0    0  501    0  0.00000000000E+00 -0.00000000000E+00 -0.17502571583E+04  0.17502571583E+04  0.00000000000E+00 0. -1.
         25    2    1    2    0    0 -0.15577278496E+01  0.18536592845E+03 -0.11138828762E+04  0.11361101900E+04  0.12509335688E+03 0.  0.
         23    2    1    2    0    0  0.15577278496E+01 -0.18536592845E+03 -0.60812832571E+03  0.64239292465E+03  0.92117615954E+02 0.  0.
          5    1    3    3  502    0  0.29024250526E+02  0.12046016779E+03 -0.93726139749E+03  0.94542554375E+03  0.41800000000E+01 0.  1.
         -5    1    3    3    0  502 -0.30581978376E+02  0.64905760655E+02 -0.17662147874E+03  0.19068464626E+03  0.41800000000E+01 0.  1.
        -11    1    4    4    0    0  0.66573709194E+01 -0.53949055268E+02 -0.71119870394E+02  0.89514563713E+02  0.00000000000E+00 0.  1.
         11    1    4    4    0    0 -0.50996430698E+01 -0.13141687318E+03 -0.53700845531E+03  0.55287836094E+03  0.00000000000E+00 0. -1.
</event>
<event>
 8    1  0.7168478E-009  0.1310856E+03  0.7561462E-02  0.1225854E+00
          1   -1    0    0  501    0  0.00000000000E+00  0.00000000000E+00  0.84622829606E+02  0.84622829606E+02  0.00000000000E+00 0.  1.
         -1   -1    0    0    0  501 -0.00000000000E+00 -0.00000000000E+00 -0.25055120234E+03  0.25055120234E+03  0.00000000000E+00 0. -1.
         25    2    1    2    0    0  0.16387569137E+02 -0.74104145611E+02 -0.21288773883E+02  0.14785392720E+03  0.12509034765E+03 0.  0.
         23    2    1    2    0    0 -0.16387569137E+02  0.74104145611E+02 -0.14463959885E+03  0.18732010475E+03  0.91696408157E+02 0.  0.
          5    1    3    3  502    0  0.49697868994E+02 -0.94593353082E+02 -0.17230419567E+02  0.10831500537E+03  0.41800000000E+01 0. -1.
         -5    1    3    3    0  502 -0.33310299857E+02  0.20489207471E+02 -0.40583543156E+01  0.39538921825E+02  0.41800000000E+01 0. -1.
        -11    1    4    4    0    0  0.31065656125E+02  0.57996876704E+02 -0.10273118882E+03  0.12199348284E+03  0.00000000000E+00 0. -1.
         11    1    4    4    0    0 -0.47453225262E+02  0.16107268907E+02 -0.41908410030E+02  0.65326621913E+02  0.00000000000E+00 0.  1.
</event>
<event>
 8    1  0.7168478E-009  0.9240666E+02  0.7561462E-02  0.1297126E+00
          1   -1    0    0  501    0  0.00000000000E+00  0.00000000000E+00  0.21089349632E+03  0.21089349632E+03  0.00000000000E+00 0. -1.
         -1   -1    0    0    0  501 -0.00000000000E+00 -0.00000000000E+00 -0.62237232237E+02  0.62237232237E+02  0.00000000000E+00 0.  1.
         25    2    1    2    0    0 -0.16199007397E+02  0.86616860759E+01  0.12264880959E+03  0.17614727208E+03  0.12509076033E+03 0.  0.
         23    2    1    2    0    0  0.16199007397E+02 -0.86616860759E+01  0.26007454489E+02  0.96983456475E+02  0.91607698882E+02 0.  0.
          5    1    3    3  502    0  0.39163391330E+02  0.45109895473E+02  0.54127316124E+02  0.80721203167E+02  0.41800000000E+01 0. -1.
         -5    1    3    3    0  502 -0.55362398726E+02 -0.36448209397E+02  0.68521493466E+02  0.95426068911E+02  0.41800000000E+01 0. -1.
        -11    1    4    4    0    0  0.33641460305E+02 -0.18597872825E+02  0.51671151123E+02  0.64401370975E+02  0.00000000000E+00 0. -1.
         11    1    4    4    0    0 -0.17442452908E+02  0.99361867495E+01 -0.25663696635E+02  0.32582085500E+02  0.00000000000E+00 0.  1.
</event>
<event>
 8    1  0.7168478E-009  0.1111145E+03  0.7561462E-02  0.1258520E+00
         -1   -1    0    0    0  501 -0.00000000000E+00  0.00000000000E+00  0.14781458336E+02  0.14781458336E+02  0.00000000000E+00 0.  1.
          1   -1    0    0  501    0  0.00000000000E+00 -0.00000000000E+00 -0.85747879820E+03  0.85747879820E+03  0.00000000000E+00 0. -1.
         25    2    1    2    0    0 -0.58952833688E+01 -0.28096895169E+02 -0.44491603876E+03  0.46305750383E+03  0.12509108849E+03 0.  0.
         23    2    1    2    0    0  0.58952833688E+01  0.28096895169E+02 -0.39778130111E+03  0.40920275271E+03  0.91611895693E+02 0.  0.
          5    1    3    3  502    0  0.57219994462E+02  0.38070048805E+01 -0.19864932563E+03  0.20680340429E+03  0.41800000000E+01 0.  1.
         -5    1    3    3    0  502 -0.63115277831E+02 -0.31903900049E+02 -0.24626671313E+03  0.25625409954E+03  0.41800000000E+01 0.  1.
        -11    1    4    4    0    0  0.25072657353E+02 -0.26223048438E+02 -0.19736242761E+03  0.20066941533E+03  0.00000000000E+00 0.  1.
         11    1    4    4    0    0 -0.19177373985E+02  0.54319943607E+02 -0.20041887350E+03  0.20853333738E+03  0.00000000000E+00 0. -1.
</event>
<event>
 8    1  0.7168478E-009  0.9221555E+02  0.7561462E-02  0.1297573E+00
          1   -1    0    0  501    0  0.00000000000E+00  0.00000000000E+00  0.32980880332E+02  0.32980880332E+02  0.00000000000E+00 0. -1.
         -1   -1    0    0    0  501 -0.00000000000E+00 -0.00000000000E+00 -0.43908058632E+03  0.43908058632E+03  0.00000000000E+00 0.  1.
         25    2    1    2    0    0  0.35244454364E+02  0.41400311498E+02 -0.22973237408E+03  0.26717088672E+03  0.12508861522E+03 0.  0.
         23    2    1    2    0    0 -0.35244454364E+02 -0.41400311498E+02 -0.17636733191E+03  0.20489057993E+03  0.88986272108E+02 0.  0.
          5    1    3    3  502    0 -0.29748962143E+01  0.48160176207E+02 -0.17685481288E+02  0.51560655816E+02  0.41800000000E+01 0. -1.
         -5    1    3    3    0  502  0.38219350578E+02 -0.67598647090E+01 -0.21204689279E+03  0.21561023091E+03  0.41800000000E+01 0. -1.
        -11    1    4    4    0    0 -0.58972027274E+02 -0.13802261513E+02 -0.70508187513E+02  0.92949485905E+02  0.00000000000E+00 0. -1.
         11    1    4    4    0    0  0.23727572910E+02 -0.27598049985E+02 -0.10585914440E+03  0.11194109403E+03  0.00000000000E+00 0.  1.
</event>
<event>
 8    1  0.7168478E-009  0.1157262E+03  0.7561462E-02  0.1250319E+00
          1   -1    0    0  501    0  0.00000000000E+00  0.00000000000E+00  0.49027598231E+03  0.49027598231E+03  0.00000000000E+00 0. -1.
         -1   -1    0    0    0  501 -0.00000000000E+00 -0.00000000000E+00 -0.42761431744E+02  0.42761431744E+02  0.00000000000E+00 0.  1.
         25    2    1    2    0    0  0.10866831498E+02  0.86776807184E+02  0.31324854098E+03  0.34845360130E+03  0.12508781530E+03 0.  0.
         23    2    1    2    0    0 -0.10866831498E+02 -0.86776807184E+02  0.13426600958E+03  0.18458381276E+03  0.91627071930E+02 0.  0.
          5    1    3    3  502    0  0.22965437894E+02 -0.65039245588E+01  0.19871360149E+03  0.20018561434E+03  0.41800000000E+01 0. -1.
         -5    1    3    3    0  502 -0.12098606396E+02  0.93280731743E+02  0.11453493949E+03  0.14826798695E+03  0.41800000000E+01 0. -1.
        -11    1    4    4    0    0 -0.40101458800E+02 -0.65898940661E+02  0.12597123943E+03  0.14771442226E+03  0.00000000000E+00 0. -1.
         11    1    4    4    0    0  0.29234627302E+02 -0.20877866523E+02  0.82947701504E+01  0.36869390501E+02  0.00000000000E+00 0.  1.
</event>
<event>
 8    1  0.7168478E-009  0.1364761E+03  0.7561462E-02  0.1218151E+00
          2   -1    0    0  501    0  0.00000000000E+00  0.00000000000E+00  0.15371953972E+03  0.15371953972E+03  0.00000000000E+00 0. -1.
         -2   -1    0    0    0  501 -0.00000000000E+00 -0.00000000000E+00 -0.16495619253E+03  0.16495619253E+03  0.00000000000E+00 0.  1.
         25    2    1    2    0    0  0.34957648106E+02  0.11099676516E+03 -0.61407612742E+01  0.17095804109E+03  0.12508646540E+03 0.  0.
         23    2    1    2    0    0 -0.34957648106E+02 -0.11099676516E+03 -0.50958915341E+01  0.14771769116E+03  0.90841780778E+02 0.  0.
          5    1    3    3  502    0  0.39746402161E+02  0.34149939137E+02 -0.57810457062E+02  0.78137802462E+02  0.41800000000E+01 0.  1.
         -5    1    3    3    0  502 -0.47887540549E+01  0.76846826024E+02  0.51669695788E+02  0.92820238624E+02  0.41800000000E+01 0.  1.
        -11    1    4    4    0    0 -0.76799295483E+01  0.13658397520E+02  0.10937987068E+02  0.19109492452E+02  0.00000000000E+00 0.  1.
         11    1    4    4    0    0 -0.27277718558E+02 -0.12465516268E+03 -0.16033878602E+02  0.12860819871E+03  0.00000000000E+00 0. -1.
</event>
<event>
 8    1  0.7168478E-009  0.1348606E+03  0.7561462E-02  0.1220417E+00
         -2   -1    0    0    0  501 -0.00000000000E+00  0.00000000000E+00  0.46504923378E+02  0.46504923378E+02  0.00000000000E+00 0.  1.
          2   -1    0    0  501    0  0.00000000000E+00 -0.00000000000E+00 -0.43901464251E+03  0.43901464251E+03  0.00000000000E+00 0. -1.
         25    2    1    2    0    0  0.40658911172E+02 -0.82053082446E+02 -0.22214362664E+03  0.27088883576E+03  0.12508842907E+03 0.  0.
         23    2    1    2    0    0 -0.40658911172E+02  0.82053082446E+02 -0.17036609249E+03  0.21463073012E+03  0.93037032657E+02 0.  0.
          5    1    3    3  502    0  0.53493025992E+02  0.58532316227E+01 -0.36842144997E+02  0.65349676344E+02  0.41800000000E+01 0.  1.
         -5    1    3    3    0  502 -0.12834114820E+02 -0.87906314069E+02 -0.18530148164E+03  0.20553915942E+03  0.41800000000E+01 0.  1.
        -11    1    4    4    0    0  0.28004706449E+02  0.22687385689E+02 -0.73628945922E+02  0.81976842646E+02  0.00000000000E+00 0.  1.
         11    1    4    4    0    0 -0.68663617621E+02  0.59365696758E+02 -0.96737146572E+02  0.13265388748E+03  0.00000000000E+00 0. -1.
</event>
<event>
 8    1  0.7168478E-009  0.1082685E+03  0.7561462E-02  0.1263810E+00
          2   -1    0    0  501    0  0.00000000000E+00  0.00000000000E+00  0.68018146194E+03  0.68018146194E+03  0.00000000000E+00 0.  1.
         -2   -1    0    0    0  501 -0.00000000000E+00 -0.00000000000E+00 -0.33379505315E+02  0.33379505315E+02  0.00000000000E+00 0. -1.
         25    2    1    2    0    0  0.60234020929E+02  0.29028920189E+02  0.51689742266E+03  0.53600635716E+03  0.12509617848E+03 0.  0.
         23    2    1    2    0    0 -0.60234020929E+02 -0.29028920189E+02  0.12990453397E+03  0.17755461010E+03  0.10089418288E+03 0.  0.
          5    1    3    3  502    0  0.16436075189E+02  0.69302732166E+02  0.38058952615E+03  0.38721941205E+03  0.41800000000E+01 0. -1.
         -5    1    3    3    0  502  0.43797945740E+02 -0.40273811977E+02  0.13630789652E+03  0.14878694511E+03  0.41800000000E+01 0. -1.
        -11    1    4    4    0    0 -0.17466948005E+02 -0.38020392701E+02  0.12704678468E+03  0.13375922410E+03  0.00000000000E+00 0.  1.
         11    1    4    4    0    0 -0.42767072924E+02  0.89914725119E+01  0.28577492877E+01  0.43795386006E+02  0.00000000000E+00 0. -1.
</event>
<event>
 8    1  0.7168478E-009  0.1125855E+03  0.7561462E-02  0.1255855E+00
          1   -1    0    0  501    0  0.00000000000E+00  0.00000000000E+00  0.31656504380E+02  0.31656504380E+02  0.00000000000E+00 0. -1.
         -1   -1    0    0    0  501 -0.00000000000E+00 -0.00000000000E+00 -0.43403758953E+03  0.43403758953E+03  0.00000000000E+00 0.  1.
         25    2    1    2    0    0 -0.18251755500E+01  0.36575338401E+02 -0.27251339903E+03  0.30207840668E+03  0.12508686776E+03 0.  0.
         23    2    1    2    0    0  0.18251755500E+01 -0.36575338401E+02 -0.12986768612E+03  0.16361568723E+03  0.92538589597E+02 0.  0.
          5    1    3    3  502    0  0.32097415610E+02  0.70448776773E+02 -0.12678830467E+03  0.14861366303E+03  0.41800000000E+01 0.  1.
         -5    1    3    3    0  502 -0.33922591160E+02 -0.33873438372E+02 -0.14572509436E+03  0.15346474365E+03  0.41800000000E+01 0.  1.
        -11    1    4    4    0    0  0.43928199350E+02 -0.36972114863E+02 -0.75045287364E+02  0.94490312366E+02  0.00000000000E+00 0. -1.
         11    1    4    4    0    0 -0.42103023800E+02  0.39677646155E+00 -0.54822398755E+02  0.69125374863E+02  0.00000000000E+00 0.  1.
</event>
<event>
 8    1  0.7168478E-009  0.1098350E+03  0.7561462E-02  0.1260876E+00
          1   -1    0    0  501    0  0.00000000000E+00  0.00000000000E+00  0.27135620864E+03  0.27135620864E+03  0.00000000000E+00 0. -1.
         -1   -1    0    0    0  501 -0.00000000000E+00 -0.00000000000E+00 -0.60534191529E+02  0.60534191529E+02  0.00000000000E+00 0.  1.
         25    2    1    2    0    0  0.17602300906E+02  0.23682541178E+02  0.19992761465E+03  0.23767419306E+03  0.12508903706E+03 0.  0.
         23    2    1    2    0    0 -0.17602300906E+02 -0.23682541178E+02  0.10894402462E+02  0.94216207111E+02  0.88810483184E+02 0.  0.
          5    1    3    3  502    0  0.24776501207E+02 -0.47871967670E+02  0.10898811279E+03  0.12166133910E+03  0.41800000000E+01 0. -1.
         -5    1    3    3    0  502 -0.71742003009E+01  0.71554508848E+02  0.90939501853E+02  0.11601285396E+03  0.41800000000E+01 0. -1.
        -11    1    4    4    0    0  0.34454911013E+02  0.38687261304E+01  0.32403334401E+01  0.34822517078E+02  0.00000000000E+00 0.  1.
         11    1    4    4    0    0 -0.52057211920E+02 -0.27551267308E+02  0.76540690223E+01  0.59393690033E+02  0.00000000000E+00 0. -1.
</event>
<event>
 8    1  0.7168478E-009  0.1548575E+03  0.7561462E-02  0.1194628E+00
          1   -1    0    0  501    0  0.00000000000E+00  0.00000000000E+00  0.78111038235E+03  0.78111038235E+03  0.00000000000E+00 0. -1.
         -1   -1    0    0    0  501 -0.00000000000E+00 -0.00000000000E+00 -0.41889785571E+02  0.41889785571E+02  0.00000000000E+00 0.  1.
         25    2    1    2    0    0 -0.10651296002E+03 -0.66678407970E+02  0.23172472218E+03  0.29177957443E+03  0.12509177607E+03 0.  0.
         23    2    1    2    0    0  0.10651296002E+03  0.66678407970E+02  0.50749587459E+03  0.53122059349E+03  0.94086319301E+02 0.  0.
          5    1    3    3  502    0  0.24286086105E+02 -0.28281653323E+02  0.28843326366E+02  0.47318873284E+02  0.41800000000E+01 0.  1.
         -5    1    3    3    0  502 -0.13079904613E+03 -0.38396754648E+02  0.20288139582E+03  0.24446070114E+03  0.41800000000E+01 0.  1.
        -11    1    4    4    0    0  0.36520880011E+02  0.53221106052E+02  0.11127776817E+03  0.12864292633E+03  0.00000000000E+00 0.  1.
         11    1    4    4    0    0  0.69992080009E+02  0.13457301919E+02  0.39621810643E+03  0.40257766717E+03  0.00000000000E+00 0. -1.
</event>
<event>
 8    1  0.7168478E-009  0.9166037E+02  0.7561462E-02  0.1298880E+00
          1   -1    0    0  501    0  0.00000000000E+00  0.00000000000E+00  0.42058281920E+03  0.42058281920E+03  0.00000000000E+00 0. -1.
         -1   -1    0    0    0  501 -0.00000000000E+00 -0.00000000000E+00 -0.29456791034E+02  0.29456791034E+02  0.00000000000E+00 0.  1.
         25    2    1    2    0    0  0.80420024228E+01  0.21606177505E+02  0.22365958210E+03  0.25729980026E+03  0.12509227731E+03 0.  0.
         23    2    1    2    0    0 -0.80420024228E+01 -0.21606177505E+02  0.16746644607E+03  0.19273980997E+03  0.92585760675E+02 0.  0.
          5    1    3    3  502    0  0.34291196275E+02 -0.37535692637E+02  0.47959276036E+02  0.70016990235E+02  0.41800000000E+01 0.  1.
         -5    1    3    3    0  502 -0.26249193852E+02  0.59141870142E+02  0.17570030606E+03  0.18728281003E+03  0.41800000000E+01 0.  1.
        -11    1    4    4    0    0 -0.34267377553E+02 -0.22893047804E+02  0.16031391311E+03  0.16552611740E+03  0.00000000000E+00 0. -1.
         11    1    4    4    0    0  0.26225375130E+02  0.12868702993E+01  0.71525329527E+01  0.27213692575E+02  0.00000000000E+00 0.  1.
</event>
<event>
 8    1  0.7168478E-009  0.9669447E+02  0.7561462E-02  0.1287405E+00
          1   -1    0    0  501    0  0.00000000000E+00  0.00000000000E+00  0.10799750169E+04  0.10799750169E+04  0.00000000000E+00 0. -1.
         -1   -1    0    0    0  501 -0.00000000000E+00 -0.00000000000E+00 -0.12080129507E+02  0.12080129507E+02  0.00000000000E+00 0.  1.
         25    2    1    2    0    0 -0.16457598103E+02  0.32952338337E+02  0.65303891634E+03  0.66593089783E+03  0.12508966901E+03 0.  0.
         23    2    1    2    0    0  0.16457598103E+02 -0.32952338337E+02  0.41485597108E+03  0.42612424861E+03  0.90109319003E+02 0.  0.
          5    1    3    3  502    0 -0.29308154483E+02  0.61257288146E+02  0.60332813181E+03  0.60715214758E+03  0.41800000000E+01 0. -1.
         -5    1    3    3    0  502  0.12850556380E+02 -0.28304949810E+02  0.49710784527E+02  0.58778750253E+02  0.41800000000E+01 0. -1.
        -11    1    4    4    0    0 -0.13508494849E+02 -0.55095894392E+02  0.30184515095E+03  0.30712950390E+03  0.00000000000E+00 0. -1.
         11    1    4    4    0    0  0.29966092952E+02  0.22143556056E+02  0.11301082013E+03  0.11899474470E+03  0.00000000000E+00 0.  1.
</event>
<event>
 8    1  0.7168478E-009  0.9157489E+02  0.7561462E-02  0.1299082E+00
          3   -1    0    0  501    0  0.00000000000E+00  0.00000000000E+00  0.22601475455E+03  0.22601475455E+03  0.00000000000E+00 0. -1.
         -3   -1    0    0    0  501 -0.00000000000E+00 -0.00000000000E+00 -0.57942824214E+02  0.57942824214E+02  0.00000000000E+00 0.  1.
         25    2    1    2    0    0 -0.37951633497E+02 -0.26224339550E+01  0.10932605166E+03  0.17043141913E+03  0.12508988532E+03 0.  0.
         23    2    1    2    0    0  0.37951633497E+02  0.26224339550E+01  0.58745878682E+02  0.11352615964E+03  0.89386279795E+02 0.  0.
          5    1    3    3  502    0 -0.80090906818E+02  0.13129706804E+02  0.48425984866E+02  0.94601749275E+02  0.41800000000E+01 0. -1.
         -5    1    3    3    0  502  0.42139273321E+02 -0.15752140759E+02  0.60900066791E+02  0.75829669851E+02  0.41800000000E+01 0. -1.
        -11    1    4    4    0    0  0.90380540076E+00  0.16953960740E+02 -0.19450816776E+02  0.25818364050E+02  0.00000000000E+00 0.  1.
         11    1    4    4    0    0  0.37047828096E+02 -0.14331526785E+02  0.78196695458E+02  0.87707795590E+02  0.00000000000E+00 0. -1.
</event>
<event>
 8    1  0.7168478E-009  0.1021590E+03  0.7561462E-02  0.1275820E+00
          2   -1    0    0  501    0  0.00000000000E+00  0.00000000000E+00  0.95875406453E+02  0.95875406453E+02  0.00000000000E+00 0. -1.
         -2   -1    0    0    0  501 -0.00000000000E+00 -0.00000000000E+00 -0.13878801122E+03  0.13878801122E+03  0.00000000000E+00 0.  1.
         25    2    1    2    0    0  0.96980140347E+01 -0.24264735025E+02 -0.45898628769E+02  0.13578190825E+03  0.12508882302E+03 0.  0.
         23    2    1    2    0    0 -0.96980140347E+01  0.24264735025E+02  0.29860240012E+01  0.98881509421E+02  0.95319503376E+02 0.  0.
          5    1    3    3  502    0 -0.45091100149E+02 -0.26495513347E+02 -0.59300816414E+02  0.79178777255E+02  0.41800000000E+01 0. -1.
         -5    1    3    3    0  502  0.54789114184E+02  0.22307783218E+01  0.13402187646E+02  0.56603130997E+02  0.41800000000E+01 0. -1.
        -11    1    4    4    0    0 -0.64424914662E+00  0.59995169252E+02  0.11404057533E+02  0.61072808342E+02  0.00000000000E+00 0.  1.
         11    1    4    4    0    0 -0.90537648881E+01 -0.35730434227E+02 -0.84180335320E+01  0.37808701078E+02  0.00000000000E+00 0. -1.
</event>
<event>
 8    1  0.7168478E-009  0.1450412E+03  0.7561462E-02  0.1206702E+00
         -2   -1    0    0    0  501 -0.00000000000E+00  0.00000000000E+00  0.40385634178E+03  0.40385634178E+03  0.00000000000E+00 0.  1.
          2   -1    0    0  501    0  0.00000000000E+00 -0.00000000000E+00 -0.70772476455E+02  0.70772476455E+02  0.00000000000E+00 0. -1.
         25    2    1    2    0    0 -0.52917927856E+02  0.10843244221E+03  0.23435930260E+03  0.29176995489E+03  0.12509005655E+03 0.  0.
         23    2    1    2    0    0  0.52917927856E+02 -0.10843244221E+03  0.98724562720E+02  0.18285886334E+03  0.95566327777E+02 0.  0.
          5    1    3    3  502    0  0.43375106019E+01  0.96826748646E+02  0.76978690151E+02  0.12384435550E+03  0.41800000000E+01 0.  1.
         -5    1    3    3    0  502 -0.57255438458E+02  0.11605693567E+02  0.15738061245E+03  0.16792559939E+03  0.41800000000E+01 0.  1.
        -11    1    4    4    0    0  0.22443208454E+02 -0.60854368618E+00 -0.11893458235E+02  0.25407130494E+02  0.00000000000E+00 0. -1.
         11    1    4    4    0    0  0.30474719402E+02 -0.10782389853E+03  0.11061802095E+03  0.15745173285E+03  0.00000000000E+00 0.  1.
</event>
<event>
 8    1  0.7168478E-009  0.8252521E+02  0.7561462E-02  0.1322034E+00
         -1   -1    0    0    0  501 -0.00000000000E+00  0.00000000000E+00  0.24568447770E+02  0.24568447770E+02  0.00000000000E+00 0.  1.
          1   -1    0    0  501    0  0.00000000000E+00 -0.00000000000E+00 -0.52823987131E+03  0.52823987131E+03  0.00000000000E+00 0. -1.
         25    2    1    2    0    0  0.55351319723E+01  0.15856655146E+02 -0.36473221120E+03  0.38595294985E+03  0.12509205576E+03 0.  0.
         23    2    1    2    0    0 -0.55351319723E+01 -0.15856655146E+02 -0.13893921234E+03  0.16685536923E+03  0.90854489794E+02 0.  0.
          5    1    3    3  502    0  0.39848496652E+02  0.16796495933E+02 -0.34159466380E+03  0.34434635427E+03  0.41800000000E+01 0.  1.
         -5    1    3    3    0  502 -0.34313364680E+02 -0.93984078625E+00 -0.23137547396E+02  0.41606595581E+02  0.41800000000E+01 0.  1.
        -11    1    4    4    0    0 -0.39635453165E+02 -0.30401908994E+02 -0.10634114611E+03  0.11748908279E+03  0.00000000000E+00 0.  1.
         11    1    4    4    0    0  0.34100321192E+02  0.14545253848E+02 -0.32598066230E+02  0.49366286440E+02  0.00000000000E+00 0. -1.
</event>
<event>
 8    1  0.7168478E-009  0.1434508E+03  0.7561462E-02  0.1208760E+00
         -4   -1    0    0    0  501 -0.00000000000E+00  0.00000000000E+00  0.15841984934E+04  0.15841984934E+04  0.00000000000E+00 0.  1.
          4   -1    0    0  501    0  0.00000000000E+00 -0.00000000000E+00 -0.19350071218E+02  0.19350071218E+02  0.00000000000E+00 0. -1.
         25    2    1    2    0    0  0.80351105064E+02 -0.98266441560E+02  0.10931056378E+04  0.11075379840E+04  0.12509139431E+03 0.  0.
         23    2    1    2    0    0 -0.80351105064E+02  0.98266441560E+02  0.47174278439E+03  0.49601058065E+03  0.85864124484E+02 0.  0.
          5    1    3    3  502    0  0.51562138345E+02 -0.11161860338E+03  0.55455863078E+03  0.56804059195E+03  0.41800000000E+01 0. -1.
         -5    1    3    3    0  502  0.28788966718E+02  0.13352161816E+02  0.53854700699E+03  0.53949739200E+03  0.41800000000E+01 0. -1.
        -11    1    4    4    0    0 -0.84960115373E+01  0.35367055261E+02  0.40999367666E+02  0.54808384020E+02  0.00000000000E+00 0. -1.
         11    1    4    4    0    0 -0.71855093526E+02  0.62899386299E+02  0.43074341672E+03  0.44120219663E+03  0.00000000000E+00 0.  1.
</event>
<event>
 8    1  0.7168478E-009  0.1291874E+03  0.7561462E-02  0.1228667E+00
          1   -1    0    0  501    0  0.00000000000E+00  0.00000000000E+00  0.37002762064E+03  0.37002762064E+03  0.00000000000E+00 0. -1.
         -1   -1    0    0    0  501 -0.00000000000E+00 -0.00000000000E+00 -0.68894402336E+02  0.68894402336E+02  0.00000000000E+00 0.  1.
         25    2    1    2    0    0 -0.51466339290E+02 -0.62091284244E+02  0.45061467727E+02  0.15550429337E+03  0.12508772011E+03 0.  0.
         23    2    1    2    0    0  0.51466339290E+02  0.62091284244E+02  0.25607175057E+03  0.28341772961E+03  0.90822664322E+02 0.  0.
          5    1    3    3  502    0  0.38064952549E+02 -0.42261739123E+02  0.16605520378E+02  0.59398745048E+02  0.41800000000E+01 0. -1.
         -5    1    3    3    0  502 -0.89531291839E+02 -0.19829545121E+02  0.28455947349E+02  0.96105548319E+02  0.41800000000E+01 0. -1.
        -11    1    4    4    0    0  0.42070278288E+00  0.58365175807E+02  0.19596521623E+03  0.20447258181E+03  0.00000000000E+00 0. -1.
         11    1    4    4    0    0  0.51045636508E+02  0.37261084365E+01  0.60106534340E+02  0.78945147799E+02  0.00000000000E+00 0.  1.
</event>
<event>
 8    1  0.7168478E-009  0.1412539E+03  0.7561462E-02  0.1211652E+00
         -2   -1    0    0    0  501 -0.00000000000E+00  0.00000000000E+00  0.20717961385E+02  0.20717961385E+02  0.00000000000E+00 0.  1.
          2   -1    0    0  501    0  0.00000000000E+00 -0.00000000000E+00 -0.16035872316E+04  0.16035872316E+04  0.00000000000E+00 0. -1.
         25    2    1    2    0    0  0.12242633070E+03  0.17616588606E+02 -0.11852126663E+04  0.11981966335E+04  0.12509019717E+03 0.  0.
         23    2    1    2    0    0 -0.12242633070E+03 -0.17616588606E+02 -0.39765660385E+03  0.42610855946E+03  0.90217399754E+02 0.  0.
          5    1    3    3  502    0  0.35860842716E+02  0.24292980242E+02 -0.87372614909E+03  0.87480912485E+03  0.41800000000E+01 0. -1.
         -5    1    3    3    0  502  0.86565487986E+02 -0.66763916364E+01 -0.31148651724E+03  0.32338750863E+03  0.41800000000E+01 0. -1.
        -11    1    4    4    0    0 -0.12703477193E+02  0.29909345498E+02 -0.66250226514E+02  0.73790512900E+02  0.00000000000E+00 0.  1.
         11    1    4    4    0    0 -0.10972285351E+03 -0.47525934104E+02 -0.33140637734E+03  0.35231804656E+03  0.00000000000E+00 0. -1.
</event>
<event>
 8    1  0.7168478E-009  0.1303469E+03  0.7561462E-02  0.1226942E+00
         -1   -1    0    0    0  501 -0.00000000000E+00  0.00000000000E+00  0.68954469205E+02  0.68954469205E+02  0.00000000000E+00 0.  1.
          1   -1    0    0  501    0  0.00000000000E+00 -0.00000000000E+00 -0.37699363351E+03  0.37699363351E+03  0.00000000000E+00 0. -1.
         25    2    1    2    0    0 -0.10943993260E+03  0.20626571612E+02 -0.22302640686E+03  0.27890946788E+03  0.12508860385E+03 0.  0.
         23    2    1    2    0    0  0.10943993260E+03 -0.20626571612E+02 -0.85012757440E+02  0.16703863483E+03  0.90951538163E+02 0.  0.
          5    1    3    3  502    0 -0.26768725818E+02 -0.27916719374E+02 -0.15866285928E+03  0.16336242903E+03  0.41800000000E+01 0.  1.
         -5    1    3    3    0  502 -0.82671206784E+02  0.48543290986E+02 -0.64363547581E+02  0.11554703885E+03  0.41800000000E+01 0.  1.
        -11    1    4    4    0    0  0.78965473565E+02 -0.41194698307E+02 -0.18388832874E+02  0.90943379960E+02  0.00000000000E+00 0.  1.
         11    1    4    4    0    0  0.30474459037E+02  0.20568126696E+02 -0.66623924566E+02  0.76095254871E+02  0.00000000000E+00 0. -1.
</event>
<event>
 8    1  0.7168478E-009  0.9431019E+02  0.7561462E-02  0.1292737E+00
         -3   -1    0    0    0  501 -0.00000000000E+00  0.00000000000E+00  0.27572213844E+03  0.27572213844E+03  0.00000000000E+00 0. -1.
          3   -1    0    0  501    0  0.00000000000E+00 -0.00000000000E+00 -0.92814380723E+02  0.92814380723E+02  0.00000000000E+00 0.  1.
         25    2    1    2    0    0  0.20570094708E+02  0.11000091172E+02  0.23033930817E+03  0.26315081052E+03  0.12509205164E+03 0.  0.
         23    2    1    2    0    0 -0.20570094708E+02 -0.11000091172E+02 -0.47431550455E+02  0.10538570865E+03  0.91171622815E+02 0.  0.
          5    1    3    3  502    0  0.18765258826E+02 -0.47760196059E+02  0.44037917333E+02  0.67749404643E+02  0.41800000000E+01 0. -1.
         -5    1    3    3    0  502  0.18048358816E+01  0.58760287231E+02  0.18630139084E+03  0.19540140587E+03  0.41800000000E+01 0. -1.
        -11    1    4    4    0    0  0.57072867251E+01 -0.39223835883E+02 -0.53254181539E+02  0.66385919249E+02  0.00000000000E+00 0.  1.
         11    1    4    4    0    0 -0.26277381433E+02  0.28223744711E+02  0.58226310834E+01  0.38999789400E+02  0.00000000000E+00 0. -1.
</event>
<event>
 8    1  0.7168478E-009  0.7629605E+02  0.7561462E-02  0.1339904E+00
          1   -1    0    0  501    0  0.00000000000E+00  0.00000000000E+00  0.30877822057E+03  0.30877822057E+03  0.00000000000E+00 0. -1.
         -1   -1    0    0    0  501 -0.00000000000E+00 -0.00000000000E+00 -0.37758595115E+02  0.37758595115E+02  0.00000000000E+00 0.  1.
         25    2    1    2    0    0 -0.31086179504E+01  0.16442414418E+01  0.18802627816E+03  0.22585744144E+03  0.12508131571E+03 0.  0.
         23    2    1    2    0    0  0.31086179504E+01 -0.16442414418E+01  0.82993347301E+02  0.12067937425E+03  0.87539983079E+02 0.  0.
          5    1    3    3  502    0 -0.53269410837E+01  0.49364710146E+02  0.16557066057E+03  0.17290565911E+03  0.41800000000E+01 0. -1.
         -5    1    3    3    0  502  0.22183231332E+01 -0.47720468704E+02  0.22455617585E+02  0.52951782331E+02  0.41800000000E+01 0. -1.
        -11    1    4    4    0    0 -0.70588815775E+01 -0.26780874984E+02 -0.54031356620E+01  0.28217670865E+02  0.00000000000E+00 0.  1.
         11    1    4    4    0    0  0.10167499528E+02  0.25136633542E+02  0.88396482964E+02  0.92461703385E+02  0.00000000000E+00 0. -1.
</event>
<event>
 8    1  0.7168478E-009  0.1134372E+03  0.7561462E-02  0.1254334E+00
          1   -1    0    0  501    0  0.00000000000E+00  0.00000000000E+00  0.10516787484E+04  0.10516787484E+04  0.00000000000E+00 0. -1.
         -1   -1    0    0    0  501 -0.00000000000E+00 -0.00000000000E+00 -0.18756813574E+02  0.18756813574E+02  0.00000000000E+00 0.  1.
         25    2    1    2    0    0  0.76310811682E+01  0.89039683235E+02  0.60749614901E+03  0.62664651784E+03  0.12509192086E+03 0.  0.
         23    2    1    2    0    0 -0.76310811682E+01 -0.89039683235E+02  0.42542578586E+03  0.44378904418E+03  0.89304635211E+02 0.  0.
          5    1    3    3  502    0  0.19342193109E+02  0.11667686874E+02  0.11814511973E+02  0.25832352669E+02  0.41800000000E+01 0.  1.
         -5    1    3    3    0  502 -0.11711111941E+02  0.77371996361E+02  0.59568163704E+03  0.60081416517E+03  0.41800000000E+01 0.  1.
        -11    1    4    4    0    0 -0.11023106175E+02 -0.10684480693E+03  0.37974819240E+03  0.39464669170E+03  0.00000000000E+00 0.  1.
         11    1    4    4    0    0  0.33920250072E+01  0.17805123691E+02  0.45677593460E+02  0.49142352484E+02  0.00000000000E+00 0. -1.
</event>
<event>
 8    1  0.7168478E-009  0.1038660E+03  0.7561462E-02  0.1272370E+00
          1   -1    0    0  501    0  0.00000000000E+00  0.00000000000E+00  0.16668850520E+04  0.16668850520E+04  0.00000000000E+00 0. -1.
         -1   -1    0    0    0  501 -0.00000000000E+00 -0.00000000000E+00 -0.19611814760E+02  0.19611814760E+02  0.00000000000E+00 0.  1.
         25    2    1    2    0    0 -0.26673648262E+02  0.79923473695E+02  0.14179909366E+04  0.14259893943E+04  0.12509281131E+03 0.  0.
         23    2    1    2    0    0  0.26673648262E+02 -0.79923473695E+02  0.22928230072E+03  0.26050747247E+03  0.90523613635E+02 0.  0.
          5    1    3    3  502    0 -0.29289720062E+02  0.17294850013E+02  0.86852052289E+02  0.93368896990E+02  0.41800000000E+01 0. -1.
         -5    1    3    3    0  502  0.26160717995E+01  0.62628623682E+02  0.13311388843E+04  0.13326204974E+04  0.41800000000E+01 0. -1.
        -11    1    4    4    0    0  0.41102468516E+02 -0.14409894821E+02  0.15225960926E+03  0.15836681028E+03  0.00000000000E+00 0. -1.
         11    1    4    4    0    0 -0.14428820253E+02 -0.65513578874E+02  0.77022691463E+02  0.10214066218E+03  0.00000000000E+00 0.  1.
</event>
<event>
 8    1  0.7168478E-009  0.6570619E+02  0.7561462E-02  0.1375335E+00
          2   -1    0    0  501    0  0.00000000000E+00  0.00000000000E+00  0.33113560296E+02  0.33113560296E+02  0.00000000000E+00 0. -1.
         -2   -1    0    0    0  501 -0.00000000000E+00 -0.00000000000E+00 -0.44305277258E+03  0.44305277258E+03  0.00000000000E+00 0.  1.
         25    2    1    2    0    0 -0.34150580729E+02  0.13270490789E+02 -0.15374794903E+03  0.20156296052E+03  0.12508727807E+03 0.  0.
         23    2    1    2    0    0  0.34150580729E+02 -0.13270490789E+02 -0.25619126326E+03  0.27460337235E+03  0.91818738004E+02 0.  0.
          5    1    3    3  502    0 -0.35027876423E+02  0.12618448807E+02 -0.17546503882E+03  0.17942025980E+03  0.41800000000E+01 0. -1.
         -5    1    3    3    0  502  0.87729569323E+00  0.65204198187E+00  0.21717089792E+02  0.22142700728E+02  0.41800000000E+01 0. -1.
        -11    1    4    4    0    0  0.61013779332E+02 -0.14579213848E+02 -0.22418987780E+03  0.23280106540E+03  0.00000000000E+00 0.  1.
         11    1    4    4    0    0 -0.26863198603E+02  0.13087230593E+01 -0.32001385459E+02  0.41802306952E+02  0.00000000000E+00 0. -1.
</event>
<event>
 8    1  0.7168478E-009  0.1373302E+03  0.7561462E-02  0.1216967E+00
          2   -1    0    0  501    0  0.00000000000E+00  0.00000000000E+00  0.13721871548E+04  0.13721871548E+04  0.00000000000E+00 0.  1.
         -2   -1    0    0    0  501 -0.00000000000E+00 -0.00000000000E+00 -0.18920019869E+02  0.18920019869E+02  0.00000000000E+00 0. -1.
         25    2    1    2    0    0  0.84922126879E+02  0.45537547652E+02  0.10213755328E+04  0.10335087382E+04  0.12508755752E+03 0.  0.
         23    2    1    2    0    0 -0.84922126879E+02 -0.45537547652E+02  0.33189160217E+03  0.35759843651E+03  0.91864957000E+02 0.  0.
          5    1    3    3  502    0 -0.23958871308E+02  0.18284722164E+01  0.56800642532E+02  0.61815501431E+02  0.41800000000E+01 0. -1.
         -5    1    3    3    0  502  0.10888099819E+03  0.43709075435E+02  0.96457489026E+03  0.97169323676E+03  0.41800000000E+01 0. -1.
        -11    1    4    4    0    0 -0.10481128213E+03 -0.40398963321E+02  0.28827769181E+03  0.30938892788E+03  0.00000000000E+00 0. -1.
         11    1    4    4    0    0  0.19889155253E+02 -0.51385843309E+01  0.43613910365E+02  0.48209508635E+02  0.00000000000E+00 0.  1.
</event>
<event>
 8    1  0.7168478E-009  0.7624449E+02  0.7561462E-02  0.1340060E+00
          1   -1    0    0  501    0  0.00000000000E+00  0.00000000000E+00  0.35116506754E+03  0.35116506754E+03  0.00000000000E+00 0. -1.
         -1   -1    0    0    0  501 -0.00000000000E+00 -0.00000000000E+00 -0.42187515537E+02  0.42187515537E+02  0.00000000000E+00 0.  1.
         25    2    1    2    0    0  0.20429994974E+02  0.25656535772E+02  0.99448383094E+02  0.16313868405E+03  0.12509439161E+03 0.  0.
         23    2    1    2    0    0 -0.20429994974E+02 -0.25656535772E+02  0.20952916891E+03  0.23021389903E+03  0.89556262535E+02 0.  0.
          5    1    3    3  502    0  0.39393813415E+02  0.15933269562E+02  0.12353555089E+03  0.13070671883E+03  0.41800000000E+01 0.  1.
         -5    1    3    3    0  502 -0.18963818440E+02  0.97232662103E+01 -0.24087167794E+02  0.32431965219E+02  0.41800000000E+01 0.  1.
        -11    1    4    4    0    0 -0.35269974041E+02 -0.49022813464E+02  0.96459224525E+02  0.11380504956E+03  0.00000000000E+00 0.  1.
         11    1    4    4    0    0  0.14839979067E+02  0.23366277692E+02  0.11306994439E+03  0.11640884947E+03  0.00000000000E+00 0. -1.
</event>
<event>
 8    1  0.7168478E-009  0.1393857E+03  0.7561462E-02  0.1214158E+00
          1   -1    0    0  501    0  0.00000000000E+00  0.00000000000E+00  0.11935410742E+04  0.11935410742E+04  0.00000000000E+00 0. -1.
         -1   -1    0    0    0  501 -0.00000000000E+00 -0.00000000000E+00 -0.21854056794E+02  0.21854056794E+02  0.00000000000E+00 0.  1.
         25    2    1    2    0    0 -0.98311249433E+02  0.18822874858E+02  0.87270877278E+03  0.88729297575E+03  0.12509524509E+03 0.  0.
         23    2    1    2    0    0  0.98311249433E+02 -0.18822874858E+02  0.29897824464E+03  0.32810215526E+03  0.90794444401E+02 0.  0.
          5    1    3    3  502    0 -0.18367034809E+02 -0.47666097930E+02  0.39966833003E+03  0.40294125042E+03  0.41800000000E+01 0.  1.
         -5    1    3    3    0  502 -0.79944214624E+02  0.66488972789E+02  0.47304044275E+03  0.48435172533E+03  0.41800000000E+01 0.  1.
        -11    1    4    4    0    0  0.10062243927E+03  0.38187824566E+01  0.17372539104E+03  0.20079833136E+03  0.00000000000E+00 0.  1.
         11    1    4    4    0    0 -0.23111898400E+01 -0.22641657315E+02  0.12525285360E+03  0.12730382390E+03  0.00000000000E+00 0. -1.
</event>
<event>
 8    1  0.7168478E-009  0.1796845E+03  0.7561462E-02  0.1168109E+00
         -3   -1    0    0    0  501 -0.00000000000E+00  0.00000000000E+00  0.56990794852E+03  0.56990794852E+03  0.00000000000E+00 0.  1.
          3   -1    0    0  501    0  0.00000000000E+00 -0.00000000000E+00 -0.10341379727E+03  0.10341379727E+03  0.00000000000E+00 0. -1.
         25    2    1    2    0    0 -0.77922632272E+02  0.13341109675E+03  0.29483919266E+02  0.20096938763E+03  0.12509570702E+03 0.  0.
         23    2    1    2    0    0  0.77922632272E+02 -0.13341109675E+03  0.43701023199E+03  0.47235235816E+03  0.90930468157E+02 0.  0.
          5    1    3    3  502    0 -0.85434090738E+02  0.53769579300E+02 -0.25015501919E+02  0.10408361665E+03  0.41800000000E+01 0. -1.
         -5    1    3    3    0  502  0.75114584663E+01  0.79641517446E+02  0.54499421185E+02  0.96885770983E+02  0.41800000000E+01 0. -1.
        -11    1    4    4    0    0 -0.19445250536E+02 -0.33423990304E+02  0.75239117267E+02  0.84594359525E+02  0.00000000000E+00 0.  1.
         11    1    4    4    0    0  0.97367882808E+02 -0.99987106442E+02  0.36177111472E+03  0.38775799863E+03  0.00000000000E+00 0. -1.
</event>
<event>
 8    1  0.7168478E-009  0.2514380E+03  0.7561462E-02  0.1112399E+00
         -2   -1    0    0    0  501 -0.00000000000E+00  0.00000000000E+00  0.41007612398E+03  0.41007612398E+03  0.00000000000E+00 0.  1.
          2   -1    0    0  501    0  0.00000000000E+00 -0.00000000000E+00 -0.17292129177E+03  0.17292129177E+03  0.00000000000E+00 0. -1.
         25    2    1    2    0    0  0.18171689571E+03  0.16110183386E+03  0.12287127313E+03  0.29953157554E+03  0.12508790480E+03 0.  0.
         23    2    1    2    0    0 -0.18171689571E+03 -0.16110183386E+03  0.11428355908E+03  0.28346584021E+03  0.91199340062E+02 0.  0.
          5    1    3    3  502    0  0.15837870122E+03  0.14664871752E+03  0.50073581201E+02  0.22161790380E+03  0.41800000000E+01 0. -1.
         -5    1    3    3    0  502  0.23338194490E+02  0.14453116341E+02  0.72797691931E+02  0.77913671743E+02  0.41800000000E+01 0. -1.
        -11    1    4    4    0    0 -0.98631399517E+02 -0.28370705357E+02  0.50507575662E+02  0.11438559827E+03  0.00000000000E+00 0.  1.
         11    1    4    4    0    0 -0.83085496197E+02 -0.13273112850E+03  0.63775983423E+02  0.16908024193E+03  0.00000000000E+00 0. -1.
</event>
<event>
 8    1  0.7168478E-009  0.1131948E+03  0.7561462E-02  0.1254765E+00
         -3   -1    0    0    0  501 -0.00000000000E+00  0.00000000000E+00  0.21382947629E+03  0.21382947629E+03  0.00000000000E+00 0.  1.
          3   -1    0    0  501    0  0.00000000000E+00 -0.00000000000E+00 -0.78888945379E+02  0.78888945379E+02  0.00000000000E+00 0. -1.
         25    2    1    2    0    0 -0.11824503686E+02  0.59617695836E+02  0.50928426712E+02  0.14810745142E+03  0.12509206200E+03 0.  0.
         23    2    1    2    0    0  0.11824503686E+02 -0.59617695836E+02  0.84012104198E+02  0.14461097025E+03  0.10079786962E+03 0.  0.
          5    1    3    3  502    0 -0.55993390167E+02  0.64344371946E+02  0.73093183728E+01  0.85710888915E+02  0.41800000000E+01 0.  1.
         -5    1    3    3    0  502  0.44168886481E+02 -0.47266761099E+01  0.43619108339E+02  0.62396562504E+02  0.41800000000E+01 0.  1.
        -11    1    4    4    0    0 -0.21730897925E+02 -0.58932331480E+02  0.90761954111E+02  0.11037655517E+03  0.00000000000E+00 0.  1.
         11    1    4    4    0    0  0.33555401611E+02 -0.68536435576E+00 -0.67498499125E+01  0.34234415073E+02  0.00000000000E+00 0. -1.
</event>
<event>
 8    1  0.7168478E-009  0.1760341E+03  0.7561462E-02  0.1171697E+00
          1   -1    0    0  501    0  0.00000000000E+00  0.00000000000E+00  0.22456460437E+03  0.22456460437E+03  0.00000000000E+00 0. -1.
         -1   -1    0    0    0  501 -0.00000000000E+00 -0.00000000000E+00 -0.16230001911E+03  0.16230001911E+03  0.00000000000E+00 0.  1.
         25    2    1    2    0    0 -0.10338133172E+03 -0.11624887139E+03  0.61452987214E+02  0.20886756510E+03  0.12509072813E+03 0.  0.
         23    2    1    2    0    0  0.10338133172E+03  0.11624887139E+03  0.81159805236E+00  0.17799705838E+03  0.86491584862E+02 0.  0.
          5    1    3    3  502    0  0.69019797384E+01  0.15890480258E+02  0.28445498549E+02  0.33567297700E+02  0.41800000000E+01 0.  1.
         -5    1    3    3    0  502 -0.11028331146E+03 -0.13213935165E+03  0.33007488665E+02  0.17530026740E+03  0.41800000000E+01 0.  1.
        -11    1    4    4    0    0  0.86183067858E+02  0.64777525929E+02 -0.34562292949E+02  0.11321749487E+03  0.00000000000E+00 0.  1.
         11    1    4    4    0    0  0.17198263862E+02  0.51471345466E+02  0.35373891002E+02  0.64779563510E+02  0.00000000000E+00 0. -1.
</event>
<event>
 8    1  0.7168478E-009  0.1343714E+03  0.7561462E-02  0.1221110E+00
         -2   -1    0    0    0  501 -0.00000000000E+00  0.00000000000E+00  0.54608723061E+02  0.54608723061E+02  0.00000000000E+00 0.  1.
          2   -1    0    0  501    0  0.00000000000E+00 -0.00000000000E+00 -0.43813834929E+03  0.43813834929E+03  0.00000000000E+00 0. -1.
         25    2    1    2    0    0 -0.54066589153E+02 -0.92973869954E+02 -0.17144560477E+03  0.23792479608E+03  0.12508907481E+03 0.  0.
         23    2    1    2    0    0  0.54066589153E+02  0.92973869954E+02 -0.21208402146E+03  0.25482227627E+03  0.91582879247E+02 0.  0.
          5    1    3    3  502    0 -0.53400805511E+02 -0.23982761712E+02 -0.64568403372E+01  0.59042205884E+02  0.41800000000E+01 0. -1.
         -5    1    3    3    0  502 -0.66578364280E+00 -0.68991108242E+02 -0.16498876444E+03  0.17888259020E+03  0.41800000000E+01 0. -1.
        -11    1    4    4    0    0 -0.25466706400E+02  0.15009377335E+02 -0.37702258015E+02  0.47909235042E+02  0.00000000000E+00 0. -1.
         11    1    4    4    0    0  0.79533295553E+02  0.77964492619E+02 -0.17438176344E+03  0.20691304123E+03  0.00000000000E+00 0.  1.
</event>
<event>
 8    1  0.7168478E-009  0.6798449E+02  0.7561462E-02  0.1367084E+00
         -1   -1    0    0    0  501 -0.00000000000E+00  0.00000000000E+00  0.15293342929E+03  0.15293342929E+03  0.00000000000E+00 0.  1.
          1   -1    0    0  501    0  0.00000000000E+00 -0.00000000000E+00 -0.13057434520E+03  0.13057434520E+03  0.00000000000E+00 0. -1.
         25    2    1    2    0    0  0.41221181406E+02  0.42216099800E+02  0.79386903521E+02  0.15947115567E+03  0.12508950461E+03 0.  0.
         23    2    1    2    0    0 -0.41221181406E+02 -0.42216099800E+02 -0.57027819422E+02  0.12403661881E+03  0.93013578257E+02 0.  0.
          5    1    3    3  502    0  0.27839708843E+01  0.71168324137E+01 -0.33754597005E+02  0.34860364549E+02  0.41800000000E+01 0.  1.
         -5    1    3    3    0  502  0.38437210521E+02  0.35099267386E+02  0.11314150053E+03  0.12461079113E+03  0.41800000000E+01 0.  1.
        -11    1    4    4    0    0 -0.34157550291E+02 -0.52457508463E+02  0.30614183876E+01  0.62672966410E+02  0.00000000000E+00 0.  1.
         11    1    4    4    0    0 -0.70636311148E+01  0.10241408664E+02 -0.60089237810E+02  0.61363652405E+02  0.00000000000E+00 0. -1.
</event>
<event>
 8    1  0.7168478E-009  0.1544427E+03  0.7561462E-02  0.1195118E+00
         -1   -1    0    0    0  501 -0.00000000000E+00  0.00000000000E+00  0.29541388607E+02  0.29541388607E+02  0.00000000000E+00 0.  1.
          1   -1    0    0  501    0  0.00000000000E+00 -0.00000000000E+00 -0.83907112055E+03  0.83907112055E+03  0.00000000000E+00 0. -1.
         25    2    1    2    0    0  0.10556978106E+03 -0.33047422684E+02 -0.50600836052E+03  0.53285124673E+03  0.12509548119E+03 0.  0.
         23    2    1    2    0    0 -0.10556978106E+03  0.33047422684E+02 -0.30352137142E+03  0.33576126242E+03  0.91505691689E+02 0.  0.
          5    1    3    3  502    0 -0.21211685847E+02 -0.33514041692E+02 -0.10881790837E+03  0.11589623027E+03  0.41800000000E+01 0.  1.
         -5    1    3    3    0  502  0.12678146691E+03  0.46661900867E+00 -0.39719045214E+03  0.41695501647E+03  0.41800000000E+01 0.  1.
        -11    1    4    4    0    0 -0.84580647201E+02 -0.18425270493E+02 -0.20711332281E+03  0.22447562219E+03  0.00000000000E+00 0.  1.
         11    1    4    4    0    0 -0.20989133861E+02  0.51472693177E+02 -0.96408048612E+02  0.11128564023E+03  0.00000000000E+00 0. -1.
</event>
<event>
 8    1  0.7168478E-009  0.1011986E+03  0.7561462E-02  0.1277796E+00
          2   -1    0    0  501    0  0.00000000000E+00  0.00000000000E+00  0.93766036606E+02  0.93766036606E+02  0.00000000000E+00 0. -1.
         -2   -1    0    0    0  501 -0.00000000000E+00 -0.00000000000E+00 -0.16952830138E+03  0.16952830138E+03  0.00000000000E+00 0.  1.
         25    2    1    2    0    0 -0.27007163504E+02  0.55668124718E+02 -0.60409700024E+02  0.15206803131E+03  0.12508807817E+03 0.  0.
         23    2    1    2    0    0  0.27007163504E+02 -0.55668124718E+02 -0.15352564752E+02  0.11122630668E+03  0.91144188310E+02 0.  0.
          5    1    3    3  502    0  0.11094150461E+02 -0.10671260132E+02 -0.72737599447E+02  0.74466010639E+02  0.41800000000E+01 0. -1.
         -5    1    3    3    0  502 -0.38101313964E+02  0.66339384850E+02  0.12327899423E+02  0.77602020671E+02  0.41800000000E+01 0. -1.
        -11    1    4    4    0    0 -0.16921208683E+02 -0.63053790743E+02 -0.13353803626E+02  0.66636565800E+02  0.00000000000E+00 0.  1.
         11    1    4    4    0    0  0.43928372187E+02  0.73856660243E+01 -0.19987611262E+01  0.44589740879E+02  0.00000000000E+00 0. -1.
</event>
<event>
 8    1  0.7168478E-009  0.9426665E+02  0.7561462E-02  0.1292836E+00
         -2   -1    0    0    0  501 -0.00000000000E+00  0.00000000000E+00  0.13899044880E+03  0.13899044880E+03  0.00000000000E+00 0.  1.
          2   -1    0    0  501    0  0.00000000000E+00 -0.00000000000E+00 -0.99396881939E+02  0.99396881939E+02  0.00000000000E+00 0. -1.
         25    2    1    2    0    0  0.18127337897E+02  0.40687574665E+02  0.33276002381E+02  0.13689009183E+03  0.12509007073E+03 0.  0.
         23    2    1    2    0    0 -0.18127337897E+02 -0.40687574665E+02  0.63175644822E+01  0.10149723891E+03  0.90981859593E+02 0.  0.
          5    1    3    3  502    0  0.21026292598E+02  0.78679329392E+02  0.49358675651E+02  0.95322049474E+02  0.41800000000E+01 0.  1.
         -5    1    3    3    0  502 -0.28989547010E+01 -0.37991754727E+02 -0.16082673270E+02  0.41568042353E+02  0.41800000000E+01 0.  1.
        -11    1    4    4    0    0 -0.33494164373E+02 -0.41423209067E+02  0.38567200485E+02  0.65766026561E+02  0.00000000000E+00 0.  1.
         11    1    4    4    0    0  0.15366826476E+02  0.73563440218E+00 -0.32249636003E+02  0.35731212353E+02  0.00000000000E+00 0. -1.
</event>
<event>
 8    1  0.7168478E-009  0.4305698E+03  0.7561462E-02  0.1033680E+00
         -2   -1    0    0    0  501 -0.00000000000E+00  0.00000000000E+00  0.12898592524E+03  0.12898592524E+03  0.00000000000E+00 0.  1.
          2   -1    0    0  501    0  0.00000000000E+00 -0.00000000000E+00 -0.14614445110E+04  0.14614445110E+04  0.00000000000E+00 0. -1.
         25    2    1    2    0    0 -0.41994212572E+03 -0.13582194679E+02 -0.68711689093E+03  0.81505369440E+03  0.12508812090E+03 0.  0.
         23    2    1    2    0    0  0.41994212572E+03  0.13582194679E+02 -0.64534169481E+03  0.77537674182E+03  0.90594280848E+02 0.  0.
          5    1    3    3  502    0 -0.20474704608E+02 -0.23866956318E+02 -0.20308078274E+02  0.37666106460E+02  0.41800000000E+01 0.  1.
         -5    1    3    3    0  502 -0.39946742112E+03  0.10284761639E+02 -0.66680881265E+03  0.77738758794E+03  0.41800000000E+01 0.  1.
        -11    1    4    4    0    0  0.85268513332E+02  0.39793463201E+02 -0.14456461740E+03  0.17249106551E+03  0.00000000000E+00 0.  1.
         11    1    4    4    0    0  0.33467361239E+03 -0.26211268522E+02 -0.50077707742E+03  0.60288567631E+03  0.00000000000E+00 0. -1.
</event>
<event>
 8    1  0.7168478E-009  0.1163235E+03  0.7561462E-02  0.1249288E+00
         -2   -1    0    0    0  501 -0.00000000000E+00  0.00000000000E+00  0.79393829297E+02  0.79393829297E+02  0.00000000000E+00 0.  1.
          2   -1    0    0  501    0  0.00000000000E+00 -0.00000000000E+00 -0.29557624306E+03  0.29557624306E+03  0.00000000000E+00 0. -1.
         25    2    1    2    0    0  0.61294698622E+02  0.77341933450E+02 -0.65057502002E+02  0.17209988672E+03  0.12508827960E+03 0.  0.
         23    2    1    2    0    0 -0.61294698622E+02 -0.77341933450E+02 -0.15112491176E+03  0.20287018564E+03  0.92621587749E+02 0.  0.
          5    1    3    3  502    0  0.71565674060E+02  0.54595514660E+02 -0.96306862471E+02  0.13188934788E+03  0.41800000000E+01 0.  1.
         -5    1    3    3    0  502 -0.10270975438E+02  0.22746418790E+02  0.31249360469E+02  0.40210538841E+02  0.41800000000E+01 0.  1.
        -11    1    4    4    0    0 -0.86488966025E+01 -0.61711433640E+02 -0.28526256486E+02  0.68533581282E+02  0.00000000000E+00 0.  1.
         11    1    4    4    0    0 -0.52645802019E+02 -0.15630499810E+02 -0.12259865527E+03  0.13433660435E+03  0.00000000000E+00 0. -1.
</event>
<event>
 8    1  0.7168478E-009  0.1462360E+03  0.7561462E-02  0.1205176E+00
          2   -1    0    0  501    0  0.00000000000E+00  0.00000000000E+00  0.20413970567E+03  0.20413970567E+03  0.00000000000E+00 0. -1.
         -2   -1    0    0    0  501 -0.00000000000E+00 -0.00000000000E+00 -0.17806123986E+03  0.17806123986E+03  0.00000000000E+00 0.  1.
         25    2    1    2    0    0 -0.17204081112E+02  0.13224447767E+03  0.96229008788E+02  0.20661783579E+03  0.12508527353E+03 0.  0.
         23    2    1    2    0    0  0.17204081112E+02 -0.13224447767E+03 -0.70150542974E+02  0.17558310973E+03  0.90131833797E+02 0.  0.
          5    1    3    3  502    0 -0.20183067990E+02  0.12194018128E+03  0.14998960461E+02  0.12457610228E+03  0.41800000000E+01 0. -1.
         -5    1    3    3    0  502  0.29789868778E+01  0.10304296388E+02  0.81230048327E+02  0.82041733514E+02  0.41800000000E+01 0. -1.
        -11    1    4    4    0    0 -0.29320605253E+02 -0.89244789192E+02 -0.59889834838E+02  0.11140521804E+03  0.00000000000E+00 0.  1.
         11    1    4    4    0    0  0.46524686365E+02 -0.42999688477E+02 -0.10260708136E+02  0.64177891691E+02  0.00000000000E+00 0. -1.
</event>
<event>
 8    1  0.7168478E-009  0.7537890E+02  0.7561462E-02  0.1342702E+00
         -2   -1    0    0    0  501 -0.00000000000E+00  0.00000000000E+00  0.23193629169E+02  0.23193629169E+02  0.00000000000E+00 0.  1.
          2   -1    0    0  501    0  0.00000000000E+00 -0.00000000000E+00 -0.63927324242E+03  0.63927324242E+03  0.00000000000E+00 0. -1.
         25    2    1    2    0    0  0.47048687684E+02  0.32251264309E+01 -0.42540021238E+03  0.44591159906E+03  0.12509129879E+03 0.  0.
         23    2    1    2    0    0 -0.47048687684E+02 -0.32251264309E+01 -0.19067940087E+03  0.21655527253E+03  0.91178789692E+02 0.  0.
          5    1    3    3  502    0  0.33509759433E+02 -0.42024507962E+01 -0.18570136084E+02  0.38767085577E+02  0.41800000000E+01 0. -1.
         -5    1    3    3    0  502  0.13538928251E+02  0.74275772271E+01 -0.40683007630E+03  0.40714451349E+03  0.41800000000E+01 0. -1.
        -11    1    4    4    0    0 -0.23209288168E+02  0.42918246040E+02 -0.71622576262E+02  0.86662796694E+02  0.00000000000E+00 0.  1.
         11    1    4    4    0    0 -0.23839399516E+02 -0.46143372471E+02 -0.11905682461E+03  0.12989247583E+03  0.00000000000E+00 0. -1.
</event>
<event>
 8    1  0.7168478E-009  0.1346981E+03  0.7561462E-02  0.1220647E+00
         -2   -1    0    0    0  501 -0.00000000000E+00  0.00000000000E+00  0.64405815629E+02  0.64405815629E+02  0.00000000000E+00 0.  1.
          2   -1    0    0  501    0  0.00000000000E+00 -0.00000000000E+00 -0.29400866685E+03  0.29400866685E+03  0.00000000000E+00 0. -1.
         25    2    1    2    0    0  0.77460889219E+02  0.33424301960E+02 -0.12765897882E+03  0.19764045712E+03  0.12509021583E+03 0.  0.
         23    2    1    2    0    0 -0.77460889219E+02 -0.33424301960E+02 -0.10194387240E+03  0.16077402536E+03  0.91314625279E+02 0.  0.
          5    1    3    3  502    0  0.10911053856E+03  0.20770686856E+02 -0.11769580469E+03  0.16188361838E+03  0.41800000000E+01 0. -1.
         -5    1    3    3    0  502 -0.31649649337E+02  0.12653615104E+02 -0.99631741336E+01  0.35756838747E+02  0.41800000000E+01 0. -1.
        -11    1    4    4    0    0  0.10663290105E+01 -0.44578611585E+02 -0.30486358443E+02  0.54016735551E+02  0.00000000000E+00 0.  1.
         11    1    4    4    0    0 -0.78527218230E+02  0.11154309625E+02 -0.71457513953E+02  0.10675728981E+03  0.00000000000E+00 0. -1.
</event>
<event>
 8    1  0.7168478E-009  0.1170804E+03  0.7561462E-02  0.1247993E+00
          1   -1    0    0  501    0  0.00000000000E+00  0.00000000000E+00  0.10815837911E+04  0.10815837911E+04  0.00000000000E+00 0. -1.
         -1   -1    0    0    0  501 -0.00000000000E+00 -0.00000000000E+00 -0.21756338307E+02  0.21756338307E+02  0.00000000000E+00 0.  1.
         25    2    1    2    0    0  0.31267378311E+02 -0.36252311606E+02  0.91492417475E+03  0.92467609553E+03  0.12509099514E+03 0.  0.
         23    2    1    2    0    0 -0.31267378311E+02  0.36252311606E+02  0.14490327800E+03  0.17866403383E+03  0.92908546247E+02 0.  0.
          5    1    3    3  502    0  0.14628552319E+02  0.45744681578E+02  0.26183016043E+03  0.26623124487E+03  0.41800000000E+01 0.  1.
         -5    1    3    3    0  502  0.16638825992E+02 -0.81996993183E+02  0.65309401432E+03  0.65844485066E+03  0.41800000000E+01 0.  1.
        -11    1    4    4    0    0 -0.10193123408E+02  0.65412366029E+02  0.74950245056E+02  0.10000108314E+03  0.00000000000E+00 0.  1.
         11    1    4    4    0    0 -0.21074254903E+02 -0.29160054424E+02  0.69953032943E+02  0.78662950692E+02  0.00000000000E+00 0. -1.
</event>
<event>
 8    1  0.7168478E-009  0.1493057E+03  0.7561462E-02  0.1201329E+00
         -2   -1    0    0    0  501 -0.00000000000E+00  0.00000000000E+00  0.20892720104E+02  0.20892720104E+02  0.00000000000E+00 0.  1.
          2   -1    0    0  501    0  0.00000000000E+00 -0.00000000000E+00 -0.13522102566E+04  0.13522102566E+04  0.00000000000E+00 0. -1.
         25    2    1    2    0    0 -0.66384842458E+01  0.10451316726E+03 -0.10105186931E+04  0.10236011227E+04  0.12507660717E+03 0.  0.
         23    2    1    2    0    0  0.66384842458E+01 -0.10451316726E+03 -0.32079884340E+03  0.34950185402E+03  0.90953704883E+02 0.  0.
          5    1    3    3  502    0  0.58451043741E+02  0.58417912753E+02 -0.55485039546E+03  0.56098628395E+03  0.41800000000E+01 0. -1.
         -5    1    3    3    0  502 -0.65089527987E+02  0.46095254508E+02 -0.45566829764E+03  0.46261483873E+03  0.41800000000E+01 0. -1.
        -11    1    4    4    0    0 -0.40191249643E+02 -0.48419875527E+02 -0.18316858074E+03  0.19367640503E+03  0.00000000000E+00 0. -1.
         11    1    4    4    0    0  0.46829733889E+02 -0.56093291733E+02 -0.13763026266E+03  0.15582544899E+03  0.00000000000E+00 0.  1.
</event>
<event>
 8    1  0.7168478E-009  0.1216811E+03  0.7561462E-02  0.1240349E+00
          2   -1    0    0  501    0  0.00000000000E+00  0.00000000000E+00  0.23249241911E+03  0.23249241911E+03  0.00000000000E+00 0. -1.
         -2   -1    0    0    0  501 -0.00000000000E+00 -0.00000000000E+00 -0.97761890703E+02  0.97761890703E+02  0.00000000000E+00 0.  1.
         25    2    1    2    0    0 -0.83684699782E+02  0.61612697053E+02  0.66533341277E+02  0.17570801163E+03  0.12508943374E+03 0.  0.
         23    2    1    2    0    0  0.83684699782E+02 -0.61612697053E+02  0.68197187127E+02  0.15454629818E+03  0.91839253770E+02 0.  0.
          5    1    3    3  502    0 -0.44067720520E+02  0.40425915902E+02 -0.31550934844E+02  0.67743284227E+02  0.41800000000E+01 0. -1.
         -5    1    3    3    0  502 -0.39616979262E+02  0.21186781151E+02  0.98084276121E+02  0.10796472740E+03  0.41800000000E+01 0. -1.
        -11    1    4    4    0    0  0.64128180794E+01 -0.60678893073E+02  0.35872339984E+02  0.70780485137E+02  0.00000000000E+00 0.  1.
         11    1    4    4    0    0  0.77271881703E+02 -0.93380397976E+00  0.32324847143E+02  0.83765813042E+02  0.00000000000E+00 0. -1.
</event>
<event>
 8    1  0.7168478E-009  0.1068128E+03  0.7561462E-02  0.1266589E+00
          2   -1    0    0  501    0  0.00000000000E+00  0.00000000000E+00  0.12827680867E+03  0.12827680867E+03  0.00000000000E+00 0. -1.
         -2   -1    0    0    0  501 -0.00000000000E+00 -0.00000000000E+00 -0.17463959278E+03  0.17463959278E+03  0.00000000000E+00 0.  1.
         25    2    1    2    0    0  0.91716565257E+02 -0.44574257667E+02 -0.90153803151E+01  0.16163620263E+03  0.12508473979E+03 0.  0.
         23    2    1    2    0    0 -0.91716565257E+02  0.44574257667E+02 -0.37347403793E+02  0.14128019883E+03  0.90368541103E+02 0.  0.
          5    1    3    3  502    0  0.55012880050E+02 -0.48669314853E+02  0.52069737879E+02  0.90132398073E+02  0.41800000000E+01 0.  1.
         -5    1    3    3    0  502  0.36703685207E+02  0.40950571858E+01 -0.61085118194E+02  0.71503804556E+02  0.41800000000E+01 0.  1.
        -11    1    4    4    0    0 -0.13416967738E+02  0.14414144625E+01 -0.49279339323E+02  0.51093502357E+02  0.00000000000E+00 0.  1.
         11    1    4    4    0    0 -0.78299597519E+02  0.43132843205E+02  0.11931935530E+02  0.90186696470E+02  0.00000000000E+00 0. -1.
</event>
<event>
 8    1  0.7168478E-009  0.1495705E+03  0.7561462E-02  0.1201002E+00
         -2   -1    0    0    0  501 -0.00000000000E+00  0.00000000000E+00  0.76914478428E+02  0.76914478428E+02  0.00000000000E+00 0. -1.
          2   -1    0    0  501    0  0.00000000000E+00 -0.00000000000E+00 -0.56059930617E+03  0.56059930617E+03  0.00000000000E+00 0.  1.
         25    2    1    2    0    0  0.85506320073E+02 -0.63211072452E+02 -0.47319793333E+03  0.50087221341E+03  0.12509883935E+03 0.  0.
         23    2    1    2    0    0 -0.85506320073E+02  0.63211072452E+02 -0.10486894416E+02  0.13664157119E+03  0.85170262242E+02 0.  0.
          5    1    3    3  502    0  0.10711446102E+03 -0.81361285683E+02 -0.36650302048E+03  0.39042938285E+03  0.41800000000E+01 0. -1.
         -5    1    3    3    0  502 -0.21608140946E+02  0.18150213231E+02 -0.10669491285E+03  0.11044283056E+03  0.41800000000E+01 0. -1.
        -11    1    4    4    0    0 -0.77953407472E+02  0.83593793646E+02 -0.11520923613E+02  0.11487988402E+03  0.00000000000E+00 0.  1.
         11    1    4    4    0    0 -0.75529126008E+01 -0.20382721194E+02  0.10340291965E+01  0.21761687168E+02  0.00000000000E+00 0. -1.
</event>
<event>
 8    1  0.7168478E-009  0.1806580E+03  0.7561462E-02  0.1167168E+00
         -4   -1    0    0    0  501 -0.00000000000E+00  0.00000000000E+00  0.86126609366E+02  0.86126609366E+02  0.00000000000E+00 0.  1.
          4   -1    0    0  501    0  0.00000000000E+00 -0.00000000000E+00 -0.49010680380E+03  0.49010680380E+03  0.00000000000E+00 0. -1.
         25    2    1    2    0    0 -0.95001530079E+02 -0.13436884736E+03 -0.13064140590E+03  0.24452993723E+03  0.12508970945E+03 0.  0.
         23    2    1    2    0    0  0.95001530079E+02  0.13436884736E+03 -0.27333878854E+03  0.33170347594E+03  0.90734914830E+02 0.  0.
          5    1    3    3  502    0 -0.25116346107E+02 -0.86950037176E+02 -0.20453880245E+01  0.90624476930E+02  0.41800000000E+01 0.  1.
         -5    1    3    3    0  502 -0.69885183972E+02 -0.47418810186E+02 -0.12859601787E+03  0.15390546030E+03  0.41800000000E+01 0.  1.
        -11    1    4    4    0    0  0.72665245540E+02  0.28657824081E+02 -0.13746426634E+03  0.15810734743E+03  0.00000000000E+00 0. -1.
         11    1    4    4    0    0  0.22336284540E+02  0.10571102328E+03 -0.13587452220E+03  0.17359612851E+03  0.00000000000E+00 0.  1.
</event>
<event>
 8    1  0.7168478E-009  0.5968807E+02  0.7561462E-02  0.1399145E+00
         -1   -1    0    0    0  501 -0.00000000000E+00  0.00000000000E+00  0.21623188260E+02  0.21623188260E+02  0.00000000000E+00 0.  1.
          1   -1    0    0  501    0  0.00000000000E+00 -0.00000000000E+00 -0.62700373889E+03  0.62700373889E+03  0.00000000000E+00 0. -1.
         25    2    1    2    0    0  0.20370659845E+02  0.25441064134E+02 -0.42200871062E+03  0.44136259743E+03  0.12508948414E+03 0.  0.
         23    2    1    2    0    0 -0.20370659845E+02 -0.25441064134E+02 -0.18337184001E+03  0.20726432972E+03  0.90945363488E+02 0.  0.
          5    1    3    3  502    0  0.38427573650E+02  0.24119365119E+02 -0.42023383019E+03  0.42269654201E+03  0.41800000000E+01 0. -1.
         -5    1    3    3    0  502 -0.18056913805E+02  0.13216990152E+01 -0.17748804339E+01  0.18666055421E+02  0.41800000000E+01 0. -1.
        -11    1    4    4    0    0  0.73502620378E+01  0.86124915786E+01  0.60375917525E+01  0.12831752701E+02  0.00000000000E+00 0.  1.
         11    1    4    4    0    0 -0.27720921883E+02 -0.34053555713E+02 -0.18940943176E+03  0.19443257702E+03  0.00000000000E+00 0. -1.
</event>
<event>
 8    1  0.7168478E-009  0.1021306E+03  0.7561462E-02  0.1275878E+00
          4   -1    0    0  501    0  0.00000000000E+00  0.00000000000E+00  0.32277132232E+03  0.32277132232E+03  0.00000000000E+00 0. -1.
         -4   -1    0    0    0  501 -0.00000000000E+00 -0.00000000000E+00 -0.81586995604E+02  0.81586995604E+02  0.00000000000E+00 0.  1.
         25    2    1    2    0    0 -0.58735245455E+02  0.61109888094E+02  0.22603365987E+02  0.15278074894E+03  0.12508716005E+03 0.  0.
         23    2    1    2    0    0  0.58735245455E+02 -0.61109888094E+02  0.21858096072E+03  0.25157756898E+03  0.91265488236E+02 0.  0.
          5    1    3    3  502    0 -0.20792263561E+02 -0.14449940524E+02  0.56138059215E+02  0.61725789567E+02  0.41800000000E+01 0.  1.
         -5    1    3    3    0  502 -0.37942981894E+02  0.75559828618E+02 -0.33534693228E+02  0.91054959369E+02  0.41800000000E+01 0.  1.
        -11    1    4    4    0    0  0.40583168366E+02 -0.13145418488E+02  0.21187669126E+02  0.47631007808E+02  0.00000000000E+00 0.  1.
         11    1    4    4    0    0  0.18152077090E+02 -0.47964469607E+02  0.19739329160E+03  0.20394656118E+03  0.00000000000E+00 0. -1.
</event>
<event>
 8    1  0.7168478E-009  0.8953954E+02  0.7561462E-02  0.1303971E+00
         -2   -1    0    0    0  501 -0.00000000000E+00  0.00000000000E+00  0.25335244632E+03  0.25335244632E+03  0.00000000000E+00 0.  1.
          2   -1    0    0  501    0  0.00000000000E+00 -0.00000000000E+00 -0.50498015670E+02  0.50498015670E+02  0.00000000000E+00 0. -1.
         25    2    1    2    0    0 -0.14441048518E+02 -0.19434572147E+02  0.14673680116E+03  0.19433479774E+03  0.12509227923E+03 0.  0.
         23    2    1    2    0    0  0.14441048518E+02  0.19434572147E+02  0.56117629491E+02  0.10951566425E+03  0.90874891470E+02 0.  0.
          5    1    3    3  502    0  0.12086898610E+02 -0.47539169514E+02  0.14745480751E+03  0.15545564774E+03  0.41800000000E+01 0.  1.
         -5    1    3    3    0  502 -0.26527947128E+02  0.28104597368E+02 -0.71800634611E+00  0.38879150006E+02  0.41800000000E+01 0.  1.
        -11    1    4    4    0    0  0.46865452745E+02  0.31403572826E+02  0.20872730857E+02  0.60151691088E+02  0.00000000000E+00 0. -1.
         11    1    4    4    0    0 -0.32424404227E+02 -0.11969000680E+02  0.35244898634E+02  0.49363973163E+02  0.00000000000E+00 0.  1.
</event>
<event>
 8    1  0.7168478E-009  0.1198367E+03  0.7561462E-02  0.1243367E+00
          3   -1    0    0  501    0  0.00000000000E+00  0.00000000000E+00  0.26047444462E+03  0.26047444462E+03  0.00000000000E+00 0. -1.
         -3   -1    0    0    0  501 -0.00000000000E+00 -0.00000000000E+00 -0.85854954367E+02  0.85854954367E+02  0.00000000000E+00 0.  1.
         25    2    1    2    0    0  0.74464580444E+02 -0.40600002556E+02  0.16140628415E+03  0.22111560894E+03  0.12508712966E+03 0.  0.
         23    2    1    2    0    0 -0.74464580444E+02  0.40600002556E+02  0.13213206105E+02  0.12521379005E+03  0.91162330238E+02 0.  0.
          5    1    3    3  502    0  0.32377781084E+02 -0.74226724432E+02  0.14234092548E+03  0.16381800510E+03  0.41800000000E+01 0.  1.
         -5    1    3    3    0  502  0.42086799360E+02  0.33626721877E+02  0.19065358663E+02  0.57297603837E+02  0.41800000000E+01 0.  1.
        -11    1    4    4    0    0 -0.42377055421E+01 -0.14615718899E+02 -0.24016939265E+02  0.28432213400E+02  0.00000000000E+00 0.  1.
         11    1    4    4    0    0 -0.70226874902E+02  0.55215721454E+02  0.37230145370E+02  0.96781576648E+02  0.00000000000E+00 0. -1.
</event>
<event>
 8    1  0.7168478E-009  0.1235423E+03  0.7561462E-02  0.1237365E+00
         -2   -1    0    0    0  501 -0.00000000000E+00  0.00000000000E+00  0.98922993941E+02  0.98922993941E+02  0.00000000000E+00 0.  1.
          2   -1    0    0  501    0  0.00000000000E+00 -0.00000000000E+00 -0.17198884483E+03  0.17198884483E+03  0.00000000000E+00 0. -1.
         25    2    1    2    0    0 -0.46075528843E+02 -0.51470757220E+02 -0.57825939825E+02  0.15415418755E+03  0.12508989174E+03 0.  0.
         23    2    1    2    0    0  0.46075528843E+02  0.51470757220E+02 -0.15239911062E+02  0.11675765122E+03  0.92886495365E+02 0.  0.
          5    1    3    3  502    0 -0.11439677466E+02  0.40886676195E+02 -0.74151429026E+01  0.43301769653E+02  0.41800000000E+01 0. -1.
         -5    1    3    3    0  502 -0.34635851377E+02 -0.92357433416E+02 -0.50410796922E+02  0.11085241790E+03  0.41800000000E+01 0. -1.
        -11    1    4    4    0    0 -0.76067145280E+01 -0.17038475404E+02 -0.22720527598E+02  0.29400580340E+02  0.00000000000E+00 0. -1.
         11    1    4    4    0    0  0.53682243371E+02  0.68509232625E+02  0.74806165366E+01  0.87357070875E+02  0.00000000000E+00 0.  1.
</event>
<event>
 8    1  0.7168478E-009  0.1066869E+03  0.7561462E-02  0.1266831E+00
          1   -1    0    0  501    0  0.00000000000E+00  0.00000000000E+00  0.85767497724E+03  0.85767497724E+03  0.00000000000E+00 0. -1.
         -1   -1    0    0    0  501 -0.00000000000E+00 -0.00000000000E+00 -0.26482367881E+02  0.26482367881E+02  0.00000000000E+00 0.  1.
         25    2    1    2    0    0  0.75097875256E+02  0.68099644634E+02  0.52501827033E+03  0.54915528363E+03  0.12510031529E+03 0.  0.
         23    2    1    2    0    0 -0.75097875256E+02 -0.68099644634E+02  0.30617433902E+03  0.33500206149E+03  0.90589198362E+02 0.  0.
          5    1    3    3  502    0  0.17444981728E+02 -0.26799878924E+01  0.36053466055E+03  0.36099061426E+03  0.41800000000E+01 0. -1.
         -5    1    3    3    0  502  0.57652893528E+02  0.70779632527E+02  0.16448360978E+03  0.18816466937E+03  0.41800000000E+01 0. -1.
        -11    1    4    4    0    0 -0.20955556048E+01 -0.10926727378E+02 -0.35633297565E+01  0.11682552951E+02  0.00000000000E+00 0.  1.
         11    1    4    4    0    0 -0.73002319651E+02 -0.57172917256E+02  0.30973766878E+03  0.32331950854E+03  0.00000000000E+00 0. -1.
</event>
<event>
 8    1  0.7168478E-009  0.1055837E+03  0.7561462E-02  0.1268974E+00
         -1   -1    0    0    0  501 -0.00000000000E+00  0.00000000000E+00  0.15071202760E+02  0.15071202760E+02  0.00000000000E+00 0.  1.
          1   -1    0    0  501    0  0.00000000000E+00 -0.00000000000E+00 -0.94073468474E+03  0.94073468474E+03  0.00000000000E+00 0. -1.
         25    2    1    2    0    0 -0.48843356990E+02  0.15502864230E+02 -0.45569397659E+03  0.47532084510E+03  0.12508754202E+03 0.  0.
         23    2    1    2    0    0  0.48843356990E+02 -0.15502864230E+02 -0.46996950539E+03  0.48048504239E+03  0.85840128430E+02 0.  0.
          5    1    3    3  502    0 -0.63132384486E+02 -0.25499019867E+02 -0.39341236725E+03  0.39928268318E+03  0.41800000000E+01 0. -1.
         -5    1    3    3    0  502  0.14289027496E+02  0.41001884096E+02 -0.62281609344E+02  0.76038161924E+02  0.41800000000E+01 0. -1.
        -11    1    4    4    0    0  0.10127999520E+02  0.34577626916E+02 -0.19744968426E+03  0.20071015538E+03  0.00000000000E+00 0. -1.
         11    1    4    4    0    0  0.38715357471E+02 -0.50080491146E+02 -0.27251982112E+03  0.27977488701E+03  0.00000000000E+00 0.  1.
</event>
<event>
 8    1  0.7168478E-009  0.1079803E+03  0.7561462E-02  0.1264356E+00
          2   -1    0    0  501    0  0.00000000000E+00  0.00000000000E+00  0.99145130439E+02  0.99145130439E+02  0.00000000000E+00 0. -1.
         -2   -1    0    0    0  501 -0.00000000000E+00 -0.00000000000E+00 -0.12132687690E+03  0.12132687690E+03  0.00000000000E+00 0.  1.
         25    2    1    2    0    0  0.81808056796E+01 -0.94516375967E+01 -0.19962958317E+02  0.12728778588E+03  0.12508957468E+03 0.  0.
         23    2    1    2    0    0 -0.81808056796E+01  0.94516375967E+01 -0.22187881417E+01  0.93184221457E+02  0.92315313318E+02 0.  0.
          5    1    3    3  502    0  0.94413403794E+01 -0.66377176916E+02 -0.11836849711E+01  0.67185876742E+02  0.41800000000E+01 0. -1.
         -5    1    3    3    0  502 -0.12605346998E+01  0.56925539320E+02 -0.18779273346E+02  0.60101909138E+02  0.41800000000E+01 0. -1.
        -11    1    4    4    0    0  0.14930335059E+02 -0.36950802474E+02 -0.91318286682E+01  0.40886024547E+02  0.00000000000E+00 0.  1.
         11    1    4    4    0    0 -0.23111140739E+02  0.46402440070E+02  0.69130405265E+01  0.52298196910E+02  0.00000000000E+00 0. -1.
</event>
<event>
 8    1  0.7168478E-009  0.1400984E+03  0.7561462E-02  0.1213197E+00
          1   -1    0    0  501    0  0.00000000000E+00  0.00000000000E+00  0.11487928172E+04  0.11487928172E+04  0.00000000000E+00 0. -1.
         -1   -1    0    0    0  501 -0.00000000000E+00 -0.00000000000E+00 -0.29764155097E+02  0.29764155097E+02  0.00000000000E+00 0.  1.
         25    2    1    2    0    0 -0.13234255918E+03  0.10022665766E+02  0.80880699612E+03  0.82911453785E+03  0.12508858101E+03 0.  0.
         23    2    1    2    0    0  0.13234255918E+03 -0.10022665766E+02  0.31022166598E+03  0.34944243444E+03  0.90870931257E+02 0.  0.
          5    1    3    3  502    0 -0.35955808575E+02  0.73568615753E+00  0.38942419328E+02  0.53172792174E+02  0.41800000000E+01 0.  1.
         -5    1    3    3    0  502 -0.96386750605E+02  0.92869796081E+01  0.76986457680E+03  0.77594174568E+03  0.41800000000E+01 0.  1.
        -11    1    4    4    0    0  0.12849637306E+03  0.78985017873E+01  0.30391654486E+03  0.33005904087E+03  0.00000000000E+00 0. -1.
         11    1    4    4    0    0  0.38461861238E+01 -0.17921167553E+02  0.63051211183E+01  0.19383393575E+02  0.00000000000E+00 0.  1.
</event>
<event>
 8    1  0.7168478E-009  0.1470926E+03  0.7561462E-02  0.1204092E+00
         -2   -1    0    0    0  501 -0.00000000000E+00  0.00000000000E+00  0.43159776699E+02  0.43159776699E+02  0.00000000000E+00 0.  1.
          2   -1    0    0  501    0  0.00000000000E+00 -0.00000000000E+00 -0.62575856924E+03  0.62575856924E+03  0.00000000000E+00 0. -1.
         25    2    1    2    0    0 -0.13515306021E+02 -0.11321792497E+03 -0.41374306741E+03  0.44702575160E+03  0.12509090585E+03 0.  0.
         23    2    1    2    0    0  0.13515306021E+02  0.11321792497E+03 -0.16885572513E+03  0.22189259434E+03  0.87881200980E+02 0.  0.
          5    1    3    3  502    0  0.28486272207E+02  0.29514070705E+01 -0.22312245588E+02  0.36544318453E+02  0.41800000000E+01 0. -1.
         -5    1    3    3    0  502 -0.42001578229E+02 -0.11616933204E+03 -0.39143082183E+03  0.41048143314E+03  0.41800000000E+01 0. -1.
        -11    1    4    4    0    0 -0.35377267331E+02  0.37881994249E+02 -0.43396696279E+02  0.67600811978E+02  0.00000000000E+00 0.  1.
         11    1    4    4    0    0  0.48892573353E+02  0.75335930719E+02 -0.12545902885E+03  0.15429178237E+03  0.00000000000E+00 0. -1.
</event>
<event>
 8    1  0.7168478E-009  0.1626888E+03  0.7561462E-02  0.1185694E+00
         -1   -1    0    0    0  501 -0.00000000000E+00  0.00000000000E+00  0.64652305110E+02  0.64652305110E+02  0.00000000000E+00 0.  1.
          1   -1    0    0  501    0  0.00000000000E+00 -0.00000000000E+00 -0.93273065333E+03  0.93273065333E+03  0.00000000000E+00 0. -1.
         25    2    1    2    0    0 -0.11879950226E+03 -0.39951195717E+02 -0.80436416597E+02  0.19450395861E+03  0.12510936425E+03 0.  0.
         23    2    1    2    0    0  0.11879950226E+03  0.39951195717E+02 -0.78764193163E+03  0.80287899984E+03  0.92333396695E+02 0.  0.
          5    1    3    3  502    0 -0.12398706853E+02  0.40965929007E+02 -0.14415152305E+02  0.45356413956E+02  0.41800000000E+01 0. -1.
         -5    1    3    3    0  502 -0.10640079541E+03 -0.80917124724E+02 -0.66021264292E+02  0.14914754465E+03  0.41800000000E+01 0. -1.
        -11    1    4    4    0    0  0.12762389002E+03  0.23221420141E+02 -0.74529884964E+03  0.75650344806E+03  0.00000000000E+00 0. -1.
         11    1    4    4    0    0 -0.88243877582E+01  0.16729775576E+02 -0.42343081985E+02  0.46375551772E+02  0.00000000000E+00 0.  1.
</event>
<event>
 8    1  0.7168478E-009  0.7623568E+02  0.7561462E-02  0.1340087E+00
          2   -1    0    0  501    0  0.00000000000E+00  0.00000000000E+00  0.58335482248E+03  0.58335482248E+03  0.00000000000E+00 0. -1.
         -2   -1    0    0    0  501 -0.00000000000E+00 -0.00000000000E+00 -0.22149729299E+02  0.22149729299E+02  0.00000000000E+00 0.  1.
         25    2    1    2    0    0 -0.31554955693E+02 -0.15551400494E+02  0.31802058526E+03  0.34353871439E+03  0.12507675384E+03 0.  0.
         23    2    1    2    0    0  0.31554955693E+02  0.15551400494E+02  0.24318450792E+03  0.26196583739E+03  0.90828595601E+02 0.  0.
          5    1    3    3  502    0  0.98065339681E+01  0.13726926981E+01 -0.86514001725E+01  0.13797518569E+02  0.41800000000E+01 0.  1.
         -5    1    3    3    0  502 -0.41361489661E+02 -0.16924093192E+02  0.32667198543E+03  0.32974119582E+03  0.41800000000E+01 0.  1.
        -11    1    4    4    0    0  0.63169828681E+02  0.44334297470E+01  0.17200637124E+03  0.18329286485E+03  0.00000000000E+00 0. -1.
         11    1    4    4    0    0 -0.31614872988E+02  0.11117970747E+02  0.71178136680E+02  0.78672972544E+02  0.00000000000E+00 0.  1.
</event>
<event>
 8    1  0.7168478E-009  0.1218453E+03  0.7561462E-02  0.1240084E+00
         -1   -1    0    0    0  501 -0.00000000000E+00  0.00000000000E+00  0.45141325446E+03  0.45141325446E+03  0.00000000000E+00 0.  1.
          1   -1    0    0  501    0  0.00000000000E+00 -0.00000000000E+00 -0.37045682816E+02  0.37045682816E+02  0.00000000000E+00 0. -1.
         25    2    1    2    0    0 -0.53054639570E+02  0.46857541327E+02  0.24393457991E+03  0.28312911787E+03  0.12509034396E+03 0.  0.
         23    2    1    2    0    0  0.53054639570E+02 -0.46857541327E+02  0.17043299173E+03  0.20532981940E+03  0.90013921737E+02 0.  0.
          5    1    3    3  502    0 -0.72418131366E+02 -0.70988150894E+01  0.74554191670E+02  0.10426206799E+03  0.41800000000E+01 0. -1.
         -5    1    3    3    0  502  0.19363491797E+02  0.53956356416E+02  0.16938038824E+03  0.17886704988E+03  0.41800000000E+01 0. -1.
        -11    1    4    4    0    0  0.33868153121E+02  0.22962918765E+02  0.47866045089E+02  0.62972261406E+02  0.00000000000E+00 0.  1.
         11    1    4    4    0    0  0.19186486448E+02 -0.69820460092E+02  0.12256694664E+03  0.14235755800E+03  0.00000000000E+00 0. -1.
</event>
<event>
 8    1  0.7168478E-009  0.1094292E+03  0.7561462E-02  0.1261631E+00
          3   -1    0    0  501    0  0.00000000000E+00  0.00000000000E+00  0.67950766539E+02  0.67950766539E+02  0.00000000000E+00 0. -1.
         -3   -1    0    0    0  501 -0.00000000000E+00 -0.00000000000E+00 -0.24637490099E+03  0.24637490099E+03  0.00000000000E+00 0.  1.
         25    2    1    2    0    0  0.22638396094E+02  0.41622483087E+02 -0.15953353417E+03  0.20818806404E+03  0.12508554435E+03 0.  0.
         23    2    1    2    0    0 -0.22638396094E+02 -0.41622483087E+02 -0.18890600280E+02  0.10613760349E+03  0.93077430242E+02 0.  0.
          5    1    3    3  502    0  0.64124033126E+02 -0.75140509999E+01 -0.10702728305E+03  0.12506264152E+03  0.41800000000E+01 0.  1.
         -5    1    3    3    0  502 -0.41485637032E+02  0.49136534087E+02 -0.52506251123E+02  0.83125422519E+02  0.41800000000E+01 0.  1.
        -11    1    4    4    0    0  0.10310377522E+02 -0.53657584964E+02 -0.37653496160E+02  0.66356808859E+02  0.00000000000E+00 0.  1.
         11    1    4    4    0    0 -0.32948773616E+02  0.12035101878E+02  0.18762895879E+02  0.39780794635E+02  0.00000000000E+00 0. -1.
</event>
<event>
 8    1  0.7168478E-009  0.1452362E+03  0.7561462E-02  0.1206452E+00
         -1   -1    0    0    0  501 -0.00000000000E+00  0.00000000000E+00  0.72438579727E+03  0.72438579727E+03  0.00000000000E+00 0.  1.
          1   -1    0    0  501    0  0.00000000000E+00 -0.00000000000E+00 -0.36614016144E+02  0.36614016144E+02  0.00000000000E+00 0. -1.
         25    2    1    2    0    0  0.90270904441E+02 -0.36264301532E+02  0.19874679189E+03  0.25418859299E+03  0.12509043835E+03 0.  0.
         23    2    1    2    0    0 -0.90270904441E+02  0.36264301532E+02  0.48902498924E+03  0.50681122043E+03  0.90819806725E+02 0.  0.
          5    1    3    3  502    0  0.53463194302E+02  0.44348657385E+02  0.93065555555E+02  0.11620579412E+03  0.41800000000E+01 0.  1.
         -5    1    3    3    0  502  0.36807710139E+02 -0.80612958917E+02  0.10568123633E+03  0.13798279887E+03  0.41800000000E+01 0.  1.
        -11    1    4    4    0    0 -0.26178704744E+02  0.58690306079E+02  0.20813181875E+03  0.21782729532E+03  0.00000000000E+00 0. -1.
         11    1    4    4    0    0 -0.64092199696E+02 -0.22426004547E+02  0.28089317049E+03  0.28898392511E+03  0.00000000000E+00 0.  1.
</event>
<event>
 8    1  0.7168478E-009  0.1191901E+03  0.7561462E-02  0.1244439E+00
         -1   -1    0    0    0  501 -0.00000000000E+00  0.00000000000E+00  0.18041040349E+03  0.18041040349E+03  0.00000000000E+00 0.  1.
          1   -1    0    0  501    0  0.00000000000E+00 -0.00000000000E+00 -0.98485335475E+02  0.98485335475E+02  0.00000000000E+00 0. -1.
         25    2    1    2    0    0 -0.10916967904E+02  0.75099943492E+02  0.44989253947E+02  0.15307134901E+03  0.12509046013E+03 0.  0.
         23    2    1    2    0    0  0.10916967904E+02 -0.75099943492E+02  0.36935814067E+02  0.12582438996E+03  0.93318492520E+02 0.  0.
          5    1    3    3  502    0 -0.34062638918E+02 -0.55612141888E+01  0.58422234668E+02  0.67983971470E+02  0.41800000000E+01 0. -1.
         -5    1    3    3    0  502  0.23145671014E+02  0.80661157681E+02 -0.13432980720E+02  0.85087377537E+02  0.41800000000E+01 0. -1.
        -11    1    4    4    0    0  0.19194829492E+01  0.21997255532E+02  0.12182098861E+02  0.25218390083E+02  0.00000000000E+00 0.  1.
         11    1    4    4    0    0  0.89974849553E+01 -0.97097199024E+02  0.24753715206E+02  0.10060599987E+03  0.00000000000E+00 0. -1.
</event>
<event>
 8    1  0.7168478E-009  0.1182878E+03  0.7561462E-02  0.1245949E+00
          2   -1    0    0  501    0  0.00000000000E+00  0.00000000000E+00  0.27625221936E+03  0.27625221936E+03  0.00000000000E+00 0. -1.
         -2   -1    0    0    0  501 -0.00000000000E+00 -0.00000000000E+00 -0.79139050616E+02  0.79139050616E+02  0.00000000000E+00 0.  1.
         25    2    1    2    0    0  0.46237017018E+02 -0.74639212634E+02  0.55844217916E+02  0.16270455168E+03  0.12508125621E+03 0.  0.
         23    2    1    2    0    0 -0.46237017018E+02  0.74639212634E+02  0.14126895083E+03  0.19268671830E+03  0.97274771323E+02 0.  0.
          5    1    3    3  502    0 -0.32889376318E+02  0.13725406094E+01 -0.10022453365E+02  0.34662904001E+02  0.41800000000E+01 0.  1.
         -5    1    3    3    0  502  0.79126393337E+02 -0.76011753243E+02  0.65866671281E+02  0.12804164767E+03  0.41800000000E+01 0.  1.
        -11    1    4    4    0    0 -0.50249856041E+02  0.59253194939E+02  0.15388765688E+03  0.17238735476E+03  0.00000000000E+00 0. -1.
         11    1    4    4    0    0  0.40128390227E+01  0.15386017695E+02 -0.12618706052E+02  0.20299363536E+02  0.00000000000E+00 0.  1.
</event>
<event>
 8    1  0.7168478E-009  0.1307333E+03  0.7561462E-02  0.1226372E+00
         -2   -1    0    0    0  501 -0.00000000000E+00  0.00000000000E+00  0.10405020480E+04  0.10405020480E+04  0.00000000000E+00 0.  1.
          2   -1    0    0  501    0  0.00000000000E+00 -0.00000000000E+00 -0.16942148317E+02  0.16942148317E+02  0.00000000000E+00 0. -1.
         25    2    1    2    0    0  0.67088133771E+02  0.29116405794E+02  0.47534027577E+03  0.49693460351E+03  0.12508812741E+03 0.  0.
         23    2    1    2    0    0 -0.67088133771E+02 -0.29116405794E+02  0.54821962394E+03  0.56050959284E+03  0.90981672901E+02 0.  0.
          5    1    3    3  502    0  0.61000908642E+01 -0.46742499828E+02  0.16618472159E+03  0.17279151162E+03  0.41800000000E+01 0.  1.
         -5    1    3    3    0  502  0.60988042907E+02  0.75858905623E+02  0.30915555418E+03  0.32414309189E+03  0.41800000000E+01 0.  1.
        -11    1    4    4    0    0 -0.51657509052E+02  0.27161515596E+02  0.26987566033E+03  0.27611432090E+03  0.00000000000E+00 0.  1.
         11    1    4    4    0    0 -0.15430624719E+02 -0.56277921391E+02  0.27834396361E+03  0.28439527193E+03  0.00000000000E+00 0. -1.
</event>
<event>
 8    1  0.7168478E-009  0.7140443E+02  0.7561462E-02  0.1355381E+00
          2   -1    0    0  501    0  0.00000000000E+00  0.00000000000E+00  0.45218109644E+03  0.45218109644E+03  0.00000000000E+00 0. -1.
         -2   -1    0    0    0  501 -0.00000000000E+00 -0.00000000000E+00 -0.33582152333E+02  0.33582152333E+02  0.00000000000E+00 0.  1.
         25    2    1    2    0    0 -0.40314467622E+02  0.68054579290E+01  0.15321505424E+03  0.20197287993E+03  0.12508645339E+03 0.  0.
         23    2    1    2    0    0  0.40314467622E+02 -0.68054579290E+01  0.26538388987E+03  0.28379036885E+03  0.91852021713E+02 0.  0.
          5    1    3    3  502    0 -0.44692939764E+02 -0.16506531688E+02  0.97217223084E+00  0.47836617480E+02  0.41800000000E+01 0. -1.
         -5    1    3    3    0  502  0.43784721418E+01  0.23311989617E+02  0.15224288201E+03  0.15413626245E+03  0.41800000000E+01 0. -1.
        -11    1    4    4    0    0 -0.11145145959E+02 -0.15105782497E+02  0.67387652345E+01  0.19945172352E+02  0.00000000000E+00 0.  1.
         11    1    4    4    0    0  0.51459613580E+02  0.83003245676E+01  0.25864512464E+03  0.26384519650E+03  0.00000000000E+00 0. -1.
</event>
<event>
 8    1  0.7168478E-009  0.1036165E+03  0.7561462E-02  0.1272870E+00
          1   -1    0    0  501    0  0.00000000000E+00  0.00000000000E+00  0.50819211390E+03  0.50819211390E+03  0.00000000000E+00 0. -1.
         -1   -1    0    0    0  501 -0.00000000000E+00 -0.00000000000E+00 -0.35315108184E+02  0.35315108184E+02  0.00000000000E+00 0.  1.
         25    2    1    2    0    0 -0.30943780132E+02 -0.62653002735E+02  0.28229408016E+03  0.31657274750E+03  0.12508173522E+03 0.  0.
         23    2    1    2    0    0  0.30943780132E+02  0.62653002735E+02  0.19058292555E+03  0.22693447458E+03  0.10146175615E+03 0.  0.
          5    1    3    3  502    0  0.33566053780E+02 -0.51746708163E+01  0.17711983814E+03  0.18039502944E+03  0.41800000000E+01 0. -1.
         -5    1    3    3    0  502 -0.64509833912E+02 -0.57478331919E+02  0.10517424202E+03  0.13617771806E+03  0.41800000000E+01 0. -1.
        -11    1    4    4    0    0 -0.11920155920E+02  0.17671828771E+01 -0.82583375445E+01  0.14608668368E+02  0.00000000000E+00 0.  1.
         11    1    4    4    0    0  0.42863936052E+02  0.60885819858E+02  0.19884126310E+03  0.21232580621E+03  0.00000000000E+00 0. -1.
</event>
<event>
 8    1  0.7168478E-009  0.1072271E+03  0.7561462E-02  0.1265793E+00
          4   -1    0    0  501    0  0.00000000000E+00  0.00000000000E+00  0.31286517938E+03  0.31286517938E+03  0.00000000000E+00 0. -1.
         -4   -1    0    0    0  501 -0.00000000000E+00 -0.00000000000E+00 -0.42311238884E+02  0.42311238884E+02  0.00000000000E+00 0.  1.
         25    2    1    2    0    0 -0.36428628026E+02  0.19194153133E+02  0.11896993544E+03  0.17747259617E+03  0.12508883403E+03 0.  0.
         23    2    1    2    0    0  0.36428628026E+02 -0.19194153133E+02  0.15158400505E+03  0.17770382209E+03  0.83099201824E+02 0.  0.
          5    1    3    3  502    0 -0.13762508802E+02 -0.51411736442E+02  0.28822532218E+02  0.60669465598E+02  0.41800000000E+01 0. -1.
         -5    1    3    3    0  502 -0.22666119224E+02  0.70605889575E+02  0.90147403222E+02  0.11680313057E+03  0.41800000000E+01 0. -1.
        -11    1    4    4    0    0  0.57388037438E+02 -0.28249010716E+02  0.79197482607E+02  0.10180193858E+03  0.00000000000E+00 0. -1.
         11    1    4    4    0    0 -0.20959409412E+02  0.90548575832E+01  0.72386522446E+02  0.75901883512E+02  0.00000000000E+00 0.  1.
</event>
<event>
 8    1  0.7168478E-009  0.1632258E+03  0.7561462E-02  0.1185102E+00
         -1   -1    0    0    0  501 -0.00000000000E+00  0.00000000000E+00  0.14247939033E+03  0.14247939033E+03  0.00000000000E+00 0.  1.
          1   -1    0    0  501    0  0.00000000000E+00 -0.00000000000E+00 -0.26714420479E+03  0.26714420479E+03  0.00000000000E+00 0. -1.
         25    2    1    2    0    0 -0.52347999713E+02  0.12328957635E+03  0.30115246269E+02  0.18572718293E+03  0.12508807183E+03 0.  0.
         23    2    1    2    0    0  0.52347999713E+02 -0.12328957635E+03 -0.15478006073E+03  0.22389641218E+03  0.90730940027E+02 0.  0.
          5    1    3    3  502    0  0.37683841858E+02  0.38149174474E+02 -0.11393196403E+02  0.54979166732E+02  0.41800000000E+01 0.  1.
         -5    1    3    3    0  502 -0.90031841571E+02  0.85140401874E+02  0.41508442672E+02  0.13074801620E+03  0.41800000000E+01 0.  1.
        -11    1    4    4    0    0  0.67211616830E+02 -0.90950333823E+02 -0.15019564071E+03  0.18801089104E+03  0.00000000000E+00 0. -1.
         11    1    4    4    0    0 -0.14863617117E+02 -0.32339242525E+02 -0.45844200168E+01  0.35885521144E+02  0.00000000000E+00 0.  1.
</event>
<event>
 8    1  0.7168478E-009  0.8152259E+02  0.7561462E-02  0.1324785E+00
          1   -1    0    0  501    0  0.00000000000E+00  0.00000000000E+00  0.16094791662E+04  0.16094791662E+04  0.00000000000E+00 0. -1.
         -1   -1    0    0    0  501 -0.00000000000E+00 -0.00000000000E+00 -0.87339836116E+01  0.87339836116E+01  0.00000000000E+00 0.  1.
         25    2    1    2    0    0  0.27281383915E+02 -0.20761200897E+02  0.11450381697E+04  0.11523607693E+04  0.12509049200E+03 0.  0.
         23    2    1    2    0    0 -0.27281383915E+02  0.20761200897E+02  0.45570701288E+03  0.46585238050E+03  0.90411600244E+02 0.  0.
          5    1    3    3  502    0 -0.12822609966E+02 -0.22376403679E+02  0.48576627793E+02  0.55156902883E+02  0.41800000000E+01 0. -1.
         -5    1    3    3    0  502  0.40103993881E+02  0.16152027817E+01  0.10964615419E+04  0.10972038664E+04  0.41800000000E+01 0. -1.
        -11    1    4    4    0    0 -0.17654898724E+02  0.56686605956E+02  0.26838543232E+03  0.27487416581E+03  0.00000000000E+00 0.  1.
         11    1    4    4    0    0 -0.96264851911E+01 -0.35925405059E+02  0.18732158056E+03  0.19097821469E+03  0.00000000000E+00 0. -1.
</event>
<event>
 8    1  0.7168478E-009  0.1858822E+03  0.7561462E-02  0.1162229E+00
         -1   -1    0    0    0  501 -0.00000000000E+00  0.00000000000E+00  0.26090454133E+03  0.26090454133E+03  0.00000000000E+00 0.  1.
          1   -1    0    0  501    0  0.00000000000E+00 -0.00000000000E+00 -0.18108283971E+03  0.18108283971E+03  0.00000000000E+00 0. -1.
         25    2    1    2    0    0 -0.12994831987E+03 -0.10520237941E+03 -0.45592971737E+02  0.21372747796E+03  0.12508640731E+03 0.  0.
         23    2    1    2    0    0  0.12994831987E+03  0.10520237941E+03  0.12541467336E+03  0.22825990308E+03  0.91758577740E+02 0.  0.
          5    1    3    3  502    0 -0.96124049076E+02 -0.38930580853E+01  0.29360929424E+01  0.96338371139E+02  0.41800000000E+01 0. -1.
         -5    1    3    3    0  502 -0.33824270791E+02 -0.10130932132E+03 -0.48529064679E+02  0.11738910682E+03  0.41800000000E+01 0. -1.
        -11    1    4    4    0    0  0.65084097175E+02  0.38876373561E+02  0.46202797002E+01  0.75951689322E+02  0.00000000000E+00 0. -1.
         11    1    4    4    0    0  0.64864222692E+02  0.66326005850E+02  0.12079439366E+03  0.15230821376E+03  0.00000000000E+00 0.  1.
</event>
<event>
 8    1  0.7168478E-009  0.1567873E+03  0.7561462E-02  0.1192372E+00
          1   -1    0    0  501    0  0.00000000000E+00  0.00000000000E+00  0.11322395188E+04  0.11322395188E+04  0.00000000000E+00 0. -1.
         -1   -1    0    0    0  501 -0.00000000000E+00 -0.00000000000E+00 -0.24045974012E+02  0.24045974012E+02  0.00000000000E+00 0.  1.
         25    2    1    2    0    0 -0.11086325720E+03  0.50787901221E+02  0.66977214151E+03  0.69217928597E+03  0.12508944671E+03 0.  0.
         23    2    1    2    0    0  0.11086325720E+03 -0.50787901221E+02  0.43842140323E+03  0.46410620679E+03  0.91165627652E+02 0.  0.
          5    1    3    3  502    0  0.14915580190E+02  0.32805482662E+02  0.67449192461E+02  0.76586814719E+02  0.41800000000E+01 0.  1.
         -5    1    3    3    0  502 -0.12577883739E+03  0.17982418559E+02  0.60232294905E+03  0.61559247125E+03  0.41800000000E+01 0.  1.
        -11    1    4    4    0    0  0.10352061907E+03 -0.48348802861E+01  0.33576678786E+03  0.35139611619E+03  0.00000000000E+00 0.  1.
         11    1    4    4    0    0  0.73426381270E+01 -0.45953020935E+02  0.10265461537E+03  0.11271009061E+03  0.00000000000E+00 0. -1.
</event>
<event>
 8    1  0.7168478E-009  0.1326008E+03  0.7561462E-02  0.1223647E+00
          2   -1    0    0  501    0  0.00000000000E+00  0.00000000000E+00  0.41664387958E+03  0.41664387958E+03  0.00000000000E+00 0. -1.
         -2   -1    0    0    0  501 -0.00000000000E+00 -0.00000000000E+00 -0.56197544636E+02  0.56197544636E+02  0.00000000000E+00 0.  1.
         25    2    1    2    0    0 -0.72862995637E+02 -0.57392224857E+02  0.10953597466E+03  0.19039102276E+03  0.12509087974E+03 0.  0.
         23    2    1    2    0    0  0.72862995637E+02  0.57392224857E+02  0.25091036028E+03  0.28245040146E+03  0.90660558008E+02 0.  0.
          5    1    3    3  502    0 -0.33025775093E+02  0.27656248822E+02  0.81520154073E+02  0.92296142062E+02  0.41800000000E+01 0.  1.
         -5    1    3    3    0  502 -0.39837220543E+02 -0.85048473679E+02  0.28015820587E+02  0.98094880697E+02  0.41800000000E+01 0.  1.
        -11    1    4    4    0    0  0.48174639273E+02 -0.15776504609E+02  0.77280775211E+02  0.92423006789E+02  0.00000000000E+00 0.  1.
         11    1    4    4    0    0  0.24688356364E+02  0.73168729466E+02  0.17362958507E+03  0.19002739467E+03  0.00000000000E+00 0. -1.
</event>
<event>
 8    1  0.7168478E-009  0.1373865E+03  0.7561462E-02  0.1216890E+00
         -1   -1    0    0    0  501 -0.00000000000E+00  0.00000000000E+00  0.21921391721E+03  0.21921391721E+03  0.00000000000E+00 0.  1.
          1   -1    0    0  501    0  0.00000000000E+00 -0.00000000000E+00 -0.12246139452E+03  0.12246139452E+03  0.00000000000E+00 0. -1.
         25    2    1    2    0    0  0.12056409038E+03 -0.50236325311E+01  0.65670774220E+02  0.18579903577E+03  0.12509074440E+03 0.  0.
         23    2    1    2    0    0 -0.12056409038E+03  0.50236325311E+01  0.31081748465E+02  0.15587627595E+03  0.93650422009E+02 0.  0.
          5    1    3    3  502    0  0.37891741746E+02  0.83762244878E+01  0.90322576214E+02  0.98395047655E+02  0.41800000000E+01 0. -1.
         -5    1    3    3    0  502  0.82672348639E+02 -0.13399857019E+02 -0.24651801993E+02  0.87403988119E+02  0.41800000000E+01 0. -1.
        -11    1    4    4    0    0 -0.41004647555E+02 -0.42627925473E+02  0.20196778078E+02  0.62501447951E+02  0.00000000000E+00 0.  1.
         11    1    4    4    0    0 -0.79559442829E+02  0.47651558004E+02  0.10884970387E+02  0.93374827999E+02  0.00000000000E+00 0. -1.
</event>
<event>
 8    1  0.7168478E-009  0.1279773E+03  0.7561462E-02  0.1230488E+00
         -2   -1    0    0    0  501 -0.00000000000E+00  0.00000000000E+00  0.84064130873E+02  0.84064130873E+02  0.00000000000E+00 0.  1.
          2   -1    0    0  501    0  0.00000000000E+00 -0.00000000000E+00 -0.24721354358E+03  0.24721354358E+03  0.00000000000E+00 0. -1.
         25    2    1    2    0    0 -0.39513524638E+02 -0.69794088652E+02 -0.33163401081E+02  0.15224816549E+03  0.12508860573E+03 0.  0.
         23    2    1    2    0    0  0.39513524638E+02  0.69794088652E+02 -0.12998601163E+03  0.17902950896E+03  0.93395226976E+02 0.  0.
          5    1    3    3  502    0  0.32107664350E+02  0.14072156117E+02 -0.21335156125E+02  0.41250320903E+02  0.41800000000E+01 0.  1.
         -5    1    3    3    0  502 -0.71621188988E+02 -0.83866244768E+02 -0.11828244956E+02  0.11099784458E+03  0.41800000000E+01 0.  1.
        -11    1    4    4    0    0 -0.22930736034E+02  0.19666291542E+02 -0.77776168169E+02  0.83436886406E+02  0.00000000000E+00 0.  1.
         11    1    4    4    0    0  0.62444260672E+02  0.50127797109E+02 -0.52209843457E+02  0.95592622559E+02  0.00000000000E+00 0. -1.
</event>
<event>
 8    1  0.7168478E-009  0.9829640E+02  0.7561462E-02  0.1283920E+00
         -2   -1    0    0    0  501 -0.00000000000E+00  0.00000000000E+00  0.33402902958E+02  0.33402902958E+02  0.00000000000E+00 0.  1.
          2   -1    0    0  501    0  0.00000000000E+00 -0.00000000000E+00 -0.38716638859E+03  0.38716638859E+03  0.00000000000E+00 0. -1.
         25    2    1    2    0    0  0.16330344262E+02  0.17296135090E+02 -0.16812071321E+03  0.21089603480E+03  0.12508687722E+03 0.  0.
         23    2    1    2    0    0 -0.16330344262E+02 -0.17296135090E+02 -0.18564277242E+03  0.20967325675E+03  0.94518777016E+02 0.  0.
          5    1    3    3  502    0 -0.38328901598E+02  0.39516958375E+02 -0.12806343277E+03  0.13945755594E+03  0.41800000000E+01 0.  1.
         -5    1    3    3    0  502  0.54659245860E+02 -0.22220823284E+02 -0.40057280437E+02  0.71438478857E+02  0.41800000000E+01 0.  1.
        -11    1    4    4    0    0 -0.35923284194E+02 -0.38978721448E+02 -0.16650945641E+03  0.17474330358E+03  0.00000000000E+00 0. -1.
         11    1    4    4    0    0  0.19592939932E+02  0.21682586358E+02 -0.19133316013E+02  0.34929953163E+02  0.00000000000E+00 0.  1.
</event>
<event>
 8    1  0.7168478E-009  0.2739840E+03  0.7561462E-02  0.1099021E+00
         -2   -1    0    0    0  501 -0.00000000000E+00  0.00000000000E+00  0.80706229669E+02  0.80706229669E+02  0.00000000000E+00 0. -1.
          2   -1    0    0  501    0  0.00000000000E+00 -0.00000000000E+00 -0.12871379253E+04  0.12871379253E+04  0.00000000000E+00 0.  1.
         25    2    1    2    0    0  0.69426165406E+02 -0.25517743253E+03 -0.92743641371E+03  0.97248229467E+03  0.12509195606E+03 0.  0.
         23    2    1    2    0    0 -0.69426165406E+02  0.25517743253E+03 -0.27899528197E+03  0.39536186034E+03  0.92396529867E+02 0.  0.
          5    1    3    3  502    0  0.73860458744E+02 -0.97484300113E+02 -0.27111463499E+03  0.29745449037E+03  0.41800000000E+01 0. -1.
         -5    1    3    3    0  502 -0.44342933374E+01 -0.15769313242E+03 -0.65632177871E+03  0.67502780430E+03  0.41800000000E+01 0. -1.
        -11    1    4    4    0    0 -0.20877483622E+01  0.81188143621E+02 -0.14313367150E+03  0.16456950287E+03  0.00000000000E+00 0.  1.
         11    1    4    4    0    0 -0.67338417044E+02  0.17398928891E+03 -0.13586161047E+03  0.23079235747E+03  0.00000000000E+00 0. -1.
</event>
<event>
 8    1  0.7168478E-009  0.1228164E+03  0.7561462E-02  0.1238522E+00
         -1   -1    0    0    0  501 -0.00000000000E+00  0.00000000000E+00  0.25452368497E+03  0.25452368497E+03  0.00000000000E+00 0.  1.
          1   -1    0    0  501    0  0.00000000000E+00 -0.00000000000E+00 -0.63786109080E+02  0.63786109080E+02  0.00000000000E+00 0. -1.
         25    2    1    2    0    0 -0.11440185114E+02 -0.62055088450E+02  0.13510395274E+03  0.19463284589E+03  0.12508858788E+03 0.  0.
         23    2    1    2    0    0  0.11440185114E+02  0.62055088450E+02  0.55633623154E+02  0.12367694816E+03  0.90659669328E+02 0.  0.
          5    1    3    3  502    0 -0.50748136629E+02  0.11115112209E+02  0.77771848223E+02  0.93620787578E+02  0.41800000000E+01 0. -1.
         -5    1    3    3    0  502  0.39307951515E+02 -0.73170200659E+02  0.57332104513E+02  0.10101205831E+03  0.41800000000E+01 0. -1.
        -11    1    4    4    0    0  0.36229434507E+02 -0.70701079631E+01  0.16035092678E+02  0.40245279828E+02  0.00000000000E+00 0. -1.
         11    1    4    4    0    0 -0.24789249392E+02  0.69125196413E+02  0.39598530476E+02  0.83431668330E+02  0.00000000000E+00 0.  1.
</event>
<event>
 8    1  0.7168478E-009  0.1026430E+03  0.7561462E-02  0.1274834E+00
         -2   -1    0    0    0  501 -0.00000000000E+00  0.00000000000E+00  0.46800621295E+03  0.46800621295E+03  0.00000000000E+00 0.  1.
          2   -1    0    0  501    0  0.00000000000E+00 -0.00000000000E+00 -0.41796519780E+02  0.41796519780E+02  0.00000000000E+00 0. -1.
         25    2    1    2    0    0  0.43300719491E+02  0.60607001234E+02  0.32523222853E+03  0.35633216078E+03  0.12509374655E+03 0.  0.
         23    2    1    2    0    0 -0.43300719491E+02 -0.60607001234E+02  0.10097746464E+03  0.15347057195E+03  0.88366323799E+02 0.  0.
          5    1    3    3  502    0 -0.25020780241E+01 -0.17894977822E+02 -0.69647299955E-01  0.18546370977E+02  0.41800000000E+01 0. -1.
         -5    1    3    3    0  502  0.45802797515E+02  0.78501979056E+02  0.32530187583E+03  0.33778578981E+03  0.41800000000E+01 0. -1.
        -11    1    4    4    0    0  0.14020197926E+02 -0.23841152321E+02  0.76099972208E+02  0.80970193676E+02  0.00000000000E+00 0.  1.
         11    1    4    4    0    0 -0.57320917416E+02 -0.36765848913E+02  0.24877492432E+02  0.72500378271E+02  0.00000000000E+00 0. -1.
</event>
<event>
 8    1  0.7168478E-009  0.1456930E+03  0.7561462E-02  0.1205868E+00
         -2   -1    0    0    0  501 -0.00000000000E+00  0.00000000000E+00  0.47352518434E+02  0.47352518434E+02  0.00000000000E+00 0.  1.
          2   -1    0    0  501    0  0.00000000000E+00 -0.00000000000E+00 -0.48492724034E+03  0.48492724034E+03  0.00000000000E+00 0. -1.
         25    2    1    2    0    0 -0.10164887689E+03 -0.22470965822E+02 -0.21603260279E+03  0.27047153566E+03  0.12508927875E+03 0.  0.
         23    2    1    2    0    0  0.10164887689E+03  0.22470965822E+02 -0.22154211911E+03  0.26180822311E+03  0.92871936926E+02 0.  0.
          5    1    3    3  502    0  0.27807816569E+02 -0.15827266790E+02 -0.54244487857E+02  0.63116668949E+02  0.41800000000E+01 0.  1.
         -5    1    3    3    0  502 -0.12945669345E+03 -0.66436990321E+01 -0.16178811493E+03  0.20735486671E+03  0.41800000000E+01 0.  1.
        -11    1    4    4    0    0  0.98776948014E+02  0.43691969563E+02 -0.13624292579E+03  0.17386203868E+03  0.00000000000E+00 0.  1.
         11    1    4    4    0    0  0.28719288706E+01 -0.21221003742E+02 -0.85299193319E+02  0.87946184432E+02  0.00000000000E+00 0. -1.
</event>
<event>
 8    1  0.7168478E-009  0.1244253E+03  0.7561462E-02  0.1235970E+00
         -1   -1    0    0    0  501 -0.00000000000E+00  0.00000000000E+00  0.17086609955E+03  0.17086609955E+03  0.00000000000E+00 0.  1.
          1   -1    0    0  501    0  0.00000000000E+00 -0.00000000000E+00 -0.95910865872E+02  0.95910865872E+02  0.00000000000E+00 0. -1.
         25    2    1    2    0    0  0.34638678957E+02 -0.59915072762E+02  0.42042462643E+02  0.14901236638E+03  0.12508981832E+03 0.  0.
         23    2    1    2    0    0 -0.34638678957E+02  0.59915072762E+02  0.32912771033E+02  0.11776459904E+03  0.89418098085E+02 0.  0.
          5    1    3    3  502    0  0.42894452816E+02 -0.95622945823E+02  0.39356861506E+02  0.11202730380E+03  0.41800000000E+01 0.  1.
         -5    1    3    3    0  502 -0.82557738589E+01  0.35707873060E+02  0.26856011367E+01  0.36985062579E+02  0.41800000000E+01 0.  1.
        -11    1    4    4    0    0 -0.12869039764E+02 -0.20258395614E+02 -0.78166774557E+01  0.25241141491E+02  0.00000000000E+00 0.  1.
         11    1    4    4    0    0 -0.21769639193E+02  0.80173468376E+02  0.40729448489E+02  0.92523457546E+02  0.00000000000E+00 0. -1.
</event>
<event>
 8    1  0.7168478E-009  0.9660148E+02  0.7561462E-02  0.1287609E+00
         -3   -1    0    0    0  501 -0.00000000000E+00  0.00000000000E+00  0.90266932024E+02  0.90266932024E+02  0.00000000000E+00 0.  1.
          3   -1    0    0  501    0  0.00000000000E+00 -0.00000000000E+00 -0.18473409062E+03  0.18473409062E+03  0.00000000000E+00 0. -1.
         25    2    1    2    0    0  0.24104487470E+02  0.53052792923E+02 -0.94007677523E+02  0.16697540945E+03  0.12509084209E+03 0.  0.
         23    2    1    2    0    0 -0.24104487470E+02 -0.53052792923E+02 -0.45948107294E+00  0.10802561319E+03  0.90959863840E+02 0.  0.
          5    1    3    3  502    0  0.61711807582E+02  0.69018298416E+02 -0.83108867093E+02  0.12448465327E+03  0.41800000000E+01 0.  1.
         -5    1    3    3    0  502 -0.37607320112E+02 -0.15965505493E+02 -0.10898810430E+02  0.42490756176E+02  0.41800000000E+01 0.  1.
        -11    1    4    4    0    0 -0.11680813219E+02 -0.38933841249E+02  0.43909210305E+02  0.59835642734E+02  0.00000000000E+00 0.  1.
         11    1    4    4    0    0 -0.12423674251E+02 -0.14118951674E+02 -0.44368691378E+02  0.48189970459E+02  0.00000000000E+00 0. -1.
</event>
<event>
 8    1  0.7168478E-009  0.1190417E+03  0.7561462E-02  0.1244686E+00
         -4   -1    0    0    0  501 -0.00000000000E+00  0.00000000000E+00  0.54650288213E+02  0.54650288213E+02  0.00000000000E+00 0.  1.
          4   -1    0    0  501    0  0.00000000000E+00 -0.00000000000E+00 -0.26408288616E+03  0.26408288616E+03  0.00000000000E+00 0. -1.
         25    2    1    2    0    0 -0.88159315178E+00 -0.50833453195E+02 -0.12655547832E+03  0.18506351297E+03  0.12508955821E+03 0.  0.
         23    2    1    2    0    0  0.88159315178E+00  0.50833453195E+02 -0.82877119629E+02  0.13366966140E+03  0.91728644652E+02 0.  0.
          5    1    3    3  502    0  0.61228928394E+02 -0.16109470660E+02 -0.65723870512E+02  0.91354235109E+02  0.41800000000E+01 0. -1.
         -5    1    3    3    0  502 -0.62110521546E+02 -0.34723982535E+02 -0.60831607804E+02  0.93709277864E+02  0.41800000000E+01 0. -1.
        -11    1    4    4    0    0 -0.44293804320E+02  0.30703677238E+02 -0.31825057071E+02  0.62589864631E+02  0.00000000000E+00 0.  1.
         11    1    4    4    0    0  0.45175397471E+02  0.20129775958E+02 -0.51052062558E+02  0.71079796765E+02  0.00000000000E+00 0. -1.
</event>
<event>
 8    1  0.7168478E-009  0.2382070E+03  0.7561462E-02  0.1120993E+00
         -3   -1    0    0    0  501 -0.00000000000E+00  0.00000000000E+00  0.51933472847E+03  0.51933472847E+03  0.00000000000E+00 0.  1.
          3   -1    0    0  501    0  0.00000000000E+00 -0.00000000000E+00 -0.13257222286E+03  0.13257222286E+03  0.00000000000E+00 0. -1.
         25    2    1    2    0    0  0.14615335324E+02 -0.21923329366E+03  0.82788585744E+02  0.26604362200E+03  0.12509362016E+03 0.  0.
         23    2    1    2    0    0 -0.14615335324E+02  0.21923329366E+03  0.30397391987E+03  0.38586332933E+03  0.90628471720E+02 0.  0.
          5    1    3    3  502    0  0.60783966476E+02 -0.13972078065E+03  0.17996859042E+02  0.15348598132E+03  0.41800000000E+01 0. -1.
         -5    1    3    3    0  502 -0.46168631152E+02 -0.79512513011E+02  0.64791726702E+02  0.11255764069E+03  0.41800000000E+01 0. -1.
        -11    1    4    4    0    0  0.26750386892E+02  0.14034451349E+03  0.22657248630E+03  0.26785678490E+03  0.00000000000E+00 0.  1.
         11    1    4    4    0    0 -0.41365722216E+02  0.78888780166E+02  0.77401433561E+02  0.11800654443E+03  0.00000000000E+00 0. -1.
</event>
<event>
 8    1  0.7168478E-009  0.1140911E+03  0.7561462E-02  0.1253176E+00
         -1   -1    0    0    0  501 -0.00000000000E+00  0.00000000000E+00  0.22861416239E+03  0.22861416239E+03  0.00000000000E+00 0.  1.
          1   -1    0    0  501    0  0.00000000000E+00 -0.00000000000E+00 -0.72816312319E+02  0.72816312319E+02  0.00000000000E+00 0. -1.
         25    2    1    2    0    0 -0.69348698931E+02  0.24276773042E+02  0.71111880510E+02  0.16155729475E+03  0.12508099850E+03 0.  0.
         23    2    1    2    0    0  0.69348698931E+02 -0.24276773042E+02  0.84685969560E+02  0.13987317996E+03  0.83631269738E+02 0.  0.
          5    1    3    3  502    0  0.23929235119E+02  0.21625591150E+02 -0.13792947260E+02  0.35326934202E+02  0.41800000000E+01 0.  1.
         -5    1    3    3    0  502 -0.93277934050E+02  0.26511818925E+01  0.84904827770E+02  0.12623036055E+03  0.41800000000E+01 0.  1.
        -11    1    4    4    0    0  0.46837626106E+02  0.21272193917E+02  0.14910250300E+02  0.53559173046E+02  0.00000000000E+00 0. -1.
         11    1    4    4    0    0  0.22511072824E+02 -0.45548966959E+02  0.69775719260E+02  0.86314006911E+02  0.00000000000E+00 0.  1.
</event>
<event>
 8    1  0.7168478E-009  0.2108638E+03  0.7561462E-02  0.1140884E+00
         -2   -1    0    0    0  501 -0.00000000000E+00  0.00000000000E+00  0.54161090091E+03  0.54161090091E+03  0.00000000000E+00 0.  1.
          2   -1    0    0  501    0  0.00000000000E+00 -0.00000000000E+00 -0.94691165208E+02  0.94691165208E+02  0.00000000000E+00 0. -1.
         25    2    1    2    0    0  0.79873298305E+02 -0.17806187240E+03  0.29287092932E+03  0.37350577893E+03  0.12508961373E+03 0.  0.
         23    2    1    2    0    0 -0.79873298305E+02  0.17806187240E+03  0.15404880638E+03  0.26279628719E+03  0.85118033505E+02 0.  0.
          5    1    3    3  502    0  0.11812242260E+02 -0.11639528744E+03  0.24103884973E+03  0.26796378764E+03  0.41800000000E+01 0.  1.
         -5    1    3    3    0  502  0.68061056045E+02 -0.61666584960E+02  0.51832079596E+02  0.10554199129E+03  0.41800000000E+01 0.  1.
        -11    1    4    4    0    0 -0.41983956485E+02  0.16849058762E+03  0.12994419487E+03  0.21688066880E+03  0.00000000000E+00 0. -1.
         11    1    4    4    0    0 -0.37889341820E+02  0.95712847817E+01  0.24104611506E+02  0.45915618386E+02  0.00000000000E+00 0.  1.
</event>
<event>
 8    1  0.7168478E-009  0.8278308E+02  0.7561462E-02  0.1321334E+00
          1   -1    0    0  501    0  0.00000000000E+00  0.00000000000E+00  0.72889740988E+02  0.72889740988E+02  0.00000000000E+00 0. -1.
         -1   -1    0    0    0  501 -0.00000000000E+00 -0.00000000000E+00 -0.33966209869E+03  0.33966209869E+03  0.00000000000E+00 0.  1.
         25    2    1    2    0    0  0.25664983240E+01  0.47597516829E+02 -0.28026914336E+03  0.31059816440E+03  0.12509323118E+03 0.  0.
         23    2    1    2    0    0 -0.25664983240E+01 -0.47597516829E+02  0.13496785655E+02  0.10195367528E+03  0.89108238442E+02 0.  0.
          5    1    3    3  502    0 -0.34320185831E+01  0.66081846885E+02 -0.59959318755E+02  0.89393408845E+02  0.41800000000E+01 0. -1.
         -5    1    3    3    0  502  0.59985169071E+01 -0.18484330056E+02 -0.22030982460E+03  0.22120475555E+03  0.41800000000E+01 0. -1.
        -11    1    4    4    0    0  0.26054730305E+02 -0.27717649744E+01 -0.25065762277E+02  0.36260503180E+02  0.00000000000E+00 0.  1.
         11    1    4    4    0    0 -0.28621228629E+02 -0.44825751855E+02  0.38562547933E+02  0.65693172100E+02  0.00000000000E+00 0. -1.
</event>
<event>
 8    1  0.7168478E-009  0.1415558E+03  0.7561462E-02  0.1211251E+00
         -2   -1    0    0    0  501 -0.00000000000E+00  0.00000000000E+00  0.10311276297E+03  0.10311276297E+03  0.00000000000E+00 0.  1.
          2   -1    0    0  501    0  0.00000000000E+00 -0.00000000000E+00 -0.24103973747E+03  0.24103973747E+03  0.00000000000E+00 0. -1.
         25    2    1    2    0    0 -0.16940945569E+02  0.11114165115E+03 -0.74003610070E+02  0.18374968730E+03  0.12509177041E+03 0.  0.
         23    2    1    2    0    0  0.16940945569E+02 -0.11114165115E+03 -0.63923364428E+02  0.16040281313E+03  0.94886267098E+02 0.  0.
          5    1    3    3  502    0 -0.66770741942E+02  0.93759012245E+02 -0.53118740733E+02  0.12683910033E+03  0.41800000000E+01 0.  1.
         -5    1    3    3    0  502  0.49829796373E+02  0.17382638903E+02 -0.20884869337E+02  0.56910586968E+02  0.41800000000E+01 0.  1.
        -11    1    4    4    0    0  0.21744394185E+02 -0.63744120328E+02  0.14264125409E+02  0.68844729853E+02  0.00000000000E+00 0.  1.
         11    1    4    4    0    0 -0.48034486160E+01 -0.47397530820E+02 -0.78187489837E+02  0.91558083277E+02  0.00000000000E+00 0. -1.
</event>
<event>
 8    1  0.7168478E-009  0.9753563E+02  0.7561462E-02  0.1285565E+00
         -1   -1    0    0    0  501 -0.00000000000E+00  0.00000000000E+00  0.24790587153E+03  0.24790587153E+03  0.00000000000E+00 0.  1.
          1   -1    0    0  501    0  0.00000000000E+00 -0.00000000000E+00 -0.65833350004E+02  0.65833350004E+02  0.00000000000E+00 0. -1.
         25    2    1    2    0    0  0.20038478928E+02  0.42015036299E+02  0.16577529139E+03  0.21282367261E+03  0.12508263059E+03 0.  0.
         23    2    1    2    0    0 -0.20038478928E+02 -0.42015036299E+02  0.16297230140E+02  0.10091554892E+03  0.88042855426E+02 0.  0.
          5    1    3    3  502    0 -0.54673755074E+01  0.80127195390E+02  0.70273277830E+02  0.10679918358E+03  0.41800000000E+01 0. -1.
         -5    1    3    3    0  502  0.25505854435E+02 -0.38112159091E+02  0.95502013560E+02  0.10602448903E+03  0.41800000000E+01 0. -1.
        -11    1    4    4    0    0 -0.33940843056E+02 -0.12852631016E+02 -0.28176217242E+02  0.45946383638E+02  0.00000000000E+00 0. -1.
         11    1    4    4    0    0  0.13902364128E+02 -0.29162405284E+02  0.44473447381E+02  0.54969165286E+02  0.00000000000E+00 0.  1.
</event>
<event>
 8    1  0.7168478E-009  0.8018922E+02  0.7561462E-02  0.1328515E+00
         -2   -1    0    0    0  501 -0.00000000000E+00  0.00000000000E+00  0.37300383459E+03  0.37300383459E+03  0.00000000000E+00 0. -1.
          2   -1    0    0  501    0  0.00000000000E+00 -0.00000000000E+00 -0.40584633623E+02  0.40584633623E+02  0.00000000000E+00 0.  1.
         25    2    1    2    0    0  0.48219561601E+02 -0.15827377161E+02  0.13741518748E+03  0.19262887433E+03  0.12508923808E+03 0.  0.
         23    2    1    2    0    0 -0.48219561601E+02  0.15827377161E+02  0.19500401348E+03  0.22095959389E+03  0.90669426306E+02 0.  0.
          5    1    3    3  502    0  0.16025793385E+01 -0.10506332752E+02 -0.22871255500E+02  0.25563998446E+02  0.41800000000E+01 0.  1.
         -5    1    3    3    0  502  0.46616982263E+02 -0.53210444089E+01  0.16028644298E+03  0.16706487588E+03  0.41800000000E+01 0.  1.
        -11    1    4    4    0    0 -0.57763171823E+02 -0.22772812150E+02  0.96691644849E+02  0.11491065736E+03  0.00000000000E+00 0.  1.
         11    1    4    4    0    0  0.95436102218E+01  0.38600189311E+02  0.98312368634E+02  0.10604893652E+03  0.00000000000E+00 0. -1.
</event>
<event>
 8    1  0.7168478E-009  0.2381935E+03  0.7561462E-02  0.1121002E+00
         -1   -1    0    0    0  501 -0.00000000000E+00  0.00000000000E+00  0.59289414757E+03  0.59289414757E+03  0.00000000000E+00 0.  1.
          1   -1    0    0  501    0  0.00000000000E+00 -0.00000000000E+00 -0.11343965531E+03  0.11343965531E+03  0.00000000000E+00 0. -1.
         25    2    1    2    0    0  0.13220688141E+03  0.17993054828E+03  0.14588606206E+03  0.29459232783E+03  0.12509290475E+03 0.  0.
         23    2    1    2    0    0 -0.13220688141E+03 -0.17993054828E+03  0.33356843020E+03  0.41174147505E+03  0.91703233084E+02 0.  0.
          5    1    3    3  502    0  0.10400733785E+02  0.94889277033E+02  0.10170991852E+03  0.13955117371E+03  0.41800000000E+01 0.  1.
         -5    1    3    3    0  502  0.12180614762E+03  0.85041271243E+02  0.44176143546E+02  0.15504115412E+03  0.41800000000E+01 0.  1.
        -11    1    4    4    0    0 -0.29640024634E+02 -0.59064509104E+01  0.92044555836E+02  0.96879396580E+02  0.00000000000E+00 0.  1.
         11    1    4    4    0    0 -0.10256685677E+03 -0.17402409737E+03  0.24152387437E+03  0.31486207847E+03  0.00000000000E+00 0. -1.
</event>
<event>
 8    1  0.7168478E-009  0.2183395E+03  0.7561462E-02  0.1135127E+00
          1   -1    0    0  501    0  0.00000000000E+00  0.00000000000E+00  0.17750316602E+04  0.17750316602E+04  0.00000000000E+00 0. -1.
         -1   -1    0    0    0  501 -0.00000000000E+00 -0.00000000000E+00 -0.38885135698E+02  0.38885135698E+02  0.00000000000E+00 0.  1.
         25    2    1    2    0    0 -0.16412702593E+03  0.11392139332E+03  0.43745885422E+03  0.49692414960E+03  0.12509035466E+03 0.  0.
         23    2    1    2    0    0  0.16412702593E+03 -0.11392139332E+03  0.12986876703E+04  0.13169926463E+04  0.89242371904E+02 0.  0.
          5    1    3    3  502    0 -0.17445707956E+03  0.10885168782E+03  0.43879818694E+03  0.48460838190E+03  0.41800000000E+01 0.  1.
         -5    1    3    3    0  502  0.10330053633E+02  0.50697055019E+01 -0.13393327212E+01  0.12315767701E+02  0.41800000000E+01 0.  1.
        -11    1    4    4    0    0  0.17752436052E+02  0.15356636115E+02  0.13072618268E+03  0.13281682911E+03  0.00000000000E+00 0. -1.
         11    1    4    4    0    0  0.14637458988E+03 -0.12927802944E+03  0.11679614876E+04  0.11841758172E+04  0.00000000000E+00 0.  1.
</event>
<event>
 8    1  0.7168478E-009  0.1136459E+03  0.7561462E-02  0.1253963E+00
          1   -1    0    0  501    0  0.00000000000E+00  0.00000000000E+00  0.81012006173E+02  0.81012006173E+02  0.00000000000E+00 0. -1.
         -1   -1    0    0    0  501 -0.00000000000E+00 -0.00000000000E+00 -0.25139258861E+03  0.25139258861E+03  0.00000000000E+00 0.  1.
         25    2    1    2    0    0 -0.67703240587E+02  0.47149877045E+02 -0.14226050551E+03  0.20662072969E+03  0.12508890765E+03 0.  0.
         23    2    1    2    0    0  0.67703240587E+02 -0.47149877045E+02 -0.28120076931E+02  0.12578386510E+03  0.90686285084E+02 0.  0.
          5    1    3    3  502    0 -0.29669815252E+02  0.58053822520E+02 -0.15218577360E+03  0.16561559810E+03  0.41800000000E+01 0. -1.
         -5    1    3    3    0  502 -0.38033425335E+02 -0.10903945475E+02  0.99252680941E+01  0.41005131586E+02  0.41800000000E+01 0. -1.
        -11    1    4    4    0    0  0.22386082722E+02 -0.68511723507E+02 -0.21715442441E+02  0.75276512924E+02  0.00000000000E+00 0. -1.
         11    1    4    4    0    0  0.45317157864E+02  0.21361846462E+02 -0.64046344904E+01  0.50507352179E+02  0.00000000000E+00 0.  1.
</event>
<event>
 8    1  0.7168478E-009  0.1204838E+03  0.7561462E-02  0.1242301E+00
          1   -1    0    0  501    0  0.00000000000E+00  0.00000000000E+00  0.87703623806E+02  0.87703623806E+02  0.00000000000E+00 0. -1.
         -1   -1    0    0    0  501 -0.00000000000E+00 -0.00000000000E+00 -0.17346636035E+03  0.17346636035E+03  0.00000000000E+00 0.  1.
         25    2    1    2    0    0  0.46919685819E+02  0.34468872215E+02 -0.60428056850E+02  0.15062655185E+03  0.12508896034E+03 0.  0.
         23    2    1    2    0    0 -0.46919685819E+02 -0.34468872215E+02 -0.25334679691E+02  0.11054343230E+03  0.90490023545E+02 0.  0.
          5    1    3    3  502    0  0.36108708208E+02 -0.44571779333E+02 -0.32102055688E+02  0.65867265776E+02  0.41800000000E+01 0.  1.
         -5    1    3    3    0  502  0.10810977611E+02  0.79040651548E+02 -0.28326001162E+02  0.84759286074E+02  0.41800000000E+01 0.  1.
        -11    1    4    4    0    0  0.18036499503E+02 -0.34137926753E+02 -0.24218434823E+02  0.45576813651E+02  0.00000000000E+00 0. -1.
         11    1    4    4    0    0 -0.64956185322E+02 -0.33094546145E+00 -0.11162448687E+01  0.64966618652E+02  0.00000000000E+00 0.  1.
</event>
<event>
 8    1  0.7168478E-009  0.1141363E+03  0.7561462E-02  0.1253096E+00
         -2   -1    0    0    0  501 -0.00000000000E+00  0.00000000000E+00  0.17340189055E+02  0.17340189055E+02  0.00000000000E+00 0. -1.
          2   -1    0    0  501    0  0.00000000000E+00 -0.00000000000E+00 -0.93737120676E+03  0.93737120676E+03  0.00000000000E+00 0.  1.
         25    2    1    2    0    0 -0.25384400036E+02 -0.58007984529E+02 -0.45045090741E+03  0.47176523279E+03  0.12508845210E+03 0.  0.
         23    2    1    2    0    0  0.25384400036E+02  0.58007984529E+02 -0.46958011029E+03  0.48294616302E+03  0.93392838913E+02 0.  0.
          5    1    3    3  502    0  0.15780078969E+02  0.25248104441E+02 -0.35473097212E+02  0.46500437589E+02  0.41800000000E+01 0.  1.
         -5    1    3    3    0  502 -0.41164479005E+02 -0.83256088970E+02 -0.41497781020E+03  0.42526479520E+03  0.41800000000E+01 0.  1.
        -11    1    4    4    0    0  0.53303982789E+02  0.55894346379E+02 -0.40872587768E+03  0.41595953604E+03  0.00000000000E+00 0.  1.
         11    1    4    4    0    0 -0.27919582753E+02  0.21136381508E+01 -0.60854232615E+02  0.66986626983E+02  0.00000000000E+00 0. -1.
</event>
<event>
 8    1  0.7168478E-009  0.1514231E+03  0.7561462E-02  0.1198735E+00
          2   -1    0    0  501    0  0.00000000000E+00  0.00000000000E+00  0.23465378059E+03  0.23465378059E+03  0.00000000000E+00 0. -1.
         -2   -1    0    0    0  501 -0.00000000000E+00 -0.00000000000E+00 -0.10304001770E+03  0.10304001770E+03  0.00000000000E+00 0.  1.
         25    2    1    2    0    0  0.60544659253E+02 -0.90001405008E+02  0.98510503049E+02  0.19265696162E+03  0.12508587842E+03 0.  0.
         23    2    1    2    0    0 -0.60544659253E+02  0.90001405008E+02  0.33103259840E+02  0.14503683667E+03  0.90409897194E+02 0.  0.
          5    1    3    3  502    0  0.97964177554E+02 -0.62390989830E+02  0.85204452917E+02  0.14410720625E+03  0.41800000000E+01 0.  1.
         -5    1    3    3    0  502 -0.37419518301E+02 -0.27610415179E+02  0.13306050132E+02  0.48549755368E+02  0.41800000000E+01 0.  1.
        -11    1    4    4    0    0 -0.37801017965E+02 -0.85815601737E+01  0.18018085841E+02  0.42745895143E+02  0.00000000000E+00 0.  1.
         11    1    4    4    0    0 -0.22743641287E+02  0.98582965182E+02  0.15085173999E+02  0.10229094152E+03  0.00000000000E+00 0. -1.
</event>
<event>
 8    1  0.7168478E-009  0.1221147E+03  0.7561462E-02  0.1239649E+00
         -2   -1    0    0    0  501 -0.00000000000E+00  0.00000000000E+00  0.14546744910E+03  0.14546744910E+03  0.00000000000E+00 0.  1.
          2   -1    0    0  501    0  0.00000000000E+00 -0.00000000000E+00 -0.13049166414E+03  0.13049166414E+03  0.00000000000E+00 0. -1.
         25    2    1    2    0    0 -0.34015701864E+02  0.47849328983E+02  0.69147803074E+02  0.15451987536E+03  0.12509335296E+03 0.  0.
         23    2    1    2    0    0  0.34015701864E+02 -0.47849328983E+02 -0.54172018111E+02  0.12143923788E+03  0.91467232888E+02 0.  0.
          5    1    3    3  502    0 -0.63899144811E+02 -0.17256899882E+02  0.36231878151E+02  0.75571970303E+02  0.41800000000E+01 0.  1.
         -5    1    3    3    0  502  0.29883442947E+02  0.65106228865E+02  0.32915924923E+02  0.78947905057E+02  0.41800000000E+01 0.  1.
        -11    1    4    4    0    0  0.63961968946E+02 -0.25831759349E+02 -0.47299352399E+02  0.83639954566E+02  0.00000000000E+00 0. -1.
         11    1    4    4    0    0 -0.29946267082E+02 -0.22017569635E+02 -0.68726657122E+01  0.37799283310E+02  0.00000000000E+00 0.  1.
</event>
<event>
 8    1  0.7168478E-009  0.1064234E+03  0.7561462E-02  0.1267340E+00
          1   -1    0    0  501    0  0.00000000000E+00  0.00000000000E+00  0.26770127428E+03  0.26770127428E+03  0.00000000000E+00 0. -1.
         -1   -1    0    0    0  501 -0.00000000000E+00 -0.00000000000E+00 -0.63352756222E+02  0.63352756222E+02  0.00000000000E+00 0.  1.
         25    2    1    2    0    0  0.35917359729E+02  0.27853008450E+02  0.45756181954E+02  0.14075130219E+03  0.12510577154E+03 0.  0.
         23    2    1    2    0    0 -0.35917359729E+02 -0.27853008450E+02  0.15859233610E+03  0.19030272830E+03  0.94856483807E+02 0.  0.
          5    1    3    3  502    0  0.72418782902E+02 -0.39538821639E+01  0.55209383550E+02  0.91245064158E+02  0.41800000000E+01 0.  1.
         -5    1    3    3    0  502 -0.36501423173E+02  0.31806890613E+02 -0.94532015957E+01  0.49506238037E+02  0.41800000000E+01 0.  1.
        -11    1    4    4    0    0 -0.61400851590E+02 -0.23539343106E+02  0.62235105194E+02  0.90539348177E+02  0.00000000000E+00 0.  1.
         11    1    4    4    0    0  0.25483491861E+02 -0.43136653432E+01  0.96357230906E+02  0.99763380125E+02  0.00000000000E+00 0. -1.
</event>
<event>
 8    1  0.7168478E-009  0.1960046E+03  0.7561462E-02  0.1153154E+00
          3   -1    0    0  501    0  0.00000000000E+00  0.00000000000E+00  0.42540953267E+03  0.42540953267E+03  0.00000000000E+00 0. -1.
         -3   -1    0    0    0  501 -0.00000000000E+00 -0.00000000000E+00 -0.96070229996E+02  0.96070229996E+02  0.00000000000E+00 0.  1.
         25    2    1    2    0    0 -0.13433570135E+03  0.93131792607E+02  0.23516275230E+03  0.31251738653E+03  0.12508391330E+03 0.  0.
         23    2    1    2    0    0  0.13433570135E+03 -0.93131792607E+02  0.94176550375E+02  0.20896237613E+03  0.89869018839E+02 0.  0.
          5    1    3    3  502    0 -0.23841154610E+02 -0.31157622704E+02  0.46730883712E+02  0.61159185722E+02  0.41800000000E+01 0.  1.
         -5    1    3    3    0  502 -0.11049454674E+03  0.12428941531E+03  0.18843186859E+03  0.25135820081E+03  0.41800000000E+01 0.  1.
        -11    1    4    4    0    0  0.13562707460E+02 -0.59222097045E+02  0.24886802293E+02  0.65654830290E+02  0.00000000000E+00 0.  1.
         11    1    4    4    0    0  0.12077299389E+03 -0.33909695561E+02  0.69289748082E+02  0.14330754584E+03  0.00000000000E+00 0. -1.
</event>
<event>
 8    1  0.7168478E-009  0.5964065E+02  0.7561462E-02  0.1399346E+00
          1   -1    0    0  501    0  0.00000000000E+00  0.00000000000E+00  0.14374167117E+03  0.14374167117E+03  0.00000000000E+00 0. -1.
         -1   -1    0    0    0  501 -0.00000000000E+00 -0.00000000000E+00 -0.82884791432E+02  0.82884791432E+02  0.00000000000E+00 0.  1.
         25    2    1    2    0    0 -0.16500578047E+01  0.25223130145E+01  0.67683454023E+02  0.14225890119E+03  0.12508980880E+03 0.  0.
         23    2    1    2    0    0  0.16500578047E+01 -0.25223130145E+01 -0.68265742881E+01  0.84367561407E+02  0.84036888017E+02 0.  0.
          5    1    3    3  502    0  0.21659302511E+02 -0.22117294297E+02 -0.27192907140E+02  0.41415295375E+02  0.41800000000E+01 0.  1.
         -5    1    3    3    0  502 -0.23309360315E+02  0.24639607311E+02  0.94876361163E+02  0.10084360582E+03  0.41800000000E+01 0.  1.
        -11    1    4    4    0    0  0.57589283411E+01  0.25197163733E+02 -0.35737484522E+02  0.44104762960E+02  0.00000000000E+00 0.  1.
         11    1    4    4    0    0 -0.41088705364E+01 -0.27719476747E+02  0.28910910234E+02  0.40262798447E+02  0.00000000000E+00 0. -1.
</event>
<event>
 8    1  0.7168478E-009  0.9874393E+02  0.7561462E-02  0.1282960E+00
          1   -1    0    0  501    0  0.00000000000E+00  0.00000000000E+00  0.17958848716E+03  0.17958848716E+03  0.00000000000E+00 0. -1.
         -1   -1    0    0    0  501 -0.00000000000E+00 -0.00000000000E+00 -0.73683565355E+02  0.73683565355E+02  0.00000000000E+00 0.  1.
         25    2    1    2    0    0 -0.33955073571E+02  0.27603475540E+01  0.83424084293E+02  0.15416945312E+03  0.12509226953E+03 0.  0.
         23    2    1    2    0    0  0.33955073571E+02 -0.27603475540E+01  0.22480837510E+02  0.99102599393E+02  0.90307090594E+02 0.  0.
          5    1    3    3  502    0  0.22532218574E+02  0.45413353844E+02  0.95187305820E+01  0.51750866787E+02  0.41800000000E+01 0. -1.
         -5    1    3    3    0  502 -0.56487292145E+02 -0.42653006290E+02  0.73905353711E+02  0.10241858633E+03  0.41800000000E+01 0. -1.
        -11    1    4    4    0    0  0.52122249143E+02  0.10567744659E+02 -0.15099902719E+02  0.55284836483E+02  0.00000000000E+00 0.  1.
         11    1    4    4    0    0 -0.18167175571E+02 -0.13328092213E+02  0.37580740229E+02  0.43817762910E+02  0.00000000000E+00 0. -1.
</event>
<event>
 8    1  0.7168478E-009  0.1639734E+03  0.7561462E-02  0.1184282E+00
          1   -1    0    0  501    0  0.00000000000E+00  0.00000000000E+00  0.64881445890E+03  0.64881445890E+03  0.00000000000E+00 0.  1.
         -1   -1    0    0    0  501 -0.00000000000E+00 -0.00000000000E+00 -0.10332932826E+03  0.10332932826E+03  0.00000000000E+00 0. -1.
         25    2    1    2    0    0  0.42207063217E+02 -0.14538188365E+03  0.19668160603E+02  0.19736367857E+03  0.12509299260E+03 0.  0.
         23    2    1    2    0    0 -0.42207063217E+02  0.14538188365E+03  0.52581697003E+03  0.55478010859E+03  0.91543184531E+02 0.  0.
          5    1    3    3  502    0  0.24525097463E+02 -0.14535278705E+03 -0.24606920558E+02  0.14950547163E+03  0.41800000000E+01 0. -1.
         -5    1    3    3    0  502  0.17681965754E+02 -0.29096602101E-01  0.44275081161E+02  0.47858206938E+02  0.41800000000E+01 0. -1.
        -11    1    4    4    0    0 -0.53372133446E+02  0.81232781897E+02  0.41516939121E+03  0.42639532464E+03  0.00000000000E+00 0.  1.
         11    1    4    4    0    0  0.11165070229E+02  0.64149101753E+02  0.11064757883E+03  0.12838478395E+03  0.00000000000E+00 0. -1.
</event>
<event>
 8    1  0.7168478E-009  0.1082373E+03  0.7561462E-02  0.1263869E+00
          2   -1    0    0  501    0  0.00000000000E+00  0.00000000000E+00  0.66276150273E+03  0.66276150273E+03  0.00000000000E+00 0. -1.
         -2   -1    0    0    0  501 -0.00000000000E+00 -0.00000000000E+00 -0.21230862388E+02  0.21230862388E+02  0.00000000000E+00 0.  1.
         25    2    1    2    0    0  0.16609243317E+01  0.26531944243E+02  0.46557434859E+03  0.48281799943E+03  0.12508814402E+03 0.  0.
         23    2    1    2    0    0 -0.16609243317E+01 -0.26531944243E+02  0.17595629175E+03  0.20117436569E+03  0.93828599410E+02 0.  0.
          5    1    3    3  502    0  0.19568050890E+01 -0.49847874861E+02  0.21909361467E+03  0.22474012571E+03  0.41800000000E+01 0.  1.
         -5    1    3    3    0  502 -0.29588075733E+00  0.76379819104E+02  0.24648073393E+03  0.25807787373E+03  0.41800000000E+01 0.  1.
        -11    1    4    4    0    0 -0.28497303383E+02 -0.47817926378E+02  0.67801699452E+02  0.87725257662E+02  0.00000000000E+00 0.  1.
         11    1    4    4    0    0  0.26836379051E+02  0.21285982136E+02  0.10815459230E+03  0.11344910802E+03  0.00000000000E+00 0. -1.
</event>
<event>
 8    1  0.7168478E-009  0.7334876E+02  0.7561462E-02  0.1349062E+00
         -2   -1    0    0    0  501 -0.00000000000E+00  0.00000000000E+00  0.13656442665E+03  0.13656442665E+03  0.00000000000E+00 0.  1.
          2   -1    0    0  501    0  0.00000000000E+00 -0.00000000000E+00 -0.20110423359E+03  0.20110423359E+03  0.00000000000E+00 0. -1.
         25    2    1    2    0    0  0.37246366863E+02 -0.52813902519E+02 -0.14322042384E+03  0.20084009682E+03  0.12509218418E+03 0.  0.
         23    2    1    2    0    0 -0.37246366863E+02  0.52813902519E+02  0.78680616896E+02  0.13682856342E+03  0.91404683408E+02 0.  0.
          5    1    3    3  502    0  0.20633342116E+02 -0.55763835026E+02 -0.31430633423E+01  0.59688284871E+02  0.41800000000E+01 0.  1.
         -5    1    3    3    0  502  0.16613024747E+02  0.29499325067E+01 -0.14007736050E+03  0.14115181195E+03  0.41800000000E+01 0.  1.
        -11    1    4    4    0    0 -0.16614699623E+02  0.44437301327E+02  0.97008992372E+02  0.10798827063E+03  0.00000000000E+00 0.  1.
         11    1    4    4    0    0 -0.20631667240E+02  0.83766011923E+01 -0.18328375476E+02  0.28840292790E+02  0.00000000000E+00 0. -1.
</event>
<event>
 8    1  0.7168478E-009  0.9386045E+02  0.7561462E-02  0.1293763E+00
          2   -1    0    0  501    0  0.00000000000E+00  0.00000000000E+00  0.90564353907E+02  0.90564353907E+02  0.00000000000E+00 0. -1.
         -2   -1    0    0    0  501 -0.00000000000E+00 -0.00000000000E+00 -0.15874330972E+03  0.15874330972E+03  0.00000000000E+00 0.  1.
         25    2    1    2    0    0 -0.27419712853E+02  0.70314128184E-01  0.72494950786E+01  0.12826132580E+03  0.12508623793E+03 0.  0.
         23    2    1    2    0    0  0.27419712853E+02 -0.70314128184E-01 -0.75428450892E+02  0.12104633783E+03  0.90614121970E+02 0.  0.
          5    1    3    3  502    0 -0.30330801756E+02 -0.50439202354E+02 -0.29132771003E+02  0.65804721834E+02  0.41800000000E+01 0.  1.
         -5    1    3    3    0  502  0.29110889029E+01  0.50509516483E+02  0.36382266081E+02  0.62456603967E+02  0.41800000000E+01 0.  1.
        -11    1    4    4    0    0 -0.14508503138E+02  0.25140495278E+02 -0.64767207604E+02  0.70974166758E+02  0.00000000000E+00 0.  1.
         11    1    4    4    0    0  0.41928215992E+02 -0.25210809406E+02 -0.10661243288E+02  0.50072171069E+02  0.00000000000E+00 0. -1.
</event>
<event>
 8    1  0.7168478E-009  0.1006864E+03  0.7561462E-02  0.1278859E+00
         -2   -1    0    0    0  501 -0.00000000000E+00  0.00000000000E+00  0.63063767743E+03  0.63063767743E+03  0.00000000000E+00 0.  1.
          2   -1    0    0  501    0  0.00000000000E+00 -0.00000000000E+00 -0.22743611501E+02  0.22743611501E+02  0.00000000000E+00 0. -1.
         25    2    1    2    0    0 -0.15103626616E+02 -0.47799082164E+02  0.32463762937E+03  0.35149629455E+03  0.12508870008E+03 0.  0.
         23    2    1    2    0    0  0.15103626616E+02  0.47799082164E+02  0.28325643656E+03  0.30188499438E+03  0.91583127197E+02 0.  0.
          5    1    3    3  502    0  0.12422915626E+02  0.28595384487E+02  0.20146744206E+03  0.20390838006E+03  0.41800000000E+01 0. -1.
         -5    1    3    3    0  502 -0.27526542241E+02 -0.76394466652E+02  0.12317018731E+03  0.14758791449E+03  0.41800000000E+01 0. -1.
        -11    1    4    4    0    0 -0.57079086040E+01  0.62732566898E+02  0.25920087226E+03  0.26674528553E+03  0.00000000000E+00 0.  1.
         11    1    4    4    0    0  0.20811535220E+02 -0.14933484734E+02  0.24055564293E+02  0.35139708848E+02  0.00000000000E+00 0. -1.
</event>
<event>
 8    1  0.7168478E-009  0.7088188E+02  0.7561462E-02  0.1357120E+00
         -2   -1    0    0    0  501 -0.00000000000E+00  0.00000000000E+00  0.90127620900E+02  0.90127620900E+02  0.00000000000E+00 0.  1.
          2   -1    0    0  501    0  0.00000000000E+00 -0.00000000000E+00 -0.17658878955E+03  0.17658878955E+03  0.00000000000E+00 0. -1.
         25    2    1    2    0    0  0.19977508170E+02 -0.55492560745E+02 -0.74595540748E+02  0.15713382963E+03  0.12509204844E+03 0.  0.
         23    2    1    2    0    0 -0.19977508170E+02  0.55492560745E+02 -0.11865627901E+02  0.10958258082E+03  0.91591614042E+02 0.  0.
          5    1    3    3  502    0 -0.88474518333E+01 -0.56396163378E+01  0.33080032287E+02  0.34954879667E+02  0.41800000000E+01 0. -1.
         -5    1    3    3    0  502  0.28824960004E+02 -0.49852944408E+02 -0.10767557304E+03  0.12217894996E+03  0.41800000000E+01 0. -1.
        -11    1    4    4    0    0 -0.32060214058E+02  0.50146719716E+02 -0.44538975676E+02  0.74338894113E+02  0.00000000000E+00 0. -1.
         11    1    4    4    0    0  0.12082705887E+02  0.53458410293E+01  0.32673347774E+02  0.35243686706E+02  0.00000000000E+00 0.  1.
</event>
<event>
 8    1  0.7168478E-009  0.1291760E+03  0.7561462E-02  0.1228684E+00
         -1   -1    0    0    0  501 -0.00000000000E+00  0.00000000000E+00  0.20896735153E+03  0.20896735153E+03  0.00000000000E+00 0.  1.
          1   -1    0    0  501    0  0.00000000000E+00 -0.00000000000E+00 -0.98658766563E+02  0.98658766563E+02  0.00000000000E+00 0. -1.
         25    2    1    2    0    0  0.65384450940E+02 -0.25145882013E+02 -0.65611965901E+01  0.14352065240E+03  0.12509071331E+03 0.  0.
         23    2    1    2    0    0 -0.65384450940E+02  0.25145882013E+02  0.11686978156E+03  0.16410546570E+03  0.91458275861E+02 0.  0.
          5    1    3    3  502    0  0.83852639262E+02  0.26659316777E+02 -0.69556124432E+01  0.88361967083E+02  0.41800000000E+01 0.  1.
         -5    1    3    3    0  502 -0.18468188323E+02 -0.51805198791E+02  0.39441585318E+00  0.55158685314E+02  0.41800000000E+01 0.  1.
        -11    1    4    4    0    0 -0.59314580078E+02 -0.25164352792E+02  0.62056066516E+02  0.89456243229E+02  0.00000000000E+00 0. -1.
         11    1    4    4    0    0 -0.60698708616E+01  0.50310234805E+02  0.54813715042E+02  0.74649222468E+02  0.00000000000E+00 0.  1.
</event>
<event>
 8    1  0.7168478E-009  0.1114150E+03  0.7561462E-02  0.1257972E+00
         -2   -1    0    0    0  501 -0.00000000000E+00  0.00000000000E+00  0.26625119401E+02  0.26625119401E+02  0.00000000000E+00 0.  1.
          2   -1    0    0  501    0  0.00000000000E+00 -0.00000000000E+00 -0.83492524443E+03  0.83492524443E+03  0.00000000000E+00 0. -1.
         25    2    1    2    0    0  0.98108935648E+02  0.21613216348E+01 -0.33327355808E+03  0.36925413460E+03  0.12508923548E+03 0.  0.
         23    2    1    2    0    0 -0.98108935648E+02 -0.21613216348E+01 -0.47502656694E+03  0.49229622923E+03  0.84114823001E+02 0.  0.
          5    1    3    3  502    0  0.53372775025E+02  0.84373835499E+01 -0.28712894955E+02  0.61333068501E+02  0.41800000000E+01 0. -1.
         -5    1    3    3    0  502  0.44736160623E+02 -0.62760619151E+01 -0.30456066313E+03  0.30792106610E+03  0.41800000000E+01 0. -1.
        -11    1    4    4    0    0 -0.38831061906E+02 -0.37724235218E+02 -0.28477096911E+03  0.28987147866E+03  0.00000000000E+00 0. -1.
         11    1    4    4    0    0 -0.59277873741E+02  0.35562913583E+02 -0.19025559783E+03  0.20242475057E+03  0.00000000000E+00 0.  1.
</event>
<event>
 8    1  0.7168478E-009  0.9102561E+02  0.7561462E-02  0.1300387E+00
          1   -1    0    0  501    0  0.00000000000E+00  0.00000000000E+00  0.12554276223E+04  0.12554276223E+04  0.00000000000E+00 0. -1.
         -1   -1    0    0    0  501 -0.00000000000E+00 -0.00000000000E+00 -0.22129248907E+02  0.22129248907E+02  0.00000000000E+00 0.  1.
         25    2    1    2    0    0  0.57865097499E+02  0.24467386534E+02  0.10853530849E+04  0.10943426979E+04  0.12509036353E+03 0.  0.
         23    2    1    2    0    0 -0.57865097499E+02 -0.24467386534E+02  0.14794528847E+03  0.18321417328E+03  0.87935217047E+02 0.  0.
          5    1    3    3  502    0 -0.34915899674E+01 -0.23448152243E+02  0.73611844293E+03  0.73651194252E+03  0.41800000000E+01 0. -1.
         -5    1    3    3    0  502  0.61356687467E+02  0.47915538777E+02  0.34923464198E+03  0.35783075540E+03  0.41800000000E+01 0. -1.
        -11    1    4    4    0    0 -0.37932503911E+02 -0.39716424841E+02  0.14827075565E+03  0.15811542061E+03  0.00000000000E+00 0. -1.
         11    1    4    4    0    0 -0.19932593589E+02  0.15249038307E+02 -0.32546717848E+00  0.25098752665E+02  0.00000000000E+00 0.  1.
</event>
<event>
 8    1  0.7168478E-009  0.1912628E+03  0.7561462E-02  0.1157327E+00
         -2   -1    0    0    0  501 -0.00000000000E+00  0.00000000000E+00  0.56959591069E+02  0.56959591069E+02  0.00000000000E+00 0.  1.
          2   -1    0    0  501    0  0.00000000000E+00 -0.00000000000E+00 -0.72766440058E+03  0.72766440058E+03  0.00000000000E+00 0. -1.
         25    2    1    2    0    0 -0.10401233526E+03  0.12391446150E+03 -0.23846027113E+03  0.31414644442E+03  0.12510526759E+03 0.  0.
         23    2    1    2    0    0  0.10401233526E+03 -0.12391446150E+03 -0.43224453838E+03  0.47047754723E+03  0.91325909988E+02 0.  0.
          5    1    3    3  502    0  0.26987987896E+02  0.37360491037E+02 -0.69084823431E+02  0.83152528583E+02  0.41800000000E+01 0.  1.
         -5    1    3    3    0  502 -0.13100032316E+03  0.86553970459E+02 -0.16937544770E+03  0.23099391583E+03  0.41800000000E+01 0.  1.
        -11    1    4    4    0    0  0.21167426707E+02 -0.85101347794E+02 -0.14974384663E+03  0.17353247233E+03  0.00000000000E+00 0.  1.
         11    1    4    4    0    0  0.82844908553E+02 -0.38813113702E+02 -0.28250069175E+03  0.29694507490E+03  0.00000000000E+00 0. -1.
</event>
<event>
 8    1  0.7168478E-009  0.1323251E+03  0.7561462E-02  0.1224046E+00
         -2   -1    0    0    0  501 -0.00000000000E+00  0.00000000000E+00  0.37812628409E+02  0.37812628409E+02  0.00000000000E+00 0.  1.
          2   -1    0    0  501    0  0.00000000000E+00 -0.00000000000E+00 -0.12391860839E+04  0.12391860839E+04  0.00000000000E+00 0. -1.
         25    2    1    2    0    0 -0.33860957197E+02 -0.10816434990E+03 -0.10659025475E+04  0.10791856157E+04  0.12508901371E+03 0.  0.
         23    2    1    2    0    0  0.33860957197E+02  0.10816434990E+03 -0.13547090805E+03  0.19781309667E+03  0.89059324461E+02 0.  0.
          5    1    3    3  502    0  0.16541238473E+01 -0.84479045814E+02 -0.97509029453E+03  0.97875328873E+03  0.41800000000E+01 0. -1.
         -5    1    3    3    0  502 -0.35515081044E+02 -0.23685304088E+02 -0.90812252961E+02  0.10043232696E+03  0.41800000000E+01 0. -1.
        -11    1    4    4    0    0 -0.10505197177E+02 -0.77431038415E+01  0.13134992298E+01  0.13116405950E+02  0.00000000000E+00 0.  1.
         11    1    4    4    0    0  0.44366154374E+02  0.11590745374E+03 -0.13678440728E+03  0.18469669072E+03  0.00000000000E+00 0. -1.
</event>
<event>
 8    1  0.7168478E-009  0.1001433E+03  0.7561462E-02  0.1279995E+00
         -4   -1    0    0    0  501 -0.00000000000E+00  0.00000000000E+00  0.20710038666E+03  0.20710038666E+03  0.00000000000E+00 0.  1.
          4   -1    0    0  501    0  0.00000000000E+00 -0.00000000000E+00 -0.59493673417E+02  0.59493673417E+02  0.00000000000E+00 0. -1.
         25    2    1    2    0    0 -0.20623956573E+02  0.18263132136E+02  0.79882686149E+02  0.15095501600E+03  0.12508910316E+03 0.  0.
         23    2    1    2    0    0  0.20623956573E+02 -0.18263132136E+02  0.67724027099E+02  0.11563904408E+03  0.89593275917E+02 0.  0.
          5    1    3    3  502    0 -0.19761020680E+02 -0.47982949958E+02  0.72612619709E+01  0.52564814756E+02  0.41800000000E+01 0. -1.
         -5    1    3    3    0  502 -0.86293589320E+00  0.66246082094E+02  0.72621424178E+02  0.98390201244E+02  0.41800000000E+01 0. -1.
        -11    1    4    4    0    0  0.48863650632E+02 -0.12620836643E+01  0.11107512940E+02  0.50126101504E+02  0.00000000000E+00 0. -1.
         11    1    4    4    0    0 -0.28239694059E+02 -0.17001048471E+02  0.56616514159E+02  0.65512942578E+02  0.00000000000E+00 0.  1.
</event>
<event>
 8    1  0.7168478E-009  0.1153085E+03  0.7561462E-02  0.1251043E+00
          3   -1    0    0  501    0  0.00000000000E+00  0.00000000000E+00  0.30952058796E+02  0.30952058796E+02  0.00000000000E+00 0. -1.
         -3   -1    0    0    0  501 -0.00000000000E+00 -0.00000000000E+00 -0.62029517043E+03  0.62029517043E+03  0.00000000000E+00 0.  1.
         25    2    1    2    0    0 -0.26959167241E+02  0.77274782134E+02 -0.26172271580E+03  0.30139783890E+03  0.12507473236E+03 0.  0.
         23    2    1    2    0    0  0.26959167241E+02 -0.77274782134E+02 -0.32762039584E+03  0.34984939033E+03  0.91440054098E+02 0.  0.
          5    1    3    3  502    0 -0.47073967437E+02  0.17911583185E+02 -0.24814631968E+02  0.56302944703E+02  0.41800000000E+01 0. -1.
         -5    1    3    3    0  502  0.20114800196E+02  0.59363198949E+02 -0.23690808383E+03  0.24509489420E+03  0.41800000000E+01 0. -1.
        -11    1    4    4    0    0 -0.14853500876E+02 -0.73825598835E+02 -0.15670524810E+03  0.17386023212E+03  0.00000000000E+00 0. -1.
         11    1    4    4    0    0  0.41812668117E+02 -0.34491832995E+01 -0.17091514774E+03  0.17598915821E+03  0.00000000000E+00 0.  1.
</event>
<event>
 8    1  0.7168478E-009  0.9675829E+02  0.7561462E-02  0.1287264E+00
         -1   -1    0    0    0  501 -0.00000000000E+00  0.00000000000E+00  0.27181705974E+03  0.27181705974E+03  0.00000000000E+00 0.  1.
          1   -1    0    0  501    0  0.00000000000E+00 -0.00000000000E+00 -0.64366910234E+02  0.64366910234E+02  0.00000000000E+00 0. -1.
         25    2    1    2    0    0 -0.42423880104E+02  0.54304491780E+02  0.15705988207E+03  0.21228486123E+03  0.12509313459E+03 0.  0.
         23    2    1    2    0    0  0.42423880104E+02 -0.54304491780E+02  0.50390267428E+02  0.12389910874E+03  0.89794469004E+02 0.  0.
          5    1    3    3  502    0  0.21198986950E+02  0.39329492577E+02  0.31092984756E+01  0.44981620370E+02  0.41800000000E+01 0.  1.
         -5    1    3    3    0  502 -0.63622867054E+02  0.14974999203E+02  0.15395058360E+03  0.16730324086E+03  0.41800000000E+01 0.  1.
        -11    1    4    4    0    0  0.37376738425E+02 -0.10183967828E+02 -0.17712618560E+02  0.42596603530E+02  0.00000000000E+00 0. -1.
         11    1    4    4    0    0  0.50471416789E+01 -0.44120523953E+02  0.68102885989E+02  0.81302505207E+02  0.00000000000E+00 0.  1.
</event>
<event>
 8    1  0.7168478E-009  0.1806250E+03  0.7561462E-02  0.1167200E+00
         -1   -1    0    0    0  501 -0.00000000000E+00  0.00000000000E+00  0.11238964722E+03  0.11238964722E+03  0.00000000000E+00 0.  1.
          1   -1    0    0  501    0  0.00000000000E+00 -0.00000000000E+00 -0.30730908668E+03  0.30730908668E+03  0.00000000000E+00 0. -1.
         25    2    1    2    0    0  0.32191802967E+02 -0.14713292744E+03 -0.95840414777E+02  0.21798401704E+03  0.12508891265E+03 0.  0.
         23    2    1    2    0    0 -0.32191802967E+02  0.14713292744E+03 -0.99079024684E+02  0.20171471686E+03  0.90486260579E+02 0.  0.
          5    1    3    3  502    0 -0.46683349756E+02 -0.73867674396E+02 -0.51230751733E+02  0.10137963695E+03  0.41800000000E+01 0.  1.
         -5    1    3    3    0  502  0.78875152723E+02 -0.73265253039E+02 -0.44609663044E+02  0.11660438009E+03  0.41800000000E+01 0.  1.
        -11    1    4    4    0    0  0.22370473031E+02  0.42214341898E+02 -0.53234013722E+00  0.47778364471E+02  0.00000000000E+00 0.  1.
         11    1    4    4    0    0 -0.54562275998E+02  0.10491858554E+03 -0.98546684546E+02  0.15393635239E+03  0.00000000000E+00 0. -1.
</event>
<event>
 8    1  0.7168478E-009  0.2241169E+03  0.7561462E-02  0.1130850E+00
         -1   -1    0    0    0  501 -0.00000000000E+00  0.00000000000E+00  0.16571044422E+04  0.16571044422E+04  0.00000000000E+00 0.  1.
          1   -1    0    0  501    0  0.00000000000E+00 -0.00000000000E+00 -0.35636830159E+02  0.35636830159E+02  0.00000000000E+00 0. -1.
         25    2    1    2    0    0 -0.14653066706E+03  0.15577412663E+03  0.97753358923E+03  0.10084423061E+04  0.12508857559E+03 0.  0.
         23    2    1    2    0    0  0.14653066706E+03 -0.15577412663E+03  0.64393402284E+03  0.68429896629E+03  0.88753786243E+02 0.  0.
          5    1    3    3  502    0  0.13506753910E+02  0.72118115147E+01  0.16463344665E+02  0.22868247507E+02  0.41800000000E+01 0. -1.
         -5    1    3    3    0  502 -0.16003742097E+03  0.14856231512E+03  0.96107024456E+03  0.98557405859E+03  0.41800000000E+01 0. -1.
        -11    1    4    4    0    0  0.49221861288E+02 -0.56803105708E+02  0.11443793842E+03  0.13691393719E+03  0.00000000000E+00 0. -1.
         11    1    4    4    0    0  0.97308805776E+02 -0.98971020923E+02  0.52949608442E+03  0.54738502910E+03  0.00000000000E+00 0.  1.
</event>
<event>
 8    1  0.7168478E-009  0.1989875E+03  0.7561462E-02  0.1150596E+00
          1   -1    0    0  501    0  0.00000000000E+00  0.00000000000E+00  0.62851311472E+03  0.62851311472E+03  0.00000000000E+00 0. -1.
         -1   -1    0    0    0  501 -0.00000000000E+00 -0.00000000000E+00 -0.13188472266E+03  0.13188472266E+03  0.00000000000E+00 0.  1.
         25    2    1    2    0    0 -0.19211828412E+03 -0.36627535500E+02  0.49216712372E+03  0.54417740669E+03  0.12509820475E+03 0.  0.
         23    2    1    2    0    0  0.19211828412E+03  0.36627535500E+02  0.44612683417E+01  0.21622043069E+03  0.92088871640E+02 0.  0.
          5    1    3    3  502    0 -0.90775827002E+02 -0.17780767703E+02  0.38276310679E+03  0.39380385319E+03  0.41800000000E+01 0. -1.
         -5    1    3    3    0  502 -0.10134245712E+03 -0.18846767797E+02  0.10940401692E+03  0.15037355350E+03  0.41800000000E+01 0. -1.
        -11    1    4    4    0    0  0.42881811180E+02 -0.13220541848E+02  0.33784731542E+02  0.56169747571E+02  0.00000000000E+00 0. -1.
         11    1    4    4    0    0  0.14923647294E+03  0.49848077348E+02 -0.29323463200E+02  0.16005068312E+03  0.00000000000E+00 0.  1.
</event>
<event>
 8    1  0.7168478E-009  0.1816880E+03  0.7561462E-02  0.1166179E+00
          1   -1    0    0  501    0  0.00000000000E+00  0.00000000000E+00  0.82195234426E+03  0.82195234426E+03  0.00000000000E+00 0. -1.
         -1   -1    0    0    0  501 -0.00000000000E+00 -0.00000000000E+00 -0.67821342402E+02  0.67821342402E+02  0.00000000000E+00 0.  1.
         25    2    1    2    0    0 -0.10736925936E+03  0.11274243810E+03  0.64553062539E+03  0.67571890107E+03  0.12508888737E+03 0.  0.
         23    2    1    2    0    0  0.10736925936E+03 -0.11274243810E+03  0.10860037647E+03  0.21405478559E+03  0.98926206137E+02 0.  0.
          5    1    3    3  502    0 -0.10827260315E+03  0.28724169003E+02  0.42946350547E+03  0.44385178766E+03  0.41800000000E+01 0.  1.
         -5    1    3    3    0  502  0.90334378130E+00  0.84018269095E+02  0.21606711993E+03  0.23186711342E+03  0.41800000000E+01 0.  1.
        -11    1    4    4    0    0  0.61132085066E+01 -0.44798722377E+02 -0.73274354916E+01  0.45803800669E+02  0.00000000000E+00 0.  1.
         11    1    4    4    0    0  0.10125605086E+03 -0.67943715721E+02  0.11592781196E+03  0.16825098492E+03  0.00000000000E+00 0. -1.
</event>
<event>
 8    1  0.7168478E-009  0.1003954E+03  0.7561462E-02  0.1279467E+00
          2   -1    0    0  501    0  0.00000000000E+00  0.00000000000E+00  0.15247227866E+03  0.15247227866E+03  0.00000000000E+00 0.  1.
         -2   -1    0    0    0  501 -0.00000000000E+00 -0.00000000000E+00 -0.97625283561E+02  0.97625283561E+02  0.00000000000E+00 0. -1.
         25    2    1    2    0    0 -0.48231026020E+02  0.24729568377E+02  0.42030207463E+02  0.14266993714E+03  0.12510151558E+03 0.  0.
         23    2    1    2    0    0  0.48231026020E+02 -0.24729568377E+02  0.12816787639E+02  0.10742762509E+03  0.91862076852E+02 0.  0.
          5    1    3    3  502    0 -0.27062424993E+02 -0.31442793079E+02  0.65860211196E+02  0.77949110975E+02  0.41800000000E+01 0.  1.
         -5    1    3    3    0  502 -0.21168601027E+02  0.56172361457E+02 -0.23830003733E+02  0.64720826161E+02  0.41800000000E+01 0.  1.
        -11    1    4    4    0    0  0.22836558509E+02  0.30518452908E+02  0.24771334999E+02  0.45458810038E+02  0.00000000000E+00 0.  1.
         11    1    4    4    0    0  0.25394467511E+02 -0.55248021285E+02 -0.11954547360E+02  0.61968815050E+02  0.00000000000E+00 0. -1.
</event>
<event>
 8    1  0.7168478E-009  0.7231586E+02  0.7561462E-02  0.1352390E+00
         -1   -1    0    0    0  501 -0.00000000000E+00  0.00000000000E+00  0.11636229148E+03  0.11636229148E+03  0.00000000000E+00 0.  1.
          1   -1    0    0  501    0  0.00000000000E+00 -0.00000000000E+00 -0.18712734848E+03  0.18712734848E+03  0.00000000000E+00 0. -1.
         25    2    1    2    0    0  0.60653917802E+02 -0.38311871348E+02 -0.11059864328E+03  0.18173188985E+03  0.12509085762E+03 0.  0.
         23    2    1    2    0    0 -0.60653917802E+02  0.38311871348E+02  0.39833586290E+02  0.12175775011E+03  0.89952975966E+02 0.  0.
          5    1    3    3  502    0  0.36534897701E+02 -0.26060806337E+02  0.19263983007E+02  0.49015689511E+02  0.41800000000E+01 0. -1.
         -5    1    3    3    0  502  0.24119020101E+02 -0.12251065012E+02 -0.12986262629E+03  0.13271620034E+03  0.41800000000E+01 0. -1.
        -11    1    4    4    0    0 -0.67419773760E+01  0.75267336111E+01  0.56564865407E+02  0.57460333938E+02  0.00000000000E+00 0.  1.
         11    1    4    4    0    0 -0.53911940426E+02  0.30785137737E+02 -0.16731279117E+02  0.64297416176E+02  0.00000000000E+00 0. -1.
</event>
<event>
 8    1  0.7168478E-009  0.2548423E+03  0.7561462E-02  0.1110282E+00
          2   -1    0    0  501    0  0.00000000000E+00  0.00000000000E+00  0.24028358074E+04  0.24028358074E+04  0.00000000000E+00 0. -1.
         -2   -1    0    0    0  501 -0.00000000000E+00 -0.00000000000E+00 -0.33371243276E+02  0.33371243276E+02  0.00000000000E+00 0.  1.
         25    2    1    2    0    0  0.87933278403E+02  0.22453642802E+03  0.16362170684E+04  0.16586146826E+04  0.12508997257E+03 0.  0.
         23    2    1    2    0    0 -0.87933278403E+02 -0.22453642802E+03  0.73324749566E+03  0.77759236807E+03  0.94069825344E+02 0.  0.
          5    1    3    3  502    0 -0.18167586643E+02  0.40540408832E+02  0.12898144038E+03  0.13648175818E+03  0.41800000000E+01 0.  1.
         -5    1    3    3    0  502  0.10610086505E+03  0.18399601919E+03  0.15072356280E+04  0.15221329244E+04  0.41800000000E+01 0.  1.
        -11    1    4    4    0    0 -0.81328122560E+02 -0.10454555519E+03  0.46818225508E+03  0.48655797249E+03  0.00000000000E+00 0. -1.
         11    1    4    4    0    0 -0.66051558427E+01 -0.11999087283E+03  0.26506524058E+03  0.29103439558E+03  0.00000000000E+00 0.  1.
</event>
<event>
 8    1  0.7168478E-009  0.1113689E+03  0.7561462E-02  0.1258056E+00
          2   -1    0    0  501    0  0.00000000000E+00  0.00000000000E+00  0.29594115519E+03  0.29594115519E+03  0.00000000000E+00 0. -1.
         -2   -1    0    0    0  501 -0.00000000000E+00 -0.00000000000E+00 -0.10617888831E+03  0.10617888831E+03  0.00000000000E+00 0.  1.
         25    2    1    2    0    0 -0.51282223015E+02 -0.36163765072E+02  0.24200131145E+03  0.27955171066E+03  0.12508732905E+03 0.  0.
         23    2    1    2    0    0  0.51282223015E+02  0.36163765072E+02 -0.52239044561E+02  0.12256833284E+03  0.91413314879E+02 0.  0.
          5    1    3    3  502    0  0.10826858211E+02 -0.64652058760E+02  0.15851940060E+03  0.17158957523E+03  0.41800000000E+01 0.  1.
         -5    1    3    3    0  502 -0.62109081226E+02  0.28488293688E+02  0.83481910849E+02  0.10796213543E+03  0.41800000000E+01 0.  1.
        -11    1    4    4    0    0  0.64897604264E+02  0.20991798452E+02 -0.68367924705E+02  0.96573949748E+02  0.00000000000E+00 0.  1.
         11    1    4    4    0    0 -0.13615381248E+02  0.15171966620E+02  0.16128880145E+02  0.25994383093E+02  0.00000000000E+00 0. -1.
</event>
<event>
 8    1  0.7168478E-009  0.1535529E+03  0.7561462E-02  0.1196174E+00
         -2   -1    0    0    0  501 -0.00000000000E+00  0.00000000000E+00  0.83154006384E+02  0.83154006384E+02  0.00000000000E+00 0.  1.
          2   -1    0    0  501    0  0.00000000000E+00 -0.00000000000E+00 -0.29172222931E+03  0.29172222931E+03  0.00000000000E+00 0. -1.
         25    2    1    2    0    0 -0.10156785811E+03  0.33340383248E+02 -0.10869696544E+03  0.19720490204E+03  0.12508849722E+03 0.  0.
         23    2    1    2    0    0  0.10156785811E+03 -0.33340383248E+02 -0.99871257492E+02  0.17767133365E+03  0.10082273441E+03 0.  0.
          5    1    3    3  502    0 -0.94600481583E+01 -0.40716754017E+02 -0.10034108083E+02  0.43191460891E+02  0.41800000000E+01 0.  1.
         -5    1    3    3    0  502 -0.92107809954E+02  0.74057137265E+02 -0.98662857354E+02  0.15401344115E+03  0.41800000000E+01 0.  1.
        -11    1    4    4    0    0  0.51173804210E+01 -0.48873953746E+02 -0.36700463046E+02  0.61333310076E+02  0.00000000000E+00 0. -1.
         11    1    4    4    0    0  0.96450477691E+02  0.15533570498E+02 -0.63170794446E+02  0.11633802358E+03  0.00000000000E+00 0.  1.
</event>
<event>
 8    1  0.7168478E-009  0.1851937E+03  0.7561462E-02  0.1162869E+00
         -2   -1    0    0    0  501 -0.00000000000E+00  0.00000000000E+00  0.24358926235E+03  0.24358926235E+03  0.00000000000E+00 0.  1.
          2   -1    0    0  501    0  0.00000000000E+00 -0.00000000000E+00 -0.15130697440E+03  0.15130697440E+03  0.00000000000E+00 0. -1.
         25    2    1    2    0    0  0.13794917755E+03  0.79598346120E+02  0.42453137353E+02  0.20692141705E+03  0.12509329186E+03 0.  0.
         23    2    1    2    0    0 -0.13794917755E+03 -0.79598346120E+02  0.49829150596E+02  0.18797481971E+03  0.86520034118E+02 0.  0.
          5    1    3    3  502    0 -0.10191311015E+02  0.31567316734E+02  0.38625627906E+02  0.51085906443E+02  0.41800000000E+01 0.  1.
         -5    1    3    3    0  502  0.14814048857E+03  0.48031029386E+02  0.38275094470E+01  0.15583551060E+03  0.41800000000E+01 0.  1.
        -11    1    4    4    0    0 -0.20624310959E+02 -0.58407328634E+02  0.14312373606E+02  0.63573754639E+02  0.00000000000E+00 0.  1.
         11    1    4    4    0    0 -0.11732486659E+03 -0.21191017486E+02  0.35516776989E+02  0.12440106507E+03  0.00000000000E+00 0. -1.
</event>
<event>
 8    1  0.7168478E-009  0.1066250E+03  0.7561462E-02  0.1266951E+00
         -1   -1    0    0    0  501 -0.00000000000E+00  0.00000000000E+00  0.11528554740E+03  0.11528554740E+03  0.00000000000E+00 0.  1.
          1   -1    0    0  501    0  0.00000000000E+00 -0.00000000000E+00 -0.11323512653E+03  0.11323512653E+03  0.00000000000E+00 0. -1.
         25    2    1    2    0    0  0.35156043407E+02 -0.54966115887E+00 -0.12340427582E+02  0.13052029478E+03  0.12508801573E+03 0.  0.
         23    2    1    2    0    0 -0.35156043407E+02  0.54966115887E+00  0.14390848447E+02  0.98000379152E+02  0.90336749330E+02 0.  0.
          5    1    3    3  502    0  0.15953392151E+02 -0.60773102612E+02  0.91352369763E+01  0.63630226126E+02  0.41800000000E+01 0. -1.
         -5    1    3    3    0  502  0.19202651256E+02  0.60223441453E+02 -0.21475664558E+02  0.66890068650E+02  0.41800000000E+01 0. -1.
        -11    1    4    4    0    0 -0.12123454917E+02  0.39698439288E+02  0.28600804992E+02  0.50407839542E+02  0.00000000000E+00 0.  1.
         11    1    4    4    0    0 -0.23032588490E+02 -0.39148778129E+02 -0.14209956545E+02  0.47592539611E+02  0.00000000000E+00 0. -1.
</event>
<event>
 8    1  0.7168478E-009  0.1036987E+03  0.7561462E-02  0.1272705E+00
         -3   -1    0    0    0  501 -0.00000000000E+00  0.00000000000E+00  0.72507365045E+03  0.72507365045E+03  0.00000000000E+00 0.  1.
          3   -1    0    0  501    0  0.00000000000E+00 -0.00000000000E+00 -0.17179392095E+02  0.17179392095E+02  0.00000000000E+00 0. -1.
         25    2    1    2    0    0  0.17251751963E+01 -0.50339118582E+01  0.32352472101E+03  0.34690610649E+03  0.12508910870E+03 0.  0.
         23    2    1    2    0    0 -0.17251751963E+01  0.50339118582E+01  0.38436953735E+03  0.39534693606E+03  0.92363099304E+02 0.  0.
          5    1    3    3  502    0 -0.57822888324E+02 -0.11798503096E+01  0.21826629426E+03  0.22583738856E+03  0.41800000000E+01 0.  1.
         -5    1    3    3    0  502  0.59548063520E+02 -0.38540615486E+01  0.10525842675E+03  0.12106871793E+03  0.41800000000E+01 0.  1.
        -11    1    4    4    0    0  0.13143806019E+02 -0.40033443938E+02  0.23069913698E+03  0.23451551777E+03  0.00000000000E+00 0.  1.
         11    1    4    4    0    0 -0.14868981215E+02  0.45067355797E+02  0.15367040036E+03  0.16083141829E+03  0.00000000000E+00 0. -1.
</event>
<event>
 8    1  0.7168478E-009  0.1578644E+03  0.7561462E-02  0.1191129E+00
          1   -1    0    0  501    0  0.00000000000E+00  0.00000000000E+00  0.10123599719E+04  0.10123599719E+04  0.00000000000E+00 0. -1.
         -1   -1    0    0    0  501 -0.00000000000E+00 -0.00000000000E+00 -0.39803085331E+02  0.39803085331E+02  0.00000000000E+00 0.  1.
         25    2    1    2    0    0  0.13177912161E+03  0.74069517615E+02  0.30895078316E+03  0.36599237043E+03  0.12509116062E+03 0.  0.
         23    2    1    2    0    0 -0.13177912161E+03 -0.74069517615E+02  0.66360610339E+03  0.68617068678E+03  0.87207342626E+02 0.  0.
          5    1    3    3  502    0  0.76843821995E+02  0.63933947394E+02  0.29013027378E+03  0.30689667768E+03  0.41800000000E+01 0. -1.
         -5    1    3    3    0  502  0.54935299618E+02  0.10135570221E+02  0.18820509374E+02  0.59095692744E+02  0.41800000000E+01 0. -1.
        -11    1    4    4    0    0 -0.11123268518E+03 -0.36906472750E+02  0.58697519325E+03  0.59856050277E+03  0.00000000000E+00 0.  1.
         11    1    4    4    0    0 -0.20546436430E+02 -0.37163044865E+02  0.76630910134E+02  0.87610184006E+02  0.00000000000E+00 0. -1.
</event>
<event>
 8    1  0.7168478E-009  0.1388955E+03  0.7561462E-02  0.1214823E+00
          2   -1    0    0  501    0  0.00000000000E+00  0.00000000000E+00  0.20267109578E+03  0.20267109578E+03  0.00000000000E+00 0. -1.
         -2   -1    0    0    0  501 -0.00000000000E+00 -0.00000000000E+00 -0.11293066208E+03  0.11293066208E+03  0.00000000000E+00 0.  1.
         25    2    1    2    0    0  0.50291901677E+02  0.90028897169E+02  0.70364641532E+02  0.17672901133E+03  0.12508989954E+03 0.  0.
         23    2    1    2    0    0 -0.50291901677E+02 -0.90028897169E+02  0.19375792170E+02  0.13887274653E+03  0.90971098192E+02 0.  0.
          5    1    3    3  502    0  0.19198887919E+02  0.11195123322E+03  0.77801902713E+02  0.13773991572E+03  0.41800000000E+01 0. -1.
         -5    1    3    3    0  502  0.31093013758E+02 -0.21922336050E+02 -0.74372611805E+01  0.38989095608E+02  0.41800000000E+01 0. -1.
        -11    1    4    4    0    0 -0.34377176231E+02  0.54215650370E-01 -0.19447966841E+02  0.39497045449E+02  0.00000000000E+00 0.  1.
         11    1    4    4    0    0 -0.15914725446E+02 -0.90083112819E+02  0.38823759010E+02  0.99375701079E+02  0.00000000000E+00 0. -1.
</event>
<event>
 8    1  0.7168478E-009  0.9319453E+02  0.7561462E-02  0.1295295E+00
          2   -1    0    0  501    0  0.00000000000E+00  0.00000000000E+00  0.10139873369E+04  0.10139873369E+04  0.00000000000E+00 0. -1.
         -2   -1    0    0    0  501 -0.00000000000E+00 -0.00000000000E+00 -0.15381290394E+02  0.15381290394E+02  0.00000000000E+00 0.  1.
         25    2    1    2    0    0 -0.32509457926E+02 -0.29191862374E+02  0.73947465774E+03  0.75125216318E+03  0.12509202037E+03 0.  0.
         23    2    1    2    0    0  0.32509457926E+02  0.29191862374E+02  0.25913138879E+03  0.27811646414E+03  0.91053068510E+02 0.  0.
          5    1    3    3  502    0  0.30318500511E+02 -0.21602016632E+02  0.75775944886E+02  0.84530023182E+02  0.41800000000E+01 0.  1.
         -5    1    3    3    0  502 -0.62827958436E+02 -0.75898457424E+01  0.66369871286E+03  0.66672214000E+03  0.41800000000E+01 0.  1.
        -11    1    4    4    0    0  0.10415135440E+02  0.52421673328E+02  0.22511905335E+03  0.23137652228E+03  0.00000000000E+00 0. -1.
         11    1    4    4    0    0  0.22094322485E+02 -0.23229810953E+02  0.34012335445E+02  0.46739941864E+02  0.00000000000E+00 0.  1.
</event>
<event>
 8    1  0.7168478E-009  0.1190017E+03  0.7561462E-02  0.1244753E+00
          1   -1    0    0  501    0  0.00000000000E+00  0.00000000000E+00  0.20068074318E+02  0.20068074318E+02  0.00000000000E+00 0.  1.
         -1   -1    0    0    0  501 -0.00000000000E+00 -0.00000000000E+00 -0.78283641215E+03  0.78283641215E+03  0.00000000000E+00 0. -1.
         25    2    1    2    0    0  0.50342793409E+02 -0.35551874416E+02 -0.36627390792E+03  0.39192032592E+03  0.12508650457E+03 0.  0.
         23    2    1    2    0    0 -0.50342793409E+02  0.35551874416E+02 -0.39649442992E+03  0.41098416055E+03  0.88892151771E+02 0.  0.
          5    1    3    3  502    0 -0.18471456752E+02 -0.56316293593E+02 -0.23282971452E+03  0.24029121499E+03  0.41800000000E+01 0. -1.
         -5    1    3    3    0  502  0.68814250161E+02  0.20764419178E+02 -0.13344419340E+03  0.15162911093E+03  0.41800000000E+01 0. -1.
        -11    1    4    4    0    0 -0.26100437769E+02  0.64055641201E+02 -0.22214143767E+03  0.23266107614E+03  0.00000000000E+00 0.  1.
         11    1    4    4    0    0 -0.24242355641E+02 -0.28503766785E+02 -0.17435299225E+03  0.17832308441E+03  0.00000000000E+00 0. -1.
</event>
<event>
 8    1  0.7168478E-009  0.1190128E+03  0.7561462E-02  0.1244735E+00
          1   -1    0    0  501    0  0.00000000000E+00  0.00000000000E+00  0.64096701853E+02  0.64096701853E+02  0.00000000000E+00 0. -1.
         -1   -1    0    0    0  501 -0.00000000000E+00 -0.00000000000E+00 -0.26612149549E+03  0.26612149549E+03  0.00000000000E+00 0.  1.
         25    2    1    2    0    0  0.13171539081E+02 -0.55366358839E+02 -0.49283135409E+02  0.14599690530E+03  0.12508935122E+03 0.  0.
         23    2    1    2    0    0 -0.13171539081E+02  0.55366358839E+02 -0.15274165823E+03  0.18422129204E+03  0.85840242022E+02 0.  0.
          5    1    3    3  502    0 -0.50103278508E+02 -0.51278331543E+02 -0.13506475751E+02  0.73073272065E+02  0.41800000000E+01 0.  1.
         -5    1    3    3    0  502  0.63274817589E+02 -0.40880272964E+01 -0.35776659658E+02  0.72923633237E+02  0.41800000000E+01 0.  1.
        -11    1    4    4    0    0 -0.42848670542E+02  0.58838701475E+02 -0.10143377613E+03  0.12484715575E+03  0.00000000000E+00 0.  1.
         11    1    4    4    0    0  0.29677131461E+02 -0.34723426357E+01 -0.51307882101E+02  0.59374136296E+02  0.00000000000E+00 0. -1.
</event>
<event>
 8    1  0.7168478E-009  0.2177244E+03  0.7561462E-02  0.1135591E+00
          2   -1    0    0  501    0  0.00000000000E+00  0.00000000000E+00  0.22511557180E+03  0.22511557180E+03  0.00000000000E+00 0. -1.
         -2   -1    0    0    0  501 -0.00000000000E+00 -0.00000000000E+00 -0.27126919641E+03  0.27126919641E+03  0.00000000000E+00 0.  1.
         25    2    1    2    0    0 -0.14439853651E+03  0.12584272248E+03  0.88753467393E+02  0.24538751286E+03  0.12510205973E+03 0.  0.
         23    2    1    2    0    0  0.14439853651E+03 -0.12584272248E+03 -0.13490709201E+03  0.25099725535E+03  0.90068699182E+02 0.  0.
          5    1    3    3  502    0 -0.15304116946E+03  0.72129698240E+02  0.44124474040E+02  0.17489635367E+03  0.41800000000E+01 0.  1.
         -5    1    3    3    0  502  0.86426329460E+01  0.53713024237E+02  0.44628993354E+02  0.70491159195E+02  0.41800000000E+01 0.  1.
        -11    1    4    4    0    0  0.15680824644E+03 -0.11010321619E+03 -0.12295572215E+03  0.22766127026E+03  0.00000000000E+00 0. -1.
         11    1    4    4    0    0 -0.12409709929E+02 -0.15739506287E+02 -0.11951369858E+02  0.23335985091E+02  0.00000000000E+00 0.  1.
</event>
<event>
 8    1  0.7168478E-009  0.1992546E+03  0.7561462E-02  0.1150369E+00
          1   -1    0    0  501    0  0.00000000000E+00  0.00000000000E+00  0.14432591289E+03  0.14432591289E+03  0.00000000000E+00 0. -1.
         -1   -1    0    0    0  501 -0.00000000000E+00 -0.00000000000E+00 -0.41681732816E+03  0.41681732816E+03  0.00000000000E+00 0.  1.
         25    2    1    2    0    0  0.15555323859E+03 -0.12300127311E+03 -0.24700352664E+03  0.34056393306E+03  0.12508767769E+03 0.  0.
         23    2    1    2    0    0 -0.15555323859E+03  0.12300127311E+03 -0.25487888631E+02  0.22057930799E+03  0.93163702297E+02 0.  0.
          5    1    3    3  502    0  0.15826965312E+02 -0.71194199091E+01 -0.11424726946E+03  0.11563342920E+03  0.41800000000E+01 0. -1.
         -5    1    3    3    0  502  0.13972627328E+03 -0.11588185320E+03 -0.13275625718E+03  0.22493050386E+03  0.41800000000E+01 0. -1.
        -11    1    4    4    0    0 -0.13458729290E+03  0.98181232462E+02  0.16590578145E+02  0.16741726644E+03  0.00000000000E+00 0.  1.
         11    1    4    4    0    0 -0.20965945695E+02  0.24820040644E+02 -0.42078466776E+02  0.53162041559E+02  0.00000000000E+00 0. -1.
</event>
<event>
 8    1  0.7168478E-009  0.1649173E+03  0.7561462E-02  0.1183254E+00
         -2   -1    0    0    0  501 -0.00000000000E+00  0.00000000000E+00  0.43811287077E+02  0.43811287077E+02  0.00000000000E+00 0. -1.
          2   -1    0    0  501    0  0.00000000000E+00 -0.00000000000E+00 -0.66439910022E+03  0.66439910022E+03  0.00000000000E+00 0.  1.
         25    2    1    2    0    0  0.11935833731E+03  0.50134718979E+02 -0.30097510026E+03  0.35070354828E+03  0.12508822913E+03 0.  0.
         23    2    1    2    0    0 -0.11935833731E+03 -0.50134718979E+02 -0.31961271288E+03  0.35750683902E+03  0.94334251334E+02 0.  0.
          5    1    3    3  502    0  0.11528526498E+03 -0.12289310964E+02 -0.21489760413E+03  0.24421337421E+03  0.41800000000E+01 0.  1.
         -5    1    3    3    0  502  0.40730723323E+01  0.62424029943E+02 -0.86077496131E+02  0.10649017407E+03  0.41800000000E+01 0.  1.
        -11    1    4    4    0    0 -0.47498630759E+02 -0.62196671829E+02 -0.22411253743E+03  0.23738360378E+03  0.00000000000E+00 0. -1.
         11    1    4    4    0    0 -0.71859706551E+02  0.12061952850E+02 -0.95500175458E+02  0.12012323524E+03  0.00000000000E+00 0.  1.
</event>
<event>
 8    1  0.7168478E-009  0.1834624E+03  0.7561462E-02  0.1164494E+00
         -1   -1    0    0    0  501 -0.00000000000E+00  0.00000000000E+00  0.81074426964E+02  0.81074426964E+02  0.00000000000E+00 0.  1.
          1   -1    0    0  501    0  0.00000000000E+00 -0.00000000000E+00 -0.58740913290E+03  0.58740913290E+03  0.00000000000E+00 0. -1.
         25    2    1    2    0    0  0.98000060950E+02 -0.12692929208E+03 -0.10930270526E+03  0.23088946842E+03  0.12509119919E+03 0.  0.
         23    2    1    2    0    0 -0.98000060950E+02  0.12692929208E+03 -0.39703200067E+03  0.43759409144E+03  0.90217083585E+02 0.  0.
          5    1    3    3  502    0  0.24416261804E+02  0.23556741552E+02 -0.30106439922E+02  0.45551553626E+02  0.41800000000E+01 0.  1.
         -5    1    3    3    0  502  0.73583799147E+02 -0.15048603364E+03 -0.79196265337E+02  0.18533791479E+03  0.41800000000E+01 0.  1.
        -11    1    4    4    0    0 -0.96224736323E+02  0.10215689601E+03 -0.38542445550E+03  0.41017952433E+03  0.00000000000E+00 0. -1.
         11    1    4    4    0    0 -0.17753246279E+01  0.24772396078E+02 -0.11607545173E+02  0.27414567111E+02  0.00000000000E+00 0.  1.
</event>
<event>
 8    1  0.7168478E-009  0.2910314E+03  0.7561462E-02  0.1089812E+00
         -1   -1    0    0    0  501 -0.00000000000E+00  0.00000000000E+00  0.15776113245E+04  0.15776113245E+04  0.00000000000E+00 0.  1.
          1   -1    0    0  501    0  0.00000000000E+00 -0.00000000000E+00 -0.64728614829E+02  0.64728614829E+02  0.00000000000E+00 0. -1.
         25    2    1    2    0    0  0.14544910887E+02  0.28119528709E+03  0.10376614450E+04  0.10824377167E+04  0.12509113563E+03 0.  0.
         23    2    1    2    0    0 -0.14544910887E+02 -0.28119528709E+03  0.47522126465E+03  0.55990222260E+03  0.91503576847E+02 0.  0.
          5    1    3    3  502    0 -0.28949765705E+02  0.17894560007E+03  0.46541190497E+03  0.49948506524E+03  0.41800000000E+01 0.  1.
         -5    1    3    3    0  502  0.43494676592E+02  0.10224968702E+03  0.57224954000E+03  0.58295265144E+03  0.41800000000E+01 0.  1.
        -11    1    4    4    0    0 -0.41132249994E+02 -0.19723625465E+03  0.27266032332E+03  0.33902456261E+03  0.00000000000E+00 0.  1.
         11    1    4    4    0    0  0.26587339107E+02 -0.83959032444E+02  0.20256094133E+03  0.22087765999E+03  0.00000000000E+00 0. -1.
</event>
<event>
 8    1  0.7168478E-009  0.1770988E+03  0.7561462E-02  0.1170641E+00
         -1   -1    0    0    0  501 -0.00000000000E+00  0.00000000000E+00  0.52757322982E+02  0.52757322982E+02  0.00000000000E+00 0.  1.
          1   -1    0    0  501    0  0.00000000000E+00 -0.00000000000E+00 -0.72370381140E+03  0.72370381140E+03  0.00000000000E+00 0. -1.
         25    2    1    2    0    0  0.14975138383E+03  0.28228982923E+02 -0.46096532864E+03  0.50135755314E+03  0.12509200393E+03 0.  0.
         23    2    1    2    0    0 -0.14975138383E+03 -0.28228982923E+02 -0.20998115978E+03  0.27510358124E+03  0.91474261478E+02 0.  0.
          5    1    3    3  502    0  0.17216829031E+03  0.26757642931E+02 -0.40976557393E+03  0.44529000620E+03  0.41800000000E+01 0. -1.
         -5    1    3    3    0  502 -0.22416906480E+02  0.14713399914E+01 -0.51199754706E+02  0.56067546936E+02  0.41800000000E+01 0. -1.
        -11    1    4    4    0    0 -0.38130985444E+02  0.93939504070E+01 -0.62406693430E+01  0.39763856818E+02  0.00000000000E+00 0.  1.
         11    1    4    4    0    0 -0.11162039839E+03 -0.37622933330E+02 -0.20374049043E+03  0.23533972442E+03  0.00000000000E+00 0. -1.
</event>
<event>
 8    1  0.7168478E-009  0.1175902E+03  0.7561462E-02  0.1247126E+00
          2   -1    0    0  501    0  0.00000000000E+00  0.00000000000E+00  0.10485134922E+03  0.10485134922E+03  0.00000000000E+00 0. -1.
         -2   -1    0    0    0  501 -0.00000000000E+00 -0.00000000000E+00 -0.15762218581E+03  0.15762218581E+03  0.00000000000E+00 0.  1.
         25    2    1    2    0    0  0.52339485140E+02 -0.35937309137E+02  0.42854783762E+00  0.14028125865E+03  0.12509091088E+03 0.  0.
         23    2    1    2    0    0 -0.52339485140E+02  0.35937309137E+02 -0.53199384425E+02  0.12219227638E+03  0.89832432954E+02 0.  0.
          5    1    3    3  502    0 -0.75656384045E+01  0.34623698747E+02  0.26010571989E+02  0.44159502427E+02  0.41800000000E+01 0. -1.
         -5    1    3    3    0  502  0.59905123544E+02 -0.70561007884E+02 -0.25582024151E+02  0.96121756227E+02  0.41800000000E+01 0. -1.
        -11    1    4    4    0    0 -0.50090731539E+02 -0.17721530070E+02 -0.41013767496E+02  0.67121256979E+02  0.00000000000E+00 0.  1.
         11    1    4    4    0    0 -0.22487536007E+01  0.53658839206E+02 -0.12185616928E+02  0.55071019399E+02  0.00000000000E+00 0. -1.
</event>
<event>
 8    1  0.7168478E-009  0.1206939E+03  0.7561462E-02  0.1241957E+00
          2   -1    0    0  501    0  0.00000000000E+00  0.00000000000E+00  0.70541368765E+03  0.70541368765E+03  0.00000000000E+00 0. -1.
         -2   -1    0    0    0  501 -0.00000000000E+00 -0.00000000000E+00 -0.22608822577E+02  0.22608822577E+02  0.00000000000E+00 0.  1.
         25    2    1    2    0    0 -0.48507674592E+02 -0.42574757907E+02  0.38227462875E+03  0.40737086499E+03  0.12510605640E+03 0.  0.
         23    2    1    2    0    0  0.48507674592E+02  0.42574757907E+02  0.30053023632E+03  0.32065164524E+03  0.91287732727E+02 0.  0.
          5    1    3    3  502    0 -0.87672794957E+02 -0.76112130907E+01  0.24080793688E+03  0.25641837766E+03  0.41800000000E+01 0. -1.
         -5    1    3    3    0  502  0.39165120365E+02 -0.34963544817E+02  0.14146669188E+03  0.15095248733E+03  0.41800000000E+01 0. -1.
        -11    1    4    4    0    0  0.29507441692E+02 -0.19720398278E+02  0.18179885690E+03  0.18523068751E+03  0.00000000000E+00 0. -1.
         11    1    4    4    0    0  0.19000232900E+02  0.62295156185E+02  0.11873137942E+03  0.13542095773E+03  0.00000000000E+00 0.  1.
</event>
<event>
 8    1  0.7168478E-009  0.6453123E+02  0.7561462E-02  0.1379744E+00
         -1   -1    0    0    0  501 -0.00000000000E+00  0.00000000000E+00  0.37412136333E+02  0.37412136333E+02  0.00000000000E+00 0.  1.
          1   -1    0    0  501    0  0.00000000000E+00 -0.00000000000E+00 -0.30592955464E+03  0.30592955464E+03  0.00000000000E+00 0. -1.
         25    2    1    2    0    0 -0.10940214745E+02 -0.22787463310E+02 -0.16063317620E+03  0.20515685564E+03  0.12508941338E+03 0.  0.
         23    2    1    2    0    0  0.10940214745E+02  0.22787463310E+02 -0.10788424211E+03  0.13818483533E+03  0.82565623824E+02 0.  0.
          5    1    3    3  502    0 -0.12254878242E+02  0.18404418955E+02  0.13447930259E+02  0.26214955770E+02  0.41800000000E+01 0.  1.
         -5    1    3    3    0  502  0.13146634972E+01 -0.41191882264E+02 -0.17408110646E+03  0.17894189987E+03  0.41800000000E+01 0.  1.
        -11    1    4    4    0    0  0.25350007007E+02  0.37029265876E+02 -0.10901825111E+03  0.11789303823E+03  0.00000000000E+00 0. -1.
         11    1    4    4    0    0 -0.14409792262E+02 -0.14241802566E+02  0.11340090034E+01  0.20291797106E+02  0.00000000000E+00 0.  1.
</event>
<event>
 8    1  0.7168478E-009  0.1059955E+03  0.7561462E-02  0.1268171E+00
         -3   -1    0    0    0  501 -0.00000000000E+00  0.00000000000E+00  0.57431049480E+03  0.57431049480E+03  0.00000000000E+00 0.  1.
          3   -1    0    0  501    0  0.00000000000E+00 -0.00000000000E+00 -0.33576501549E+02  0.33576501549E+02  0.00000000000E+00 0. -1.
         25    2    1    2    0    0  0.15858319161E+02 -0.22911308159E-02  0.48361661665E+03  0.49978275801E+03  0.12508511906E+03 0.  0.
         23    2    1    2    0    0 -0.15858319161E+02  0.22911308159E-02  0.57117376594E+02  0.10810423833E+03  0.90402684390E+02 0.  0.
          5    1    3    3  502    0  0.70269057897E+02  0.80708555855E+01  0.26380315603E+03  0.27315280840E+03  0.41800000000E+01 0. -1.
         -5    1    3    3    0  502 -0.54410738736E+02 -0.80731467163E+01  0.21981346063E+03  0.22662994961E+03  0.41800000000E+01 0. -1.
        -11    1    4    4    0    0 -0.50909666257E+02  0.66019105711E+00  0.51823635106E+02  0.72649288546E+02  0.00000000000E+00 0.  1.
         11    1    4    4    0    0  0.35051347096E+02 -0.65789992629E+00  0.52937414882E+01  0.35454949789E+02  0.00000000000E+00 0. -1.
</event>
<event>
 8    1  0.7168478E-009  0.1128669E+03  0.7561462E-02  0.1255351E+00
         -1   -1    0    0    0  501 -0.00000000000E+00  0.00000000000E+00  0.13756229710E+03  0.13756229710E+03  0.00000000000E+00 0.  1.
          1   -1    0    0  501    0  0.00000000000E+00 -0.00000000000E+00 -0.12837845849E+03  0.12837845849E+03  0.00000000000E+00 0. -1.
         25    2    1    2    0    0 -0.43361627850E+02  0.17931167418E+02 -0.54006734998E+02  0.14410468849E+03  0.12509067225E+03 0.  0.
         23    2    1    2    0    0  0.43361627850E+02 -0.17931167418E+02  0.63190573607E+02  0.12183606710E+03  0.93001188799E+02 0.  0.
          5    1    3    3  502    0  0.35367102666E+02 -0.12087467604E+02 -0.45922184767E+02  0.59357040676E+02  0.41800000000E+01 0. -1.
         -5    1    3    3    0  502 -0.78728730515E+02  0.30018635023E+02 -0.80845502309E+01  0.84747647812E+02  0.41800000000E+01 0. -1.
        -11    1    4    4    0    0 -0.29407132826E+02 -0.62426293698E+01  0.13543015434E+02  0.32972157187E+02  0.00000000000E+00 0.  1.
         11    1    4    4    0    0  0.72768760676E+02 -0.11688538048E+02  0.49647558172E+02  0.88863909910E+02  0.00000000000E+00 0. -1.
</event>
<event>
 8    1  0.7168478E-009  0.9509354E+02  0.7561462E-02  0.1290966E+00
          2   -1    0    0  501    0  0.00000000000E+00  0.00000000000E+00  0.12164149389E+03  0.12164149389E+03  0.00000000000E+00 0. -1.
         -2   -1    0    0    0  501 -0.00000000000E+00 -0.00000000000E+00 -0.17986623556E+03  0.17986623556E+03  0.00000000000E+00 0.  1.
         25    2    1    2    0    0 -0.28286333891E+02 -0.16094781949E+02 -0.12947829218E+03  0.18295003117E+03  0.12508767752E+03 0.  0.
         23    2    1    2    0    0  0.28286333891E+02  0.16094781949E+02  0.71253550510E+02  0.11855769829E+03  0.88992700106E+02 0.  0.
          5    1    3    3  502    0 -0.58822592801E+02 -0.54240657938E+02 -0.83577087924E+02  0.11577887728E+03  0.41800000000E+01 0. -1.
         -5    1    3    3    0  502  0.30536258910E+02  0.38145875990E+02 -0.45901204257E+02  0.67171153894E+02  0.41800000000E+01 0. -1.
        -11    1    4    4    0    0  0.12472039017E+02  0.34542389218E+02  0.83593895323E+02  0.91305354418E+02  0.00000000000E+00 0. -1.
         11    1    4    4    0    0  0.15814294874E+02 -0.18447607270E+02 -0.12340344813E+02  0.27252343870E+02  0.00000000000E+00 0.  1.
</event>
<event>
 8    1  0.7168478E-009  0.9719215E+02  0.7561462E-02  0.1286314E+00
         -3   -1    0    0    0  501 -0.00000000000E+00  0.00000000000E+00  0.39910745793E+02  0.39910745793E+02  0.00000000000E+00 0. -1.
          3   -1    0    0  501    0  0.00000000000E+00 -0.00000000000E+00 -0.71689560477E+03  0.71689560477E+03  0.00000000000E+00 0.  1.
         25    2    1    2    0    0  0.64509746823E+01  0.14192075764E+02 -0.65290228787E+03  0.66496033015E+03  0.12509121904E+03 0.  0.
         23    2    1    2    0    0 -0.64509746823E+01 -0.14192075764E+02 -0.24082571115E+02  0.91846020418E+02  0.87250737225E+02 0.  0.
          5    1    3    3  502    0 -0.33308467597E+02 -0.38481938447E+02 -0.16858988806E+03  0.17615429701E+03  0.41800000000E+01 0. -1.
         -5    1    3    3    0  502  0.39759442279E+02  0.52674014211E+02 -0.48431239981E+03  0.48880603314E+03  0.41800000000E+01 0. -1.
        -11    1    4    4    0    0 -0.28498588620E+02  0.21181702339E+02 -0.33825017722E+02  0.49040451580E+02  0.00000000000E+00 0.  1.
         11    1    4    4    0    0  0.22047613938E+02 -0.35373778103E+02  0.97424466067E+01  0.42805568838E+02  0.00000000000E+00 0. -1.
</event>
<event>
 8    1  0.7168478E-009  0.1549572E+03  0.7561462E-02  0.1194511E+00
          2   -1    0    0  501    0  0.00000000000E+00  0.00000000000E+00  0.41770831590E+03  0.41770831590E+03  0.00000000000E+00 0.  1.
         -2   -1    0    0    0  501 -0.00000000000E+00 -0.00000000000E+00 -0.65225012166E+02  0.65225012166E+02  0.00000000000E+00 0. -1.
         25    2    1    2    0    0  0.21357252783E+02 -0.12109297001E+03  0.21052657383E+03  0.27402321156E+03  0.12509053741E+03 0.  0.
         23    2    1    2    0    0 -0.21357252783E+02  0.12109297001E+03  0.14195672990E+03  0.20891011651E+03  0.91499092801E+02 0.  0.
          5    1    3    3  502    0  0.33659754918E+02  0.86971011755E+01  0.13075098862E+02  0.37377122418E+02  0.41800000000E+01 0. -1.
         -5    1    3    3    0  502 -0.12302502135E+02 -0.12979007118E+03  0.19745147497E+03  0.23664608914E+03  0.41800000000E+01 0. -1.
        -11    1    4    4    0    0  0.15865169629E+02  0.10084776835E+03  0.12918872320E+03  0.16465631537E+03  0.00000000000E+00 0.  1.
         11    1    4    4    0    0 -0.37222422412E+02  0.20245201660E+02  0.12768006704E+02  0.44253801143E+02  0.00000000000E+00 0. -1.
</event>
<event>
 8    1  0.7168478E-009  0.1084739E+03  0.7561462E-02  0.1263422E+00
         -2   -1    0    0    0  501 -0.00000000000E+00  0.00000000000E+00  0.28575596072E+02  0.28575596072E+02  0.00000000000E+00 0.  1.
          2   -1    0    0  501    0  0.00000000000E+00 -0.00000000000E+00 -0.44664550116E+03  0.44664550116E+03  0.00000000000E+00 0. -1.
         25    2    1    2    0    0  0.18626184519E+02 -0.25008802005E+02 -0.21820670580E+03  0.25344368732E+03  0.12508861363E+03 0.  0.
         23    2    1    2    0    0 -0.18626184519E+02  0.25008802005E+02 -0.19986319929E+03  0.22177740991E+03  0.90926047906E+02 0.  0.
          5    1    3    3  502    0  0.64918702498E+02 -0.38905854409E+02 -0.16417156992E+03  0.18082555188E+03  0.41800000000E+01 0. -1.
         -5    1    3    3    0  502 -0.46292517979E+02  0.13897052404E+02 -0.54035135880E+02  0.72618135448E+02  0.41800000000E+01 0. -1.
        -11    1    4    4    0    0  0.35001115147E+02  0.15005771674E+02 -0.54259628697E+02  0.66289958149E+02  0.00000000000E+00 0.  1.
         11    1    4    4    0    0 -0.53627299666E+02  0.10003030331E+02 -0.14560357059E+03  0.15548745176E+03  0.00000000000E+00 0. -1.
</event>
<event>
 8    1  0.7168478E-009  0.1479469E+03  0.7561462E-02  0.1203019E+00
          1   -1    0    0  501    0  0.00000000000E+00  0.00000000000E+00  0.10246005618E+04  0.10246005618E+04  0.00000000000E+00 0. -1.
         -1   -1    0    0    0  501 -0.00000000000E+00 -0.00000000000E+00 -0.22428680085E+02  0.22428680085E+02  0.00000000000E+00 0.  1.
         25    2    1    2    0    0  0.47475729148E+02  0.90567215868E+02  0.62499596373E+03  0.64554133894E+03  0.12508916879E+03 0.  0.
         23    2    1    2    0    0 -0.47475729148E+02 -0.90567215868E+02  0.37717591801E+03  0.40148790297E+03  0.92057034814E+02 0.  0.
          5    1    3    3  502    0  0.16436606969E+02  0.11814658124E+03  0.48393570947E+03  0.49843757885E+03  0.41800000000E+01 0. -1.
         -5    1    3    3    0  502  0.31039122179E+02 -0.27579365375E+02  0.14106025426E+03  0.14710376009E+03  0.41800000000E+01 0. -1.
        -11    1    4    4    0    0  0.15518071668E+02 -0.64988735058E+02  0.14682937962E+03  0.16131711921E+03  0.00000000000E+00 0. -1.
         11    1    4    4    0    0 -0.62993800817E+02 -0.25578480810E+02  0.23034653839E+03  0.24017078376E+03  0.00000000000E+00 0.  1.
</event>
<event>
 8    1  0.7168478E-009  0.1075255E+03  0.7561462E-02  0.1265222E+00
          3   -1    0    0  501    0  0.00000000000E+00  0.00000000000E+00  0.23047015422E+02  0.23047015422E+02  0.00000000000E+00 0. -1.
         -3   -1    0    0    0  501 -0.00000000000E+00 -0.00000000000E+00 -0.56356420134E+03  0.56356420134E+03  0.00000000000E+00 0.  1.
         25    2    1    2    0    0 -0.11892812414E+02  0.11036498577E+02 -0.39043419782E+03  0.41030619817E+03  0.12509624351E+03 0.  0.
         23    2    1    2    0    0  0.11892812414E+02 -0.11036498577E+02 -0.15008298810E+03  0.17630501859E+03  0.91078608773E+02 0.  0.
          5    1    3    3  502    0  0.54891008406E+02  0.24592245872E+01 -0.12835930066E+03  0.13968769830E+03  0.41800000000E+01 0.  1.
         -5    1    3    3    0  502 -0.66783820820E+02  0.85772739894E+01 -0.26207489716E+03  0.27061849987E+03  0.41800000000E+01 0.  1.
        -11    1    4    4    0    0  0.13706557431E+02  0.39553826758E+02 -0.70105753859E+02  0.81652872894E+02  0.00000000000E+00 0.  1.
         11    1    4    4    0    0 -0.18137450165E+01 -0.50590325335E+02 -0.79977234238E+02  0.94652145696E+02  0.00000000000E+00 0. -1.
</event>
<event>
 8    1  0.7168478E-009  0.1686718E+03  0.7561462E-02  0.1179240E+00
          2   -1    0    0  501    0  0.00000000000E+00  0.00000000000E+00  0.51061827286E+03  0.51061827286E+03  0.00000000000E+00 0.  1.
         -2   -1    0    0    0  501 -0.00000000000E+00 -0.00000000000E+00 -0.73171507365E+02  0.73171507365E+02  0.00000000000E+00 0. -1.
         25    2    1    2    0    0 -0.35960780428E+02  0.15256276294E+03  0.18427354437E+03  0.27234534407E+03  0.12508666164E+03 0.  0.
         23    2    1    2    0    0  0.35960780428E+02 -0.15256276294E+03  0.25317322112E+03  0.31144443615E+03  0.91281885119E+02 0.  0.
          5    1    3    3  502    0 -0.28302845565E+02  0.12131870607E+03  0.20049014094E+03  0.23607847958E+03  0.41800000000E+01 0. -1.
         -5    1    3    3    0  502 -0.76579348623E+01  0.31244056864E+02 -0.16216596566E+02  0.36266864489E+02  0.41800000000E+01 0. -1.
        -11    1    4    4    0    0  0.13263384330E+02 -0.15663716474E+03  0.23129045705E+03  0.27965406177E+03  0.00000000000E+00 0.  1.
         11    1    4    4    0    0  0.22697396098E+02  0.40744018057E+01  0.21882764074E+02  0.31790374380E+02  0.00000000000E+00 0. -1.
</event>
<event>
 8    1  0.7168478E-009  0.1220183E+03  0.7561462E-02  0.1239804E+00
         -1   -1    0    0    0  501 -0.00000000000E+00  0.00000000000E+00  0.13261957369E+02  0.13261957369E+02  0.00000000000E+00 0.  1.
          1   -1    0    0  501    0  0.00000000000E+00 -0.00000000000E+00 -0.12605867913E+04  0.12605867913E+04  0.00000000000E+00 0. -1.
         25    2    1    2    0    0  0.25777478835E+02 -0.62158247222E+02 -0.75778876669E+03  0.77098606966E+03  0.12509028172E+03 0.  0.
         23    2    1    2    0    0 -0.25777478835E+02  0.62158247222E+02 -0.48953606727E+03  0.50286267903E+03  0.93258708413E+02 0.  0.
          5    1    3    3  502    0 -0.35266146103E+02 -0.71194453740E+02 -0.38991901085E+03  0.39795308608E+03  0.41800000000E+01 0.  1.
         -5    1    3    3    0  502  0.61043624938E+02  0.90362065181E+01 -0.36786975584E+03  0.37303298358E+03  0.41800000000E+01 0.  1.
        -11    1    4    4    0    0 -0.51749943173E+02  0.55354858085E+02 -0.44038130414E+03  0.44685334279E+03  0.00000000000E+00 0. -1.
         11    1    4    4    0    0  0.25972464338E+02  0.68033891367E+01 -0.49154763133E+02  0.56009336241E+02  0.00000000000E+00 0.  1.
</event>
<event>
 8    1  0.7168478E-009  0.1161145E+03  0.7561462E-02  0.1249648E+00
          2   -1    0    0  501    0  0.00000000000E+00  0.00000000000E+00  0.23564944514E+03  0.23564944514E+03  0.00000000000E+00 0. -1.
         -2   -1    0    0    0  501 -0.00000000000E+00 -0.00000000000E+00 -0.83204050151E+02  0.83204050151E+02  0.00000000000E+00 0.  1.
         25    2    1    2    0    0  0.66648955322E+02  0.26134492879E+02  0.26157879161E+02  0.14648269169E+03  0.12509136404E+03 0.  0.
         23    2    1    2    0    0 -0.66648955322E+02 -0.26134492879E+02  0.12628751582E+03  0.17237080360E+03  0.92941176650E+02 0.  0.
          5    1    3    3  502    0  0.34483722475E+02 -0.34338084352E+02  0.53654171597E+02  0.72556692885E+02  0.41800000000E+01 0. -1.
         -5    1    3    3    0  502  0.32165232846E+02  0.60472577231E+02 -0.27496292436E+02  0.73925998801E+02  0.41800000000E+01 0. -1.
        -11    1    4    4    0    0 -0.54131614952E+02 -0.58715186064E+02  0.10333337319E+03  0.13059667234E+03  0.00000000000E+00 0.  1.
         11    1    4    4    0    0 -0.12517340370E+02  0.32580693185E+02  0.22954142633E+02  0.41774131258E+02  0.00000000000E+00 0. -1.
</event>
<event>
 8    1  0.7168478E-009  0.9962016E+02  0.7561462E-02  0.1281097E+00
         -2   -1    0    0    0  501 -0.00000000000E+00  0.00000000000E+00  0.11973651304E+03  0.11973651304E+03  0.00000000000E+00 0.  1.
          2   -1    0    0  501    0  0.00000000000E+00 -0.00000000000E+00 -0.12995719446E+03  0.12995719446E+03  0.00000000000E+00 0. -1.
         25    2    1    2    0    0  0.22045481757E+01 -0.15753597124E+02  0.54025286970E+02  0.13718292205E+03  0.12508951440E+03 0.  0.
         23    2    1    2    0    0 -0.22045481757E+01  0.15753597124E+02 -0.64245968386E+02  0.11251078546E+03  0.90984045498E+02 0.  0.
          5    1    3    3  502    0  0.43721390218E+02 -0.43065731994E+02 -0.28025816587E+01  0.61575515416E+02  0.41800000000E+01 0.  1.
         -5    1    3    3    0  502 -0.41516842043E+02  0.27312134870E+02  0.56827868629E+02  0.75607406629E+02  0.41800000000E+01 0.  1.
        -11    1    4    4    0    0 -0.33581397690E+01 -0.35967577757E+02 -0.44065813413E+02  0.56980169043E+02  0.00000000000E+00 0.  1.
         11    1    4    4    0    0  0.11535915933E+01  0.51721174881E+02 -0.20180154973E+02  0.55530616414E+02  0.00000000000E+00 0. -1.
</event>
<event>
 8    1  0.7168478E-009  0.1194407E+03  0.7561462E-02  0.1244023E+00
         -2   -1    0    0    0  501 -0.00000000000E+00  0.00000000000E+00  0.59240773182E+02  0.59240773182E+02  0.00000000000E+00 0. -1.
          2   -1    0    0  501    0  0.00000000000E+00 -0.00000000000E+00 -0.30077262013E+03  0.30077262013E+03  0.00000000000E+00 0.  1.
         25    2    1    2    0    0 -0.44447956632E+02  0.62459458436E+02 -0.13619592659E+03  0.20018579172E+03  0.12509282950E+03 0.  0.
         23    2    1    2    0    0  0.44447956632E+02 -0.62459458436E+02 -0.10533592036E+03  0.15982760159E+03  0.92587263243E+02 0.  0.
          5    1    3    3  502    0  0.46094937394E+01  0.74886729596E+02 -0.12845454958E+03  0.14881973461E+03  0.41800000000E+01 0. -1.
         -5    1    3    3    0  502 -0.49057450371E+02 -0.12427271160E+02 -0.77413770120E+01  0.51366057114E+02  0.41800000000E+01 0. -1.
        -11    1    4    4    0    0  0.42231340534E+01 -0.71585728909E+02 -0.38773789323E+02  0.81521519754E+02  0.00000000000E+00 0. -1.
         11    1    4    4    0    0  0.40224822578E+02  0.91262704727E+01 -0.66562131034E+02  0.78306081833E+02  0.00000000000E+00 0.  1.
</event>
<event>
 8    1  0.7168478E-009  0.1461518E+03  0.7561462E-02  0.1205283E+00
         -1   -1    0    0    0  501 -0.00000000000E+00  0.00000000000E+00  0.76153984214E+03  0.76153984214E+03  0.00000000000E+00 0.  1.
          1   -1    0    0  501    0  0.00000000000E+00 -0.00000000000E+00 -0.62538387496E+02  0.62538387496E+02  0.00000000000E+00 0. -1.
         25    2    1    2    0    0  0.13972995024E+03 -0.31193977462E+02  0.59535725545E+03  0.62497614558E+03  0.12508955870E+03 0.  0.
         23    2    1    2    0    0 -0.13972995024E+03  0.31193977462E+02  0.10364419919E+03  0.19910208406E+03  0.91662405735E+02 0.  0.
          5    1    3    3  502    0  0.25038033248E+02 -0.11699095058E+02  0.12519648670E+02  0.30626556073E+02  0.41800000000E+01 0. -1.
         -5    1    3    3    0  502  0.11469191699E+03 -0.19494882404E+02  0.58283760678E+03  0.59434958950E+03  0.41800000000E+01 0. -1.
        -11    1    4    4    0    0 -0.80967357945E+02  0.36747841787E+02  0.11475692574E+02  0.89653825622E+02  0.00000000000E+00 0. -1.
         11    1    4    4    0    0 -0.58762592297E+02 -0.55538643253E+01  0.92168506615E+02  0.10944825843E+03  0.00000000000E+00 0.  1.
</event>
<event>
 8    1  0.7168478E-009  0.1632883E+03  0.7561462E-02  0.1185033E+00
          1   -1    0    0  501    0  0.00000000000E+00  0.00000000000E+00  0.14402399801E+04  0.14402399801E+04  0.00000000000E+00 0. -1.
         -1   -1    0    0    0  501 -0.00000000000E+00 -0.00000000000E+00 -0.19644200501E+02  0.19644200501E+02  0.00000000000E+00 0.  1.
         25    2    1    2    0    0 -0.12150456857E+03 -0.28613575756E+02  0.62856731293E+03  0.65293744578E+03  0.12509334239E+03 0.  0.
         23    2    1    2    0    0  0.12150456857E+03  0.28613575756E+02  0.79202846668E+03  0.80694673484E+03  0.90949678015E+02 0.  0.
          5    1    3    3  502    0 -0.12017080540E+03 -0.64204619586E+02  0.42777132753E+03  0.44896440472E+03  0.41800000000E+01 0.  1.
         -5    1    3    3    0  502 -0.13337631631E+01  0.35591043830E+02  0.20079598541E+03  0.20397304106E+03  0.41800000000E+01 0.  1.
        -11    1    4    4    0    0  0.32986734984E+02 -0.32918040671E+02  0.23047328585E+03  0.23513752907E+03  0.00000000000E+00 0.  1.
         11    1    4    4    0    0  0.88517833584E+02  0.61531616426E+02  0.56155518083E+03  0.57180920577E+03  0.00000000000E+00 0. -1.
</event>
<event>
 8    1  0.7168478E-009  0.1233710E+03  0.7561462E-02  0.1237637E+00
          2   -1    0    0  501    0  0.00000000000E+00  0.00000000000E+00  0.16888070505E+03  0.16888070505E+03  0.00000000000E+00 0. -1.
         -2   -1    0    0    0  501 -0.00000000000E+00 -0.00000000000E+00 -0.14793269113E+03  0.14793269113E+03  0.00000000000E+00 0.  1.
         25    2    1    2    0    0 -0.91632142997E+02  0.64191725265E+02 -0.10364453006E+02  0.16814292002E+03  0.12509033713E+03 0.  0.
         23    2    1    2    0    0  0.91632142997E+02 -0.64191725265E+02  0.31312466927E+02  0.14867047616E+03  0.92765363551E+02 0.  0.
          5    1    3    3  502    0 -0.25010041715E+02  0.11850564274E+02  0.54560844894E+02  0.61321254519E+02  0.41800000000E+01 0. -1.
         -5    1    3    3    0  502 -0.66622101281E+02  0.52341160991E+02 -0.64925297901E+02  0.10682166550E+03  0.41800000000E+01 0. -1.
        -11    1    4    4    0    0  0.96784632796E+02 -0.32916325168E+02  0.47901229479E+02  0.11289498392E+03  0.00000000000E+00 0. -1.
         11    1    4    4    0    0 -0.51524897996E+01 -0.31275400097E+02 -0.16588762553E+02  0.35775492245E+02  0.00000000000E+00 0.  1.
</event>
<event>
 8    1  0.7168478E-009  0.8356021E+02  0.7561462E-02  0.1319241E+00
         -2   -1    0    0    0  501 -0.00000000000E+00  0.00000000000E+00  0.33088127170E+02  0.33088127170E+02  0.00000000000E+00 0.  1.
          2   -1    0    0  501    0  0.00000000000E+00 -0.00000000000E+00 -0.35548913004E+03  0.35548913004E+03  0.00000000000E+00 0. -1.
         25    2    1    2    0    0 -0.77775008191E+01 -0.27665322569E+01 -0.19435453458E+03  0.23128368966E+03  0.12510122610E+03 0.  0.
         23    2    1    2    0    0  0.77775008191E+01  0.27665322569E+01 -0.12804646829E+03  0.15729356755E+03  0.90979256599E+02 0.  0.
          5    1    3    3  502    0  0.50368318944E+02 -0.65169821379E+01 -0.14855893580E+03  0.15705625876E+03  0.41800000000E+01 0. -1.
         -5    1    3    3    0  502 -0.58145819763E+02  0.37504498810E+01 -0.45795598775E+02  0.74227430896E+02  0.41800000000E+01 0. -1.
        -11    1    4    4    0    0  0.21012477339E+02 -0.21525236485E+02 -0.12601532440E+03  0.12955586437E+03  0.00000000000E+00 0. -1.
         11    1    4    4    0    0 -0.13234976519E+02  0.24291768742E+02 -0.20311438896E+01  0.27737703178E+02  0.00000000000E+00 0.  1.
</event>
<event>
 8    1  0.7168478E-009  0.1426480E+03  0.7561462E-02  0.1209810E+00
         -2   -1    0    0    0  501 -0.00000000000E+00  0.00000000000E+00  0.22046329669E+02  0.22046329669E+02  0.00000000000E+00 0.  1.
          2   -1    0    0  501    0  0.00000000000E+00 -0.00000000000E+00 -0.13844374025E+04  0.13844374025E+04  0.00000000000E+00 0. -1.
         25    2    1    2    0    0  0.34776358281E+02  0.11783945360E+03 -0.95639532052E+03  0.97233511189E+03  0.12509208126E+03 0.  0.
         23    2    1    2    0    0 -0.34776358281E+02 -0.11783945360E+03 -0.40599575237E+03  0.43414862033E+03  0.92503738693E+02 0.  0.
          5    1    3    3  502    0  0.49850574953E+02  0.64738944666E+02 -0.23529769725E+03  0.24911581545E+03  0.41800000000E+01 0. -1.
         -5    1    3    3    0  502 -0.15074216671E+02  0.53100508935E+02 -0.72109762327E+03  0.72321929644E+03  0.41800000000E+01 0. -1.
        -11    1    4    4    0    0 -0.34690176776E+02 -0.47258521203E+01 -0.15401217755E+03  0.15794142230E+03  0.00000000000E+00 0. -1.
         11    1    4    4    0    0 -0.86181505729E-01 -0.11311360148E+03 -0.25198357481E+03  0.27620719803E+03  0.00000000000E+00 0.  1.
</event>
<event>
 8    1  0.7168478E-009  0.1111100E+03  0.7561462E-02  0.1258528E+00
          1   -1    0    0  501    0  0.00000000000E+00  0.00000000000E+00  0.40446418720E+03  0.40446418720E+03  0.00000000000E+00 0. -1.
         -1   -1    0    0    0  501 -0.00000000000E+00 -0.00000000000E+00 -0.44472157357E+02  0.44472157357E+02  0.00000000000E+00 0.  1.
         25    2    1    2    0    0 -0.67387993764E+02  0.32960247512E+02  0.24171688449E+03  0.28231442500E+03  0.12508742022E+03 0.  0.
         23    2    1    2    0    0  0.67387993764E+02 -0.32960247512E+02  0.11827514536E+03  0.16662191956E+03  0.90257046532E+02 0.  0.
          5    1    3    3  502    0  0.15236006612E+02 -0.33906157322E+02  0.43607355488E+02  0.57452913368E+02  0.41800000000E+01 0.  1.
         -5    1    3    3    0  502 -0.82624000375E+02  0.66866404834E+02  0.19810952900E+03  0.22486151163E+03  0.41800000000E+01 0.  1.
        -11    1    4    4    0    0  0.25034735338E+02 -0.24933641765E+02  0.11835311851E+03  0.12351471623E+03  0.00000000000E+00 0. -1.
         11    1    4    4    0    0  0.42353258426E+02 -0.80266057463E+01 -0.77973148238E-01  0.43107203330E+02  0.00000000000E+00 0.  1.
</event>
<event>
 8    1  0.7168478E-009  0.1088709E+03  0.7561462E-02  0.1262675E+00
         -2   -1    0    0    0  501 -0.00000000000E+00  0.00000000000E+00  0.77076682315E+02  0.77076682315E+02  0.00000000000E+00 0.  1.
          2   -1    0    0  501    0  0.00000000000E+00 -0.00000000000E+00 -0.29281916500E+03  0.29281916500E+03  0.00000000000E+00 0. -1.
         25    2    1    2    0    0 -0.96976206769E+02 -0.25590905795E+02 -0.14612241484E+03  0.21693010150E+03  0.12509048598E+03 0.  0.
         23    2    1    2    0    0  0.96976206769E+02  0.25590905795E+02 -0.69620067852E+02  0.15296574581E+03  0.92153602242E+02 0.  0.
          5    1    3    3  502    0 -0.93578903517E+02 -0.26337636369E+02 -0.31641043115E+02  0.10231964759E+03  0.41800000000E+01 0.  1.
         -5    1    3    3    0  502 -0.33973032523E+01  0.74673057374E+00 -0.11448137172E+03  0.11461045392E+03  0.41800000000E+01 0.  1.
        -11    1    4    4    0    0  0.74289583866E+02 -0.77277279735E+01 -0.25732503560E+01  0.74734742042E+02  0.00000000000E+00 0.  1.
         11    1    4    4    0    0  0.22686622903E+02  0.33318633769E+02 -0.67046817496E+02  0.78231003773E+02  0.00000000000E+00 0. -1.
</event>
<event>
 8    1  0.7168478E-009  0.1006348E+03  0.7561462E-02  0.1278967E+00
         -2   -1    0    0    0  501 -0.00000000000E+00  0.00000000000E+00  0.11828181578E+02  0.11828181578E+02  0.00000000000E+00 0.  1.
          2   -1    0    0  501    0  0.00000000000E+00 -0.00000000000E+00 -0.12184200080E+04  0.12184200080E+04  0.00000000000E+00 0. -1.
         25    2    1    2    0    0  0.18000859449E+02  0.95814802051E+01 -0.91646167591E+03  0.92518374334E+03  0.12508844800E+03 0.  0.
         23    2    1    2    0    0 -0.18000859449E+02 -0.95814802051E+01 -0.29013015050E+03  0.30506444623E+03  0.92048771958E+02 0.  0.
          5    1    3    3  502    0  0.58839152677E+02 -0.12712176665E+02 -0.74601554056E+03  0.74845193866E+03  0.41800000000E+01 0.  1.
         -5    1    3    3    0  502 -0.40838293227E+02  0.22293656870E+02 -0.17044613534E+03  0.17673180468E+03  0.41800000000E+01 0.  1.
        -11    1    4    4    0    0  0.32728821917E+02 -0.25008630891E+02 -0.12116417493E+03  0.12797407820E+03  0.00000000000E+00 0.  1.
         11    1    4    4    0    0 -0.50729681367E+02  0.15427150686E+02 -0.16896597557E+03  0.17709036803E+03  0.00000000000E+00 0. -1.
</event>
<event>
 8    1  0.7168478E-009  0.1203666E+03  0.7561462E-02  0.1242494E+00
          1   -1    0    0  501    0  0.00000000000E+00  0.00000000000E+00  0.12299956895E+03  0.12299956895E+03  0.00000000000E+00 0. -1.
         -1   -1    0    0    0  501 -0.00000000000E+00 -0.00000000000E+00 -0.15832402509E+03  0.15832402509E+03  0.00000000000E+00 0.  1.
         25    2    1    2    0    0  0.49064397789E+02  0.70990733724E+02 -0.10624173681E+02  0.15233612525E+03  0.12508566099E+03 0.  0.
         23    2    1    2    0    0 -0.49064397789E+02 -0.70990733724E+02 -0.24700282461E+02  0.12898746878E+03  0.92631872184E+02 0.  0.
          5    1    3    3  502    0  0.52783844740E+02  0.87199777506E+02  0.31570672054E+02  0.10679005196E+03  0.41800000000E+01 0. -1.
         -5    1    3    3    0  502 -0.37194469505E+01 -0.16209043782E+02 -0.42194845735E+02  0.45546073295E+02  0.41800000000E+01 0. -1.
        -11    1    4    4    0    0 -0.24875006305E+02 -0.88356570764E+02 -0.24653582507E+01  0.91824438616E+02  0.00000000000E+00 0. -1.
         11    1    4    4    0    0 -0.24189391484E+02  0.17365837041E+02 -0.22234924211E+02  0.37163030167E+02  0.00000000000E+00 0.  1.
</event>
<event>
 8    1  0.7168478E-009  0.7876066E+02  0.7561462E-02  0.1332606E+00
         -2   -1    0    0    0  501 -0.00000000000E+00  0.00000000000E+00  0.24701615973E+02  0.24701615973E+02  0.00000000000E+00 0.  1.
          2   -1    0    0  501    0  0.00000000000E+00 -0.00000000000E+00 -0.72763654898E+03  0.72763654898E+03  0.00000000000E+00 0. -1.
         25    2    1    2    0    0  0.17069841735E+02  0.76442173005E+02 -0.41635310749E+03  0.44173614363E+03  0.12508447211E+03 0.  0.
         23    2    1    2    0    0 -0.17069841735E+02 -0.76442173005E+02 -0.28658182552E+03  0.31060202133E+03  0.90607326540E+02 0.  0.
          5    1    3    3  502    0  0.95547080221E+01  0.53914828564E+02 -0.41386831631E+03  0.41749557702E+03  0.41800000000E+01 0.  1.
         -5    1    3    3    0  502  0.75151337131E+01  0.22527344441E+02 -0.24847911760E+01  0.24240566608E+02  0.41800000000E+01 0.  1.
        -11    1    4    4    0    0 -0.34335136395E+01 -0.26586002003E+02 -0.90426556650E+01  0.28290884396E+02  0.00000000000E+00 0.  1.
         11    1    4    4    0    0 -0.13636328096E+02 -0.49856171002E+02 -0.27753916986E+03  0.28231113693E+03  0.00000000000E+00 0. -1.
</event>
<event>
 8    1  0.7168478E-009  0.1388075E+03  0.7561462E-02  0.1214943E+00
         -1   -1    0    0    0  501 -0.00000000000E+00  0.00000000000E+00  0.39491975610E+02  0.39491975610E+02  0.00000000000E+00 0.  1.
          1   -1    0    0  501    0  0.00000000000E+00 -0.00000000000E+00 -0.52688041242E+03  0.52688041242E+03  0.00000000000E+00 0. -1.
         25    2    1    2    0    0  0.47266754738E+01  0.94035874989E+02 -0.29557517281E+03  0.33448028040E+03  0.12508912004E+03 0.  0.
         23    2    1    2    0    0 -0.47266754738E+01 -0.94035874989E+02 -0.19181326401E+03  0.23189210763E+03  0.90091809209E+02 0.  0.
          5    1    3    3  502    0 -0.55132434008E+02  0.19865642175E+02 -0.85305785314E+02  0.10357981670E+03  0.41800000000E+01 0.  1.
         -5    1    3    3    0  502  0.59859109482E+02  0.74170232814E+02 -0.21026938749E+03  0.23090046371E+03  0.41800000000E+01 0.  1.
        -11    1    4    4    0    0 -0.27110749942E+02 -0.97148975881E+02 -0.18014398968E+03  0.20645767919E+03  0.00000000000E+00 0.  1.
         11    1    4    4    0    0  0.22384074468E+02  0.31131008927E+01 -0.11669274327E+02  0.25434428444E+02  0.00000000000E+00 0. -1.
</event>
<event>
 8    1  0.7168478E-009  0.9653898E+02  0.7561462E-02  0.1287747E+00
          2   -1    0    0  501    0  0.00000000000E+00  0.00000000000E+00  0.95426567927E+03  0.95426567927E+03  0.00000000000E+00 0.  1.
         -2   -1    0    0    0  501 -0.00000000000E+00 -0.00000000000E+00 -0.18560415510E+02  0.18560415510E+02  0.00000000000E+00 0. -1.
         25    2    1    2    0    0 -0.61937994840E+02 -0.37757490870E+02  0.59628936341E+03  0.61357212976E+03  0.12509120744E+03 0.  0.
         23    2    1    2    0    0  0.61937994840E+02  0.37757490870E+02  0.33941590035E+03  0.35925396502E+03  0.92727097716E+02 0.  0.
          5    1    3    3  502    0 -0.47676025388E+02  0.10666009742E+02  0.51806388557E+03  0.52037912054E+03  0.41800000000E+01 0.  1.
         -5    1    3    3    0  502 -0.14261969452E+02 -0.48423500612E+02  0.78225477835E+02  0.93193009216E+02  0.41800000000E+01 0.  1.
        -11    1    4    4    0    0  0.25047334461E+02 -0.14865296103E+02  0.25142908589E+02  0.38477419926E+02  0.00000000000E+00 0. -1.
         11    1    4    4    0    0  0.36890660379E+02  0.52622786973E+02  0.31427299177E+03  0.32077654510E+03  0.00000000000E+00 0.  1.
</event>
<event>
 8    1  0.7168478E-009  0.1245020E+03  0.7561462E-02  0.1235850E+00
         -2   -1    0    0    0  501 -0.00000000000E+00  0.00000000000E+00  0.21237626499E+03  0.21237626499E+03  0.00000000000E+00 0.  1.
          2   -1    0    0  501    0  0.00000000000E+00 -0.00000000000E+00 -0.10552834555E+03  0.10552834555E+03  0.00000000000E+00 0. -1.
         25    2    1    2    0    0  0.90586277559E+02 -0.54948548520E+02  0.39012766356E+02  0.16850608710E+03  0.12508832393E+03 0.  0.
         23    2    1    2    0    0 -0.90586277559E+02  0.54948548520E+02  0.67835153085E+02  0.14939852344E+03  0.80579737816E+02 0.  0.
          5    1    3    3  502    0  0.10525891131E+03 -0.23579029293E+02  0.64093948991E+02  0.12554248576E+03  0.41800000000E+01 0.  1.
         -5    1    3    3    0  502 -0.14672633754E+02 -0.31369519227E+02 -0.25081182635E+02  0.42963601341E+02  0.41800000000E+01 0.  1.
        -11    1    4    4    0    0 -0.61755879963E+02  0.33652771535E+02  0.84443035542E+02  0.10989505900E+03  0.00000000000E+00 0.  1.
         11    1    4    4    0    0 -0.28830397596E+02  0.21295776985E+02 -0.16607882457E+02  0.39503464439E+02  0.00000000000E+00 0. -1.
</event>
<event>
 8    1  0.7168478E-009  0.9999905E+02  0.7561462E-02  0.1280298E+00
         -1   -1    0    0    0  501 -0.00000000000E+00  0.00000000000E+00  0.17147272649E+03  0.17147272649E+03  0.00000000000E+00 0.  1.
          1   -1    0    0  501    0  0.00000000000E+00 -0.00000000000E+00 -0.10932401930E+03  0.10932401930E+03  0.00000000000E+00 0. -1.
         25    2    1    2    0    0  0.30506355550E+02  0.27122546011E+02 -0.40817026865E+02  0.13776551068E+03  0.12508811302E+03 0.  0.
         23    2    1    2    0    0 -0.30506355550E+02 -0.27122546011E+02  0.10296573405E+03  0.14303123510E+03  0.90497080587E+02 0.  0.
          5    1    3    3  502    0  0.20865390242E+02  0.77269300433E+02 -0.28572211997E+02  0.85086738084E+02  0.41800000000E+01 0. -1.
         -5    1    3    3    0  502  0.96409653085E+01 -0.50146754422E+02 -0.12244814868E+02  0.52678772597E+02  0.41800000000E+01 0. -1.
        -11    1    4    4    0    0  0.13603527877E+02  0.45152621762E+01 -0.10151145639E+02  0.17563864068E+02  0.00000000000E+00 0. -1.
         11    1    4    4    0    0 -0.44109883427E+02 -0.31637808187E+02  0.11311687969E+03  0.12546737104E+03  0.00000000000E+00 0.  1.
</event>
<event>
 8    1  0.7168478E-009  0.1211277E+03  0.7561462E-02  0.1241248E+00
         -2   -1    0    0    0  501 -0.00000000000E+00  0.00000000000E+00  0.25628279673E+02  0.25628279673E+02  0.00000000000E+00 0.  1.
          2   -1    0    0  501    0  0.00000000000E+00 -0.00000000000E+00 -0.62914656620E+03  0.62914656620E+03  0.00000000000E+00 0. -1.
         25    2    1    2    0    0 -0.57469748278E+02 -0.31197129678E+02 -0.30228312321E+03  0.33361402999E+03  0.12508877472E+03 0.  0.
         23    2    1    2    0    0  0.57469748278E+02  0.31197129678E+02 -0.30123516332E+03  0.32116081589E+03  0.90142183091E+02 0.  0.
          5    1    3    3  502    0 -0.59997664317E+02  0.32156521291E+02 -0.21564405084E+03  0.22617159558E+03  0.41800000000E+01 0.  1.
         -5    1    3    3    0  502  0.25279160394E+01 -0.63353650969E+02 -0.86639072366E+02  0.10744243441E+03  0.41800000000E+01 0.  1.
        -11    1    4    4    0    0  0.50470840380E+02 -0.23285415662E+02 -0.13170373243E+03  0.14295240273E+03  0.00000000000E+00 0.  1.
         11    1    4    4    0    0  0.69989078973E+01  0.54482545340E+02 -0.16953143089E+03  0.17820841315E+03  0.00000000000E+00 0. -1.
</event>
<event>
 8    1  0.7168478E-009  0.2140994E+03  0.7561462E-02  0.1138360E+00
          2   -1    0    0  501    0  0.00000000000E+00  0.00000000000E+00  0.52265071523E+03  0.52265071523E+03  0.00000000000E+00 0.  1.
         -2   -1    0    0    0  501 -0.00000000000E+00 -0.00000000000E+00 -0.10744652190E+03  0.10744652190E+03  0.00000000000E+00 0. -1.
         25    2    1    2    0    0 -0.46570910293E+02  0.19236624338E+03  0.12427658216E+03  0.26507597492E+03  0.12508789841E+03 0.  0.
         23    2    1    2    0    0  0.46570910293E+02 -0.19236624338E+03  0.29092761117E+03  0.36502126221E+03  0.97098020819E+02 0.  0.
          5    1    3    3  502    0 -0.84878602710E+02  0.13895370779E+03  0.11303864547E+03  0.19826174083E+03  0.41800000000E+01 0. -1.
         -5    1    3    3    0  502  0.38307692416E+02  0.53412535591E+02  0.11237936691E+02  0.66814234094E+02  0.41800000000E+01 0. -1.
        -11    1    4    4    0    0  0.38276304998E+02 -0.10611975975E+03  0.83889887972E+02  0.14058446656E+03  0.00000000000E+00 0. -1.
         11    1    4    4    0    0  0.82946052959E+01 -0.86246483628E+02  0.20703772319E+03  0.22443679565E+03  0.00000000000E+00 0.  1.
</event>
<event>
 8    1  0.7168478E-009  0.1582672E+03  0.7561462E-02  0.1190667E+00
          1   -1    0    0  501    0  0.00000000000E+00  0.00000000000E+00  0.11498974032E+04  0.11498974032E+04  0.00000000000E+00 0. -1.
         -1   -1    0    0    0  501 -0.00000000000E+00 -0.00000000000E+00 -0.24782277039E+02  0.24782277039E+02  0.00000000000E+00 0.  1.
         25    2    1    2    0    0  0.39707251065E+01  0.12713850033E+03  0.54903714309E+03  0.57729297705E+03  0.12508170106E+03 0.  0.
         23    2    1    2    0    0 -0.39707251065E+01 -0.12713850033E+03  0.57607798308E+03  0.59738670320E+03  0.93941820503E+02 0.  0.
          5    1    3    3  502    0  0.26582722056E+02  0.14522379921E+03  0.42787302010E+03  0.45264708847E+03  0.41800000000E+01 0. -1.
         -5    1    3    3    0  502 -0.22611996949E+02 -0.18085298880E+02  0.12116412298E+03  0.12464588858E+03  0.41800000000E+01 0. -1.
        -11    1    4    4    0    0 -0.29788404829E+02 -0.49577057601E+02  0.11085292006E+03  0.12503440961E+03  0.00000000000E+00 0.  1.
         11    1    4    4    0    0  0.25817679722E+02 -0.77561442730E+02  0.46522506303E+03  0.47235229359E+03  0.00000000000E+00 0. -1.
</event>
<event>
 8    1  0.7168478E-009  0.2385396E+03  0.7561462E-02  0.1120770E+00
          2   -1    0    0  501    0  0.00000000000E+00  0.00000000000E+00  0.11489506055E+04  0.11489506055E+04  0.00000000000E+00 0. -1.
         -2   -1    0    0    0  501 -0.00000000000E+00 -0.00000000000E+00 -0.75787712158E+02  0.75787712158E+02  0.00000000000E+00 0.  1.
         25    2    1    2    0    0 -0.12436218416E+03  0.17706690502E+03  0.89456973675E+03  0.92882803410E+03  0.12509141182E+03 0.  0.
         23    2    1    2    0    0  0.12436218416E+03 -0.17706690502E+03  0.17859315655E+03  0.29591028351E+03  0.94067734213E+02 0.  0.
          5    1    3    3  502    0 -0.15528303090E+02 -0.16010638455E+02  0.15805813802E+03  0.15967879050E+03  0.41800000000E+01 0. -1.
         -5    1    3    3    0  502 -0.10883388107E+03  0.19307754348E+03  0.73651159873E+03  0.76914924360E+03  0.41800000000E+01 0. -1.
        -11    1    4    4    0    0  0.84236267602E+02 -0.46719312280E+02  0.98389305682E+02  0.13769131560E+03  0.00000000000E+00 0.  1.
         11    1    4    4    0    0  0.40125916561E+02 -0.13034759274E+03  0.80203850864E+02  0.15821896791E+03  0.00000000000E+00 0. -1.
</event>
<event>
 8    1  0.7168478E-009  0.1907483E+03  0.7561462E-02  0.1157788E+00
          2   -1    0    0  501    0  0.00000000000E+00  0.00000000000E+00  0.72211496721E+03  0.72211496721E+03  0.00000000000E+00 0.  1.
         -2   -1    0    0    0  501 -0.00000000000E+00 -0.00000000000E+00 -0.98974730576E+02  0.98974730576E+02  0.00000000000E+00 0. -1.
         25    2    1    2    0    0  0.13582138763E+03 -0.12121600493E+03  0.69964360397E+02  0.23169977039E+03  0.12509597388E+03 0.  0.
         23    2    1    2    0    0 -0.13582138763E+03  0.12121600493E+03  0.55317587624E+03  0.58938992740E+03  0.90753332073E+02 0.  0.
          5    1    3    3  502    0  0.78304731472E+02 -0.97721101734E+02  0.10210000849E+03  0.16162589158E+03  0.41800000000E+01 0. -1.
         -5    1    3    3    0  502  0.57516656161E+02 -0.23494903193E+02 -0.32135648098E+02  0.70073878804E+02  0.41800000000E+01 0. -1.
        -11    1    4    4    0    0 -0.72245082690E+02  0.20972105670E+02  0.30709262613E+03  0.31617251970E+03  0.00000000000E+00 0.  1.
         11    1    4    4    0    0 -0.63576304943E+02  0.10024389926E+03  0.24608325010E+03  0.27321740770E+03  0.00000000000E+00 0. -1.
</event>
<event>
 8    1  0.7168478E-009  0.1272031E+03  0.7561462E-02  0.1231666E+00
         -1   -1    0    0    0  501 -0.00000000000E+00  0.00000000000E+00  0.13104113285E+03  0.13104113285E+03  0.00000000000E+00 0.  1.
          1   -1    0    0  501    0  0.00000000000E+00 -0.00000000000E+00 -0.17268655018E+03  0.17268655018E+03  0.00000000000E+00 0. -1.
         25    2    1    2    0    0  0.37056707963E+02  0.80892775621E+02  0.34328854399E+02  0.15729892390E+03  0.12509052907E+03 0.  0.
         23    2    1    2    0    0 -0.37056707963E+02 -0.80892775621E+02 -0.75974271728E+02  0.14642875914E+03  0.88048002741E+02 0.  0.
          5    1    3    3  502    0 -0.29160085987E+02  0.34976960676E+00  0.43508345366E+02  0.52544090724E+02  0.41800000000E+01 0. -1.
         -5    1    3    3    0  502  0.66216793949E+02  0.80543006014E+02 -0.91794909670E+01  0.10475483317E+03  0.41800000000E+01 0. -1.
        -11    1    4    4    0    0 -0.63159063713E+02 -0.60625218215E+02 -0.36249182105E+02  0.94754881753E+02  0.00000000000E+00 0. -1.
         11    1    4    4    0    0  0.26102355750E+02 -0.20267557406E+02 -0.39725089623E+02  0.51673877390E+02  0.00000000000E+00 0.  1.
</event>
<event>
 8    1  0.7168478E-009  0.7262174E+02  0.7561462E-02  0.1351398E+00
         -1   -1    0    0    0  501 -0.00000000000E+00  0.00000000000E+00  0.51916841566E+02  0.51916841566E+02  0.00000000000E+00 0.  1.
          1   -1    0    0  501    0  0.00000000000E+00 -0.00000000000E+00 -0.35917556853E+03  0.35917556853E+03  0.00000000000E+00 0. -1.
         25    2    1    2    0    0  0.49888717835E+02 -0.93274716692E+01 -0.26252722801E+03  0.29520204809E+03  0.12509123812E+03 0.  0.
         23    2    1    2    0    0 -0.49888717835E+02  0.93274716692E+01 -0.44731498957E+02  0.11589036201E+03  0.94094543478E+02 0.  0.
          5    1    3    3  502    0  0.30500443160E+02 -0.64711600977E+01 -0.27145007217E+03  0.27326684217E+03  0.41800000000E+01 0.  1.
         -5    1    3    3    0  502  0.19388274675E+02 -0.28563115715E+01  0.89228441670E+01  0.21935205918E+02  0.41800000000E+01 0.  1.
        -11    1    4    4    0    0 -0.64691028236E+02 -0.13934320502E+02 -0.55422914058E+02  0.86317980888E+02  0.00000000000E+00 0. -1.
         11    1    4    4    0    0  0.14802310401E+02  0.23261792171E+02  0.10691415100E+02  0.29572381119E+02  0.00000000000E+00 0.  1.
</event>
<event>
 8    1  0.7168478E-009  0.2002375E+03  0.7561462E-02  0.1149539E+00
          1   -1    0    0  501    0  0.00000000000E+00  0.00000000000E+00  0.35104170740E+04  0.35104170740E+04  0.00000000000E+00 0. -1.
         -1   -1    0    0    0  501 -0.00000000000E+00 -0.00000000000E+00 -0.19953299570E+02  0.19953299570E+02  0.00000000000E+00 0.  1.
         25    2    1    2    0    0  0.57367638430E+02  0.17758226049E+03  0.28001448398E+04  0.28091430492E+04  0.12508813581E+03 0.  0.
         23    2    1    2    0    0 -0.57367638430E+02 -0.17758226049E+03  0.69031893466E+03  0.72122732442E+03  0.93819596880E+02 0.  0.
          5    1    3    3  502    0  0.35686677232E+02  0.17550625678E+03  0.27226449219E+04  0.27285323579E+04  0.41800000000E+01 0. -1.
         -5    1    3    3    0  502  0.21680961198E+02  0.20760037111E+01  0.77499917879E+02  0.80610691234E+02  0.41800000000E+01 0. -1.
        -11    1    4    4    0    0  0.15120459687E+02 -0.51955272354E+02  0.29979723207E+03  0.30464136125E+03  0.00000000000E+00 0. -1.
         11    1    4    4    0    0 -0.72488098117E+02 -0.12562698814E+03  0.39052170259E+03  0.41658596318E+03  0.00000000000E+00 0.  1.
</event>
<event>
 8    1  0.7168478E-009  0.9674147E+02  0.7561462E-02  0.1287301E+00
         -2   -1    0    0    0  501 -0.00000000000E+00  0.00000000000E+00  0.15139072780E+03  0.15139072780E+03  0.00000000000E+00 0.  1.
          2   -1    0    0  501    0  0.00000000000E+00 -0.00000000000E+00 -0.12103283715E+03  0.12103283715E+03  0.00000000000E+00 0. -1.
         25    2    1    2    0    0 -0.15934955115E+02 -0.32627430692E+02  0.89571684714E+02  0.15808069530E+03  0.12509175630E+03 0.  0.
         23    2    1    2    0    0  0.15934955115E+02  0.32627430692E+02 -0.59213794066E+02  0.11434286965E+03  0.90827013624E+02 0.  0.
          5    1    3    3  502    0 -0.50409492193E+02 -0.44693299645E+02  0.72053609326E+01  0.67882233040E+02  0.41800000000E+01 0. -1.
         -5    1    3    3    0  502  0.34474537078E+02  0.12065868953E+02  0.82366323781E+02  0.90198462257E+02  0.41800000000E+01 0. -1.
        -11    1    4    4    0    0  0.31736901669E+02  0.54003124735E+02 -0.17776365795E+02  0.65111961954E+02  0.00000000000E+00 0.  1.
         11    1    4    4    0    0 -0.15801946554E+02 -0.21375694043E+02 -0.41437428272E+02  0.49230907695E+02  0.00000000000E+00 0. -1.
</event>
<event>
 8    1  0.7168478E-009  0.1041171E+03  0.7561462E-02  0.1271869E+00
         -2   -1    0    0    0  501 -0.00000000000E+00  0.00000000000E+00  0.56326189935E+02  0.56326189935E+02  0.00000000000E+00 0.  1.
          2   -1    0    0  501    0  0.00000000000E+00 -0.00000000000E+00 -0.29709181655E+03  0.29709181655E+03  0.00000000000E+00 0. -1.
         25    2    1    2    0    0 -0.31752074592E+02 -0.36776938657E+02 -0.65406904127E+02  0.14928729471E+03  0.12509154966E+03 0.  0.
         23    2    1    2    0    0  0.31752074592E+02  0.36776938657E+02 -0.17535872249E+03  0.20413071178E+03  0.92509072418E+02 0.  0.
          5    1    3    3  502    0  0.33955343653E+02 -0.95243558735E+01 -0.69357225104E+02  0.77920316937E+02  0.41800000000E+01 0.  1.
         -5    1    3    3    0  502 -0.65707418244E+02 -0.27252582784E+02  0.39503209767E+01  0.71366977774E+02  0.41800000000E+01 0.  1.
        -11    1    4    4    0    0  0.47659069762E+02  0.57918677033E+02 -0.14883733255E+03  0.16666886824E+03  0.00000000000E+00 0. -1.
         11    1    4    4    0    0 -0.15906995170E+02 -0.21141738376E+02 -0.26521389941E+02  0.37461843538E+02  0.00000000000E+00 0.  1.
</event>
<event>
 8    1  0.7168478E-009  0.4499825E+03  0.7561462E-02  0.1027727E+00
         -2   -1    0    0    0  501 -0.00000000000E+00  0.00000000000E+00  0.71289913209E+02  0.71289913209E+02  0.00000000000E+00 0.  1.
          2   -1    0    0  501    0  0.00000000000E+00 -0.00000000000E+00 -0.30550562159E+04  0.30550562159E+04  0.00000000000E+00 0. -1.
         25    2    1    2    0    0  0.36224807006E+03  0.25014751823E+03 -0.11371163789E+04  0.12257562242E+04  0.12508883533E+03 0.  0.
         23    2    1    2    0    0 -0.36224807006E+03 -0.25014751823E+03 -0.18466499237E+04  0.19005899049E+04  0.91261167491E+02 0.  0.
          5    1    3    3  502    0  0.25548308333E+02  0.58257565421E+02 -0.10002112583E+03  0.11861010918E+03  0.41800000000E+01 0.  1.
         -5    1    3    3    0  502  0.33669976173E+03  0.19188995281E+03 -0.10370952531E+04  0.11071461150E+04  0.41800000000E+01 0.  1.
        -11    1    4    4    0    0 -0.28249905106E+03 -0.14757288396E+03 -0.12546855558E+04  0.12945344004E+04  0.00000000000E+00 0.  1.
         11    1    4    4    0    0 -0.79749019005E+02 -0.10257463427E+03 -0.59196436792E+03  0.60605550448E+03  0.00000000000E+00 0. -1.
</event>
<event>
 8    1  0.7168478E-009  0.1339152E+03  0.7561462E-02  0.1221759E+00
         -1   -1    0    0    0  501 -0.00000000000E+00  0.00000000000E+00  0.40370930823E+02  0.40370930823E+02  0.00000000000E+00 0.  1.
          1   -1    0    0  501    0  0.00000000000E+00 -0.00000000000E+00 -0.95670389460E+03  0.95670389460E+03  0.00000000000E+00 0. -1.
         25    2    1    2    0    0 -0.99458757518E+02 -0.69486684114E+00 -0.82118993334E+03  0.83659604746E+03  0.12509001843E+03 0.  0.
         23    2    1    2    0    0  0.99458757518E+02  0.69486684114E+00 -0.95143030438E+02  0.16047877797E+03  0.82514935924E+02 0.  0.
          5    1    3    3  502    0 -0.11128690927E+03  0.23889413223E+02 -0.44326120463E+03  0.45766084404E+03  0.41800000000E+01 0.  1.
         -5    1    3    3    0  502  0.11828151756E+02 -0.24584280064E+02 -0.37792872872E+03  0.37893520342E+03  0.41800000000E+01 0.  1.
        -11    1    4    4    0    0  0.40055671923E+02 -0.38181420878E+02 -0.58721693887E+02  0.80687762928E+02  0.00000000000E+00 0. -1.
         11    1    4    4    0    0  0.59403085595E+02  0.38876287719E+02 -0.36421336551E+02  0.79791015040E+02  0.00000000000E+00 0.  1.
</event>
<event>
 8    1  0.7168478E-009  0.1043023E+03  0.7561462E-02  0.1271500E+00
         -1   -1    0    0    0  501 -0.00000000000E+00  0.00000000000E+00  0.64382920020E+02  0.64382920020E+02  0.00000000000E+00 0.  1.
          1   -1    0    0  501    0  0.00000000000E+00 -0.00000000000E+00 -0.19664100336E+03  0.19664100336E+03  0.00000000000E+00 0. -1.
         25    2    1    2    0    0 -0.28896154622E+02 -0.26775486257E+01 -0.70052321916E+02  0.14627783868E+03  0.12509085204E+03 0.  0.
         23    2    1    2    0    0  0.28896154622E+02  0.26775486257E+01 -0.62205761420E+02  0.11474608470E+03  0.91950803051E+02 0.  0.
          5    1    3    3  502    0 -0.69091076898E+02  0.29429436575E+02 -0.30121919533E+02  0.81021423589E+02  0.41800000000E+01 0. -1.
         -5    1    3    3    0  502  0.40194922276E+02 -0.32106985201E+02 -0.39930402383E+02  0.65256415086E+02  0.41800000000E+01 0. -1.
        -11    1    4    4    0    0 -0.18199067291E+02  0.23966849437E+02  0.44283871945E+01  0.30417536642E+02  0.00000000000E+00 0.  1.
         11    1    4    4    0    0  0.47095221914E+02 -0.21289300811E+02 -0.66634148614E+02  0.84328548058E+02  0.00000000000E+00 0. -1.
</event>
<event>
 8    1  0.7168478E-009  0.8705532E+02  0.7561462E-02  0.1310143E+00
          2   -1    0    0  501    0  0.00000000000E+00  0.00000000000E+00  0.22304212119E+03  0.22304212119E+03  0.00000000000E+00 0. -1.
         -2   -1    0    0    0  501 -0.00000000000E+00 -0.00000000000E+00 -0.54038241125E+02  0.54038241125E+02  0.00000000000E+00 0.  1.
         25    2    1    2    0    0  0.85687819343E+01  0.50688746246E+01  0.11047927790E+03  0.16718984066E+03  0.12509058503E+03 0.  0.
         23    2    1    2    0    0 -0.85687819343E+01 -0.50688746246E+01  0.58524602170E+02  0.10989052165E+03  0.92475294953E+02 0.  0.
          5    1    3    3  502    0  0.64712163559E+02 -0.13345262588E+02  0.56036963806E+02  0.86737384434E+02  0.41800000000E+01 0. -1.
         -5    1    3    3    0  502 -0.56143381624E+02  0.18414137213E+02  0.54442314090E+02  0.80452456227E+02  0.41800000000E+01 0. -1.
        -11    1    4    4    0    0 -0.28449904256E+02 -0.16473633670E+01 -0.16001242272E+02  0.32682573529E+02  0.00000000000E+00 0.  1.
         11    1    4    4    0    0  0.19881122322E+02 -0.34215112576E+01  0.74525844441E+02  0.77207948125E+02  0.00000000000E+00 0. -1.
</event>
<event>
 8    1  0.7168478E-009  0.1110215E+03  0.7561462E-02  0.1258690E+00
         -3   -1    0    0    0  501 -0.00000000000E+00  0.00000000000E+00  0.11442183291E+02  0.11442183291E+02  0.00000000000E+00 0.  1.
          3   -1    0    0  501    0  0.00000000000E+00 -0.00000000000E+00 -0.11636480077E+04  0.11636480077E+04  0.00000000000E+00 0. -1.
         25    2    1    2    0    0 -0.74609899185E+01  0.38343726308E+02 -0.69110593881E+03  0.70341995375E+03  0.12508519081E+03 0.  0.
         23    2    1    2    0    0  0.74609899185E+01 -0.38343726308E+02 -0.46109988561E+03  0.47167023725E+03  0.91289651547E+02 0.  0.
          5    1    3    3  502    0  0.33305391418E+02  0.67087024813E+02 -0.51141228400E+03  0.51688481756E+03  0.41800000000E+01 0. -1.
         -5    1    3    3    0  502 -0.40766381336E+02 -0.28743298505E+02 -0.17969365481E+03  0.18653513619E+03  0.41800000000E+01 0. -1.
        -11    1    4    4    0    0 -0.25144012277E+02  0.18653349167E+02 -0.10505086882E+03  0.10961685011E+03  0.00000000000E+00 0.  1.
         11    1    4    4    0    0  0.32605002196E+02 -0.56997075474E+02 -0.35604901679E+03  0.36205338714E+03  0.00000000000E+00 0. -1.
</event>
<event>
 8    1  0.7168478E-009  0.1079252E+03  0.7561462E-02  0.1264461E+00
          2   -1    0    0  501    0  0.00000000000E+00  0.00000000000E+00  0.58082637852E+03  0.58082637852E+03  0.00000000000E+00 0. -1.
         -2   -1    0    0    0  501 -0.00000000000E+00 -0.00000000000E+00 -0.29589936394E+02  0.29589936394E+02  0.00000000000E+00 0.  1.
         25    2    1    2    0    0 -0.43252158744E+02 -0.47514799132E+02  0.23049784298E+03  0.27001108138E+03  0.12509325751E+03 0.  0.
         23    2    1    2    0    0  0.43252158744E+02  0.47514799132E+02  0.32073859914E+03  0.34040523353E+03  0.94202275260E+02 0.  0.
          5    1    3    3  502    0  0.24429233879E+02 -0.14412264252E+02  0.17242691039E+03  0.17479420086E+03  0.41800000000E+01 0. -1.
         -5    1    3    3    0  502 -0.67681392623E+02 -0.33102534880E+02  0.58070932591E+02  0.95216880515E+02  0.41800000000E+01 0. -1.
        -11    1    4    4    0    0 -0.48899466314E+01  0.61417841443E+02  0.21010747908E+03  0.21895482546E+03  0.00000000000E+00 0.  1.
         11    1    4    4    0    0  0.48142105376E+02 -0.13903042311E+02  0.11063112006E+03  0.12145040807E+03  0.00000000000E+00 0. -1.
</event>
<event>
 8    1  0.7168478E-009  0.2189223E+03  0.7561462E-02  0.1134689E+00
          1   -1    0    0  501    0  0.00000000000E+00  0.00000000000E+00  0.10457556847E+04  0.10457556847E+04  0.00000000000E+00 0. -1.
         -1   -1    0    0    0  501 -0.00000000000E+00 -0.00000000000E+00 -0.55026714086E+02  0.55026714086E+02  0.00000000000E+00 0.  1.
         25    2    1    2    0    0  0.19911540756E+03  0.74598225272E+02  0.46725366547E+03  0.52837997799E+03  0.12509025744E+03 0.  0.
         23    2    1    2    0    0 -0.19911540756E+03 -0.74598225272E+02  0.52347530518E+03  0.57240242083E+03  0.91685852232E+02 0.  0.
          5    1    3    3  502    0  0.90730591499E+02  0.72272272624E+02  0.13084020281E+03  0.17490555364E+03  0.41800000000E+01 0.  1.
         -5    1    3    3    0  502  0.10838481606E+03  0.23259526474E+01  0.33641346267E+03  0.35347442435E+03  0.41800000000E+01 0.  1.
        -11    1    4    4    0    0 -0.12640042428E+03 -0.55846527275E+02  0.22020564832E+03  0.25997390142E+03  0.00000000000E+00 0.  1.
         11    1    4    4    0    0 -0.72714983278E+02 -0.18751697997E+02  0.30326965685E+03  0.31242851941E+03  0.00000000000E+00 0. -1.
</event>
<event>
 8    1  0.7168478E-009  0.1748169E+03  0.7561462E-02  0.1172916E+00
          1   -1    0    0  501    0  0.00000000000E+00  0.00000000000E+00  0.67685795899E+03  0.67685795899E+03  0.00000000000E+00 0. -1.
         -1   -1    0    0    0  501 -0.00000000000E+00 -0.00000000000E+00 -0.52603803496E+02  0.52603803496E+02  0.00000000000E+00 0.  1.
         25    2    1    2    0    0 -0.13717730420E+03  0.43625121831E+02  0.22358883730E+03  0.29387142169E+03  0.12509068822E+03 0.  0.
         23    2    1    2    0    0  0.13717730420E+03 -0.43625121831E+02  0.40066531820E+03  0.43559034080E+03  0.92116685495E+02 0.  0.
          5    1    3    3  502    0 -0.66844199845E+02 -0.41100449559E+02  0.11401901556E+03  0.13847455476E+03  0.41800000000E+01 0.  1.
         -5    1    3    3    0  502 -0.70333104359E+02  0.84725571389E+02  0.10956982174E+03  0.15539686693E+03  0.41800000000E+01 0.  1.
        -11    1    4    4    0    0  0.12789968858E+03 -0.12648454106E+02  0.24567282968E+03  0.27726062283E+03  0.00000000000E+00 0.  1.
         11    1    4    4    0    0  0.92776156285E+01 -0.30976667724E+02  0.15499248851E+03  0.15832971797E+03  0.00000000000E+00 0. -1.
</event>
<event>
 8    1  0.7168478E-009  0.1096202E+03  0.7561462E-02  0.1261275E+00
         -1   -1    0    0    0  501 -0.00000000000E+00  0.00000000000E+00  0.34157845042E+03  0.34157845042E+03  0.00000000000E+00 0.  1.
          1   -1    0    0  501    0  0.00000000000E+00 -0.00000000000E+00 -0.38953462806E+02  0.38953462806E+02  0.00000000000E+00 0. -1.
         25    2    1    2    0    0  0.77501288928E+01  0.50764616763E+01  0.11262845755E+03  0.16857678211E+03  0.12508847691E+03 0.  0.
         23    2    1    2    0    0 -0.77501288928E+01 -0.50764616763E+01  0.18999653007E+03  0.21195513112E+03  0.93490433785E+02 0.  0.
          5    1    3    3  502    0  0.15477051927E+02  0.63936827866E+02  0.59738470584E+02  0.88958497973E+02  0.41800000000E+01 0.  1.
         -5    1    3    3    0  502 -0.77269230345E+01 -0.58860366189E+02  0.52889986967E+02  0.79618284137E+02  0.41800000000E+01 0.  1.
        -11    1    4    4    0    0  0.41166040665E+02  0.10484849350E+02  0.80378577497E+02  0.90913644138E+02  0.00000000000E+00 0.  1.
         11    1    4    4    0    0 -0.48916169558E+02 -0.15561311027E+02  0.10961795257E+03  0.12104148698E+03  0.00000000000E+00 0. -1.
</event>
<event>
 8    1  0.7168478E-009  0.1088931E+03  0.7561462E-02  0.1262634E+00
          2   -1    0    0  501    0  0.00000000000E+00  0.00000000000E+00  0.15498442719E+03  0.15498442719E+03  0.00000000000E+00 0. -1.
         -2   -1    0    0    0  501 -0.00000000000E+00 -0.00000000000E+00 -0.12621119000E+03  0.12621119000E+03  0.00000000000E+00 0.  1.
         25    2    1    2    0    0 -0.59256794024E+02  0.45620330057E+02 -0.29175888682E+02  0.14863102586E+03  0.12508943687E+03 0.  0.
         23    2    1    2    0    0  0.59256794024E+02 -0.45620330057E+02  0.57949125870E+02  0.13256459133E+03  0.92858427369E+02 0.  0.
          5    1    3    3  502    0 -0.48435638010E+02 -0.98713383195E+01 -0.64850814026E+02  0.81648973230E+02  0.41800000000E+01 0.  1.
         -5    1    3    3    0  502 -0.10821156013E+02  0.55491668376E+02  0.35674925344E+02  0.66982052633E+02  0.41800000000E+01 0.  1.
        -11    1    4    4    0    0 -0.86650999341E+01  0.17014587844E+02 -0.62111185555E+01  0.20078798522E+02  0.00000000000E+00 0.  1.
         11    1    4    4    0    0  0.67921893958E+02 -0.62634917901E+02  0.64160244426E+02  0.11248579281E+03  0.00000000000E+00 0. -1.
</event>
<event>
 8    1  0.7168478E-009  0.5105958E+02  0.7561462E-02  0.1439709E+00
         -3   -1    0    0    0  501 -0.00000000000E+00  0.00000000000E+00  0.17393661168E+03  0.17393661168E+03  0.00000000000E+00 0.  1.
          3   -1    0    0  501    0  0.00000000000E+00 -0.00000000000E+00 -0.11682924730E+03  0.11682924730E+03  0.00000000000E+00 0. -1.
         25    2    1    2    0    0  0.23821398184E+02 -0.13269585349E+01 -0.60665277046E+02  0.14105492146E+03  0.12508794985E+03 0.  0.
         23    2    1    2    0    0 -0.23821398184E+02  0.13269585349E+01  0.11777264143E+03  0.14971093752E+03  0.89295856088E+02 0.  0.
          5    1    3    3  502    0 -0.29760936205E+01 -0.87514886091E+01  0.37548592234E+02  0.38894920811E+02  0.41800000000E+01 0.  1.
         -5    1    3    3    0  502  0.26797491805E+02  0.74245300743E+01 -0.98213869280E+02  0.10216000065E+03  0.41800000000E+01 0.  1.
        -11    1    4    4    0    0  0.19534649047E+02  0.55117986466E+01  0.10102628828E+03  0.10304510353E+03  0.00000000000E+00 0.  1.
         11    1    4    4    0    0 -0.43356047231E+02 -0.41848401117E+01  0.16746353144E+02  0.46665833989E+02  0.00000000000E+00 0. -1.
</event>
<event>
 8    1  0.7168478E-009  0.8391523E+02  0.7561462E-02  0.1318294E+00
         -3   -1    0    0    0  501 -0.00000000000E+00  0.00000000000E+00  0.49554172280E+02  0.49554172280E+02  0.00000000000E+00 0.  1.
          3   -1    0    0  501    0  0.00000000000E+00 -0.00000000000E+00 -0.28377248635E+03  0.28377248635E+03  0.00000000000E+00 0. -1.
         25    2    1    2    0    0 -0.28626824281E+02  0.25674472197E+02 -0.18086525035E+03  0.22324595234E+03  0.12509133807E+03 0.  0.
         23    2    1    2    0    0  0.28626824281E+02 -0.25674472197E+02 -0.53353063719E+02  0.11008070629E+03  0.88275358383E+02 0.  0.
          5    1    3    3  502    0 -0.57676447084E+02  0.34569757974E+02 -0.18040544056E+03  0.19257527385E+03  0.41800000000E+01 0.  1.
         -5    1    3    3    0  502  0.29049622803E+02 -0.88952857767E+01 -0.45980979028E+00  0.30670678491E+02  0.41800000000E+01 0.  1.
        -11    1    4    4    0    0  0.30042962141E+02  0.11808676696E+02 -0.63490160946E+02  0.71225170807E+02  0.00000000000E+00 0. -1.
         11    1    4    4    0    0 -0.14161378600E+01 -0.37483148893E+02  0.10137097227E+02  0.38855535482E+02  0.00000000000E+00 0.  1.
</event>
<event>
 8    1  0.7168478E-009  0.1417479E+03  0.7561462E-02  0.1210996E+00
         -2   -1    0    0    0  501 -0.00000000000E+00  0.00000000000E+00  0.30711010984E+02  0.30711010984E+02  0.00000000000E+00 0.  1.
          2   -1    0    0  501    0  0.00000000000E+00 -0.00000000000E+00 -0.81058247901E+03  0.81058247901E+03  0.00000000000E+00 0. -1.
         25    2    1    2    0    0  0.95361909711E+02  0.62948080293E+02 -0.44262748405E+03  0.47394449353E+03  0.12509172107E+03 0.  0.
         23    2    1    2    0    0 -0.95361909711E+02 -0.62948080293E+02 -0.33724398398E+03  0.36734899646E+03  0.90307396341E+02 0.  0.
          5    1    3    3  502    0  0.62176913058E+02  0.86151212690E+02 -0.40424731588E+03  0.41799684779E+03  0.41800000000E+01 0.  1.
         -5    1    3    3    0  502  0.33184996653E+02 -0.23203132397E+02 -0.38380168169E+02  0.55947645746E+02  0.41800000000E+01 0.  1.
        -11    1    4    4    0    0 -0.43749176232E+02  0.12087689417E+02 -0.18000818471E+03  0.18564226140E+03  0.00000000000E+00 0. -1.
         11    1    4    4    0    0 -0.51612733479E+02 -0.75035769711E+02 -0.15723579927E+03  0.18170673506E+03  0.00000000000E+00 0.  1.
</event>
<event>
 8    1  0.7168478E-009  0.1173724E+03  0.7561462E-02  0.1247496E+00
         -2   -1    0    0    0  501 -0.00000000000E+00  0.00000000000E+00  0.12529095577E+02  0.12529095577E+02  0.00000000000E+00 0.  1.
          2   -1    0    0  501    0  0.00000000000E+00 -0.00000000000E+00 -0.17653655299E+04  0.17653655299E+04  0.00000000000E+00 0. -1.
         25    2    1    2    0    0  0.19980812999E+02 -0.65128893418E+02 -0.13958972846E+04  0.14031458018E+04  0.12509159124E+03 0.  0.
         23    2    1    2    0    0 -0.19980812999E+02  0.65128893418E+02 -0.35693914968E+03  0.37474882367E+03  0.91597590711E+02 0.  0.
          5    1    3    3  502    0 -0.49788515897E+02 -0.36335899307E+02 -0.81726011185E+03  0.81959182323E+03  0.41800000000E+01 0.  1.
         -5    1    3    3    0  502  0.69769328896E+02 -0.28792994111E+02 -0.57863717276E+03  0.58355397854E+03  0.41800000000E+01 0.  1.
        -11    1    4    4    0    0 -0.15027996242E+02 -0.12523833212E+02 -0.16686065395E+02  0.25712095359E+02  0.00000000000E+00 0.  1.
         11    1    4    4    0    0 -0.49528167576E+01  0.77652726630E+02 -0.34025308428E+03  0.34903672831E+03  0.00000000000E+00 0. -1.
</event>
<event>
 8    1  0.7168478E-009  0.8134976E+02  0.7561462E-02  0.1325264E+00
          1   -1    0    0  501    0  0.00000000000E+00  0.00000000000E+00  0.18212234960E+03  0.18212234960E+03  0.00000000000E+00 0. -1.
         -1   -1    0    0    0  501 -0.00000000000E+00 -0.00000000000E+00 -0.65432705288E+02  0.65432705288E+02  0.00000000000E+00 0.  1.
         25    2    1    2    0    0  0.88146594468E+01 -0.57293292254E+01  0.81947944369E+02  0.14990958571E+03  0.12508754881E+03 0.  0.
         23    2    1    2    0    0 -0.88146594468E+01  0.57293292254E+01  0.34741699945E+02  0.97645469178E+02  0.90648378371E+02 0.  0.
          5    1    3    3  502    0  0.46922086490E+02  0.27295563422E+02  0.10065045914E+01  0.54453791737E+02  0.41800000000E+01 0.  1.
         -5    1    3    3    0  502 -0.38107427043E+02 -0.33024892647E+02  0.80941439778E+02  0.95455793976E+02  0.41800000000E+01 0.  1.
        -11    1    4    4    0    0 -0.11091012911E+02  0.30668749133E+02 -0.19432337605E+02  0.37963120071E+02  0.00000000000E+00 0.  1.
         11    1    4    4    0    0  0.22763534640E+01 -0.24939419907E+02  0.54174037550E+02  0.59682349107E+02  0.00000000000E+00 0. -1.
</event>
<event>
 8    1  0.7168478E-009  0.8349193E+02  0.7561462E-02  0.1319424E+00
          3   -1    0    0  501    0  0.00000000000E+00  0.00000000000E+00  0.81999424053E+03  0.81999424053E+03  0.00000000000E+00 0. -1.
         -3   -1    0    0    0  501 -0.00000000000E+00 -0.00000000000E+00 -0.24432782900E+02  0.24432782900E+02  0.00000000000E+00 0.  1.
         25    2    1    2    0    0 -0.40065201346E+02  0.57463991342E+02  0.58843675121E+03  0.60565092815E+03  0.12509159017E+03 0.  0.
         23    2    1    2    0    0  0.40065201346E+02 -0.57463991342E+02  0.20712470642E+03  0.23877609529E+03  0.95948157928E+02 0.  0.
          5    1    3    3  502    0 -0.51217935289E+02  0.30683899281E+02  0.56489751602E+03  0.56805937592E+03  0.41800000000E+01 0. -1.
         -5    1    3    3    0  502  0.11152733942E+02  0.26780092060E+02  0.23539235190E+02  0.37591552222E+02  0.41800000000E+01 0. -1.
        -11    1    4    4    0    0  0.35226004773E+02 -0.20940762938E+02  0.19607587765E+03  0.20031259761E+03  0.00000000000E+00 0. -1.
         11    1    4    4    0    0  0.48391965731E+01 -0.36523228403E+02  0.11048828776E+02  0.38463497680E+02  0.00000000000E+00 0.  1.
</event>
<event>
 8    1  0.7168478E-009  0.1084003E+03  0.7561462E-02  0.1263561E+00
         -1   -1    0    0    0  501 -0.00000000000E+00  0.00000000000E+00  0.60638514001E+02  0.60638514001E+02  0.00000000000E+00 0. -1.
          1   -1    0    0  501    0  0.00000000000E+00 -0.00000000000E+00 -0.26472289363E+03  0.26472289363E+03  0.00000000000E+00 0.  1.
         25    2    1    2    0    0  0.20035231337E+02  0.58981843177E+02 -0.12570733266E+03  0.18796420540E+03  0.12509172917E+03 0.  0.
         23    2    1    2    0    0 -0.20035231337E+02 -0.58981843177E+02 -0.78377046967E+02  0.13739720224E+03  0.94099741614E+02 0.  0.
          5    1    3    3  502    0  0.47945103812E+02  0.83076999628E+02 -0.62160906155E+02  0.11437644644E+03  0.41800000000E+01 0.  1.
         -5    1    3    3    0  502 -0.27909872475E+02 -0.24095156452E+02 -0.63546426509E+02  0.73587758955E+02  0.41800000000E+01 0.  1.
        -11    1    4    4    0    0 -0.22654541057E+02  0.19091666793E+01 -0.72716386342E+02  0.76187571103E+02  0.00000000000E+00 0.  1.
         11    1    4    4    0    0  0.26193097204E+01 -0.60891009856E+02 -0.56606606246E+01  0.61209631133E+02  0.00000000000E+00 0. -1.
</event>
<event>
 8    1  0.7168478E-009  0.9828510E+02  0.7561462E-02  0.1283944E+00
         -2   -1    0    0    0  501 -0.00000000000E+00  0.00000000000E+00  0.10171310565E+03  0.10171310565E+03  0.00000000000E+00 0.  1.
          2   -1    0    0  501    0  0.00000000000E+00 -0.00000000000E+00 -0.17883171549E+03  0.17883171549E+03  0.00000000000E+00 0. -1.
         25    2    1    2    0    0  0.76822370744E+02 -0.15275400206E+02 -0.55296087384E+02  0.15760962963E+03  0.12509246010E+03 0.  0.
         23    2    1    2    0    0 -0.76822370744E+02  0.15275400206E+02 -0.21822522456E+02  0.12293519151E+03  0.92205337846E+02 0.  0.
          5    1    3    3  502    0  0.40918786261E+02 -0.48687597406E+02 -0.80202639784E+02  0.10244396048E+03  0.41800000000E+01 0. -1.
         -5    1    3    3    0  502  0.35903584484E+02  0.33412197201E+02  0.24906552401E+02  0.55165669153E+02  0.41800000000E+01 0. -1.
        -11    1    4    4    0    0 -0.46527183309E+02  0.23631350018E+02 -0.55972686797E+02  0.76525558852E+02  0.00000000000E+00 0. -1.
         11    1    4    4    0    0 -0.30295187435E+02 -0.83559498124E+01  0.34150164341E+02  0.46409632659E+02  0.00000000000E+00 0.  1.
</event>
<event>
 8    1  0.7168478E-009  0.9019189E+02  0.7561462E-02  0.1302388E+00
         -2   -1    0    0    0  501 -0.00000000000E+00  0.00000000000E+00  0.60614493335E+02  0.60614493335E+02  0.00000000000E+00 0. -1.
          2   -1    0    0  501    0  0.00000000000E+00 -0.00000000000E+00 -0.21757304761E+03  0.21757304761E+03  0.00000000000E+00 0.  1.
         25    2    1    2    0    0 -0.24328292664E+02  0.30186661659E+02 -0.11000744270E+03  0.17102897891E+03  0.12508466657E+03 0.  0.
         23    2    1    2    0    0  0.24328292664E+02 -0.30186661659E+02 -0.46951111571E+02  0.10715856203E+03  0.88178513106E+02 0.  0.
          5    1    3    3  502    0  0.40462646708E+02  0.45645709704E+01 -0.89282440976E+02  0.98218571326E+02  0.41800000000E+01 0. -1.
         -5    1    3    3    0  502 -0.64790939372E+02  0.25622090688E+02 -0.20725001728E+02  0.72810407584E+02  0.41800000000E+01 0. -1.
        -11    1    4    4    0    0  0.32767269705E+02 -0.43151531086E+02 -0.64187233165E+02  0.83998508917E+02  0.00000000000E+00 0.  1.
         11    1    4    4    0    0 -0.84389770409E+01  0.12964869428E+02  0.17236121594E+02  0.23160053117E+02  0.00000000000E+00 0. -1.
</event>
<event>
 8    1  0.7168478E-009  0.7144558E+02  0.7561462E-02  0.1355245E+00
         -2   -1    0    0    0  501 -0.00000000000E+00  0.00000000000E+00  0.27114848665E+02  0.27114848665E+02  0.00000000000E+00 0. -1.
          2   -1    0    0  501    0  0.00000000000E+00 -0.00000000000E+00 -0.49063596516E+03  0.49063596516E+03  0.00000000000E+00 0.  1.
         25    2    1    2    0    0  0.15971237745E+02  0.13154505981E+02 -0.33445702555E+03  0.35768304240E+03  0.12509010920E+03 0.  0.
         23    2    1    2    0    0 -0.15971237745E+02 -0.13154505981E+02 -0.12906409095E+03  0.16006777142E+03  0.92390640296E+02 0.  0.
          5    1    3    3  502    0 -0.15615478509E+02  0.18742443654E+02 -0.32210823853E+03  0.32305775350E+03  0.41800000000E+01 0.  1.
         -5    1    3    3    0  502  0.31586716254E+02 -0.55879376726E+01 -0.12348787019E+02  0.34625288908E+02  0.41800000000E+01 0.  1.
        -11    1    4    4    0    0  0.19090656376E+02 -0.38199301778E+02 -0.30441751267E+02  0.52443684438E+02  0.00000000000E+00 0. -1.
         11    1    4    4    0    0 -0.35061894121E+02  0.25044795797E+02 -0.98622339678E+02  0.10762408699E+03  0.00000000000E+00 0.  1.
</event>
<event>
 8    1  0.7168478E-009  0.1227857E+03  0.7561462E-02  0.1238571E+00
         -2   -1    0    0    0  501 -0.00000000000E+00  0.00000000000E+00  0.38610717120E+02  0.38610717120E+02  0.00000000000E+00 0.  1.
          2   -1    0    0  501    0  0.00000000000E+00 -0.00000000000E+00 -0.43196310313E+03  0.43196310313E+03  0.00000000000E+00 0. -1.
         25    2    1    2    0    0  0.68567709814E+02  0.24719589643E+01 -0.25241569785E+03  0.28994699181E+03  0.12509169490E+03 0.  0.
         23    2    1    2    0    0 -0.68567709814E+02 -0.24719589643E+01 -0.14093668817E+03  0.18062682844E+03  0.89751098435E+02 0.  0.
          5    1    3    3  502    0  0.10134791133E+03  0.11942543328E+02 -0.14646778345E+03  0.17856177491E+03  0.41800000000E+01 0.  1.
         -5    1    3    3    0  502 -0.32780201512E+02 -0.94705843638E+01 -0.10594791440E+03  0.11138521690E+03  0.41800000000E+01 0.  1.
        -11    1    4    4    0    0 -0.86538194554E+02 -0.14067190020E+02 -0.91304816860E+02  0.12658323164E+03  0.00000000000E+00 0.  1.
         11    1    4    4    0    0  0.17970484740E+02  0.11595231056E+02 -0.49631871310E+02  0.54043596797E+02  0.00000000000E+00 0. -1.
</event>
<event>
 8    1  0.7168478E-009  0.1658458E+03  0.7561462E-02  0.1182251E+00
         -2   -1    0    0    0  501 -0.00000000000E+00  0.00000000000E+00  0.27646411042E+02  0.27646411042E+02  0.00000000000E+00 0.  1.
          2   -1    0    0  501    0  0.00000000000E+00 -0.00000000000E+00 -0.10249759870E+04  0.10249759870E+04  0.00000000000E+00 0. -1.
         25    2    1    2    0    0  0.12864344645E+03  0.17131910858E+02 -0.52340509368E+03  0.55357340362E+03  0.12509189592E+03 0.  0.
         23    2    1    2    0    0 -0.12864344645E+03 -0.17131910858E+02 -0.47392448227E+03  0.49904899441E+03  0.87194295947E+02 0.  0.
          5    1    3    3  502    0  0.15144879154E+03  0.24710384039E+02 -0.47780833464E+03  0.50186214899E+03  0.41800000000E+01 0.  1.
         -5    1    3    3    0  502 -0.22805345092E+02 -0.75784731818E+01 -0.45596759034E+02  0.51711254625E+02  0.41800000000E+01 0.  1.
        -11    1    4    4    0    0 -0.33674414591E+02  0.32357241267E+02 -0.10545876790E+03  0.11533650327E+03  0.00000000000E+00 0.  1.
         11    1    4    4    0    0 -0.94969031855E+02 -0.49489152124E+02 -0.36846571437E+03  0.38371249114E+03  0.00000000000E+00 0. -1.
</event>
<event>
 8    1  0.7168478E-009  0.1020823E+03  0.7561462E-02  0.1275977E+00
          4   -1    0    0  501    0  0.00000000000E+00  0.00000000000E+00  0.15561006171E+02  0.15561006171E+02  0.00000000000E+00 0.  1.
         -4   -1    0    0    0  501 -0.00000000000E+00 -0.00000000000E+00 -0.14029035257E+04  0.14029035257E+04  0.00000000000E+00 0. -1.
         25    2    1    2    0    0 -0.19857166970E+01 -0.59794300602E+02 -0.11377628800E+04  0.11461808268E+04  0.12508723021E+03 0.  0.
         23    2    1    2    0    0  0.19857166970E+01  0.59794300602E+02 -0.24957963953E+03  0.27228370507E+03  0.90934691534E+02 0.  0.
          5    1    3    3  502    0  0.48763347626E+02 -0.70997766019E+02 -0.74419705059E+03  0.74917639402E+03  0.41800000000E+01 0.  1.
         -5    1    3    3    0  502 -0.50749064323E+02  0.11203465416E+02 -0.39356582938E+03  0.39700443275E+03  0.41800000000E+01 0.  1.
        -11    1    4    4    0    0 -0.11190230869E+02  0.43082988430E+02 -0.24684689293E+03  0.25082813580E+03  0.00000000000E+00 0. -1.
         11    1    4    4    0    0  0.13175947566E+02  0.16711312172E+02 -0.27327465971E+01  0.21455569271E+02  0.00000000000E+00 0.  1.
</event>
<event>
 8    1  0.7168478E-009  0.9190955E+02  0.7561462E-02  0.1298292E+00
         -2   -1    0    0    0  501 -0.00000000000E+00  0.00000000000E+00  0.22449905351E+02  0.22449905351E+02  0.00000000000E+00 0.  1.
          2   -1    0    0  501    0  0.00000000000E+00 -0.00000000000E+00 -0.66975053103E+03  0.66975053103E+03  0.00000000000E+00 0. -1.
         25    2    1    2    0    0  0.51392263000E+02 -0.16842681101E+02 -0.30770059493E+03  0.33652960139E+03  0.12509067065E+03 0.  0.
         23    2    1    2    0    0 -0.51392263000E+02  0.16842681101E+02 -0.33960003075E+03  0.35567083500E+03  0.90822471773E+02 0.  0.
          5    1    3    3  502    0  0.88485749769E+01 -0.31707083311E+02 -0.89480212249E+01  0.34368239627E+02  0.41800000000E+01 0. -1.
         -5    1    3    3    0  502  0.42543688023E+02  0.14864402210E+02 -0.29875257371E+03  0.30216136176E+03  0.41800000000E+01 0. -1.
        -11    1    4    4    0    0 -0.38630276017E+02  0.53826072064E+02 -0.19971496611E+03  0.21041770826E+03  0.00000000000E+00 0. -1.
         11    1    4    4    0    0 -0.12761986984E+02 -0.36983390963E+02 -0.13988506464E+03  0.14525312674E+03  0.00000000000E+00 0.  1.
</event>
<event>
 8    1  0.7168478E-009  0.1814455E+03  0.7561462E-02  0.1166411E+00
          2   -1    0    0  501    0  0.00000000000E+00  0.00000000000E+00  0.11392857799E+04  0.11392857799E+04  0.00000000000E+00 0. -1.
         -2   -1    0    0    0  501 -0.00000000000E+00 -0.00000000000E+00 -0.40704094804E+02  0.40704094804E+02  0.00000000000E+00 0.  1.
         25    2    1    2    0    0 -0.11061403920E+03  0.11090977596E+03  0.29851275620E+03  0.35957566923E+03  0.12509337402E+03 0.  0.
         23    2    1    2    0    0  0.11061403920E+03 -0.11090977596E+03  0.80006892887E+03  0.82041420544E+03  0.91829915989E+02 0.  0.
          5    1    3    3  502    0 -0.13089073605E+02  0.77844333123E+02  0.58405839062E+02  0.98284172091E+02  0.41800000000E+01 0. -1.
         -5    1    3    3    0  502 -0.97524965592E+02  0.33065442840E+02  0.24010691713E+03  0.26129149714E+03  0.41800000000E+01 0. -1.
        -11    1    4    4    0    0  0.37404608800E+02  0.10638216010E+02  0.14254476224E+03  0.14775413917E+03  0.00000000000E+00 0.  1.
         11    1    4    4    0    0  0.73209430396E+02 -0.12154799197E+03  0.65752416663E+03  0.67266006627E+03  0.00000000000E+00 0. -1.
</event>
<event>
 8    1  0.7168478E-009  0.1357821E+03  0.7561462E-02  0.1219120E+00
          3   -1    0    0  501    0  0.00000000000E+00  0.00000000000E+00  0.34615019447E+03  0.34615019447E+03  0.00000000000E+00 0. -1.
         -3   -1    0    0    0  501 -0.00000000000E+00 -0.00000000000E+00 -0.56778201365E+02  0.56778201365E+02  0.00000000000E+00 0.  1.
         25    2    1    2    0    0  0.69424732429E+02 -0.45609555235E+02  0.11483248253E+03  0.18903723397E+03  0.12509417166E+03 0.  0.
         23    2    1    2    0    0 -0.69424732429E+02  0.45609555235E+02  0.17453951058E+03  0.21389116187E+03  0.91571629720E+02 0.  0.
          5    1    3    3  502    0 -0.32022773799E+02  0.89154534091E+01  0.37299607188E+02  0.50136577941E+02  0.41800000000E+01 0.  1.
         -5    1    3    3    0  502  0.10144750623E+03 -0.54525008644E+02  0.77532875339E+02  0.13890065603E+03  0.41800000000E+01 0.  1.
        -11    1    4    4    0    0 -0.60809289483E+02  0.72471744507E+02  0.12345082808E+03  0.15553144503E+03  0.00000000000E+00 0.  1.
         11    1    4    4    0    0 -0.86154429456E+01 -0.26862189272E+02  0.51088682505E+02  0.58359716841E+02  0.00000000000E+00 0. -1.
</event>
<event>
 8    1  0.7168478E-009  0.9767213E+02  0.7561462E-02  0.1285269E+00
          2   -1    0    0  501    0  0.00000000000E+00  0.00000000000E+00  0.45394934637E+02  0.45394934637E+02  0.00000000000E+00 0. -1.
         -2   -1    0    0    0  501 -0.00000000000E+00 -0.00000000000E+00 -0.31816847288E+03  0.31816847288E+03  0.00000000000E+00 0.  1.
         25    2    1    2    0    0  0.70911934437E+01 -0.23157103802E+02 -0.21506659762E+03  0.24997316177E+03  0.12508558556E+03 0.  0.
         23    2    1    2    0    0 -0.70911934437E+01  0.23157103802E+02 -0.57706940623E+02  0.11359024574E+03  0.94795128835E+02 0.  0.
          5    1    3    3  502    0 -0.53860113065E+02 -0.26464222627E+02 -0.14482046565E+03  0.15681743057E+03  0.41800000000E+01 0. -1.
         -5    1    3    3    0  502  0.60951306509E+02  0.33071188253E+01 -0.70246131968E+02  0.93155731206E+02  0.41800000000E+01 0. -1.
        -11    1    4    4    0    0 -0.64281663682E+01  0.48363729496E+02  0.19450477621E+01  0.48827808311E+02  0.00000000000E+00 0. -1.
         11    1    4    4    0    0 -0.66302707545E+00 -0.25206625695E+02 -0.59651988385E+02  0.64762437431E+02  0.00000000000E+00 0.  1.
</event>
<event>
 8    1  0.7168478E-009  0.1382065E+03  0.7561462E-02  0.1215763E+00
          1   -1    0    0  501    0  0.00000000000E+00  0.00000000000E+00  0.50043171015E+03  0.50043171015E+03  0.00000000000E+00 0. -1.
         -1   -1    0    0    0  501 -0.00000000000E+00 -0.00000000000E+00 -0.43822566272E+02  0.43822566272E+02  0.00000000000E+00 0.  1.
         25    2    1    2    0    0  0.93478392599E+02 -0.25678602318E+02  0.20296456916E+03  0.25737076944E+03  0.12508995215E+03 0.  0.
         23    2    1    2    0    0 -0.93478392599E+02  0.25678602318E+02  0.25364457472E+03  0.28688350698E+03  0.92568762522E+02 0.  0.
          5    1    3    3  502    0 -0.63459595452E+01  0.38571678565E+02  0.45631976465E+02  0.60231181841E+02  0.41800000000E+01 0. -1.
         -5    1    3    3    0  502  0.99824352144E+02 -0.64250280883E+02  0.15733259270E+03  0.19713958760E+03  0.41800000000E+01 0. -1.
        -11    1    4    4    0    0  0.48146759666E+01  0.19212863123E+02  0.65242011678E+01  0.20853786585E+02  0.00000000000E+00 0.  1.
         11    1    4    4    0    0 -0.98293068566E+02  0.64657391948E+01  0.24712037355E+03  0.26602972040E+03  0.00000000000E+00 0. -1.
</event>
<event>
 8    1  0.7168478E-009  0.1033416E+03  0.7561462E-02  0.1273422E+00
         -1   -1    0    0    0  501 -0.00000000000E+00  0.00000000000E+00  0.27652808713E+02  0.27652808713E+02  0.00000000000E+00 0.  1.
          1   -1    0    0  501    0  0.00000000000E+00 -0.00000000000E+00 -0.51696227961E+03  0.51696227961E+03  0.00000000000E+00 0. -1.
         25    2    1    2    0    0  0.34366483291E+02 -0.39114236409E+02 -0.28557643635E+03  0.31608882884E+03  0.12508904051E+03 0.  0.
         23    2    1    2    0    0 -0.34366483291E+02  0.39114236409E+02 -0.20373303456E+03  0.22852625949E+03  0.89476942525E+02 0.  0.
          5    1    3    3  502    0  0.13068852192E+02 -0.74811648254E+02 -0.98737311103E+02  0.12463589618E+03  0.41800000000E+01 0. -1.
         -5    1    3    3    0  502  0.21297631099E+02  0.35697411845E+02 -0.18683912524E+03  0.19145293266E+03  0.41800000000E+01 0. -1.
        -11    1    4    4    0    0 -0.40276560971E+02  0.57121849387E+02 -0.19594229343E+03  0.20803482736E+03  0.00000000000E+00 0. -1.
         11    1    4    4    0    0  0.59100776801E+01 -0.18007612978E+02 -0.77907411257E+01  0.20491432128E+02  0.00000000000E+00 0.  1.
</event>
<event>
 8    1  0.7168478E-009  0.1355925E+03  0.7561462E-02  0.1219386E+00
          1   -1    0    0  501    0  0.00000000000E+00  0.00000000000E+00  0.19677635200E+03  0.19677635200E+03  0.00000000000E+00 0. -1.
         -1   -1    0    0    0  501 -0.00000000000E+00 -0.00000000000E+00 -0.10214005143E+03  0.10214005143E+03  0.00000000000E+00 0.  1.
         25    2    1    2    0    0  0.33945839544E+02 -0.81456818967E+02  0.79585988170E+02  0.17253823155E+03  0.12509188005E+03 0.  0.
         23    2    1    2    0    0 -0.33945839544E+02  0.81456818967E+02  0.15050312393E+02  0.12637817189E+03  0.89204243440E+02 0.  0.
          5    1    3    3  502    0  0.63222897009E+02 -0.17191339484E+01  0.55237974173E+02  0.84076134060E+02  0.41800000000E+01 0. -1.
         -5    1    3    3    0  502 -0.29277057465E+02 -0.79737685019E+02  0.24348013998E+02  0.88462097486E+02  0.41800000000E+01 0. -1.
        -11    1    4    4    0    0 -0.60190999805E+02  0.74163978248E+02  0.22516714768E+02  0.98133860472E+02  0.00000000000E+00 0.  1.
         11    1    4    4    0    0  0.26245160261E+02  0.72928407198E+01 -0.74664023746E+01  0.28244311415E+02  0.00000000000E+00 0. -1.
</event>
<event>
 8    1  0.7168478E-009  0.1278896E+03  0.7561462E-02  0.1230621E+00
          2   -1    0    0  501    0  0.00000000000E+00  0.00000000000E+00  0.15269619008E+03  0.15269619008E+03  0.00000000000E+00 0. -1.
         -2   -1    0    0    0  501 -0.00000000000E+00 -0.00000000000E+00 -0.13704693605E+03  0.13704693605E+03  0.00000000000E+00 0.  1.
         25    2    1    2    0    0 -0.47444668706E+02 -0.76344262351E+02  0.45595568315E+02  0.16064318341E+03  0.12509130083E+03 0.  0.
         23    2    1    2    0    0  0.47444668706E+02  0.76344262351E+02 -0.29946314280E+02  0.12909994272E+03  0.87695897786E+02 0.  0.
          5    1    3    3  502    0 -0.76457117115E+02 -0.83664590701E+02  0.98524523971E+01  0.11384198572E+03  0.41800000000E+01 0. -1.
         -5    1    3    3    0  502  0.29012448409E+02  0.73203283499E+01  0.35743115918E+02  0.46801197691E+02  0.41800000000E+01 0. -1.
        -11    1    4    4    0    0 -0.92190410271E+01  0.47845136928E+02 -0.42248509600E+02  0.64490963774E+02  0.00000000000E+00 0. -1.
         11    1    4    4    0    0  0.56663709733E+02  0.28499125423E+02  0.12302195320E+02  0.64608978944E+02  0.00000000000E+00 0.  1.
</event>
<event>
 8    1  0.7168478E-009  0.1209649E+03  0.7561462E-02  0.1241514E+00
          1   -1    0    0  501    0  0.00000000000E+00  0.00000000000E+00  0.25301389832E+02  0.25301389832E+02  0.00000000000E+00 0. -1.
         -1   -1    0    0    0  501 -0.00000000000E+00 -0.00000000000E+00 -0.11199876492E+04  0.11199876492E+04  0.00000000000E+00 0.  1.
         25    2    1    2    0    0 -0.53209471604E+02  0.76405914554E+02 -0.88078981710E+03  0.89448718066E+03  0.12508997890E+03 0.  0.
         23    2    1    2    0    0  0.53209471604E+02 -0.76405914554E+02 -0.21389644226E+03  0.25080185835E+03  0.92091109760E+02 0.  0.
          5    1    3    3  502    0  0.30252252278E+02  0.51881615994E+02 -0.22402639322E+03  0.23197456349E+03  0.41800000000E+01 0. -1.
         -5    1    3    3    0  502 -0.83461723882E+02  0.24524298559E+02 -0.65676342388E+03  0.66251261718E+03  0.41800000000E+01 0. -1.
        -11    1    4    4    0    0  0.17568279231E+02 -0.40002380351E+02 -0.18921188856E+03  0.19419056012E+03  0.00000000000E+00 0.  1.
         11    1    4    4    0    0  0.35641192373E+02 -0.36403534203E+02 -0.24684553698E+02  0.56611298232E+02  0.00000000000E+00 0. -1.
</event>
<event>
 8    1  0.7168478E-009  0.1343179E+03  0.7561462E-02  0.1221186E+00
         -1   -1    0    0    0  501 -0.00000000000E+00  0.00000000000E+00  0.73277415320E+02  0.73277415320E+02  0.00000000000E+00 0.  1.
          1   -1    0    0  501    0  0.00000000000E+00 -0.00000000000E+00 -0.27899301814E+03  0.27899301814E+03  0.00000000000E+00 0. -1.
         25    2    1    2    0    0  0.35703135926E+02  0.74745101610E+02 -0.15733041749E+03  0.21739299960E+03  0.12508122113E+03 0.  0.
         23    2    1    2    0    0 -0.35703135926E+02 -0.74745101610E+02 -0.48385185335E+02  0.13487743386E+03  0.94811665294E+02 0.  0.
          5    1    3    3  502    0  0.27967853645E+02 -0.31792284699E+02 -0.53634412133E+02  0.68462199561E+02  0.41800000000E+01 0. -1.
         -5    1    3    3    0  502  0.77352822810E+01  0.10653738631E+03 -0.10369600535E+03  0.14893080004E+03  0.41800000000E+01 0. -1.
        -11    1    4    4    0    0  0.27537763764E+02 -0.11798564273E+02 -0.32579496264E+02  0.44260118942E+02  0.00000000000E+00 0. -1.
         11    1    4    4    0    0 -0.63240899690E+02 -0.62946537337E+02 -0.15805689071E+02  0.90617314920E+02  0.00000000000E+00 0.  1.
</event>
<event>
 8    1  0.7168478E-009  0.1279998E+03  0.7561462E-02  0.1230454E+00
         -3   -1    0    0    0  501 -0.00000000000E+00  0.00000000000E+00  0.81853661838E+02  0.81853661838E+02  0.00000000000E+00 0. -1.
          3   -1    0    0  501    0  0.00000000000E+00 -0.00000000000E+00 -0.25250437905E+03  0.25250437905E+03  0.00000000000E+00 0.  1.
         25    2    1    2    0    0  0.70269431921E+01  0.76019224790E+02 -0.15701362838E+03  0.21477567578E+03  0.12508801278E+03 0.  0.
         23    2    1    2    0    0 -0.70269431921E+01 -0.76019224790E+02 -0.13637088836E+02  0.11958236511E+03  0.91025663336E+02 0.  0.
          5    1    3    3  502    0  0.34899750506E+02 -0.23274928905E+02 -0.58374361725E+02  0.72005231808E+02  0.41800000000E+01 0.  1.
         -5    1    3    3    0  502 -0.27872807314E+02  0.99294153695E+02 -0.98639266655E+02  0.14277044397E+03  0.41800000000E+01 0.  1.
        -11    1    4    4    0    0  0.34362611507E+02 -0.53284513864E+02 -0.29277786302E+02  0.69837076528E+02  0.00000000000E+00 0.  1.
         11    1    4    4    0    0 -0.41389554700E+02 -0.22734710926E+02  0.15640697466E+02  0.49745288584E+02  0.00000000000E+00 0. -1.
</event>
<event>
 8    1  0.7168478E-009  0.2027635E+03  0.7561462E-02  0.1147428E+00
          1   -1    0    0  501    0  0.00000000000E+00  0.00000000000E+00  0.19368059497E+04  0.19368059497E+04  0.00000000000E+00 0. -1.
         -1   -1    0    0    0  501 -0.00000000000E+00 -0.00000000000E+00 -0.24910026381E+02  0.24910026381E+02  0.00000000000E+00 0.  1.
         25    2    1    2    0    0 -0.13551838556E+03  0.13465598047E+03  0.98910711792E+03  0.10151247894E+04  0.12509189186E+03 0.  0.
         23    2    1    2    0    0  0.13551838556E+03 -0.13465598047E+03  0.92278880540E+03  0.94659118670E+03  0.89432820918E+02 0.  0.
          5    1    3    3  502    0 -0.10639960085E+03  0.70605336806E+02  0.84609799825E+03  0.85568994600E+03  0.41800000000E+01 0.  1.
         -5    1    3    3    0  502 -0.29118784715E+02  0.64050643660E+02  0.14300911967E+03  0.15943484338E+03  0.41800000000E+01 0.  1.
        -11    1    4    4    0    0  0.63692982066E+02 -0.11716161014E+03  0.67335427621E+03  0.68643253138E+03  0.00000000000E+00 0.  1.
         11    1    4    4    0    0  0.71825403494E+02 -0.17494370331E+02  0.24943452920E+03  0.26015865532E+03  0.00000000000E+00 0. -1.
</event>
<event>
 8    1  0.7168478E-009  0.1221170E+03  0.7561462E-02  0.1239645E+00
         -3   -1    0    0    0  501 -0.00000000000E+00  0.00000000000E+00  0.31011728501E+03  0.31011728501E+03  0.00000000000E+00 0.  1.
          3   -1    0    0  501    0  0.00000000000E+00 -0.00000000000E+00 -0.49857712638E+02  0.49857712638E+02  0.00000000000E+00 0. -1.
         25    2    1    2    0    0  0.21131741147E+02 -0.55312704604E+02  0.11516579940E+03  0.18003969877E+03  0.12508031822E+03 0.  0.
         23    2    1    2    0    0 -0.21131741147E+02  0.55312704604E+02  0.14509377297E+03  0.17993529889E+03  0.88422073348E+02 0.  0.
          5    1    3    3  502    0  0.72367041025E+02 -0.19071024941E+02  0.54691448077E+02  0.92786418790E+02  0.41800000000E+01 0.  1.
         -5    1    3    3    0  502 -0.51235299878E+02 -0.36241679663E+02  0.60474351324E+02  0.87253279975E+02  0.41800000000E+01 0.  1.
        -11    1    4    4    0    0  0.27496301462E+02 -0.59840657093E+01  0.36404956903E+02  0.46012786523E+02  0.00000000000E+00 0.  1.
         11    1    4    4    0    0 -0.48628042609E+02  0.61296770313E+02  0.10868881607E+03  0.13392251236E+03  0.00000000000E+00 0. -1.
</event>
<event>
 8    1  0.7168478E-009  0.7983907E+02  0.7561462E-02  0.1329509E+00
         -3   -1    0    0    0  501 -0.00000000000E+00  0.00000000000E+00  0.57056801087E+02  0.57056801087E+02  0.00000000000E+00 0.  1.
          3   -1    0    0  501    0  0.00000000000E+00 -0.00000000000E+00 -0.24203365279E+03  0.24203365279E+03  0.00000000000E+00 0. -1.
         25    2    1    2    0    0 -0.66195236951E+01  0.25147805724E+02 -0.54801795814E+02  0.13902118531E+03  0.12508965950E+03 0.  0.
         23    2    1    2    0    0  0.66195236951E+01 -0.25147805724E+02 -0.13017505589E+03  0.16006926857E+03  0.89444929071E+02 0.  0.
          5    1    3    3  502    0  0.15827141836E+02  0.40082231694E+02  0.28186824868E+02  0.51662880411E+02  0.41800000000E+01 0. -1.
         -5    1    3    3    0  502 -0.22446665531E+02 -0.14934425970E+02 -0.82988620682E+02  0.87358304901E+02  0.41800000000E+01 0. -1.
        -11    1    4    4    0    0  0.40789752331E+02  0.79161629768E+01 -0.37785950018E+02  0.56162688239E+02  0.00000000000E+00 0.  1.
         11    1    4    4    0    0 -0.34170228636E+02 -0.33063968701E+02 -0.92389105875E+02  0.10390658033E+03  0.00000000000E+00 0. -1.
</event>
<event>
 8    1  0.7168478E-009  0.1147413E+03  0.7561462E-02  0.1252033E+00
          2   -1    0    0  501    0  0.00000000000E+00  0.00000000000E+00  0.27648946621E+04  0.27648946621E+04  0.00000000000E+00 0. -1.
         -2   -1    0    0    0  501 -0.00000000000E+00 -0.00000000000E+00 -0.66460816079E+01  0.66460816079E+01  0.00000000000E+00 0.  1.
         25    2    1    2    0    0 -0.37972701425E+02  0.12109282836E+02  0.22485059491E+04  0.22523362346E+04  0.12510375631E+03 0.  0.
         23    2    1    2    0    0  0.37972701425E+02 -0.12109282836E+02  0.50974263142E+03  0.51920450912E+03  0.90261903472E+02 0.  0.
          5    1    3    3  502    0 -0.83095799612E+02  0.18289167209E+02  0.13798292431E+04  0.13824563711E+04  0.41800000000E+01 0.  1.
         -5    1    3    3    0  502  0.45123098187E+02 -0.61798843729E+01  0.86867670597E+03  0.86987986346E+03  0.41800000000E+01 0.  1.
        -11    1    4    4    0    0  0.37926197866E+02 -0.48835787672E+02  0.30777801574E+03  0.31392775859E+03  0.00000000000E+00 0.  1.
         11    1    4    4    0    0  0.46503559648E-01  0.36726504836E+02  0.20196461569E+03  0.20527675053E+03  0.00000000000E+00 0. -1.
</event>
<event>
 8    1  0.7168478E-009  0.1396346E+03  0.7561462E-02  0.1213822E+00
         -2   -1    0    0    0  501 -0.00000000000E+00  0.00000000000E+00  0.28007137533E+03  0.28007137533E+03  0.00000000000E+00 0.  1.
          2   -1    0    0  501    0  0.00000000000E+00 -0.00000000000E+00 -0.87872803210E+02  0.87872803210E+02  0.00000000000E+00 0. -1.
         25    2    1    2    0    0 -0.44690948123E+02 -0.10219233155E+03  0.12323441876E+03  0.20802711719E+03  0.12509199035E+03 0.  0.
         23    2    1    2    0    0  0.44690948123E+02  0.10219233155E+03  0.68964153366E+02  0.15991706135E+03  0.91525180085E+02 0.  0.
          5    1    3    3  502    0  0.91579266632E+01  0.26184867070E+02  0.25180010118E+02  0.37696421499E+02  0.41800000000E+01 0. -1.
         -5    1    3    3    0  502 -0.53848874786E+02 -0.12837719862E+03  0.98054408637E+02  0.17033069569E+03  0.41800000000E+01 0. -1.
        -11    1    4    4    0    0  0.39486605785E+02  0.80924484709E+02  0.26516201032E+01  0.90083268985E+02  0.00000000000E+00 0. -1.
         11    1    4    4    0    0  0.52043423373E+01  0.21267846843E+02  0.66312533263E+02  0.69833792366E+02  0.00000000000E+00 0.  1.
</event>
<event>
 8    1  0.7168478E-009  0.2198261E+03  0.7561462E-02  0.1134013E+00
          3   -1    0    0  501    0  0.00000000000E+00  0.00000000000E+00  0.28163050629E+03  0.28163050629E+03  0.00000000000E+00 0. -1.
         -3   -1    0    0    0  501 -0.00000000000E+00 -0.00000000000E+00 -0.20371758423E+03  0.20371758423E+03  0.00000000000E+00 0.  1.
         25    2    1    2    0    0  0.19745033111E+03  0.63241213149E+01  0.12101327010E+03  0.26328235605E+03  0.12508700853E+03 0.  0.
         23    2    1    2    0    0 -0.19745033111E+03 -0.63241213149E+01 -0.43100348034E+02  0.22206573447E+03  0.91809164356E+02 0.  0.
          5    1    3    3  502    0  0.18747621135E+03 -0.31293405507E+02  0.79042614736E+02  0.20589272545E+03  0.41800000000E+01 0.  1.
         -5    1    3    3    0  502  0.99741197656E+01  0.37617526822E+02  0.41970655361E+02  0.57389630602E+02  0.41800000000E+01 0.  1.
        -11    1    4    4    0    0 -0.22122271346E+02 -0.25803259509E+02 -0.29724553235E+02  0.45152543183E+02  0.00000000000E+00 0. -1.
         11    1    4    4    0    0 -0.17532805977E+03  0.19479138194E+02 -0.13375794798E+02  0.17691319129E+03  0.00000000000E+00 0.  1.
</event>
<event>
 8    1  0.7168478E-009  0.9649748E+02  0.7561462E-02  0.1287839E+00
         -2   -1    0    0    0  501 -0.00000000000E+00  0.00000000000E+00  0.29205486237E+02  0.29205486237E+02  0.00000000000E+00 0.  1.
          2   -1    0    0  501    0  0.00000000000E+00 -0.00000000000E+00 -0.12045941403E+04  0.12045941403E+04  0.00000000000E+00 0. -1.
         25    2    1    2    0    0 -0.21883696923E+02 -0.36917998541E+02 -0.11015486653E+04  0.11094586469E+04  0.12508873773E+03 0.  0.
         23    2    1    2    0    0  0.21883696923E+02  0.36917998541E+02 -0.73839988765E+02  0.12434097966E+03  0.90368691893E+02 0.  0.
          5    1    3    3  502    0  0.48249043116E+02 -0.97089352320E+01 -0.62954563387E+03  0.63148033311E+03  0.41800000000E+01 0.  1.
         -5    1    3    3    0  502 -0.70132740039E+02 -0.27209063309E+02 -0.47200303140E+03  0.47797831374E+03  0.41800000000E+01 0.  1.
        -11    1    4    4    0    0  0.35026201502E+02  0.71906151690E+01  0.76870835733E+01  0.36573637938E+02  0.00000000000E+00 0.  1.
         11    1    4    4    0    0 -0.13142504579E+02  0.29727383372E+02 -0.81527072338E+02  0.87767341721E+02  0.00000000000E+00 0. -1.
</event>
<event>
 8    1  0.7168478E-009  0.9851428E+02  0.7561462E-02  0.1283452E+00
          3   -1    0    0  501    0  0.00000000000E+00  0.00000000000E+00  0.53426643721E+03  0.53426643721E+03  0.00000000000E+00 0. -1.
         -3   -1    0    0    0  501 -0.00000000000E+00 -0.00000000000E+00 -0.28258735419E+02  0.28258735419E+02  0.00000000000E+00 0.  1.
         25    2    1    2    0    0  0.55656000261E+01 -0.35070673536E+01  0.41441480934E+03  0.43293704698E+03  0.12510626294E+03 0.  0.
         23    2    1    2    0    0 -0.55656000261E+01  0.35070673536E+01  0.91592892452E+02  0.12958812564E+03  0.91436037398E+02 0.  0.
          5    1    3    3  502    0  0.55132300505E+02 -0.56312421259E+01  0.98280531045E+02  0.11290622936E+03  0.41800000000E+01 0.  1.
         -5    1    3    3    0  502 -0.49566700478E+02  0.21241747723E+01  0.31613427829E+03  0.32003081762E+03  0.41800000000E+01 0.  1.
        -11    1    4    4    0    0 -0.38071984183E+02 -0.27323759154E+02  0.47700248012E+02  0.66868359141E+02  0.00000000000E+00 0.  1.
         11    1    4    4    0    0  0.32506384157E+02  0.30830826507E+02  0.43892644441E+02  0.62719766502E+02  0.00000000000E+00 0. -1.
</event>
<event>
 8    1  0.7168478E-009  0.8819871E+02  0.7561462E-02  0.1307273E+00
          1   -1    0    0  501    0  0.00000000000E+00  0.00000000000E+00  0.31734278804E+03  0.31734278804E+03  0.00000000000E+00 0. -1.
         -1   -1    0    0    0  501 -0.00000000000E+00 -0.00000000000E+00 -0.49438493690E+02  0.49438493690E+02  0.00000000000E+00 0.  1.
         25    2    1    2    0    0  0.26492829032E+02 -0.54783178898E+02  0.12833873494E+03  0.18926473587E+03  0.12508893906E+03 0.  0.
         23    2    1    2    0    0 -0.26492829032E+02  0.54783178898E+02  0.13956555941E+03  0.17751654586E+03  0.91271638538E+02 0.  0.
          5    1    3    3  502    0  0.45782946397E+02 -0.14790039115E+02  0.13572288539E+03  0.14405900685E+03  0.41800000000E+01 0. -1.
         -5    1    3    3    0  502 -0.19290117365E+02 -0.39993139783E+02 -0.73841504478E+01  0.45205729012E+02  0.41800000000E+01 0. -1.
        -11    1    4    4    0    0 -0.16331120405E+02 -0.91835657672E+01 -0.47536843154E+01  0.19329792768E+02  0.00000000000E+00 0.  1.
         11    1    4    4    0    0 -0.10161708627E+02  0.63966744665E+02  0.14431924372E+03  0.15818675309E+03  0.00000000000E+00 0. -1.
</event>
<event>
 8    1  0.7168478E-009  0.1384695E+03  0.7561462E-02  0.1215403E+00
         -1   -1    0    0    0  501 -0.00000000000E+00  0.00000000000E+00  0.17054683218E+03  0.17054683218E+03  0.00000000000E+00 0.  1.
          1   -1    0    0  501    0  0.00000000000E+00 -0.00000000000E+00 -0.17198215562E+03  0.17198215562E+03  0.00000000000E+00 0. -1.
         25    2    1    2    0    0 -0.23887562606E+02  0.12880418659E+03  0.16971264555E+02  0.18192395825E+03  0.12508864311E+03 0.  0.
         23    2    1    2    0    0  0.23887562606E+02 -0.12880418659E+03 -0.18406587990E+02  0.16060502955E+03  0.91071614154E+02 0.  0.
          5    1    3    3  502    0  0.16182240160E+02  0.43873753587E+02 -0.48397379196E+02  0.67428108853E+02  0.41800000000E+01 0. -1.
         -5    1    3    3    0  502 -0.40069802765E+02  0.84930433003E+02  0.65368643751E+02  0.11449584940E+03  0.41800000000E+01 0. -1.
        -11    1    4    4    0    0 -0.50196552510E+01 -0.72716467193E+02 -0.51602590245E+02  0.89306824263E+02  0.00000000000E+00 0. -1.
         11    1    4    4    0    0  0.28907217857E+02 -0.56087719397E+02  0.33196002254E+02  0.71298205286E+02  0.00000000000E+00 0.  1.
</event>
<event>
 8    1  0.7168478E-009  0.1098375E+03  0.7561462E-02  0.1260871E+00
          2   -1    0    0  501    0  0.00000000000E+00  0.00000000000E+00  0.14167724256E+03  0.14167724256E+03  0.00000000000E+00 0. -1.
         -2   -1    0    0    0  501 -0.00000000000E+00 -0.00000000000E+00 -0.95339661976E+02  0.95339661976E+02  0.00000000000E+00 0.  1.
         25    2    1    2    0    0  0.37989087257E+02 -0.11521333187E+02  0.32822445283E+01  0.13128498966E+03  0.12509621702E+03 0.  0.
         23    2    1    2    0    0 -0.37989087257E+02  0.11521333187E+02  0.43055336051E+02  0.10573191487E+03  0.88031607909E+02 0.  0.
          5    1    3    3  502    0  0.40616690713E+02 -0.61327773659E+02  0.23457668279E+02  0.77321057853E+02  0.41800000000E+01 0.  1.
         -5    1    3    3    0  502 -0.26276034559E+01  0.49806440472E+02 -0.20175423751E+02  0.53963931806E+02  0.41800000000E+01 0.  1.
        -11    1    4    4    0    0 -0.98948095714E+01 -0.37861118721E+02  0.23495886712E+02  0.45644586312E+02  0.00000000000E+00 0. -1.
         11    1    4    4    0    0 -0.28094277685E+02  0.49382451907E+02  0.19559449339E+02  0.60087328560E+02  0.00000000000E+00 0.  1.
</event>
<event>
 8    1  0.7168478E-009  0.1251386E+03  0.7561462E-02  0.1234853E+00
         -2   -1    0    0    0  501 -0.00000000000E+00  0.00000000000E+00  0.32425513307E+02  0.32425513307E+02  0.00000000000E+00 0.  1.
          2   -1    0    0  501    0  0.00000000000E+00 -0.00000000000E+00 -0.55703703063E+03  0.55703703063E+03  0.00000000000E+00 0. -1.
         25    2    1    2    0    0 -0.13821265311E+02  0.80862097831E+02 -0.28481912981E+03  0.32171350420E+03  0.12509170971E+03 0.  0.
         23    2    1    2    0    0  0.13821265311E+02 -0.80862097831E+02 -0.23979238751E+03  0.26774903974E+03  0.86368124501E+02 0.  0.
          5    1    3    3  502    0 -0.51893415752E+02  0.48222097562E+01 -0.17566434104E+03  0.18328015010E+03  0.41800000000E+01 0. -1.
         -5    1    3    3    0  502  0.38072150441E+02  0.76039888075E+02 -0.10915478876E+03  0.13843335410E+03  0.41800000000E+01 0. -1.
        -11    1    4    4    0    0 -0.31936640034E+02 -0.24487885423E+02 -0.47797418910E+02  0.62483587955E+02  0.00000000000E+00 0.  1.
         11    1    4    4    0    0  0.45757905345E+02 -0.56374212408E+02 -0.19199496860E+03  0.20526545178E+03  0.00000000000E+00 0. -1.
</event>
<event>
 8    1  0.7168478E-009  0.1674067E+03  0.7561462E-02  0.1180580E+00
          2   -1    0    0  501    0  0.00000000000E+00  0.00000000000E+00  0.12804184937E+04  0.12804184937E+04  0.00000000000E+00 0.  1.
         -2   -1    0    0    0  501 -0.00000000000E+00 -0.00000000000E+00 -0.22957664685E+02  0.22957664685E+02  0.00000000000E+00 0. -1.
         25    2    1    2    0    0  0.62048583689E+02 -0.11529250738E+03  0.73831477000E+03  0.76019798511E+03  0.12509951222E+03 0.  0.
         23    2    1    2    0    0 -0.62048583689E+02  0.11529250738E+03  0.51914605900E+03  0.54317817327E+03  0.91583340983E+02 0.  0.
          5    1    3    3  502    0 -0.31309739308E+02 -0.65075572661E+02  0.23758718613E+03  0.24835513553E+03  0.41800000000E+01 0. -1.
         -5    1    3    3    0  502  0.93358322998E+02 -0.50216934719E+02  0.50072758388E+03  0.51184284957E+03  0.41800000000E+01 0. -1.
        -11    1    4    4    0    0 -0.83337718478E+02  0.82326652510E+02  0.43205325226E+03  0.44765261735E+03  0.00000000000E+00 0.  1.
         11    1    4    4    0    0  0.21289134789E+02  0.32965854870E+02  0.87092806743E+02  0.95525555919E+02  0.00000000000E+00 0. -1.
</event>
<event>
 8    1  0.7168478E-009  0.1081591E+03  0.7561462E-02  0.1264017E+00
         -1   -1    0    0    0  501 -0.00000000000E+00  0.00000000000E+00  0.36850395736E+02  0.36850395736E+02  0.00000000000E+00 0.  1.
          1   -1    0    0  501    0  0.00000000000E+00 -0.00000000000E+00 -0.45897490163E+03  0.45897490163E+03  0.00000000000E+00 0. -1.
         25    2    1    2    0    0  0.35755706752E+02 -0.26211637810E+02 -0.34025740857E+03  0.36522402597E+03  0.12509182442E+03 0.  0.
         23    2    1    2    0    0 -0.35755706752E+02  0.26211637810E+02 -0.81867097324E+02  0.13060127140E+03  0.91591211063E+02 0.  0.
          5    1    3    3  502    0  0.30759208399E+02  0.44786022522E+02 -0.91952120294E+02  0.10688583415E+03  0.41800000000E+01 0.  1.
         -5    1    3    3    0  502  0.49964983530E+01 -0.70997660332E+02 -0.24830528827E+03  0.25833819182E+03  0.41800000000E+01 0.  1.
        -11    1    4    4    0    0 -0.57937625297E+02  0.33812179588E+02 -0.29613726847E+02  0.73328062372E+02  0.00000000000E+00 0.  1.
         11    1    4    4    0    0  0.22181918545E+02 -0.76005417780E+01 -0.52253370477E+02  0.57273209024E+02  0.00000000000E+00 0. -1.
</event>
<event>
 8    1  0.7168478E-009  0.1710801E+03  0.7561462E-02  0.1176726E+00
          1   -1    0    0  501    0  0.00000000000E+00  0.00000000000E+00  0.14854093764E+04  0.14854093764E+04  0.00000000000E+00 0. -1.
         -1   -1    0    0    0  501 -0.00000000000E+00 -0.00000000000E+00 -0.22159958424E+02  0.22159958424E+02  0.00000000000E+00 0.  1.
         25    2    1    2    0    0  0.76990160810E+01 -0.13584588083E+03  0.99371363030E+03  0.10107560970E+04  0.12509088849E+03 0.  0.
         23    2    1    2    0    0 -0.76990160810E+01  0.13584588083E+03  0.46953578771E+03  0.49681323786E+03  0.88578548124E+02 0.  0.
          5    1    3    3  502    0  0.65897809071E+02 -0.73395865972E+02  0.49067077973E+03  0.50050450633E+03  0.41800000000E+01 0. -1.
         -5    1    3    3    0  502 -0.58198792990E+02 -0.62450014859E+02  0.50304285058E+03  0.51025159067E+03  0.41800000000E+01 0. -1.
        -11    1    4    4    0    0 -0.44054675971E+02  0.68739959879E+02  0.18491894986E+03  0.20214107592E+03  0.00000000000E+00 0.  1.
         11    1    4    4    0    0  0.36355659890E+02  0.67105920951E+02  0.28461683785E+03  0.29467216193E+03  0.00000000000E+00 0. -1.
</event>
<event>
 8    1  0.7168478E-009  0.2996750E+03  0.7561462E-02  0.1085403E+00
         -2   -1    0    0    0  501 -0.00000000000E+00  0.00000000000E+00  0.78031941820E+03  0.78031941820E+03  0.00000000000E+00 0.  1.
          2   -1    0    0  501    0  0.00000000000E+00 -0.00000000000E+00 -0.12226920606E+03  0.12226920606E+03  0.00000000000E+00 0. -1.
         25    2    1    2    0    0 -0.21168140581E+02  0.28621873477E+03  0.28767606268E+03  0.42517433313E+03  0.12508573942E+03 0.  0.
         23    2    1    2    0    0  0.21168140581E+02 -0.28621873477E+03  0.37037414946E+03  0.47741429112E+03  0.91532182706E+02 0.  0.
          5    1    3    3  502    0  0.45246507134E+02  0.89101291585E+02  0.59452077006E+02  0.11635423684E+03  0.41800000000E+01 0. -1.
         -5    1    3    3    0  502 -0.66414647715E+02  0.19711744319E+03  0.22822398567E+03  0.30882009630E+03  0.41800000000E+01 0. -1.
        -11    1    4    4    0    0  0.37556713905E+02 -0.18936390729E+03  0.29932779581E+03  0.35618299439E+03  0.00000000000E+00 0.  1.
         11    1    4    4    0    0 -0.16388573324E+02 -0.96854827480E+02  0.71046353643E+02  0.12123129673E+03  0.00000000000E+00 0. -1.
</event>
<event>
 8    1  0.7168478E-009  0.9665076E+02  0.7561462E-02  0.1287501E+00
         -1   -1    0    0    0  501 -0.00000000000E+00  0.00000000000E+00  0.42176532756E+03  0.42176532756E+03  0.00000000000E+00 0.  1.
          1   -1    0    0  501    0  0.00000000000E+00 -0.00000000000E+00 -0.37791980711E+02  0.37791980711E+02  0.00000000000E+00 0. -1.
         25    2    1    2    0    0  0.42736990753E+01 -0.59781305223E+02  0.17284530202E+03  0.22161989800E+03  0.12509121393E+03 0.  0.
         23    2    1    2    0    0 -0.42736990753E+01  0.59781305223E+02  0.21112804484E+03  0.23793741027E+03  0.91908056959E+02 0.  0.
          5    1    3    3  502    0  0.20299290072E+02  0.21654686475E+02  0.11871884203E+03  0.12244436482E+03  0.41800000000E+01 0.  1.
         -5    1    3    3    0  502 -0.16025590996E+02 -0.81435991698E+02  0.54126459988E+02  0.99175533179E+02  0.41800000000E+01 0.  1.
        -11    1    4    4    0    0  0.21142583063E+02  0.47506997517E+02  0.20152193310E+03  0.20812259164E+03  0.00000000000E+00 0.  1.
         11    1    4    4    0    0 -0.25416282138E+02  0.12274307706E+02  0.96061117358E+01  0.29814818632E+02  0.00000000000E+00 0. -1.
</event>
<event>
 8    1  0.7168478E-009  0.9587602E+02  0.7561462E-02  0.1289215E+00
          1   -1    0    0  501    0  0.00000000000E+00  0.00000000000E+00  0.34597722224E+03  0.34597722224E+03  0.00000000000E+00 0. -1.
         -1   -1    0    0    0  501 -0.00000000000E+00 -0.00000000000E+00 -0.41255148202E+02  0.41255148202E+02  0.00000000000E+00 0.  1.
         25    2    1    2    0    0 -0.48809262871E+01  0.51100304406E+02  0.17019557435E+03  0.21737014214E+03  0.12509268810E+03 0.  0.
         23    2    1    2    0    0  0.48809262871E+01 -0.51100304406E+02  0.13452649969E+03  0.16986222830E+03  0.90115109341E+02 0.  0.
          5    1    3    3  502    0 -0.71306078555E+00  0.72974116399E+02  0.36379537873E+02  0.81649698687E+02  0.41800000000E+01 0. -1.
         -5    1    3    3    0  502 -0.41678655015E+01 -0.21873811993E+02  0.13381603647E+03  0.13572044345E+03  0.41800000000E+01 0. -1.
        -11    1    4    4    0    0 -0.37992134857E+02 -0.28787436877E+02  0.99001151048E+02  0.10987878204E+03  0.00000000000E+00 0.  1.
         11    1    4    4    0    0  0.42873061144E+02 -0.22312867529E+02  0.35525348640E+02  0.59983446260E+02  0.00000000000E+00 0. -1.
</event>
<event>
 8    1  0.7168478E-009  0.1013524E+03  0.7561462E-02  0.1277477E+00
          2   -1    0    0  501    0  0.00000000000E+00  0.00000000000E+00  0.56592638283E+03  0.56592638283E+03  0.00000000000E+00 0.  1.
         -2   -1    0    0    0  501 -0.00000000000E+00 -0.00000000000E+00 -0.39645077598E+02  0.39645077598E+02  0.00000000000E+00 0. -1.
         25    2    1    2    0    0  0.36690582888E+02  0.12043345422E+02  0.48518589247E+03  0.50253736466E+03  0.12508881477E+03 0.  0.
         23    2    1    2    0    0 -0.36690582888E+02 -0.12043345422E+02  0.41095412754E+02  0.10303409577E+03  0.86231959850E+02 0.  0.
          5    1    3    3  502    0 -0.41237927683E+02  0.26095419795E+02  0.23637749189E+03  0.24139869239E+03  0.41800000000E+01 0. -1.
         -5    1    3    3    0  502  0.77928510571E+02 -0.14052074373E+02  0.24880840058E+03  0.26113867227E+03  0.41800000000E+01 0. -1.
        -11    1    4    4    0    0 -0.35954740724E+02 -0.35754936217E+02 -0.52422116504E+01  0.50976853839E+02  0.00000000000E+00 0. -1.
         11    1    4    4    0    0 -0.73584216400E+00  0.23711590795E+02  0.46337624404E+02  0.52057241928E+02  0.00000000000E+00 0.  1.
</event>
<event>
 8    1  0.7168478E-009  0.8252979E+02  0.7561462E-02  0.1322022E+00
          1   -1    0    0  501    0  0.00000000000E+00  0.00000000000E+00  0.27271705432E+03  0.27271705432E+03  0.00000000000E+00 0. -1.
         -1   -1    0    0    0  501 -0.00000000000E+00 -0.00000000000E+00 -0.53267310832E+02  0.53267310832E+02  0.00000000000E+00 0.  1.
         25    2    1    2    0    0  0.32396698670E+02 -0.41716185605E+02  0.11026559382E+03  0.17491281367E+03  0.12508479116E+03 0.  0.
         23    2    1    2    0    0 -0.32396698670E+02  0.41716185605E+02  0.10918414967E+03  0.15107155148E+03  0.90064692871E+02 0.  0.
          5    1    3    3  502    0 -0.24796027851E+01 -0.37663856289E+02 -0.17882652142E+02  0.41975899611E+02  0.41800000000E+01 0.  1.
         -5    1    3    3    0  502  0.34876301456E+02 -0.40523293157E+01  0.12814824597E+03  0.13293691406E+03  0.41800000000E+01 0.  1.
        -11    1    4    4    0    0  0.24219717791E+02  0.18741720799E+02  0.60787157869E+01  0.31221749054E+02  0.00000000000E+00 0.  1.
         11    1    4    4    0    0 -0.56616416461E+02  0.22974464806E+02  0.10310543388E+03  0.11984980243E+03  0.00000000000E+00 0. -1.
</event>
<event>
 8    1  0.7168478E-009  0.1744289E+03  0.7561462E-02  0.1173306E+00
         -4   -1    0    0    0  501 -0.00000000000E+00  0.00000000000E+00  0.42949693851E+03  0.42949693851E+03  0.00000000000E+00 0.  1.
          4   -1    0    0  501    0  0.00000000000E+00 -0.00000000000E+00 -0.27623090834E+03  0.27623090834E+03  0.00000000000E+00 0. -1.
         25    2    1    2    0    0 -0.18917684931E+02 -0.15773818433E+03 -0.21441923950E+03  0.29472384558E+03  0.12508925328E+03 0.  0.
         23    2    1    2    0    0  0.18917684931E+02  0.15773818433E+03  0.36768526967E+03  0.41100400126E+03  0.92155400917E+02 0.  0.
          5    1    3    3  502    0 -0.26201625234E+02  0.33264777673E+01 -0.40763269632E+00  0.26743769062E+02  0.41800000000E+01 0. -1.
         -5    1    3    3    0  502  0.72839403028E+01 -0.16106466210E+03 -0.21401160681E+03  0.26798007652E+03  0.41800000000E+01 0. -1.
        -11    1    4    4    0    0  0.20682155753E+02  0.67940443801E+02  0.68661090233E+02  0.98782593519E+02  0.00000000000E+00 0. -1.
         11    1    4    4    0    0 -0.17644708222E+01  0.89797740529E+02  0.29902417944E+03  0.31222140774E+03  0.00000000000E+00 0.  1.
</event>
<event>
 8    1  0.7168478E-009  0.1009953E+03  0.7561462E-02  0.1278217E+00
          2   -1    0    0  501    0  0.00000000000E+00  0.00000000000E+00  0.35030409742E+02  0.35030409742E+02  0.00000000000E+00 0. -1.
         -2   -1    0    0    0  501 -0.00000000000E+00 -0.00000000000E+00 -0.33848675880E+03  0.33848675880E+03  0.00000000000E+00 0.  1.
         25    2    1    2    0    0  0.13415955311E+02 -0.17679505579E+02 -0.19045985206E+03  0.22893574923E+03  0.12507625376E+03 0.  0.
         23    2    1    2    0    0 -0.13415955311E+02  0.17679505579E+02 -0.11299649700E+03  0.14458141932E+03  0.87424399928E+02 0.  0.
          5    1    3    3  502    0 -0.47215031188E+02  0.17795170053E+02 -0.46710088892E+02  0.68885644743E+02  0.41800000000E+01 0.  1.
         -5    1    3    3    0  502  0.60630986499E+02 -0.35474675632E+02 -0.14374976317E+03  0.16005010449E+03  0.41800000000E+01 0.  1.
        -11    1    4    4    0    0  0.15509768260E+02  0.40999177154E+02 -0.91987465878E+02  0.10189788672E+03  0.00000000000E+00 0.  1.
         11    1    4    4    0    0 -0.28925723572E+02 -0.23319671575E+02 -0.21009031123E+02  0.42683532600E+02  0.00000000000E+00 0. -1.
</event>
<event>
 8    1  0.7168478E-009  0.9984689E+02  0.7561462E-02  0.1280618E+00
          1   -1    0    0  501    0  0.00000000000E+00  0.00000000000E+00  0.24755632313E+03  0.24755632313E+03  0.00000000000E+00 0. -1.
         -1   -1    0    0    0  501 -0.00000000000E+00 -0.00000000000E+00 -0.59179925259E+02  0.59179925259E+02  0.00000000000E+00 0.  1.
         25    2    1    2    0    0 -0.37684152709E+02  0.43756355762E+00  0.13872036212E+03  0.19055294952E+03  0.12508717311E+03 0.  0.
         23    2    1    2    0    0  0.37684152709E+02 -0.43756355762E+00  0.49656035750E+02  0.11618329887E+03  0.98043613877E+02 0.  0.
          5    1    3    3  502    0 -0.38424043679E+02  0.39935792855E+02  0.10813090061E+02  0.56618636510E+02  0.41800000000E+01 0. -1.
         -5    1    3    3    0  502  0.73989096945E+00 -0.39498229297E+02  0.12790727206E+03  0.13393431301E+03  0.41800000000E+01 0. -1.
        -11    1    4    4    0    0  0.70216370135E+02 -0.88962431392E+01  0.39573989158E+02  0.81089964822E+02  0.00000000000E+00 0. -1.
         11    1    4    4    0    0 -0.32532217426E+02  0.84586795816E+01  0.10082046592E+02  0.35093334045E+02  0.00000000000E+00 0.  1.
</event>
<event>
 8    1  0.7168478E-009  0.7361523E+02  0.7561462E-02  0.1348214E+00
          2   -1    0    0  501    0  0.00000000000E+00  0.00000000000E+00  0.35095343666E+03  0.35095343666E+03  0.00000000000E+00 0. -1.
         -2   -1    0    0    0  501 -0.00000000000E+00 -0.00000000000E+00 -0.41383550811E+02  0.41383550811E+02  0.00000000000E+00 0.  1.
         25    2    1    2    0    0  0.91901836992E+01  0.43861384473E+02  0.12955116357E+03  0.18557796334E+03  0.12508955181E+03 0.  0.
         23    2    1    2    0    0 -0.91901836992E+01 -0.43861384473E+02  0.18001872229E+03  0.20675902413E+03  0.91292240431E+02 0.  0.
          5    1    3    3  502    0  0.88406278008E+01  0.47514978478E+02  0.15350441076E+03  0.16098728646E+03  0.41800000000E+01 0.  1.
         -5    1    3    3    0  502  0.34955589842E+00 -0.36535940047E+01 -0.23953247191E+02  0.24590676881E+02  0.41800000000E+01 0.  1.
        -11    1    4    4    0    0 -0.15486395789E+02 -0.67211653932E+02  0.89088287202E+02  0.11266746556E+03  0.00000000000E+00 0.  1.
         11    1    4    4    0    0  0.62962120894E+01  0.23350269459E+02  0.90930435084E+02  0.94091558575E+02  0.00000000000E+00 0. -1.
</event>
<event>
 8    1  0.7168478E-009  0.1013964E+03  0.7561462E-02  0.1277387E+00
         -2   -1    0    0    0  501 -0.00000000000E+00  0.00000000000E+00  0.38040351509E+02  0.38040351509E+02  0.00000000000E+00 0.  1.
          2   -1    0    0  501    0  0.00000000000E+00 -0.00000000000E+00 -0.38475845394E+03  0.38475845394E+03  0.00000000000E+00 0. -1.
         25    2    1    2    0    0  0.45761338810E+02  0.17808235015E+02 -0.24615077163E+03  0.28044292699E+03  0.12508716784E+03 0.  0.
         23    2    1    2    0    0 -0.45761338810E+02 -0.17808235015E+02 -0.10056733080E+03  0.14235587846E+03  0.87978262906E+02 0.  0.
          5    1    3    3  502    0  0.34315607886E+02 -0.52549593427E+02 -0.11063677061E+03  0.12726738830E+03  0.41800000000E+01 0. -1.
         -5    1    3    3    0  502  0.11445730924E+02  0.70357828442E+02 -0.13551400101E+03  0.15317553868E+03  0.41800000000E+01 0. -1.
        -11    1    4    4    0    0 -0.16459803285E+02  0.16542741974E+02 -0.93850659495E+02  0.96708498716E+02  0.00000000000E+00 0. -1.
         11    1    4    4    0    0 -0.29301535525E+02 -0.34350976989E+02 -0.67166713077E+01  0.45647379746E+02  0.00000000000E+00 0.  1.
</event>
<event>
 8    1  0.7168478E-009  0.9701423E+02  0.7561462E-02  0.1286703E+00
         -1   -1    0    0    0  501 -0.00000000000E+00  0.00000000000E+00  0.21417973369E+03  0.21417973369E+03  0.00000000000E+00 0.  1.
          1   -1    0    0  501    0  0.00000000000E+00 -0.00000000000E+00 -0.64404883885E+02  0.64404883885E+02  0.00000000000E+00 0. -1.
         25    2    1    2    0    0 -0.40649631982E+02  0.75099130223E+00  0.52092364529E+02  0.14147029233E+03  0.12508905869E+03 0.  0.
         23    2    1    2    0    0  0.40649631982E+02 -0.75099130223E+00  0.97682485278E+02  0.13711432524E+03  0.87209596309E+02 0.  0.
          5    1    3    3  502    0  0.42613053529E+02 -0.17366319097E+02  0.19197337272E+02  0.50034703241E+02  0.41800000000E+01 0. -1.
         -5    1    3    3    0  502 -0.83262685511E+02  0.18117310400E+02  0.32895027258E+02  0.91435589094E+02  0.41800000000E+01 0. -1.
        -11    1    4    4    0    0  0.16496966130E+02 -0.23909343537E+02 -0.46787319973E+01  0.29422731568E+02  0.00000000000E+00 0. -1.
         11    1    4    4    0    0  0.24152665852E+02  0.23158352234E+02  0.10236121727E+03  0.10769159367E+03  0.00000000000E+00 0.  1.
</event>
<event>
 8    1  0.7168478E-009  0.1286343E+03  0.7561462E-02  0.1229496E+00
         -2   -1    0    0    0  501 -0.00000000000E+00  0.00000000000E+00  0.62759299446E+02  0.62759299446E+02  0.00000000000E+00 0.  1.
          2   -1    0    0  501    0  0.00000000000E+00 -0.00000000000E+00 -0.34597191447E+03  0.34597191447E+03  0.00000000000E+00 0. -1.
         25    2    1    2    0    0  0.97490981091E+02 -0.22228544834E+02 -0.16523788251E+03  0.23010766246E+03  0.12508948361E+03 0.  0.
         23    2    1    2    0    0 -0.97490981091E+02  0.22228544834E+02 -0.11797473252E+03  0.17862355146E+03  0.89385323303E+02 0.  0.
          5    1    3    3  502    0  0.92136665350E+01 -0.59534026936E+02 -0.40338093682E+02  0.72621114120E+02  0.41800000000E+01 0. -1.
         -5    1    3    3    0  502  0.88277314556E+02  0.37305482102E+02 -0.12489978882E+03  0.15748654834E+03  0.41800000000E+01 0. -1.
        -11    1    4    4    0    0 -0.13055179710E+02  0.80448128059E+01  0.14358689415E+02  0.21007824544E+02  0.00000000000E+00 0.  1.
         11    1    4    4    0    0 -0.84435801381E+02  0.14183732028E+02 -0.13233342194E+03  0.15761572691E+03  0.00000000000E+00 0. -1.
</event>
<event>
 8    1  0.7168478E-009  0.1387300E+03  0.7561462E-02  0.1215048E+00
          2   -1    0    0  501    0  0.00000000000E+00  0.00000000000E+00  0.44381432733E+02  0.44381432733E+02  0.00000000000E+00 0. -1.
         -2   -1    0    0    0  501 -0.00000000000E+00 -0.00000000000E+00 -0.68822924860E+03  0.68822924860E+03  0.00000000000E+00 0.  1.
         25    2    1    2    0    0 -0.11676151551E+03  0.71463766179E+02 -0.31755147887E+03  0.36773299830E+03  0.12509314498E+03 0.  0.
         23    2    1    2    0    0  0.11676151551E+03 -0.71463766179E+02 -0.32629633699E+03  0.36487768303E+03  0.89028662017E+02 0.  0.
          5    1    3    3  502    0 -0.73635161778E+02  0.47540152996E+02 -0.30400909813E+03  0.31641935362E+03  0.41800000000E+01 0.  1.
         -5    1    3    3    0  502 -0.43126353733E+02  0.23923613184E+02 -0.13542380739E+02  0.51313644678E+02  0.41800000000E+01 0.  1.
        -11    1    4    4    0    0  0.38496978943E+02 -0.40980116353E+02 -0.23147601895E+03  0.23820691567E+03  0.00000000000E+00 0.  1.
         11    1    4    4    0    0  0.78264536568E+02 -0.30483649826E+02 -0.94820318041E+02  0.12667076736E+03  0.00000000000E+00 0. -1.
</event>
<event>
 8    1  0.7168478E-009  0.1699918E+03  0.7561462E-02  0.1177856E+00
         -2   -1    0    0    0  501 -0.00000000000E+00  0.00000000000E+00  0.16176968130E+03  0.16176968130E+03  0.00000000000E+00 0.  1.
          2   -1    0    0  501    0  0.00000000000E+00 -0.00000000000E+00 -0.23859602555E+03  0.23859602555E+03  0.00000000000E+00 0. -1.
         25    2    1    2    0    0 -0.97442255197E+02  0.12619630252E+03 -0.76245825841E+02  0.21651933908E+03  0.12508676337E+03 0.  0.
         23    2    1    2    0    0  0.97442255197E+02 -0.12619630252E+03 -0.58051841146E+00  0.18384636777E+03  0.91534966383E+02 0.  0.
          5    1    3    3  502    0 -0.97719520018E+02  0.63414360953E+02 -0.95527363300E+02  0.15070977177E+03  0.41800000000E+01 0. -1.
         -5    1    3    3    0  502  0.27726482054E+00  0.62781941571E+02  0.19281537459E+02  0.65809567314E+02  0.41800000000E+01 0. -1.
        -11    1    4    4    0    0  0.28032042090E+02 -0.23704005347E+02  0.39317242165E+02  0.53791456428E+02  0.00000000000E+00 0.  1.
         11    1    4    4    0    0  0.69410213107E+02 -0.10249229718E+03 -0.39897760576E+02  0.13005491134E+03  0.00000000000E+00 0. -1.
</event>
<event>
 8    1  0.7168478E-009  0.1107854E+03  0.7561462E-02  0.1259122E+00
         -1   -1    0    0    0  501 -0.00000000000E+00  0.00000000000E+00  0.25087902705E+02  0.25087902705E+02  0.00000000000E+00 0.  1.
          1   -1    0    0  501    0  0.00000000000E+00 -0.00000000000E+00 -0.67180831556E+03  0.67180831556E+03  0.00000000000E+00 0. -1.
         25    2    1    2    0    0  0.59423685110E+02  0.16657318214E+02 -0.26574482106E+03  0.30012806028E+03  0.12509157465E+03 0.  0.
         23    2    1    2    0    0 -0.59423685110E+02 -0.16657318214E+02 -0.38097559180E+03  0.39676815798E+03  0.92053946366E+02 0.  0.
          5    1    3    3  502    0  0.75806693526E+02  0.36922745740E+02 -0.25966472459E+03  0.27304429225E+03  0.41800000000E+01 0. -1.
         -5    1    3    3    0  502 -0.16383008416E+02 -0.20265427525E+02 -0.60800964678E+01  0.27083768028E+02  0.41800000000E+01 0. -1.
        -11    1    4    4    0    0 -0.55383454714E+02  0.30633652456E+02 -0.21057170005E+03  0.21987766730E+03  0.00000000000E+00 0.  1.
         11    1    4    4    0    0 -0.40402303968E+01 -0.47290970670E+02 -0.17040389175E+03  0.17689049068E+03  0.00000000000E+00 0. -1.
</event>
<event>
 8    1  0.7168478E-009  0.1147660E+03  0.7561462E-02  0.1251990E+00
          1   -1    0    0  501    0  0.00000000000E+00  0.00000000000E+00  0.16660099587E+03  0.16660099587E+03  0.00000000000E+00 0. -1.
         -1   -1    0    0    0  501 -0.00000000000E+00 -0.00000000000E+00 -0.88969681132E+02  0.88969681132E+02  0.00000000000E+00 0.  1.
         25    2    1    2    0    0  0.11026254109E+01 -0.54631269153E+02  0.33894935816E+02  0.14065056796E+03  0.12509166335E+03 0.  0.
         23    2    1    2    0    0 -0.11026254109E+01  0.54631269153E+02  0.43736378920E+02  0.11492010904E+03  0.91148062345E+02 0.  0.
          5    1    3    3  502    0 -0.21238525857E+02 -0.85050602106E+02 -0.28525142728E+01  0.87808252100E+02  0.41800000000E+01 0.  1.
         -5    1    3    3    0  502  0.22341151268E+02  0.30419332952E+02  0.36747450088E+02  0.52842315858E+02  0.41800000000E+01 0.  1.
        -11    1    4    4    0    0  0.12191872747E+02  0.76900798315E+02  0.43060809078E+02  0.88975321416E+02  0.00000000000E+00 0.  1.
         11    1    4    4    0    0 -0.13294498158E+02 -0.22269529162E+02  0.67556984213E+00  0.25944787626E+02  0.00000000000E+00 0. -1.
</event>
<event>
 8    1  0.7168478E-009  0.9787115E+02  0.7561462E-02  0.1284837E+00
         -1   -1    0    0    0  501 -0.00000000000E+00  0.00000000000E+00  0.29670115931E+02  0.29670115931E+02  0.00000000000E+00 0.  1.
          1   -1    0    0  501    0  0.00000000000E+00 -0.00000000000E+00 -0.41593943824E+03  0.41593943824E+03  0.00000000000E+00 0. -1.
         25    2    1    2    0    0 -0.20080959111E+01  0.17298618293E+02 -0.27834545905E+03  0.30565496686E+03  0.12508193134E+03 0.  0.
         23    2    1    2    0    0  0.20080959111E+01 -0.17298618293E+02 -0.10792386326E+03  0.13995458731E+03  0.87386793081E+02 0.  0.
          5    1    3    3  502    0  0.23859685893E+02  0.55833606813E+02 -0.23231174067E+03  0.24015181347E+03  0.41800000000E+01 0.  1.
         -5    1    3    3    0  502 -0.25867781804E+02 -0.38534988521E+02 -0.46033718384E+02  0.65503153390E+02  0.41800000000E+01 0.  1.
        -11    1    4    4    0    0  0.43863567117E+02 -0.15017080303E+02 -0.66115141863E+02  0.80751081755E+02  0.00000000000E+00 0. -1.
         11    1    4    4    0    0 -0.41855471206E+02 -0.22815379895E+01 -0.41808721395E+02  0.59203505556E+02  0.00000000000E+00 0.  1.
</event>
<event>
 8    1  0.7168478E-009  0.2538267E+03  0.7561462E-02  0.1110910E+00
          3   -1    0    0  501    0  0.00000000000E+00  0.00000000000E+00  0.11831291130E+04  0.11831291130E+04  0.00000000000E+00 0. -1.
         -3   -1    0    0    0  501 -0.00000000000E+00 -0.00000000000E+00 -0.68776871766E+02  0.68776871766E+02  0.00000000000E+00 0.  1.
         25    2    1    2    0    0 -0.15824870238E+03 -0.18230843667E+03  0.80169200249E+03  0.84654390612E+03  0.12508996862E+03 0.  0.
         23    2    1    2    0    0  0.15824870238E+03  0.18230843667E+03  0.31266023874E+03  0.40536207864E+03  0.91010834663E+02 0.  0.
          5    1    3    3  502    0 -0.21803449024E+02  0.11225575657E+01  0.22623848231E+03  0.22732789930E+03  0.41800000000E+01 0. -1.
         -5    1    3    3    0  502 -0.13644525335E+03 -0.18343099423E+03  0.57545352018E+03  0.61921600682E+03  0.41800000000E+01 0. -1.
        -11    1    4    4    0    0  0.10422478125E+03  0.17297492689E+03  0.22885994164E+03  0.30522123656E+03  0.00000000000E+00 0. -1.
         11    1    4    4    0    0  0.54023921132E+02  0.93335097802E+01  0.83800297097E+02  0.10014084208E+03  0.00000000000E+00 0.  1.
</event>
<event>
 8    1  0.7168478E-009  0.1054695E+03  0.7561462E-02  0.1269197E+00
         -2   -1    0    0    0  501 -0.00000000000E+00  0.00000000000E+00  0.14110553445E+02  0.14110553445E+02  0.00000000000E+00 0.  1.
          2   -1    0    0  501    0  0.00000000000E+00 -0.00000000000E+00 -0.95532700524E+03  0.95532700524E+03  0.00000000000E+00 0. -1.
         25    2    1    2    0    0 -0.34428505803E+01  0.13876119327E+02 -0.69590560477E+03  0.70720300554E+03  0.12508829033E+03 0.  0.
         23    2    1    2    0    0  0.34428505803E+01 -0.13876119327E+02 -0.24531084702E+03  0.26223455315E+03  0.91570460799E+02 0.  0.
          5    1    3    3  502    0  0.56118561007E+02  0.20187527281E+02 -0.45580894239E+03  0.45971305562E+03  0.41800000000E+01 0.  1.
         -5    1    3    3    0  502 -0.59561411587E+02 -0.63114079538E+01 -0.24009666239E+03  0.24748994992E+03  0.41800000000E+01 0.  1.
        -11    1    4    4    0    0  0.39772585069E+02  0.17174014716E+02 -0.14082176553E+03  0.14733490744E+03  0.00000000000E+00 0. -1.
         11    1    4    4    0    0 -0.36329734489E+02 -0.31050134042E+02 -0.10448908149E+03  0.11489964571E+03  0.00000000000E+00 0.  1.
</event>
<event>
 8    1  0.7168478E-009  0.2847715E+03  0.7561462E-02  0.1093111E+00
          1   -1    0    0  501    0  0.00000000000E+00  0.00000000000E+00  0.10261801110E+04  0.10261801110E+04  0.00000000000E+00 0. -1.
         -1   -1    0    0    0  501 -0.00000000000E+00 -0.00000000000E+00 -0.85870075707E+02  0.85870075707E+02  0.00000000000E+00 0.  1.
         25    2    1    2    0    0 -0.18696161559E+03  0.20157602765E+03  0.52044655046E+03  0.60174543881E+03  0.12508165576E+03 0.  0.
         23    2    1    2    0    0  0.18696161559E+03 -0.20157602765E+03  0.41986348478E+03  0.51030474785E+03  0.92401564914E+02 0.  0.
          5    1    3    3  502    0 -0.48965329194E+02  0.12013294447E+02  0.18948580222E+03  0.19612308470E+03  0.41800000000E+01 0.  1.
         -5    1    3    3    0  502 -0.13799628640E+03  0.18956273320E+03  0.33096074824E+03  0.40562235411E+03  0.41800000000E+01 0.  1.
        -11    1    4    4    0    0  0.14587306680E+03 -0.10572661315E+03  0.21562641637E+03  0.28098366462E+03  0.00000000000E+00 0.  1.
         11    1    4    4    0    0  0.41088548793E+02 -0.95849414501E+02  0.20423706841E+03  0.22932108323E+03  0.00000000000E+00 0. -1.
</event>
